Title
29212
    1ASP      N    1   1.537   2.294   3.221  0.0120 -0.2118  0.0267
    1ASP    HT1    2   1.464   2.252   3.282  0.9841 -1.9355  0.0622
    1ASP    HT2    3   1.548   2.247   3.128 -0.3628  0.8396 -0.5691
    1ASP    HT3    4   1.507   2.391   3.197  0.5041  0.0288  0.3796
    1ASP     CA    5   1.667   2.289   3.298  1.0823 -0.1611  0.7573
    1ASP     HA    6   1.686   2.184   3.315  2.9933  0.0925  0.4413
    1ASP     CB    7   1.778   2.357   3.207  0.1980  0.6081  0.6250
    1ASP    HB1    8   1.778   2.467   3.223 -1.4378  0.7915 -0.3975
    1ASP    HB2    9   1.762   2.342   3.098  0.3840  1.0466  0.5356
    1ASP     CG   10   1.915   2.301   3.244 -0.2742  0.2898 -1.2080
    1ASP    OD1   11   1.924   2.216   3.338  0.7251  0.1247 -0.1683
    1ASP    OD2   12   2.021   2.333   3.189 -0.7693 -0.4143  0.1804
    1ASP      C   13   1.652   2.358   3.431  0.5034 -0.6657 -0.7230
    1ASP      O   14   1.548   2.412   3.462 -0.0995  0.1425 -0.2582
    2GLY      N   15   1.756   2.349   3.514 -0.1233  0.1973 -0.3071
    2GLY     HN   16   1.824   2.279   3.494  1.6643  1.1462  1.9307
    2GLY     CA   17   1.771   2.401   3.653  0.5157 -0.9624 -0.2090
    2GLY    HA1   18   1.878   2.406   3.665  0.5024 -0.7266 -0.1853
    2GLY    HA2   19   1.721   2.344   3.729  1.2992  1.5154  2.3467
    2GLY      C   20   1.726   2.546   3.684  0.7831 -0.2683  0.6396
    2GLY      O   21   1.765   2.638   3.614 -0.8487  0.0843  0.4367
    3ASP      N   22   1.642   2.564   3.786  0.1899 -0.2634 -0.0030
    3ASP     HN   23   1.595   2.484   3.823 -0.2962 -0.8481 -1.8060
    3ASP     CA   24   1.597   2.686   3.837  0.0965 -0.5081 -0.4139
    3ASP     HA   25   1.542   2.729   3.755 -1.7416  0.2275  1.1431
    3ASP     CB   26   1.496   2.667   3.950 -0.1924  0.4682  0.5596
    3ASP    HB1   27   1.465   2.773   3.965 -1.3127  0.4156 -1.1451
    3ASP    HB2   28   1.551   2.634   4.040  1.6970  0.8372 -0.3878
    3ASP     CG   29   1.376   2.591   3.923  0.2957 -0.3613  0.6765
    3ASP    OD1   30   1.358   2.535   3.812  0.1273 -0.4550  0.3726
    3ASP    OD2   31   1.301   2.566   4.020 -0.6229 -0.2242 -0.0969
    3ASP      C   32   1.701   2.787   3.883  0.2845  0.3547 -0.4647
    3ASP      O   33   1.799   2.744   3.941  0.0990  1.3182 -0.0991
    4GLY      N   34   1.683   2.922   3.854  0.0768 -0.1353  0.0188
    4GLY     HN   35   1.605   2.957   3.802  2.0084  0.9254 -2.3811
    4GLY     CA   36   1.784   3.021   3.888 -0.3838  0.5429 -0.1545
    4GLY    HA1   37   1.755   3.110   3.835  0.3411  0.5960 -0.4758
    4GLY    HA2   38   1.882   2.989   3.856  0.3141  3.7347 -1.4660
    4GLY      C   39   1.803   3.068   4.036  0.1989  0.7186  0.1926
    4GLY      O   40   1.748   3.005   4.125  0.6543 -0.4120 -0.1489
    5PRO      N   41   1.876   3.170   4.064 -0.7749 -0.0769  0.1865
    5PRO     CD   42   1.949   3.251   3.970 -0.8100  0.0815 -0.5746
    5PRO    HD1   43   1.891   3.338   3.933  1.2921  1.3241 -1.1255
    5PRO    HD2   44   1.972   3.194   3.878  0.2454 -0.0175 -0.2585
    5PRO     CA   45   1.911   3.198   4.208  0.2227 -0.4797  0.3277
    5PRO     HA   46   1.950   3.108   4.253  0.1240 -0.2321  0.9178
    5PRO     CB   47   2.009   3.315   4.196  0.4055 -0.3175  0.1320
    5PRO    HB1   48   2.092   3.319   4.270 -0.5879 -0.4708  1.2814
    5PRO    HB2   49   1.954   3.411   4.209 -2.0160 -1.8135  1.8263
    5PRO     CG   50   2.069   3.302   4.058 -0.3403  0.0524  0.2282
    5PRO    HG1   51   2.110   3.399   4.024  0.2439 -0.0074  0.7429
    5PRO    HG2   52   2.151   3.226   4.065  1.6774  2.1562  0.6100
    5PRO      C   53   1.787   3.238   4.295 -0.4490  0.1556 -0.4830
    5PRO      O   54   1.685   3.273   4.238  0.1103  0.7271 -0.2016
    6GLY      N   55   1.789   3.217   4.433 -0.3646  0.1561  0.5021
    6GLY     HN   56   1.864   3.163   4.471  0.7844  0.6128 -1.0150
    6GLY     CA   57   1.682   3.259   4.524  0.4984 -0.0363 -0.6880
    6GLY    HA1   58   1.716   3.245   4.625 -0.2372  0.6435 -0.3370
    6GLY    HA2   59   1.600   3.192   4.505  1.7306 -1.8582  0.1981
    6GLY      C   60   1.640   3.410   4.519 -0.4760 -0.8393 -0.3612
    6GLY      O   61   1.713   3.493   4.469 -0.1466 -0.3359 -0.2775
    7ASP      N   62   1.528   3.448   4.588  0.5693  0.1002  0.1619
    7ASP     HN   63   1.473   3.385   4.643 -2.0221  2.1937  0.1115
    7ASP     CA   64   1.485   3.583   4.594  0.2674  0.8659  0.7505
    7ASP     HA   65   1.510   3.622   4.496  0.1395 -0.6380  0.1007
    7ASP     CB   66   1.337   3.596   4.627 -0.0953 -0.3239 -0.2351
    7ASP    HB1   67   1.292   3.695   4.609 -0.8730 -0.3933  1.1490
    7ASP    HB2   68   1.321   3.575   4.735  1.6949  1.4092  0.4175
    7ASP     CG   69   1.248   3.512   4.536 -0.0464  0.3113 -0.0893
    7ASP    OD1   70   1.129   3.481   4.574  0.0100  0.0755 -0.2000
    7ASP    OD2   71   1.278   3.492   4.418  0.5760  0.7102  0.7900
    7ASP      C   72   1.565   3.653   4.695 -0.8936  0.4311  0.4021
    7ASP      O   73   1.637   3.595   4.782 -0.6669  0.1661 -0.5541
    8PRO      N   74   1.560   3.785   4.694  0.2546 -0.3745 -0.1803
    8PRO     CD   75   1.522   3.864   4.584  0.4901 -0.0326 -0.2854
    8PRO    HD1   76   1.411   3.862   4.581  0.5106 -0.9219 -0.9451
    8PRO    HD2   77   1.565   3.831   4.487 -0.8326 -0.3164 -0.7963
    8PRO     CA   78   1.580   3.861   4.816  0.4162 -0.7694 -0.3973
    8PRO     HA   79   1.683   3.847   4.846  0.0820  0.3253  1.3714
    8PRO     CB   80   1.561   4.009   4.774  0.6005  0.1034 -0.4888
    8PRO    HB1   81   1.619   4.070   4.846  1.8888 -2.8205  1.1391
    8PRO    HB2   82   1.456   4.034   4.800  0.1243 -1.5977 -0.6443
    8PRO     CG   83   1.583   4.003   4.620 -0.0314  0.1211  0.1383
    8PRO    HG1   84   1.534   4.089   4.569  0.6233 -0.9911 -2.4922
    8PRO    HG2   85   1.691   4.010   4.594 -0.0620 -1.4858 -0.4767
    8PRO      C   86   1.493   3.817   4.939 -0.6033 -0.4044  0.4757
    8PRO      O   87   1.369   3.798   4.915 -0.1400 -0.3730 -0.2900
    9GLY      N   88   1.555   3.817   5.063  0.5734 -0.0353  0.1132
    9GLY     HN   89   1.650   3.840   5.083  0.7253 -1.1157  0.7279
    9GLY     CA   90   1.491   3.775   5.197  0.2352  0.7539  0.3866
    9GLY    HA1   91   1.558   3.799   5.278  1.3911 -0.8415 -0.0343
    9GLY    HA2   92   1.462   3.671   5.200 -0.0994  0.7703 -1.2506
    9GLY      C   93   1.370   3.861   5.225 -0.4941 -0.3129  0.5905
    9GLY      O   94   1.352   3.968   5.166 -0.2026 -0.3206 -0.0675
   10ASP      N   95   1.293   3.818   5.322  0.1441  0.9134  0.2639
   10ASP     HN   96   1.328   3.760   5.394  0.2363  2.5190  1.5663
   10ASP     CA   97   1.168   3.887   5.355 -0.2909  0.0701 -0.1494
   10ASP     HA   98   1.115   3.908   5.263 -0.7136  0.3081  0.1460
   10ASP     CB   99   1.065   3.807   5.433 -0.5528 -0.1437  0.1241
   10ASP    HB1  100   0.967   3.859   5.445 -0.7156 -0.8852  2.3400
   10ASP    HB2  101   1.093   3.781   5.537  1.8789  1.1610 -0.1375
   10ASP     CG  102   1.044   3.684   5.356 -0.1510  0.2845 -0.4114
   10ASP    OD1  103   1.005   3.693   5.232 -0.8271  0.4246  0.0967
   10ASP    OD2  104   1.050   3.570   5.413  0.4210 -0.3445 -0.2279
   10ASP      C  105   1.198   4.019   5.420  0.1887  0.0941 -0.5677
   10ASP      O  106   1.315   4.059   5.441 -0.1810 -0.1076 -0.3738
   11GLY      N  107   1.090   4.090   5.456 -0.0964 -0.0988  0.1152
   11GLY     HN  108   0.999   4.053   5.436  0.3915 -0.5803 -1.3015
   11GLY     CA  109   1.099   4.219   5.520  0.5944  0.1367 -0.4070
   11GLY    HA1  110   1.189   4.228   5.579 -0.2506  0.5701  0.8540
   11GLY    HA2  111   1.006   4.233   5.573 -0.6881  1.2603 -2.7658
   11GLY      C  112   1.087   4.327   5.413 -0.4015  0.1010  0.3550
   11GLY    OT1  113   0.990   4.322   5.335  0.1631  0.0769 -0.0910
   11GLY    OT2  114   1.162   4.422   5.420 -0.3440 -0.0496 -0.2104
   12LIT    LIT  115   2.308   2.004   1.272  0.0755  0.8613  0.0875
   13LIT    LIT  116   0.304   2.890   0.303  0.0584  0.0917 -0.3895
   14LIT    LIT  117   1.506   3.891   5.819 -0.9683 -0.5726 -0.1945
   15LIT    LIT  118   5.691   5.451   4.727  0.7633  0.2636 -0.5135
   16LIT    LIT  119   1.077   4.509   5.275 -0.8119 -0.4059  0.0454
   17LIT    LIT  120   2.741   2.633   3.013  0.2015  0.7371 -0.6519
   18LIT    LIT  121   0.519   4.769   3.256 -0.2400  0.4662  0.1040
   19LIT    LIT  122   1.264   1.065   0.843  0.0859  0.0830 -0.3272
   20LIT    LIT  123   6.622   4.524   2.462  0.1576 -0.4659 -0.7667
   21LIT    LIT  124   4.603   3.053   3.975 -0.1458 -0.1772 -0.5814
   22LIT    LIT  125   5.218   6.219   0.643  0.0375  0.3811 -0.8746
   23LIT    LIT  126   3.214   6.719   1.452 -0.0796 -0.1810 -0.9497
   24LIT    LIT  127   1.068   1.199   5.692  0.3645 -0.2694 -0.0333
   25LIT    LIT  128   1.016   3.469   5.252 -0.7697 -0.1643 -0.2742
   26LIT    LIT  129   0.944   3.753   5.076  0.6631  0.0400 -0.0001
   27LIT    LIT  130   2.316   0.546   2.567  0.0165  1.3004 -0.7610
   28LIT    LIT  131   2.163   4.298   1.168 -0.2320 -0.0691  1.2994
   29LIT    LIT  132   5.969   4.929   1.818 -0.4012 -0.5528  0.0631
   30LIT    LIT  133   0.195   4.716   5.172  0.6148 -0.6861 -0.0988
   31LIT    LIT  134   1.642   6.413   5.717  0.5899 -0.5299 -0.3176
   32LIT    LIT  135   5.779   6.039   3.923  1.0284 -0.4274 -0.1560
   33LIT    LIT  136   5.730   3.099   4.726 -0.3568 -1.2842 -0.8465
   34LIT    LIT  137   3.866   4.494   2.085  1.2257  1.0572  0.9108
   35LIT    LIT  138   3.941   4.359   4.375  0.2196 -0.1209 -0.5873
   36LIT    LIT  139   4.292   0.253   5.297  0.3798 -0.4800  0.4100
   37LIT    LIT  140   2.561   5.199   2.429  0.1471 -0.0243  0.7789
   38LIT    LIT  141   6.100   6.329   1.741  0.3899 -0.4433  0.1483
   39LIT    LIT  142   2.124   2.208   3.293 -0.3647  0.3670 -0.3197
   40LIT    LIT  143   2.231   3.355   1.582  0.4324 -0.1745  0.1361
   41LIT    LIT  144   6.771   2.381   5.450 -0.1487 -0.5680 -0.7529
   42LIT    LIT  145   1.182   2.452   3.932  0.9222 -0.6156  0.0461
   43CLA    CLA  146   5.495   5.964   3.371 -0.0267 -0.0028  0.0024
   44CLA    CLA  147   4.961   0.548   1.802  0.2483  0.2930 -0.3575
   45CLA    CLA  148   4.062   4.500   2.211  0.0821  0.0134  0.0658
   46CLA    CLA  149   3.683   1.053   5.152 -0.0591  0.0315  0.0818
   47CLA    CLA  150   0.299   4.640   0.682 -0.1985  0.1430 -0.3237
   48CLA    CLA  151   0.622   6.577   2.910  0.4166 -0.1306 -0.2204
   49CLA    CLA  152   1.398   3.003   5.537 -0.0202 -0.2160  0.2341
   50CLA    CLA  153   6.104   3.510   2.841  0.0901 -0.3116  0.1081
   51CLA    CLA  154   2.095   1.695   0.141  0.0698 -0.0239 -0.0843
   52CLA    CLA  155   1.431   5.045   4.114 -0.2289 -0.3813 -0.2502
   53CLA    CLA  156   2.866   4.267   0.975  0.2144 -0.3476  0.2958
   54CLA    CLA  157   5.284   5.654   5.619 -0.0653  0.0986 -0.2253
   55CLA    CLA  158   4.218   0.022   2.612  0.1801  0.0227  0.5637
   56CLA    CLA  159   2.150   0.710   2.868  0.1405 -0.2846  0.1169
   57CLA    CLA  160   0.120   1.462   5.860 -0.1512  0.0840  0.1593
   58CLA    CLA  161   6.253   4.949   1.439 -0.1232  0.0563  0.0351
   59CLA    CLA  162   4.864   4.254   4.657 -0.2128  0.5810  0.0908
   60CLA    CLA  163   0.220   0.081   5.291 -0.0001 -0.5603 -0.3261
   61CLA    CLA  164   4.608   6.123   0.393 -0.1090 -0.0163 -0.3466
   62CLA    CLA  165   2.195   0.069   4.601 -0.0493 -0.0631 -0.1108
   63CLA    CLA  166   2.227   2.339   1.043  0.5356 -0.3888  0.2369
   64CLA    CLA  167   5.074   3.831   3.773  0.2007 -0.1002 -0.1436
   65CLA    CLA  168   1.399   0.636   0.563  0.3233  0.2068  0.2711
   66CLA    CLA  169   1.013   0.917   1.647 -0.1675 -0.1948 -0.4204
   67CLA    CLA  170   2.059   0.785   1.374 -0.1381  0.4365  0.2284
   68CLA    CLA  171   0.981   2.564   3.857 -0.1327 -0.2674  0.0428
   69CLA    CLA  172   3.056   2.415   2.958 -0.0894  0.2349 -0.0397
   70TIP3   OH2  173   3.845   0.297   1.826  0.0061  0.0161  0.4102
   70TIP3    H1  174   3.807   0.377   1.861 -0.9670 -0.3815  0.3238
   70TIP3    H2  175   3.781   0.268   1.760  0.6426 -0.5009  0.0088
   71TIP3   OH2  176   5.951   3.728   2.984  0.1195 -0.2686  0.2411
   71TIP3    H1  177   5.974   3.693   3.070 -0.5248  0.0170  0.5400
   71TIP3    H2  178   5.984   3.664   2.922 -1.0613 -1.4467  0.7746
   72TIP3   OH2  179   6.791   1.784   1.102  0.0718  0.2414  0.2271
   72TIP3    H1  180   6.728   1.853   1.078 -0.4347 -0.6704 -1.1932
   72TIP3    H2  181   6.768   1.761   1.192  0.0919  1.7351  0.6465
   73TIP3   OH2  182   5.347   3.948   4.631 -0.0438  0.2649  0.5051
   73TIP3    H1  183   5.361   3.884   4.700 -1.2848  0.4766  0.9892
   73TIP3    H2  184   5.303   3.899   4.561  0.4278  0.2472  0.2139
   74TIP3   OH2  185   4.458   6.531   0.741  0.6525  0.0136 -0.4274
   74TIP3    H1  186   4.437   6.481   0.662 -0.3753 -1.1715  0.5497
   74TIP3    H2  187   4.553   6.519   0.752  0.6513 -0.5836 -0.9731
   75TIP3   OH2  188   1.985   1.584   1.776  0.5190 -0.1376  0.1867
   75TIP3    H1  189   2.066   1.565   1.729 -0.1711 -0.9504 -0.7111
   75TIP3    H2  190   1.928   1.510   1.756 -0.4522  0.4238  0.7980
   76TIP3   OH2  191   4.607   0.036   0.633  0.3036 -0.1187  0.4933
   76TIP3    H1  192   4.592  -0.054   0.662 -2.2206  0.2612  0.6063
   76TIP3    H2  193   4.629   0.029   0.541  0.1280 -0.8567  0.5018
   77TIP3   OH2  194   3.059   5.213   2.853 -0.2830 -0.7101 -0.6317
   77TIP3    H1  195   3.078   5.170   2.936 -1.0518 -3.5071 -1.7734
   77TIP3    H2  196   3.136   5.195   2.799 -0.4401 -0.2724 -1.0092
   78TIP3   OH2  197   5.842   1.404   0.207 -0.7164 -0.1738  0.5598
   78TIP3    H1  198   5.788   1.445   0.275 -0.7836  1.6508 -0.5280
   78TIP3    H2  199   5.817   1.449   0.126  0.7285 -0.9626 -0.3698
   79TIP3   OH2  200   0.690   3.233   2.668  0.1895  0.2332  0.3765
   79TIP3    H1  201   0.775   3.224   2.711  0.4485 -1.4641 -0.4091
   79TIP3    H2  202   0.626   3.227   2.739  0.6004 -2.6648  0.5981
   80TIP3   OH2  203   1.332   4.637   3.192  0.6120  0.7537  0.3264
   80TIP3    H1  204   1.279   4.620   3.270  1.6702 -0.9155  0.7403
   80TIP3    H2  205   1.287   4.591   3.121  0.2037  1.4094  0.1514
   81TIP3   OH2  206   1.079   0.782   4.152 -0.2794 -0.5189  0.4704
   81TIP3    H1  207   1.025   0.795   4.230 -0.9883  0.6820 -0.1912
   81TIP3    H2  208   1.052   0.695   4.120 -2.1596  0.1959 -0.0523
   82TIP3   OH2  209   6.142   0.761   5.395 -0.1976 -0.1328  0.0067
   82TIP3    H1  210   6.173   0.811   5.470 -1.2263  1.6205 -0.6747
   82TIP3    H2  211   6.149   0.821   5.321  1.2622 -1.9750 -1.4569
   83TIP3   OH2  212   5.047   4.347   5.200  0.3574 -0.1530 -0.2946
   83TIP3    H1  213   5.069   4.291   5.126  1.6554 -0.5022  0.3210
   83TIP3    H2  214   5.032   4.287   5.273  1.4756  0.2534  0.3011
   84TIP3   OH2  215   1.493   6.006   4.220 -0.4462  0.3230  0.1910
   84TIP3    H1  216   1.433   6.081   4.218  0.2143  0.8598 -0.3756
   84TIP3    H2  217   1.505   5.987   4.313 -0.3798  1.1250  0.3532
   85TIP3   OH2  218   5.870   1.205   2.029  0.0526  0.2272  0.2848
   85TIP3    H1  219   5.932   1.163   1.971  0.4983  0.9283  0.2427
   85TIP3    H2  220   5.886   1.299   2.018 -0.6241  0.4009  0.6943
   86TIP3   OH2  221   0.926   1.456   3.892 -0.1612  0.4131 -0.0141
   86TIP3    H1  222   0.867   1.383   3.874  0.6503 -0.4871  0.8493
   86TIP3    H2  223   0.998   1.444   3.830  0.5125 -0.1760  0.8657
   87TIP3   OH2  224   6.044   3.770   1.536  0.2340  0.4333 -0.2013
   87TIP3    H1  225   6.043   3.723   1.453 -1.9876 -0.1220  0.0884
   87TIP3    H2  226   6.074   3.705   1.600 -2.7329 -0.6963  0.1823
   88TIP3   OH2  227   0.919   0.547   3.978  0.7978 -0.8559 -0.1476
   88TIP3    H1  228   0.868   0.473   3.947  1.3113 -0.9580 -0.7779
   88TIP3    H2  229   1.004   0.510   4.002  1.8163 -0.2264 -2.4590
   89TIP3   OH2  230   4.285   6.401   1.905 -0.2979  0.3413 -0.2072
   89TIP3    H1  231   4.333   6.484   1.899  1.2053 -0.4747 -0.0346
   89TIP3    H2  232   4.329   6.352   1.974  0.1124 -1.3742 -1.5962
   90TIP3   OH2  233   3.282   4.086   5.851  0.1591  0.4582 -0.0067
   90TIP3    H1  234   3.197   4.121   5.824  0.3727  2.0157  1.2227
   90TIP3    H2  235   3.261   4.019   5.916 -0.1451  0.3744 -0.1892
   91TIP3   OH2  236   2.760   3.223   4.164 -0.9214 -0.4035 -0.0559
   91TIP3    H1  237   2.741   3.132   4.140 -1.1689 -0.1156 -0.9985
   91TIP3    H2  238   2.830   3.217   4.228 -1.5210 -1.3033  0.5391
   92TIP3   OH2  239   0.872   6.739   3.676 -0.0314 -0.0352 -0.0127
   92TIP3    H1  240   0.936   6.793   3.629 -0.3114 -0.8534 -1.3980
   92TIP3    H2  241   0.909   6.729   3.763  0.6641  1.2853 -0.1304
   93TIP3   OH2  242   0.836   2.657   1.290 -0.1929 -0.5294 -0.5785
   93TIP3    H1  243   0.894   2.581   1.282  0.1782 -0.4269  0.8754
   93TIP3    H2  244   0.789   2.643   1.372 -1.0105  0.2191 -0.9057
   94TIP3   OH2  245   5.654   4.152   5.490  0.6158 -0.0423 -0.2304
   94TIP3    H1  246   5.637   4.152   5.396 -2.0453  1.3146  0.1567
   94TIP3    H2  247   5.707   4.231   5.505  0.6252  0.0106 -0.5445
   95TIP3   OH2  248   0.506   2.954   2.445  0.0232  0.1830 -0.1638
   95TIP3    H1  249   0.420   2.968   2.406 -0.1828 -0.0339  0.2123
   95TIP3    H2  250   0.494   2.973   2.538  0.3297 -0.0706 -0.0706
   96TIP3   OH2  251   0.257   5.587   3.482 -0.2912  0.5921  0.3440
   96TIP3    H1  252   0.250   5.577   3.577  0.5251  0.9502  0.4490
   96TIP3    H2  253   0.169   5.566   3.449 -0.6442  0.7016  1.1929
   97TIP3   OH2  254   6.596   6.118   3.662  0.5980  0.2703 -0.0695
   97TIP3    H1  255   6.514   6.070   3.673  0.3889  0.3839 -1.0200
   97TIP3    H2  256   6.638   6.114   3.748 -0.2240 -0.1133  0.3285
   98TIP3   OH2  257   1.267   6.565   4.104  0.4732 -0.1649  0.0437
   98TIP3    H1  258   1.346   6.551   4.052  0.1453  1.3383 -0.9201
   98TIP3    H2  259   1.199   6.514   4.060  0.3923  0.4225 -0.5292
   99TIP3   OH2  260   5.510   0.120   4.788 -0.1235 -0.4546 -0.2891
   99TIP3    H1  261   5.533   0.210   4.767  0.9293 -0.8582 -0.9277
   99TIP3    H2  262   5.460   0.127   4.869  1.1282  0.6084  0.4439
  100TIP3   OH2  263   0.467   0.429   0.677  0.0522  0.4607 -0.2345
  100TIP3    H1  264   0.527   0.387   0.615  0.2000  0.9818 -0.4431
  100TIP3    H2  265   0.392   0.369   0.680  0.4751 -0.0784 -0.1442
  101TIP3   OH2  266   5.407   1.751   0.782  0.1236 -0.7606  0.5644
  101TIP3    H1  267   5.317   1.784   0.777  0.1371 -0.6714  0.8468
  101TIP3    H2  268   5.452   1.814   0.839  0.4697 -0.5820  0.0995
  102TIP3   OH2  269   0.676   2.724   5.340  0.3611  0.6992  0.0437
  102TIP3    H1  270   0.640   2.638   5.320  0.4029  0.4070  1.1570
  102TIP3    H2  271   0.686   2.766   5.255 -0.2403 -0.1603 -0.4686
  103TIP3   OH2  272   3.404   5.594   5.696 -0.1249  0.2036  0.1804
  103TIP3    H1  273   3.499   5.589   5.704 -0.2356 -0.5681  1.4483
  103TIP3    H2  274   3.388   5.630   5.609  1.3127 -0.6435 -0.4709
  104TIP3   OH2  275   4.319   3.817   1.386 -0.3840  0.1991  0.1187
  104TIP3    H1  276   4.324   3.721   1.387 -2.0933  0.0657  0.7795
  104TIP3    H2  277   4.402   3.845   1.350  0.9668 -1.4767  1.7230
  105TIP3   OH2  278   2.395   2.697   4.144 -0.0905 -0.9888  0.5547
  105TIP3    H1  279   2.328   2.629   4.133 -1.2428  0.0421  0.8884
  105TIP3    H2  280   2.408   2.702   4.239 -1.1460  0.2558  0.6681
  106TIP3   OH2  281   3.267   5.700   3.938 -0.3197 -0.4580  0.1478
  106TIP3    H1  282   3.258   5.609   3.966 -0.5133  0.1814  2.3592
  106TIP3    H2  283   3.187   5.718   3.889 -0.7185 -1.2054  0.4939
  107TIP3   OH2  284   4.761   5.807   2.875  0.2408 -0.1034 -0.2380
  107TIP3    H1  285   4.716   5.724   2.860  1.7879 -0.9547 -0.3817
  107TIP3    H2  286   4.711   5.850   2.945 -0.3874 -1.2811  0.0574
  108TIP3   OH2  287   1.982   5.254   2.523 -0.3477 -0.2179  0.0974
  108TIP3    H1  288   1.917   5.270   2.590 -0.2224  0.5388  0.0382
  108TIP3    H2  289   2.056   5.309   2.546  0.8290 -2.0529  0.9165
  109TIP3   OH2  290   6.183   0.144   1.990  0.6346 -0.1868 -0.1490
  109TIP3    H1  291   6.094   0.155   1.954  0.3751  2.1581  1.0205
  109TIP3    H2  292   6.169   0.125   2.083  1.2906  1.9121  0.4367
  110TIP3   OH2  293   3.829   2.315   0.855 -0.4060  0.0357 -0.3544
  110TIP3    H1  294   3.894   2.269   0.802  0.0402 -0.3520  0.5010
  110TIP3    H2  295   3.745   2.297   0.812 -0.0100  0.0897 -1.1632
  111TIP3   OH2  296   1.149   3.183   0.084  0.4096  0.4359  0.5810
  111TIP3    H1  297   1.182   3.229   0.007 -2.3151  2.9649  0.7225
  111TIP3    H2  298   1.057   3.166   0.064 -0.2514  0.6721  3.0069
  112TIP3   OH2  299   3.479   5.051   4.316  0.0671  0.0118  0.3153
  112TIP3    H1  300   3.443   5.030   4.231  0.6269 -0.8273  0.2692
  112TIP3    H2  301   3.430   5.128   4.346  1.3820  1.7764 -1.7545
  113TIP3   OH2  302   2.494   6.684   3.384  0.2767 -0.0060  0.2778
  113TIP3    H1  303   2.444   6.765   3.371 -0.3480 -0.4747 -0.2786
  113TIP3    H2  304   2.481   6.634   3.304  1.0788 -0.4451  0.4108
  114TIP3   OH2  305   4.232   0.132   5.147 -0.1176  0.3513  0.4985
  114TIP3    H1  306   4.292   0.071   5.103 -0.5738  1.4130 -1.7862
  114TIP3    H2  307   4.156   0.080   5.169  0.8748 -0.6198  1.7597
  115TIP3   OH2  308   5.983   4.401   4.218  0.1565 -0.3130  0.0961
  115TIP3    H1  309   5.944   4.407   4.305  0.4692 -1.3628  0.3137
  115TIP3    H2  310   5.932   4.334   4.173  0.7429 -0.6091 -0.1309
  116TIP3   OH2  311   4.467   2.212   2.209  0.5283 -0.2250 -0.4311
  116TIP3    H1  312   4.549   2.201   2.161  0.9130 -0.1219  0.1825
  116TIP3    H2  313   4.442   2.123   2.235  0.9252 -0.1772  0.1426
  117TIP3   OH2  314   2.858   1.414   4.080 -0.3816 -0.1200  0.7610
  117TIP3    H1  315   2.938   1.427   4.028 -0.2496 -1.4176  0.6204
  117TIP3    H2  316   2.833   1.503   4.106 -0.6233  0.6302 -1.7578
  118TIP3   OH2  317   4.925   0.051   4.710  0.6641  0.1196 -0.9287
  118TIP3    H1  318   4.852  -0.006   4.732  1.4255 -0.7907 -0.6737
  118TIP3    H2  319   4.962   0.013   4.629  1.5216 -0.1047 -0.4472
  119TIP3   OH2  320   4.764   5.712   1.562 -0.0475 -0.4022  0.1763
  119TIP3    H1  321   4.695   5.775   1.582  0.0739  0.0018 -0.6479
  119TIP3    H2  322   4.804   5.693   1.647 -2.6425 -2.4442  1.0836
  120TIP3   OH2  323   1.855   4.597   4.248  0.1957 -0.4796 -0.0679
  120TIP3    H1  324   1.815   4.675   4.287  1.1544 -0.5598  1.1244
  120TIP3    H2  325   1.890   4.628   4.165  3.2397  1.2185  1.6399
  121TIP3   OH2  326   5.827   2.709   5.738 -0.1454  0.3134  0.6677
  121TIP3    H1  327   5.755   2.769   5.716  0.8414  1.2555 -0.1526
  121TIP3    H2  328   5.807   2.679   5.826 -1.5649  0.5170  0.4388
  122TIP3   OH2  329   5.508   4.430   4.738 -0.2649 -0.4376  0.3207
  122TIP3    H1  330   5.441   4.370   4.707  0.7122 -1.1230 -0.5295
  122TIP3    H2  331   5.563   4.447   4.662  0.2511  0.4917  0.8784
  123TIP3   OH2  332   7.200   5.164   4.454 -0.1694 -0.2347  1.0279
  123TIP3    H1  333   7.112   5.133   4.475 -0.1176 -0.5754  0.7483
  123TIP3    H2  334   7.206   5.155   4.359 -0.0289  0.3106  0.9798
  124TIP3   OH2  335   4.805   3.454   3.415  0.6589 -0.0910  0.5975
  124TIP3    H1  336   4.774   3.543   3.432  0.1311 -0.4284  1.4729
  124TIP3    H2  337   4.881   3.466   3.358 -0.7169  0.7720 -1.1150
  125TIP3   OH2  338   0.053   5.577   2.123  0.2224 -0.2055  0.0984
  125TIP3    H1  339  -0.042   5.583   2.113  0.4172  0.4239 -1.9670
  125TIP3    H2  340   0.081   5.521   2.050  1.6088  1.4820 -0.7648
  126TIP3   OH2  341   4.076   1.905   2.680  0.6976  0.0979  0.5523
  126TIP3    H1  342   4.075   1.983   2.735 -0.3927 -1.1442  2.4163
  126TIP3    H2  343   3.992   1.862   2.697  0.6785 -0.8092 -1.4706
  127TIP3   OH2  344   2.157   6.029   2.541  0.0388 -0.2091  0.3300
  127TIP3    H1  345   2.133   5.963   2.606  0.0926 -0.4496  0.1045
  127TIP3    H2  346   2.102   6.105   2.563  0.8085  0.0832  1.3061
  128TIP3   OH2  347   2.246   5.671   4.847  0.5704  0.1692 -0.2862
  128TIP3    H1  348   2.300   5.664   4.925  0.9274  1.1287 -0.4416
  128TIP3    H2  349   2.287   5.611   4.784  1.1508  0.5158 -0.2348
  129TIP3   OH2  350   2.786   4.702   1.605  0.2083  0.3207  0.3067
  129TIP3    H1  351   2.841   4.719   1.528 -1.3450 -0.8499 -1.1245
  129TIP3    H2  352   2.709   4.758   1.592 -0.0706  0.1041  1.0013
  130TIP3   OH2  353   3.189   0.327   3.824 -0.4926 -0.5215 -0.3788
  130TIP3    H1  354   3.141   0.338   3.907 -0.2245  0.0541 -0.2954
  130TIP3    H2  355   3.192   0.415   3.787 -0.5984 -0.7772 -0.9999
  131TIP3   OH2  356   0.899   0.898   4.860  0.1436  0.5379  0.1171
  131TIP3    H1  357   0.832   0.829   4.861 -0.0066  0.6891  0.4692
  131TIP3    H2  358   0.943   0.889   4.944 -1.2705  2.2424  1.0983
  132TIP3   OH2  359   6.363   4.964   5.747 -0.1057 -0.5085 -0.7100
  132TIP3    H1  360   6.358   4.901   5.675  0.6220  0.1593 -1.3710
  132TIP3    H2  361   6.278   4.959   5.790  0.6129 -3.4764  0.5854
  133TIP3   OH2  362   6.184   3.291   0.207 -0.8002 -0.1989  0.6109
  133TIP3    H1  363   6.196   3.260   0.297 -1.6317 -1.3522  0.3462
  133TIP3    H2  364   6.273   3.307   0.175 -0.5239  2.6504  2.4040
  134TIP3   OH2  365   1.379   0.978   3.046  0.2799 -0.6022 -0.1639
  134TIP3    H1  366   1.381   0.988   2.951 -0.5422  0.7787 -0.0541
  134TIP3    H2  367   1.341   0.892   3.061 -0.4386 -0.4480 -1.0705
  135TIP3   OH2  368   5.281   1.785   2.810  0.0939  0.3416  0.4553
  135TIP3    H1  369   5.206   1.726   2.799 -0.2068  0.7431  0.3309
  135TIP3    H2  370   5.245   1.872   2.796  0.8382  0.4530 -0.9100
  136TIP3   OH2  371   2.550   2.233   4.827  0.1659 -0.0487 -0.0166
  136TIP3    H1  372   2.583   2.229   4.916 -0.0385 -0.3643  0.0445
  136TIP3    H2  373   2.557   2.143   4.795  0.1477  0.0446 -0.2856
  137TIP3   OH2  374   4.636   1.447   5.666  0.2555 -0.1927 -0.1248
  137TIP3    H1  375   4.668   1.391   5.596  0.5628  1.5526 -1.4632
  137TIP3    H2  376   4.708   1.508   5.683  0.3771 -0.8545  2.1059
  138TIP3   OH2  377   3.577   6.257   2.065  0.1499  0.0797 -0.3617
  138TIP3    H1  378   3.496   6.299   2.037 -0.1399 -0.8067 -0.8966
  138TIP3    H2  379   3.553   6.165   2.078  1.5091 -0.6740 -2.6084
  139TIP3   OH2  380   3.445   3.843   5.536 -0.2224  0.2511  0.5297
  139TIP3    H1  381   3.532   3.851   5.495  0.4860 -0.1414  1.8960
  139TIP3    H2  382   3.447   3.907   5.607 -0.8854 -0.0900  0.8578
  140TIP3   OH2  383   2.492   3.284   3.278 -0.4807  0.5499 -0.4014
  140TIP3    H1  384   2.428   3.354   3.269 -0.2690  0.6520 -1.1962
  140TIP3    H2  385   2.475   3.246   3.364 -0.3068  1.8680  0.2357
  141TIP3   OH2  386   5.399   3.428   0.004  0.1037 -0.2020  0.1699
  141TIP3    H1  387   5.337   3.478   0.057  0.6009  0.4136  0.1822
  141TIP3    H2  388   5.386   3.337   0.032 -3.0425 -0.5897 -2.0787
  142TIP3   OH2  389   5.169   4.903   5.303 -0.0618 -0.4194 -0.0071
  142TIP3    H1  390   5.265   4.903   5.302 -0.0366  0.8470 -1.2032
  142TIP3    H2  391   5.146   4.820   5.343  1.5426 -1.0531 -0.2939
  143TIP3   OH2  392   3.867   0.805   0.905 -0.0815 -0.5057 -0.7504
  143TIP3    H1  393   3.853   0.899   0.916 -1.7904 -0.8016 -0.0607
  143TIP3    H2  394   3.911   0.777   0.985 -1.0778 -0.5512 -0.2066
  144TIP3   OH2  395   6.615   1.460   5.583 -0.3211 -0.3374 -0.3976
  144TIP3    H1  396   6.686   1.517   5.614  0.2592 -1.3245  0.1274
  144TIP3    H2  397   6.570   1.432   5.662 -2.1721  1.3129 -0.7834
  145TIP3   OH2  398   3.281   6.543   4.680  0.7995 -0.3872  0.1672
  145TIP3    H1  399   3.374   6.566   4.679  0.5746  0.5783  0.1177
  145TIP3    H2  400   3.273   6.475   4.614  1.9686 -2.6174  2.1834
  146TIP3   OH2  401   0.041   5.516   4.984 -0.2325 -0.1871  0.1105
  146TIP3    H1  402   0.128   5.475   4.989 -0.7786 -1.6534 -1.1712
  146TIP3    H2  403   0.049   5.580   4.913 -0.2384 -0.4757 -0.1548
  147TIP3   OH2  404   4.156   1.056   0.402 -0.4716  0.6569  0.1098
  147TIP3    H1  405   4.194   1.013   0.325  0.3075  2.7402 -0.7398
  147TIP3    H2  406   4.061   1.050   0.388 -0.4116 -1.0951  0.2384
  148TIP3   OH2  407   6.273   6.330   1.652 -0.0138 -0.5138 -0.0777
  148TIP3    H1  408   6.342   6.271   1.685 -0.0525  0.0937  1.1488
  148TIP3    H2  409   6.302   6.353   1.563  0.9745 -0.8866  0.1303
  149TIP3   OH2  410   1.233   6.435   4.372 -0.3358 -0.4500 -0.7202
  149TIP3    H1  411   1.265   6.515   4.332 -0.2323 -0.3551 -0.4500
  149TIP3    H2  412   1.148   6.420   4.332  0.3091 -1.0565 -1.9271
  150TIP3   OH2  413   1.221   2.377   4.679  0.4312  0.1333  0.0137
  150TIP3    H1  414   1.276   2.331   4.742  1.0938 -0.7130 -1.1482
  150TIP3    H2  415   1.176   2.444   4.731  1.6289  0.0540  1.2113
  151TIP3   OH2  416   7.156   4.190   3.439 -0.1710 -0.7589  0.0402
  151TIP3    H1  417   7.096   4.193   3.513 -0.0066  0.4264  0.1491
  151TIP3    H2  418   7.137   4.269   3.389  0.2504 -1.1534 -0.7667
  152TIP3   OH2  419   0.198   0.697   1.301  0.0177 -0.7126 -0.3397
  152TIP3    H1  420   0.238   0.767   1.353 -1.8538  0.2724 -0.1220
  152TIP3    H2  421   0.248   0.696   1.219 -0.0589  1.0833 -0.4534
  153TIP3   OH2  422   6.245   3.379   1.459  0.2066 -0.2222 -0.0867
  153TIP3    H1  423   6.299   3.404   1.384 -0.2628  0.8959 -0.0636
  153TIP3    H2  424   6.249   3.454   1.518  2.1836 -1.7764  1.9779
  154TIP3   OH2  425   1.690   5.067   2.374  0.0841  0.1086  0.1694
  154TIP3    H1  426   1.601   5.051   2.343  1.0187 -2.1833 -1.6366
  154TIP3    H2  427   1.744   5.003   2.328  3.3715  3.9623 -2.0222
  155TIP3   OH2  428   0.188   6.718   2.325 -0.5827  0.1536  0.2907
  155TIP3    H1  429   0.098   6.742   2.345 -0.7284 -0.6089  0.5948
  155TIP3    H2  430   0.211   6.655   2.393  0.0859  0.1335  0.0507
  156TIP3   OH2  431   7.177   4.283   2.151  0.1140 -0.1777  0.4575
  156TIP3    H1  432   7.107   4.346   2.133 -0.4047 -0.7514  0.4625
  156TIP3    H2  433   7.214   4.262   2.066  0.6346  0.5210  0.5011
  157TIP3   OH2  434   4.517   4.546   5.723 -0.2745  0.1251 -0.1231
  157TIP3    H1  435   4.555   4.486   5.788  0.0542  1.4895  1.0007
  157TIP3    H2  436   4.564   4.629   5.737  0.2535  0.3048 -2.5488
  158TIP3   OH2  437   3.172   6.218   2.411  0.1168  0.2134 -0.4263
  158TIP3    H1  438   3.172   6.270   2.491  0.6957 -0.5860  0.1045
  158TIP3    H2  439   3.115   6.144   2.431  1.3307 -0.6980 -0.2693
  159TIP3   OH2  440   3.639   2.311   1.935 -0.2370  0.3895 -0.5528
  159TIP3    H1  441   3.675   2.383   1.987 -1.3649  0.8092 -0.3188
  159TIP3    H2  442   3.628   2.348   1.847 -1.0234  0.6001 -0.3806
  160TIP3   OH2  443   6.780   0.663   0.431 -0.6567  0.0662  0.8023
  160TIP3    H1  444   6.763   0.617   0.514 -0.6980 -1.3465  0.0491
  160TIP3    H2  445   6.698   0.655   0.382  0.4732 -2.5474 -0.8990
  161TIP3   OH2  446   2.543   1.794   0.178 -0.4625 -0.2478  0.0824
  161TIP3    H1  447   2.568   1.733   0.109  1.0951 -0.6173  0.9513
  161TIP3    H2  448   2.515   1.873   0.130  1.5965 -0.0991 -1.0079
  162TIP3   OH2  449   2.760   2.929   4.164  0.6900 -0.1113  0.0098
  162TIP3    H1  450   2.704   2.858   4.132 -0.4437  0.6650  0.2141
  162TIP3    H2  451   2.846   2.910   4.127  0.4001 -1.5575  0.0122
  163TIP3   OH2  452   6.486   5.599   2.236  0.3087 -0.0056  0.3793
  163TIP3    H1  453   6.518   5.683   2.203 -1.1446  0.1416 -0.7672
  163TIP3    H2  454   6.470   5.614   2.329 -0.3944  1.1495  0.0916
  164TIP3   OH2  455   2.290   0.131   5.526 -0.1688 -0.1089  0.0332
  164TIP3    H1  456   2.224   0.062   5.521 -0.9355  0.5074  1.0363
  164TIP3    H2  457   2.240   0.212   5.513  0.5887  0.2965 -0.3740
  165TIP3   OH2  458   0.917   5.500   0.235 -0.6362 -0.0114  0.0255
  165TIP3    H1  459   0.893   5.570   0.295 -1.6066 -0.5502  0.2811
  165TIP3    H2  460   0.849   5.434   0.246  0.9542 -1.6059  0.7527
  166TIP3   OH2  461   1.017   1.801   0.456 -0.1754 -0.0183  0.2984
  166TIP3    H1  462   0.928   1.803   0.420  0.0940 -0.3070 -0.4062
  166TIP3    H2  463   1.055   1.721   0.420  0.5046  0.3106  0.2651
  167TIP3   OH2  464   2.424   6.037   0.947  0.2718  0.1164 -0.0895
  167TIP3    H1  465   2.363   5.965   0.963 -1.3114  1.5262  0.6142
  167TIP3    H2  466   2.384   6.086   0.875  2.3065 -0.6856 -1.9057
  168TIP3   OH2  467   3.286   1.013   2.424 -0.3667 -0.1790  0.1905
  168TIP3    H1  468   3.211   0.961   2.395  0.4182 -2.5631  2.1221
  168TIP3    H2  469   3.251   1.068   2.494 -0.7049  0.2407 -0.2972
  169TIP3   OH2  470   5.165   0.008   0.770  0.3924 -0.5097  0.1507
  169TIP3    H1  471   5.159   0.104   0.769  2.3417 -0.3212  1.3692
  169TIP3    H2  472   5.135  -0.018   0.683  0.4819  1.2757 -0.4617
  170TIP3   OH2  473   2.417   3.685   3.488 -0.1245 -0.6593 -0.2196
  170TIP3    H1  474   2.386   3.772   3.515 -1.2698 -1.5236  1.4794
  170TIP3    H2  475   2.510   3.684   3.510  0.0081  0.2891 -0.7029
  171TIP3   OH2  476   0.185   5.434   3.157 -0.3403  0.0027 -0.3506
  171TIP3    H1  477   0.158   5.355   3.111  0.5274 -0.5904  0.1472
  171TIP3    H2  478   0.278   5.422   3.174 -1.0761 -1.0347  3.9133
  172TIP3   OH2  479   3.531   3.627   1.067  0.5492 -0.2566  0.5454
  172TIP3    H1  480   3.593   3.555   1.059  0.6587 -0.1392  0.3573
  172TIP3    H2  481   3.445   3.586   1.059  0.5748 -0.5291  1.5479
  173TIP3   OH2  482   4.224   1.207   5.671  0.3798  0.1332 -0.3954
  173TIP3    H1  483   4.218   1.294   5.710  0.0928  0.0634 -0.2779
  173TIP3    H2  484   4.192   1.219   5.581 -2.5975 -0.3905  0.4649
  174TIP3   OH2  485   6.776   0.439   1.369  0.0224  0.0200 -0.2114
  174TIP3    H1  486   6.842   0.435   1.300  2.3962 -0.5481  1.9464
  174TIP3    H2  487   6.756   0.348   1.390  1.1439  0.0913  1.3882
  175TIP3   OH2  488   5.889   6.496   0.363 -0.0878  0.7031 -1.1283
  175TIP3    H1  489   5.866   6.587   0.381 -2.3362  0.3950 -2.0843
  175TIP3    H2  490   5.863   6.483   0.271  1.3599 -0.5771 -1.3957
  176TIP3   OH2  491   5.852   0.342   2.204 -0.2332 -0.2159 -0.1723
  176TIP3    H1  492   5.770   0.392   2.210 -1.0061 -1.4157 -0.3549
  176TIP3    H2  493   5.920   0.409   2.199 -1.1406  0.8176  0.6400
  177TIP3   OH2  494   4.163   2.099   1.587  0.2227  0.5248 -0.0979
  177TIP3    H1  495   4.183   2.031   1.522  1.2822 -0.6372  1.3878
  177TIP3    H2  496   4.247   2.142   1.602  0.1975  0.1587  1.1687
  178TIP3   OH2  497   1.739   1.257   4.592 -0.0054 -0.0805 -0.3048
  178TIP3    H1  498   1.806   1.191   4.577 -1.5411 -1.6623 -0.4808
  178TIP3    H2  499   1.661   1.208   4.616 -0.6297  1.7921  1.8463
  179TIP3   OH2  500   3.899   0.439   5.264  0.5332  0.6628 -0.3059
  179TIP3    H1  501   3.818   0.469   5.307 -0.3082  0.9076 -1.9871
  179TIP3    H2  502   3.880   0.446   5.170  2.2560 -0.0021 -0.7306
  180TIP3   OH2  503  -0.003   4.683   0.682  0.0496  0.0387  0.5992
  180TIP3    H1  504  -0.008   4.733   0.600 -2.0222 -1.6502 -0.4066
  180TIP3    H2  505   0.088   4.652   0.685 -0.0354 -0.6383 -1.6147
  181TIP3   OH2  506   2.299   4.030   2.923 -0.1979  0.0666  0.3022
  181TIP3    H1  507   2.351   3.965   2.876 -0.2688 -0.1544  0.5245
  181TIP3    H2  508   2.209   4.000   2.913 -0.1410 -0.4532  1.2973
  182TIP3   OH2  509   1.454   2.954   4.620 -0.0725  0.5807 -0.3878
  182TIP3    H1  510   1.536   2.943   4.573 -0.1719  1.0653 -0.6783
  182TIP3    H2  511   1.479   2.992   4.704  0.0266  0.4429 -0.3537
  183TIP3   OH2  512   3.125   5.869   1.017  0.0956  0.2762 -0.0843
  183TIP3    H1  513   3.212   5.894   1.049 -0.3806  0.4726  1.1185
  183TIP3    H2  514   3.111   5.924   0.941  0.3580  1.4429  0.6813
  184TIP3   OH2  515   3.556   3.677   4.449 -0.5633  0.2787  0.4238
  184TIP3    H1  516   3.510   3.735   4.387 -1.7314 -0.9957  0.0469
  184TIP3    H2  517   3.564   3.729   4.528 -0.3359  1.4458 -0.3393
  185TIP3   OH2  518   3.143   2.149   5.706  0.1307 -0.2739  0.1549
  185TIP3    H1  519   3.237   2.129   5.698  0.1714 -0.0337  0.0080
  185TIP3    H2  520   3.101   2.088   5.645  0.2514  0.0660 -0.2707
  186TIP3   OH2  521   5.831   2.667   2.336  0.0324 -0.1732 -0.1203
  186TIP3    H1  522   5.755   2.638   2.287 -2.0408  0.3408  2.5415
  186TIP3    H2  523   5.905   2.652   2.277 -2.0651 -0.8218 -2.7860
  187TIP3   OH2  524   7.081   2.174   5.257  0.3373 -0.1970  0.3370
  187TIP3    H1  525   7.074   2.179   5.352  0.7624  1.2099  0.3171
  187TIP3    H2  526   7.113   2.261   5.231 -0.2017 -0.4132 -1.1284
  188TIP3   OH2  527   4.000   1.439   2.391 -0.1761 -0.7729  0.1378
  188TIP3    H1  528   4.055   1.506   2.351 -0.8902 -0.0241  0.3761
  188TIP3    H2  529   3.911   1.462   2.364 -0.6319 -0.5055  1.7481
  189TIP3   OH2  530   1.398   0.639   1.792 -0.0084  0.2000 -0.0288
  189TIP3    H1  531   1.411   0.548   1.768  0.8881 -0.2687  1.9806
  189TIP3    H2  532   1.477   0.683   1.760 -0.5032  0.3255 -1.1188
  190TIP3   OH2  533   2.805   4.950   0.310  0.1972 -0.1278  0.1056
  190TIP3    H1  534   2.843   5.037   0.322 -0.3863 -0.0921  1.9790
  190TIP3    H2  535   2.878   4.897   0.279  0.6033  0.9647 -0.8878
  191TIP3   OH2  536   5.288   3.051   3.409  0.1381  0.2367 -0.3730
  191TIP3    H1  537   5.329   3.053   3.496  1.1170 -0.3534 -0.8039
  191TIP3    H2  538   5.227   2.978   3.413  0.3422  0.0700 -0.2397
  192TIP3   OH2  539   4.989   3.874   4.122  0.2343  0.1819 -0.2930
  192TIP3    H1  540   5.051   3.873   4.049  1.0768 -1.1160  0.3878
  192TIP3    H2  541   5.043   3.891   4.199 -0.5257  0.7665  0.1265
  193TIP3   OH2  542   5.011   3.884   5.562  0.3777  0.4045 -0.4027
  193TIP3    H1  543   4.920   3.912   5.549  0.1339  0.4686  1.2412
  193TIP3    H2  544   5.004   3.791   5.583  0.5203  0.7593  1.3256
  194TIP3   OH2  545   3.852   4.062   1.550 -0.4373  0.1737  0.1683
  194TIP3    H1  546   3.781   4.122   1.530 -0.4142 -0.1623 -0.9908
  194TIP3    H2  547   3.884   4.090   1.636 -3.5253 -1.1412  1.9082
  195TIP3   OH2  548   5.699   5.402   5.317 -0.6560 -0.9124 -0.1155
  195TIP3    H1  549   5.695   5.339   5.389 -0.1557  1.1781  1.8531
  195TIP3    H2  550   5.608   5.416   5.292 -1.2180  0.9185  2.5766
  196TIP3   OH2  551   6.333   1.200   0.513 -0.2211  0.0722 -0.2233
  196TIP3    H1  552   6.331   1.190   0.608 -2.1456  0.5153 -0.1715
  196TIP3    H2  553   6.344   1.294   0.498  0.2166 -0.0113 -0.4483
  197TIP3   OH2  554   6.046   1.523   4.901 -0.4327 -0.2869  0.0252
  197TIP3    H1  555   6.087   1.595   4.854 -0.4833 -0.7745 -0.7756
  197TIP3    H2  556   5.963   1.559   4.932 -0.1178  0.2221  0.2836
  198TIP3   OH2  557   2.696   5.444   4.735  0.3706 -0.0303  0.0180
  198TIP3    H1  558   2.751   5.366   4.749 -0.1705 -0.4022  0.1034
  198TIP3    H2  559   2.716   5.501   4.809  2.5241  0.9725 -1.2322
  199TIP3   OH2  560   0.470   0.898   5.410 -0.3331  0.1806 -0.3364
  199TIP3    H1  561   0.391   0.848   5.389 -0.2056  0.1058 -0.6419
  199TIP3    H2  562   0.471   0.969   5.346  0.1342 -0.1321 -0.6797
  200TIP3   OH2  563   4.225   4.692   4.915 -0.7819  0.0529  0.1378
  200TIP3    H1  564   4.280   4.618   4.941 -0.6303  0.1788  0.1745
  200TIP3    H2  565   4.287   4.760   4.890 -0.9176  0.3987  0.7432
  201TIP3   OH2  566   3.613   4.995   2.420 -0.1839  0.1450  0.9200
  201TIP3    H1  567   3.689   4.962   2.372 -0.3819  1.6747 -0.4943
  201TIP3    H2  568   3.648   5.063   2.478 -0.7389  3.0883 -1.9288
  202TIP3   OH2  569   4.557   1.792   1.189  0.0667  0.0441  0.8301
  202TIP3    H1  570   4.555   1.697   1.199  0.2492  0.0177  0.5997
  202TIP3    H2  571   4.645   1.811   1.158 -0.6620  0.0769 -1.3414
  203TIP3   OH2  572   1.283   2.438   1.710 -0.5831 -0.0698  0.4578
  203TIP3    H1  573   1.206   2.466   1.760 -1.9472 -2.4928 -0.0992
  203TIP3    H2  574   1.330   2.379   1.769  1.2866  1.8502  1.0168
  204TIP3   OH2  575   4.855   0.246   2.305 -0.1055 -0.1156  0.3524
  204TIP3    H1  576   4.792   0.212   2.369 -2.1859  0.4871 -1.2408
  204TIP3    H2  577   4.874   0.335   2.335 -0.6031 -0.0496  0.4938
  205TIP3   OH2  578   7.094   5.930   1.184  0.9151 -0.0848 -0.5768
  205TIP3    H1  579   7.104   5.978   1.102  1.2408 -0.0514 -0.5174
  205TIP3    H2  580   7.018   5.873   1.170  0.3334  0.6720 -0.5389
  206TIP3   OH2  581   4.054   5.361   3.022  0.3981  0.2863  0.2164
  206TIP3    H1  582   3.964   5.392   3.031  0.5053  0.2688  1.4909
  206TIP3    H2  583   4.076   5.379   2.930 -0.3499  1.7787  0.2882
  207TIP3   OH2  584   5.021   3.142   3.497  0.2639  0.3543 -0.2161
  207TIP3    H1  585   5.072   3.197   3.439  1.9825  0.2021  1.0657
  207TIP3    H2  586   5.041   3.174   3.585 -0.5122 -0.8139  0.4227
  208TIP3   OH2  587   2.210   4.385   3.741 -0.4934 -1.0057 -0.2540
  208TIP3    H1  588   2.240   4.309   3.691 -1.9178 -2.3793  0.8622
  208TIP3    H2  589   2.117   4.368   3.756 -0.5516  0.3453  1.0967
  209TIP3   OH2  590   6.020   1.415   1.248  0.2222  0.3957  0.2453
  209TIP3    H1  591   5.956   1.389   1.315  0.6135  1.1900  0.9548
  209TIP3    H2  592   6.091   1.353   1.259 -0.9357 -1.3278 -1.4278
  210TIP3   OH2  593   1.224   2.401   0.348  0.1440 -0.8610  0.1851
  210TIP3    H1  594   1.238   2.373   0.438 -0.2202 -0.9428  0.2155
  210TIP3    H2  595   1.138   2.442   0.348  0.7203  0.4045  0.1770
  211TIP3   OH2  596   2.975   3.927   5.604 -0.2962  0.5502  0.0449
  211TIP3    H1  597   3.047   3.915   5.665 -1.0682 -6.1601  0.3276
  211TIP3    H2  598   2.897   3.931   5.659 -0.5979  0.8221 -0.3964
  212TIP3   OH2  599   1.945   6.767   2.106  0.2649 -0.1457 -0.1210
  212TIP3    H1  600   2.015   6.705   2.085  1.2868  0.8997  0.0443
  212TIP3    H2  601   1.868   6.734   2.060  0.6995 -1.6646  0.1764
  213TIP3   OH2  602   4.998   1.896   5.317  0.2711  0.5390  0.2022
  213TIP3    H1  603   5.054   1.966   5.284  1.0410 -0.1014  0.1287
  213TIP3    H2  604   4.988   1.836   5.243 -0.4706  0.6087  0.2325
  214TIP3   OH2  605   5.194   2.931   5.036 -0.5439  0.0156 -0.3419
  214TIP3    H1  606   5.227   2.908   5.123  0.3064  1.9668 -0.0816
  214TIP3    H2  607   5.266   2.982   4.997 -1.2501 -0.1046 -1.8445
  215TIP3   OH2  608   5.882   3.645   3.524 -0.3898 -0.3676  0.0428
  215TIP3    H1  609   5.835   3.563   3.537 -0.9588  0.2225  2.0374
  215TIP3    H2  610   5.962   3.636   3.576 -0.3126  0.2241  0.0388
  216TIP3   OH2  611   1.359   2.659   5.105 -0.0763 -0.0750  0.4529
  216TIP3    H1  612   1.332   2.712   5.180 -0.0294  0.0594  0.3744
  216TIP3    H2  613   1.385   2.722   5.038  1.3035 -0.2062  0.8436
  217TIP3   OH2  614   3.272   3.174   5.536  0.2168  0.4314 -0.3454
  217TIP3    H1  615   3.228   3.115   5.597 -0.3717 -0.5154 -1.6374
  217TIP3    H2  616   3.361   3.139   5.529  0.1629  0.2923 -0.3355
  218TIP3   OH2  617   5.475   6.576   4.272  0.8096  0.2724  0.0657
  218TIP3    H1  618   5.424   6.496   4.254  1.2315  0.7495 -4.4143
  218TIP3    H2  619   5.565   6.545   4.282  0.9790  0.0938 -1.6961
  219TIP3   OH2  620   5.815   1.802   2.390  0.8858 -0.0917  0.3663
  219TIP3    H1  621   5.878   1.768   2.454 -1.1006  2.4271  3.9988
  219TIP3    H2  622   5.794   1.727   2.335  1.9010 -2.8599  3.4116
  220TIP3   OH2  623   1.560   5.470   3.308 -0.3243 -0.1412  0.2290
  220TIP3    H1  624   1.526   5.535   3.369 -2.0588 -0.6376 -0.1589
  220TIP3    H2  625   1.648   5.502   3.286 -0.7486  1.5384  0.8067
  221TIP3   OH2  626   0.005   6.067   4.820  0.5427  0.2095 -0.1175
  221TIP3    H1  627   0.015   6.162   4.817  0.2587  0.2359 -0.2783
  221TIP3    H2  628   0.078   6.034   4.767  0.4289  0.3531 -0.3637
  222TIP3   OH2  629   1.827   0.381   2.052  0.3313 -0.0851  0.3722
  222TIP3    H1  630   1.831   0.476   2.039 -1.2944  0.2155  1.6713
  222TIP3    H2  631   1.835   0.344   1.965  0.4209  1.2692 -0.2223
  223TIP3   OH2  632   6.240   2.779   1.471 -0.1401 -0.1290  0.0092
  223TIP3    H1  633   6.159   2.761   1.518  0.3434 -1.8215  0.2536
  223TIP3    H2  634   6.215   2.838   1.400 -1.3155  0.5091  0.9334
  224TIP3   OH2  635   4.864   5.844   0.974 -0.8436  0.2307 -0.2882
  224TIP3    H1  636   4.829   5.773   0.921 -1.0216  2.2173 -3.0284
  224TIP3    H2  637   4.948   5.865   0.934  1.5676 -1.4150  3.3829
  225TIP3   OH2  638   5.199   6.579   2.613  0.2548 -0.3881 -0.4169
  225TIP3    H1  639   5.185   6.556   2.705  1.4257  2.1770  0.4877
  225TIP3    H2  640   5.179   6.672   2.608  1.2374 -0.2375 -2.5361
  226TIP3   OH2  641   7.120   6.044   1.995  0.5340  0.3037  0.6351
  226TIP3    H1  642   7.078   5.958   1.993  0.3500  0.3620  1.4530
  226TIP3    H2  643   7.198   6.031   2.049  1.1318  0.3844 -0.2097
  227TIP3   OH2  644   1.919   5.108   4.099  0.0396  0.2409  0.0492
  227TIP3    H1  645   1.829   5.093   4.070  0.4922 -0.4389 -1.0469
  227TIP3    H2  646   1.944   5.192   4.061  0.0754  0.1478 -0.1294
  228TIP3   OH2  647   4.335   6.688   0.085  0.2209 -0.5193 -0.4804
  228TIP3    H1  648   4.401   6.746   0.047 -1.3385  1.6053 -0.1260
  228TIP3    H2  649   4.282   6.659   0.011  0.2645 -0.5134 -0.5135
  229TIP3   OH2  650   6.769   2.401   0.507  0.0985 -0.0987  0.3392
  229TIP3    H1  651   6.697   2.434   0.561 -0.0631 -0.2724  0.2307
  229TIP3    H2  652   6.831   2.474   0.502  0.9714 -0.6611  2.2229
  230TIP3   OH2  653   3.379   2.171   4.020  0.6438  0.0077 -0.3473
  230TIP3    H1  654   3.285   2.170   4.038  0.1153  0.9851 -2.6766
  230TIP3    H2  655   3.405   2.079   4.021 -0.4111 -0.2973 -0.0562
  231TIP3   OH2  656   1.870   4.440   2.083 -0.3215 -0.0027  0.2699
  231TIP3    H1  657   1.779   4.469   2.073 -0.4115 -0.4684 -0.3464
  231TIP3    H2  658   1.916   4.517   2.117 -0.7813  0.5150 -0.2374
  232TIP3   OH2  659   0.011   5.591   2.440 -0.6208  0.5509  0.3805
  232TIP3    H1  660   0.015   5.571   2.347 -0.2358  1.2050  0.2492
  232TIP3    H2  661  -0.020   5.510   2.481 -0.8053  0.2650 -0.3118
  233TIP3   OH2  662   6.910   0.098   0.040 -0.0768  0.1857 -0.3079
  233TIP3    H1  663   6.916   0.192   0.060 -0.2688 -0.0305  0.8588
  233TIP3    H2  664   6.962   0.087  -0.040  0.1345  1.2471 -0.3334
  234TIP3   OH2  665   6.117   6.021   4.147 -0.3880  0.4016 -0.1521
  234TIP3    H1  666   6.157   6.105   4.169  1.8910 -0.4207 -0.8852
  234TIP3    H2  667   6.166   5.957   4.198  0.4192 -0.8321 -2.3295
  235TIP3   OH2  668   4.264   5.456   3.167  0.5177  0.4009 -0.2723
  235TIP3    H1  669   4.185   5.442   3.115  0.4771 -0.3088 -0.0337
  235TIP3    H2  670   4.250   5.404   3.246  1.8175 -0.8749 -0.8319
  236TIP3   OH2  671   3.034   4.963   5.136 -0.2737  0.1941  0.2559
  236TIP3    H1  672   3.070   4.875   5.137 -1.5583 -0.3815 -1.0058
  236TIP3    H2  673   3.005   4.978   5.226  0.3685 -0.4652  0.5899
  237TIP3   OH2  674   0.329   4.752   1.716  0.4374  0.0423 -0.5315
  237TIP3    H1  675   0.389   4.696   1.665  1.4219  0.8425 -0.2886
  237TIP3    H2  676   0.242   4.717   1.698  0.7212  0.3697 -2.8853
  238TIP3   OH2  677   2.784   4.187   0.517 -0.4761  0.1234  0.2622
  238TIP3    H1  678   2.798   4.251   0.448 -0.6538 -0.9142 -0.7771
  238TIP3    H2  679   2.695   4.153   0.500 -0.0638 -1.0014  0.2484
  239TIP3   OH2  680   3.814   5.782   3.985  0.2200  0.2860  0.1238
  239TIP3    H1  681   3.793   5.839   3.911 -0.1595 -0.2060 -0.1602
  239TIP3    H2  682   3.740   5.720   3.988  0.7228 -0.3136  0.2914
  240TIP3   OH2  683   7.006   0.220   1.607 -0.1166  0.7058  0.2310
  240TIP3    H1  684   6.918   0.230   1.569 -0.0380  0.9709  0.1174
  240TIP3    H2  685   7.066   0.242   1.536  0.0299  1.7492  0.6573
  241TIP3   OH2  686   4.227   2.323   1.071  0.1862  0.1704  0.1960
  241TIP3    H1  687   4.132   2.312   1.060  0.1959 -0.7884  0.9299
  241TIP3    H2  688   4.256   2.240   1.110  1.5428 -0.0700 -1.2332
  242TIP3   OH2  689   1.780   3.673   3.307  0.1417 -0.2651  0.0574
  242TIP3    H1  690   1.774   3.578   3.301 -0.1645 -0.3085  0.8753
  242TIP3    H2  691   1.771   3.704   3.217 -2.4135 -0.8838  0.0342
  243TIP3   OH2  692   3.720   6.073   5.383 -0.4332 -0.5298  0.2658
  243TIP3    H1  693   3.765   6.002   5.431 -1.4907 -1.8499 -0.6177
  243TIP3    H2  694   3.638   6.085   5.431  0.2398  0.9682  1.1073
  244TIP3   OH2  695   0.787   3.451   2.303  0.7194  0.1629 -0.0111
  244TIP3    H1  696   0.723   3.414   2.364  1.0838  0.6160  0.6533
  244TIP3    H2  697   0.839   3.512   2.356  2.3279 -0.8924 -0.2961
  245TIP3   OH2  698   4.111   0.707   3.371  0.1736 -0.4417 -0.5081
  245TIP3    H1  699   4.135   0.730   3.281  1.5954 -0.6919 -0.2192
  245TIP3    H2  700   4.135   0.784   3.422 -3.4302  0.9798 -0.6406
  246TIP3   OH2  701   5.865   6.810   5.784  0.5364 -0.1252  0.1384
  246TIP3    H1  702   5.848   6.779   5.695 -0.9614 -0.9177  0.6646
  246TIP3    H2  703   5.905   6.735   5.828 -0.0231 -0.2199  0.5013
  247TIP3   OH2  704   3.204   6.802   1.122 -0.1138 -0.0980 -0.3014
  247TIP3    H1  705   3.158   6.720   1.101 -3.1163  1.4140 -0.1670
  247TIP3    H2  706   3.262   6.816   1.047 -1.8004 -0.8530 -1.8371
  248TIP3   OH2  707   6.942   5.857   4.644 -0.2989  0.1996 -0.2583
  248TIP3    H1  708   6.886   5.922   4.603 -2.7664 -1.8871 -0.4305
  248TIP3    H2  709   6.964   5.796   4.573 -0.2145 -0.5732  0.4143
  249TIP3   OH2  710   3.135   4.374   0.298  0.2418  0.2887 -0.2573
  249TIP3    H1  711   3.093   4.344   0.217  0.9920 -0.6161 -0.3343
  249TIP3    H2  712   3.205   4.310   0.314  1.0457  1.2741  0.3204
  250TIP3   OH2  713   1.116   0.769   2.942 -0.7010 -0.1616  0.7126
  250TIP3    H1  714   1.023   0.747   2.951 -0.9931  0.3274 -0.8176
  250TIP3    H2  715   1.118   0.837   2.875  0.7918 -0.3566  0.5234
  251TIP3   OH2  716   2.605   4.780   4.186  0.3934  0.2003 -0.2757
  251TIP3    H1  717   2.513   4.767   4.207  0.4222  0.6017  0.1280
  251TIP3    H2  718   2.612   4.874   4.167  0.4589 -0.0694 -1.6493
  252TIP3   OH2  719   6.935   6.675   3.785 -0.2439 -0.0166  0.3074
  252TIP3    H1  720   6.984   6.712   3.858 -0.1880  0.0874  0.2180
  252TIP3    H2  721   7.001   6.628   3.734 -0.3235 -0.2820  0.4474
  253TIP3   OH2  722   6.201   4.368   1.803  0.2198  0.1585 -0.4438
  253TIP3    H1  723   6.174   4.285   1.763  0.2049  1.3244 -2.9865
  253TIP3    H2  724   6.290   4.382   1.772  0.4035  0.8765  0.3695
  254TIP3   OH2  725   5.180   2.528   0.974 -0.0626  0.4644  0.1983
  254TIP3    H1  726   5.135   2.607   0.945 -0.4073  0.4460  0.6647
  254TIP3    H2  727   5.189   2.475   0.894 -2.2502 -0.2008  0.3307
  255TIP3   OH2  728   6.846   2.885   4.276 -0.7589 -0.2575 -0.2152
  255TIP3    H1  729   6.885   2.944   4.341  0.2916 -0.8747 -0.2654
  255TIP3    H2  730   6.913   2.820   4.259 -2.3049 -2.2283  0.7545
  256TIP3   OH2  731   2.673   3.897   3.785 -0.6285  0.2631 -0.0224
  256TIP3    H1  732   2.742   3.853   3.835 -1.1259 -2.0030 -1.1993
  256TIP3    H2  733   2.717   3.925   3.704 -0.5850  0.9107  0.2185
  257TIP3   OH2  734   0.346   5.136   2.388 -0.3265 -0.3915  0.1939
  257TIP3    H1  735   0.252   5.133   2.374 -0.2559 -1.7649 -0.1534
  257TIP3    H2  736   0.357   5.177   2.474 -1.1960  0.2650  0.0073
  258TIP3   OH2  737   4.910   6.530   5.256 -0.2814 -0.1042  0.2711
  258TIP3    H1  738   4.869   6.479   5.326  0.3078  0.3441  0.9626
  258TIP3    H2  739   4.948   6.606   5.301 -1.0972  0.9240 -0.7230
  259TIP3   OH2  740   2.054   0.740   5.480 -0.4105  0.8785  0.2197
  259TIP3    H1  741   2.053   0.793   5.401  1.7003 -0.2830 -0.6706
  259TIP3    H2  742   2.137   0.692   5.476 -2.0835 -2.3757  1.0431
  260TIP3   OH2  743   4.208   2.098   4.072  0.0094  0.0369 -0.0245
  260TIP3    H1  744   4.192   2.007   4.045 -1.7721 -0.1106  1.3899
  260TIP3    H2  745   4.152   2.151   4.015 -1.6174 -0.0638  1.4088
  261TIP3   OH2  746   6.857   2.473   1.580 -0.1953  0.7238  0.1703
  261TIP3    H1  747   6.768   2.475   1.546 -0.7838  1.0022  1.6729
  261TIP3    H2  748   6.849   2.437   1.668  1.1752  0.7708  0.3383
  262TIP3   OH2  749   0.063   2.970   1.359 -0.5548 -0.0965  0.0831
  262TIP3    H1  750   0.056   2.915   1.437 -3.6224 -1.1451 -0.7638
  262TIP3    H2  751   0.063   3.060   1.392  0.5216 -0.5282  1.3393
  263TIP3   OH2  752   4.137   5.330   1.391 -0.1602  0.2534 -0.0539
  263TIP3    H1  753   4.074   5.349   1.460 -0.9876  0.5631 -0.8646
  263TIP3    H2  754   4.094   5.262   1.339  0.5700 -0.1757 -0.1079
  264TIP3   OH2  755   3.265   2.695   5.811  0.2236 -0.0354 -0.4602
  264TIP3    H1  756   3.256   2.726   5.902 -1.0241  1.2907 -0.9992
  264TIP3    H2  757   3.176   2.698   5.776  0.5353 -1.5430 -1.4351
  265TIP3   OH2  758   3.814   3.631   2.397 -0.2618 -0.2211  0.5025
  265TIP3    H1  759   3.719   3.620   2.392 -0.5700  1.5980  1.4835
  265TIP3    H2  760   3.842   3.641   2.307 -1.1837  0.4964  0.2853
  266TIP3   OH2  761   2.940   2.008   2.549 -0.6458  0.3824  0.4404
  266TIP3    H1  762   2.993   1.993   2.627 -0.1977  1.2373  0.3120
  266TIP3    H2  763   2.938   1.923   2.505 -0.8294 -0.0840  1.3276
  267TIP3   OH2  764   6.442   1.474   2.820  0.0555 -0.3681 -0.1739
  267TIP3    H1  765   6.521   1.526   2.831  0.1869 -0.1600 -1.8097
  267TIP3    H2  766   6.380   1.509   2.884  2.0785 -2.3376  3.1554
  268TIP3   OH2  767   3.029   0.248   4.193  0.1424 -0.1272  0.0395
  268TIP3    H1  768   3.059   0.163   4.158  0.6255 -0.5442  1.3873
  268TIP3    H2  769   3.048   0.310   4.123  1.7904 -0.8075 -0.1843
  269TIP3   OH2  770   0.226   4.093   1.392  0.0613  0.0793 -0.0556
  269TIP3    H1  771   0.168   4.155   1.436 -0.8922 -1.4959  1.0653
  269TIP3    H2  772   0.179   4.068   1.313  0.2731  0.5185 -0.3177
  270TIP3   OH2  773   5.635   1.369   2.979  0.8150  0.5961 -0.0467
  270TIP3    H1  774   5.660   1.290   3.028  1.6325  1.7186  1.4326
  270TIP3    H2  775   5.595   1.426   3.046  0.4074  1.5153 -1.0492
  271TIP3   OH2  776   5.854   0.491   5.776  0.0908  0.0714 -0.1165
  271TIP3    H1  777   5.764   0.518   5.757 -0.5933 -2.3887 -0.7158
  271TIP3    H2  778   5.898   0.572   5.802 -1.8519  1.6382 -1.4012
  272TIP3   OH2  779   3.169   3.483   0.597 -0.1100  0.2661 -0.6039
  272TIP3    H1  780   3.097   3.433   0.558 -0.4646  0.8101 -0.6488
  272TIP3    H2  781   3.233   3.493   0.526 -0.9081  1.5572 -1.1743
  273TIP3   OH2  782   5.040   4.454   3.039 -0.4490  0.0735 -0.3782
  273TIP3    H1  783   5.132   4.461   3.065 -1.0380  0.5958  1.7095
  273TIP3    H2  784   5.011   4.371   3.076 -0.6523 -0.4719 -1.6987
  274TIP3   OH2  785   1.427   5.516   2.282  0.1743 -0.6269  0.5777
  274TIP3    H1  786   1.470   5.580   2.338  2.1441 -0.6346 -0.8331
  274TIP3    H2  787   1.410   5.441   2.339 -1.7249  0.8663  2.1242
  275TIP3   OH2  788   0.545   0.352   4.250 -0.3012  0.2037 -0.7543
  275TIP3    H1  789   0.567   0.260   4.262 -1.7575 -0.1749 -0.8092
  275TIP3    H2  790   0.616   0.387   4.197  1.1263 -0.4764  0.6292
  276TIP3   OH2  791   2.228   1.266   5.217 -0.1164 -0.8296 -0.0499
  276TIP3    H1  792   2.285   1.339   5.242  0.8512 -1.1097 -1.3303
  276TIP3    H2  793   2.206   1.224   5.299  0.0716  0.3481  0.6311
  277TIP3   OH2  794   0.256   4.049   3.627 -0.3732  0.2245 -0.2677
  277TIP3    H1  795   0.340   4.013   3.598 -0.6948 -0.3882 -0.4450
  277TIP3    H2  796   0.276   4.090   3.711  0.3513  1.1165 -0.8585
  278TIP3   OH2  797   5.685   0.786   0.629  0.3647  0.0806  0.2225
  278TIP3    H1  798   5.592   0.765   0.630  0.5173 -0.6063  1.1206
  278TIP3    H2  799   5.696   0.843   0.553 -0.6652 -0.3777 -0.2874
  279TIP3   OH2  800   3.952   2.271   4.260 -0.3258 -0.0152  0.0400
  279TIP3    H1  801   4.020   2.308   4.316  0.9527 -2.2886  0.1243
  279TIP3    H2  802   3.958   2.321   4.178  1.5139 -0.1695  0.0251
  280TIP3   OH2  803   3.832   1.265   4.955 -0.9952 -0.8087  0.3658
  280TIP3    H1  804   3.848   1.350   4.997 -0.4547 -0.6856 -0.0684
  280TIP3    H2  805   3.795   1.211   5.024 -1.5808 -0.1465  0.5814
  281TIP3   OH2  806   2.630   6.504   4.056  0.1108  0.0899 -0.1452
  281TIP3    H1  807   2.714   6.547   4.040  0.4367 -0.7465 -0.7930
  281TIP3    H2  808   2.582   6.564   4.113  0.6283  1.1946 -0.8440
  282TIP3   OH2  809   5.230   6.435   0.310 -0.1481  0.0221  0.5499
  282TIP3    H1  810   5.164   6.501   0.332  1.4849  1.3306  1.7556
  282TIP3    H2  811   5.193   6.390   0.234 -0.5205  3.6682 -1.7147
  283TIP3   OH2  812   4.364   3.885   3.488  0.0755  0.1928 -0.3228
  283TIP3    H1  813   4.438   3.909   3.544 -0.4233  0.0140  0.4236
  283TIP3    H2  814   4.309   3.829   3.543 -2.0019  2.4323  0.0624
  284TIP3   OH2  815   3.264   5.349   5.641  0.2486  0.0742  0.1914
  284TIP3    H1  816   3.233   5.370   5.729 -0.3220  0.9683 -0.2112
  284TIP3    H2  817   3.322   5.421   5.618  2.0208 -1.1347  0.5883
  285TIP3   OH2  818   0.846   0.583   2.746  0.7072 -0.5649  0.1604
  285TIP3    H1  819   0.823   0.494   2.775  0.9078 -0.2753  1.2657
  285TIP3    H2  820   0.862   0.574   2.652 -2.9307 -0.9741 -0.5416
  286TIP3   OH2  821   2.562   0.606   1.331  0.2673 -0.0003  0.1352
  286TIP3    H1  822   2.580   0.513   1.346  0.9000  0.1690  0.4377
  286TIP3    H2  823   2.474   0.607   1.292 -0.3298 -0.6332  1.3962
  287TIP3   OH2  824   3.052   5.373   5.405  0.2689  0.3234  0.2846
  287TIP3    H1  825   2.988   5.378   5.334  1.7230  0.1051 -1.1011
  287TIP3    H2  826   3.108   5.299   5.382  0.5463  0.0005  1.8868
  288TIP3   OH2  827   3.046   5.154   3.138 -0.0488  0.0900 -0.0425
  288TIP3    H1  828   3.121   5.206   3.167 -1.2471  0.5146  2.6150
  288TIP3    H2  829   3.062   5.067   3.175 -0.3349 -0.1203 -0.4140
  289TIP3   OH2  830   5.956   0.426   2.745 -0.5712  0.6021  0.2007
  289TIP3    H1  831   5.899   0.369   2.797  0.5724 -2.0125 -1.2006
  289TIP3    H2  832   5.906   0.444   2.665 -0.6260  0.9401  0.3084
  290TIP3   OH2  833   3.174   5.032   4.203  0.2162  0.4413 -0.5369
  290TIP3    H1  834   3.120   4.959   4.173 -0.1805 -0.4793  2.1799
  290TIP3    H2  835   3.263   4.995   4.210 -0.2745 -0.4364  2.5040
  291TIP3   OH2  836   1.410   2.538   3.177  0.2502 -0.2430  0.2154
  291TIP3    H1  837   1.452   2.588   3.247 -0.4983  0.0130  0.4833
  291TIP3    H2  838   1.388   2.603   3.110  2.4343 -0.6797 -1.0426
  292TIP3   OH2  839   3.823   5.620   5.279  0.2015  0.1106  0.0993
  292TIP3    H1  840   3.901   5.624   5.335 -1.6165  2.8406  2.7148
  292TIP3    H2  841   3.831   5.697   5.222 -0.6890  0.5642  0.5741
  293TIP3   OH2  842   0.779   3.541   0.559 -0.3083 -0.2465 -0.3336
  293TIP3    H1  843   0.781   3.573   0.650 -1.7971 -3.1356  0.8676
  293TIP3    H2  844   0.827   3.458   0.563 -1.1259 -0.8318 -1.9859
  294TIP3   OH2  845   5.123   0.413   2.129  0.1109  0.1093  0.3638
  294TIP3    H1  846   5.119   0.495   2.079  0.8737  0.9923  1.6552
  294TIP3    H2  847   5.125   0.442   2.221 -0.8548 -1.4225  0.8999
  295TIP3   OH2  848   3.868   3.752   0.144  0.1296 -0.1940  0.2563
  295TIP3    H1  849   3.786   3.762   0.192  1.0585  0.2655  1.8513
  295TIP3    H2  850   3.925   3.821   0.180  0.9098  0.1420 -1.5138
  296TIP3   OH2  851   3.347   0.935   1.173 -0.0996  0.2674 -0.8155
  296TIP3    H1  852   3.390   0.880   1.238 -0.0261  0.1134 -0.9927
  296TIP3    H2  853   3.418   0.986   1.135 -0.2592  0.9984 -0.1652
  297TIP3   OH2  854   6.332   5.829   5.216 -0.0794 -0.5764  0.2702
  297TIP3    H1  855   6.330   5.840   5.311 -1.4501 -0.5535  0.2553
  297TIP3    H2  856   6.412   5.779   5.199  2.1485  2.4331  1.0819
  298TIP3   OH2  857   2.648   2.193   2.283  0.1883 -0.1288  0.5171
  298TIP3    H1  858   2.610   2.251   2.349  0.1670 -2.1913  2.4436
  298TIP3    H2  859   2.740   2.184   2.309  0.7268  0.6189 -0.9909
  299TIP3   OH2  860   3.936   3.886   5.047  0.2363 -0.4154  0.3953
  299TIP3    H1  861   3.842   3.887   5.059 -0.2406  0.5134 -2.5976
  299TIP3    H2  862   3.950   3.822   4.976  1.4631  1.5212 -1.2225
  300TIP3   OH2  863   4.477   5.197   5.054  0.0486 -0.2031  0.2721
  300TIP3    H1  864   4.544   5.255   5.018 -0.8466 -0.3788 -1.7672
  300TIP3    H2  865   4.395   5.232   5.021 -0.5802 -2.1395 -0.3235
  301TIP3   OH2  866   3.343   6.618   3.804 -0.7792 -0.4985  0.5626
  301TIP3    H1  867   3.380   6.537   3.838 -0.0250  0.3645  1.9138
  301TIP3    H2  868   3.394   6.637   3.725 -1.4887 -1.7102 -0.2236
  302TIP3   OH2  869   1.646   4.181   3.231 -0.4551  0.1653 -0.2410
  302TIP3    H1  870   1.647   4.211   3.322 -1.8348  2.2989 -0.8450
  302TIP3    H2  871   1.730   4.136   3.219  0.7819  1.8806  1.4398
  303TIP3   OH2  872   1.662   4.557   0.087 -0.4867 -0.2135  0.3562
  303TIP3    H1  873   1.735   4.574   0.026  0.8524  0.5888  2.0907
  303TIP3    H2  874   1.636   4.644   0.117 -3.0457 -0.3700 -1.1032
  304TIP3   OH2  875   5.260   2.379   4.629 -0.0949  0.2783 -0.2989
  304TIP3    H1  876   5.220   2.431   4.560  0.9362  1.7563  0.1647
  304TIP3    H2  877   5.256   2.288   4.597 -2.5022  0.5179 -0.8554
  305TIP3   OH2  878   1.987   4.526   2.675  0.4254 -0.0414 -0.4606
  305TIP3    H1  879   1.989   4.556   2.584  1.8267  2.1980  0.2187
  305TIP3    H2  880   2.073   4.550   2.710  0.8960 -3.1608  0.8167
  306TIP3   OH2  881   5.102   5.870   2.171 -0.3365  0.3911  0.5369
  306TIP3    H1  882   5.129   5.855   2.262 -3.0786 -1.5320  1.1691
  306TIP3    H2  883   5.184   5.879   2.123  1.2859 -0.8614  2.8565
  307TIP3   OH2  884   6.641   1.645   2.051 -0.3430 -0.1264 -0.4620
  307TIP3    H1  885   6.645   1.550   2.066 -1.4930  0.2246  2.6659
  307TIP3    H2  886   6.731   1.675   2.066  0.0891 -0.6878 -1.7308
  308TIP3   OH2  887   5.801   3.663   1.862  0.7034  0.1092  0.3779
  308TIP3    H1  888   5.890   3.635   1.883  0.0632 -1.7459  0.8154
  308TIP3    H2  889   5.756   3.665   1.946 -0.0390 -0.3809  0.0006
  309TIP3   OH2  890   4.508   1.176   0.737  0.1051 -0.4204  0.3725
  309TIP3    H1  891   4.590   1.159   0.691 -0.4841 -1.3632 -0.3629
  309TIP3    H2  892   4.481   1.090   0.769  0.6371  0.2462  2.7698
  310TIP3   OH2  893   4.165   0.270   4.240 -0.4161  0.2447  0.0760
  310TIP3    H1  894   4.133   0.336   4.302 -0.9460 -1.1029  1.2982
  310TIP3    H2  895   4.241   0.311   4.199  0.4892  0.9009  2.2385
  311TIP3   OH2  896   5.030   1.625   2.491 -0.1274  0.4479  0.9456
  311TIP3    H1  897   4.983   1.542   2.507 -0.6906  0.4819 -0.4178
  311TIP3    H2  898   5.116   1.598   2.460 -0.3832  0.3584  0.2963
  312TIP3   OH2  899   5.748   0.034   3.463  0.4888  0.0497  0.6300
  312TIP3    H1  900   5.761  -0.010   3.379  0.7716 -1.7782  1.5765
  312TIP3    H2  901   5.759   0.127   3.444  1.0724 -0.3707 -1.2532
  313TIP3   OH2  902   4.609   0.547   2.221 -0.1519  0.1206 -0.5771
  313TIP3    H1  903   4.595   0.452   2.229 -0.1948  0.2973  2.1948
  313TIP3    H2  904   4.529   0.586   2.257  0.8248  1.1805  0.5393
  314TIP3   OH2  905   5.464   6.697   0.889  0.4555 -0.5028 -0.9708
  314TIP3    H1  906   5.457   6.622   0.830  0.1615 -1.6421  0.4731
  314TIP3    H2  907   5.472   6.659   0.976  0.4235  1.1493 -0.2119
  315TIP3   OH2  908   3.800   0.753   2.677  0.3934 -0.0250 -0.1197
  315TIP3    H1  909   3.846   0.712   2.751 -0.0747  0.5948  0.5321
  315TIP3    H2  910   3.800   0.846   2.699 -1.0815  0.0004 -0.1631
  316TIP3   OH2  911   3.729   5.343   4.666  0.2015  0.1735 -0.0825
  316TIP3    H1  912   3.674   5.364   4.742  1.2505 -0.0469  0.7681
  316TIP3    H2  913   3.817   5.371   4.692  1.2694 -3.0674  0.2208
  317TIP3   OH2  914   5.669   3.808   3.208 -0.8224  0.5538 -0.0071
  317TIP3    H1  915   5.700   3.895   3.236 -2.7495  0.6412  2.1071
  317TIP3    H2  916   5.579   3.823   3.180 -1.0085 -0.6777 -0.1134
  318TIP3   OH2  917   1.908   5.169   0.318  0.5996 -0.2151  0.1189
  318TIP3    H1  918   1.948   5.106   0.378 -0.3379  0.1610  1.1880
  318TIP3    H2  919   1.972   5.239   0.310  0.1155  0.5160  2.0288
  319TIP3   OH2  920   5.329   2.074   3.082  0.0249  0.0470 -0.4539
  319TIP3    H1  921   5.295   2.101   2.997 -2.2429  0.8528  0.6436
  319TIP3    H2  922   5.423   2.059   3.067 -0.3073  0.2470 -3.0392
  320TIP3   OH2  923   4.368   0.182   0.278 -0.4614 -0.1073  0.0174
  320TIP3    H1  924   4.293   0.208   0.224 -0.2109 -0.3526 -0.4545
  320TIP3    H2  925   4.414   0.264   0.296 -0.4649 -0.0416 -0.2680
  321TIP3   OH2  926   1.828   5.981   0.150  0.3160 -0.2533  0.0017
  321TIP3    H1  927   1.766   5.935   0.207 -0.3431  0.9529  0.2972
  321TIP3    H2  928   1.885   6.029   0.210  1.7202 -1.5371 -0.2619
  322TIP3   OH2  929   5.640   1.385   0.605 -0.0652  0.2901  0.1062
  322TIP3    H1  930   5.689   1.452   0.557 -3.2476  3.0658  0.3989
  322TIP3    H2  931   5.682   1.381   0.691  2.3923 -0.8725 -1.0422
  323TIP3   OH2  932   0.306   6.209   0.692  0.1853 -0.0312  0.0861
  323TIP3    H1  933   0.318   6.294   0.649  1.5082  0.2695  0.9980
  323TIP3    H2  934   0.231   6.223   0.750  0.5616  0.6194  0.4326
  324TIP3   OH2  935   2.002   4.138   0.786  0.9838 -0.2174 -0.2371
  324TIP3    H1  936   2.037   4.146   0.698 -0.6012  0.9101 -0.8128
  324TIP3    H2  937   1.958   4.052   0.786  0.0342  0.2497 -0.9350
  325TIP3   OH2  938   3.850   0.738   1.201  0.1175 -0.2211 -0.3404
  325TIP3    H1  939   3.795   0.672   1.244  0.0428 -1.2545 -1.9539
  325TIP3    H2  940   3.806   0.821   1.220 -2.3412 -1.0279 -1.9368
  326TIP3   OH2  941   6.041   2.003   1.715 -0.0041  0.0908  0.0515
  326TIP3    H1  942   5.974   2.038   1.774  0.6499  2.8633 -0.7063
  326TIP3    H2  943   6.069   1.921   1.757 -1.1277  0.8149  2.4039
  327TIP3   OH2  944   0.028   2.563   2.836 -0.0835  0.6489  0.2620
  327TIP3    H1  945   0.013   2.536   2.746 -0.2519 -0.2562  0.5513
  327TIP3    H2  946   0.101   2.508   2.866 -1.3067 -0.4751  1.2855
  328TIP3   OH2  947   0.407   6.369   1.683 -0.5556  0.0215  0.1057
  328TIP3    H1  948   0.471   6.312   1.640  1.1149  0.7163  1.5385
  328TIP3    H2  949   0.453   6.402   1.760 -2.1442  1.7864  0.3590
  329TIP3   OH2  950   5.587   1.269   0.952  0.1466 -0.3950 -0.3069
  329TIP3    H1  951   5.514   1.269   1.014  0.2800 -0.0403 -0.1517
  329TIP3    H2  952   5.564   1.201   0.888 -0.9706  0.6235 -1.0206
  330TIP3   OH2  953   2.867   3.707   3.077  0.1830  0.2807 -0.0825
  330TIP3    H1  954   2.789   3.756   3.105  0.3392  0.0481  0.8035
  330TIP3    H2  955   2.841   3.615   3.083  0.9008  0.1429  1.4931
  331TIP3   OH2  956   0.400   2.726   3.309 -0.1390  0.4156  0.4256
  331TIP3    H1  957   0.320   2.778   3.300  0.2448  1.0323  0.4410
  331TIP3    H2  958   0.419   2.728   3.403 -0.6490 -0.5826  0.5567
  332TIP3   OH2  959   5.716   0.024   2.883 -0.7428 -0.2216 -0.1902
  332TIP3    H1  960   5.639  -0.012   2.928 -0.0933 -1.2162  0.1526
  332TIP3    H2  961   5.706  -0.005   2.792 -0.0248 -1.6881  0.1588
  333TIP3   OH2  962   1.358   1.542   1.005 -0.1606  0.8349 -0.3770
  333TIP3    H1  963   1.368   1.637   1.013 -0.1483  0.7953  0.0735
  333TIP3    H2  964   1.306   1.516   1.080 -0.3044  0.5036 -0.5864
  334TIP3   OH2  965   1.532   1.055   3.505  0.1501  0.0130 -0.4311
  334TIP3    H1  966   1.601   1.077   3.442 -0.6497 -0.9389 -1.6826
  334TIP3    H2  967   1.454   1.041   3.451 -0.6719 -0.3958  0.8230
  335TIP3   OH2  968   1.859   2.552   4.127 -0.2778 -0.0104  0.0936
  335TIP3    H1  969   1.871   2.586   4.038  2.3265  0.1364  0.4168
  335TIP3    H2  970   1.865   2.457   4.117  1.4613  0.0612  0.2464
  336TIP3   OH2  971   0.800   4.724   0.129 -0.5847 -0.6521  0.4614
  336TIP3    H1  972   0.810   4.739   0.223 -0.9086 -1.0272  0.5608
  336TIP3    H2  973   0.841   4.639   0.114  0.3245 -0.1586  0.0894
  337TIP3   OH2  974   0.736   6.358   5.291  0.4543  0.8299 -0.1614
  337TIP3    H1  975   0.685   6.407   5.227  0.5920  0.8438 -0.2591
  337TIP3    H2  976   0.675   6.345   5.364  0.2903  0.7886 -0.3052
  338TIP3   OH2  977   2.876   3.370   1.902  0.4020  0.1532  0.0694
  338TIP3    H1  978   2.827   3.349   1.981  0.1425 -0.6320 -0.2942
  338TIP3    H2  979   2.936   3.296   1.891  0.9684  0.6192 -0.0560
  339TIP3   OH2  980   1.114   1.591   5.193  0.0122  0.3868  0.7426
  339TIP3    H1  981   1.114   1.501   5.163  1.2085  1.1212 -1.6762
  339TIP3    H2  982   1.046   1.635   5.141  2.9286  1.9491 -2.1084
  340TIP3   OH2  983   1.506   2.038   5.815 -0.9692  0.3316 -0.4818
  340TIP3    H1  984   1.442   1.972   5.787 -0.9281  0.3435 -0.6072
  340TIP3    H2  985   1.516   2.024   5.909  0.2249 -0.9049 -0.7528
  341TIP3   OH2  986   5.629   5.683   3.677 -0.1300 -0.1228  0.0957
  341TIP3    H1  987   5.634   5.626   3.600  2.4272 -0.2091  0.2495
  341TIP3    H2  988   5.585   5.629   3.744  0.6990 -1.3146 -0.2903
  342TIP3   OH2  989   0.197   3.085   4.535 -0.6457 -0.3343  0.2823
  342TIP3    H1  990   0.274   3.133   4.502  0.6577 -1.8586  0.9669
  342TIP3    H2  991   0.190   3.111   4.627 -2.3081  1.4156 -0.2590
  343TIP3   OH2  992   0.862   3.616   4.954  0.1327  0.6570  0.0412
  343TIP3    H1  993   0.911   3.620   4.871 -0.3789  0.7878 -0.2570
  343TIP3    H2  994   0.774   3.644   4.931 -0.1561  0.1610  0.5230
  344TIP3   OH2  995   5.675   3.261   0.558  0.3434 -0.7346  0.4719
  344TIP3    H1  996   5.719   3.180   0.584  2.6003  0.5643  0.9888
  344TIP3    H2  997   5.726   3.294   0.484  0.0939  0.7036  0.9025
  345TIP3   OH2  998   4.112   3.801   2.158  0.4713 -0.6865 -0.6785
  345TIP3    H1  999   4.116   3.884   2.110  0.2057 -0.3817 -0.1883
  345TIP3    H2 1000   4.040   3.753   2.116 -0.6898  0.1545  0.2765
  346TIP3   OH2 1001   4.751   4.737   4.365 -0.9959 -0.0679  0.1563
  346TIP3    H1 1002   4.732   4.643   4.369 -0.2648 -0.1992  0.7656
  346TIP3    H2 1003   4.840   4.743   4.331 -0.7509  0.3606  0.8442
  347TIP3   OH2 1004   1.362   5.827   4.738 -0.6434  0.1307 -0.5055
  347TIP3    H1 1005   1.354   5.901   4.798 -2.2241 -0.8242  0.5234
  347TIP3    H2 1006   1.334   5.751   4.790  1.5725 -1.3256 -1.3096
  348TIP3   OH2 1007   2.027   5.760   5.668 -0.3055 -0.4603 -0.6323
  348TIP3    H1 1008   2.031   5.764   5.572 -0.1927 -0.6629 -0.6369
  348TIP3    H2 1009   2.106   5.713   5.693  1.3287  2.2510 -0.2504
  349TIP3   OH2 1010   5.212   3.728   2.578  0.2868  0.6167 -0.0469
  349TIP3    H1 1011   5.128   3.754   2.539 -0.6880 -0.5989  1.1326
  349TIP3    H2 1012   5.189   3.702   2.668  1.3074 -2.9089 -0.6667
  350TIP3   OH2 1013   0.516   0.489   1.083  0.5085  0.4612  0.9115
  350TIP3    H1 1014   0.573   0.468   1.157  1.5001  1.8256  0.5887
  350TIP3    H2 1015   0.475   0.572   1.108 -1.5523 -0.5895  1.2269
  351TIP3   OH2 1016   5.325   4.407   0.221 -0.3979  0.2471  0.4545
  351TIP3    H1 1017   5.387   4.353   0.270  0.5571  0.5198 -0.4384
  351TIP3    H2 1018   5.247   4.409   0.277 -0.2743 -1.5959  0.7740
  352TIP3   OH2 1019   0.509   6.775   0.515 -0.2918 -0.1564 -0.4959
  352TIP3    H1 1020   0.462   6.822   0.446  0.2387  2.7452  0.9249
  352TIP3    H2 1021   0.601   6.776   0.487 -0.2958 -0.4141 -0.5149
  353TIP3   OH2 1022   4.944   5.912   3.636  0.4188 -0.0275 -0.2855
  353TIP3    H1 1023   4.955   5.967   3.713  1.0546 -1.9906  1.1194
  353TIP3    H2 1024   5.031   5.908   3.597  0.3415  0.0899 -0.4701
  354TIP3   OH2 1025   5.544   4.820   3.120  0.0511 -0.1905 -0.7119
  354TIP3    H1 1026   5.510   4.740   3.079  0.4835 -0.7774  0.0556
  354TIP3    H2 1027   5.584   4.791   3.202 -1.0418  0.9845  0.2909
  355TIP3   OH2 1028   1.803   5.763  -0.022  0.0219  0.3232 -0.2417
  355TIP3    H1 1029   1.712   5.746   0.001  0.2324 -0.5415 -0.0162
  355TIP3    H2 1030   1.828   5.839   0.031  0.1168 -0.8395  1.4678
  356TIP3   OH2 1031   0.780   5.058   0.295 -0.4744  0.0553 -0.0682
  356TIP3    H1 1032   0.711   5.119   0.267 -0.4695 -0.1475 -0.5415
  356TIP3    H2 1033   0.824   5.033   0.213  1.0393  1.2234  0.3434
  357TIP3   OH2 1034   3.451   6.386   3.869 -0.4783  0.0333  0.4868
  357TIP3    H1 1035   3.528   6.329   3.859 -1.7339 -1.4078 -1.9844
  357TIP3    H2 1036   3.411   6.358   3.951  1.3093  0.4547  1.5517
  358TIP3   OH2 1037   0.760   3.572   4.405  0.1896 -0.1311 -0.3118
  358TIP3    H1 1038   0.773   3.655   4.452  0.1717  0.2900 -1.0404
  358TIP3    H2 1039   0.732   3.511   4.473  0.3857  0.4088  0.2715
  359TIP3   OH2 1040   6.377   1.376   2.576  0.4528 -0.0300  0.3631
  359TIP3    H1 1041   6.281   1.375   2.583  0.3900 -1.0029 -0.3508
  359TIP3    H2 1042   6.407   1.396   2.664 -0.4158  1.0971  0.4206
  360TIP3   OH2 1043   6.334   0.267   2.989  0.5626  0.2239 -0.3484
  360TIP3    H1 1044   6.352   0.290   2.898 -1.2906 -0.2296 -0.8644
  360TIP3    H2 1045   6.253   0.314   3.011  0.1952 -0.7921  0.5936
  361TIP3   OH2 1046   1.012   6.745   4.222 -0.3163  0.4724 -0.1673
  361TIP3    H1 1047   0.991   6.790   4.139  1.4860  1.6681 -0.0510
  361TIP3    H2 1048   1.037   6.816   4.281  2.4605 -0.5919  0.0976
  362TIP3   OH2 1049   5.817   3.746   4.087  0.9218 -0.5529 -0.6210
  362TIP3    H1 1050   5.750   3.811   4.068 -0.7892 -1.7916  0.7986
  362TIP3    H2 1051   5.860   3.778   4.167 -1.6854 -2.2336  1.6704
  363TIP3   OH2 1052   3.110   2.106   4.403 -0.0340  0.4524 -0.2461
  363TIP3    H1 1053   3.047   2.043   4.368  0.9553  0.8057 -2.8965
  363TIP3    H2 1054   3.093   2.186   4.352  1.4952  1.0184  0.0892
  364TIP3   OH2 1055   6.262   3.626   3.545  0.2090  0.1440  0.4294
  364TIP3    H1 1056   6.231   3.565   3.479  0.6585 -1.2073  1.4272
  364TIP3    H2 1057   6.246   3.713   3.507  1.4251 -0.5721 -1.8734
  365TIP3   OH2 1058   6.543   1.618   0.530 -0.2911  0.3321  0.4915
  365TIP3    H1 1059   6.593   1.661   0.461 -1.0835 -0.4252 -0.5773
  365TIP3    H2 1060   6.609   1.591   0.594  0.3571  1.8605  0.5157
  366TIP3   OH2 1061   3.605   2.878   1.987  0.7085  0.4744  0.5168
  366TIP3    H1 1062   3.532   2.939   1.973 -1.1150 -1.3604  1.5099
  366TIP3    H2 1063   3.654   2.916   2.059  0.5174  1.5381  0.1108
  367TIP3   OH2 1064   2.078   6.481   1.726 -0.0090 -0.3302 -0.2521
  367TIP3    H1 1065   2.031   6.437   1.797 -1.5615 -0.2421 -1.1772
  367TIP3    H2 1066   2.156   6.518   1.768  0.2640 -2.1578  0.9532
  368TIP3   OH2 1067   3.315   2.212   3.419  0.1135  0.1701  0.1775
  368TIP3    H1 1068   3.228   2.184   3.447 -0.1511  0.4305 -0.3802
  368TIP3    H2 1069   3.331   2.163   3.339  0.3580  0.3471  0.1171
  369TIP3   OH2 1070   2.478   4.053   1.124  0.3274  0.5461  0.0628
  369TIP3    H1 1071   2.438   3.977   1.166 -1.2224  1.5421  0.4733
  369TIP3    H2 1072   2.570   4.050   1.152  0.9972 -2.5853 -2.0598
  370TIP3   OH2 1073   2.328   6.113   2.815  0.1709  0.1009 -0.1803
  370TIP3    H1 1074   2.400   6.175   2.823 -0.1813  0.5301 -0.2861
  370TIP3    H2 1075   2.317   6.102   2.721 -0.0627  0.2277 -0.1680
  371TIP3   OH2 1076   5.610   4.915   2.022 -0.0583 -0.1762 -0.2262
  371TIP3    H1 1077   5.633   5.008   2.018 -1.2448  0.1340 -0.3393
  371TIP3    H2 1078   5.515   4.913   2.007  0.0472 -1.4625 -0.8911
  372TIP3   OH2 1079   6.061   1.021   3.877 -0.1291  0.0131 -0.2334
  372TIP3    H1 1080   5.989   1.053   3.931 -0.5138 -0.4113 -0.4848
  372TIP3    H2 1081   6.020   0.996   3.794  0.4583  0.6745 -0.7387
  373TIP3   OH2 1082   5.649   4.846   5.485  0.0647 -0.2262 -0.1059
  373TIP3    H1 1083   5.557   4.862   5.463 -1.1282 -1.0362  3.6102
  373TIP3    H2 1084   5.687   4.933   5.495 -1.0812  0.1755  0.9868
  374TIP3   OH2 1085   0.280   4.488   4.580  0.2141  0.3418  0.0588
  374TIP3    H1 1086   0.194   4.445   4.586  0.3422  0.0567 -0.1327
  374TIP3    H2 1087   0.270   4.551   4.509  0.7817 -1.1542 -1.4110
  375TIP3   OH2 1088   3.973   4.946   4.988 -0.5458 -0.0110  0.3158
  375TIP3    H1 1089   3.918   4.867   4.991  0.7284 -0.9809 -0.6368
  375TIP3    H2 1090   4.056   4.918   5.026  0.1686  0.6543 -0.7093
  376TIP3   OH2 1091   0.823   3.705   0.147  0.5525 -0.0763  0.4721
  376TIP3    H1 1092   0.843   3.627   0.097  1.0672 -0.8451  1.8081
  376TIP3    H2 1093   0.729   3.719   0.135  1.0865  1.4142 -2.9061
  377TIP3   OH2 1094   3.370   6.422   1.984  0.2474  0.2642 -0.7445
  377TIP3    H1 1095   3.354   6.502   2.035 -0.0691 -0.1621 -0.1569
  377TIP3    H2 1096   3.348   6.446   1.894  0.6598  0.9885 -0.6638
  378TIP3   OH2 1097   6.902   3.579   1.601 -0.6745  0.5206  0.5278
  378TIP3    H1 1098   6.972   3.602   1.663 -0.2990 -2.5472  1.4223
  378TIP3    H2 1099   6.821   3.586   1.652 -0.2839 -3.0930  1.9691
  379TIP3   OH2 1100   2.332   1.086   5.010 -0.3324  0.2278 -0.2357
  379TIP3    H1 1101   2.264   1.061   4.947 -1.3150 -0.5040  1.0582
  379TIP3    H2 1102   2.284   1.123   5.084  0.6521 -0.5278  0.8170
  380TIP3   OH2 1103   6.436   4.900   0.862  0.0126 -0.5804 -0.3268
  380TIP3    H1 1104   6.433   4.914   0.957  0.6059  0.7318 -0.4721
  380TIP3    H2 1105   6.526   4.919   0.838 -0.3768  0.1375 -1.2852
  381TIP3   OH2 1106   6.107   3.886   5.217 -0.1733  0.3549 -0.4094
  381TIP3    H1 1107   6.012   3.890   5.202 -0.4417 -1.6795  0.4482
  381TIP3    H2 1108   6.122   3.945   5.291 -1.4490 -2.0856  1.9825
  382TIP3   OH2 1109   2.884   2.056   1.883 -0.1584  0.8278  0.1288
  382TIP3    H1 1110   2.936   1.985   1.845 -1.2414  0.6813 -1.1739
  382TIP3    H2 1111   2.897   2.048   1.977 -1.8007 -2.3771  0.2094
  383TIP3   OH2 1112   0.922   3.301   4.477  0.5372  0.0867  0.1665
  383TIP3    H1 1113   0.965   3.217   4.496 -1.0108 -0.3745  1.9399
  383TIP3    H2 1114   0.991   3.366   4.490  1.5650 -0.8417 -0.4424
  384TIP3   OH2 1115   1.562   1.487   5.241  0.5522  0.1828  0.1820
  384TIP3    H1 1116   1.476   1.514   5.274  0.8077 -0.2475  1.2613
  384TIP3    H2 1117   1.544   1.446   5.157 -0.2112  0.7269  0.0618
  385TIP3   OH2 1118   3.817   2.864   4.797  0.2130  0.5231 -0.1794
  385TIP3    H1 1119   3.743   2.884   4.739  2.3725 -0.3408 -3.5283
  385TIP3    H2 1120   3.873   2.807   4.745  1.5657 -1.8769  3.5118
  386TIP3   OH2 1121   2.809   5.999   3.414 -0.4884 -0.1509 -0.0029
  386TIP3    H1 1122   2.728   5.957   3.443 -0.7616 -0.3544 -1.0258
  386TIP3    H2 1123   2.782   6.087   3.386 -0.6695 -0.7561 -1.8726
  387TIP3   OH2 1124   2.698   5.103   2.313  0.2749 -0.1661  0.3640
  387TIP3    H1 1125   2.775   5.108   2.370 -0.2637  1.1793  1.0402
  387TIP3    H2 1126   2.723   5.043   2.243  1.5541 -0.5661  1.1311
  388TIP3   OH2 1127   3.469   4.661   3.082 -0.0164 -0.2809  0.3074
  388TIP3    H1 1128   3.405   4.621   3.141 -0.2189 -1.5997 -0.7577
  388TIP3    H2 1129   3.553   4.622   3.107  0.0736  0.0154  0.4670
  389TIP3   OH2 1130   3.701   2.330   1.267 -0.4261 -0.4850 -0.2982
  389TIP3    H1 1131   3.775   2.386   1.246 -0.4536 -0.1155  0.5488
  389TIP3    H2 1132   3.737   2.264   1.327 -0.8172 -0.1906  0.2680
  390TIP3   OH2 1133   0.325   4.008   2.988  0.0968 -0.9726 -0.1643
  390TIP3    H1 1134   0.255   4.052   2.940 -0.3867  0.9858  2.1693
  390TIP3    H2 1135   0.280   3.950   3.049  0.3069  1.0837  2.1045
  391TIP3   OH2 1136   6.676   6.665   3.712 -0.1694 -0.3505  0.7207
  391TIP3    H1 1137   6.646   6.579   3.741 -0.5425 -0.1635  0.8969
  391TIP3    H2 1138   6.767   6.669   3.739  0.2324 -1.2051 -0.4340
  392TIP3   OH2 1139   1.666   0.494   0.399  0.5534  0.3895 -0.0396
  392TIP3    H1 1140   1.596   0.495   0.464  1.6250 -0.5252  1.1720
  392TIP3    H2 1141   1.715   0.575   0.415  0.4491  0.4735 -0.1393
  393TIP3   OH2 1142   2.945   3.683   1.481 -0.4091 -0.7698 -0.2218
  393TIP3    H1 1143   3.003   3.646   1.415 -0.5803 -0.1952 -0.7027
  393TIP3    H2 1144   2.921   3.769   1.446  0.1070 -0.1329  0.9353
  394TIP3   OH2 1145   5.731   2.658   3.128  0.2285 -0.4726 -0.2280
  394TIP3    H1 1146   5.757   2.728   3.068 -2.6425  0.0342 -1.0519
  394TIP3    H2 1147   5.671   2.700   3.190 -1.5401 -2.1345 -0.7089
  395TIP3   OH2 1148   2.016   5.792   0.432 -0.5535  0.4705 -0.7555
  395TIP3    H1 1149   2.079   5.785   0.504 -1.5813 -0.7518  0.0635
  395TIP3    H2 1150   2.067   5.828   0.359  0.6606  1.1594  0.3900
  396TIP3   OH2 1151   4.801   2.225   4.861 -0.2309 -0.3583  0.3226
  396TIP3    H1 1152   4.804   2.309   4.906  0.3449  0.2051 -0.7407
  396TIP3    H2 1153   4.880   2.180   4.890  0.4457  0.2419 -0.5578
  397TIP3   OH2 1154   4.336   1.303   1.287 -0.1759 -0.0724 -0.1409
  397TIP3    H1 1155   4.398   1.272   1.353 -0.4108 -0.5605 -0.1432
  397TIP3    H2 1156   4.252   1.304   1.332 -0.8375 -2.9024 -1.0738
  398TIP3   OH2 1157   6.046   5.978   0.443  0.5387  0.0327 -0.1533
  398TIP3    H1 1158   6.106   5.906   0.424 -0.0997 -0.5957  0.1814
  398TIP3    H2 1159   6.032   6.020   0.358  0.2386 -0.7792 -0.5208
  399TIP3   OH2 1160   0.797   3.310   0.284  0.2359 -0.5814  0.0135
  399TIP3    H1 1161   0.838   3.380   0.336 -1.4365 -0.6693  1.5285
  399TIP3    H2 1162   0.858   3.236   0.291 -0.1090 -0.7022  2.1806
  400TIP3   OH2 1163   2.288   4.944   2.832  0.1639  0.8589 -0.2881
  400TIP3    H1 1164   2.362   4.886   2.848 -0.6739  0.0309  0.7114
  400TIP3    H2 1165   2.325   5.032   2.842  1.3448  0.5134 -1.3530
  401TIP3   OH2 1166   2.974   6.321   3.752  0.2823 -0.1016  0.4849
  401TIP3    H1 1167   2.882   6.327   3.728 -0.0918 -1.1494  1.5387
  401TIP3    H2 1168   3.004   6.412   3.756 -0.3989  0.2094 -0.9099
  402TIP3   OH2 1169   3.420   0.039   4.733  0.2668 -0.3290 -0.1890
  402TIP3    H1 1170   3.479   0.106   4.697  0.2668  0.1557  0.6842
  402TIP3    H2 1171   3.348   0.089   4.771  1.5903 -0.5578  2.9914
  403TIP3   OH2 1172   5.003   2.828   1.872 -0.6537 -0.0365 -1.1478
  403TIP3    H1 1173   4.993   2.923   1.865 -2.2566 -0.1083 -0.1928
  403TIP3    H2 1174   5.038   2.802   1.787  1.5482  1.5822 -0.8452
  404TIP3   OH2 1175   4.956   3.892   4.569  0.2574 -0.2430 -0.1765
  404TIP3    H1 1176   4.946   3.985   4.589  1.4314 -0.4313  1.4953
  404TIP3    H2 1177   4.868   3.863   4.546 -0.0749  1.3315 -1.0661
  405TIP3   OH2 1178   3.661   0.443   2.718  0.3147 -0.1886 -0.1338
  405TIP3    H1 1179   3.584   0.387   2.703  0.6143 -0.8053  0.5820
  405TIP3    H2 1180   3.625   0.524   2.754 -0.2227  0.5262 -2.1428
  406TIP3   OH2 1181   0.164   4.612   1.407  0.1019 -0.1387 -0.0879
  406TIP3    H1 1182   0.233   4.657   1.359  0.5996 -2.0644 -1.3052
  406TIP3    H2 1183   0.088   4.670   1.399  1.3424  1.6639  0.6420
  407TIP3   OH2 1184   4.595   0.585   4.600  0.0616 -0.2759 -0.6832
  407TIP3    H1 1185   4.652   0.648   4.644 -0.4574  0.1006 -0.5445
  407TIP3    H2 1186   4.594   0.614   4.508 -1.3471  0.8072 -0.3486
  408TIP3   OH2 1187   3.162   0.038   0.458  0.2196 -0.1496  0.1632
  408TIP3    H1 1188   3.211   0.060   0.379  0.9476 -2.7116 -0.1638
  408TIP3    H2 1189   3.216   0.071   0.530  0.6838  0.1636 -0.3195
  409TIP3   OH2 1190   1.697   4.869   2.967  0.1961  0.0574 -0.3878
  409TIP3    H1 1191   1.776   4.817   2.958  0.7768  0.8032  0.2490
  409TIP3    H2 1192   1.633   4.827   2.909  0.1700 -2.2011  1.1665
  410TIP3   OH2 1193   7.047   6.421   4.088  0.0300 -0.2029  0.5891
  410TIP3    H1 1194   7.116   6.360   4.063 -0.0986 -0.7279  1.4641
  410TIP3    H2 1195   7.046   6.486   4.018 -0.6371 -1.8440 -0.9794
  411TIP3   OH2 1196   5.417   1.894   4.601 -0.4981  0.1867  0.3206
  411TIP3    H1 1197   5.431   1.813   4.651 -0.6265 -0.0994 -0.0982
  411TIP3    H2 1198   5.441   1.870   4.511  0.7054  0.9695  0.4050
  412TIP3   OH2 1199   3.519   3.755   5.238 -0.4929  0.7009 -0.0628
  412TIP3    H1 1200   3.582   3.697   5.281  1.5897  2.0687 -1.1421
  412TIP3    H2 1201   3.453   3.695   5.203 -0.2595 -0.7174  1.7538
  413TIP3   OH2 1202   2.553   2.400   1.842  0.2975 -0.2110  0.3957
  413TIP3    H1 1203   2.609   2.327   1.816  1.8749  0.5558  1.4611
  413TIP3    H2 1204   2.532   2.444   1.760  1.3724 -0.4466 -0.0220
  414TIP3   OH2 1205   5.248   3.790   4.032 -0.3109 -0.5557 -0.8857
  414TIP3    H1 1206   5.204   3.826   3.955 -1.4717 -0.7522 -0.3346
  414TIP3    H2 1207   5.341   3.803   4.015 -0.4961 -1.4678 -2.7501
  415TIP3   OH2 1208   2.584   3.417   3.002  0.1044 -0.1615  0.6275
  415TIP3    H1 1209   2.644   3.393   3.072  0.0709 -0.6648  0.4860
  415TIP3    H2 1210   2.497   3.398   3.037 -0.0082  0.8967  0.9661
  416TIP3   OH2 1211   5.602   2.468   4.003 -0.6130  0.3751  0.4863
  416TIP3    H1 1212   5.676   2.507   3.956  0.1588 -0.3289  1.0848
  416TIP3    H2 1213   5.530   2.530   3.990 -0.0180  0.9098 -0.3886
  417TIP3   OH2 1214   3.786   2.751  -0.005 -0.0545 -0.4013 -0.4648
  417TIP3    H1 1215   3.770   2.689   0.066  3.6452 -1.6960 -0.5410
  417TIP3    H2 1216   3.831   2.825   0.038 -2.2590  1.2151 -0.7735
  418TIP3   OH2 1217   3.635   3.552   3.894 -0.3990 -0.1604  0.0608
  418TIP3    H1 1218   3.605   3.610   3.963 -1.1768 -2.0930  1.4422
  418TIP3    H2 1219   3.698   3.494   3.937  0.3010 -0.4142 -1.2401
  419TIP3   OH2 1220   3.558   0.090   2.320 -0.3364 -0.6834  0.6186
  419TIP3    H1 1221   3.529   0.158   2.381 -1.7373 -0.5118 -0.1878
  419TIP3    H2 1222   3.480   0.069   2.269  0.9210 -0.3340 -1.5748
  420TIP3   OH2 1223   2.670   6.499   5.248  0.3366 -0.5846  0.4935
  420TIP3    H1 1224   2.677   6.557   5.172 -0.4038 -1.7871 -0.5507
  420TIP3    H2 1225   2.723   6.422   5.224 -0.0661 -1.0602  1.0982
  421TIP3   OH2 1226   6.976   2.611   5.727  0.1814 -0.1582  0.1909
  421TIP3    H1 1227   7.031   2.656   5.663 -0.0617  0.3182  0.3078
  421TIP3    H2 1228   7.031   2.542   5.763  0.2383 -0.5859 -0.7066
  422TIP3   OH2 1229   5.420   1.340   5.061  0.7245  0.2221 -0.3948
  422TIP3    H1 1230   5.450   1.249   5.067  0.1095 -0.0951 -1.8121
  422TIP3    H2 1231   5.324   1.334   5.061  0.6800  0.8595 -0.6285
  423TIP3   OH2 1232   3.254   2.627   1.395 -0.1448  0.2076 -0.6958
  423TIP3    H1 1233   3.224   2.712   1.427  0.2795 -0.2810  1.0908
  423TIP3    H2 1234   3.329   2.648   1.338  0.3261  1.0014  0.1981
  424TIP3   OH2 1235   3.441   4.333   5.865 -0.3840 -0.4977  0.3757
  424TIP3    H1 1236   3.401   4.246   5.858 -1.7358  0.1482 -0.6716
  424TIP3    H2 1237   3.506   4.335   5.794 -1.4216 -0.1664 -0.6029
  425TIP3   OH2 1238   6.373   1.813   2.803 -0.2064 -0.3049 -0.3734
  425TIP3    H1 1239   6.286   1.851   2.812  0.6058  1.5954  0.0298
  425TIP3    H2 1240   6.404   1.802   2.893  0.1592 -0.5376 -0.5237
  426TIP3   OH2 1241   1.165   1.208   2.831  0.2230 -0.5942 -0.5088
  426TIP3    H1 1242   1.178   1.225   2.924 -2.6876 -1.4884  0.1593
  426TIP3    H2 1243   1.086   1.259   2.808  2.1638  1.5310 -3.1485
  427TIP3   OH2 1244   6.676   1.478   1.204  0.6112  0.2865  0.4761
  427TIP3    H1 1245   6.725   1.420   1.261 -1.0025 -0.5598  1.0794
  427TIP3    H2 1246   6.666   1.559   1.254 -1.9589 -0.9005  2.0946
  428TIP3   OH2 1247   3.011   4.240   3.311 -0.3391 -0.4663  0.6837
  428TIP3    H1 1248   3.052   4.257   3.397  0.5103 -0.4142  0.2769
  428TIP3    H2 1249   3.052   4.160   3.280 -0.4169 -0.3139  0.1805
  429TIP3   OH2 1250   2.004   5.593   0.748 -0.5455 -0.4002 -0.4236
  429TIP3    H1 1251   1.930   5.630   0.700  0.0571  0.7090 -0.5211
  429TIP3    H2 1252   2.079   5.646   0.721 -0.2735  0.6940  2.2093
  430TIP3   OH2 1253   6.742   3.807   2.528  0.5213 -0.3492  0.2757
  430TIP3    H1 1254   6.813   3.762   2.482  2.6592  1.1175  1.9324
  430TIP3    H2 1255   6.738   3.765   2.613  1.1020  1.1317  1.0705
  431TIP3   OH2 1256   3.331   3.943   5.202 -0.4166  0.0606 -0.1350
  431TIP3    H1 1257   3.400   3.883   5.230  2.0860  2.4041 -0.8365
  431TIP3    H2 1258   3.251   3.908   5.241  1.0922 -2.9061  0.5843
  432TIP3   OH2 1259   3.028   2.671   3.823  0.8346  0.1195 -0.3980
  432TIP3    H1 1260   3.087   2.618   3.769 -0.8087  0.0040 -2.1750
  432TIP3    H2 1261   3.013   2.750   3.771 -0.4296  0.2183  0.0950
  433TIP3   OH2 1262   5.940   3.406   2.599  0.6552 -0.4020  0.3900
  433TIP3    H1 1263   5.864   3.465   2.597 -0.6352 -1.9300  1.8221
  433TIP3    H2 1264   5.984   3.428   2.681  0.0117 -1.5640  1.0711
  434TIP3   OH2 1265   3.817   2.562   4.707  0.1589 -0.4094 -0.0591
  434TIP3    H1 1266   3.751   2.493   4.717  0.7304 -1.2938 -1.8848
  434TIP3    H2 1267   3.885   2.540   4.772 -0.5527 -0.4416  0.6842
  435TIP3   OH2 1268   6.064   3.523   0.516 -0.2887 -0.0806  0.4224
  435TIP3    H1 1269   5.995   3.508   0.580 -0.7610 -0.4109 -0.1554
  435TIP3    H2 1270   6.112   3.440   0.512  1.5168  0.7523  2.3816
  436TIP3   OH2 1271   0.233   0.686   0.340 -0.2999 -0.1302 -0.4162
  436TIP3    H1 1272   0.289   0.660   0.413  1.7903  1.2796 -1.3827
  436TIP3    H2 1273   0.180   0.758   0.374  0.7046  0.5598 -0.2304
  437TIP3   OH2 1274   4.584   6.330   5.886  0.0775 -0.3002 -0.0153
  437TIP3    H1 1275   4.524   6.324   5.812 -0.6805  2.6558  0.2032
  437TIP3    H2 1276   4.671   6.320   5.848 -0.4044 -1.4485 -0.8495
  438TIP3   OH2 1277   5.943   4.410   5.176 -0.1619  0.3560  0.1418
  438TIP3    H1 1278   5.964   4.474   5.108 -1.3270 -1.2871 -1.8421
  438TIP3    H2 1279   5.849   4.395   5.168  0.2713 -2.6698 -0.5119
  439TIP3   OH2 1280   4.486   1.944   3.011  1.0266 -0.0607 -0.4824
  439TIP3    H1 1281   4.560   2.002   2.995  2.2341 -0.9746  1.4599
  439TIP3    H2 1282   4.473   1.946   3.106 -0.8757 -0.6317 -0.6794
  440TIP3   OH2 1283   3.229   1.618   2.762 -0.0156  0.8234  0.3141
  440TIP3    H1 1284   3.260   1.691   2.815  0.3695  0.5604  0.4555
  440TIP3    H2 1285   3.270   1.540   2.801  0.7599  0.6877 -0.7098
  441TIP3   OH2 1286   1.630   4.319   3.480  0.3218  0.0204  0.3202
  441TIP3    H1 1287   1.693   4.376   3.525  0.8928 -0.1747 -0.2161
  441TIP3    H2 1288   1.573   4.379   3.432  0.1866  0.1915  0.6922
  442TIP3   OH2 1289   0.169   2.929   3.624 -0.2133  0.2835 -0.2062
  442TIP3    H1 1290   0.221   2.978   3.560  3.2876 -0.2650  1.8907
  442TIP3    H2 1291   0.200   2.962   3.709 -3.3705 -0.2150  1.2695
  443TIP3   OH2 1292   5.726   5.032   0.218  0.1393 -1.1093 -0.8001
  443TIP3    H1 1293   5.794   5.054   0.281 -0.1808  0.7314 -1.0280
  443TIP3    H2 1294   5.730   4.937   0.210  0.3097 -1.4221  1.8558
  444TIP3   OH2 1295   3.436   4.232   2.840  0.2506  0.5720  0.3467
  444TIP3    H1 1296   3.344   4.248   2.860 -0.2284 -0.3182 -0.9797
  444TIP3    H2 1297   3.482   4.245   2.923 -1.5284 -2.7634  2.0819
  445TIP3   OH2 1298   6.004   1.471   3.519 -0.2068 -0.1978  0.0207
  445TIP3    H1 1299   5.946   1.477   3.594 -2.1637 -2.0755 -1.2181
  445TIP3    H2 1300   5.950   1.430   3.450  1.0048  2.5918 -2.8689
  446TIP3   OH2 1301   1.552   5.354   0.984 -0.1129  0.0299 -0.1733
  446TIP3    H1 1302   1.483   5.398   1.034  1.4839 -0.1113  2.3613
  446TIP3    H2 1303   1.518   5.266   0.969 -1.0167  0.3703 -0.1734
  447TIP3   OH2 1304   1.597   4.954   4.703 -0.5894 -0.0950 -0.1555
  447TIP3    H1 1305   1.530   4.886   4.712  0.6357 -1.2789  0.6314
  447TIP3    H2 1306   1.669   4.910   4.658  0.2015  0.7072  0.2997
  448TIP3   OH2 1307   4.717   3.035   4.425 -0.3007 -0.2433  0.7742
  448TIP3    H1 1308   4.659   3.007   4.495  0.8260  1.3437  2.4405
  448TIP3    H2 1309   4.802   3.049   4.468  0.2339  1.5260 -0.7273
  449TIP3   OH2 1310   5.300   3.372   0.949 -0.3121 -0.1329 -0.3440
  449TIP3    H1 1311   5.359   3.339   1.016 -0.0480  0.0449 -0.4887
  449TIP3    H2 1312   5.340   3.346   0.866 -0.5487 -0.2040 -0.4368
  450TIP3   OH2 1313   5.451   5.259   5.847  0.3952  0.2164 -0.5386
  450TIP3    H1 1314   5.482   5.293   5.763 -0.4067 -1.0188 -1.3700
  450TIP3    H2 1315   5.371   5.309   5.864  0.1000 -0.1050 -0.9473
  451TIP3   OH2 1316   5.286   1.629   2.271 -0.0343 -0.4228 -0.2549
  451TIP3    H1 1317   5.240   1.710   2.290  0.5751 -0.1654  0.1754
  451TIP3    H2 1318   5.218   1.562   2.267 -0.6790  0.2867 -1.7790
  452TIP3   OH2 1319   5.662   3.412   5.426  0.1221  0.0111 -0.3473
  452TIP3    H1 1320   5.758   3.418   5.418  0.0468  0.3834 -0.9967
  452TIP3    H2 1321   5.643   3.448   5.513  0.5604  0.0244 -0.2547
  453TIP3   OH2 1322   0.235   3.987   4.035 -0.3933  0.9684  0.1921
  453TIP3    H1 1323   0.246   4.052   3.966  0.6980  2.8649  2.0209
  453TIP3    H2 1324   0.315   3.934   4.031 -0.4185  0.9549 -0.1256
  454TIP3   OH2 1325   5.847   2.090   3.696 -0.2530  0.4826  0.3923
  454TIP3    H1 1326   5.785   2.057   3.762  0.0734 -0.2121  0.3584
  454TIP3    H2 1327   5.833   2.033   3.620  0.8479 -0.0914  0.5934
  455TIP3   OH2 1328   4.115   4.613   5.475 -0.4892 -0.4596  0.4154
  455TIP3    H1 1329   4.186   4.677   5.468  0.2583 -1.0408  1.9796
  455TIP3    H2 1330   4.141   4.557   5.549 -2.3349 -1.0077  0.7059
  456TIP3   OH2 1331   6.527   3.437   0.726  0.3581 -0.5830 -0.3925
  456TIP3    H1 1332   6.511   3.429   0.632 -1.2350  1.1500 -0.3201
  456TIP3    H2 1333   6.455   3.490   0.759  2.2221  1.0291  1.3972
  457TIP3   OH2 1334   4.729   1.944   2.275  0.1143 -0.1324  0.1521
  457TIP3    H1 1335   4.762   1.982   2.193  1.4256 -3.8070 -1.2182
  457TIP3    H2 1336   4.636   1.927   2.258  0.3226 -0.6499 -0.4941
  458TIP3   OH2 1337   2.200   1.718   0.995  0.4746 -0.3737  0.3335
  458TIP3    H1 1338   2.129   1.724   0.932  1.7301  1.6099 -1.0175
  458TIP3    H2 1339   2.157   1.720   1.081 -1.1360 -0.6252 -0.4423
  459TIP3   OH2 1340   5.753   2.846   0.142 -0.0090 -1.1959  0.1104
  459TIP3    H1 1341   5.686   2.816   0.203  1.3564 -2.9844  0.8322
  459TIP3    H2 1342   5.831   2.795   0.165  2.1924  2.0366  0.5232
  460TIP3   OH2 1343   5.155   5.111   0.427 -0.5872 -0.0223 -0.2747
  460TIP3    H1 1344   5.222   5.177   0.414 -0.2651 -0.0915  0.9061
  460TIP3    H2 1345   5.095   5.122   0.354  1.0109 -0.3396 -1.6934
  461TIP3   OH2 1346   2.732   6.203   3.708  0.6076  0.3042 -0.0382
  461TIP3    H1 1347   2.747   6.140   3.779  3.9742  0.8971 -0.0616
  461TIP3    H2 1348   2.637   6.213   3.705  0.0045 -3.5133  1.0220
  462TIP3   OH2 1349   0.977   3.276   4.041 -0.4351  0.3321 -0.1237
  462TIP3    H1 1350   1.058   3.241   4.077 -0.4846  0.2732 -0.0699
  462TIP3    H2 1351   0.907   3.229   4.087 -0.4938 -0.6832 -1.2084
  463TIP3   OH2 1352   0.269   6.680   4.959 -0.3517 -0.5701 -0.1803
  463TIP3    H1 1353   0.297   6.702   5.048  0.0766 -2.3429  0.1586
  463TIP3    H2 1354   0.327   6.730   4.902 -0.9566  0.9879  0.4874
  464TIP3   OH2 1355   4.096   5.090   1.226 -0.1687  0.2025 -0.1470
  464TIP3    H1 1356   4.156   5.095   1.151 -0.0392  1.0196 -0.0008
  464TIP3    H2 1357   4.028   5.029   1.198  0.1932  0.0436 -0.7046
  465TIP3   OH2 1358   6.868   5.506   3.838  0.4666  0.2764 -0.2445
  465TIP3    H1 1359   6.890   5.454   3.915  2.9566 -0.5728 -1.4020
  465TIP3    H2 1360   6.876   5.597   3.867  1.1582 -0.0332  0.5700
  466TIP3   OH2 1361   7.159   6.163   3.043 -0.6400  0.1261 -0.2347
  466TIP3    H1 1362   7.209   6.111   3.106 -0.8286 -0.3463 -0.4738
  466TIP3    H2 1363   7.124   6.235   3.094  0.9998  0.9624 -0.2147
  467TIP3   OH2 1364   2.743   3.258   1.087 -0.2431 -0.2493 -0.1473
  467TIP3    H1 1365   2.827   3.214   1.070  0.0441 -0.7125  2.1800
  467TIP3    H2 1366   2.768   3.343   1.124 -0.8017  0.0388 -0.4253
  468TIP3   OH2 1367   1.422   6.238   1.408 -0.6862  0.1633  0.3235
  468TIP3    H1 1368   1.440   6.171   1.474  1.9953 -0.7533 -1.1839
  468TIP3    H2 1369   1.507   6.278   1.389 -1.6366  1.5691 -1.3443
  469TIP3   OH2 1370   1.859   5.003   4.342  0.3366 -0.4010 -0.5643
  469TIP3    H1 1371   1.802   5.078   4.327  1.1117  0.2665 -0.2681
  469TIP3    H2 1372   1.930   5.014   4.280 -0.4047 -1.8492 -1.7263
  470TIP3   OH2 1373   7.221   0.464   4.402  0.1769 -0.0161  0.0574
  470TIP3    H1 1374   7.169   0.383   4.402  0.5282 -0.4359  4.3396
  470TIP3    H2 1375   7.189   0.512   4.326 -2.8825 -2.4239 -0.4021
  471TIP3   OH2 1376   2.014   5.958   2.786 -0.0322  0.1679  0.0752
  471TIP3    H1 1377   2.043   6.049   2.790  0.7078 -0.0538 -0.1060
  471TIP3    H2 1378   2.072   5.911   2.846  0.9000 -0.5035 -1.2969
  472TIP3   OH2 1379   5.073   6.018   1.837  0.7797 -0.1793 -0.4960
  472TIP3    H1 1380   5.074   5.924   1.856  0.8281  0.0452  0.6477
  472TIP3    H2 1381   5.014   6.026   1.762 -1.7206 -0.8104  1.2469
  473TIP3   OH2 1382   2.580   4.878   1.617 -0.0441  0.3786  0.5912
  473TIP3    H1 1383   2.568   4.972   1.598 -3.1301  0.2110  1.1326
  473TIP3    H2 1384   2.557   4.834   1.535 -0.8370  0.0530  0.9779
  474TIP3   OH2 1385   3.249   1.364   4.812 -0.3676 -0.0202 -0.6223
  474TIP3    H1 1386   3.274   1.274   4.833 -1.3743 -0.0530  0.5783
  474TIP3    H2 1387   3.288   1.381   4.726 -1.4702 -2.1406 -1.5989
  475TIP3   OH2 1388   2.765   3.091   5.187  0.2694 -0.2877  0.2596
  475TIP3    H1 1389   2.734   3.159   5.128 -1.7891 -0.0511  1.5114
  475TIP3    H2 1390   2.847   3.125   5.222  1.4518 -0.3565 -2.2287
  476TIP3   OH2 1391   6.404   0.434   1.930  0.1790  0.0095  0.2523
  476TIP3    H1 1392   6.449   0.506   1.975  0.5564 -0.4994  0.6920
  476TIP3    H2 1393   6.426   0.356   1.980 -0.1587 -0.4338 -0.2751
  477TIP3   OH2 1394   6.670   1.254   4.581 -0.2491  0.7385 -0.5583
  477TIP3    H1 1395   6.649   1.203   4.503 -0.8425 -1.5485  0.9511
  477TIP3    H2 1396   6.758   1.288   4.565 -0.3643  0.3505 -2.2116
  478TIP3   OH2 1397   3.735   0.648   2.444 -0.4012 -0.3623 -0.1284
  478TIP3    H1 1398   3.734   0.687   2.532  0.0765  0.2004 -0.3731
  478TIP3    H2 1399   3.743   0.554   2.460  1.7835 -0.1340  0.4075
  479TIP3   OH2 1400   0.289   2.705   5.510  0.1982 -0.2210 -0.0224
  479TIP3    H1 1401   0.310   2.743   5.425  0.1118  0.5448  0.2876
  479TIP3    H2 1402   0.202   2.666   5.498 -0.5014  1.2041  0.0978
  480TIP3   OH2 1403   2.009   6.734   0.356 -0.3154 -0.3260  0.3173
  480TIP3    H1 1404   1.924   6.722   0.399 -1.1406 -1.6832 -1.5659
  480TIP3    H2 1405   2.005   6.824   0.321 -1.0539 -0.4232  0.1222
  481TIP3   OH2 1406   5.434   2.603   5.490 -0.4130 -0.4264  0.1209
  481TIP3    H1 1407   5.349   2.613   5.534 -0.1859 -1.0626  0.7157
  481TIP3    H2 1408   5.494   2.577   5.560  0.5919  1.3674 -0.0168
  482TIP3   OH2 1409   7.075   2.106   1.269  0.2041 -0.1554 -0.6148
  482TIP3    H1 1410   7.008   2.065   1.324  1.0263 -0.7255 -0.0191
  482TIP3    H2 1411   7.070   2.199   1.290 -0.7570 -0.1122 -0.9722
  483TIP3   OH2 1412   2.999   0.191   2.369  0.4428  0.6937 -0.0487
  483TIP3    H1 1413   2.955   0.263   2.323  0.9049  0.8320 -0.2899
  483TIP3    H2 1414   2.942   0.116   2.356  0.3403  0.8389 -0.4678
  484TIP3   OH2 1415   0.382   0.216   4.632 -0.2461  0.0759  0.4124
  484TIP3    H1 1416   0.379   0.288   4.568 -1.4606  1.6485  2.1328
  484TIP3    H2 1417   0.438   0.248   4.702 -0.9984 -0.5197  1.3200
  485TIP3   OH2 1418   0.347   0.035   1.183 -0.0677 -0.3666 -0.4932
  485TIP3    H1 1419   0.327   0.048   1.090  0.0444  1.6500 -0.2725
  485TIP3    H2 1420   0.370   0.122   1.215  2.0668 -1.3724  0.9440
  486TIP3   OH2 1421   6.600   0.373   4.926 -0.4759  0.4294  0.5856
  486TIP3    H1 1422   6.515   0.396   4.890  0.6075 -0.9293 -3.4360
  486TIP3    H2 1423   6.650   0.454   4.924 -0.4618  0.4172 -1.2372
  487TIP3   OH2 1424   1.890   0.044   5.293 -0.1209  0.3877 -0.2144
  487TIP3    H1 1425   1.863   0.134   5.278 -0.4042  0.2295 -0.6920
  487TIP3    H2 1426   1.968   0.033   5.238  1.6607  1.1759  1.9996
  488TIP3   OH2 1427   6.421   1.655   0.014  0.1500 -0.4152 -0.0689
  488TIP3    H1 1428   6.422   1.597   0.090  1.9826 -1.0913 -0.5443
  488TIP3    H2 1429   6.374   1.605  -0.053 -0.0968 -0.4765  0.1502
  489TIP3   OH2 1430   0.544   0.629   2.603 -0.1855 -1.4398  0.4541
  489TIP3    H1 1431   0.520   0.594   2.689 -2.1650 -0.1231  0.5157
  489TIP3    H2 1432   0.592   0.710   2.623  2.2363 -2.7708  0.2975
  490TIP3   OH2 1433   0.558   1.051   3.056  0.2415 -0.1924 -0.6030
  490TIP3    H1 1434   0.479   1.093   3.023  0.9211  0.2907 -1.7105
  490TIP3    H2 1435   0.566   1.080   3.147 -1.5256 -1.2871 -0.0605
  491TIP3   OH2 1436   1.316   0.016   0.770 -0.4491 -0.2132  0.9050
  491TIP3    H1 1437   1.229  -0.024   0.776 -0.2992 -0.6814  0.1987
  491TIP3    H2 1438   1.305   0.091   0.711 -0.5131  0.1424  1.3685
  492TIP3   OH2 1439   1.933   5.257   5.540 -0.2255 -0.1578 -0.5406
  492TIP3    H1 1440   1.960   5.235   5.451 -0.9956  0.1358 -0.8486
  492TIP3    H2 1441   1.847   5.298   5.530 -0.9320 -1.3154  0.4397
  493TIP3   OH2 1442   4.207   4.043   0.367  0.2331  0.0330  0.4334
  493TIP3    H1 1443   4.232   4.102   0.438  0.6741 -1.3837  1.5042
  493TIP3    H2 1444   4.285   4.037   0.312  0.9209 -1.1865  1.5058
  494TIP3   OH2 1445   0.580   1.895   1.707  0.2457  0.7347  0.1544
  494TIP3    H1 1446   0.612   1.809   1.681  0.1863  1.6009 -3.2032
  494TIP3    H2 1447   0.486   1.883   1.721  0.2117  0.2810 -0.4640
  495TIP3   OH2 1448   6.184   5.616   5.672  0.0053  0.1176 -0.3801
  495TIP3    H1 1449   6.259   5.565   5.703  1.1934  1.4019 -1.0306
  495TIP3    H2 1450   6.203   5.706   5.700  0.3918  1.0832 -3.3256
  496TIP3   OH2 1451   1.379   5.485   5.685 -0.3518 -0.0117  0.1656
  496TIP3    H1 1452   1.402   5.570   5.722  1.9694 -0.3562 -0.2925
  496TIP3    H2 1453   1.419   5.487   5.597 -2.5067 -0.6125 -0.8801
  497TIP3   OH2 1454   6.366   0.887   1.335  0.8937  0.4799  0.1130
  497TIP3    H1 1455   6.317   0.923   1.261  2.2236  2.0121 -0.0744
  497TIP3    H2 1456   6.357   0.792   1.326 -0.2134  0.6762 -1.1329
  498TIP3   OH2 1457   4.867   4.761   4.647  0.6095  0.0738  0.4036
  498TIP3    H1 1458   4.901   4.672   4.644 -0.4448 -0.3396  0.5278
  498TIP3    H2 1459   4.852   4.784   4.555 -0.2602 -0.3300  0.4388
  499TIP3   OH2 1460   2.808   0.887   3.355 -0.3982 -0.0874  0.1475
  499TIP3    H1 1461   2.777   0.910   3.267  1.5456  2.7651  0.0623
  499TIP3    H2 1462   2.885   0.832   3.340  0.1495  0.6971  0.0036
  500TIP3   OH2 1463   5.999   5.425   3.742  0.0626  0.3682 -0.3086
  500TIP3    H1 1464   5.934   5.383   3.685 -1.4610  0.9813  0.9031
  500TIP3    H2 1465   5.948   5.487   3.795  1.9419  2.2992 -0.6406
  501TIP3   OH2 1466   2.436   4.901   2.561 -0.3319  0.0670  0.3174
  501TIP3    H1 1467   2.395   4.988   2.563  0.2967  0.3651  0.7043
  501TIP3    H2 1468   2.507   4.907   2.625  0.2757 -0.4522 -0.2938
  502TIP3   OH2 1469   0.713   6.619   1.334  0.7803 -0.4901  0.4919
  502TIP3    H1 1470   0.782   6.686   1.328  1.4220 -1.1251  0.6701
  502TIP3    H2 1471   0.652   6.654   1.399  1.0715 -0.0451  0.5325
  503TIP3   OH2 1472   0.979   1.607   5.454  0.1117 -0.0838  0.0286
  503TIP3    H1 1473   1.030   1.566   5.384  0.5331  0.7420 -0.1599
  503TIP3    H2 1474   0.901   1.641   5.409 -0.9331 -1.8410  0.4059
  504TIP3   OH2 1475   5.445   0.960   1.899 -0.3164  0.1805  1.0298
  504TIP3    H1 1476   5.393   0.962   1.979 -1.4778  2.9524  0.3184
  504TIP3    H2 1477   5.484   1.047   1.894 -1.5562  0.6657 -2.2023
  505TIP3   OH2 1478   4.274   2.297   2.027 -0.1667  0.9475 -0.6370
  505TIP3    H1 1479   4.315   2.374   2.069  0.9408  0.6029 -1.0403
  505TIP3    H2 1480   4.334   2.225   2.047 -1.3168  0.1163 -0.0583
  506TIP3   OH2 1481   6.774   0.521   0.650 -0.3612  0.5205 -0.4130
  506TIP3    H1 1482   6.822   0.438   0.654 -0.3052  0.5024 -1.1964
  506TIP3    H2 1483   6.711   0.516   0.722 -1.6713 -1.0470 -1.5585
  507TIP3   OH2 1484   6.813   3.409   0.744 -0.5566  0.1377  0.0326
  507TIP3    H1 1485   6.789   3.491   0.787  0.1890 -0.4137  1.5588
  507TIP3    H2 1486   6.729   3.372   0.715 -0.9731  1.0158  0.0809
  508TIP3   OH2 1487   3.730   2.254   5.550 -0.1778  0.3435  0.7899
  508TIP3    H1 1488   3.733   2.344   5.517 -1.7929 -0.4156 -1.7237
  508TIP3    H2 1489   3.655   2.253   5.610 -2.0183  0.1133 -1.3923
  509TIP3   OH2 1490   1.577   5.048   5.286  0.8579  0.2561  0.0581
  509TIP3    H1 1491   1.550   5.088   5.204  1.1040  1.8181  0.6992
  509TIP3    H2 1492   1.669   5.023   5.272  0.4880 -0.7961 -0.5878
  510TIP3   OH2 1493   4.959   0.412   0.906 -0.2529  0.5818  0.0722
  510TIP3    H1 1494   5.016   0.437   0.834 -0.2108  0.1338 -0.0518
  510TIP3    H2 1495   4.922   0.327   0.880  1.9295 -1.0317  1.7880
  511TIP3   OH2 1496   0.130   1.034   5.710  0.0085  0.5056  0.0259
  511TIP3    H1 1497   0.185   1.109   5.730 -0.3536  0.3717  1.6372
  511TIP3    H2 1498   0.188   0.958   5.722 -0.1709  0.4323  0.4589
  512TIP3   OH2 1499   4.820   1.732   1.440 -0.3577  0.0177 -0.2564
  512TIP3    H1 1500   4.809   1.664   1.374 -0.2957  0.1846 -0.4425
  512TIP3    H2 1501   4.894   1.784   1.408  1.1228 -1.1882  1.0358
  513TIP3   OH2 1502   0.144   2.864   1.915 -0.1956 -0.4688  0.2323
  513TIP3    H1 1503   0.107   2.950   1.895  0.1278 -0.5430 -0.7225
  513TIP3    H2 1504   0.196   2.841   1.838  0.9642 -0.8462  1.1004
  514TIP3   OH2 1505   3.755   3.898   0.483 -0.1858 -0.1788  0.0541
  514TIP3    H1 1506   3.663   3.884   0.503 -0.2061 -1.3683 -0.7779
  514TIP3    H2 1507   3.802   3.838   0.540  0.0372 -0.0996 -0.0440
  515TIP3   OH2 1508   4.467   5.675   0.134  0.4607  0.2827  0.3428
  515TIP3    H1 1509   4.450   5.764   0.164  1.8236 -0.4352  3.6459
  515TIP3    H2 1510   4.535   5.643   0.192 -0.3306 -3.1159 -0.4022
  516TIP3   OH2 1511   1.896   0.669   0.836 -0.1059  0.3473 -0.1820
  516TIP3    H1 1512   1.852   0.687   0.919  0.6973 -0.8676  0.5511
  516TIP3    H2 1513   1.854   0.727   0.773 -0.7335  1.3077  1.0700
  517TIP3   OH2 1514   5.451   5.044   1.573  0.0693  0.2472  0.0193
  517TIP3    H1 1515   5.438   5.126   1.621 -1.0612 -0.6857  1.3892
  517TIP3    H2 1516   5.396   4.980   1.619 -0.0552 -1.0030 -1.7549
  518TIP3   OH2 1517   3.571   1.043   1.044 -0.0251  0.5136  0.2084
  518TIP3    H1 1518   3.662   1.058   1.016 -0.4089  0.0608 -1.3944
  518TIP3    H2 1519   3.519   1.091   0.980 -0.9675 -0.8916 -0.1216
  519TIP3   OH2 1520   1.923   1.544   1.225 -0.1359 -0.2697 -0.0356
  519TIP3    H1 1521   1.890   1.570   1.311  1.4240  1.2127  0.1710
  519TIP3    H2 1522   1.948   1.626   1.183  0.0524 -1.0597 -1.5256
  520TIP3   OH2 1523   3.745   5.023   4.748  0.0283 -0.2941  0.5006
  520TIP3    H1 1524   3.672   4.991   4.695  0.5098  1.4576 -1.3705
  520TIP3    H2 1525   3.754   4.959   4.818 -2.0035 -1.6225 -0.3526
  521TIP3   OH2 1526   6.797   3.244   4.077  0.3381 -0.7682 -0.0604
  521TIP3    H1 1527   6.851   3.225   4.154 -0.1108  0.7193  0.6556
  521TIP3    H2 1528   6.801   3.164   4.025  0.9784 -1.6682  1.3109
  522TIP3   OH2 1529   4.291   0.766   5.491 -0.1574  0.3401 -0.0678
  522TIP3    H1 1530   4.332   0.796   5.410  1.4684 -0.5967  0.3695
  522TIP3    H2 1531   4.230   0.697   5.464  1.0730 -0.6301 -0.4284
  523TIP3   OH2 1532   5.086   6.262   2.022 -0.5758  0.0712 -0.3702
  523TIP3    H1 1533   5.157   6.228   1.966  0.7244 -0.6671  1.6211
  523TIP3    H2 1534   5.026   6.188   2.031 -1.0829  0.3674 -1.2049
  524TIP3   OH2 1535   1.483   2.002   0.986  0.3011 -0.6520  0.0479
  524TIP3    H1 1536   1.433   1.923   0.964 -0.5113 -0.1691  0.0888
  524TIP3    H2 1537   1.453   2.067   0.923  0.7009 -0.2772  0.2409
  525TIP3   OH2 1538   4.281   1.886   1.098 -0.4386  0.3833 -0.0409
  525TIP3    H1 1539   4.299   1.980   1.088 -1.1910  0.6781  1.2248
  525TIP3    H2 1540   4.325   1.862   1.179  0.2498 -0.5228 -0.6520
  526TIP3   OH2 1541   0.600   2.077   5.798  0.1731 -0.4132  0.0195
  526TIP3    H1 1542   0.667   2.063   5.731  0.3843 -1.2440  0.3918
  526TIP3    H2 1543   0.645   2.126   5.867  0.3554 -0.8298  0.1981
  527TIP3   OH2 1544   0.927   5.448   4.369  0.4999 -0.0724  1.2123
  527TIP3    H1 1545   0.857   5.385   4.383  1.0974 -1.5770 -1.6380
  527TIP3    H2 1546   1.007   5.401   4.393  0.8462 -0.0368  0.2106
  528TIP3   OH2 1547   6.461   1.900   3.573 -0.1279  0.1964  0.0112
  528TIP3    H1 1548   6.415   1.826   3.534 -1.8628 -0.0877  2.3862
  528TIP3    H2 1549   6.494   1.866   3.657 -0.2426  1.8621  0.7737
  529TIP3   OH2 1550   6.229   5.722   2.068  0.2429  0.1942  0.4713
  529TIP3    H1 1551   6.205   5.779   1.995  1.6396  1.4487  0.9380
  529TIP3    H2 1552   6.263   5.781   2.135  1.8353 -1.1718  0.9463
  530TIP3   OH2 1553   5.838   1.066   5.529 -0.3741  0.4447 -0.6977
  530TIP3    H1 1554   5.921   1.094   5.488 -0.3170  1.3610  0.0254
  530TIP3    H2 1555   5.845   1.095   5.619 -2.3499  2.3847 -1.1125
  531TIP3   OH2 1556   0.489   2.617   1.661 -0.4630  0.4630  0.2179
  531TIP3    H1 1557   0.567   2.575   1.624 -2.0804 -2.2027 -0.4501
  531TIP3    H2 1558   0.523   2.677   1.727  2.1721 -0.0158 -0.5845
  532TIP3   OH2 1559   4.363   4.078   4.472  0.1646 -0.0500  0.0664
  532TIP3    H1 1560   4.453   4.111   4.472  0.3469 -0.5117 -0.8137
  532TIP3    H2 1561   4.310   4.154   4.495  0.6183  0.7621 -1.4048
  533TIP3   OH2 1562   6.949   3.090   1.280 -0.7248  0.6246 -0.2959
  533TIP3    H1 1563   6.993   3.170   1.308  0.9624 -0.2206 -0.4245
  533TIP3    H2 1564   6.977   3.077   1.189  0.0844 -0.7916  0.1259
  534TIP3   OH2 1565   1.644   5.575   1.615  0.1056 -0.2976  0.4646
  534TIP3    H1 1566   1.616   5.493   1.574 -0.4313  0.4139 -0.6413
  534TIP3    H2 1567   1.570   5.600   1.670  0.2484 -0.5213  0.7615
  535TIP3   OH2 1568   1.282   4.214   2.617  0.2375  0.0729  0.6094
  535TIP3    H1 1569   1.200   4.218   2.568 -1.3499  2.1139  3.1414
  535TIP3    H2 1570   1.344   4.263   2.563 -0.7625  0.2124 -0.4642
  536TIP3   OH2 1571   6.987   3.898   0.300 -0.2743 -0.0978 -0.3436
  536TIP3    H1 1572   6.971   3.978   0.249 -0.1873  0.1075 -0.0521
  536TIP3    H2 1573   6.932   3.908   0.377  0.1637 -0.0538 -0.0327
  537TIP3   OH2 1574   6.587   0.864   0.565 -0.2399  0.0276  0.1034
  537TIP3    H1 1575   6.641   0.944   0.561 -0.4478  0.1768  0.2772
  537TIP3    H2 1576   6.505   0.889   0.523 -0.4585  0.0243  0.5322
  538TIP3   OH2 1577   6.445   5.373   3.075 -0.5825 -0.4088 -0.3627
  538TIP3    H1 1578   6.462   5.303   3.012  0.3196 -0.0144 -0.5805
  538TIP3    H2 1579   6.531   5.389   3.116 -1.1805 -0.7760  1.0892
  539TIP3   OH2 1580   5.282   6.045   5.896  0.3764 -0.0970 -0.2372
  539TIP3    H1 1581   5.307   6.098   5.820  0.6332 -0.1428 -0.1865
  539TIP3    H2 1582   5.364   6.030   5.942  0.1842  0.1578  0.1992
  540TIP3   OH2 1583   4.041  -0.011   2.118 -0.1965 -0.2966  0.0791
  540TIP3    H1 1584   4.032   0.012   2.026  0.3570  0.4699  0.2149
  540TIP3    H2 1585   4.069   0.069   2.161 -2.9101  0.1141  1.3447
  541TIP3   OH2 1586   2.767   6.308   0.144  0.0356  0.4233  0.9079
  541TIP3    H1 1587   2.709   6.310   0.068 -1.2728 -1.3307  1.7875
  541TIP3    H2 1588   2.738   6.382   0.198 -2.9019 -1.5019  2.2731
  542TIP3   OH2 1589   5.081   4.283   3.442 -0.8993  0.7098  0.0130
  542TIP3    H1 1590   5.042   4.225   3.376 -0.2656  0.9841 -0.6223
  542TIP3    H2 1591   5.026   4.361   3.440 -1.1991  0.5073  0.1966
  543TIP3   OH2 1592   0.996   1.452   2.829  0.4777 -0.6626  0.0876
  543TIP3    H1 1593   1.029   1.535   2.864  0.8687 -0.2858 -1.1439
  543TIP3    H2 1594   0.923   1.477   2.773  1.3785 -1.0112 -1.2885
  544TIP3   OH2 1595   4.136   5.698   3.032  0.7159 -0.3360  0.6011
  544TIP3    H1 1596   4.104   5.757   3.101 -2.9121 -1.1700 -0.1304
  544TIP3    H2 1597   4.191   5.635   3.078  3.0211  2.2744  1.7230
  545TIP3   OH2 1598   3.940   0.450   2.705  0.1641  0.1787  0.4016
  545TIP3    H1 1599   3.852   0.468   2.673  0.6281  2.2290  0.1089
  545TIP3    H2 1600   3.945   0.496   2.789  1.0754  0.4228  0.2233
  546TIP3   OH2 1601   1.837   6.722   1.844  0.2218 -0.1437 -0.3401
  546TIP3    H1 1602   1.761   6.779   1.850  1.3414  1.3995 -0.2395
  546TIP3    H2 1603   1.880   6.748   1.762  0.7019 -0.9362 -0.3539
  547TIP3   OH2 1604   3.687   1.801   3.523  0.0827  0.4505 -0.0598
  547TIP3    H1 1605   3.724   1.827   3.607  0.3113  0.1058 -0.0527
  547TIP3    H2 1606   3.755   1.747   3.482 -0.5492 -0.5289  0.1320
  548TIP3   OH2 1607   5.796   0.756   2.221  0.2710  0.3144 -0.4347
  548TIP3    H1 1608   5.746   0.746   2.302  1.0274 -1.8036 -0.1472
  548TIP3    H2 1609   5.740   0.717   2.153  0.8447 -0.6226 -0.3864
  549TIP3   OH2 1610   0.182   4.106   2.755 -0.1581  0.0644 -0.4082
  549TIP3    H1 1611   0.122   4.049   2.706 -1.6775  2.2621 -1.2370
  549TIP3    H2 1612   0.225   4.158   2.688 -1.6652  2.5682  0.4460
  550TIP3   OH2 1613   4.850   6.080   5.038  0.8297 -0.2187 -0.2590
  550TIP3    H1 1614   4.792   6.051   4.968 -0.5681 -0.3429  0.9083
  550TIP3    H2 1615   4.806   6.054   5.119  3.1429 -1.5263  0.6861
  551TIP3   OH2 1616   1.836   0.118   1.484 -0.5583 -0.0738  0.2882
  551TIP3    H1 1617   1.868   0.176   1.414 -1.0184  1.6821  1.4496
  551TIP3    H2 1618   1.915   0.082   1.523 -0.2509 -0.1652 -0.4031
  552TIP3   OH2 1619   0.113   1.587   3.262  0.4264  0.3885  0.0821
  552TIP3    H1 1620   0.105   1.681   3.276 -0.4756  0.5773 -1.4632
  552TIP3    H2 1621   0.196   1.577   3.217  0.7879  0.3630  0.7357
  553TIP3   OH2 1622   0.658   3.312   4.546 -0.0728 -0.3193 -0.3194
  553TIP3    H1 1623   0.600   3.254   4.497  1.0989  0.0193 -2.2358
  553TIP3    H2 1624   0.742   3.304   4.501  1.1328 -0.0562  1.7591
  554TIP3   OH2 1625   0.131   6.791   4.143 -0.4193  0.5578 -0.5456
  554TIP3    H1 1626   0.181   6.724   4.190 -0.1317  1.4150  0.3930
  554TIP3    H2 1627   0.043   6.784   4.180 -1.0772 -0.9954 -2.2443
  555TIP3   OH2 1628   0.744   5.845   5.062  0.0808  0.1228  0.1437
  555TIP3    H1 1629   0.746   5.796   5.144 -0.3605 -1.0413 -0.5236
  555TIP3    H2 1630   0.832   5.833   5.025 -0.2525 -0.8061 -0.3729
  556TIP3   OH2 1631   3.118   5.883   5.743 -0.1957  0.1041 -0.2874
  556TIP3    H1 1632   3.031   5.871   5.704 -0.4168  1.7610 -0.3797
  556TIP3    H2 1633   3.147   5.794   5.766 -1.5958 -0.5416 -0.9215
  557TIP3   OH2 1634   2.525   0.522   3.356  0.0046 -0.7189 -0.7042
  557TIP3    H1 1635   2.449   0.534   3.300  0.3823 -0.0436 -1.0988
  557TIP3    H2 1636   2.592   0.486   3.298  0.7666  1.0702 -1.0313
  558TIP3   OH2 1637   1.204   1.243   3.097  0.2351  0.4611  0.0683
  558TIP3    H1 1638   1.252   1.208   3.173 -0.3792 -0.5215  0.0266
  558TIP3    H2 1639   1.249   1.324   3.075  2.5369 -0.8953 -0.5801
  559TIP3   OH2 1640   3.805   5.603   0.888  0.0158  0.2262 -0.6405
  559TIP3    H1 1641   3.885   5.612   0.940  0.4442 -1.3503 -0.9764
  559TIP3    H2 1642   3.826   5.641   0.803 -0.0566  1.0550 -0.2980
  560TIP3   OH2 1643   4.722   1.321   0.231 -0.1086 -0.5226 -0.5481
  560TIP3    H1 1644   4.634   1.327   0.194  0.4216 -0.7951 -1.8962
  560TIP3    H2 1645   4.776   1.378   0.175  0.3985  0.4319  0.8587
  561TIP3   OH2 1646   0.606   0.137   2.610  0.1369  0.6164 -0.0375
  561TIP3    H1 1647   0.638   0.218   2.571  0.1518  0.9549  0.6715
  561TIP3    H2 1648   0.642   0.068   2.554  0.4614  1.0782 -0.4060
  562TIP3   OH2 1649   3.789   6.532   4.284  0.2569 -0.4186 -0.4270
  562TIP3    H1 1650   3.867   6.520   4.231  0.5448  0.8776 -0.3236
  562TIP3    H2 1651   3.804   6.480   4.362  0.4954 -1.1070 -0.9215
  563TIP3   OH2 1652   4.025   0.245   1.105 -1.0014 -0.6605 -0.2099
  563TIP3    H1 1653   4.120   0.233   1.109 -1.0353 -0.5604  1.4616
  563TIP3    H2 1654   3.996   0.239   1.196 -2.8043 -2.2271 -0.8166
  564TIP3   OH2 1655   4.618   2.681   4.765  0.8921 -0.0115  0.2758
  564TIP3    H1 1656   4.546   2.622   4.743 -0.5332  2.0493 -0.8589
  564TIP3    H2 1657   4.613   2.751   4.700  3.2668  0.7536  0.8341
  565TIP3   OH2 1658   4.208   3.724   5.696  0.3347 -0.0930 -0.0067
  565TIP3    H1 1659   4.222   3.685   5.610 -0.0082 -1.6328  0.6024
  565TIP3    H2 1660   4.295   3.749   5.726  0.3250  1.8506 -1.3758
  566TIP3   OH2 1661   1.829   5.074   1.380  0.2513 -0.1022 -0.1032
  566TIP3    H1 1662   1.796   4.987   1.400  1.8026 -0.4468  1.0992
  566TIP3    H2 1663   1.909   5.059   1.330  1.4422  0.5601  1.5212
  567TIP3   OH2 1664   1.740   5.018   0.959 -0.1456 -0.1730 -0.3464
  567TIP3    H1 1665   1.685   5.023   1.037 -1.2034 -1.8845 -0.9286
  567TIP3    H2 1666   1.678   5.007   0.887  0.8431  0.6812 -1.3744
  568TIP3   OH2 1667   2.745   2.928   2.343 -0.4910  0.0259  0.6262
  568TIP3    H1 1668   2.776   2.869   2.412  0.1878 -1.7153 -1.0733
  568TIP3    H2 1669   2.701   2.999   2.390 -0.5042 -1.3349  2.8160
  569TIP3   OH2 1670   3.753   0.646   3.019  0.1069 -0.8697 -0.4389
  569TIP3    H1 1671   3.755   0.577   3.085 -0.2385 -0.4477  0.0211
  569TIP3    H2 1672   3.792   0.722   3.063 -0.3038 -0.5321 -0.6512
  570TIP3   OH2 1673   4.228   4.961   0.122 -0.5850 -0.5684 -0.2854
  570TIP3    H1 1674   4.151   4.913   0.090  1.0516 -2.5003 -1.5990
  570TIP3    H2 1675   4.266   5.001   0.043  0.2878 -0.4524  0.1837
  571TIP3   OH2 1676   0.162   1.933   0.680 -0.1058  0.5656 -0.2338
  571TIP3    H1 1677   0.188   2.017   0.718  1.2504 -0.0847  0.3421
  571TIP3    H2 1678   0.161   1.872   0.754 -2.0964  0.2584 -0.4626
  572TIP3   OH2 1679   2.777   4.130   1.987  0.0765  0.1052 -0.0370
  572TIP3    H1 1680   2.856   4.178   2.013 -1.0754  1.2512  1.4864
  572TIP3    H2 1681   2.810   4.051   1.943  2.0437  1.1121 -0.4711
  573TIP3   OH2 1682   0.368   0.676   0.723 -0.2240 -0.4793  0.2522
  573TIP3    H1 1683   0.431   0.743   0.698 -2.1891  0.6970 -2.0124
  573TIP3    H2 1684   0.412   0.593   0.704  1.7581  0.1393  1.8355
  574TIP3   OH2 1685   6.656   3.948   1.486 -0.4384 -0.3142 -0.4374
  574TIP3    H1 1686   6.586   4.007   1.514  0.2107  0.2942 -0.0612
  574TIP3    H2 1687   6.708   3.932   1.565  1.0570  0.9257 -1.0983
  575TIP3   OH2 1688   5.714   2.908   0.513 -0.2464  0.5846  0.3332
  575TIP3    H1 1689   5.647   2.908   0.445 -0.5063  2.1066  0.5401
  575TIP3    H2 1690   5.723   2.817   0.540 -0.1911 -0.0448 -1.6811
  576TIP3   OH2 1691   5.417   4.239   5.627 -0.2314  0.2528 -0.0579
  576TIP3    H1 1692   5.495   4.205   5.582  0.0474  0.7660  0.0280
  576TIP3    H2 1693   5.347   4.178   5.603  0.3527 -0.6677  0.4804
  577TIP3   OH2 1694   3.301   2.754   3.544  0.4520  0.0112  0.2023
  577TIP3    H1 1695   3.259   2.780   3.462  0.5155 -0.5597 -0.0102
  577TIP3    H2 1696   3.320   2.837   3.588 -0.2492  0.3004 -0.0234
  578TIP3   OH2 1697   5.756   1.907   3.510 -0.2982 -0.1389 -0.4284
  578TIP3    H1 1698   5.719   1.829   3.552 -2.9292 -0.2556 -2.6816
  578TIP3    H2 1699   5.762   1.883   3.417  0.9666  1.6256 -0.8438
  579TIP3   OH2 1700   3.383   4.834   0.554  0.1204 -0.0868 -0.9996
  579TIP3    H1 1701   3.305   4.831   0.499 -2.0177 -3.3374  1.7595
  579TIP3    H2 1702   3.442   4.769   0.515 -0.7137 -1.2065 -0.4823
  580TIP3   OH2 1703   5.430   4.627   2.924  0.2914 -0.3446 -0.2451
  580TIP3    H1 1704   5.347   4.645   2.880  0.1455 -0.3472  0.0233
  580TIP3    H2 1705   5.491   4.605   2.854  0.2189  0.2380 -0.4964
  581TIP3   OH2 1706   5.277   2.846   4.762 -0.2825 -0.4133  0.1509
  581TIP3    H1 1707   5.331   2.924   4.772 -1.6550  0.8408 -1.7209
  581TIP3    H2 1708   5.227   2.841   4.844  1.7294 -0.9589  1.4365
  582TIP3   OH2 1709   2.952   5.450   5.658  0.2032 -0.0069 -0.0864
  582TIP3    H1 1710   3.022   5.503   5.697 -0.4723  2.2089 -1.6797
  582TIP3    H2 1711   2.986   5.428   5.571 -0.1734 -0.9118 -0.0132
  583TIP3   OH2 1712   6.431   2.081   5.400  0.2445 -0.0881  0.2619
  583TIP3    H1 1713   6.433   2.076   5.496 -1.2007 -0.8650  0.2864
  583TIP3    H2 1714   6.407   2.172   5.381  0.3268  0.0150  0.6394
  584TIP3   OH2 1715   1.151   2.094   0.624  0.1142  0.2931 -0.9165
  584TIP3    H1 1716   1.115   2.097   0.535 -2.6359 -1.2248  0.0231
  584TIP3    H2 1717   1.140   2.003   0.651  0.9768  0.7034  0.9925
  585TIP3   OH2 1718   5.410   1.373   5.553  0.2227  0.2171  0.6862
  585TIP3    H1 1719   5.335   1.392   5.609  1.6191  0.3281  2.6063
  585TIP3    H2 1720   5.462   1.310   5.603 -0.9401 -3.9277 -2.6216
  586TIP3   OH2 1721   0.934   4.965   0.086 -0.2216 -0.4166  0.0052
  586TIP3    H1 1722   0.895   4.878   0.098  1.9547 -1.6107 -0.9072
  586TIP3    H2 1723   0.951   4.971  -0.008  0.1072  0.7916  0.1315
  587TIP3   OH2 1724   1.126   6.236   0.587 -0.2836  0.0395  0.1551
  587TIP3    H1 1725   1.109   6.276   0.502  0.0539  1.1168  0.5742
  587TIP3    H2 1726   1.043   6.241   0.634 -0.4185 -0.3798 -0.0320
  588TIP3   OH2 1727   6.111   2.606   3.058  0.5917 -0.3654  0.5157
  588TIP3    H1 1728   6.029   2.584   3.103  0.5272  1.2411  1.2760
  588TIP3    H2 1729   6.083   2.634   2.970  0.2688  0.4374  0.8596
  589TIP3   OH2 1730   1.451   5.772   5.549  0.4480  0.0461  0.3280
  589TIP3    H1 1731   1.410   5.755   5.634  0.6234  1.6993  0.7738
  589TIP3    H2 1732   1.486   5.860   5.556  0.8634  0.0523 -1.3268
  590TIP3   OH2 1733   6.789   4.872   4.209  0.0481  0.0214  0.0194
  590TIP3    H1 1734   6.868   4.873   4.264  0.2303  1.1912 -0.2397
  590TIP3    H2 1735   6.809   4.808   4.140  1.0351  0.7702 -0.4072
  591TIP3   OH2 1736   4.169   4.968   0.708  0.4581 -0.0140 -0.2508
  591TIP3    H1 1737   4.254   5.011   0.707 -0.2027  1.3122 -0.4095
  591TIP3    H2 1738   4.154   4.945   0.800  0.5019  0.7400 -0.0553
  592TIP3   OH2 1739   0.899   1.555   4.629 -0.0486 -0.2699  0.1684
  592TIP3    H1 1740   0.883   1.527   4.539 -1.1968 -0.6580  0.4845
  592TIP3    H2 1741   0.982   1.602   4.624  0.8685 -1.8843 -0.7563
  593TIP3   OH2 1742   4.362   0.852   4.338 -0.5183 -0.3975  0.2513
  593TIP3    H1 1743   4.289   0.839   4.399 -0.1149  0.6165  0.9764
  593TIP3    H2 1744   4.336   0.928   4.286 -0.6326 -0.9483 -0.5159
  594TIP3   OH2 1745   5.289   3.867   1.382 -0.2168 -0.0652  0.0075
  594TIP3    H1 1746   5.215   3.875   1.322 -0.6527  0.0013  0.5505
  594TIP3    H2 1747   5.250   3.870   1.469  0.5768  1.9054  0.3529
  595TIP3   OH2 1748   3.650   6.174   2.563 -0.1812  0.2076  0.1938
  595TIP3    H1 1749   3.713   6.104   2.545 -0.9470 -0.1372 -1.3786
  595TIP3    H2 1750   3.701   6.243   2.605  1.1503 -0.2680 -0.5835
  596TIP3   OH2 1751   2.031   6.532   4.691  0.1488 -0.2275 -0.1276
  596TIP3    H1 1752   2.028   6.438   4.669  1.7160 -0.1814 -0.6713
  596TIP3    H2 1753   2.108   6.565   4.644  0.1649  1.1416  0.8019
  597TIP3   OH2 1754   1.968   2.609   3.350  0.4336  0.0403  0.0005
  597TIP3    H1 1755   2.021   2.674   3.303  2.6075 -1.1064  0.7222
  597TIP3    H2 1756   1.943   2.653   3.431 -1.5861  1.3082 -1.2161
  598TIP3   OH2 1757   5.521   2.965   3.922  0.5053  0.1524 -0.0524
  598TIP3    H1 1758   5.439   2.954   3.873 -0.8501  2.2348  1.5654
  598TIP3    H2 1759   5.580   3.008   3.860 -0.3661  0.5849 -0.6084
  599TIP3   OH2 1760   2.930   0.685   0.135 -0.1253  0.0121  0.0000
  599TIP3    H1 1761   2.849   0.722   0.101 -0.0187 -0.8845 -1.3035
  599TIP3    H2 1762   2.977   0.760   0.172 -0.8518  0.8080 -0.6571
  600TIP3   OH2 1763   1.347   4.160   5.007  0.1173 -0.3569 -0.3545
  600TIP3    H1 1764   1.346   4.084   5.064 -0.8402 -0.5555 -0.6178
  600TIP3    H2 1765   1.260   4.162   4.967  0.2177  0.7170 -0.5625
  601TIP3   OH2 1766   4.885   4.289   2.819  0.3839  0.0185 -0.1910
  601TIP3    H1 1767   4.912   4.371   2.861 -0.2368 -0.4382  1.1374
  601TIP3    H2 1768   4.887   4.224   2.889 -1.1606 -0.6699 -0.7396
  602TIP3   OH2 1769   1.821   1.926   0.644  0.3313 -0.0439 -0.1033
  602TIP3    H1 1770   1.881   1.996   0.618  3.0137 -1.6051  1.4219
  602TIP3    H2 1771   1.754   1.969   0.697  0.0140  1.7724 -1.8576
  603TIP3   OH2 1772   3.155   1.262   4.432 -0.1304  0.4282 -0.3844
  603TIP3    H1 1773   3.086   1.224   4.487  0.2072 -1.1013 -0.9894
  603TIP3    H2 1774   3.118   1.345   4.402 -1.1006  0.3467  0.5165
  604TIP3   OH2 1775   1.056   2.324   3.122 -0.0689  0.2874  0.1762
  604TIP3    H1 1776   1.127   2.355   3.179 -0.0956 -0.7982  0.8227
  604TIP3    H2 1777   0.987   2.297   3.182 -0.5028  0.0938 -0.4066
  605TIP3   OH2 1778   4.989   2.807   4.344 -0.0835  0.4958  0.3082
  605TIP3    H1 1779   4.902   2.770   4.360 -0.2954  1.0592  0.4706
  605TIP3    H2 1780   4.980   2.860   4.266  0.2170  0.2275  0.0876
  606TIP3   OH2 1781   5.311   4.115   3.913  0.0984  0.3407 -0.6653
  606TIP3    H1 1782   5.253   4.182   3.949 -0.5836 -0.0531 -1.0148
  606TIP3    H2 1783   5.256   4.065   3.853  0.1604 -1.5595  0.7842
  607TIP3   OH2 1784   2.274   2.598   4.682  0.7063 -0.2453  0.3073
  607TIP3    H1 1785   2.362   2.635   4.681 -0.3130  3.0078  3.9662
  607TIP3    H2 1786   2.230   2.637   4.606  2.0865 -1.1905 -1.0297
  608TIP3   OH2 1787   7.015   0.368   0.354  0.0854 -0.4983  0.2437
  608TIP3    H1 1788   6.985   0.369   0.263  2.4510 -0.8675 -0.5912
  608TIP3    H2 1789   7.035   0.459   0.374  0.4498 -0.5378  0.0687
  609TIP3   OH2 1790   1.985   1.973   5.102 -0.3362  0.9247  0.8229
  609TIP3    H1 1791   1.953   2.007   5.186  0.1011  0.8640  1.0199
  609TIP3    H2 1792   1.918   1.997   5.039  0.2681  2.7713  0.8214
  610TIP3   OH2 1793   0.223   5.346   1.152 -0.2645 -0.4194 -0.0594
  610TIP3    H1 1794   0.229   5.429   1.199 -0.7704 -1.1929  1.4317
  610TIP3    H2 1795   0.152   5.298   1.196 -1.2896 -0.8924 -2.1148
  611TIP3   OH2 1796   5.577   3.172   3.060 -0.2107  0.4684 -0.0583
  611TIP3    H1 1797   5.653   3.135   3.015 -0.3789  1.8873 -1.6240
  611TIP3    H2 1798   5.506   3.164   2.996 -1.2337 -0.2133  1.1281
  612TIP3   OH2 1799   0.402   0.556   5.586  0.6399 -0.1493 -0.3977
  612TIP3    H1 1800   0.426   0.581   5.497  1.1893 -0.5546 -0.3658
  612TIP3    H2 1801   0.306   0.550   5.584  0.5660  0.9845 -0.6516
  613TIP3   OH2 1802   2.050   0.112   1.219 -0.3505 -0.0626 -0.0475
  613TIP3    H1 1803   2.064   0.193   1.170 -0.2964 -0.8684 -1.4159
  613TIP3    H2 1804   2.130   0.100   1.270  0.1072  0.1573 -0.7068
  614TIP3   OH2 1805   2.343   3.698   2.320  0.2741 -0.0062  0.4232
  614TIP3    H1 1806   2.366   3.633   2.386 -0.9230 -0.6161  0.2777
  614TIP3    H2 1807   2.419   3.755   2.314  0.5475 -0.1636  2.0462
  615TIP3   OH2 1808   6.122   2.891   1.975  0.1741 -0.0326 -0.2862
  615TIP3    H1 1809   6.162   2.950   1.912  0.4934 -0.6658 -0.6768
  615TIP3    H2 1810   6.173   2.811   1.969 -0.5591 -0.5191 -0.1068
  616TIP3   OH2 1811   0.665   5.287   1.823 -0.0259  0.0905  0.8389
  616TIP3    H1 1812   0.616   5.369   1.823  0.5626  0.4595  1.7858
  616TIP3    H2 1813   0.614   5.229   1.767 -0.7648  0.9136  0.6298
  617TIP3   OH2 1814   4.228   2.893   4.776  0.3404  0.8408  0.2465
  617TIP3    H1 1815   4.231   2.970   4.718  0.8025  1.4307  1.0289
  617TIP3    H2 1816   4.303   2.904   4.834 -0.6553  0.7918  1.6034
  618TIP3   OH2 1817   7.021   2.341   4.499  0.4469  0.1185 -0.4506
  618TIP3    H1 1818   7.024   2.437   4.501  1.0052  0.0935  0.0886
  618TIP3    H2 1819   7.101   2.316   4.453  1.2401 -0.1358  1.0168
  619TIP3   OH2 1820   6.544   6.412   3.039  0.1188 -0.1456  0.1562
  619TIP3    H1 1821   6.622   6.462   3.065 -1.2538  2.4499 -0.4164
  619TIP3    H2 1822   6.519   6.363   3.118  0.3042  1.7687  1.4634
  620TIP3   OH2 1823   4.304   5.091   1.033  0.1923  0.4467 -0.6175
  620TIP3    H1 1824   4.371   5.160   1.032  1.4096 -0.6996 -0.8843
  620TIP3    H2 1825   4.301   5.061   0.942  0.2328 -0.3628 -0.3544
  621TIP3   OH2 1826   3.257   0.454   1.471 -0.2779  0.1440  0.6906
  621TIP3    H1 1827   3.182   0.504   1.505 -0.3472 -0.0596  0.8351
  621TIP3    H2 1828   3.331   0.515   1.478 -0.4151  0.3224  0.6098
  622TIP3   OH2 1829   4.878   3.750   2.118  0.0446  0.4373 -0.1369
  622TIP3    H1 1830   4.791   3.731   2.155  0.2207  0.5925  0.3664
  622TIP3    H2 1831   4.938   3.743   2.193  0.3970  0.8282 -0.3770
  623TIP3   OH2 1832   3.747   2.507   2.108 -0.7706 -0.4389  0.2033
  623TIP3    H1 1833   3.795   2.509   2.191 -1.7523  0.8502  0.7539
  623TIP3    H2 1834   3.800   2.561   2.049 -0.3599 -0.9134  0.1230
  624TIP3   OH2 1835   0.393   4.119   5.388  0.4434  0.9246  0.1738
  624TIP3    H1 1836   0.304   4.140   5.360  0.0586 -1.9552 -1.1448
  624TIP3    H2 1837   0.391   4.128   5.484 -1.9456 -1.0870  0.4114
  625TIP3   OH2 1838   0.655   1.449   3.082  0.7539  0.2131 -0.4284
  625TIP3    H1 1839   0.703   1.379   3.037 -0.0459  0.0846 -1.0991
  625TIP3    H2 1840   0.723   1.512   3.107  1.2706  0.0514 -1.3847
  626TIP3   OH2 1841   4.197   5.410   5.391  0.0370 -0.4952 -0.7078
  626TIP3    H1 1842   4.186   5.505   5.397  0.2501 -0.5159  0.2881
  626TIP3    H2 1843   4.180   5.379   5.480 -0.8734 -1.4884 -1.2027
  627TIP3   OH2 1844   0.626   2.255   3.840 -0.0603  0.5714 -0.1531
  627TIP3    H1 1845   0.710   2.261   3.794  0.0424 -1.1769 -0.2465
  627TIP3    H2 1846   0.571   2.321   3.798  0.5084  0.0680 -1.7526
  628TIP3   OH2 1847   6.762   3.623   3.334 -0.4665 -0.1279  0.0489
  628TIP3    H1 1848   6.695   3.595   3.272 -0.0100 -1.6104  0.1810
  628TIP3    H2 1849   6.780   3.545   3.386  0.9906  0.3841  0.3575
  629TIP3   OH2 1850   7.130   6.412   3.143  0.1974 -0.6277  0.8103
  629TIP3    H1 1851   7.035   6.420   3.157 -0.0038 -0.6463 -0.4191
  629TIP3    H2 1852   7.169   6.465   3.213 -0.7668  0.3824  0.6081
  630TIP3   OH2 1853   0.682   1.614   1.759  0.3265 -0.5997  0.0396
  630TIP3    H1 1854   0.654   1.530   1.723  1.7190 -0.4742 -1.4631
  630TIP3    H2 1855   0.762   1.635   1.712 -0.9386  2.4622 -1.0224
  631TIP3   OH2 1856   5.261   2.354   4.915 -0.3408 -0.0944  0.2091
  631TIP3    H1 1857   5.221   2.346   4.828 -0.5504 -0.5760  0.3488
  631TIP3    H2 1858   5.199   2.408   4.965 -0.6413 -0.5384  0.3172
  632TIP3   OH2 1859   6.279   0.945   4.066  0.4421  0.4785 -0.0298
  632TIP3    H1 1860   6.347   0.933   4.000  0.6617 -0.0134  0.2750
  632TIP3    H2 1861   6.203   0.976   4.018 -0.3061 -2.4679 -0.9952
  633TIP3   OH2 1862   5.909   4.531   0.505  0.1006  0.0684 -0.5108
  633TIP3    H1 1863   5.821   4.495   0.493 -0.3775  1.1446 -0.3606
  633TIP3    H2 1864   5.963   4.455   0.530 -0.8163 -0.5713 -0.4308
  634TIP3   OH2 1865   0.338   6.283   2.044  0.2803  0.5545 -0.2209
  634TIP3    H1 1866   0.254   6.329   2.037  0.6179  1.8703  2.5846
  634TIP3    H2 1867   0.394   6.325   1.979 -0.8664  0.5208 -1.2669
  635TIP3   OH2 1868   6.786   6.257   4.147 -0.6602  0.3434 -0.0428
  635TIP3    H1 1869   6.858   6.224   4.201 -0.4465 -1.7970 -1.5153
  635TIP3    H2 1870   6.813   6.346   4.123 -0.1169  0.8252  2.1384
  636TIP3   OH2 1871   5.616   0.892   5.797  0.3098  0.6016  0.2637
  636TIP3    H1 1872   5.627   0.865   5.705  0.9350 -2.1406  1.0647
  636TIP3    H2 1873   5.689   0.851   5.843  0.4765  2.6160  1.9223
  637TIP3   OH2 1874   2.233   3.276   0.592  0.6130  0.1520 -0.2581
  637TIP3    H1 1875   2.322   3.249   0.612  1.4906  1.2370 -2.4514
  637TIP3    H2 1876   2.193   3.201   0.549  0.6758 -0.0812  0.0828
  638TIP3   OH2 1877   1.857   0.199   0.523 -0.3729 -0.2500 -0.4249
  638TIP3    H1 1878   1.765   0.221   0.535 -0.9099 -2.2157 -0.6698
  638TIP3    H2 1879   1.904   0.267   0.571 -1.9581  0.4208  0.2489
  639TIP3   OH2 1880   2.430   3.718   3.045 -0.2336  0.0649 -0.0869
  639TIP3    H1 1881   2.393   3.631   3.059  1.6437 -0.5381  1.7379
  639TIP3    H2 1882   2.405   3.741   2.956  0.4099 -2.9735 -1.1707
  640TIP3   OH2 1883   3.725   5.014   0.724  0.6829  0.0491 -0.6398
  640TIP3    H1 1884   3.691   5.086   0.669 -1.2000 -1.2880 -1.3363
  640TIP3    H2 1885   3.783   5.057   0.786  1.4861  1.8733 -2.5188
  641TIP3   OH2 1886   5.884   2.799   1.892  0.0961 -0.4489  0.2513
  641TIP3    H1 1887   5.969   2.817   1.932 -1.4224  0.3467  3.4318
  641TIP3    H2 1888   5.847   2.886   1.876 -0.5095 -0.7918 -0.2316
  642TIP3   OH2 1889   5.384   0.726   5.135 -0.1234 -0.8608  0.0408
  642TIP3    H1 1890   5.304   0.761   5.097  0.9251 -0.0267 -1.5200
  642TIP3    H2 1891   5.402   0.783   5.210 -0.6062 -0.6184 -0.0238
  643TIP3   OH2 1892   6.932   6.391   1.010 -0.3996 -0.1132 -0.0859
  643TIP3    H1 1893   7.002   6.349   1.060 -0.8433  1.1629  1.6941
  643TIP3    H2 1894   6.852   6.349   1.042 -0.4917 -1.7674 -2.3123
  644TIP3   OH2 1895   2.602   1.394   1.400 -0.1882  0.4676  0.6516
  644TIP3    H1 1896   2.651   1.322   1.360  0.2927  1.3380 -0.3468
  644TIP3    H2 1897   2.558   1.437   1.327  0.7363  2.1129  1.0161
  645TIP3   OH2 1898   1.828   4.950   2.120  0.2150 -0.3944  0.3038
  645TIP3    H1 1899   1.906   4.997   2.150 -0.3094  0.0806  0.9800
  645TIP3    H2 1900   1.784   5.011   2.061 -0.6387  0.1300  1.4390
  646TIP3   OH2 1901   6.680   4.422   4.648  0.2906 -0.0158  0.0656
  646TIP3    H1 1902   6.653   4.408   4.557 -1.7348  0.1690  0.6043
  646TIP3    H2 1903   6.608   4.388   4.700  0.5857  1.5683  1.5845
  647TIP3   OH2 1904   1.368   1.611   3.866  0.7877 -0.1375 -0.3676
  647TIP3    H1 1905   1.396   1.594   3.776 -0.5412 -1.1691 -0.6163
  647TIP3    H2 1906   1.398   1.535   3.916  2.2698  0.8183  0.2786
  648TIP3   OH2 1907   5.147   4.545   1.385 -0.3054  0.1753 -0.5979
  648TIP3    H1 1908   5.166   4.507   1.299 -0.4223 -0.6711 -0.2614
  648TIP3    H2 1909   5.101   4.627   1.366  0.8196  0.6515 -1.3616
  649TIP3   OH2 1910   5.974   0.017   0.055  0.1982 -0.6264  0.1775
  649TIP3    H1 1911   5.963   0.110   0.077  0.0472 -0.5150 -0.3503
  649TIP3    H2 1912   6.036  -0.016   0.120  0.9223  0.0511 -0.1441
  650TIP3   OH2 1913   7.092   6.445   4.622  0.5251 -0.2543  0.0958
  650TIP3    H1 1914   7.074   6.453   4.529  4.0236 -1.7522 -0.8647
  650TIP3    H2 1915   7.150   6.519   4.641 -0.5966  0.3646  1.2933
  651TIP3   OH2 1916   5.955   4.362   5.823 -0.0226 -0.5945 -0.0335
  651TIP3    H1 1917   5.959   4.360   5.919  1.1229  1.8339  0.0550
  651TIP3    H2 1918   5.861   4.360   5.803 -0.3146 -4.2149  0.8797
  652TIP3   OH2 1919   2.990   4.434   0.742 -0.5250  0.0938 -0.7204
  652TIP3    H1 1920   3.027   4.356   0.701 -0.0490 -0.4125  0.5959
  652TIP3    H2 1921   2.935   4.399   0.813  1.9719  0.9422  1.7876
  653TIP3   OH2 1922   6.264   4.655   1.696  0.1615  0.2016 -0.0423
  653TIP3    H1 1923   6.266   4.710   1.618 -0.5327  0.1463 -0.1049
  653TIP3    H2 1924   6.313   4.577   1.671 -1.2633 -0.4566 -0.9352
  654TIP3   OH2 1925   1.653   1.612   2.809 -0.3610 -0.1405  0.4298
  654TIP3    H1 1926   1.682   1.673   2.741  0.4785 -2.0962 -1.0557
  654TIP3    H2 1927   1.688   1.649   2.890 -0.5807  1.7523 -0.2653
  655TIP3   OH2 1928   1.184   1.685   4.228  0.3535  0.1392  0.0347
  655TIP3    H1 1929   1.244   1.641   4.289  0.6156  1.0783  0.4691
  655TIP3    H2 1930   1.102   1.694   4.276  0.1009 -0.4275 -0.2790
  656TIP3   OH2 1931   6.244   5.135   3.420  0.1364  0.1370 -0.3696
  656TIP3    H1 1932   6.150   5.154   3.425  0.2272  0.9487 -1.2557
  656TIP3    H2 1933   6.284   5.221   3.406  1.1055 -0.0781  0.9319
  657TIP3   OH2 1934   1.882   6.725   5.337  0.2330  0.1481  0.3150
  657TIP3    H1 1935   1.960   6.705   5.286 -0.1187  0.3388 -0.3051
  657TIP3    H2 1936   1.809   6.698   5.280 -0.1967  1.4083  0.2471
  658TIP3   OH2 1937   6.737   3.723   3.713 -0.5879 -0.1849  0.6523
  658TIP3    H1 1938   6.754   3.738   3.805 -1.3647  0.5068  0.6947
  658TIP3    H2 1939   6.643   3.704   3.709 -0.8576  1.2093 -0.1570
  659TIP3   OH2 1940   5.559   1.074   5.561 -0.6561 -0.2145  0.0849
  659TIP3    H1 1941   5.564   1.083   5.657  0.8524 -0.9826  0.1204
  659TIP3    H2 1942   5.649   1.087   5.532 -1.2090  0.6192 -1.3131
  660TIP3   OH2 1943   2.462   6.768   5.142  0.1200  0.1196  0.6540
  660TIP3    H1 1944   2.538   6.810   5.100  2.3425 -0.6178  3.5874
  660TIP3    H2 1945   2.430   6.706   5.077  3.0610 -0.6805 -0.1813
  661TIP3   OH2 1946   1.667   2.161   4.327  0.0170 -0.1313  0.0892
  661TIP3    H1 1947   1.648   2.087   4.269 -0.7784 -1.1033  1.5239
  661TIP3    H2 1948   1.646   2.128   4.415 -2.3662  2.4427  0.6056
  662TIP3   OH2 1949   6.805   3.101   3.091 -0.1364 -0.3970  0.2731
  662TIP3    H1 1950   6.786   3.177   3.036  0.6733 -1.4476 -1.5281
  662TIP3    H2 1951   6.738   3.105   3.160 -1.2185  0.9506 -0.7871
  663TIP3   OH2 1952   5.381   2.570   3.036 -0.4523  0.1872  0.1735
  663TIP3    H1 1953   5.295   2.578   2.994 -0.6877  1.6749  0.8795
  663TIP3    H2 1954   5.411   2.661   3.047  0.5493 -0.2550  1.2842
  664TIP3   OH2 1955   0.084   4.993   1.769  0.6407 -0.4399  0.2181
  664TIP3    H1 1956   0.120   4.941   1.697  0.7950  0.1684 -0.1592
  664TIP3    H2 1957   0.003   5.031   1.733 -0.7425 -2.2513  1.2408
  665TIP3   OH2 1958   2.885   1.998   5.637 -0.0662 -0.7681 -0.3011
  665TIP3    H1 1959   2.886   1.931   5.705 -0.9933 -0.6630 -0.1723
  665TIP3    H2 1960   2.932   1.959   5.563  2.0110 -0.4507  0.7714
  666TIP3   OH2 1961   4.809   3.806   3.662  0.0671  0.8790 -0.4130
  666TIP3    H1 1962   4.893   3.816   3.707  0.3365  0.8533 -0.8990
  666TIP3    H2 1963   4.787   3.714   3.673 -1.6819  1.5353  2.7816
  667TIP3   OH2 1964   3.485   5.213   5.291  0.1745  0.1863 -0.0453
  667TIP3    H1 1965   3.567   5.219   5.243 -0.3913  0.1326 -1.0441
  667TIP3    H2 1966   3.510   5.225   5.382  1.2955  0.1056 -0.3277
  668TIP3   OH2 1967   3.691   6.713   3.948 -0.2281 -0.6035  0.3105
  668TIP3    H1 1968   3.614   6.673   3.988 -0.0593 -1.3413 -0.0884
  668TIP3    H2 1969   3.661   6.799   3.920 -1.3929 -1.5007 -1.3592
  669TIP3   OH2 1970   4.208   5.920   1.823  0.4116  0.2048  0.4008
  669TIP3    H1 1971   4.205   5.974   1.745  0.9195  2.9064  2.1163
  669TIP3    H2 1972   4.116   5.908   1.848  0.2079 -1.2172 -0.8639
  670TIP3   OH2 1973   6.637   3.100   1.776 -0.1135  0.2766 -0.0599
  670TIP3    H1 1974   6.562   3.100   1.717 -0.2643  0.3915  0.1277
  670TIP3    H2 1975   6.694   3.031   1.743 -1.2523 -1.2330  0.9942
  671TIP3   OH2 1976   5.451   1.021   0.410 -0.2210 -0.0481 -0.2177
  671TIP3    H1 1977   5.520   0.961   0.383 -0.6926 -1.0181  0.6751
  671TIP3    H2 1978   5.489   1.108   0.398  1.6695 -0.5480  1.4578
  672TIP3   OH2 1979   1.300   2.847   1.050  0.2362 -0.4719 -0.3270
  672TIP3    H1 1980   1.204   2.844   1.043  0.0041  0.7779  1.6135
  672TIP3    H2 1981   1.322   2.766   1.096 -0.1555  0.2746  1.2351
  673TIP3   OH2 1982   5.069   4.535   2.633  0.4745  0.8145 -0.2303
  673TIP3    H1 1983   5.115   4.453   2.650 -1.4056 -0.3496 -0.5512
  673TIP3    H2 1984   5.129   4.603   2.664  2.5336 -0.5959 -0.9487
  674TIP3   OH2 1985   5.370   6.709   5.501  0.1273  0.5113 -0.5912
  674TIP3    H1 1986   5.421   6.760   5.564  1.2757  0.0518 -1.1295
  674TIP3    H2 1987   5.425   6.706   5.423 -0.1937 -1.0311 -0.7768
  675TIP3   OH2 1988   6.314   4.445   2.681  0.0733 -0.1788 -0.0935
  675TIP3    H1 1989   6.338   4.526   2.724  1.8100 -1.3998  1.3807
  675TIP3    H2 1990   6.219   4.438   2.693  0.0602  1.0934  0.6813
  676TIP3   OH2 1991   1.258   5.600   4.877  0.1878  0.3265 -0.1945
  676TIP3    H1 1992   1.242   5.560   4.962 -0.4519  0.1799 -0.3757
  676TIP3    H2 1993   1.291   5.529   4.823  0.3433  0.3584 -0.1411
  677TIP3   OH2 1994   1.347   6.709   1.029  0.5768 -0.3207 -0.4694
  677TIP3    H1 1995   1.275   6.665   0.985  0.0390 -1.9149  1.8258
  677TIP3    H2 1996   1.386   6.642   1.085  2.0691  1.2066  0.4382
  678TIP3   OH2 1997   3.772   2.826   1.744 -0.4114  0.3295  0.2132
  678TIP3    H1 1998   3.753   2.732   1.739  2.5994 -0.3915  0.8009
  678TIP3    H2 1999   3.716   2.858   1.815 -1.8035 -0.8888 -0.2869
  679TIP3   OH2 2000   2.258   1.063   3.490 -0.2264 -0.4089  0.1812
  679TIP3    H1 2001   2.244   0.995   3.424 -3.6813 -0.0181  0.3096
  679TIP3    H2 2002   2.256   1.016   3.574  0.5878 -0.4862  0.1648
  680TIP3   OH2 2003   2.955   2.028   2.174 -0.1741 -0.3154  0.0994
  680TIP3    H1 2004   2.905   1.966   2.227 -0.7230 -0.0812 -0.1395
  680TIP3    H2 2005   2.966   2.105   2.230  1.6841 -1.1005  0.9129
  681TIP3   OH2 2006   0.943   2.649   4.165  0.1710  0.3254  0.5266
  681TIP3    H1 2007   1.021   2.702   4.185 -0.1311  1.6757 -1.5456
  681TIP3    H2 2008   0.962   2.609   4.080 -0.3065 -1.6361  1.2745
  682TIP3   OH2 2009   4.217   6.107   2.799 -0.5664  0.4215 -0.2209
  682TIP3    H1 2010   4.230   6.197   2.831  0.4063  0.3762 -0.4710
  682TIP3    H2 2011   4.303   6.080   2.767 -0.3303 -1.3001  1.6179
  683TIP3   OH2 2012   4.014   5.872   5.844 -0.3195 -0.0621  0.2813
  683TIP3    H1 2013   3.966   5.954   5.830 -0.5997 -0.4310 -1.1290
  683TIP3    H2 2014   4.105   5.895   5.829 -0.2513  0.2400  1.1023
  684TIP3   OH2 2015   6.125   6.191   0.931  0.6470 -0.5046  0.2334
  684TIP3    H1 2016   6.094   6.150   0.850 -1.3041  0.2918  0.5154
  684TIP3    H2 2017   6.160   6.275   0.905 -2.6026  1.0604  0.3710
  685TIP3   OH2 2018   2.955   3.280   4.362 -0.0266  0.6626 -0.5319
  685TIP3    H1 2019   3.038   3.279   4.409 -0.4876 -0.4966  0.3104
  685TIP3    H2 2020   2.888   3.284   4.431 -0.6829  1.2490 -1.1854
  686TIP3   OH2 2021   0.949   1.952   1.644  0.4823  0.1531 -0.1383
  686TIP3    H1 2022   1.041   1.960   1.619  0.4600 -1.5585 -0.9543
  686TIP3    H2 2023   0.936   1.857   1.656 -1.0473  0.4072  0.4636
  687TIP3   OH2 2024   1.757   5.353   0.814  0.1355  0.4596 -0.3714
  687TIP3    H1 2025   1.683   5.341   0.873  0.4496  1.2234  0.2015
  687TIP3    H2 2026   1.730   5.423   0.755  0.8997  1.7379  0.7357
  688TIP3   OH2 2027   5.989   0.139   4.391  0.2103 -0.4465  0.6109
  688TIP3    H1 2028   5.897   0.144   4.418 -0.1920 -1.6280 -0.4067
  688TIP3    H2 2029   6.039   0.159   4.470 -0.9050  1.8002  0.8094
  689TIP3   OH2 2030   3.694   4.135   1.963 -0.0843 -0.3831 -0.2807
  689TIP3    H1 2031   3.693   4.062   2.025  1.5132 -0.8635 -0.7747
  689TIP3    H2 2032   3.704   4.094   1.877  3.0370  0.3834 -0.4183
  690TIP3   OH2 2033   6.251   2.148   1.871  0.4569  0.4626 -0.7557
  690TIP3    H1 2034   6.208   2.110   1.948 -1.8361  2.9931 -0.6451
  690TIP3    H2 2035   6.201   2.114   1.797  0.8746  0.2649 -0.9530
  691TIP3   OH2 2036   3.375   1.236   0.038 -0.1456 -0.4151  0.2877
  691TIP3    H1 2037   3.387   1.243   0.133 -1.6271 -1.0173  0.5532
  691TIP3    H2 2038   3.292   1.189   0.028 -0.3389  0.1966 -1.3098
  692TIP3   OH2 2039   3.041   6.122   5.872  0.3636  0.1568  0.4105
  692TIP3    H1 2040   3.086   6.047   5.833  0.2628  0.5044 -0.3907
  692TIP3    H2 2041   3.091   6.140   5.952  0.2357 -0.9146  0.7488
  693TIP3   OH2 2042   0.437   3.431   3.667 -0.1432 -0.1448  0.4445
  693TIP3    H1 2043   0.386   3.510   3.648  0.9897  0.8526  1.4108
  693TIP3    H2 2044   0.518   3.463   3.704  0.2212 -1.7966  1.1647
  694TIP3   OH2 2045   4.530   0.591   0.944 -0.6853 -0.1288  0.1165
  694TIP3    H1 2046   4.626   0.593   0.949 -0.7102  0.0809  0.6025
  694TIP3    H2 2047   4.510   0.622   0.856 -0.2408 -2.6412 -0.9296
  695TIP3   OH2 2048   7.040   2.073   4.135 -0.1590 -0.3040 -0.0596
  695TIP3    H1 2049   7.097   2.000   4.157  0.1431  0.2074  0.9498
  695TIP3    H2 2050   7.100   2.144   4.113 -0.4521 -0.6894 -2.2932
  696TIP3   OH2 2051   6.299   4.682   3.850  0.0225  0.5672  0.4094
  696TIP3    H1 2052   6.375   4.627   3.832 -0.6197  0.3052 -1.7589
  696TIP3    H2 2053   6.272   4.657   3.939  1.6738 -0.2454  0.7215
  697TIP3   OH2 2054   3.463   2.450   3.395  0.4382 -0.7217  0.1544
  697TIP3    H1 2055   3.423   2.363   3.395  1.6735 -1.3243 -0.8157
  697TIP3    H2 2056   3.462   2.477   3.486  0.6678 -2.0606  0.5739
  698TIP3   OH2 2057   6.122   0.022   0.928  0.4444 -0.1629  0.1129
  698TIP3    H1 2058   6.157   0.103   0.892 -0.4809 -0.4563 -1.5615
  698TIP3    H2 2059   6.140  -0.044   0.861  0.4394 -1.1750  1.0792
  699TIP3   OH2 2060   4.773   2.642   0.632 -0.3782  0.4456  0.1765
  699TIP3    H1 2061   4.789   2.711   0.568 -0.0452  0.2848  0.0856
  699TIP3    H2 2062   4.857   2.598   0.642 -0.6189 -0.0253  0.1482
  700TIP3   OH2 2063   1.787   0.088   1.055  0.1218 -0.5256  0.6963
  700TIP3    H1 2064   1.851   0.130   1.112 -0.3231 -1.0373  1.5811
  700TIP3    H2 2065   1.702   0.113   1.091 -0.3378  2.0846 -1.7903
  701TIP3   OH2 2066   2.991   2.373   0.264 -0.2793  0.1494 -0.6778
  701TIP3    H1 2067   3.018   2.346   0.177 -1.4243 -0.7214 -0.7917
  701TIP3    H2 2068   2.910   2.325   0.280  0.3457 -0.3598  1.2087
  702TIP3   OH2 2069   5.967   2.364   2.213 -0.5267  0.1761 -0.0835
  702TIP3    H1 2070   5.963   2.349   2.119 -0.5829 -0.1868 -0.0257
  702TIP3    H2 2071   5.997   2.455   2.222  1.1774 -0.3060 -0.4537
  703TIP3   OH2 2072   1.457   3.970   1.215 -0.0181 -0.2212  0.3872
  703TIP3    H1 2073   1.506   3.889   1.203  1.4844  0.5753  0.7638
  703TIP3    H2 2074   1.521   4.039   1.195 -1.9321  0.9176 -2.6153
  704TIP3   OH2 2075   7.048   1.161   0.392 -0.2121  0.0756  0.2815
  704TIP3    H1 2076   7.017   1.249   0.371 -2.3427 -0.4923  0.8442
  704TIP3    H2 2077   7.109   1.175   0.465 -0.8171  1.0405  0.6250
  705TIP3   OH2 2078   4.146   0.377   1.832  0.1595  0.0512  0.4002
  705TIP3    H1 2079   4.172   0.467   1.853  1.0534  0.0682 -0.6951
  705TIP3    H2 2080   4.147   0.373   1.736  0.6197 -1.2649  0.4380
  706TIP3   OH2 2081   6.373   4.927   2.284  0.1546  0.4325  0.3422
  706TIP3    H1 2082   6.459   4.951   2.318  0.5779 -0.0968 -0.3385
  706TIP3    H2 2083   6.353   4.843   2.325 -0.3085  0.8347  0.9565
  707TIP3   OH2 2084   2.253   6.180   1.282  0.3248  0.2773  0.0564
  707TIP3    H1 2085   2.236   6.211   1.371  0.5601  0.4941  0.0247
  707TIP3    H2 2086   2.169   6.193   1.236  0.0991 -0.1592  0.3358
  708TIP3   OH2 2087   2.808   0.816   4.364 -0.5441  0.6604  0.1041
  708TIP3    H1 2088   2.812   0.773   4.278  0.5070 -1.1294  0.9918
  708TIP3    H2 2089   2.719   0.799   4.396 -1.2161  2.0354 -0.9231
  709TIP3   OH2 2090   2.870   6.714   5.492 -0.0795 -0.3705 -0.0659
  709TIP3    H1 2091   2.922   6.792   5.514 -1.0485  0.4871 -0.7617
  709TIP3    H2 2092   2.927   6.640   5.517  1.5725  0.5234 -0.9932
  710TIP3   OH2 2093   4.770   0.982   0.258 -0.2538  0.5419  0.2027
  710TIP3    H1 2094   4.681   1.003   0.288  0.0753  0.7114  1.0958
  710TIP3    H2 2095   4.827   1.021   0.324  0.5854  2.3848 -1.5018
  711TIP3   OH2 2096   5.955   3.059   5.371  0.0277  0.1861 -0.0986
  711TIP3    H1 2097   5.877   3.086   5.418  0.6999  0.2777  0.9864
  711TIP3    H2 2098   6.016   3.132   5.380  0.2724  0.0875 -0.8697
  712TIP3   OH2 2099   5.107   6.175   2.319  0.2487 -0.5583 -0.3348
  712TIP3    H1 2100   5.148   6.242   2.373  0.5742  0.1860 -1.4564
  712TIP3    H2 2101   5.107   6.212   2.231 -0.8832 -1.4480 -0.7334
  713TIP3   OH2 2102   4.215   2.524   2.931  0.2177  0.3243 -0.2031
  713TIP3    H1 2103   4.237   2.490   2.844  0.3360 -1.5360  0.5164
  713TIP3    H2 2104   4.299   2.551   2.968  0.2438  0.5472 -0.4186
  714TIP3   OH2 2105   6.183   3.750   4.420 -0.3440  0.1958 -0.2812
  714TIP3    H1 2106   6.262   3.742   4.366 -0.1048  0.9135 -0.0496
  714TIP3    H2 2107   6.215   3.744   4.510 -0.5029  0.8357 -0.1781
  715TIP3   OH2 2108   4.454   2.131   1.621  0.5006 -0.2302  0.4457
  715TIP3    H1 2109   4.511   2.072   1.572  1.0097  1.0847 -0.6065
  715TIP3    H2 2110   4.508   2.209   1.638 -0.8404  0.9300 -0.3397
  716TIP3   OH2 2111   0.633   4.221   1.430 -0.1238  0.4506 -0.5736
  716TIP3    H1 2112   0.646   4.130   1.405  2.8914  0.8766 -1.0305
  716TIP3    H2 2113   0.574   4.257   1.365 -3.1244 -1.5864  0.8140
  717TIP3   OH2 2114   0.519   1.280   3.317  0.0632 -0.0242  0.2658
  717TIP3    H1 2115   0.543   1.344   3.383  1.3263 -0.1358 -0.0612
  717TIP3    H2 2116   0.541   1.321   3.233 -0.7828 -0.1910 -0.0514
  718TIP3   OH2 2117   1.241   4.738   1.449  0.0240  0.1420  0.8033
  718TIP3    H1 2118   1.219   4.831   1.446 -1.6047 -0.2261  0.2883
  718TIP3    H2 2119   1.160   4.693   1.424  1.2722 -1.3574 -0.8096
  719TIP3   OH2 2120   0.324   0.818   3.165 -0.0748  0.4314 -0.5830
  719TIP3    H1 2121   0.248   0.790   3.215  0.2413  0.9744  0.2161
  719TIP3    H2 2122   0.354   0.897   3.209  1.2584 -0.0516 -0.5783
  720TIP3   OH2 2123   5.388   4.324   5.314 -0.3136 -0.0220 -0.0529
  720TIP3    H1 2124   5.408   4.411   5.281 -1.2891 -0.4613 -2.0004
  720TIP3    H2 2125   5.350   4.338   5.400  0.3557  1.4010  0.0290
  721TIP3   OH2 2126   0.488   2.764   3.997  0.2050  0.0436 -0.3762
  721TIP3    H1 2127   0.431   2.690   3.974  1.7265 -1.1631 -0.3995
  721TIP3    H2 2128   0.572   2.743   3.958  1.0545  1.1357  0.7709
  722TIP3   OH2 2129   5.900   5.592   0.811 -0.1961 -0.3191  0.6113
  722TIP3    H1 2130   5.936   5.680   0.801  0.1479 -0.1218  3.0250
  722TIP3    H2 2131   5.973   5.540   0.844 -0.5627 -1.3935 -0.2093
  723TIP3   OH2 2132   0.322   5.225   4.487 -0.0323  0.4387  0.0381
  723TIP3    H1 2133   0.328   5.299   4.426 -0.9114  0.4531 -0.0426
  723TIP3    H2 2134   0.310   5.148   4.431  0.5060  0.2700  0.1418
  724TIP3   OH2 2135   6.487   5.338   1.952  0.0128 -0.3470  0.6611
  724TIP3    H1 2136   6.398   5.370   1.969  0.5813  0.2286  2.7625
  724TIP3    H2 2137   6.509   5.286   2.028  1.7667  0.1359  0.5225
  725TIP3   OH2 2138   4.514   6.437   4.705 -0.4148  0.6164 -0.0961
  725TIP3    H1 2139   4.458   6.451   4.781  0.1832  0.5477  0.3626
  725TIP3    H2 2140   4.496   6.347   4.679 -2.1587  1.2687 -1.3235
  726TIP3   OH2 2141   2.118   0.693   3.669  0.1266  0.5501  0.5902
  726TIP3    H1 2142   2.137   0.635   3.595  0.4325 -0.7070  1.6159
  726TIP3    H2 2143   2.064   0.763   3.632  1.1326  0.5280 -1.0243
  727TIP3   OH2 2144   6.966   5.071   4.539 -0.5434  0.5369  0.0698
  727TIP3    H1 2145   6.998   5.043   4.625  0.4198  2.9360  0.5862
  727TIP3    H2 2146   6.983   4.997   4.481  0.2929 -0.5300  1.6204
  728TIP3   OH2 2147   1.046   0.467   5.425 -0.6033  0.4030 -0.4236
  728TIP3    H1 2148   1.110   0.500   5.488 -2.0813  0.3986  1.1382
  728TIP3    H2 2149   0.976   0.533   5.424 -1.5379 -0.5597 -0.5450
  729TIP3   OH2 2150   2.214   2.129   1.383  0.2120  0.3572 -0.4900
  729TIP3    H1 2151   2.255   2.195   1.439 -0.6333  1.0317 -0.6537
  729TIP3    H2 2152   2.128   2.114   1.423 -0.9677  1.8431 -2.3352
  730TIP3   OH2 2153   2.901   4.005   0.132  0.0899 -0.5412 -0.1943
  730TIP3    H1 2154   2.920   3.974   0.221  1.1813  0.8886  0.0991
  730TIP3    H2 2155   2.817   4.050   0.140  0.1415 -0.4914  0.0960
  731TIP3   OH2 2156   2.128   2.808   3.248 -0.1524 -0.1176  0.7597
  731TIP3    H1 2157   2.158   2.844   3.332  2.0048  0.3204 -0.1199
  731TIP3    H2 2158   2.182   2.853   3.183 -1.3612 -0.8794 -0.8292
  732TIP3   OH2 2159   1.981   2.577   1.233 -0.3423 -0.5772  0.2082
  732TIP3    H1 2160   1.895   2.540   1.251 -0.4449 -1.0242 -1.1341
  732TIP3    H2 2161   1.981   2.662   1.278 -1.6824 -0.3228 -0.2540
  733TIP3   OH2 2162   1.245   5.102   5.168  0.1280 -0.7591 -0.1300
  733TIP3    H1 2163   1.234   5.180   5.223  2.0490 -1.8917  2.0289
  733TIP3    H2 2164   1.199   5.033   5.216 -3.0200 -0.7731 -2.8363
  734TIP3   OH2 2165   1.402   0.814   5.747 -0.5575 -0.4771  0.2556
  734TIP3    H1 2166   1.480   0.759   5.749 -0.6482 -0.5841  1.2327
  734TIP3    H2 2167   1.406   0.858   5.662 -0.6896 -2.2688 -0.7326
  735TIP3   OH2 2168   2.610   3.133   1.322 -0.4257 -0.2905  0.0549
  735TIP3    H1 2169   2.620   3.167   1.233 -0.8987 -0.1262  0.0596
  735TIP3    H2 2170   2.687   3.165   1.368 -0.9017  0.8764  0.0796
  736TIP3   OH2 2171   2.927   0.830   0.561 -0.1843  0.0828 -0.1886
  736TIP3    H1 2172   2.855   0.779   0.599 -0.5175 -0.2419 -1.2004
  736TIP3    H2 2173   3.004   0.774   0.572 -0.3987 -0.2981 -0.5552
  737TIP3   OH2 2174   6.233   3.840   4.969 -0.6050 -0.0416  0.1246
  737TIP3    H1 2175   6.291   3.766   4.984 -1.1213 -0.6851 -0.9729
  737TIP3    H2 2176   6.193   3.857   5.055  0.8874  0.1659  0.8065
  738TIP3   OH2 2177   4.250   4.355   3.801 -0.1700  0.2864 -0.3317
  738TIP3    H1 2178   4.311   4.387   3.735  2.5481 -1.4583  1.1473
  738TIP3    H2 2179   4.234   4.431   3.858 -1.8504  1.5563 -2.3170
  739TIP3   OH2 2180   7.194   2.686   4.044  0.2531 -0.5508 -0.0052
  739TIP3    H1 2181   7.228   2.655   3.960 -1.2620 -0.4897 -0.6666
  739TIP3    H2 2182   7.194   2.782   4.036 -1.4272 -0.5729 -0.6019
  740TIP3   OH2 2183   1.827   2.373   0.920 -0.3231 -0.6271 -0.1206
  740TIP3    H1 2184   1.840   2.417   0.835 -0.3266  0.0291  0.2124
  740TIP3    H2 2185   1.888   2.416   0.979  0.2923 -1.6668  0.0224
  741TIP3   OH2 2186   6.981   1.009   2.767  0.3974  0.2211 -0.9171
  741TIP3    H1 2187   6.935   1.090   2.746  0.5527  0.4680 -0.3191
  741TIP3    H2 2188   7.074   1.033   2.763  0.5013 -0.2889 -2.1861
  742TIP3   OH2 2189   4.090   5.891   2.229 -0.3514 -0.0554  0.4279
  742TIP3    H1 2190   4.093   5.800   2.197 -1.4010  0.2378 -0.5744
  742TIP3    H2 2191   4.154   5.893   2.300  0.0420 -1.4612  0.1576
  743TIP3   OH2 2192   0.364   5.623   0.514  0.5026 -0.2677 -0.3393
  743TIP3    H1 2193   0.420   5.548   0.536 -0.8819 -0.7869  1.6792
  743TIP3    H2 2194   0.344   5.664   0.598  2.3445  3.3287 -1.4601
  744TIP3   OH2 2195   5.249   2.014   0.366 -0.5872 -0.2418  0.0513
  744TIP3    H1 2196   5.184   2.082   0.345 -0.7151 -0.9718 -2.2353
  744TIP3    H2 2197   5.197   1.943   0.404 -1.2114 -0.8333 -1.7906
  745TIP3   OH2 2198   1.177   1.155   4.718 -0.1108 -0.3589 -0.1806
  745TIP3    H1 2199   1.236   1.227   4.699 -1.7480  1.0245 -0.2797
  745TIP3    H2 2200   1.137   1.178   4.802 -1.0818 -0.8380 -0.4896
  746TIP3   OH2 2201   0.968   1.178   1.987  0.0250  0.2226 -0.3220
  746TIP3    H1 2202   1.006   1.182   1.900  0.0286 -0.1163 -0.3342
  746TIP3    H2 2203   0.905   1.251   1.989  2.7031  2.6902  0.6920
  747TIP3   OH2 2204   4.537   3.697   2.935 -0.1496  0.7692 -0.1967
  747TIP3    H1 2205   4.525   3.610   2.973  0.9232  1.1573  1.1416
  747TIP3    H2 2206   4.449   3.736   2.934 -0.8347 -0.6865 -1.8539
  748TIP3   OH2 2207   2.351   6.099   4.198  0.1569 -0.4738 -0.1330
  748TIP3    H1 2208   2.303   6.059   4.126  0.1935  0.1602 -0.5140
  748TIP3    H2 2209   2.418   6.153   4.156  0.1569 -0.0697  0.3706
  749TIP3   OH2 2210   3.270   1.415   1.039 -0.3949  0.0939  0.4063
  749TIP3    H1 2211   3.250   1.328   1.074 -0.9904 -0.1555 -0.5089
  749TIP3    H2 2212   3.329   1.454   1.103 -0.0384 -1.0260  0.7794
  750TIP3   OH2 2213   5.533   2.645   3.594 -0.0366 -0.1372  0.5381
  750TIP3    H1 2214   5.550   2.551   3.593  0.3670 -0.0589  0.0806
  750TIP3    H2 2215   5.619   2.685   3.607  0.1012  0.2352 -1.3283
  751TIP3   OH2 2216   0.035   6.477   5.396 -0.3885 -0.4564  0.7125
  751TIP3    H1 2217  -0.003   6.537   5.332 -0.0208 -0.4257  0.5199
  751TIP3    H2 2218   0.096   6.531   5.446 -0.6743 -0.4802  1.0936
  752TIP3   OH2 2219   3.114   4.424   2.811  0.4637 -0.2141 -0.1249
  752TIP3    H1 2220   3.035   4.472   2.787 -0.9051 -2.3787 -0.3059
  752TIP3    H2 2221   3.096   4.388   2.897  1.0171 -1.1697 -0.3842
  753TIP3   OH2 2222   0.258   4.400   3.341 -0.1315 -0.2791 -0.6555
  753TIP3    H1 2223   0.242   4.427   3.251  3.4593 -0.2191 -1.4094
  753TIP3    H2 2224   0.237   4.307   3.343  1.4819 -0.7211 -2.1333
  754TIP3   OH2 2225   2.407   4.582   5.685  1.0462 -0.3577 -0.5063
  754TIP3    H1 2226   2.502   4.587   5.678  1.0631 -0.4395 -0.3411
  754TIP3    H2 2227   2.390   4.597   5.778  0.8792 -0.0441 -0.5852
  755TIP3   OH2 2228   5.597   6.070   3.948  0.5228 -0.8142 -0.2449
  755TIP3    H1 2229   5.561   6.026   4.025  2.0900 -0.4872  0.7194
  755TIP3    H2 2230   5.542   6.039   3.875 -1.1740 -0.9139  1.0117
  756TIP3   OH2 2231   3.433   1.283   3.027 -0.2062  0.2705 -0.2430
  756TIP3    H1 2232   3.525   1.298   3.050  0.5392 -4.1730  0.6229
  756TIP3    H2 2233   3.393   1.252   3.109 -1.3916 -1.6974 -1.4911
  757TIP3   OH2 2234   2.570   6.056   1.471  0.3132  0.2888 -0.2496
  757TIP3    H1 2235   2.530   6.036   1.386 -0.7859  1.9385 -0.1617
  757TIP3    H2 2236   2.661   6.026   1.462  0.0556 -0.1336 -1.7797
  758TIP3   OH2 2237   5.884   5.369   0.071  0.1299 -0.0117  0.4004
  758TIP3    H1 2238   5.927   5.314   0.137 -0.5091  0.4801  1.2471
  758TIP3    H2 2239   5.896   5.458   0.102 -1.7646  0.1360  0.8505
  759TIP3   OH2 2240   6.156   4.603   4.110 -0.2245  0.1661 -0.2844
  759TIP3    H1 2241   6.155   4.538   4.180 -1.0662  0.0444 -0.4014
  759TIP3    H2 2242   6.091   4.573   4.048 -0.6569  1.1340 -0.3279
  760TIP3   OH2 2243   6.520   5.364   3.610  0.0292 -0.2674  0.3386
  760TIP3    H1 2244   6.499   5.328   3.524 -1.0921  0.9168  0.0779
  760TIP3    H2 2245   6.436   5.363   3.657 -0.6844  3.9109 -0.4470
  761TIP3   OH2 2246   3.130   2.099   3.719  0.1646  0.4468 -0.3363
  761TIP3    H1 2247   3.063   2.034   3.697 -1.0550  2.3255 -2.6115
  761TIP3    H2 2248   3.197   2.050   3.765 -2.3976 -1.7031  1.4127
  762TIP3   OH2 2249   6.798   5.670   1.783  0.3373 -0.2431  0.2729
  762TIP3    H1 2250   6.772   5.761   1.795 -0.0543 -0.4010  0.6452
  762TIP3    H2 2251   6.763   5.625   1.860  0.6639 -0.6784  0.1678
  763TIP3   OH2 2252   2.934   1.718   2.484 -0.2959 -0.3489  0.7834
  763TIP3    H1 2253   3.007   1.660   2.505 -1.6009 -2.5846 -0.5148
  763TIP3    H2 2254   2.890   1.676   2.410 -0.1909  3.3053 -1.6593
  764TIP3   OH2 2255   4.215   5.639   2.657 -0.1276  0.1030  0.6114
  764TIP3    H1 2256   4.123   5.660   2.671 -0.4547 -0.9028  0.0715
  764TIP3    H2 2257   4.262   5.693   2.721 -1.0371  1.0686  0.4919
  765TIP3   OH2 2258   0.973   6.830   2.135 -0.0770  0.0827 -0.5067
  765TIP3    H1 2259   0.980   6.738   2.113  2.2155 -0.4595  1.8913
  765TIP3    H2 2260   0.889   6.839   2.179  0.3222 -1.2480  0.5790
  766TIP3   OH2 2261   0.604   3.566   5.371 -0.1129 -0.3166  0.2703
  766TIP3    H1 2262   0.530   3.515   5.338 -0.4311  1.4730 -2.0764
  766TIP3    H2 2263   0.681   3.518   5.342 -0.4077  0.4515 -1.9770
  767TIP3   OH2 2264   2.407   1.754   2.452 -0.3269 -0.3448 -0.3999
  767TIP3    H1 2265   2.426   1.661   2.437 -1.3742 -1.0075  1.8367
  767TIP3    H2 2266   2.470   1.800   2.397  0.8259 -2.3826 -0.9194
  768TIP3   OH2 2267   6.895   5.778   3.888 -0.0471  0.1583 -0.0297
  768TIP3    H1 2268   6.863   5.807   3.973  1.2106  1.7926 -0.0627
  768TIP3    H2 2269   6.891   5.856   3.832 -0.2252 -0.7192 -1.2907
  769TIP3   OH2 2270   4.320   0.465   1.448 -0.0835 -0.0681 -0.1632
  769TIP3    H1 2271   4.328   0.463   1.353 -0.0187  2.2474 -0.2607
  769TIP3    H2 2272   4.346   0.377   1.476 -1.4440 -1.2438 -2.3318
  770TIP3   OH2 2273   5.831   6.105   2.078  0.2421 -0.1742  0.1978
  770TIP3    H1 2274   5.925   6.106   2.093  0.4545 -2.3529 -0.6432
  770TIP3    H2 2275   5.796   6.169   2.140  2.0772 -0.8336  2.0070
  771TIP3   OH2 2276   1.779   4.504   1.059 -0.0693 -0.4311 -0.6031
  771TIP3    H1 2277   1.774   4.438   0.990 -1.2868 -1.4644  0.4329
  771TIP3    H2 2278   1.841   4.569   1.025  0.3895 -1.5832 -2.0769
  772TIP3   OH2 2279   1.958   4.922   5.880 -0.6578 -0.2735 -0.3848
  772TIP3    H1 2280   2.019   4.940   5.809  2.5504 -0.4937  2.1027
  772TIP3    H2 2281   1.893   4.992   5.874  1.5371  1.8278 -1.3927
  773TIP3   OH2 2282   0.445   4.778   3.922  0.7845  0.5106 -0.2227
  773TIP3    H1 2283   0.399   4.850   3.880 -1.2335 -0.7197 -0.2053
  773TIP3    H2 2284   0.525   4.767   3.871 -0.6012  0.4178 -2.4627
  774TIP3   OH2 2285   5.489   6.181   3.151 -0.0169  0.2369  0.8967
  774TIP3    H1 2286   5.466   6.116   3.218 -0.6713  1.6971  2.1240
  774TIP3    H2 2287   5.560   6.232   3.190 -0.5713  1.2658  0.5816
  775TIP3   OH2 2288   0.430   5.908   2.029 -0.0585  0.1820 -0.0763
  775TIP3    H1 2289   0.458   5.934   2.117  0.5766 -0.3704 -0.1017
  775TIP3    H2 2290   0.338   5.886   2.038 -0.4239  1.7017  0.1011
  776TIP3   OH2 2291   4.800   6.761   2.397  0.5464  0.3170  0.5971
  776TIP3    H1 2292   4.740   6.735   2.327 -1.0845  2.0604  1.2637
  776TIP3    H2 2293   4.883   6.720   2.374 -0.6241 -1.3699 -0.8996
  777TIP3   OH2 2294   1.500   1.282   0.130 -0.2309 -0.6077 -0.3549
  777TIP3    H1 2295   1.584   1.312   0.167 -0.0422 -1.1766 -0.3038
  777TIP3    H2 2296   1.473   1.352   0.071 -0.5879  0.3861  0.9238
  778TIP3   OH2 2297   6.034   1.906   5.531  0.4186 -0.2505  0.3711
  778TIP3    H1 2298   6.071   1.824   5.563  1.7900  1.2165  2.7883
  778TIP3    H2 2299   5.952   1.915   5.580 -0.5273 -0.8382 -1.0153
  779TIP3   OH2 2300   0.242   5.850   4.412  0.3656 -0.3428 -0.7524
  779TIP3    H1 2301   0.252   5.905   4.334  1.8894  1.9706  0.9546
  779TIP3    H2 2302   0.321   5.796   4.414  0.2462 -0.5241 -0.8847
  780TIP3   OH2 2303   1.361   1.726   1.735 -0.3477 -0.0084  0.0875
  780TIP3    H1 2304   1.455   1.717   1.752 -0.4016 -2.1786 -0.4969
  780TIP3    H2 2305   1.349   1.695   1.645 -1.4754  1.5302 -0.3511
  781TIP3   OH2 2306   1.534   0.793   3.677  0.3662 -0.2584 -0.2088
  781TIP3    H1 2307   1.465   0.843   3.634  0.2311 -0.7585 -0.5888
  781TIP3    H2 2308   1.525   0.815   3.770 -1.3967 -1.5563 -0.0197
  782TIP3   OH2 2309   1.808   4.774   4.592  0.3267 -0.2269  0.4438
  782TIP3    H1 2310   1.892   4.739   4.621  0.6805  0.8842  0.7997
  782TIP3    H2 2311   1.829   4.857   4.549 -0.6276  0.3036  0.9638
  783TIP3   OH2 2312   5.256   5.576   2.967  0.1929 -0.2589  0.2561
  783TIP3    H1 2313   5.291   5.548   2.883 -0.4727  0.0157 -0.1128
  783TIP3    H2 2314   5.197   5.649   2.946  0.4894  0.2168  1.0147
  784TIP3   OH2 2315   6.148   6.352   1.918  0.0930 -0.4587  0.5763
  784TIP3    H1 2316   6.207   6.295   1.968 -0.9006 -0.4676  1.7746
  784TIP3    H2 2317   6.122   6.420   1.980  0.3393  0.6550 -0.5013
  785TIP3   OH2 2318   1.215   5.142   0.441 -0.7242  0.1466 -0.1011
  785TIP3    H1 2319   1.126   5.175   0.449 -1.0696 -0.8879  0.5342
  785TIP3    H2 2320   1.236   5.151   0.348 -1.2710  0.9323 -0.1558
  786TIP3   OH2 2321   3.465   4.732   2.000 -0.4234 -0.0469  0.8397
  786TIP3    H1 2322   3.492   4.640   1.999  0.5321  0.2283  0.2918
  786TIP3    H2 2323   3.453   4.752   2.093  0.0931 -0.5228  1.0154
  787TIP3   OH2 2324   2.581   0.983   2.759  0.5457 -0.0652  0.2694
  787TIP3    H1 2325   2.565   0.978   2.665  0.4816  0.0719  0.2732
  787TIP3    H2 2326   2.617   1.071   2.773  0.2149  0.0482  0.4233
  788TIP3   OH2 2327   1.328   2.389   5.090  0.0833 -0.0106 -0.2013
  788TIP3    H1 2328   1.341   2.481   5.067  1.5622 -0.0518  0.3450
  788TIP3    H2 2329   1.233   2.377   5.088 -0.1611  1.6181  0.0326
  789TIP3   OH2 2330   3.090   6.671   1.934 -0.2633  0.2788 -0.2990
  789TIP3    H1 2331   3.074   6.582   1.904  0.7487  1.0643 -3.6517
  789TIP3    H2 2332   3.185   6.676   1.944 -0.3824  0.7852  0.7614
  790TIP3   OH2 2333   3.209   6.145   2.042 -0.5411  0.4283 -0.1746
  790TIP3    H1 2334   3.273   6.173   2.108  0.4398 -1.2054 -0.3655
  790TIP3    H2 2335   3.180   6.226   2.001  1.0519  1.2762  0.2710
  791TIP3   OH2 2336   2.789   0.382   3.085  0.8091 -0.2499 -0.4325
  791TIP3    H1 2337   2.817   0.313   3.025  1.1372 -1.3535  0.9370
  791TIP3    H2 2338   2.746   0.336   3.157 -1.6995  1.1911 -0.9026
  792TIP3   OH2 2339   4.159   2.778   5.819 -0.7203  0.5593 -0.6498
  792TIP3    H1 2340   4.186   2.869   5.813  2.2690 -0.2125 -0.7461
  792TIP3    H2 2341   4.234   2.729   5.785 -2.2908 -1.9454 -0.7666
  793TIP3   OH2 2342   5.284   0.038   3.676 -0.4012 -0.4796 -0.1220
  793TIP3    H1 2343   5.271   0.056   3.769 -2.5423 -1.2749 -0.2207
  793TIP3    H2 2344   5.375   0.064   3.660  0.2451 -0.9416  2.3192
  794TIP3   OH2 2345   6.811   2.937   0.002  0.3543  0.0815 -0.6289
  794TIP3    H1 2346   6.894   2.975   0.028  0.1370  0.6771 -0.7832
  794TIP3    H2 2347   6.822   2.843   0.015  0.1441  0.3569  1.9762
  795TIP3   OH2 2348   4.852   2.689   3.281 -0.8809 -0.3209  0.1966
  795TIP3    H1 2349   4.813   2.773   3.256  0.5010 -0.0908 -1.4055
  795TIP3    H2 2350   4.912   2.711   3.352 -1.0975 -0.1007  0.3164
  796TIP3   OH2 2351   0.172   5.886   1.747 -0.2593 -0.1047  0.1597
  796TIP3    H1 2352   0.080   5.889   1.721  0.2455 -0.4090 -1.8813
  796TIP3    H2 2353   0.202   5.977   1.741 -0.6811  0.1910  2.0079
  797TIP3   OH2 2354   2.483   5.782   0.761 -0.4815  0.1804  0.1091
  797TIP3    H1 2355   2.560   5.726   0.758 -0.9490 -0.4153 -0.9356
  797TIP3    H2 2356   2.484   5.818   0.850  2.4181  2.2016 -0.5531
  798TIP3   OH2 2357   2.031   3.755   3.673  0.4308 -0.4250  0.0654
  798TIP3    H1 2358   2.094   3.806   3.724  0.1606 -0.1151  0.0922
  798TIP3    H2 2359   1.975   3.713   3.738  0.1744 -0.1417  0.0321
  799TIP3   OH2 2360   5.429   6.437   0.824  0.2902 -0.1061  1.0668
  799TIP3    H1 2361   5.413   6.370   0.890 -1.0664  0.5546  1.4336
  799TIP3    H2 2362   5.524   6.447   0.823  0.6665 -2.8217  0.1853
  800TIP3   OH2 2363   1.374   5.939   0.690  0.1453  0.2130  0.5926
  800TIP3    H1 2364   1.312   5.894   0.748 -1.6956  0.9053 -0.7420
  800TIP3    H2 2365   1.453   5.950   0.744 -0.4430 -1.7122  1.9960
  801TIP3   OH2 2366   6.950   0.946   5.517  0.3229  0.5247 -0.1641
  801TIP3    H1 2367   6.866   0.925   5.477  0.0855  0.3552  0.4224
  801TIP3    H2 2368   6.945   0.910   5.606  1.4070 -0.4340 -0.4613
  802TIP3   OH2 2369   3.542   5.273   4.024  0.3235  0.4727 -0.1258
  802TIP3    H1 2370   3.618   5.240   4.072  0.3540 -0.5709 -0.8675
  802TIP3    H2 2371   3.538   5.366   4.048  1.7745  0.5304  0.0029
  803TIP3   OH2 2372   2.540   5.679   3.772  0.3090  0.4096  0.6246
  803TIP3    H1 2373   2.603   5.629   3.720 -1.4578 -0.6993 -0.5968
  803TIP3    H2 2374   2.455   5.657   3.733 -0.8415  1.8216  2.1938
  804TIP3   OH2 2375   3.174   5.537   1.303 -0.2604 -0.3489 -0.6730
  804TIP3    H1 2376   3.268   5.536   1.321 -0.5272 -1.6023  0.9373
  804TIP3    H2 2377   3.157   5.454   1.260 -0.8608 -0.9448  0.6446
  805TIP3   OH2 2378   1.238   0.202   0.387 -1.0550 -0.2965  0.1514
  805TIP3    H1 2379   1.144   0.205   0.399 -1.2746 -3.7465  0.3974
  805TIP3    H2 2380   1.257   0.109   0.373  2.2594  0.3332 -0.3518
  806TIP3   OH2 2381   2.712   2.802   5.217  0.6428  0.3219  0.3168
  806TIP3    H1 2382   2.791   2.753   5.194  2.3130  1.9480  2.2400
  806TIP3    H2 2383   2.731   2.892   5.189 -0.8954  0.5890  0.0541
  807TIP3   OH2 2384   0.202   2.293   5.332  1.0361 -0.0990 -0.5352
  807TIP3    H1 2385   0.163   2.205   5.338 -0.3089  0.4812 -0.3217
  807TIP3    H2 2386   0.266   2.286   5.261  1.4338 -1.4197 -0.0708
  808TIP3   OH2 2387   3.071   2.144   1.686  0.1870  0.3828  0.2576
  808TIP3    H1 2388   3.140   2.083   1.659 -0.0967  0.9199 -1.8592
  808TIP3    H2 2389   3.000   2.088   1.717  0.9093 -0.2372  0.8206
  809TIP3   OH2 2390   6.949   0.967   0.657 -0.5028  0.3279  0.3243
  809TIP3    H1 2391   6.941   0.875   0.680 -0.4465  0.2756  0.1398
  809TIP3    H2 2392   7.039   0.976   0.625 -0.7711  0.2589 -0.4696
  810TIP3   OH2 2393   5.755   5.550   2.707  0.4844 -0.2176  0.0974
  810TIP3    H1 2394   5.766   5.543   2.802 -2.0969 -2.3167  0.3787
  810TIP3    H2 2395   5.661   5.559   2.695  0.8804  1.7534 -2.2786
  811TIP3   OH2 2396   6.282   0.838   0.402  0.4796  0.1329 -0.3934
  811TIP3    H1 2397   6.290   0.757   0.452  1.0948  1.1792  1.2820
  811TIP3    H2 2398   6.211   0.886   0.445  1.5415  1.3899  0.0096
  812TIP3   OH2 2399   6.879   4.384   2.967  0.2820  0.3690 -0.2225
  812TIP3    H1 2400   6.822   4.318   3.006  0.5083  0.7147  0.7001
  812TIP3    H2 2401   6.882   4.360   2.874 -0.9746  0.0647 -0.2114
  813TIP3   OH2 2402   5.258   5.990   3.803  0.5019 -0.0421  0.5882
  813TIP3    H1 2403   5.345   5.959   3.776  2.1318  1.7478  3.2660
  813TIP3    H2 2404   5.253   6.079   3.770 -0.6324 -0.3307 -0.0650
  814TIP3   OH2 2405   2.699   6.040   0.339  0.0981  0.0448  0.3681
  814TIP3    H1 2406   2.788   6.007   0.327 -0.2836 -0.3061 -2.1244
  814TIP3    H2 2407   2.655   5.971   0.388  0.6138 -0.8898 -0.4426
  815TIP3   OH2 2408   5.694   5.008   1.343  1.1414  0.1585 -0.5197
  815TIP3    H1 2409   5.601   4.985   1.347  1.1698  0.0185 -0.6623
  815TIP3    H2 2410   5.734   4.939   1.290  1.7308 -1.0334  1.3776
  816TIP3   OH2 2411   4.805   0.037   0.966  0.6456 -0.3676 -0.2310
  816TIP3    H1 2412   4.893   0.069   0.985  0.2724 -0.0404  1.0294
  816TIP3    H2 2413   4.771   0.098   0.901  0.5263  0.9106  0.9783
  817TIP3   OH2 2414   6.543   0.186   4.661  0.4061 -0.4725 -0.6121
  817TIP3    H1 2415   6.611   0.233   4.709 -1.1636  0.9965  0.2510
  817TIP3    H2 2416   6.489   0.146   4.729 -0.7943  0.1412 -1.1741
  818TIP3   OH2 2417   0.433   5.423   3.304 -0.5868 -0.2931 -0.1286
  818TIP3    H1 2418   0.428   5.356   3.373  0.3794 -0.7619 -0.5026
  818TIP3    H2 2419   0.374   5.492   3.335  2.3143  1.1010  2.8895
  819TIP3   OH2 2420   0.038   1.721   1.966 -0.0755  0.1173 -0.1452
  819TIP3    H1 2421   0.110   1.784   1.972  0.2783 -0.3365  0.8203
  819TIP3    H2 2422   0.082   1.636   1.961 -0.5434 -0.0961 -0.6307
  820TIP3   OH2 2423   3.580   3.175   4.124  0.2380 -0.2382  0.5991
  820TIP3    H1 2424   3.542   3.115   4.060  0.9689 -0.2823  0.1907
  820TIP3    H2 2425   3.509   3.236   4.144 -0.6501 -1.4698  1.3513
  821TIP3   OH2 2426   5.308   2.315   2.904 -0.0899  0.1718  0.0726
  821TIP3    H1 2427   5.402   2.305   2.888 -0.3393  1.3285 -2.6441
  821TIP3    H2 2428   5.303   2.392   2.961  0.5941  1.3209 -1.3351
  822TIP3   OH2 2429   2.874   2.106   3.874 -0.0214  0.1794 -0.2344
  822TIP3    H1 2430   2.788   2.138   3.902 -0.3635 -1.9580  1.4109
  822TIP3    H2 2431   2.863   2.085   3.782 -1.6306 -1.0255  0.1816
  823TIP3   OH2 2432   2.215   6.758   5.831  0.6550  0.2193 -0.2366
  823TIP3    H1 2433   2.194   6.794   5.917  1.0408  0.7659 -0.3681
  823TIP3    H2 2434   2.130   6.753   5.786  0.6160  1.1524 -0.2857
  824TIP3   OH2 2435   0.649   1.627   5.653 -0.1849  0.6160 -0.4731
  824TIP3    H1 2436   0.605   1.569   5.715  0.7661 -0.6230 -0.9081
  824TIP3    H2 2437   0.578   1.677   5.612 -1.0930 -0.5791 -0.4072
  825TIP3   OH2 2438   1.111   5.177   2.880 -0.0924 -0.6793  0.3591
  825TIP3    H1 2439   1.202   5.189   2.850 -0.6340  2.1323 -0.3865
  825TIP3    H2 2440   1.061   5.167   2.799 -0.4633 -2.7733  0.7841
  826TIP3   OH2 2441   3.611   3.423   2.386  0.2404 -0.8016  0.2424
  826TIP3    H1 2442   3.534   3.478   2.398 -0.6357 -1.8922 -0.2180
  826TIP3    H2 2443   3.576   3.338   2.358  1.6556 -1.0684 -0.8352
  827TIP3   OH2 2444   3.357   2.914   5.218 -0.7867 -0.4228 -0.3158
  827TIP3    H1 2445   3.387   2.886   5.304  1.8360  1.2693 -0.5774
  827TIP3    H2 2446   3.419   2.876   5.157  1.0566  3.1023 -0.9043
  828TIP3   OH2 2447   3.554   3.237   3.780 -0.2042  0.1187  0.3336
  828TIP3    H1 2448   3.628   3.187   3.746 -1.3254  0.2758 -2.6306
  828TIP3    H2 2449   3.595   3.305   3.835  1.5610 -1.6890  1.4264
  829TIP3   OH2 2450   4.492   2.881   4.587 -0.0057 -0.0085  0.0081
  829TIP3    H1 2451   4.418   2.820   4.592 -0.8305  1.0340  1.0093
  829TIP3    H2 2452   4.452   2.968   4.584  1.1687  0.5412 -0.2736
  830TIP3   OH2 2453   1.150   5.831   1.196  0.1145 -0.7582 -0.1125
  830TIP3    H1 2454   1.138   5.757   1.255 -1.3056 -0.1092  0.4630
  830TIP3    H2 2455   1.062   5.866   1.184  0.6398  0.2816 -1.1118
  831TIP3   OH2 2456   2.858   5.965   4.724 -0.2411  0.3053 -0.2694
  831TIP3    H1 2457   2.927   5.956   4.658 -1.2230 -0.6032 -1.2161
  831TIP3    H2 2458   2.792   6.021   4.683 -0.2294  0.8810  0.4884
  832TIP3   OH2 2459   4.144   5.399   5.118  0.0983 -0.2549  0.9454
  832TIP3    H1 2460   4.144   5.437   5.206 -2.5207 -0.8888  1.2904
  832TIP3    H2 2461   4.068   5.340   5.117 -2.7514  2.8930 -2.9812
  833TIP3   OH2 2462   1.393   6.174   4.634 -0.1801 -0.3567  0.0994
  833TIP3    H1 2463   1.458   6.143   4.696  2.4328  1.1510 -1.6978
  833TIP3    H2 2464   1.345   6.242   4.681 -0.3782 -1.3378  1.3835
  834TIP3   OH2 2465   1.280   1.870   5.581 -0.1868  0.4959  0.1194
  834TIP3    H1 2466   1.339   1.943   5.563  1.1983 -0.4238  0.7465
  834TIP3    H2 2467   1.302   1.843   5.670 -2.0203  0.5158  0.6249
  835TIP3   OH2 2468   5.101   3.188   4.343  0.0201 -0.0427  0.0566
  835TIP3    H1 2469   5.068   3.234   4.265 -1.7030 -1.4638 -0.1255
  835TIP3    H2 2470   5.181   3.145   4.313  0.0541  0.4470 -0.5807
  836TIP3   OH2 2471   0.684   4.509   2.675  0.1502 -0.8374  0.2738
  836TIP3    H1 2472   0.603   4.554   2.649 -1.3530 -1.8202  2.9107
  836TIP3    H2 2473   0.659   4.417   2.681  1.9922 -1.4372 -0.6041
  837TIP3   OH2 2474   1.985   2.131   1.607 -0.5865 -0.3878  0.2113
  837TIP3    H1 2475   1.944   2.207   1.564  0.7384 -0.3887 -1.1384
  837TIP3    H2 2476   1.959   2.138   1.698 -1.3382  1.1185 -0.0893
  838TIP3   OH2 2477   3.737   3.984   2.193  0.4351  0.0637  0.3352
  838TIP3    H1 2478   3.668   3.939   2.241  1.1652 -1.1973  0.2344
  838TIP3    H2 2479   3.817   3.963   2.240  0.8750  0.7395 -0.0927
  839TIP3   OH2 2480   6.968   3.914   1.900  0.4169  0.2363 -0.0609
  839TIP3    H1 2481   6.957   3.820   1.919  0.1871 -0.2198 -2.1999
  839TIP3    H2 2482   7.059   3.922   1.873  0.2612  0.4948 -0.5176
  840TIP3   OH2 2483   3.030   3.537   2.546  0.2022  0.2300 -0.0602
  840TIP3    H1 2484   3.039   3.442   2.556  0.8753  0.3353  0.4336
  840TIP3    H2 2485   3.110   3.564   2.501  0.0205  0.5666 -0.1864
  841TIP3   OH2 2486   3.842   4.274   3.494 -0.0678  0.3257 -0.1438
  841TIP3    H1 2487   3.812   4.241   3.579  0.1230  2.3435  0.7607
  841TIP3    H2 2488   3.937   4.267   3.498  0.0178  1.6485  0.3617
  842TIP3   OH2 2489   2.966   5.696   5.397 -0.2805  0.5913 -0.6404
  842TIP3    H1 2490   2.870   5.701   5.406 -0.1265  2.0745  0.6773
  842TIP3    H2 2491   2.980   5.655   5.312 -2.0768 -1.4673 -0.0519
  843TIP3   OH2 2492   1.510   3.266   3.736  0.3140  0.2358  0.0856
  843TIP3    H1 2493   1.523   3.261   3.831  0.7475 -0.2378  0.0053
  843TIP3    H2 2494   1.431   3.319   3.725 -0.4644 -0.7430  0.7607
  844TIP3   OH2 2495   6.217   3.531   1.083  0.7417  0.3758  0.2168
  844TIP3    H1 2496   6.284   3.546   1.149  0.7641  0.1004  0.2592
  844TIP3    H2 2497   6.211   3.613   1.034  0.4306  0.7211  0.8284
  845TIP3   OH2 2498   4.136   1.660   1.353 -0.0795  0.1455  0.5738
  845TIP3    H1 2499   4.098   1.683   1.269  0.8606 -0.8765 -0.1499
  845TIP3    H2 2500   4.062   1.660   1.414 -0.8066  0.6371 -0.2956
  846TIP3   OH2 2501   3.395   1.004   3.453 -0.0604  0.2437 -0.5031
  846TIP3    H1 2502   3.321   1.011   3.393  1.0472  0.6283 -1.8787
  846TIP3    H2 2503   3.467   0.971   3.399  0.7205 -0.3493  0.8490
  847TIP3   OH2 2504   4.685   2.205   5.811  0.4269 -0.3181  0.1166
  847TIP3    H1 2505   4.699   2.258   5.732  1.7401  0.2270  0.6833
  847TIP3    H2 2506   4.773   2.179   5.838 -0.0713 -1.1781  0.9531
  848TIP3   OH2 2507   5.655   4.945   4.291  0.8577  0.4548  0.3712
  848TIP3    H1 2508   5.662   4.851   4.275  0.7500  0.5744 -0.3794
  848TIP3    H2 2509   5.735   4.982   4.253  0.7519  0.7082  0.3947
  849TIP3   OH2 2510   5.330   3.559   2.405  0.1364  0.6778 -0.5869
  849TIP3    H1 2511   5.400   3.511   2.448  2.0584  3.4136 -0.4198
  849TIP3    H2 2512   5.286   3.607   2.475 -0.9024  0.2176 -0.8978
  850TIP3   OH2 2513   7.070   0.924   1.608 -0.0760 -0.1547 -0.2152
  850TIP3    H1 2514   7.150   0.894   1.652  0.2777  0.6845 -0.2616
  850TIP3    H2 2515   7.063   0.868   1.530 -0.0939 -0.9059  0.3214
  851TIP3   OH2 2516   5.443   5.818   3.116 -0.0480  0.0663 -0.5358
  851TIP3    H1 2517   5.482   5.867   3.188 -1.3249  0.5335 -0.1246
  851TIP3    H2 2518   5.355   5.856   3.107 -0.3266 -0.7870 -1.5586
  852TIP3   OH2 2519   4.566   2.106   4.228 -0.1755 -0.1847  0.4302
  852TIP3    H1 2520   4.487   2.143   4.266  0.0501  0.3760  0.3534
  852TIP3    H2 2521   4.638   2.150   4.274  0.0963  0.0415 -0.2126
  853TIP3   OH2 2522   2.206   2.040   1.101 -0.6387  0.5689  0.1940
  853TIP3    H1 2523   2.119   2.011   1.074 -0.7387  0.6765  0.3962
  853TIP3    H2 2524   2.207   2.134   1.082  1.1083 -0.1143 -4.3603
  854TIP3   OH2 2525   5.607   4.102   0.657 -0.3898 -0.1633 -0.1063
  854TIP3    H1 2526   5.617   4.009   0.678  0.0959 -0.5789 -2.0255
  854TIP3    H2 2527   5.523   4.127   0.696  0.7609 -0.6076  2.9678
  855TIP3   OH2 2528   5.620   2.443   5.695  0.7944 -0.0764  0.2710
  855TIP3    H1 2529   5.673   2.511   5.737 -0.5376  0.2422  1.4852
  855TIP3    H2 2530   5.569   2.405   5.765 -0.5695 -0.3982 -0.8563
  856TIP3   OH2 2531   5.918   1.251   1.461  0.0766  0.1551  0.9920
  856TIP3    H1 2532   5.910   1.177   1.401  1.0929  0.8555 -0.0524
  856TIP3    H2 2533   5.988   1.224   1.521  0.4980  0.2808  0.5674
  857TIP3   OH2 2534   2.824   2.193   3.045 -0.5197  0.4360  0.4113
  857TIP3    H1 2535   2.822   2.193   2.950 -1.3334  0.9530  0.4193
  857TIP3    H2 2536   2.912   2.224   3.067  0.4114 -1.6496 -0.1418
  858TIP3   OH2 2537   3.201   4.441   4.086 -0.6442 -0.2189 -0.4636
  858TIP3    H1 2538   3.218   4.530   4.057  2.1397 -1.2761 -2.4368
  858TIP3    H2 2539   3.142   4.405   4.020  1.7586 -1.1052 -2.2393
  859TIP3   OH2 2540   1.364   6.508   3.788 -0.0797 -0.1667  0.2970
  859TIP3    H1 2541   1.356   6.524   3.694 -1.4264 -0.6317  0.3094
  859TIP3    H2 2542   1.428   6.572   3.818 -0.5022  0.7713 -0.7369
  860TIP3   OH2 2543   2.432   5.268   1.263  0.3060 -0.5163  0.0874
  860TIP3    H1 2544   2.521   5.276   1.228 -0.0693  1.4138 -0.4906
  860TIP3    H2 2545   2.421   5.344   1.320 -1.5458  0.2639 -1.2039
  861TIP3   OH2 2546   5.862   0.653   3.475 -0.1118  0.2398 -0.1646
  861TIP3    H1 2547   5.804   0.639   3.550 -1.8668 -0.6464 -1.5978
  861TIP3    H2 2548   5.910   0.571   3.466  1.1308  0.8362  0.7870
  862TIP3   OH2 2549   4.769   3.270   1.494 -0.5429 -0.3780 -0.5473
  862TIP3    H1 2550   4.709   3.304   1.561 -2.0033 -1.2507 -1.3389
  862TIP3    H2 2551   4.811   3.347   1.457  1.9663  0.0382  2.7794
  863TIP3   OH2 2552   1.421   0.438   5.777 -0.2466  0.7581 -0.3052
  863TIP3    H1 2553   1.418   0.395   5.862  1.4659  1.4488  0.1583
  863TIP3    H2 2554   1.506   0.483   5.776 -0.7584  1.7857 -1.8815
  864TIP3   OH2 2555   0.659   5.274   2.771  0.3085 -0.0560 -0.9225
  864TIP3    H1 2556   0.598   5.319   2.829 -0.4669 -1.6370 -0.4512
  864TIP3    H2 2557   0.604   5.231   2.706  1.0109 -0.4808 -1.2462
  865TIP3   OH2 2558   1.094   5.294   4.517 -0.2864  0.5475  0.3010
  865TIP3    H1 2559   1.069   5.203   4.528 -0.3471  0.3334 -1.3834
  865TIP3    H2 2560   1.188   5.295   4.535 -0.3940  0.2804  0.9121
  866TIP3   OH2 2561   4.486   1.560   4.787  0.2854 -0.4711 -0.1863
  866TIP3    H1 2562   4.485   1.521   4.875  0.5501 -0.7248 -0.2946
  866TIP3    H2 2563   4.400   1.601   4.778  0.4812  0.0942  0.4302
  867TIP3   OH2 2564   2.392   1.007   4.554  0.2299 -0.2009  0.3107
  867TIP3    H1 2565   2.314   0.976   4.599 -0.1437 -1.2782 -1.0059
  867TIP3    H2 2566   2.361   1.083   4.503  0.2724 -0.0342  0.5291
  868TIP3   OH2 2567   0.467   5.713   2.879  0.6172  0.5478  0.2757
  868TIP3    H1 2568   0.499   5.801   2.897 -0.6425  1.0730  0.0631
  868TIP3    H2 2569   0.487   5.698   2.786  0.0813  0.9579  0.0876
  869TIP3   OH2 2570   5.880   4.103   0.339  0.1623 -0.1046 -0.2695
  869TIP3    H1 2571   5.962   4.054   0.336  0.5388  0.5022  0.0331
  869TIP3    H2 2572   5.873   4.133   0.430  0.0526  0.5917 -0.5008
  870TIP3   OH2 2573   4.661   0.067   4.051 -0.2095  0.6255  0.6348
  870TIP3    H1 2574   4.578   0.076   4.098  0.0004 -1.0214  1.3884
  870TIP3    H2 2575   4.643   0.103   3.964 -0.9306  2.6837  1.5944
  871TIP3   OH2 2576   5.449   4.653   0.397 -0.2545 -0.1434 -0.2652
  871TIP3    H1 2577   5.379   4.695   0.347  0.1451 -0.0018 -0.7072
  871TIP3    H2 2578   5.501   4.607   0.332 -0.6336 -1.2607  0.1986
  872TIP3   OH2 2579   4.413   3.453   1.042  0.1526 -0.2972  0.0974
  872TIP3    H1 2580   4.373   3.367   1.054  0.0452  0.0436  3.0414
  872TIP3    H2 2581   4.499   3.445   1.084  0.4119  0.8433 -0.1855
  873TIP3   OH2 2582   2.783   5.916   3.007  0.2313 -0.5610  0.0344
  873TIP3    H1 2583   2.736   5.914   3.091  0.6647  1.5314  0.3743
  873TIP3    H2 2584   2.865   5.869   3.024  1.1472  1.3748  1.3958
  874TIP3   OH2 2585   5.918   6.669   0.617  0.4555  0.2226  0.0653
  874TIP3    H1 2586   5.859   6.667   0.542  0.0430  2.0033  0.3014
  874TIP3    H2 2587   5.969   6.588   0.610 -0.0866 -0.0005 -1.6940
  875TIP3   OH2 2588   4.296   6.470   0.249 -0.0540  0.7797 -0.0692
  875TIP3    H1 2589   4.254   6.407   0.191 -1.3539  0.4073  1.2231
  875TIP3    H2 2590   4.336   6.534   0.190 -0.0393 -0.4035 -1.3744
  876TIP3   OH2 2591   1.126   3.283   1.143 -0.3529  0.0981  0.0129
  876TIP3    H1 2592   1.143   3.266   1.050  0.9116 -1.1330  0.4294
  876TIP3    H2 2593   1.169   3.367   1.160  1.2874 -0.6725 -0.0751
  877TIP3   OH2 2594   1.832   6.016   0.747  0.5569 -0.2906  0.2329
  877TIP3    H1 2595   1.828   6.110   0.727  0.2433 -0.0490  1.3483
  877TIP3    H2 2596   1.813   5.973   0.664  0.8128  0.6312 -0.3184
  878TIP3   OH2 2597   1.527   6.559   5.792 -0.3165  0.0474  0.2329
  878TIP3    H1 2598   1.527   6.620   5.866 -1.4299 -1.0488  1.1690
  878TIP3    H2 2599   1.487   6.609   5.721 -1.0026  0.4902  0.9156
  879TIP3   OH2 2600   7.056   1.658   4.546 -0.6329  0.1384  0.4583
  879TIP3    H1 2601   6.991   1.727   4.532 -1.1790 -0.4093  0.2765
  879TIP3    H2 2602   7.042   1.631   4.637 -1.5717 -0.9033  0.0198
  880TIP3   OH2 2603   3.849   3.474   2.627 -0.2358 -0.0799  0.2961
  880TIP3    H1 2604   3.854   3.536   2.554 -3.1293  0.2846  0.2932
  880TIP3    H2 2605   3.805   3.397   2.589 -0.5244 -0.4317  1.3256
  881TIP3   OH2 2606   0.400   1.865   5.770 -0.3870  0.2811 -0.2563
  881TIP3    H1 2607   0.456   1.923   5.823  1.8630 -0.4096 -1.7312
  881TIP3    H2 2608   0.351   1.815   5.834  1.9930 -0.3100  1.2532
  882TIP3   OH2 2609   7.105   0.881   4.440  0.1875 -0.1500 -0.4199
  882TIP3    H1 2610   7.041   0.818   4.474  0.0325  0.0457 -0.3438
  882TIP3    H2 2611   7.179   0.875   4.500 -0.9341  1.7424  1.2922
  883TIP3   OH2 2612   5.902   3.514   0.731  0.1732  0.4418  0.4029
  883TIP3    H1 2613   5.813   3.539   0.707 -0.5148 -1.3607  0.8645
  883TIP3    H2 2614   5.930   3.581   0.793 -0.7136  1.2546 -0.0493
  884TIP3   OH2 2615   6.163   2.651   5.511  0.2560  0.3162  0.0727
  884TIP3    H1 2616   6.144   2.705   5.588  0.4741  0.8083 -0.2092
  884TIP3    H2 2617   6.191   2.567   5.547 -0.5917  0.2105  0.5117
  885TIP3   OH2 2618   3.564   4.717   0.741 -0.3981 -0.5087 -0.1891
  885TIP3    H1 2619   3.514   4.638   0.762 -1.1903 -0.2120 -0.8961
  885TIP3    H2 2620   3.502   4.774   0.696 -0.1439  0.9817  1.2523
  886TIP3   OH2 2621   1.436   3.193   1.673  0.3972 -0.5951 -0.2682
  886TIP3    H1 2622   1.475   3.278   1.693 -0.8584 -0.5952  2.7230
  886TIP3    H2 2623   1.501   3.148   1.619  2.3352  1.2104  0.4617
  887TIP3   OH2 2624   4.101   5.823   3.667 -0.4793 -0.5800 -0.8270
  887TIP3    H1 2625   4.080   5.911   3.636  0.3236  0.2430  0.8238
  887TIP3    H2 2626   4.185   5.803   3.625  0.8692  0.7451  1.0219
  888TIP3   OH2 2627   5.872   5.005   5.588 -0.0596  0.2969 -0.0685
  888TIP3    H1 2628   5.946   5.042   5.540  0.4683  0.0197  0.5147
  888TIP3    H2 2629   5.905   4.922   5.623 -0.8490 -0.1450 -0.3370
  889TIP3   OH2 2630   7.155   0.829   3.485 -0.2374  0.4188  0.3773
  889TIP3    H1 2631   7.140   0.909   3.534  0.9051  0.9439 -0.0892
  889TIP3    H2 2632   7.074   0.815   3.435 -1.0425  0.3965  1.6599
  890TIP3   OH2 2633   0.145   4.742   3.002  0.1811  0.0145  0.1737
  890TIP3    H1 2634   0.180   4.808   3.063 -1.3306  0.4799  0.5637
  890TIP3    H2 2635   0.055   4.728   3.031 -0.7009  0.4994 -2.1793
  891TIP3   OH2 2636   3.570   2.619   1.913  0.4883 -0.0423  0.0827
  891TIP3    H1 2637   3.567   2.570   1.995  1.3573  0.5099  0.4671
  891TIP3    H2 2638   3.567   2.711   1.940 -0.1691  0.1287 -0.5657
  892TIP3   OH2 2639   2.759   1.594   4.444  0.3203  0.4259 -0.3508
  892TIP3    H1 2640   2.671   1.625   4.463  0.4090  0.5612 -0.1533
  892TIP3    H2 2641   2.786   1.546   4.522 -0.1751 -0.9820 -1.0218
  893TIP3   OH2 2642   0.130   1.498   1.367  0.7467 -0.0276  0.6480
  893TIP3    H1 2643   0.050   1.445   1.375  1.3732 -1.0743  0.1450
  893TIP3    H2 2644   0.201   1.434   1.368  1.4350  0.5136 -2.7909
  894TIP3   OH2 2645   5.910   2.319   1.958  0.3710  0.4262  0.0681
  894TIP3    H1 2646   5.869   2.233   1.955  1.1512  0.0318  0.3379
  894TIP3    H2 2647   5.840   2.381   1.937 -0.5858 -0.1409  1.4837
  895TIP3   OH2 2648   4.692   0.969   1.471  0.1826 -0.5598  0.9240
  895TIP3    H1 2649   4.757   0.983   1.401 -0.8980  0.1010  0.0230
  895TIP3    H2 2650   4.744   0.938   1.545  1.2666 -2.2879 -0.4544
  896TIP3   OH2 2651   2.293   4.564   3.154 -0.2485 -0.5082  0.0806
  896TIP3    H1 2652   2.355   4.517   3.210  0.0895  0.9204  0.9579
  896TIP3    H2 2653   2.237   4.612   3.215 -0.5963  0.1932 -0.7707
  897TIP3   OH2 2654   1.677   5.472   4.638  0.2374  0.7115 -0.2040
  897TIP3    H1 2655   1.657   5.396   4.584 -0.4932  0.1482  0.8295
  897TIP3    H2 2656   1.758   5.450   4.683 -0.2233  0.3343  0.4548
  898TIP3   OH2 2657   4.113   4.830   1.639 -0.1773  0.1955 -0.1336
  898TIP3    H1 2658   4.092   4.922   1.656 -0.5174  0.3504 -1.2940
  898TIP3    H2 2659   4.191   4.813   1.691 -1.4681  0.4433  1.9965
  899TIP3   OH2 2660   3.512   2.606   2.738 -0.3490  0.3496  0.0156
  899TIP3    H1 2661   3.571   2.681   2.732 -1.3266  1.1579  0.3533
  899TIP3    H2 2662   3.550   2.542   2.678 -0.3392  1.7032 -1.5079
  900TIP3   OH2 2663   6.658   1.236   1.897  0.2010 -0.4761  0.3519
  900TIP3    H1 2664   6.648   1.289   1.976  1.8160 -1.4227  1.2375
  900TIP3    H2 2665   6.752   1.237   1.880 -0.0893 -0.6007 -1.3641
  901TIP3   OH2 2666   3.566   6.268   4.233 -0.0888 -0.3497  0.0200
  901TIP3    H1 2667   3.644   6.232   4.275  0.9234  3.3093  1.7625
  901TIP3    H2 2668   3.566   6.360   4.260 -1.9631  1.2187 -4.4308
  902TIP3   OH2 2669   0.462   2.870   0.198 -0.2217  0.0848  0.5144
  902TIP3    H1 2670   0.532   2.805   0.194 -0.4395 -0.1464  0.4099
  902TIP3    H2 2671   0.473   2.921   0.118  0.7093  0.9731  1.1987
  903TIP3   OH2 2672   6.971   4.333   4.713  0.2510  0.3541 -0.3810
  903TIP3    H1 2673   7.035   4.358   4.779 -0.0017 -0.8602  0.3567
  903TIP3    H2 2674   7.014   4.265   4.661 -0.1859  0.0065 -0.3020
  904TIP3   OH2 2675   0.366   5.448   3.941  0.6522 -0.1376 -0.2519
  904TIP3    H1 2676   0.322   5.496   3.871 -0.8576  0.1945  0.8668
  904TIP3    H2 2677   0.386   5.515   4.006 -1.2535 -0.9096  1.2242
  905TIP3   OH2 2678   3.722   6.602   3.209  1.1210  0.2682 -1.0851
  905TIP3    H1 2679   3.798   6.555   3.244  0.5738  1.3476  1.8423
  905TIP3    H2 2680   3.749   6.694   3.209 -0.7415  1.0105  2.2526
  906TIP3   OH2 2681   3.776   6.626   0.736  0.1749 -0.2655 -0.3090
  906TIP3    H1 2682   3.820   6.681   0.670 -1.4846 -0.3110 -1.5303
  906TIP3    H2 2683   3.702   6.587   0.688 -0.3912 -1.2464  1.3033
  907TIP3   OH2 2684   1.406   0.394   0.117 -0.4017  0.0139 -0.1891
  907TIP3    H1 2685   1.491   0.405   0.074 -0.2523  0.0635  0.1174
  907TIP3    H2 2686   1.355   0.469   0.086  0.0823  0.6942  0.6111
  908TIP3   OH2 2687   1.596   2.170   0.591 -0.1323 -0.1086 -0.4393
  908TIP3    H1 2688   1.545   2.096   0.558 -0.8453  0.0213  0.3398
  908TIP3    H2 2689   1.623   2.218   0.512 -0.2001 -0.8362 -0.9177
  909TIP3   OH2 2690   0.923   1.007   4.368 -0.7332  0.2349  0.0272
  909TIP3    H1 2691   0.960   1.010   4.456 -1.9024 -0.0181  0.5417
  909TIP3    H2 2692   0.881   0.922   4.362  0.6085 -0.3752 -1.3308
  910TIP3   OH2 2693   0.482   0.224   5.344  0.0056 -0.4070  0.8493
  910TIP3    H1 2694   0.404   0.169   5.339  0.5525 -1.0949 -0.6078
  910TIP3    H2 2695   0.521   0.218   5.257  1.8491 -0.3388  1.6370
  911TIP3   OH2 2696   2.356   1.107   5.429  0.6461 -0.6654 -0.5263
  911TIP3    H1 2697   2.399   1.184   5.464  1.8286 -1.1506 -0.8614
  911TIP3    H2 2698   2.277   1.097   5.482  0.6502  0.5601 -0.2608
  912TIP3   OH2 2699   5.657   3.581   4.510  0.6603  0.1454 -0.4488
  912TIP3    H1 2700   5.697   3.510   4.461  0.7832  1.1305 -1.8336
  912TIP3    H2 2701   5.652   3.654   4.448 -0.5607  0.9782  0.5635
  913TIP3   OH2 2702   2.241   3.361   4.878 -0.4951 -0.2769  0.2712
  913TIP3    H1 2703   2.174   3.347   4.811 -1.1547  0.5368  0.7357
  913TIP3    H2 2704   2.213   3.308   4.953  0.2695 -1.2287 -0.1001
  914TIP3   OH2 2705   6.829   6.332   3.235  1.1857 -0.1861 -0.2144
  914TIP3    H1 2706   6.877   6.274   3.294 -0.0489 -1.2183 -0.1708
  914TIP3    H2 2707   6.770   6.381   3.292  0.5294 -0.6381 -0.4905
  915TIP3   OH2 2708   0.381   0.230   3.957  0.2626  0.1436 -0.3165
  915TIP3    H1 2709   0.473   0.240   3.933  0.5649  0.6534  0.9779
  915TIP3    H2 2710   0.381   0.229   4.053 -0.8006 -2.4897 -0.2485
  916TIP3   OH2 2711   6.643   0.045   3.124  0.5416  0.5128 -0.2956
  916TIP3    H1 2712   6.725   0.094   3.129  0.0180  1.3977 -0.3556
  916TIP3    H2 2713   6.648  -0.018   3.196  0.9328  1.0774  0.1763
  917TIP3   OH2 2714   2.390   1.953   5.428  0.1074  0.0758 -0.2232
  917TIP3    H1 2715   2.341   1.916   5.355  2.0542 -0.5062 -1.3039
  917TIP3    H2 2716   2.451   1.883   5.454  1.1322  1.1304  0.3145
  918TIP3   OH2 2717   2.503   3.210   0.725 -0.7217  0.7278 -0.2638
  918TIP3    H1 2718   2.551   3.128   0.711 -0.4871  0.6432  0.9333
  918TIP3    H2 2719   2.494   3.217   0.820 -2.9094  0.8626 -0.4239
  919TIP3   OH2 2720   6.715   6.343   5.111  0.2856  0.3003 -0.3707
  919TIP3    H1 2721   6.654   6.275   5.084 -0.2648  0.3691  0.6838
  919TIP3    H2 2722   6.802   6.307   5.090  0.0881 -1.2957  1.3343
  920TIP3   OH2 2723   6.665   2.763   1.334  0.4614 -0.0206  0.1742
  920TIP3    H1 2724   6.755   2.755   1.302  0.5297 -0.5831  0.4883
  920TIP3    H2 2725   6.610   2.740   1.260  0.6386 -3.8940  1.0329
  921TIP3   OH2 2726   5.577   1.892   0.955 -0.0001  0.2595 -0.0677
  921TIP3    H1 2727   5.620   1.977   0.954 -0.0327  0.2759 -1.3223
  921TIP3    H2 2728   5.644   1.831   0.984  0.2627  0.5814  0.0071
  922TIP3   OH2 2729   4.753   0.240   0.773  0.1220  0.6586  0.0717
  922TIP3    H1 2730   4.706   0.176   0.720  1.1569  0.8166 -1.0693
  922TIP3    H2 2731   4.715   0.324   0.750 -1.4172  0.4833  1.7629
  923TIP3   OH2 2732   2.841   3.830   0.441 -0.2690 -0.2918 -0.7191
  923TIP3    H1 2733   2.784   3.798   0.511 -0.6135 -1.0745 -1.3334
  923TIP3    H2 2734   2.920   3.861   0.486 -0.5551 -0.6171  0.0235
  924TIP3   OH2 2735   5.636   2.492   0.981  0.0334 -0.2405  0.1497
  924TIP3    H1 2736   5.560   2.472   0.926 -0.6808  0.0117  1.0199
  924TIP3    H2 2737   5.708   2.442   0.942 -0.0028  1.3076 -2.0802
  925TIP3   OH2 2738   5.618   2.265   2.069 -0.1807 -0.0186  0.6846
  925TIP3    H1 2739   5.617   2.175   2.038  0.9236 -0.0088  0.5901
  925TIP3    H2 2740   5.574   2.314   1.999 -0.7561 -0.4665  0.7236
  926TIP3   OH2 2741   4.293   4.140   1.756 -0.4111 -0.2942 -0.2023
  926TIP3    H1 2742   4.259   4.058   1.721 -0.5497 -0.0399 -0.6840
  926TIP3    H2 2743   4.328   4.185   1.679 -2.6700  1.2420 -0.4422
  927TIP3   OH2 2744   0.886   1.566   3.607  0.0634 -0.2304  0.0190
  927TIP3    H1 2745   0.881   1.627   3.680 -0.6601 -0.5791  0.2778
  927TIP3    H2 2746   0.969   1.519   3.619  0.5549  0.5996 -0.1116
  928TIP3   OH2 2747   3.456   5.699   2.809 -0.0018  0.4571 -0.0236
  928TIP3    H1 2748   3.369   5.736   2.794 -0.7726 -1.0778  0.4277
  928TIP3    H2 2749   3.460   5.685   2.904 -0.0521 -1.2635 -0.2427
  929TIP3   OH2 2750   1.599   0.692   0.015 -0.2123 -0.1071 -0.3396
  929TIP3    H1 2751   1.539   0.709   0.087 -0.4469 -0.8067 -0.3644
  929TIP3    H2 2752   1.628   0.602   0.028  0.4407  0.0581 -0.6167
  930TIP3   OH2 2753   2.371   4.989   1.288 -0.2689  0.0834 -0.0791
  930TIP3    H1 2754   2.385   5.083   1.278 -0.5019  0.0297 -1.0635
  930TIP3    H2 2755   2.304   4.968   1.222 -0.0685 -0.8023 -0.0078
  931TIP3   OH2 2756   6.759   5.485   1.298 -0.3690  0.5273 -0.3796
  931TIP3    H1 2757   6.718   5.553   1.245 -1.8197  0.8917  1.1222
  931TIP3    H2 2758   6.825   5.531   1.350 -1.3650  0.8262  0.6517
  932TIP3   OH2 2759   5.246   6.345   2.484 -0.0419 -0.3923 -0.0012
  932TIP3    H1 2760   5.323   6.328   2.430  1.3590  1.4089  1.2719
  932TIP3    H2 2761   5.254   6.438   2.508 -1.7978 -0.5535  1.4322
  933TIP3   OH2 2762   2.774   5.948   1.736  0.1353  0.1932 -0.9051
  933TIP3    H1 2763   2.781   5.856   1.760 -0.5557 -0.4175 -2.8816
  933TIP3    H2 2764   2.685   5.973   1.762  0.4840  0.4665  0.0720
  934TIP3   OH2 2765   1.112   2.346   0.622  0.2403  0.0615  0.5210
  934TIP3    H1 2766   1.172   2.399   0.675  0.8196 -1.1744  1.1398
  934TIP3    H2 2767   1.137   2.256   0.641  0.5289 -0.4368 -1.9308
  935TIP3   OH2 2768   6.969   0.290   1.948  0.4067  0.0077  0.1872
  935TIP3    H1 2769   6.908   0.360   1.926  0.8702  0.3486 -0.0569
  935TIP3    H2 2770   7.054   0.334   1.955  1.1387 -0.8185 -2.2571
  936TIP3   OH2 2771   6.427   5.361   5.367  0.6213  0.1188  0.2074
  936TIP3    H1 2772   6.411   5.360   5.273 -0.4541  1.8542  0.3366
  936TIP3    H2 2773   6.342   5.378   5.406  1.3037  0.8677  1.4196
  937TIP3   OH2 2774   0.715   2.288   1.655  0.4216  0.5571 -0.0716
  937TIP3    H1 2775   0.674   2.226   1.595 -0.5038  0.4579  0.6295
  937TIP3    H2 2776   0.654   2.293   1.729  0.1547  2.7615 -0.3803
  938TIP3   OH2 2777   1.880   4.066   3.140  0.1298 -0.4458  0.4317
  938TIP3    H1 2778   1.854   3.974   3.131 -0.9383 -0.3555  2.1328
  938TIP3    H2 2779   1.939   4.081   3.066  0.3702 -2.5049  0.1226
  939TIP3   OH2 2780   2.052   4.505   3.317  0.1965  0.3256  0.1691
  939TIP3    H1 2781   1.970   4.491   3.363  0.6973 -0.4197  0.8601
  939TIP3    H2 2782   2.095   4.420   3.316 -0.1391  0.1124 -2.4261
  940TIP3   OH2 2783   3.764   5.947   3.762  0.5380 -0.6111 -0.7371
  940TIP3    H1 2784   3.765   5.943   3.667 -0.3059  0.6169 -0.8119
  940TIP3    H2 2785   3.708   6.022   3.783 -0.5663 -1.7781  0.7452
  941TIP3   OH2 2786   6.490   4.494   3.568 -1.0325 -0.8214 -0.2325
  941TIP3    H1 2787   6.498   4.399   3.558  0.5637 -0.8884  1.3289
  941TIP3    H2 2788   6.401   4.507   3.601 -0.8614 -1.8940  0.6969
  942TIP3   OH2 2789   4.334   1.831   5.051 -0.4504 -0.2316 -0.1310
  942TIP3    H1 2790   4.266   1.765   5.040  0.9329 -1.5870 -0.9226
  942TIP3    H2 2791   4.337   1.878   4.968 -1.0932  0.5477  0.2623
  943TIP3   OH2 2792   3.420   3.267   5.218 -0.4075 -0.3698 -0.3579
  943TIP3    H1 2793   3.387   3.178   5.232 -1.3043  0.0256  0.1299
  943TIP3    H2 2794   3.411   3.281   5.124  1.6562 -1.5055 -0.8003
  944TIP3   OH2 2795   3.421   3.420   4.046  0.3958  0.5361  0.3385
  944TIP3    H1 2796   3.357   3.479   4.087  1.0303  1.0590  0.5964
  944TIP3    H2 2797   3.465   3.474   3.981 -0.2926 -0.1702 -0.7367
  945TIP3   OH2 2798   2.338   0.750   5.147  0.6785  0.0328 -0.4601
  945TIP3    H1 2799   2.357   0.804   5.071 -0.5261 -0.7939 -1.3740
  945TIP3    H2 2800   2.298   0.670   5.112 -1.4183  0.3076  1.1086
  946TIP3   OH2 2801   0.946   2.692   0.017 -0.2210  0.7042 -0.4486
  946TIP3    H1 2802   0.878   2.750   0.052 -1.3401 -0.6047 -0.3810
  946TIP3    H2 2803   1.027   2.724   0.057 -1.0542  1.0960  1.0139
  947TIP3   OH2 2804   3.455   6.416   0.281 -0.0281  0.5847  0.1219
  947TIP3    H1 2805   3.464   6.434   0.188 -2.1713  1.4607  0.0320
  947TIP3    H2 2806   3.361   6.410   0.296  0.3025 -1.8052  1.8596
  948TIP3   OH2 2807   2.178   0.940   0.019  0.2316  0.1528  0.2366
  948TIP3    H1 2808   2.222   0.870  -0.030  0.7408  0.7222 -0.1293
  948TIP3    H2 2809   2.180   0.911   0.110 -0.3063 -0.6991 -0.0050
  949TIP3   OH2 2810   1.037   4.235   5.863  0.2304  0.3724  0.0071
  949TIP3    H1 2811   0.977   4.282   5.920  0.3742 -0.9093  1.2745
  949TIP3    H2 2812   0.981   4.187   5.802  0.0130  0.3389  0.2325
  950TIP3   OH2 2813   5.518   4.076   3.056  0.2885  0.3229  0.4721
  950TIP3    H1 2814   5.529   4.107   3.146  0.2686 -0.1689  0.6490
  950TIP3    H2 2815   5.541   4.151   3.002  1.5690  0.2404  0.8619
  951TIP3   OH2 2816   5.841   3.181   3.446 -0.4006 -0.3219  0.1069
  951TIP3    H1 2817   5.797   3.266   3.442  0.5534  0.1371 -1.6229
  951TIP3    H2 2818   5.788   3.125   3.389  0.1602 -0.2708 -0.4836
  952TIP3   OH2 2819   6.736   3.324   2.956 -0.3615 -0.2503  0.5387
  952TIP3    H1 2820   6.655   3.364   2.927 -0.1306  0.7109  1.1959
  952TIP3    H2 2821   6.788   3.314   2.876 -0.6771  0.1657  0.2784
  953TIP3   OH2 2822   0.363   6.577   4.118  0.0949 -0.9279 -0.2548
  953TIP3    H1 2823   0.417   6.633   4.062  0.8523 -1.4930 -0.0983
  953TIP3    H2 2824   0.319   6.518   4.057 -0.9437  0.0038 -0.4503
  954TIP3   OH2 2825   5.638   1.000   2.654  0.1490 -0.2382 -0.4848
  954TIP3    H1 2826   5.673   1.076   2.608 -0.2005 -0.3460 -0.9398
  954TIP3    H2 2827   5.674   1.006   2.742  1.0881 -0.2094 -0.8686
  955TIP3   OH2 2828   5.398   1.933   3.413 -0.1047  0.1754  0.1532
  955TIP3    H1 2829   5.459   2.002   3.438 -1.4378  1.4893 -0.0720
  955TIP3    H2 2830   5.451   1.873   3.359  1.3467  0.4028  1.2642
  956TIP3   OH2 2831   0.262   0.829   2.089 -0.0134  0.0116 -0.2668
  956TIP3    H1 2832   0.195   0.880   2.135 -1.3032  0.3533 -2.3934
  956TIP3    H2 2833   0.345   0.857   2.129 -0.9452  1.3495  0.8295
  957TIP3   OH2 2834   1.763   1.325   0.296 -0.3026 -0.1851  0.3077
  957TIP3    H1 2835   1.786   1.310   0.387  0.7239  2.5221  0.6065
  957TIP3    H2 2836   1.808   1.255   0.248  1.0293 -0.3552  1.7049
  958TIP3   OH2 2837   0.666   2.722   5.046  0.1516  0.3391 -0.1898
  958TIP3    H1 2838   0.598   2.658   5.029 -1.2362  1.0942  2.1037
  958TIP3    H2 2839   0.748   2.677   5.023 -0.9693 -1.2325 -1.2658
  959TIP3   OH2 2840   6.216   3.926   1.971 -0.3356  0.4250 -0.5942
  959TIP3    H1 2841   6.240   3.976   1.893  2.4720 -0.6297 -0.5219
  959TIP3    H2 2842   6.273   3.961   2.040 -1.8529  0.4455  0.7159
  960TIP3   OH2 2843   4.109   0.372   2.335 -0.7871 -0.2505  0.1140
  960TIP3    H1 2844   4.147   0.287   2.313 -2.0934 -0.3856 -1.8494
  960TIP3    H2 2845   4.075   0.405   2.252  0.1190  2.4440  0.7174
  961TIP3   OH2 2846   1.217   0.880   0.229  0.1754 -0.1539 -0.4995
  961TIP3    H1 2847   1.212   0.972   0.255 -1.0934 -0.9373  2.4531
  961TIP3    H2 2848   1.137   0.840   0.265  1.0046 -2.5369 -1.0918
  962TIP3   OH2 2849   0.062   5.837   0.764 -0.6211  0.1239  1.4505
  962TIP3    H1 2850   0.137   5.779   0.770 -0.4971  0.2621  1.2580
  962TIP3    H2 2851  -0.014   5.779   0.764 -0.4401 -0.3272 -2.0147
  963TIP3   OH2 2852   6.388   5.635   2.470  0.2721  0.0531  0.1531
  963TIP3    H1 2853   6.385   5.547   2.507 -2.1110  0.0045 -0.0081
  963TIP3    H2 2854   6.352   5.691   2.538  0.6928  0.7430 -0.1831
  964TIP3   OH2 2855   3.598   1.934   0.668 -0.1848  0.4491  0.0174
  964TIP3    H1 2856   3.557   1.854   0.700  1.2148  0.3892  1.8392
  964TIP3    H2 2857   3.692   1.913   0.666 -0.0097  1.2078 -2.0966
  965TIP3   OH2 2858   6.323   3.959   0.055 -0.5202 -0.0999 -0.4973
  965TIP3    H1 2859   6.296   3.980  -0.035  1.3211  1.1799 -0.8073
  965TIP3    H2 2860   6.329   4.044   0.098  1.1799 -0.4801  0.0594
  966TIP3   OH2 2861   1.413   1.397   5.550  0.2005  0.2144 -0.1551
  966TIP3    H1 2862   1.417   1.484   5.512 -0.6481  1.0657  1.5624
  966TIP3    H2 2863   1.394   1.339   5.476 -0.9107  1.7006 -1.0886
  967TIP3   OH2 2864   1.597   6.009   5.268 -0.1910 -0.2156 -0.4538
  967TIP3    H1 2865   1.623   6.035   5.180 -1.8425 -0.1418 -0.9479
  967TIP3    H2 2866   1.501   6.001   5.264 -0.3285  0.0453  1.3915
  968TIP3   OH2 2867   7.133   2.356   3.455 -0.0071  0.4338  0.3137
  968TIP3    H1 2868   7.183   2.287   3.412 -0.7073  0.7152 -1.0243
  968TIP3    H2 2869   7.065   2.379   3.391 -0.2491  1.8312  1.0425
  969TIP3   OH2 2870   2.626   0.533   5.598  0.3379 -0.2205 -0.0377
  969TIP3    H1 2871   2.557   0.599   5.605  0.4229  0.0899 -1.6159
  969TIP3    H2 2872   2.586   0.453   5.631 -0.5045  0.1395 -0.1524
  970TIP3   OH2 2873   3.627   0.638   4.674 -0.4781 -0.0478  0.6169
  970TIP3    H1 2874   3.665   0.722   4.699  1.6497 -0.9985  0.8076
  970TIP3    H2 2875   3.663   0.620   4.587 -1.0689 -0.6753  0.4907
  971TIP3   OH2 2876   1.946   2.939   2.113 -0.3658  0.5163  0.5046
  971TIP3    H1 2877   1.990   3.003   2.168 -2.2495  0.8325  1.7438
  971TIP3    H2 2878   1.853   2.962   2.119 -1.0090 -1.7607  0.2412
  972TIP3   OH2 2879   5.080   1.608   0.124  0.0498  0.2582  0.2647
  972TIP3    H1 2880   5.150   1.623   0.061  0.3550  2.0550  0.9625
  972TIP3    H2 2881   5.113   1.539   0.182 -0.5154 -1.9168 -1.8613
  973TIP3   OH2 2882   3.334   4.644   2.825  0.2294 -0.3793  0.2590
  973TIP3    H1 2883   3.295   4.557   2.835  0.1454 -0.5319 -1.1675
  973TIP3    H2 2884   3.383   4.657   2.905 -1.7610 -0.6899  1.6103
  974TIP3   OH2 2885   3.594   0.123   4.061  0.2659  0.1135  0.6641
  974TIP3    H1 2886   3.600   0.031   4.035  1.6406  0.1776  0.6916
  974TIP3    H2 2887   3.657   0.168   4.005 -2.4208  1.5650 -1.4558
  975TIP3   OH2 2888   0.060   1.219   1.157 -0.1341 -0.1789  0.3669
  975TIP3    H1 2889   0.125   1.250   1.220  0.5282  0.3487 -0.5454
  975TIP3    H2 2890   0.082   1.265   1.076 -3.5203  2.4621  0.7256
  976TIP3   OH2 2891   3.608   1.435   1.860 -0.4254 -0.2353  0.0653
  976TIP3    H1 2892   3.650   1.492   1.795 -0.1115  0.3728  0.7874
  976TIP3    H2 2893   3.680   1.383   1.897 -0.5225 -0.2138  0.2873
  977TIP3   OH2 2894   4.622   3.816   2.481 -0.1464 -0.8428 -0.2935
  977TIP3    H1 2895   4.611   3.791   2.389 -1.1008 -2.1715  0.1535
  977TIP3    H2 2896   4.626   3.732   2.528  0.8185 -0.1882  0.8276
  978TIP3   OH2 2897   0.405   1.111   2.317  0.6233 -0.3320  0.5109
  978TIP3    H1 2898   0.487   1.156   2.334  0.4241 -0.1780  1.0919
  978TIP3    H2 2899   0.430   1.030   2.271  1.0334  0.0458  0.0683
  979TIP3   OH2 2900   5.017   0.053   5.591 -0.3817  0.5014 -0.3563
  979TIP3    H1 2901   5.043   0.136   5.629  0.1735  1.3494 -2.4313
  979TIP3    H2 2902   5.094   0.024   5.542 -0.9325 -0.6724 -0.5557
  980TIP3   OH2 2903   5.992   4.195   5.607  0.0261 -0.1698 -0.2776
  980TIP3    H1 2904   5.905   4.220   5.576 -0.0167 -0.4715 -0.4075
  980TIP3    H2 2905   6.009   4.253   5.681 -0.4516 -0.3787 -0.0059
  981TIP3   OH2 2906   3.746   5.113   5.775 -0.2180  0.0883 -0.0180
  981TIP3    H1 2907   3.788   5.078   5.696  0.2222 -0.4214  0.4374
  981TIP3    H2 2908   3.667   5.157   5.742  0.1026  0.1245 -0.7687
  982TIP3   OH2 2909   3.299   4.853   0.021 -0.2545 -0.3480  0.0238
  982TIP3    H1 2910   3.328   4.880  -0.066  0.7743 -1.4044  0.0163
  982TIP3    H2 2911   3.369   4.883   0.079 -0.1562 -1.0562  0.2802
  983TIP3   OH2 2912   4.988   1.410   1.980 -0.2722 -0.2437 -0.1803
  983TIP3    H1 2913   4.943   1.362   1.910  0.9310  0.3764 -1.4388
  983TIP3    H2 2914   4.989   1.500   1.950  0.4929 -0.0058  0.5112
  984TIP3   OH2 2915   6.421   1.369   5.763  0.3716 -0.5624 -0.0247
  984TIP3    H1 2916   6.445   1.371   5.855  0.0220  1.1444  0.0603
  984TIP3    H2 2917   6.334   1.409   5.759  0.4123 -0.5335 -1.0976
  985TIP3   OH2 2918   5.215   0.403   5.558 -0.2694 -0.4621 -0.3744
  985TIP3    H1 2919   5.240   0.421   5.467  0.3356  0.3822 -0.0576
  985TIP3    H2 2920   5.241   0.313   5.574 -1.1952 -0.9136 -1.3062
  986TIP3   OH2 2921   2.395   1.539   0.642 -0.0897 -0.1842 -0.5128
  986TIP3    H1 2922   2.366   1.618   0.597  0.9960 -0.4597 -1.7386
  986TIP3    H2 2923   2.337   1.533   0.718 -2.6272 -0.2090 -2.3222
  987TIP3   OH2 2924   6.829   6.143   1.328  0.1826 -0.5407  0.6509
  987TIP3    H1 2925   6.874   6.195   1.262 -1.3421  0.9103  0.7196
  987TIP3    H2 2926   6.900   6.105   1.381  1.3740 -0.7017 -1.0063
  988TIP3   OH2 2927   3.221   3.355   0.296  0.3098 -0.6853 -0.2005
  988TIP3    H1 2928   3.273   3.284   0.259  1.8740  0.2302  0.1230
  988TIP3    H2 2929   3.148   3.312   0.340  0.4146 -1.9823 -1.2564
  989TIP3   OH2 2930   3.761   0.921   1.416  0.1155  0.2190  0.0172
  989TIP3    H1 2931   3.811   0.892   1.493  1.3489 -0.4808 -1.0232
  989TIP3    H2 2932   3.762   1.017   1.423  2.3834  0.2847 -0.4145
  990TIP3   OH2 2933   0.636   6.616   1.696  0.6479 -0.4429  0.2888
  990TIP3    H1 2934   0.597   6.585   1.778 -1.7064  3.0870  0.6898
  990TIP3    H2 2935   0.564   6.614   1.633  2.0071 -1.4861 -1.3170
  991TIP3   OH2 2936   6.873   5.695   2.957  0.3905 -0.4297  0.0815
  991TIP3    H1 2937   6.788   5.668   2.922 -0.5896  1.4284  0.8838
  991TIP3    H2 2938   6.898   5.770   2.904  1.3206 -0.6627  0.1739
  992TIP3   OH2 2939   7.143   1.121   3.812  0.0224 -0.3143 -0.0411
  992TIP3    H1 2940   7.110   1.189   3.871 -0.7138  0.2255 -1.0527
  992TIP3    H2 2941   7.237   1.117   3.830 -0.3016 -0.8005  1.8073
  993TIP3   OH2 2942   6.485   2.618   1.496 -0.3119 -0.2745  0.2582
  993TIP3    H1 2943   6.399   2.650   1.470  0.0124  0.6552  0.3098
  993TIP3    H2 2944   6.547   2.672   1.447  0.2466 -1.9284 -0.9535
  994TIP3   OH2 2945   7.036   2.012   1.943 -0.4131  0.6351  0.3107
  994TIP3    H1 2946   6.949   2.030   1.980 -1.0253 -0.5531 -0.4672
  994TIP3    H2 2947   7.097   2.034   2.012 -1.3798  0.7979  1.1387
  995TIP3   OH2 2948   6.634   5.102   2.384  0.0672 -0.7332 -0.4417
  995TIP3    H1 2949   6.708   5.042   2.376 -0.2892 -1.3283  0.5445
  995TIP3    H2 2950   6.637   5.132   2.475 -0.7554 -0.5710 -0.4576
  996TIP3   OH2 2951   4.682   1.917   3.427 -0.1443  0.6973  0.2106
  996TIP3    H1 2952   4.667   1.856   3.499 -0.1828  1.4963  0.8953
  996TIP3    H2 2953   4.596   1.955   3.410  0.2342  2.0583  1.1837
  997TIP3   OH2 2954   2.892   5.964   5.004 -0.1790  0.8538 -0.2551
  997TIP3    H1 2955   2.921   6.049   5.037 -1.0052  1.4340 -1.0090
  997TIP3    H2 2956   2.842   5.983   4.925 -1.8797 -0.1865  0.5080
  998TIP3   OH2 2957   0.543   2.188   1.151 -0.0606 -0.4787  0.5490
  998TIP3    H1 2958   0.453   2.153   1.152  0.1874 -1.1317  0.3996
  998TIP3    H2 2959   0.596   2.115   1.121  0.3149  0.3746 -0.9627
  999TIP3   OH2 2960   7.185   3.352   4.100 -0.1465  0.2827 -0.0734
  999TIP3    H1 2961   7.266   3.309   4.127 -0.9315 -0.9757  0.3899
  999TIP3    H2 2962   7.131   3.281   4.064 -0.8249  1.1982 -0.9077
 1000TIP3   OH2 2963   3.472   3.889   1.869  0.0624 -0.0121 -0.1155
 1000TIP3    H1 2964   3.491   3.846   1.785  2.1508 -0.2786  0.4378
 1000TIP3    H2 2965   3.496   3.823   1.935 -1.4857  0.2206  0.7175
 1001TIP3   OH2 2966   5.297   0.669   3.808  0.1235 -0.0086 -0.3414
 1001TIP3    H1 2967   5.334   0.719   3.735  0.1965  0.3727 -0.0510
 1001TIP3    H2 2968   5.367   0.668   3.873 -0.3694  0.7366  0.2183
 1002TIP3   OH2 2969   3.254   4.416   5.680  0.3363  0.0367 -0.5686
 1002TIP3    H1 2970   3.186   4.466   5.724 -0.1874 -2.1056  1.2202
 1002TIP3    H2 2971   3.308   4.380   5.750  2.4699  0.4467 -1.8933
 1003TIP3   OH2 2972   2.998   2.797   1.314  0.7338 -0.2237  0.5582
 1003TIP3    H1 2973   2.925   2.737   1.330 -0.0979  0.5115 -0.3359
 1003TIP3    H2 2974   3.072   2.740   1.294  0.2807 -0.9719  0.9771
 1004TIP3   OH2 2975   5.324   5.367   2.743 -0.6055 -0.7999  0.2285
 1004TIP3    H1 2976   5.367   5.435   2.691 -1.5588 -1.6404 -1.7842
 1004TIP3    H2 2977   5.392   5.338   2.804  0.3071  0.8511  0.0668
 1005TIP3   OH2 2978   0.278   2.402   3.266 -0.3639 -0.3621 -0.0905
 1005TIP3    H1 2979   0.220   2.475   3.284  0.8105  0.1262  2.0103
 1005TIP3    H2 2980   0.364   2.442   3.251 -0.2165 -1.1694 -1.6543
 1006TIP3   OH2 2981   1.079   1.916   3.271 -0.0579  0.0278 -0.0551
 1006TIP3    H1 2982   1.051   1.918   3.179 -0.8878  0.4019  0.1984
 1006TIP3    H2 2983   1.009   1.870   3.316  1.3392 -2.1171  0.0775
 1007TIP3   OH2 2984   5.362   6.273   2.896 -0.5479  0.0549 -0.2613
 1007TIP3    H1 2985   5.411   6.236   2.969 -1.0887  0.2247  0.2000
 1007TIP3    H2 2986   5.348   6.364   2.922 -0.8741  0.0745 -0.5101
 1008TIP3   OH2 2987   5.313   4.118   5.131 -0.1335  1.0734 -0.1747
 1008TIP3    H1 2988   5.266   4.079   5.205 -0.9975  0.2365 -1.1222
 1008TIP3    H2 2989   5.316   4.211   5.150 -2.5804  1.2433 -0.2312
 1009TIP3   OH2 2990   6.174   1.501   5.784 -0.1833 -0.3826 -0.1882
 1009TIP3    H1 2991   6.193   1.568   5.718  0.3187  0.8029  1.1087
 1009TIP3    H2 2992   6.102   1.537   5.834 -1.1045 -1.6400 -0.5522
 1010TIP3   OH2 2993   4.111   6.668   4.815  0.2635 -0.1072 -0.9958
 1010TIP3    H1 2994   4.059   6.711   4.746 -1.0124  1.4384  0.8111
 1010TIP3    H2 2995   4.136   6.739   4.874 -0.8225 -1.5973  1.4607
 1011TIP3   OH2 2996   6.461   6.487   1.512 -0.7993  0.0558  0.1186
 1011TIP3    H1 2997   6.508   6.443   1.441  1.1285  1.1436  0.6278
 1011TIP3    H2 2998   6.437   6.572   1.475 -1.3876 -0.0637  0.2211
 1012TIP3   OH2 2999   6.367   3.107   5.257 -0.2636  0.4948  0.1191
 1012TIP3    H1 3000   6.457   3.140   5.254  0.1723 -0.7472 -1.2669
 1012TIP3    H2 3001   6.366   3.046   5.331  0.3508 -0.3260 -0.5332
 1013TIP3   OH2 3002   2.453   5.488   5.831  0.3860 -0.1498  0.2564
 1013TIP3    H1 3003   2.534   5.472   5.783 -0.2291 -1.4467 -0.4032
 1013TIP3    H2 3004   2.423   5.574   5.799  1.3608  0.2346  0.3353
 1014TIP3   OH2 3005   5.424   2.069   3.876  0.1105  0.2344 -0.0323
 1014TIP3    H1 3006   5.498   2.129   3.868  1.6057 -1.6607 -1.1982
 1014TIP3    H2 3007   5.459   1.995   3.927 -1.8605  0.5476  1.9347
 1015TIP3   OH2 3008   5.005   0.646   3.476 -0.1573 -0.2678 -0.5061
 1015TIP3    H1 3009   4.992   0.559   3.438 -0.4800  0.2139 -1.5156
 1015TIP3    H2 3010   5.053   0.629   3.558 -2.9249 -1.6717  0.9649
 1016TIP3   OH2 3011   0.872   2.373   2.656  0.3571 -0.2622 -0.1319
 1016TIP3    H1 3012   0.785   2.399   2.686  0.5550  0.1521  0.1066
 1016TIP3    H2 3013   0.928   2.383   2.734  0.8088  0.4667 -0.5343
 1017TIP3   OH2 3014   4.509   5.370   0.645  0.3229 -0.5966  0.1305
 1017TIP3    H1 3015   4.541   5.459   0.656 -1.4570  0.1004 -0.0171
 1017TIP3    H2 3016   4.445   5.375   0.574 -0.7232 -1.7051  0.9307
 1018TIP3   OH2 3017   5.696   5.232   5.533 -0.0598  0.0385 -0.1858
 1018TIP3    H1 3018   5.720   5.290   5.605  1.0443  1.6874 -1.7895
 1018TIP3    H2 3019   5.769   5.170   5.526  0.2144  0.3868 -0.4005
 1019TIP3   OH2 3020   2.146   4.738   2.960  0.0505 -0.3133  0.1750
 1019TIP3    H1 3021   2.222   4.684   2.941 -0.9490 -1.5469 -0.4851
 1019TIP3    H2 3022   2.170   4.826   2.929  1.1508 -0.7011 -0.1030
 1020TIP3   OH2 3023   5.746   1.506   2.524  0.4647  0.0306  0.4323
 1020TIP3    H1 3024   5.716   1.449   2.595  0.3831 -0.8252 -0.2840
 1020TIP3    H2 3025   5.668   1.556   2.499 -0.1274 -1.3732 -0.6476
 1021TIP3   OH2 3026   0.448   0.590   0.139 -0.2907  0.5473  0.5301
 1021TIP3    H1 3027   0.516   0.555   0.197 -1.0601 -1.6466  0.2248
 1021TIP3    H2 3028   0.383   0.628   0.199 -0.5455 -0.6972  1.0809
 1022TIP3   OH2 3029   4.161   1.792   3.217 -0.1464  0.1146  0.1790
 1022TIP3    H1 3030   4.144   1.851   3.144  1.1868  0.4799  0.1352
 1022TIP3    H2 3031   4.100   1.819   3.285 -1.4337 -0.2461 -0.7828
 1023TIP3   OH2 3032   1.437   5.134   5.523 -0.0141  0.1215  0.0951
 1023TIP3    H1 3033   1.439   5.060   5.583 -0.2704  0.1245  0.1111
 1023TIP3    H2 3034   1.496   5.110   5.452  0.5787  0.2771  0.5280
 1024TIP3   OH2 3035   0.699   6.621   5.669 -0.1078 -0.2841 -0.4948
 1024TIP3    H1 3036   0.713   6.590   5.759 -0.9494  1.2870  0.2298
 1024TIP3    H2 3037   0.616   6.670   5.674  0.8889  1.6383 -1.6375
 1025TIP3   OH2 3038   0.429   6.420   1.281  0.4789 -0.4597 -0.6927
 1025TIP3    H1 3039   0.482   6.432   1.202  0.8237  0.1456 -0.3740
 1025TIP3    H2 3040   0.474   6.352   1.330  0.9521  0.0304 -0.4389
 1026TIP3   OH2 3041   6.514   2.663   2.238 -0.0089 -0.1341  0.0997
 1026TIP3    H1 3042   6.535   2.642   2.329  0.9680 -0.5291 -0.2007
 1026TIP3    H2 3043   6.499   2.578   2.196 -2.6478  0.1448  0.3686
 1027TIP3   OH2 3044   1.869   0.349   3.142  0.2782 -0.7271 -1.2791
 1027TIP3    H1 3045   1.826   0.384   3.220 -0.4369 -0.8058 -1.6303
 1027TIP3    H2 3046   1.946   0.404   3.130 -1.7224  1.9833 -2.8549
 1028TIP3   OH2 3047   0.171   6.538   1.649  0.2566 -0.1891 -0.1695
 1028TIP3    H1 3048   0.084   6.500   1.635  0.1670  0.7272 -2.5388
 1028TIP3    H2 3049   0.222   6.467   1.689 -1.0113 -1.4161 -0.6446
 1029TIP3   OH2 3050   6.676   6.407   2.521 -0.0769  0.3296 -0.1673
 1029TIP3    H1 3051   6.745   6.362   2.569 -1.5675 -2.3501 -0.3559
 1029TIP3    H2 3052   6.710   6.418   2.433  0.0584 -1.1998 -0.3233
 1030TIP3   OH2 3053   6.958   5.974   4.072  0.2831 -0.5005  0.0772
 1030TIP3    H1 3054   6.948   6.045   4.135  0.8083 -1.5493  1.3873
 1030TIP3    H2 3055   7.002   6.015   3.997  0.1673  0.6472  0.6149
 1031TIP3   OH2 3056   2.264   1.287   4.602 -0.5580 -0.1343  0.0313
 1031TIP3    H1 3057   2.170   1.300   4.616 -1.0806 -2.6855 -0.5137
 1031TIP3    H2 3058   2.295   1.371   4.569 -2.9322  0.4131 -1.0317
 1032TIP3   OH2 3059   2.203   2.541   3.185  0.6039 -0.3860  0.6808
 1032TIP3    H1 3060   2.126   2.484   3.180 -0.0364  0.4892  0.3782
 1032TIP3    H2 3061   2.168   2.628   3.205  1.4892  0.0633  0.3485
 1033TIP3   OH2 3062   6.199   3.049   2.181 -0.2345  0.1679 -0.2171
 1033TIP3    H1 3063   6.167   2.989   2.113 -1.9919 -0.8328  1.3858
 1033TIP3    H2 3064   6.280   3.084   2.146  1.3296 -3.6996 -1.0294
 1034TIP3   OH2 3065   3.320   3.306   2.964  0.0766 -0.6936 -0.4154
 1034TIP3    H1 3066   3.226   3.315   2.949  0.1712  1.1063 -0.2123
 1034TIP3    H2 3067   3.361   3.357   2.894  0.8671 -0.7092  0.0170
 1035TIP3   OH2 3068   2.907   2.614   5.260  0.0826  0.5007  0.0421
 1035TIP3    H1 3069   2.995   2.582   5.282 -0.2654  0.3852  1.3453
 1035TIP3    H2 3070   2.874   2.551   5.196 -0.2470 -1.3387  1.9021
 1036TIP3   OH2 3071   2.784   5.189   3.131 -0.6869 -0.0134 -0.4530
 1036TIP3    H1 3072   2.777   5.115   3.070 -0.7809 -0.8945  0.5912
 1036TIP3    H2 3073   2.876   5.189   3.158 -0.5395  0.6635 -0.9290
 1037TIP3   OH2 3074   4.559   6.583   1.247  0.3176  0.0374 -0.4451
 1037TIP3    H1 3075   4.634   6.571   1.306  0.9936  1.6544 -0.9017
 1037TIP3    H2 3076   4.535   6.495   1.220  1.1906 -0.6067  0.7752
 1038TIP3   OH2 3077   3.620   5.514   4.480 -0.3656 -0.4078  0.4477
 1038TIP3    H1 3078   3.671   5.463   4.543  1.5990 -0.6441 -1.2199
 1038TIP3    H2 3079   3.621   5.603   4.515  0.8546 -0.4950  0.6804
 1039TIP3   OH2 3080   4.192   6.202   1.719  0.6100  0.4620  0.2275
 1039TIP3    H1 3081   4.203   6.239   1.631  0.3304  0.7517  0.3129
 1039TIP3    H2 3082   4.223   6.270   1.778 -1.2467  1.1621  0.4601
 1040TIP3   OH2 3083   3.148   2.711   0.849 -0.1602  0.0424  0.2234
 1040TIP3    H1 3084   3.218   2.651   0.823  0.5394  0.6421  0.6779
 1040TIP3    H2 3085   3.193   2.786   0.887 -1.0433  0.5802  0.2560
 1041TIP3   OH2 3086   1.741   4.748   3.455  0.4248 -0.4320 -0.0668
 1041TIP3    H1 3087   1.708   4.771   3.542  0.1630 -0.2871 -0.2030
 1041TIP3    H2 3088   1.668   4.703   3.412  1.2689 -2.5206  0.5722
 1042TIP3   OH2 3089   6.403   2.830   4.532  0.4518 -0.2343  0.1061
 1042TIP3    H1 3090   6.348   2.801   4.459  1.8023 -0.8543 -0.7074
 1042TIP3    H2 3091   6.471   2.883   4.491 -0.7549  2.4053  1.3517
 1043TIP3   OH2 3092   2.356   6.024   2.333  0.9697  0.1418 -0.2845
 1043TIP3    H1 3093   2.437   5.997   2.375  0.4471  1.6680  1.8684
 1043TIP3    H2 3094   2.287   5.999   2.395 -0.1735 -0.3584 -1.6785
 1044TIP3   OH2 3095   1.830   6.016   3.360 -0.4742 -0.1357 -0.5412
 1044TIP3    H1 3096   1.860   6.087   3.303 -0.6660 -0.0766 -0.5697
 1044TIP3    H2 3097   1.734   6.021   3.356 -0.4901  0.0206 -0.0185
 1045TIP3   OH2 3098   3.929   0.952   3.903  0.2070 -0.4089 -0.2275
 1045TIP3    H1 3099   3.876   0.883   3.863 -1.0257  0.6203 -0.4282
 1045TIP3    H2 3100   3.900   1.033   3.860  2.5942  0.1055 -1.0023
 1046TIP3   OH2 3101   2.013   5.056   0.942 -0.3201 -0.2634  0.2743
 1046TIP3    H1 3102   2.031   5.024   0.854  0.8033  0.0928  0.3620
 1046TIP3    H2 3103   1.919   5.043   0.954 -1.1143  2.3312 -2.0803
 1047TIP3   OH2 3104   2.537   1.403   1.908  0.3508 -0.2739 -0.7272
 1047TIP3    H1 3105   2.458   1.433   1.954  0.8455  1.6046 -1.0265
 1047TIP3    H2 3106   2.521   1.425   1.816  1.0286 -0.3447 -0.8665
 1048TIP3   OH2 3107   6.208   3.780   0.971 -0.2985 -0.2275  0.1169
 1048TIP3    H1 3108   6.201   3.866   1.012  0.4559  0.4374 -1.0809
 1048TIP3    H2 3109   6.166   3.791   0.885  1.9730 -0.3051 -1.0844
 1049TIP3   OH2 3110   5.136   4.979   3.561 -0.2710  0.7310 -0.2391
 1049TIP3    H1 3111   5.132   4.886   3.541  0.4492  0.7999 -0.7391
 1049TIP3    H2 3112   5.066   4.993   3.625 -0.6607 -0.0662 -0.4767
 1050TIP3   OH2 3113   3.802   4.827   1.392 -0.4700  0.2034  0.2958
 1050TIP3    H1 3114   3.876   4.766   1.395 -1.1059 -0.5513  1.3022
 1050TIP3    H2 3115   3.734   4.785   1.444 -1.5391  0.9980 -0.4116
 1051TIP3   OH2 3116   5.487   6.473   3.270 -0.1654 -0.2481  0.5299
 1051TIP3    H1 3117   5.454   6.437   3.188 -0.6372 -0.8230  0.9595
 1051TIP3    H2 3118   5.410   6.477   3.327 -0.4011  2.6017  0.1311
 1052TIP3   OH2 3119   4.006   3.531   5.640  0.2474  0.0994  0.5387
 1052TIP3    H1 3120   4.053   3.606   5.677 -0.4124  0.1899  1.2413
 1052TIP3    H2 3121   3.962   3.567   5.563  3.2419 -0.5587 -1.6020
 1053TIP3   OH2 3122   7.110   1.943   0.216 -0.3698  0.4410  0.4481
 1053TIP3    H1 3123   7.168   1.894   0.158  0.1099  0.8811  0.5465
 1053TIP3    H2 3124   7.146   1.929   0.303 -0.5174  0.5752  0.5317
 1054TIP3   OH2 3125   2.743   2.770   4.917  0.4950 -0.1642 -0.4285
 1054TIP3    H1 3126   2.735   2.687   4.965 -0.2240 -0.2458 -0.6742
 1054TIP3    H2 3127   2.668   2.770   4.857 -0.1258  1.1655  0.3143
 1055TIP3   OH2 3128   2.366   3.625   0.812  0.1934 -0.0568  0.0455
 1055TIP3    H1 3129   2.370   3.715   0.778  0.7822  0.1041  0.5244
 1055TIP3    H2 3130   2.444   3.583   0.776  0.6418  0.0189  0.9097
 1056TIP3   OH2 3131   6.239   1.717   5.609 -0.2314  0.2494  0.1591
 1056TIP3    H1 3132   6.203   1.696   5.523 -0.7415  2.0926 -0.1177
 1056TIP3    H2 3133   6.333   1.730   5.592 -0.2791  0.3226 -0.0586
 1057TIP3   OH2 3134   0.962   4.333   1.946 -0.0562 -0.5302 -0.4741
 1057TIP3    H1 3135   0.982   4.320   1.853  0.1996 -0.9735 -0.3564
 1057TIP3    H2 3136   1.009   4.414   1.969 -0.7280 -0.0034 -0.9133
 1058TIP3   OH2 3137   5.805   3.037   5.120 -0.8353  0.1062  0.0992
 1058TIP3    H1 3138   5.839   3.067   5.204  0.4872 -0.8256 -0.0745
 1058TIP3    H2 3139   5.774   2.948   5.136  0.0779 -0.3442 -0.5327
 1059TIP3   OH2 3140   2.262   0.580   1.309 -0.1753 -0.2568 -0.1307
 1059TIP3    H1 3141   2.200   0.650   1.327 -1.0497 -0.7864 -0.9697
 1059TIP3    H2 3142   2.270   0.532   1.391 -0.3209  0.2457  0.1762
 1060TIP3   OH2 3143   1.516   0.521   0.850 -0.3082 -0.2790  0.1437
 1060TIP3    H1 3144   1.487   0.546   0.762  4.1816  0.1586 -1.4561
 1060TIP3    H2 3145   1.514   0.603   0.899 -0.6833 -0.0704 -0.2070
 1061TIP3   OH2 3146   2.642   6.132   4.619 -0.0379  0.6048  0.5157
 1061TIP3    H1 3147   2.674   6.207   4.669  0.8689  0.5024  0.1161
 1061TIP3    H2 3148   2.600   6.170   4.542 -0.8330  0.7395  1.0055
 1062TIP3   OH2 3149   0.709   1.434   0.370 -0.3757  0.0408  0.0811
 1062TIP3    H1 3150   0.743   1.345   0.365  0.3554  0.3454 -0.5467
 1062TIP3    H2 3151   0.718   1.458   0.463  1.4516  0.2202 -0.1011
 1063TIP3   OH2 3152   6.420   1.791   4.006 -0.1951 -0.2699  0.0349
 1063TIP3    H1 3153   6.346   1.834   3.964  0.1520  0.1465 -0.1643
 1063TIP3    H2 3154   6.478   1.768   3.934  0.1621 -0.0171  0.2367
 1064TIP3   OH2 3155   6.544   2.460   0.665  0.1836 -0.0576  0.4779
 1064TIP3    H1 3156   6.530   2.435   0.756 -1.1278 -2.1204 -0.2260
 1064TIP3    H2 3157   6.455   2.472   0.630  0.4717 -2.3557 -1.2752
 1065TIP3   OH2 3158   5.957   4.635   4.765  0.2135 -0.1622 -0.4856
 1065TIP3    H1 3159   5.977   4.544   4.741  0.4032 -0.4965  0.8459
 1065TIP3    H2 3160   5.862   4.642   4.758 -0.0329 -1.0719  1.2533
 1066TIP3   OH2 3161   2.632   2.478   4.709  0.2241  0.6258  0.4976
 1066TIP3    H1 3162   2.642   2.536   4.784  1.1185  0.7438  0.2912
 1066TIP3    H2 3163   2.585   2.402   4.743 -0.4844  1.2291  0.8895
 1067TIP3   OH2 3164   1.879   4.656   2.911  0.0382  0.1203  0.2049
 1067TIP3    H1 3165   1.908   4.624   2.825 -1.1362 -0.0957 -0.1348
 1067TIP3    H2 3166   1.959   4.668   2.961  0.7545  0.3879 -0.9750
 1068TIP3   OH2 3167   5.993   6.118   5.587  0.3189  0.0198  0.2456
 1068TIP3    H1 3168   6.038   6.106   5.503  1.1555 -1.0534  0.8183
 1068TIP3    H2 3169   5.928   6.047   5.589 -0.9475  1.1254 -0.2566
 1069TIP3   OH2 3170   3.629   0.417   4.848  0.0860 -0.3262 -0.1113
 1069TIP3    H1 3171   3.542   0.390   4.877  0.1600  0.8243  1.2552
 1069TIP3    H2 3172   3.612   0.488   4.785  0.0299  0.3532  0.6523
 1070TIP3   OH2 3173   0.890   2.535   5.016 -0.1079 -0.3765  0.1416
 1070TIP3    H1 3174   0.945   2.542   5.094  1.3318 -3.7131 -0.4035
 1070TIP3    H2 3175   0.851   2.448   5.022 -0.3772 -0.5417 -2.5947
 1071TIP3   OH2 3176   0.861   0.477   1.307 -0.2827 -0.5198 -0.4176
 1071TIP3    H1 3177   0.905   0.430   1.236  0.4915  1.3852 -1.2685
 1071TIP3    H2 3178   0.933   0.509   1.361 -0.7416  0.4420 -0.3707
 1072TIP3   OH2 3179   3.613   5.678   1.755 -0.5609 -0.1047  0.0486
 1072TIP3    H1 3180   3.645   5.739   1.689 -0.0381  0.1998  0.5672
 1072TIP3    H2 3181   3.518   5.684   1.749 -0.5554  1.7778  0.9678
 1073TIP3   OH2 3182   3.434   5.130   0.426 -0.1187 -0.2413 -0.2550
 1073TIP3    H1 3183   3.409   5.137   0.518 -0.1033 -0.4580 -0.2357
 1073TIP3    H2 3184   3.398   5.046   0.397 -0.4216 -0.0183 -0.5393
 1074TIP3   OH2 3185   4.945   2.661   3.909  0.1207 -0.0704 -0.1747
 1074TIP3    H1 3186   5.025   2.609   3.908 -0.3529 -0.8049 -0.2022
 1074TIP3    H2 3187   4.878   2.604   3.872 -0.0773  1.0991 -1.7577
 1075TIP3   OH2 3188   4.940   0.463   5.504  0.1523  0.1859  0.7470
 1075TIP3    H1 3189   4.951   0.506   5.419 -0.2879 -1.0154  0.0708
 1075TIP3    H2 3190   5.024   0.420   5.520  0.5607  1.1664  1.3830
 1076TIP3   OH2 3191   4.787   5.823   5.643  0.3188 -0.0099  0.3466
 1076TIP3    H1 3192   4.709   5.877   5.655 -0.3445 -1.1028  1.0569
 1076TIP3    H2 3193   4.860   5.882   5.661 -0.3364  0.9673 -0.1167
 1077TIP3   OH2 3194   5.637   4.187   2.581 -0.0137 -0.5127 -0.1714
 1077TIP3    H1 3195   5.604   4.098   2.596 -0.8922 -0.1389  0.1552
 1077TIP3    H2 3196   5.592   4.216   2.502  0.0754 -0.2634 -0.1310
 1078TIP3   OH2 3197   0.699   5.996   2.969  0.3150 -0.1065 -0.3757
 1078TIP3    H1 3198   0.757   5.931   2.930 -0.1487 -0.6018 -0.2465
 1078TIP3    H2 3199   0.756   6.069   2.991  0.8277 -0.4397 -0.5944
 1079TIP3   OH2 3200   1.640   2.055   1.307  0.1219 -0.2783 -0.1602
 1079TIP3    H1 3201   1.670   2.096   1.226 -1.5915  0.0163 -0.6878
 1079TIP3    H2 3202   1.580   1.987   1.279 -1.4407  0.6202  0.8691
 1080TIP3   OH2 3203   6.511   0.831   2.260 -0.3911 -0.1492 -1.1760
 1080TIP3    H1 3204   6.507   0.834   2.356 -3.8606  1.3980 -1.2354
 1080TIP3    H2 3205   6.571   0.902   2.236 -0.5639  0.3453 -0.1848
 1081TIP3   OH2 3206   0.044   6.207   4.255 -0.0684 -0.6684 -0.2340
 1081TIP3    H1 3207   0.112   6.210   4.323 -1.0647  1.0525  0.7668
 1081TIP3    H2 3208   0.088   6.241   4.177  0.8550 -1.8594 -0.2714
 1082TIP3   OH2 3209   1.335   6.214   2.848 -0.3270  0.7584  0.0347
 1082TIP3    H1 3210   1.265   6.228   2.784 -0.5190 -0.2322  0.0055
 1082TIP3    H2 3211   1.351   6.119   2.845 -0.6000  0.6318  1.7379
 1083TIP3   OH2 3212   0.219   3.232   1.025  0.7348 -0.4200 -0.8206
 1083TIP3    H1 3213   0.309   3.204   1.041  0.5520 -0.3187  0.5828
 1083TIP3    H2 3214   0.226   3.321   0.992  1.1604 -0.3912 -0.6544
 1084TIP3   OH2 3215   1.364   3.191   5.291  0.2942  0.0546  0.0184
 1084TIP3    H1 3216   1.354   3.132   5.365 -1.1146  0.4231  0.1438
 1084TIP3    H2 3217   1.458   3.210   5.288  0.2523  0.8232  2.3220
 1085TIP3   OH2 3218   1.057   4.134   3.828  0.0270 -0.0135  0.6479
 1085TIP3    H1 3219   1.137   4.097   3.864 -0.3428 -0.1657  1.3244
 1085TIP3    H2 3220   1.010   4.059   3.792  0.2410  0.0929  0.1360
 1086TIP3   OH2 3221   3.467   1.493   0.142  0.0260 -0.3182  0.0131
 1086TIP3    H1 3222   3.390   1.498   0.199  1.1299  0.1304  1.5122
 1086TIP3    H2 3223   3.453   1.413   0.091 -1.4255 -0.2442  0.2525
 1087TIP3   OH2 3224   0.671   5.792   2.190  0.8210  0.2678  0.0117
 1087TIP3    H1 3225   0.606   5.795   2.119 -0.0229 -2.7950  0.5447
 1087TIP3    H2 3226   0.734   5.725   2.163  1.3523  0.1358  1.4773
 1088TIP3   OH2 3227   5.520   6.769   2.422 -0.3760 -0.1480 -0.5174
 1088TIP3    H1 3228   5.592   6.799   2.367  0.0398 -0.6956 -0.2767
 1088TIP3    H2 3229   5.548   6.684   2.456 -0.8036 -0.0207  0.1917
 1089TIP3   OH2 3230   7.132   0.643   5.806 -0.8304 -0.2493 -0.7490
 1089TIP3    H1 3231   7.078   0.718   5.781 -1.1157  0.1580  0.9621
 1089TIP3    H2 3232   7.114   0.630   5.899  2.5714  0.4473  0.1657
 1090TIP3   OH2 3233   7.081   2.592   0.872 -0.3799  0.2765  0.1283
 1090TIP3    H1 3234   7.150   2.628   0.928 -0.8793 -0.8932  1.5476
 1090TIP3    H2 3235   6.999   2.620   0.913 -0.7667 -1.6158  0.7039
 1091TIP3   OH2 3236   3.166   1.105   5.267  0.0209  0.1883  0.3756
 1091TIP3    H1 3237   3.103   1.082   5.199 -0.0804  0.2423  0.4503
 1091TIP3    H2 3238   3.249   1.067   5.237 -0.1826 -0.4397  0.5972
 1092TIP3   OH2 3239   6.354   2.952   3.764 -0.8150 -0.1978 -0.2189
 1092TIP3    H1 3240   6.432   2.897   3.771  0.8401  2.1698  0.9625
 1092TIP3    H2 3241   6.353   2.982   3.673 -0.0156  0.2331 -0.0850
 1093TIP3   OH2 3242   0.486   3.751   3.835  0.0763 -0.2061 -0.3070
 1093TIP3    H1 3243   0.558   3.813   3.823  0.3786 -0.3416  0.7410
 1093TIP3    H2 3244   0.445   3.744   3.748  0.3669  1.0466 -0.5582
 1094TIP3   OH2 3245   5.717   0.316   3.464  0.2026 -0.1290  0.2569
 1094TIP3    H1 3246   5.686   0.327   3.374 -1.0342 -0.9400  0.5577
 1094TIP3    H2 3247   5.656   0.367   3.517  0.3170 -0.4760  0.7290
 1095TIP3   OH2 3248   5.761   0.460   4.013  0.1278 -0.0366  0.1898
 1095TIP3    H1 3249   5.802   0.469   4.099 -1.3698  1.4949  0.7960
 1095TIP3    H2 3250   5.824   0.499   3.952  0.6884 -0.0648  0.7386
 1096TIP3   OH2 3251   5.604   4.526   5.594  0.0312 -0.7764 -0.1553
 1096TIP3    H1 3252   5.599   4.621   5.596 -0.4794 -0.8028 -0.1676
 1096TIP3    H2 3253   5.518   4.497   5.563 -0.5528 -1.3230  1.8443
 1097TIP3   OH2 3254   0.373   0.384   5.897  0.0273  0.0570  0.2064
 1097TIP3    H1 3255   0.423   0.464   5.912 -1.2474  0.6876  1.3160
 1097TIP3    H2 3256   0.351   0.388   5.804 -0.3301  1.2090  0.3147
 1098TIP3   OH2 3257   0.476   0.259   0.377 -0.3220  0.3440 -0.7126
 1098TIP3    H1 3258   0.457   0.194   0.444  1.1302 -0.7865 -1.3263
 1098TIP3    H2 3259   0.395   0.267   0.328 -0.8882 -0.1019  0.1284
 1099TIP3   OH2 3260   3.231   0.136   5.564  0.5524 -0.3265 -0.1526
 1099TIP3    H1 3261   3.249   0.217   5.612 -0.3687 -0.3687  0.2940
 1099TIP3    H2 3262   3.137   0.121   5.576  0.2369 -0.2259 -2.1730
 1100TIP3   OH2 3263   3.656   4.747   0.349  0.7069  0.4489  0.0615
 1100TIP3    H1 3264   3.714   4.770   0.422  0.1535  0.4132  0.5217
 1100TIP3    H2 3265   3.608   4.671   0.380 -0.6336  1.3530  0.2764
 1101TIP3   OH2 3266   2.413   0.347   1.728 -0.4692  0.4849  0.7762
 1101TIP3    H1 3267   2.470   0.408   1.682  0.3819 -0.8955 -0.0506
 1101TIP3    H2 3268   2.465   0.319   1.804  0.2550 -1.1971 -0.2732
 1102TIP3   OH2 3269   2.590   5.971   5.630 -0.4223  0.6535 -0.6749
 1102TIP3    H1 3270   2.583   6.047   5.572  1.2309  0.8632 -0.6561
 1102TIP3    H2 3271   2.631   6.006   5.710  0.0709 -0.1837 -0.5530
 1103TIP3   OH2 3272   7.061   4.093   2.338 -0.2632  0.4587 -0.2542
 1103TIP3    H1 3273   7.053   4.017   2.280  0.1563  0.7987 -0.7731
 1103TIP3    H2 3274   7.116   4.154   2.289  0.4501  0.5835  0.6886
 1104TIP3   OH2 3275   2.656   4.915   1.231  0.2484 -0.2425  0.0652
 1104TIP3    H1 3276   2.579   4.929   1.286  0.8312 -1.4070  1.2228
 1104TIP3    H2 3277   2.622   4.917   1.142 -0.9838  0.0860  0.5182
 1105TIP3   OH2 3278   0.183   3.802   0.032  0.2179  0.1164 -0.2924
 1105TIP3    H1 3279   0.121   3.771  -0.034  0.0797  0.2533 -0.2278
 1105TIP3    H2 3280   0.128   3.842   0.099  0.3128 -0.6712  0.2627
 1106TIP3   OH2 3281   0.407   6.552   3.287 -0.2153 -0.0547 -0.1821
 1106TIP3    H1 3282   0.378   6.552   3.379 -0.6492 -0.7952 -0.3112
 1106TIP3    H2 3283   0.410   6.644   3.263 -0.2820  0.1365  0.5249
 1107TIP3   OH2 3284   3.315   3.644   0.788  0.1639  0.3817  0.4564
 1107TIP3    H1 3285   3.399   3.611   0.756 -0.1734  1.2948 -1.5245
 1107TIP3    H2 3286   3.251   3.617   0.722 -0.9941  0.3677  1.5350
 1108TIP3   OH2 3287   5.856   0.383   0.953 -0.1411  0.1742  0.2158
 1108TIP3    H1 3288   5.941   0.341   0.966 -1.3688 -2.4176  0.5644
 1108TIP3    H2 3289   5.857   0.458   1.012  1.6052 -0.2638  0.7936
 1109TIP3   OH2 3290   6.185   0.433   3.534  0.3675 -0.9038  0.3642
 1109TIP3    H1 3291   6.117   0.371   3.507  0.0834  0.4170 -2.1491
 1109TIP3    H2 3292   6.266   0.394   3.502  0.2791 -0.4207 -0.4795
 1110TIP3   OH2 3293   3.406   0.188   5.096  0.3237 -0.1516  0.4609
 1110TIP3    H1 3294   3.469   0.242   5.049 -0.2454  1.2314  1.2062
 1110TIP3    H2 3295   3.435   0.192   5.187  1.3301 -2.6673  0.3210
 1111TIP3   OH2 3296   0.355   2.825   0.474 -0.0081 -0.5432  0.0477
 1111TIP3    H1 3297   0.287   2.795   0.534 -0.7053 -0.6201 -0.7655
 1111TIP3    H2 3298   0.436   2.789   0.510 -0.6459 -2.2391 -0.1262
 1112TIP3   OH2 3299   0.257   3.697   1.418  0.1723  0.5368 -0.1604
 1112TIP3    H1 3300   0.276   3.608   1.445  1.5158  0.6214 -0.7414
 1112TIP3    H2 3301   0.261   3.748   1.499  0.1283  0.1759  0.0708
 1113TIP3   OH2 3302   6.756   1.441   5.284 -0.5448  0.0127 -0.1718
 1113TIP3    H1 3303   6.782   1.436   5.192 -0.9381  0.5444 -0.3178
 1113TIP3    H2 3304   6.781   1.529   5.312  2.8052 -1.2410  1.2693
 1114TIP3   OH2 3305   2.010   4.288   4.459  0.0031 -0.9690  0.0622
 1114TIP3    H1 3306   2.057   4.371   4.458 -0.1309 -0.8224  1.7319
 1114TIP3    H2 3307   1.996   4.267   4.367  1.4650  0.0310 -0.4369
 1115TIP3   OH2 3308   2.652   3.252   0.151  0.0760 -0.6038 -1.0244
 1115TIP3    H1 3309   2.630   3.268   0.059 -1.0685 -1.3334 -0.9008
 1115TIP3    H2 3310   2.700   3.330   0.178 -0.0211 -0.1558 -2.1039
 1116TIP3   OH2 3311   1.085   6.376   4.836  0.4103  0.0017  0.0738
 1116TIP3    H1 3312   1.175   6.378   4.802  0.7261 -0.2250  0.8549
 1116TIP3    H2 3313   1.086   6.306   4.901 -0.8630 -1.3513 -1.3005
 1117TIP3   OH2 3314   0.414   6.739   1.111 -0.5020 -0.1949  0.7301
 1117TIP3    H1 3315   0.458   6.689   1.179 -1.4576 -0.5256  1.1291
 1117TIP3    H2 3316   0.357   6.675   1.068 -1.5993  0.4905  1.1233
 1118TIP3   OH2 3317   6.924   6.785   2.980 -0.1533  0.4195  0.3220
 1118TIP3    H1 3318   6.984   6.720   2.943  0.4460  1.0756  0.1027
 1118TIP3    H2 3319   6.920   6.854   2.913 -1.7432  0.0519  0.0140
 1119TIP3   OH2 3320   6.137   2.429   5.842  0.0226 -0.4235  0.2759
 1119TIP3    H1 3321   6.115   2.476   5.923  1.4355  1.0718 -0.1486
 1119TIP3    H2 3322   6.053   2.400   5.808 -0.8703  1.2293  0.9329
 1120TIP3   OH2 3323   6.455   3.397   2.117 -0.2889 -0.6675 -0.3560
 1120TIP3    H1 3324   6.522   3.331   2.134  0.9206  0.4142 -0.6886
 1120TIP3    H2 3325   6.388   3.382   2.182 -0.7718 -3.1355 -1.3307
 1121TIP3   OH2 3326   0.902   5.555   2.427 -0.0783 -0.5247 -0.3275
 1121TIP3    H1 3327   0.877   5.630   2.480 -1.2900 -1.1059 -0.0353
 1121TIP3    H2 3328   0.930   5.592   2.343  0.2450  0.2939  0.1334
 1122TIP3   OH2 3329   5.957   5.647   1.167 -0.8458 -1.0172  0.1474
 1122TIP3    H1 3330   5.946   5.615   1.256 -0.8702 -1.9291 -0.1763
 1122TIP3    H2 3331   5.922   5.577   1.112 -0.4869 -0.6221 -0.5944
 1123TIP3   OH2 3332   4.600   3.875   1.096  0.0377 -0.2734 -0.3939
 1123TIP3    H1 3333   4.510   3.869   1.128  0.3387  1.3377  0.8904
 1123TIP3    H2 3334   4.592   3.879   1.001 -1.2212 -0.4782 -0.3123
 1124TIP3   OH2 3335   4.355   0.721   1.853 -0.2398  0.2278 -0.1672
 1124TIP3    H1 3336   4.364   0.638   1.899 -0.4736  0.6776  0.7151
 1124TIP3    H2 3337   4.402   0.709   1.770  0.4621 -0.4823  0.3305
 1125TIP3   OH2 3338   0.491   2.472   3.726  0.0010 -0.0017  0.9099
 1125TIP3    H1 3339   0.451   2.485   3.812  3.2441 -2.1478  2.9954
 1125TIP3    H2 3340   0.564   2.534   3.724  1.0915 -1.2350  0.6224
 1126TIP3   OH2 3341   2.890   5.081   0.974 -0.0797 -0.0419 -0.5575
 1126TIP3    H1 3342   2.928   5.043   0.894  1.8912  0.5456  0.0381
 1126TIP3    H2 3343   2.906   5.175   0.966 -1.3912  0.2221 -0.2250
 1127TIP3   OH2 3344   3.744   0.488   4.127 -0.2053 -0.6553 -1.0271
 1127TIP3    H1 3345   3.835   0.505   4.149 -0.4160  1.4554 -1.6134
 1127TIP3    H2 3346   3.717   0.418   4.187  2.0814 -2.1179 -1.6016
 1128TIP3   OH2 3347   7.090   3.933   5.140  0.3378  0.0780  0.2952
 1128TIP3    H1 3348   7.016   3.901   5.192  0.1391 -0.7198 -0.4540
 1128TIP3    H2 3349   7.055   3.942   5.051  1.2565 -0.8289 -0.1836
 1129TIP3   OH2 3350   1.357   4.217   1.018 -0.3377  0.2617 -0.1971
 1129TIP3    H1 3351   1.336   4.306   1.045  0.3171 -0.3325  2.6466
 1129TIP3    H2 3352   1.436   4.226   0.964 -0.3928  1.4154 -0.1092
 1130TIP3   OH2 3353   6.679   4.992   3.313  0.2965  0.0987  0.0715
 1130TIP3    H1 3354   6.680   4.973   3.407  0.4964 -1.2575 -0.1807
 1130TIP3    H2 3355   6.586   4.991   3.289  0.3069 -3.1185 -0.3495
 1131TIP3   OH2 3356   0.685   2.687   3.834 -0.2388  0.3168 -0.4632
 1131TIP3    H1 3357   0.695   2.777   3.801  2.1436  1.1040  1.9474
 1131TIP3    H2 3358   0.775   2.654   3.840 -0.9265 -1.5207  0.4998
 1132TIP3   OH2 3359   4.150   6.074   5.136 -0.8428  0.3565  0.3217
 1132TIP3    H1 3360   4.131   6.131   5.061 -1.2815 -0.3627 -0.1216
 1132TIP3    H2 3361   4.245   6.075   5.143 -0.6126 -1.2413 -1.6044
 1133TIP3   OH2 3362   1.511   1.288   1.359  0.2683 -0.1315 -0.0687
 1133TIP3    H1 3363   1.580   1.223   1.375 -0.0267  0.0255  2.2146
 1133TIP3    H2 3364   1.556   1.372   1.365 -0.0554 -0.0347  1.1939
 1134TIP3   OH2 3365   2.613   2.340   5.346 -0.3058  0.0949 -0.1067
 1134TIP3    H1 3366   2.523   2.314   5.363 -0.3349  1.3519  2.1664
 1134TIP3    H2 3367   2.607   2.431   5.318  0.2042 -0.1525 -1.0499
 1135TIP3   OH2 3368   1.108   3.088   3.526  0.4641 -0.5792 -0.1247
 1135TIP3    H1 3369   1.044   3.021   3.504  1.7719 -2.1716  0.6349
 1135TIP3    H2 3370   1.106   3.092   3.622  1.0378 -0.1774 -0.1239
 1136TIP3   OH2 3371   5.969   5.590   5.372  0.1870  0.0937  0.2999
 1136TIP3    H1 3372   5.891   5.535   5.363  1.0391 -1.4610  1.7644
 1136TIP3    H2 3373   5.940   5.665   5.424 -0.1563 -0.9996  1.7747
 1137TIP3   OH2 3374   4.463   1.939   0.621  0.2693  0.0843  0.1763
 1137TIP3    H1 3375   4.551   1.973   0.603  1.2849 -3.0510 -1.6382
 1137TIP3    H2 3376   4.478   1.847   0.644 -2.5390 -0.5086 -0.0669
 1138TIP3   OH2 3377   2.590   2.197   3.145  0.1377  0.8418 -0.4147
 1138TIP3    H1 3378   2.675   2.183   3.103 -0.9821 -1.8682 -2.0687
 1138TIP3    H2 3379   2.581   2.124   3.206  0.0774  2.6314  1.8669
 1139TIP3   OH2 3380   0.349   4.795   1.249  0.3908 -0.7007 -0.1414
 1139TIP3    H1 3381   0.321   4.747   1.170 -0.7725 -0.9224  0.3769
 1139TIP3    H2 3382   0.324   4.886   1.231  0.5063 -0.6827 -0.2061
 1140TIP3   OH2 3383   1.539   5.735   2.431 -0.0100  0.3813 -0.2588
 1140TIP3    H1 3384   1.628   5.736   2.397  0.3257 -1.1469  0.4854
 1140TIP3    H2 3385   1.541   5.669   2.501 -1.0012  2.3695  1.7706
 1141TIP3   OH2 3386   0.205   1.495   2.020 -0.5289  0.2470 -0.1769
 1141TIP3    H1 3387   0.298   1.516   2.021 -0.7946  1.5353 -0.8540
 1141TIP3    H2 3388   0.201   1.405   1.988  0.4963  0.0348  0.2527
 1142TIP3   OH2 3389   4.375   1.238   0.362 -0.1630  0.3877  0.5864
 1142TIP3    H1 3390   4.402   1.197   0.280  1.0655  0.8093  0.7648
 1142TIP3    H2 3391   4.295   1.191   0.387  0.2652 -0.7348 -0.0771
 1143TIP3   OH2 3392   5.169   1.031   2.602 -0.3295 -0.3700 -0.1770
 1143TIP3    H1 3393   5.162   1.092   2.675 -2.6376 -0.1852 -0.4672
 1143TIP3    H2 3394   5.119   1.072   2.531 -0.2247 -1.6570 -1.0492
 1144TIP3   OH2 3395   4.156   0.859   2.030 -0.0780 -0.4799 -0.0769
 1144TIP3    H1 3396   4.127   0.771   2.057 -2.3268  0.1285 -0.3473
 1144TIP3    H2 3397   4.204   0.844   1.949  1.6381 -1.6779  1.0896
 1145TIP3   OH2 3398   2.348   2.969   5.752 -0.2929 -0.1225  0.2232
 1145TIP3    H1 3399   2.296   2.966   5.672  2.1908  0.2086 -1.5136
 1145TIP3    H2 3400   2.322   3.050   5.795 -0.1986  0.7792 -1.3510
 1146TIP3   OH2 3401   1.430   6.209   0.539  0.2158  0.7047  0.1865
 1146TIP3    H1 3402   1.401   6.265   0.611  1.1957 -0.3610  1.4711
 1146TIP3    H2 3403   1.423   6.120   0.573  3.3208  0.2979  0.0376
 1147TIP3   OH2 3404   0.146   3.371   0.474  0.5701 -0.7861 -0.4607
 1147TIP3    H1 3405   0.054   3.394   0.486  0.3839 -1.0865 -1.2123
 1147TIP3    H2 3406   0.154   3.283   0.509  0.4836 -0.8936 -0.7040
 1148TIP3   OH2 3407   5.513   1.577   3.179  0.2146 -0.0403  0.2304
 1148TIP3    H1 3408   5.555   1.649   3.227 -0.5200  0.1887  0.5371
 1148TIP3    H2 3409   5.501   1.611   3.090 -1.8857  0.9658  0.8397
 1149TIP3   OH2 3410   0.889   3.464   0.021  0.4089  0.4375  0.0584
 1149TIP3    H1 3411   0.944   3.445  -0.054  1.4712  0.1083  0.9073
 1149TIP3    H2 3412   0.949   3.470   0.095 -0.9214 -2.9919  1.6164
 1150TIP3   OH2 3413   2.448   6.597   2.884  0.2833 -0.0874  0.2787
 1150TIP3    H1 3414   2.440   6.692   2.893 -1.1013 -0.2658  1.3461
 1150TIP3    H2 3415   2.383   6.573   2.818  1.3806 -0.2006 -0.7881
 1151TIP3   OH2 3416   1.550   0.198   0.250  0.3125  0.5573 -0.1637
 1151TIP3    H1 3417   1.565   0.197   0.345 -1.8513 -0.5607  0.2272
 1151TIP3    H2 3418   1.496   0.275   0.235  1.5141  1.3229 -0.6765
 1152TIP3   OH2 3419   5.881   1.972   3.023 -0.4107 -0.0991 -0.1511
 1152TIP3    H1 3420   5.878   2.011   2.936  0.5348  0.6807  0.1519
 1152TIP3    H2 3421   5.953   2.017   3.067 -1.2503 -0.0614  1.2371
 1153TIP3   OH2 3422   3.203   2.944   3.885 -0.1028 -0.2644 -0.1961
 1153TIP3    H1 3423   3.298   2.948   3.873 -0.1399  2.9825 -0.4905
 1153TIP3    H2 3424   3.175   3.036   3.879 -3.2696 -1.1156 -0.0847
 1154TIP3   OH2 3425   3.946   2.907   2.289 -0.1822  0.1578  0.1707
 1154TIP3    H1 3426   4.039   2.930   2.298 -0.2498 -0.0557  1.6457
 1154TIP3    H2 3427   3.940   2.866   2.203  0.8231  1.4312 -0.5552
 1155TIP3   OH2 3428   4.590   3.126   4.805  0.0235  0.6494 -0.2083
 1155TIP3    H1 3429   4.655   3.189   4.836 -0.1929  1.1008 -0.6646
 1155TIP3    H2 3430   4.511   3.146   4.854  0.0311  0.5535 -0.1560
 1156TIP3   OH2 3431   6.355   2.057   5.703 -0.3951 -0.4028  0.0383
 1156TIP3    H1 3432   6.338   1.964   5.721 -2.3041  0.1659  1.5860
 1156TIP3    H2 3433   6.399   2.088   5.782 -1.7808  0.4624  0.4961
 1157TIP3   OH2 3434   6.109   2.041   4.352 -0.1690  0.7037  0.2015
 1157TIP3    H1 3435   6.076   2.123   4.387  0.8877  1.2688 -0.0671
 1157TIP3    H2 3436   6.054   2.024   4.275 -1.1090  0.5650  0.8893
 1158TIP3   OH2 3437   5.731   1.336   5.058  0.3653  0.0347  0.0074
 1158TIP3    H1 3438   5.695   1.417   5.095 -1.6152 -1.2930  1.2214
 1158TIP3    H2 3439   5.654   1.290   5.024  1.2671 -1.8098  0.3578
 1159TIP3   OH2 3440   3.641   6.037   1.894  0.7262 -0.0674  0.3604
 1159TIP3    H1 3441   3.657   6.130   1.905  0.3845 -0.0375  0.6007
 1159TIP3    H2 3442   3.547   6.026   1.912  1.2052 -0.8166  2.7383
 1160TIP3   OH2 3443   6.716   6.270   0.469  0.4636  0.2912  0.0804
 1160TIP3    H1 3444   6.704   6.364   0.459 -0.9591  0.5379  2.9214
 1160TIP3    H2 3445   6.627   6.235   0.474  0.9526 -1.3145 -1.3461
 1161TIP3   OH2 3446   0.141   4.002   2.287  0.6068 -0.1471  0.0795
 1161TIP3    H1 3447   0.105   3.937   2.347  0.9728 -0.1480  0.2986
 1161TIP3    H2 3448   0.181   4.068   2.343 -0.6616  0.8201 -0.0965
 1162TIP3   OH2 3449   5.042   0.660   2.550  0.1580 -0.0522 -0.3449
 1162TIP3    H1 3450   5.009   0.719   2.618 -1.4367  0.4523 -1.4771
 1162TIP3    H2 3451   5.137   0.673   2.550  0.1956 -0.0197  1.7018
 1163TIP3   OH2 3452   4.009   2.325   2.534 -0.1956 -0.3618 -0.2689
 1163TIP3    H1 3453   4.095   2.283   2.541  0.1884  0.2031 -1.4258
 1163TIP3    H2 3454   3.953   2.274   2.593  0.9576 -0.6499  0.6270
 1164TIP3   OH2 3455   6.053   4.921   2.254 -0.7818  0.6752  0.0019
 1164TIP3    H1 3456   6.137   4.938   2.210  0.2598  1.3507  2.0833
 1164TIP3    H2 3457   6.049   4.826   2.262  0.4828  0.6640  1.0092
 1165TIP3   OH2 3458   4.073   2.192   3.833  0.2174  0.6791  0.4216
 1165TIP3    H1 3459   4.070   2.104   3.795  0.8874 -0.5422  3.0249
 1165TIP3    H2 3460   4.165   2.217   3.832 -0.0098  1.5718 -0.6686
 1166TIP3   OH2 3461   6.881   4.313   2.682 -0.0779 -0.2023 -0.1374
 1166TIP3    H1 3462   6.902   4.225   2.650  0.6039 -0.0623 -0.1006
 1166TIP3    H2 3463   6.859   4.362   2.603  1.6315  0.1504 -0.4491
 1167TIP3   OH2 3464   3.000   4.298   5.581 -0.1115  0.4245  0.7180
 1167TIP3    H1 3465   3.076   4.355   5.571 -0.6632  0.9978 -0.3038
 1167TIP3    H2 3466   3.022   4.242   5.656  1.3273  0.5559  0.4273
 1168TIP3   OH2 3467   0.440   3.565   4.701 -0.2506  0.5117 -0.2301
 1168TIP3    H1 3468   0.386   3.640   4.726  1.0497  1.9038 -1.3430
 1168TIP3    H2 3469   0.465   3.583   4.610  0.7187 -0.8924 -0.2793
 1169TIP3   OH2 3470   6.032   3.062   4.315  0.6097  0.3793  0.5285
 1169TIP3    H1 3471   5.937   3.055   4.316  0.5733  0.8806  1.4097
 1169TIP3    H2 3472   6.062   2.975   4.289 -0.0719  0.0935  0.6729
 1170TIP3   OH2 3473   0.462   4.656   2.624 -0.4616 -0.1762  0.2575
 1170TIP3    H1 3474   0.388   4.608   2.587 -0.4743  0.6575 -0.8545
 1170TIP3    H2 3475   0.440   4.668   2.716 -1.5535 -0.2251  0.0088
 1171TIP3   OH2 3476   1.004   0.679   5.003  0.0499  0.4477  0.2757
 1171TIP3    H1 3477   0.978   0.616   4.935  1.0175  1.5598 -1.2101
 1171TIP3    H2 3478   1.100   0.683   4.996  0.0362  1.8173  0.5296
 1172TIP3   OH2 3479   5.168   1.403   5.381  0.6375  0.1079 -0.0854
 1172TIP3    H1 3480   5.137   1.460   5.451  0.5301  0.6358 -0.5490
 1172TIP3    H2 3481   5.256   1.376   5.409  0.8203  0.7649  0.0045
 1173TIP3   OH2 3482   2.776   0.656   4.119  0.0066  0.3135 -0.2715
 1173TIP3    H1 3483   2.826   0.674   4.039 -0.6946 -1.7789 -1.2510
 1173TIP3    H2 3484   2.738   0.570   4.104 -0.7197  0.1728  2.0650
 1174TIP3   OH2 3485   0.941   0.611   0.770  0.0335  0.1020  0.4630
 1174TIP3    H1 3486   1.000   0.581   0.839 -0.3644 -0.0238  0.7561
 1174TIP3    H2 3487   0.996   0.622   0.693  0.3831 -0.2908  0.6576
 1175TIP3   OH2 3488   0.743   1.219   4.539 -0.0881 -0.1136  0.0514
 1175TIP3    H1 3489   0.815   1.168   4.577 -0.9975 -0.9072  0.7468
 1175TIP3    H2 3490   0.669   1.158   4.536 -0.2667  0.1164 -2.3524
 1176TIP3   OH2 3491   3.803   5.435   5.065  0.1259 -0.0951 -0.3759
 1176TIP3    H1 3492   3.807   5.489   5.144 -4.0589 -0.4371  0.3076
 1176TIP3    H2 3493   3.814   5.346   5.097  1.4653 -0.0465 -0.6711
 1177TIP3   OH2 3494   1.465   4.922   5.699  0.3760  0.0310  0.1480
 1177TIP3    H1 3495   1.496   4.842   5.656  0.1811  1.2485 -2.4784
 1177TIP3    H2 3496   1.374   4.904   5.721  0.3514 -0.5090 -0.3553
 1178TIP3   OH2 3497   3.039   2.133   3.420  0.0115 -0.4674 -0.1908
 1178TIP3    H1 3498   3.046   2.059   3.360 -0.0432  0.3346 -1.1939
 1178TIP3    H2 3499   2.969   2.107   3.480 -0.7574 -0.7763 -1.1950
 1179TIP3   OH2 3500   4.264   6.126   4.242  0.5362  0.4383 -0.1211
 1179TIP3    H1 3501   4.335   6.164   4.189 -0.9169 -0.0134 -2.5667
 1179TIP3    H2 3502   4.247   6.041   4.202 -0.7684  0.1350  0.9957
 1180TIP3   OH2 3503   3.410   4.327   1.187 -0.2430 -0.3065 -0.4684
 1180TIP3    H1 3504   3.415   4.253   1.127 -0.5838 -1.0897  0.4362
 1180TIP3    H2 3505   3.477   4.388   1.156  1.8026 -2.0829  0.1671
 1181TIP3   OH2 3506   3.749   1.739   4.494  0.4797  0.6918  0.0614
 1181TIP3    H1 3507   3.781   1.666   4.441 -0.5539  0.2377  0.0352
 1181TIP3    H2 3508   3.711   1.698   4.571 -2.3489  0.9597 -1.0712
 1182TIP3   OH2 3509   3.374   2.849   0.276  0.1672  0.4249 -0.1732
 1182TIP3    H1 3510   3.395   2.757   0.265  0.2424  0.4966 -0.6472
 1182TIP3    H2 3511   3.289   2.850   0.322  0.4887  0.1307  0.4427
 1183TIP3   OH2 3512   6.453   3.023   1.354  0.4015 -0.3901  0.8642
 1183TIP3    H1 3513   6.384   3.082   1.325  1.7114  1.0209  0.4793
 1183TIP3    H2 3514   6.509   3.012   1.277 -0.0634 -2.5677  0.7745
 1184TIP3   OH2 3515   2.233   4.939   1.625 -0.0922  0.0230 -0.5018
 1184TIP3    H1 3516   2.213   5.025   1.662 -0.5384 -0.0303 -0.6172
 1184TIP3    H2 3517   2.194   4.941   1.537 -2.4062 -1.2061  0.3966
 1185TIP3   OH2 3518   2.904   5.018   5.395 -0.1457 -0.0208 -0.3331
 1185TIP3    H1 3519   2.935   5.056   5.477  0.9348  1.4262 -1.3646
 1185TIP3    H2 3520   2.813   5.045   5.388 -0.5078 -0.8799  0.7745
 1186TIP3   OH2 3521   4.899   1.764   4.847  0.1728 -0.2748 -0.0482
 1186TIP3    H1 3522   4.835   1.693   4.850  0.8467 -0.9350 -1.0266
 1186TIP3    H2 3523   4.860   1.829   4.788 -0.5382  0.3043  1.0077
 1187TIP3   OH2 3524   2.270   0.370   1.495  0.1763  0.0163 -0.4680
 1187TIP3    H1 3525   2.333   0.331   1.556  0.3910  2.1051  0.7219
 1187TIP3    H2 3526   2.279   0.317   1.416  1.5309 -1.3698  0.5347
 1188TIP3   OH2 3527   0.634   3.362   4.124  0.4057 -0.1798 -0.5564
 1188TIP3    H1 3528   0.662   3.286   4.174  1.5037 -0.3312 -1.3693
 1188TIP3    H2 3529   0.701   3.428   4.142 -0.9489  0.9052  0.7842
 1189TIP3   OH2 3530   3.880   3.149   4.521  0.1295 -0.0988  0.0830
 1189TIP3    H1 3531   3.935   3.184   4.591  0.2562  0.9969 -0.5396
 1189TIP3    H2 3532   3.791   3.157   4.555 -0.0412  2.7862 -0.7815
 1190TIP3   OH2 3533   6.659   1.796   0.032 -0.6492  0.2989  0.0586
 1190TIP3    H1 3534   6.637   1.885   0.058 -1.1898  0.3345 -0.4746
 1190TIP3    H2 3535   6.574   1.752   0.025 -0.4988  0.1465 -1.0502
 1191TIP3   OH2 3536   1.465   1.372   1.815  0.0692  0.3080  0.9645
 1191TIP3    H1 3537   1.402   1.380   1.887  0.3381  0.3255  1.2023
 1191TIP3    H2 3538   1.537   1.430   1.840  0.2443  0.1765  0.7670
 1192TIP3   OH2 3539   2.179   0.921   4.670  0.6076 -0.0179  0.3068
 1192TIP3    H1 3540   2.112   0.869   4.625  0.2071 -0.6777  1.5915
 1192TIP3    H2 3541   2.220   0.859   4.730  1.1395  0.8099  0.8160
 1193TIP3   OH2 3542   3.948   3.420   1.332 -0.1023 -0.1057  0.7419
 1193TIP3    H1 3543   4.035   3.405   1.370 -0.3656  1.4431  2.0450
 1193TIP3    H2 3544   3.961   3.408   1.238  1.5431  0.1547  0.9002
 1194TIP3   OH2 3545   4.439   2.356   0.630  0.8074 -0.0299 -0.0888
 1194TIP3    H1 3546   4.348   2.325   0.623 -0.1902  2.7841 -0.7449
 1194TIP3    H2 3547   4.463   2.379   0.540  1.1505  1.8056  0.4304
 1195TIP3   OH2 3548   1.496   6.361   4.464  0.4552 -0.6589 -0.6108
 1195TIP3    H1 3549   1.405   6.391   4.458  0.3004 -1.2708 -1.7668
 1195TIP3    H2 3550   1.492   6.283   4.519  0.1496 -1.0976 -1.2369
 1196TIP3   OH2 3551   7.064   6.610   2.153 -0.1148  0.0324  0.1152
 1196TIP3    H1 3552   7.071   6.521   2.187  1.4596  0.9327  2.3812
 1196TIP3    H2 3553   6.978   6.641   2.182 -0.1785 -0.3473  0.3270
 1197TIP3   OH2 3554   2.822   4.925   2.143 -0.3242 -0.4905  0.0006
 1197TIP3    H1 3555   2.811   4.865   2.070 -0.5904  0.9476 -1.1793
 1197TIP3    H2 3556   2.894   4.982   2.117 -1.8714  1.4833 -0.1976
 1198TIP3   OH2 3557   5.567   1.987   1.996 -0.3551  0.5615 -0.2357
 1198TIP3    H1 3558   5.530   1.954   2.077 -1.0339 -1.0529 -1.1492
 1198TIP3    H2 3559   5.631   1.920   1.970  0.9981  1.8142 -0.2595
 1199TIP3   OH2 3560   1.649   0.333   1.505  0.3011 -0.4669 -0.4701
 1199TIP3    H1 3561   1.714   0.265   1.487 -0.7146 -1.1760 -1.6606
 1199TIP3    H2 3562   1.599   0.340   1.423 -0.6605  0.5601  0.1767
 1200TIP3   OH2 3563   2.487   2.775   4.772  0.2976 -0.5703  0.1616
 1200TIP3    H1 3564   2.459   2.861   4.740 -0.5680 -1.0837 -0.5061
 1200TIP3    H2 3565   2.428   2.756   4.845  0.0462 -0.8803 -0.1180
 1201TIP3   OH2 3566   1.718   3.746   1.693  0.4064  0.0290 -0.0851
 1201TIP3    H1 3567   1.637   3.724   1.739  0.1530 -0.8155 -0.9166
 1201TIP3    H2 3568   1.706   3.838   1.668 -0.3636 -0.1269 -0.3314
 1202TIP3   OH2 3569   7.134   0.476   1.689 -0.9390 -0.0876 -0.1215
 1202TIP3    H1 3570   7.076   0.525   1.747 -0.5024  0.4477 -0.1225
 1202TIP3    H2 3571   7.076   0.418   1.639 -1.7974  2.0492 -1.7725
 1203TIP3   OH2 3572   5.168   1.500   5.871  0.3639 -0.2082  0.1229
 1203TIP3    H1 3573   5.262   1.491   5.886  0.4519  0.7348  0.1616
 1203TIP3    H2 3574   5.143   1.417   5.830  1.0631 -0.7682  0.7950
 1204TIP3   OH2 3575   2.211   5.842   1.715  0.0028 -0.8935 -0.2358
 1204TIP3    H1 3576   2.270   5.768   1.700  1.8159  0.4378  0.0229
 1204TIP3    H2 3577   2.232   5.905   1.646  0.1662  0.3635  0.9215
 1205TIP3   OH2 3578   0.578   4.683   4.365 -0.4003 -0.1999 -0.1120
 1205TIP3    H1 3579   0.606   4.764   4.323 -0.3535  0.3607  0.9675
 1205TIP3    H2 3580   0.548   4.710   4.451 -1.5441 -1.1797 -0.1863
 1206TIP3   OH2 3581   6.393   4.924   0.244  0.2806  0.1681 -0.0838
 1206TIP3    H1 3582   6.486   4.935   0.224  0.0345  0.2431 -1.2180
 1206TIP3    H2 3583   6.362   5.013   0.263  0.5903  0.0546  1.0633
 1207TIP3   OH2 3584   2.500   3.373   4.703 -0.1250 -0.0422  0.6837
 1207TIP3    H1 3585   2.409   3.368   4.734 -0.8096  1.0794 -0.9665
 1207TIP3    H2 3586   2.499   3.328   4.618  0.8280  0.0768  0.5994
 1208TIP3   OH2 3587   3.921   1.596   3.138  0.0860  0.2735  0.0741
 1208TIP3    H1 3588   3.978   1.551   3.075  0.1691 -0.0268  0.3623
 1208TIP3    H2 3589   3.921   1.688   3.109 -0.4630  0.0067 -0.8011
 1209TIP3   OH2 3590   1.670   0.690   3.103  0.0136  0.4675  0.2591
 1209TIP3    H1 3591   1.637   0.703   3.014  0.5086  0.6713  0.1029
 1209TIP3    H2 3592   1.694   0.778   3.132 -0.0770  0.3899  0.5677
 1210TIP3   OH2 3593   6.110   6.708   0.356  0.1627 -0.2361 -0.6236
 1210TIP3    H1 3594   6.175   6.704   0.426  1.9346 -1.1770 -2.2456
 1210TIP3    H2 3595   6.071   6.621   0.354  1.9372 -1.0818 -2.3606
 1211TIP3   OH2 3596   5.142   4.501   4.357  0.7906 -0.3127  0.6391
 1211TIP3    H1 3597   5.146   4.495   4.452  0.4782 -2.4486  0.5617
 1211TIP3    H2 3598   5.143   4.411   4.327  0.9166  0.3139 -1.4054
 1212TIP3   OH2 3599   4.272   6.166   0.288  0.0186  0.0005  0.0849
 1212TIP3    H1 3600   4.311   6.214   0.215 -1.5731  3.2626  1.1973
 1212TIP3    H2 3601   4.342   6.162   0.354  0.4157  0.1001 -0.3250
 1213TIP3   OH2 3602   2.747   3.392   3.449  0.4404 -0.3121  0.4363
 1213TIP3    H1 3603   2.723   3.330   3.381 -1.0680  0.3273  0.3498
 1213TIP3    H2 3604   2.799   3.341   3.511  0.6302 -1.2415 -0.4708
 1214TIP3   OH2 3605   0.083   3.435   3.579 -0.3208  0.4731 -0.0986
 1214TIP3    H1 3606   0.036   3.352   3.573  2.1871 -1.0344 -0.4004
 1214TIP3    H2 3607   0.111   3.454   3.490  1.7985 -0.0717  0.4039
 1215TIP3   OH2 3608   3.079   5.070   2.140 -0.0591 -0.5259  0.5831
 1215TIP3    H1 3609   3.091   5.123   2.218 -0.7443  0.0559  0.3001
 1215TIP3    H2 3610   3.126   5.116   2.071 -0.0518 -0.6691  0.4901
 1216TIP3   OH2 3611   5.222   0.204   1.552 -0.2201  0.0084 -0.0602
 1216TIP3    H1 3612   5.178   0.253   1.482  0.2958 -0.4047 -0.6875
 1216TIP3    H2 3613   5.151   0.178   1.610 -0.6979  0.1414 -0.5665
 1217TIP3   OH2 3614   6.879   0.679   3.119 -1.0556  0.3437 -0.4183
 1217TIP3    H1 3615   6.930   0.660   3.040 -1.6565 -2.4916 -0.2050
 1217TIP3    H2 3616   6.793   0.640   3.103 -0.8142 -1.4729  2.0661
 1218TIP3   OH2 3617   5.933   1.406   5.363 -0.2963 -0.3685  0.7870
 1218TIP3    H1 3618   5.906   1.484   5.314  2.9243  0.9555  0.8494
 1218TIP3    H2 3619   5.951   1.439   5.451  2.1488 -0.8686  0.5348
 1219TIP3   OH2 3620   2.384   6.595   3.912 -0.1410  0.2010  0.3821
 1219TIP3    H1 3621   2.410   6.645   3.990 -0.1119  0.7350  0.0337
 1219TIP3    H2 3622   2.463   6.549   3.886 -0.5856 -1.4439  1.7236
 1220TIP3   OH2 3623   5.514   4.341   2.385 -0.1182 -0.0482 -0.1188
 1220TIP3    H1 3624   5.454   4.413   2.404  1.4068  1.3730 -0.4883
 1220TIP3    H2 3625   5.497   4.320   2.293 -1.1414 -0.7479  0.2154
 1221TIP3   OH2 3626   5.906   6.160   4.001  0.0328 -0.2264 -0.6657
 1221TIP3    H1 3627   5.964   6.233   3.984  0.5700 -0.6391 -0.6299
 1221TIP3    H2 3628   5.952   6.108   4.067 -1.1699  0.3684  0.6972
 1222TIP3   OH2 3629   3.480   0.374   0.262  0.3035  0.2138  0.3241
 1222TIP3    H1 3630   3.439   0.461   0.260 -4.2572 -1.6398  1.5278
 1222TIP3    H2 3631   3.462   0.336   0.176  2.0339  0.2255 -0.0963
 1223TIP3   OH2 3632   6.521   5.987   2.279  0.3012  0.1599 -0.4696
 1223TIP3    H1 3633   6.600   6.026   2.316 -0.9585  1.9707  0.4650
 1223TIP3    H2 3634   6.451   6.015   2.338 -1.1113 -0.9574 -1.5628
 1224TIP3   OH2 3635   2.989   0.777   2.929 -0.0293  0.3796 -0.7172
 1224TIP3    H1 3636   2.991   0.870   2.906  0.3082 -0.1438 -3.0631
 1224TIP3    H2 3637   2.899   0.762   2.958  0.3933  1.7733  1.5697
 1225TIP3   OH2 3638   4.679   3.229   0.789  0.1153 -0.3838 -0.7562
 1225TIP3    H1 3639   4.702   3.269   0.705 -0.5359 -0.2796 -0.8853
 1225TIP3    H2 3640   4.634   3.298   0.837  1.6806  0.0152  0.2409
 1226TIP3   OH2 3641   4.666   4.944   4.202  0.2179 -0.3117 -0.2798
 1226TIP3    H1 3642   4.672   4.884   4.277  0.6733 -0.7514 -0.6663
 1226TIP3    H2 3643   4.573   4.942   4.177  0.0139  0.0159  0.4072
 1227TIP3   OH2 3644   3.607   3.130   2.635 -0.8970  0.6256 -0.3654
 1227TIP3    H1 3645   3.695   3.122   2.671 -1.5908 -1.4470  1.1244
 1227TIP3    H2 3646   3.608   3.078   2.555 -1.1010 -0.7531  0.4835
 1228TIP3   OH2 3647   5.803   1.127   5.230 -0.1947 -0.6036  0.0729
 1228TIP3    H1 3648   5.875   1.154   5.287 -1.5298 -0.1036  1.6178
 1228TIP3    H2 3649   5.791   1.200   5.169 -0.4293  0.0415  0.8708
 1229TIP3   OH2 3650   5.648   5.469   1.436  0.2751  0.1894  0.1579
 1229TIP3    H1 3651   5.622   5.469   1.344 -0.2259 -1.0535  0.2799
 1229TIP3    H2 3652   5.620   5.555   1.469 -0.1349  0.3887 -0.6787
 1230TIP3   OH2 3653   4.210   4.322   4.910 -0.3448 -0.0886  0.1210
 1230TIP3    H1 3654   4.265   4.378   4.966 -0.2390 -0.9660  0.9162
 1230TIP3    H2 3655   4.140   4.291   4.968 -1.4108  0.6102 -0.7562
 1231TIP3   OH2 3656   0.021   5.805   4.589 -0.0370  0.1726  0.1068
 1231TIP3    H1 3657   0.075   5.822   4.512  0.2873 -0.7358  0.1278
 1231TIP3    H2 3658  -0.035   5.732   4.564 -1.4900  1.2978 -0.0187
 1232TIP3   OH2 3659   1.493   0.791   0.264  0.2266  0.4170 -0.3730
 1232TIP3    H1 3660   1.493   0.722   0.331 -0.5293  0.5092 -0.2759
 1232TIP3    H2 3661   1.402   0.818   0.257  0.1484 -0.1928 -2.0572
 1233TIP3   OH2 3662   4.692   4.061   5.199  0.5308 -0.1339 -0.6473
 1233TIP3    H1 3663   4.621   4.042   5.139 -0.7892  0.1731  0.7455
 1233TIP3    H2 3664   4.684   4.154   5.218 -0.2040 -0.5386  1.3079
 1234TIP3   OH2 3665   2.683   6.190   2.324 -0.9365 -0.3384  0.3016
 1234TIP3    H1 3666   2.679   6.097   2.300 -2.4077 -0.1808 -0.1617
 1234TIP3    H2 3667   2.600   6.207   2.368 -1.7515  1.2977 -1.7011
 1235TIP3   OH2 3668   3.193   1.803   0.421 -0.3623  0.0660  0.3790
 1235TIP3    H1 3669   3.221   1.813   0.330 -0.5939  0.9477  0.3928
 1235TIP3    H2 3670   3.099   1.787   0.415 -0.6063  1.3156  0.4911
 1236TIP3   OH2 3671   2.566   5.925   2.077 -0.4009 -0.1338 -0.0994
 1236TIP3    H1 3672   2.485   5.976   2.080 -0.3387  0.0728 -1.2269
 1236TIP3    H2 3673   2.571   5.895   1.986  1.6844  1.3808 -0.5652
 1237TIP3   OH2 3674   1.275   2.992   4.387 -0.0186  0.2552 -0.0292
 1237TIP3    H1 3675   1.229   3.060   4.437  1.4383  0.0873  1.6434
 1237TIP3    H2 3676   1.345   2.962   4.446  0.2724 -1.6895 -1.2739
 1238TIP3   OH2 3677   4.408   1.112   5.341  0.0009 -0.3417 -0.0749
 1238TIP3    H1 3678   4.322   1.140   5.372  0.6218  0.8822  0.5858
 1238TIP3    H2 3679   4.422   1.162   5.260  1.1334  1.4334  1.1359
 1239TIP3   OH2 3680   4.618   2.852   3.989 -0.2879 -0.2354 -0.0943
 1239TIP3    H1 3681   4.658   2.810   4.065 -0.0355  0.3380  0.0939
 1239TIP3    H2 3682   4.554   2.787   3.957  0.0097 -0.7102  0.2559
 1240TIP3   OH2 3683   0.637   3.941   1.366 -0.2455 -0.3609  0.1892
 1240TIP3    H1 3684   0.593   3.881   1.306  0.6577 -1.0235  0.1594
 1240TIP3    H2 3685   0.578   3.947   1.441  0.1281 -2.1795  0.6810
 1241TIP3   OH2 3686   5.511   4.038   4.385 -0.2256  0.4402 -0.0906
 1241TIP3    H1 3687   5.594   3.991   4.384  0.8375  2.2350  0.1008
 1241TIP3    H2 3688   5.457   3.990   4.448 -0.3536 -2.3230 -2.1064
 1242TIP3   OH2 3689   0.389   1.962   1.259 -0.4217 -0.4823 -0.7254
 1242TIP3    H1 3690   0.313   1.967   1.202 -1.0468 -1.4521  0.0060
 1242TIP3    H2 3691   0.372   1.888   1.317  0.7680 -0.2972 -0.0974
 1243TIP3   OH2 3692   5.133   4.548   5.372 -0.0675  0.2444  0.0254
 1243TIP3    H1 3693   5.159   4.497   5.449 -1.7348 -0.1479  0.3578
 1243TIP3    H2 3694   5.111   4.483   5.306 -0.3578  0.5667 -0.1984
 1244TIP3   OH2 3695   1.657   1.028   5.109 -0.3780  0.4077  1.3923
 1244TIP3    H1 3696   1.726   1.090   5.087  1.1267 -1.1723  1.4436
 1244TIP3    H2 3697   1.594   1.035   5.037 -0.1884  1.8825  1.3498
 1245TIP3   OH2 3698   3.365   5.282   2.389 -0.3905  0.2220  0.0219
 1245TIP3    H1 3699   3.413   5.308   2.310 -0.3297  0.8625  0.2671
 1245TIP3    H2 3700   3.427   5.297   2.460 -1.2766  2.0252  0.4527
 1246TIP3   OH2 3701   3.595   2.768   0.408  0.2562 -0.2359  1.1988
 1246TIP3    H1 3702   3.523   2.823   0.377  0.2968 -1.4296 -1.3184
 1246TIP3    H2 3703   3.621   2.807   0.491 -1.8447  1.5372  1.1332
 1247TIP3   OH2 3704   4.356   2.435   2.712 -0.1866 -0.3062 -0.1755
 1247TIP3    H1 3705   4.354   2.395   2.625  0.7936  0.3748 -0.5273
 1247TIP3    H2 3706   4.433   2.492   2.710 -0.0182 -0.4653  1.2276
 1248TIP3   OH2 3707   0.120   0.638   1.898 -0.6791  0.2631 -0.0838
 1248TIP3    H1 3708   0.065   0.570   1.936 -1.1353  1.3920  1.3150
 1248TIP3    H2 3709   0.135   0.700   1.969 -0.4641  1.7626 -1.3968
 1249TIP3   OH2 3710   3.026   3.415   4.126 -0.7508 -0.0578  0.8950
 1249TIP3    H1 3711   3.008   3.375   4.211 -1.3404  0.7270  1.1477
 1249TIP3    H2 3712   3.109   3.461   4.139 -0.8084  0.0092  1.0238
 1250TIP3   OH2 3713   1.310   3.856   2.432 -0.2453 -0.5094  0.1387
 1250TIP3    H1 3714   1.234   3.904   2.400 -1.7307 -0.7558  2.9288
 1250TIP3    H2 3715   1.345   3.811   2.355 -1.6010  1.3343 -1.6385
 1251TIP3   OH2 3716   6.140   0.113   3.254  0.7378 -0.7330 -0.0332
 1251TIP3    H1 3717   6.231   0.106   3.226  1.2007 -0.5012  1.3232
 1251TIP3    H2 3718   6.090   0.119   3.173  1.9185 -0.9557 -0.8015
 1252TIP3   OH2 3719   6.351   3.355   5.476 -0.0819  0.5902  0.1773
 1252TIP3    H1 3720   6.327   3.291   5.543  1.8846  0.6369  1.0017
 1252TIP3    H2 3721   6.407   3.418   5.522  0.2867  1.3397 -1.2400
 1253TIP3   OH2 3722   2.113   1.112   4.385 -0.3757  0.3838  0.0097
 1253TIP3    H1 3723   2.050   1.094   4.456  0.3186 -0.5917  0.4117
 1253TIP3    H2 3724   2.109   1.033   4.330  1.5432 -0.3881  0.8675
 1254TIP3   OH2 3725   1.075   4.891   3.310 -0.2893  0.1426 -0.4530
 1254TIP3    H1 3726   1.148   4.862   3.365  0.1241  0.1426 -0.9919
 1254TIP3    H2 3727   1.038   4.966   3.356 -0.0454  0.0496 -0.1016
 1255TIP3   OH2 3728   2.942   0.568   2.475  0.7036 -0.0404  0.3639
 1255TIP3    H1 3729   2.847   0.567   2.480  0.7209 -1.6276  0.7730
 1255TIP3    H2 3730   2.964   0.659   2.455 -0.9481  0.1285 -0.8579
 1256TIP3   OH2 3731   1.526   3.200   0.445  0.2804 -0.2181 -0.2816
 1256TIP3    H1 3732   1.467   3.145   0.394 -0.5285  0.1487  0.2394
 1256TIP3    H2 3733   1.531   3.157   0.530 -1.7439  1.3696  0.7277
 1257TIP3   OH2 3734   2.666   0.243   3.691  0.0394  0.0644 -0.1737
 1257TIP3    H1 3735   2.757   0.252   3.664 -0.1078 -0.6918 -0.9910
 1257TIP3    H2 3736   2.663   0.159   3.738 -0.0039  0.6660  0.9248
 1258TIP3   OH2 3737   2.956   0.403   1.973 -0.2206  0.2993 -0.0453
 1258TIP3    H1 3738   3.014   0.428   2.045 -0.8724 -0.0964  0.6187
 1258TIP3    H2 3739   2.926   0.486   1.936  1.4282  0.5390 -0.9621
 1259TIP3   OH2 3740   3.791   2.584   0.970  0.0999  0.1135 -0.1016
 1259TIP3    H1 3741   3.789   2.677   0.948 -0.0892 -0.2259 -1.6513
 1259TIP3    H2 3742   3.860   2.548   0.913  2.1334 -0.2472  2.4376
 1260TIP3   OH2 3743   0.549   6.456   4.269 -0.2804 -0.0620  0.8294
 1260TIP3    H1 3744   0.621   6.519   4.269  0.5609 -0.9730  2.5436
 1260TIP3    H2 3745   0.478   6.502   4.223  1.5647  0.5727 -1.5967
 1261TIP3   OH2 3746   6.550   2.945   2.246 -0.1112  0.2592  0.2596
 1261TIP3    H1 3747   6.536   2.854   2.221  0.3831  0.1995  0.1733
 1261TIP3    H2 3748   6.486   2.995   2.196 -1.8520 -0.2170  1.8848
 1262TIP3   OH2 3749   1.425   6.088   3.168 -0.3376 -0.1753  0.3178
 1262TIP3    H1 3750   1.442   6.015   3.109 -3.2695 -1.6158  1.0805
 1262TIP3    H2 3751   1.334   6.112   3.151 -0.4818  1.0344  2.4873
 1263TIP3   OH2 3752   5.136   1.417   2.303 -0.2210  0.0405 -0.4099
 1263TIP3    H1 3753   5.211   1.363   2.277  0.0618 -0.5805  1.5115
 1263TIP3    H2 3754   5.062   1.379   2.256  0.4389 -0.1602 -1.3291
 1264TIP3   OH2 3755   5.470   0.367   2.782  0.0542  0.8173  0.4023
 1264TIP3    H1 3756   5.391   0.362   2.728  1.0967  1.5756 -1.2533
 1264TIP3    H2 3757   5.543   0.361   2.720  1.4284 -2.6247  2.0748
 1265TIP3   OH2 3758   2.000   6.753   1.630 -0.4125 -0.1499 -0.3121
 1265TIP3    H1 3759   2.081   6.803   1.624 -0.8568  0.5691 -0.4595
 1265TIP3    H2 3760   2.028   6.662   1.638  0.4130  0.1201 -0.0278
 1266TIP3   OH2 3761   2.021   4.145   1.493 -0.0133 -0.1450 -0.2650
 1266TIP3    H1 3762   2.085   4.075   1.487  2.1572  1.8390 -3.5408
 1266TIP3    H2 3763   2.064   4.213   1.545 -1.5684 -0.6320  1.7683
 1267TIP3   OH2 3764   2.481   1.379   2.623 -0.2974  0.5997  0.4656
 1267TIP3    H1 3765   2.408   1.339   2.671  0.9256 -2.6241 -0.0677
 1267TIP3    H2 3766   2.441   1.414   2.543 -1.3882 -0.4798  0.5032
 1268TIP3   OH2 3767   1.388   5.271   3.444 -0.2782  0.3249  0.1555
 1268TIP3    H1 3768   1.408   5.357   3.480 -0.7573  0.3864  0.2734
 1268TIP3    H2 3769   1.407   5.279   3.351 -1.5587  0.9531 -0.0739
 1269TIP3   OH2 3770   5.395   0.828   2.915  0.4024 -0.1557 -0.0871
 1269TIP3    H1 3771   5.470   0.794   2.964 -1.0342 -2.5336  0.6410
 1269TIP3    H2 3772   5.372   0.909   2.961  2.3465  0.5138 -0.2056
 1270TIP3   OH2 3773   4.372   3.831   2.220  0.2773  0.1748  0.1880
 1270TIP3    H1 3774   4.288   3.807   2.180  0.3486  1.0517 -0.5085
 1270TIP3    H2 3775   4.384   3.767   2.290 -0.6804 -0.3341 -0.0962
 1271TIP3   OH2 3776   6.582   2.748   3.007  0.2923 -0.0681 -0.2085
 1271TIP3    H1 3777   6.660   2.694   2.991 -0.1296 -0.6361 -0.3475
 1271TIP3    H2 3778   6.524   2.693   3.059  0.6146  0.8908  1.2354
 1272TIP3   OH2 3779   7.127   0.727   4.795  0.1645  0.3950 -0.3007
 1272TIP3    H1 3780   7.147   0.804   4.848  1.1706 -0.0483 -0.0266
 1272TIP3    H2 3781   7.212   0.687   4.776 -0.3896 -1.2416  0.4597
 1273TIP3   OH2 3782   0.097   3.743   4.535  0.3132 -0.2763 -0.0990
 1273TIP3    H1 3783   0.058   3.672   4.484  0.8172  0.1297 -1.0649
 1273TIP3    H2 3784   0.044   3.746   4.615 -0.3593 -1.0556 -0.4947
 1274TIP3   OH2 3785   4.603   6.023   5.638 -0.6971  0.3951 -0.2237
 1274TIP3    H1 3786   4.677   6.068   5.598  0.0337  1.1592  1.8169
 1274TIP3    H2 3787   4.541   6.093   5.660 -0.2515  0.2956  1.5465
 1275TIP3   OH2 3788   0.931   1.020   2.207 -0.5816 -0.4444 -0.3826
 1275TIP3    H1 3789   0.945   1.067   2.125 -1.2599 -0.6345 -0.6212
 1275TIP3    H2 3790   0.985   1.065   2.271  2.4549 -2.1252 -1.5278
 1276TIP3   OH2 3791   1.537   6.427   2.751 -0.6381  0.0958 -0.0274
 1276TIP3    H1 3792   1.474   6.356   2.764 -0.6004 -0.1092 -0.9515
 1276TIP3    H2 3793   1.543   6.437   2.656 -1.3314  1.9487  0.0817
 1277TIP3   OH2 3794   0.091   6.736   1.391  0.1425 -0.0763 -0.2357
 1277TIP3    H1 3795   0.187   6.743   1.398  0.7269 -2.5777 -3.4327
 1277TIP3    H2 3796   0.068   6.793   1.318 -1.2908  2.2617  1.8674
 1278TIP3   OH2 3797   6.551   1.502   4.883  0.9538 -0.2075 -0.3162
 1278TIP3    H1 3798   6.505   1.586   4.883  1.6410  0.1870  0.7060
 1278TIP3    H2 3799   6.494   1.444   4.833 -2.4300 -0.6922  3.5815
 1279TIP3   OH2 3800   5.582   4.129   3.800 -0.0256  0.1923 -0.2562
 1279TIP3    H1 3801   5.612   4.219   3.806 -1.1060  0.5909 -0.6443
 1279TIP3    H2 3802   5.491   4.131   3.830  0.2296 -0.9410  0.6576
 1280TIP3   OH2 3803   2.703   6.264   3.429 -0.1869  0.0284  0.0076
 1280TIP3    H1 3804   2.628   6.321   3.444  0.2886  0.5689  0.3425
 1280TIP3    H2 3805   2.734   6.242   3.517  0.2794  0.1120 -0.1370
 1281TIP3   OH2 3806   4.448   0.058   4.227  0.2433  0.6968 -0.8537
 1281TIP3    H1 3807   4.430   0.124   4.294  0.7305  1.6239 -1.5915
 1281TIP3    H2 3808   4.375   0.066   4.165  1.1294  1.7846 -1.8350
 1282TIP3   OH2 3809   2.747   0.277   5.109 -0.1016 -0.3541 -0.1797
 1282TIP3    H1 3810   2.705   0.260   5.025  0.1977 -1.5024 -0.1121
 1282TIP3    H2 3811   2.677   0.311   5.164  0.2771  3.2565 -1.6731
 1283TIP3   OH2 3812   6.456   3.752   4.308 -0.0192 -0.3558  0.2915
 1283TIP3    H1 3813   6.487   3.819   4.247 -0.1242  0.7425  1.3969
 1283TIP3    H2 3814   6.517   3.680   4.297  0.2296 -0.0046 -0.7752
 1284TIP3   OH2 3815   0.473   5.979   0.439 -0.0950  0.1021  0.2760
 1284TIP3    H1 3816   0.432   6.054   0.396 -0.3143  0.3242  0.8595
 1284TIP3    H2 3817   0.408   5.949   0.502  0.3052 -0.0785  0.6049
 1285TIP3   OH2 3818   1.468   5.405   4.425 -0.1004  0.2071  0.6834
 1285TIP3    H1 3819   1.465   5.340   4.495  1.4319 -1.6402 -0.8314
 1285TIP3    H2 3820   1.561   5.412   4.404 -0.1696  3.1995  0.9760
 1286TIP3   OH2 3821   4.338   0.435   4.609  0.2551  0.1688  0.3254
 1286TIP3    H1 3822   4.418   0.486   4.608 -0.0790  0.7009  0.0540
 1286TIP3    H2 3823   4.333   0.399   4.697  0.4849  0.6247  0.5243
 1287TIP3   OH2 3824   5.032   4.147   2.059 -0.3990  0.0484  0.0726
 1287TIP3    H1 3825   5.029   4.079   2.127 -2.2458  0.1571  0.1513
 1287TIP3    H2 3826   5.011   4.228   2.106  2.9534  0.9834  0.2251
 1288TIP3   OH2 3827   5.405   1.745   4.108  0.0565 -0.0170 -0.0762
 1288TIP3    H1 3828   5.326   1.790   4.078  0.2171  0.5510  0.3362
 1288TIP3    H2 3829   5.475   1.809   4.096  0.2047  0.0440  1.0104
 1289TIP3   OH2 3830   4.995   2.048   1.610 -0.3005  0.0919  0.0022
 1289TIP3    H1 3831   4.934   2.097   1.553 -0.9649  1.1817  1.5879
 1289TIP3    H2 3832   4.958   2.056   1.697  1.2804 -0.6399  0.7779
 1290TIP3   OH2 3833   6.635   2.102   2.404 -1.0928 -0.2626  0.3724
 1290TIP3    H1 3834   6.716   2.056   2.381 -1.0936  0.1377 -0.4716
 1290TIP3    H2 3835   6.586   2.039   2.457 -1.4379 -1.5607 -1.3814
 1291TIP3   OH2 3836   0.292   2.096   5.116  0.0609 -0.2575 -0.2285
 1291TIP3    H1 3837   0.207   2.052   5.121  0.7980 -1.6591  0.6205
 1291TIP3    H2 3838   0.304   2.115   5.022 -1.0960 -0.2023 -0.3716
 1292TIP3   OH2 3839   1.931   3.945   0.312  0.0687  0.8295 -0.1639
 1292TIP3    H1 3840   1.903   3.901   0.392  0.9072  1.3373  0.4172
 1292TIP3    H2 3841   1.876   3.906   0.243 -0.8278  0.5656  0.6810
 1293TIP3   OH2 3842   6.216   1.656   2.622 -0.0590  0.0038  0.0576
 1293TIP3    H1 3843   6.266   1.676   2.702 -3.0111 -0.1255  2.1020
 1293TIP3    H2 3844   6.231   1.562   2.608 -0.1085 -0.1539  0.9598
 1294TIP3   OH2 3845   0.353   2.524   3.951  0.1892 -0.5049 -0.1602
 1294TIP3    H1 3846   0.324   2.541   4.041 -1.8130  1.1970 -1.0327
 1294TIP3    H2 3847   0.299   2.451   3.922 -0.2457 -0.0674 -0.4560
 1295TIP3   OH2 3848   0.052   1.073   0.692  0.1786 -0.2274  0.0914
 1295TIP3    H1 3849   0.093   1.130   0.757 -1.8230 -0.2921  1.5031
 1295TIP3    H2 3850   0.064   0.985   0.727  1.4758 -0.5491 -1.0601
 1296TIP3   OH2 3851   0.262   0.894   1.498 -0.3249  0.1984 -1.0312
 1296TIP3    H1 3852   0.194   0.962   1.497 -0.7462 -0.1614  0.4727
 1296TIP3    H2 3853   0.218   0.817   1.534  0.8208 -0.0945 -0.2089
 1297TIP3   OH2 3854   1.507   6.743   2.638  0.4041 -0.7456  0.1672
 1297TIP3    H1 3855   1.492   6.724   2.731 -0.6928 -1.1616 -0.0804
 1297TIP3    H2 3856   1.603   6.743   2.630  0.5376 -0.0923  1.4091
 1298TIP3   OH2 3857   6.057   3.709   2.592  0.6262  0.2369 -0.0033
 1298TIP3    H1 3858   6.050   3.650   2.667 -2.4835 -0.1628 -0.4930
 1298TIP3    H2 3859   6.057   3.797   2.631 -0.3894  0.0229  0.5120
 1299TIP3   OH2 3860   2.247   0.327   1.192  0.4845  0.2993 -0.1667
 1299TIP3    H1 3861   2.258   0.411   1.237  0.9014  0.3810 -0.4181
 1299TIP3    H2 3862   2.172   0.340   1.135 -0.2585  0.0916  0.7395
 1300TIP3   OH2 3863   0.908   4.427   0.929  0.0694 -0.5318 -0.4870
 1300TIP3    H1 3864   0.840   4.408   0.865 -0.1839  4.2420 -2.0192
 1300TIP3    H2 3865   0.990   4.410   0.883 -0.0657 -1.2900 -0.4658
 1301TIP3   OH2 3866   3.121   3.765   4.912  0.7306  0.1103 -0.6939
 1301TIP3    H1 3867   3.079   3.849   4.896  2.1798  0.8662 -0.6470
 1301TIP3    H2 3868   3.075   3.729   4.987 -0.0175  0.7756 -0.8201
 1302TIP3   OH2 3869   4.077   4.839   0.946  0.3159 -0.1018  0.1455
 1302TIP3    H1 3870   3.995   4.795   0.966  0.3788 -0.3041 -0.0395
 1302TIP3    H2 3871   4.143   4.770   0.950  0.6026  0.2004  1.1033
 1303TIP3   OH2 3872   5.231   2.760   2.640 -0.2441  0.1864 -0.0545
 1303TIP3    H1 3873   5.315   2.784   2.602 -0.8130  1.5182 -0.5615
 1303TIP3    H2 3874   5.176   2.739   2.565 -1.0063  1.5927  0.0668
 1304TIP3   OH2 3875   6.471   6.215   2.587  0.2741 -0.2855 -0.1149
 1304TIP3    H1 3876   6.527   6.286   2.556  0.5243 -0.5304 -0.2324
 1304TIP3    H2 3877   6.532   6.143   2.605 -0.0501 -0.7192 -0.7036
 1305TIP3   OH2 3878   5.951   6.378   4.304  0.3873 -0.0226  0.0540
 1305TIP3    H1 3879   5.931   6.295   4.347 -0.4342  0.7916  1.2842
 1305TIP3    H2 3880   6.003   6.426   4.368  1.6460  0.0880 -0.9970
 1306TIP3   OH2 3881   1.515   6.742   1.571 -0.1006 -0.2201 -0.6853
 1306TIP3    H1 3882   1.576   6.751   1.498 -0.2751  1.1290 -0.6796
 1306TIP3    H2 3883   1.429   6.739   1.530 -0.0621 -2.9846 -0.7623
 1307TIP3   OH2 3884   3.294   2.425   5.576  0.3349 -0.3587  0.4204
 1307TIP3    H1 3885   3.299   2.459   5.665  2.0132  1.5682 -0.3224
 1307TIP3    H2 3886   3.203   2.442   5.549  0.5035  1.5411  0.8866
 1308TIP3   OH2 3887   0.923   0.172   1.627 -0.1404  0.0013 -0.1763
 1308TIP3    H1 3888   0.969   0.145   1.548  0.4293 -0.1441  0.1991
 1308TIP3    H2 3889   0.834   0.190   1.598  0.0914  0.0566 -0.8705
 1309TIP3   OH2 3890   4.424   6.124   2.385 -0.5334  0.3977 -0.1234
 1309TIP3    H1 3891   4.518   6.115   2.405 -0.0835 -0.0828 -2.1887
 1309TIP3    H2 3892   4.395   6.196   2.441  1.5023  1.7164 -0.6302
 1310TIP3   OH2 3893   2.188   1.672   4.306 -0.3211  0.3203  0.0221
 1310TIP3    H1 3894   2.244   1.618   4.250  1.1281  1.3941  0.3744
 1310TIP3    H2 3895   2.235   1.755   4.314  0.2464 -0.1805  3.8260
 1311TIP3   OH2 3896   6.623   0.051   3.660  0.1483 -0.6845 -0.1408
 1311TIP3    H1 3897   6.706   0.095   3.643 -1.6063  2.1284 -2.2272
 1311TIP3    H2 3898   6.568   0.117   3.702 -1.3720 -2.1507  0.3005
 1312TIP3   OH2 3899   2.229   6.119   5.182 -0.0824 -0.2617  0.3389
 1312TIP3    H1 3900   2.260   6.067   5.108 -1.5483 -1.5171  0.5621
 1312TIP3    H2 3901   2.255   6.069   5.259  1.7191  1.1929  0.7545
 1313TIP3   OH2 3902   1.022   1.584   1.115 -0.2458 -0.1428 -0.1055
 1313TIP3    H1 3903   0.997   1.509   1.062 -1.5367  0.7407 -0.8267
 1313TIP3    H2 3904   1.041   1.653   1.051 -1.4436  0.8313  0.5475
 1314TIP3   OH2 3905   0.183   0.171   3.387  0.5503  0.1232 -0.1850
 1314TIP3    H1 3906   0.264   0.161   3.437 -0.3880  0.3799  1.4648
 1314TIP3    H2 3907   0.157   0.082   3.365  1.2668  0.0400 -0.7427
 1315TIP3   OH2 3908   3.548   0.502   3.241  0.0309  0.4506 -0.0444
 1315TIP3    H1 3909   3.621   0.562   3.258  1.8394 -1.1814 -1.6705
 1315TIP3    H2 3910   3.520   0.474   3.328  0.8188  1.6892  0.6424
 1316TIP3   OH2 3911   6.734   2.584   5.488  0.1795 -0.2980  0.1680
 1316TIP3    H1 3912   6.741   2.614   5.579 -0.9001  0.7940 -0.0780
 1316TIP3    H2 3913   6.727   2.665   5.437  1.8544 -0.8489 -1.0126
 1317TIP3   OH2 3914   5.557   5.675   2.421 -0.4345 -0.2798  0.6457
 1317TIP3    H1 3915   5.565   5.769   2.404  1.6666 -0.0599  2.4103
 1317TIP3    H2 3916   5.605   5.633   2.350  0.6029  0.1367  1.0793
 1318TIP3   OH2 3917   4.352   3.361   2.475 -0.2857 -0.0353 -0.4309
 1318TIP3    H1 3918   4.399   3.281   2.498 -0.3977 -0.1830 -0.7117
 1318TIP3    H2 3919   4.262   3.344   2.501 -0.1371  0.3453  0.3420
 1319TIP3   OH2 3920   4.365   3.995   4.823 -0.0925  0.1691 -0.0857
 1319TIP3    H1 3921   4.438   3.945   4.787  1.1141  2.0867 -0.4734
 1319TIP3    H2 3922   4.332   3.941   4.895 -0.2241 -2.0886 -1.7240
 1320TIP3   OH2 3923   1.091   0.826   2.666  0.0357 -0.2258 -0.2783
 1320TIP3    H1 3924   1.027   0.769   2.624  0.0884 -0.5575  0.0895
 1320TIP3    H2 3925   1.068   0.914   2.635 -2.4077  0.0662  2.0275
 1321TIP3   OH2 3926   7.104   2.978   2.088  0.2881 -0.6841 -0.1806
 1321TIP3    H1 3927   7.175   3.011   2.033 -0.6658  0.2451 -0.8985
 1321TIP3    H2 3928   7.090   2.888   2.057  0.6759 -0.6320 -0.5223
 1322TIP3   OH2 3929   0.625   0.882   2.649 -0.0609 -0.0748  0.3510
 1322TIP3    H1 3930   0.667   0.881   2.735 -0.4783  0.6362  0.5726
 1322TIP3    H2 3931   0.581   0.967   2.645  2.0056  0.9856 -1.5826
 1323TIP3   OH2 3932   5.136   1.901   4.043 -0.4558 -0.2289 -0.6060
 1323TIP3    H1 3933   5.113   1.992   4.024  0.1839 -0.1025 -0.7967
 1323TIP3    H2 3934   5.150   1.862   3.957  0.9119 -0.0652 -0.4810
 1324TIP3   OH2 3935   6.747   1.695   1.353 -0.1092  0.0659 -0.1680
 1324TIP3    H1 3936   6.812   1.642   1.398  0.0736  1.1117  0.8697
 1324TIP3    H2 3937   6.706   1.747   1.423 -1.3516  0.1577 -0.9330
 1325TIP3   OH2 3938   2.658   6.733   0.502  0.0002  0.5681 -0.5852
 1325TIP3    H1 3939   2.682   6.652   0.456  0.7409  0.8321 -0.6738
 1325TIP3    H2 3940   2.572   6.714   0.539  0.8941 -0.9052  0.8921
 1326TIP3   OH2 3941   4.093   3.153   3.081  0.1366 -0.0594  0.3349
 1326TIP3    H1 3942   4.037   3.145   3.004 -1.4046  0.5700  1.3351
 1326TIP3    H2 3943   4.126   3.064   3.096 -1.5174 -0.7147  0.3379
 1327TIP3   OH2 3944   2.645   1.903   0.843 -0.3436 -0.0796  0.9684
 1327TIP3    H1 3945   2.549   1.905   0.845 -0.3308  0.0848  1.6319
 1327TIP3    H2 3946   2.672   1.970   0.906  0.2540  3.7315 -2.8328
 1328TIP3   OH2 3947  -0.014   6.058   1.446  0.0131 -0.7798 -0.1993
 1328TIP3    H1 3948  -0.035   5.977   1.492  0.7640 -1.0653 -0.3367
 1328TIP3    H2 3949   0.078   6.047   1.420 -0.0343 -0.1053 -0.6746
 1329TIP3   OH2 3950   4.182   3.621   0.253  0.1354 -0.2330 -0.3520
 1329TIP3    H1 3951   4.225   3.703   0.231 -0.7856  0.5267  0.5561
 1329TIP3    H2 3952   4.133   3.597   0.174  1.5322 -0.6984 -1.1171
 1330TIP3   OH2 3953   2.001   3.597   1.422  0.1467 -0.1547 -0.0666
 1330TIP3    H1 3954   2.044   3.609   1.338 -3.3208  1.4933 -1.7808
 1330TIP3    H2 3955   1.970   3.507   1.420 -0.7731  0.1653 -1.0453
 1331TIP3   OH2 3956   6.793   3.019   3.929 -0.3725 -0.0571  0.2723
 1331TIP3    H1 3957   6.707   2.986   3.954 -0.9376  0.3586 -1.0479
 1331TIP3    H2 3958   6.829   2.953   3.870  0.1338 -0.1326  0.6547
 1332TIP3   OH2 3959   4.293   5.915   5.808 -0.2279 -0.0748 -0.7691
 1332TIP3    H1 3960   4.312   5.853   5.738  0.8595 -0.5097 -0.1094
 1332TIP3    H2 3961   4.374   5.921   5.858 -0.4634  1.5067 -0.5170
 1333TIP3   OH2 3962   4.962   4.528   1.858 -0.4487  0.0864 -0.2224
 1333TIP3    H1 3963   4.992   4.586   1.929  0.2071 -1.2924  0.6808
 1333TIP3    H2 3964   4.906   4.584   1.804 -0.9816  1.2059  1.3820
 1334TIP3   OH2 3965   0.391   1.417   3.034  0.0218 -0.0220 -0.4731
 1334TIP3    H1 3966   0.361   1.508   3.035 -0.0958 -0.0146  1.7922
 1334TIP3    H2 3967   0.483   1.421   3.057  0.5286 -0.3859 -2.3109
 1335TIP3   OH2 3968   3.013   5.830   3.074 -0.5387  0.4351 -0.0483
 1335TIP3    H1 3969   3.084   5.772   3.104 -1.8565  0.1359  2.8221
 1335TIP3    H2 3970   3.057   5.911   3.049  0.9786 -0.3949 -0.1780
 1336TIP3   OH2 3971   2.357   5.460   0.376  0.2848  0.7834  0.0409
 1336TIP3    H1 3972   2.427   5.524   0.393  1.8551 -0.9055  0.2443
 1336TIP3    H2 3973   2.371   5.391   0.441 -2.1802  0.8128  0.7006
 1337TIP3   OH2 3974   5.035   1.610   2.873 -0.7769 -0.8765  0.2586
 1337TIP3    H1 3975   5.012   1.581   2.785  0.7679  0.9599 -0.8253
 1337TIP3    H2 3976   4.955   1.651   2.906 -1.2520 -1.2178 -0.4437
 1338TIP3   OH2 3977   0.557   6.130   0.784 -0.1829 -0.5725 -0.2212
 1338TIP3    H1 3978   0.520   6.163   0.866  1.0486  0.9355 -0.2416
 1338TIP3    H2 3979   0.502   6.170   0.716  0.3797  0.2640 -0.1963
 1339TIP3   OH2 3980   0.889   1.730   3.382 -0.1124 -0.1529  0.1599
 1339TIP3    H1 3981   0.958   1.685   3.431  1.6791 -0.3015 -2.2872
 1339TIP3    H2 3982   0.859   1.800   3.440  0.7430 -1.2868  2.0324
 1340TIP3   OH2 3983   4.478   2.389   1.191  0.0636  0.3616  0.0232
 1340TIP3    H1 3984   4.405   2.366   1.133  0.5132  0.4978 -0.6067
 1340TIP3    H2 3985   4.552   2.404   1.132  0.6441  0.0824  0.6637
 1341TIP3   OH2 3986   4.478   4.858   4.816 -0.1188 -0.3938  0.2535
 1341TIP3    H1 3987   4.389   4.889   4.801  0.4838  0.5052 -1.8059
 1341TIP3    H2 3988   4.526   4.882   4.737  2.5538  1.3165  2.2165
 1342TIP3   OH2 3989   1.786   4.264   0.930 -0.5581 -0.5493 -0.0689
 1342TIP3    H1 3990   1.855   4.226   0.876 -1.4106 -1.1391 -0.7870
 1342TIP3    H2 3991   1.798   4.224   1.017  1.1549  0.8224  0.3743
 1343TIP3   OH2 3992   4.491   0.528   3.149  0.2993  0.0780 -0.0957
 1343TIP3    H1 3993   4.424   0.575   3.199  0.3143  0.3942 -0.3683
 1343TIP3    H2 3994   4.454   0.441   3.136  0.3834 -0.0783  0.6426
 1344TIP3   OH2 3995   2.222   2.976   5.297  0.5990  0.1775  0.3507
 1344TIP3    H1 3996   2.311   2.988   5.262  0.7966 -1.8879  0.0540
 1344TIP3    H2 3997   2.167   2.966   5.220  0.2649  0.3673  0.5625
 1345TIP3   OH2 3998   4.861   1.109   5.659 -0.0597 -1.0013 -0.4852
 1345TIP3    H1 3999   4.783   1.088   5.608  0.2000 -1.4750 -0.6914
 1345TIP3    H2 4000   4.857   1.049   5.734  0.8475 -2.0474 -1.2377
 1346TIP3   OH2 4001   5.286   5.386   1.832 -0.4076  0.1691 -0.1782
 1346TIP3    H1 4002   5.327   5.408   1.915  1.0119  0.8352 -1.0185
 1346TIP3    H2 4003   5.192   5.398   1.847 -0.3177 -1.1291  1.7194
 1347TIP3   OH2 4004   0.853   5.403   4.911 -0.1843  0.3377 -0.2642
 1347TIP3    H1 4005   0.903   5.451   4.845 -0.2111 -0.3608 -0.8009
 1347TIP3    H2 4006   0.803   5.338   4.861  0.3129 -0.6553  0.5002
 1348TIP3   OH2 4007   0.219   4.403   0.489 -0.5653  0.7183 -0.0138
 1348TIP3    H1 4008   0.179   4.349   0.558 -0.0487 -0.5373 -0.6709
 1348TIP3    H2 4009   0.255   4.478   0.536 -1.7278  0.7686  0.8670
 1349TIP3   OH2 4010   6.751   3.988   3.987  0.4068 -0.0246 -0.1097
 1349TIP3    H1 4011   6.789   3.900   3.998  0.2069 -0.0060  0.7777
 1349TIP3    H2 4012   6.657   3.974   3.997 -0.1341 -0.3803 -4.0766
 1350TIP3   OH2 4013   1.991   6.215   2.176  1.2944  0.4785  0.3894
 1350TIP3    H1 4014   2.008   6.164   2.255 -0.5653  1.1691  1.2805
 1350TIP3    H2 4015   1.990   6.306   2.205 -1.2058  0.6504 -0.0204
 1351TIP3   OH2 4016   3.464   2.403   2.389 -0.0980  0.4925  0.3975
 1351TIP3    H1 4017   3.538   2.434   2.441 -0.1013  0.9144  0.1564
 1351TIP3    H2 4018   3.501   2.333   2.335  0.4020  1.4650 -0.5504
 1352TIP3   OH2 4019   6.719   1.002   3.009 -0.0069  0.1686 -0.2756
 1352TIP3    H1 4020   6.748   0.917   2.976 -0.3428 -0.1998  0.3603
 1352TIP3    H2 4021   6.718   1.059   2.932  1.1814 -0.1357 -0.5388
 1353TIP3   OH2 4022   6.134   1.614   4.363 -0.7316 -0.6577  0.2513
 1353TIP3    H1 4023   6.152   1.526   4.397  0.2999 -0.5224  0.0851
 1353TIP3    H2 4024   6.187   1.620   4.283 -0.8924  0.0738  0.1960
 1354TIP3   OH2 4025   3.967   2.124   2.926  0.0960  0.1121 -0.2194
 1354TIP3    H1 4026   4.025   2.079   2.987  0.0929 -0.3076 -0.5208
 1354TIP3    H2 4027   3.879   2.104   2.957  0.1005  0.3194 -0.0675
 1355TIP3   OH2 4028   5.948   2.301   2.863  0.0550  0.1814 -0.1844
 1355TIP3    H1 4029   5.886   2.228   2.854  0.5723 -0.5025  1.5333
 1355TIP3    H2 4030   5.941   2.328   2.954 -0.7636  2.9222 -0.9779
 1356TIP3   OH2 4031   6.418   3.204   4.231  0.2744 -0.6977 -0.0188
 1356TIP3    H1 4032   6.493   3.253   4.196 -0.9787  0.7334 -0.7899
 1356TIP3    H2 4033   6.397   3.142   4.161  0.4913 -0.8306  0.0325
 1357TIP3   OH2 4034   4.074   5.712   0.899  0.1775 -0.2010 -0.0666
 1357TIP3    H1 4035   4.059   5.681   0.810  0.9621 -0.5693 -0.0799
 1357TIP3    H2 4036   4.124   5.793   0.888  0.6555 -0.4768  0.0436
 1358TIP3   OH2 4037   1.245   3.728   1.443  0.0526 -0.0413  0.3652
 1358TIP3    H1 4038   1.248   3.678   1.525 -0.3921  0.2339  0.5565
 1358TIP3    H2 4039   1.183   3.681   1.388 -2.1952  1.5097  1.4034
 1359TIP3   OH2 4040   2.572   0.181   5.380  0.5867 -0.1708 -0.3918
 1359TIP3    H1 4041   2.514   0.254   5.356 -0.3857 -0.5702  0.6403
 1359TIP3    H2 4042   2.606   0.204   5.466 -0.4775 -1.3225  0.3801
 1360TIP3   OH2 4043   7.104   3.783   5.513 -0.5973 -0.6498 -0.1036
 1360TIP3    H1 4044   7.104   3.764   5.606 -0.2628 -0.5206 -0.0750
 1360TIP3    H2 4045   7.194   3.809   5.494 -1.0125  0.8232 -0.1481
 1361TIP3   OH2 4046   7.021   0.638   1.865 -0.0424  0.0600 -0.3159
 1361TIP3    H1 4047   6.958   0.704   1.837 -1.0070 -0.2810  0.9663
 1361TIP3    H2 4048   7.029   0.651   1.959  2.3073  0.4945 -0.5081
 1362TIP3   OH2 4049   0.549   3.578   2.244 -0.1216 -0.5505 -0.5161
 1362TIP3    H1 4050   0.490   3.521   2.195 -2.5211 -1.1886  2.8048
 1362TIP3    H2 4051   0.630   3.527   2.252 -1.2563 -2.3433  0.0040
 1363TIP3   OH2 4052   6.953   1.064  -0.026  0.0442 -0.0288  0.1453
 1363TIP3    H1 4053   6.889   1.009   0.018 -0.1154  0.0283 -0.0165
 1363TIP3    H2 4054   6.963   1.140   0.031 -0.3597  0.1711 -0.0464
 1364TIP3   OH2 4055   6.793   4.933   3.859  0.4561 -0.1280 -0.3440
 1364TIP3    H1 4056   6.731   4.874   3.903 -0.1354  0.5343 -0.2772
 1364TIP3    H2 4057   6.852   4.962   3.929  0.3328 -0.1137 -0.2457
 1365TIP3   OH2 4058   6.101   2.487   4.577  0.5925  0.6651  0.1149
 1365TIP3    H1 4059   6.039   2.550   4.614 -0.4625 -0.8561  1.1127
 1365TIP3    H2 4060   6.164   2.472   4.647 -0.1649 -0.6212  0.5665
 1366TIP3   OH2 4061   3.015   4.840   4.539 -0.0366 -0.1916 -0.0151
 1366TIP3    H1 4062   2.964   4.840   4.458 -0.5568 -1.1796  0.2930
 1366TIP3    H2 4063   3.104   4.861   4.511 -0.2870 -0.1401 -0.7952
 1367TIP3   OH2 4064   0.454   3.092   4.744  0.1072  0.2949 -0.2566
 1367TIP3    H1 4065   0.549   3.081   4.740 -0.0473 -0.8689 -1.9998
 1367TIP3    H2 4066   0.441   3.180   4.778  1.8024  0.4158  0.1590
 1368TIP3   OH2 4067   6.053   5.351   4.348  0.1228 -0.1457  0.2051
 1368TIP3    H1 4068   5.963   5.372   4.373 -1.2461 -1.4772 -3.0494
 1368TIP3    H2 4069   6.052   5.258   4.329  1.0572  0.4511 -3.6193
 1369TIP3   OH2 4070   2.015   2.096   5.813  0.1842  0.2738  0.4942
 1369TIP3    H1 4071   1.996   2.176   5.862  1.7081  0.1305  1.4042
 1369TIP3    H2 4072   1.930   2.066   5.780 -0.4675  2.0365  0.4699
 1370TIP3   OH2 4073   0.143   5.022   3.063 -0.2905  0.3596  0.1248
 1370TIP3    H1 4074   0.221   5.071   3.090  0.3751 -0.4258 -0.3155
 1370TIP3    H2 4075   0.088   5.019   3.141  0.3161  0.5605  0.5655
 1371TIP3   OH2 4076   2.675   3.339   2.098  0.3429  0.2075  0.4407
 1371TIP3    H1 4077   2.635   3.294   2.173  0.1109 -1.6906 -0.7494
 1371TIP3    H2 4078   2.602   3.353   2.038  0.5250  1.7448  0.5233
 1372TIP3   OH2 4079   4.361   5.147   3.110  0.3994 -0.1293 -0.2266
 1372TIP3    H1 4080   4.318   5.114   3.031 -2.0719 -0.8064  1.2931
 1372TIP3    H2 4081   4.327   5.236   3.120 -0.0695 -0.3820  0.5441
 1373TIP3   OH2 4082   3.458   1.363   5.773  0.2505  0.1463 -0.0063
 1373TIP3    H1 4083   3.544   1.345   5.735  1.4955  1.5492  1.8971
 1373TIP3    H2 4084   3.414   1.416   5.707  0.3946 -1.4523 -1.4521
 1374TIP3   OH2 4085   3.140   2.481   4.546  0.8603 -0.0944  0.5262
 1374TIP3    H1 4086   3.171   2.419   4.613  0.6348 -0.7637  0.0243
 1374TIP3    H2 4087   3.053   2.506   4.576  0.7712 -0.3716  0.5067
 1375TIP3   OH2 4088   7.127   3.316   1.485 -0.3366 -0.3783  0.7688
 1375TIP3    H1 4089   7.174   3.320   1.402  1.5720 -0.4562  1.7968
 1375TIP3    H2 4090   7.093   3.404   1.498  1.4426  0.3155  1.0187
 1376TIP3   OH2 4091   3.195   1.096   0.762 -0.6826 -0.0104  0.3682
 1376TIP3    H1 4092   3.264   1.065   0.703 -0.8564  0.9267 -0.3597
 1376TIP3    H2 4093   3.227   1.076   0.850  0.3119  0.0055  0.0191
 1377TIP3   OH2 4094   7.066   4.900   1.884 -0.2935  0.1812  0.3810
 1377TIP3    H1 4095   7.154   4.919   1.852  0.8259  1.3011  3.7407
 1377TIP3    H2 4096   7.074   4.815   1.927 -0.7868  0.4103  0.9368
 1378TIP3   OH2 4097   6.199   0.588   1.063 -0.2105  0.2658  0.1974
 1378TIP3    H1 4098   6.173   0.497   1.050 -2.8166  0.9560  0.1056
 1378TIP3    H2 4099   6.236   0.590   1.152 -0.1564 -0.8638  0.2125
 1379TIP3   OH2 4100   3.870   3.086   5.603 -0.7986  0.0605  0.1593
 1379TIP3    H1 4101   3.953   3.050   5.573 -2.3876 -3.0115 -1.0065
 1379TIP3    H2 4102   3.827   3.116   5.523 -0.8738  1.6118  0.7509
 1380TIP3   OH2 4103   0.629   4.068   4.631  0.0807 -0.1921  0.4652
 1380TIP3    H1 4104   0.585   4.024   4.559  0.2577 -0.7717  0.7044
 1380TIP3    H2 4105   0.567   4.135   4.661  0.3274  0.6148 -0.7451
 1381TIP3   OH2 4106   0.345   4.464   4.161  0.4209  0.2634  1.0673
 1381TIP3    H1 4107   0.316   4.374   4.180  0.1706  0.0757 -0.1600
 1381TIP3    H2 4108   0.428   4.472   4.207  0.7287 -0.7946  0.7330
 1382TIP3   OH2 4109   4.614   6.676   2.202 -0.4444 -0.0744 -0.5984
 1382TIP3    H1 4110   4.588   6.591   2.238 -1.9388  0.1771 -1.0207
 1382TIP3    H2 4111   4.616   6.663   2.108  0.1461  0.1467 -0.6188
 1383TIP3   OH2 4112   6.674   0.035   5.353 -0.2506  0.1541  0.5294
 1383TIP3    H1 4113   6.706   0.122   5.332 -1.3465  0.4408 -0.0043
 1383TIP3    H2 4114   6.724   0.009   5.430  0.1573  1.2110  0.6348
 1384TIP3   OH2 4115   2.775   2.498   5.014  0.1375 -0.3757 -0.2598
 1384TIP3    H1 4116   2.799   2.434   4.947 -1.2605 -1.2003 -0.0059
 1384TIP3    H2 4117   2.680   2.500   5.013  0.1368  1.2901  0.1501
 1385TIP3   OH2 4118   4.664   2.701   5.117 -0.1704 -0.1651  0.6100
 1385TIP3    H1 4119   4.574   2.714   5.146 -1.0352 -0.7112 -1.6392
 1385TIP3    H2 4120   4.712   2.680   5.197 -1.3865  3.0111  2.3634
 1386TIP3   OH2 4121   5.590   0.635   2.072  0.2175 -0.0296 -0.3567
 1386TIP3    H1 4122   5.558   0.659   1.985 -0.5957  1.4692  0.3030
 1386TIP3    H2 4123   5.539   0.557   2.095 -1.5692  1.1078 -0.1867
 1387TIP3   OH2 4124   3.283   4.821   4.875  0.0366 -0.2177  0.2799
 1387TIP3    H1 4125   3.304   4.765   4.950  4.0081 -0.8416 -1.0978
 1387TIP3    H2 4126   3.224   4.767   4.821 -0.1449 -1.0958  1.3240
 1388TIP3   OH2 4127   3.189   2.673   4.737 -0.2598 -0.4918 -0.2836
 1388TIP3    H1 4128   3.262   2.673   4.800  1.2346  0.1816 -1.9233
 1388TIP3    H2 4129   3.182   2.581   4.709 -0.0089 -0.5598 -0.1319
 1389TIP3   OH2 4130   2.285   1.471   2.015  0.0859  0.7159  0.3026
 1389TIP3    H1 4131   2.279   1.555   1.969  0.4257 -0.0948 -1.3132
 1389TIP3    H2 4132   2.194   1.443   2.025  0.0124  0.7038 -0.3186
 1390TIP3   OH2 4133   0.928   4.735   4.112 -0.1681 -0.2028  0.3345
 1390TIP3    H1 4134   0.869   4.666   4.081 -1.4643  0.5369  1.0761
 1390TIP3    H2 4135   0.980   4.692   4.181 -0.6043 -0.5845  0.4318
 1391TIP3   OH2 4136   6.614   3.879   2.760 -0.0792  0.4053 -0.2005
 1391TIP3    H1 4137   6.655   3.801   2.798  0.2935  0.2439 -0.9125
 1391TIP3    H2 4138   6.570   3.921   2.834 -0.0761 -0.3429  0.2425
 1392TIP3   OH2 4139   2.376   3.540   0.421  0.1607 -0.4115  0.2311
 1392TIP3    H1 4140   2.314   3.469   0.410 -0.3783 -0.0862  1.1126
 1392TIP3    H2 4141   2.323   3.620   0.412  0.5904 -0.1256  0.1892
 1393TIP3   OH2 4142   4.404   3.646   0.838 -0.2010  0.1319 -0.3106
 1393TIP3    H1 4143   4.398   3.572   0.898  0.7141  0.4709  0.2164
 1393TIP3    H2 4144   4.320   3.646   0.791 -0.7257 -0.4358  0.6108
 1394TIP3   OH2 4145   6.789   4.537   4.893  0.1669 -0.5596  0.2331
 1394TIP3    H1 4146   6.779   4.448   4.926  0.0265 -0.7010 -0.1802
 1394TIP3    H2 4147   6.750   4.534   4.806 -1.6005  0.3673  0.9388
 1395TIP3   OH2 4148   0.493   4.323   4.625 -0.0977  0.1910  1.1870
 1395TIP3    H1 4149   0.407   4.361   4.606  0.2643  1.3137  1.7500
 1395TIP3    H2 4150   0.545   4.395   4.660  2.1791  0.4454 -2.2083
 1396TIP3   OH2 4151   2.671   4.708   5.535 -0.3872  0.0463  0.1369
 1396TIP3    H1 4152   2.610   4.663   5.477 -1.9964 -0.4495  2.1197
 1396TIP3    H2 4153   2.674   4.655   5.614  1.4211  0.9185  0.7175
 1397TIP3   OH2 4154   5.349   1.982   1.058  0.8120  0.1907  0.2362
 1397TIP3    H1 4155   5.419   1.918   1.046 -1.0874 -1.9234 -0.0979
 1397TIP3    H2 4156   5.324   2.007   0.969  0.2116 -0.1573  0.3003
 1398TIP3   OH2 4157   3.441   3.656   5.756 -0.5261 -0.0444 -0.1106
 1398TIP3    H1 4158   3.451   3.696   5.670 -0.5422 -1.7403 -0.9412
 1398TIP3    H2 4159   3.529   3.662   5.795 -0.5658  0.9068 -0.1356
 1399TIP3   OH2 4160   1.284   1.526   4.422 -0.0273  0.0776  0.3368
 1399TIP3    H1 4161   1.367   1.505   4.466  0.6920 -0.8113 -1.3510
 1399TIP3    H2 4162   1.242   1.441   4.408 -0.8631  0.4606  0.4635
 1400TIP3   OH2 4163   3.367   0.799   1.544  0.1682 -0.0062  0.3343
 1400TIP3    H1 4164   3.434   0.757   1.599  1.2742 -0.8113 -1.5137
 1400TIP3    H2 4165   3.405   0.797   1.456 -1.8463  0.5410 -0.5917
 1401TIP3   OH2 4166   3.288   6.496   1.728 -0.0934 -0.3835  0.1168
 1401TIP3    H1 4167   3.261   6.581   1.693  0.2998 -0.5040 -0.4957
 1401TIP3    H2 4168   3.310   6.445   1.650 -0.9612 -1.2669  0.4372
 1402TIP3   OH2 4169   5.650   3.846   1.121 -0.1657 -0.2356 -0.0483
 1402TIP3    H1 4170   5.572   3.791   1.130 -1.0908  1.2464  1.7811
 1402TIP3    H2 4171   5.706   3.819   1.195 -0.4243  0.9076  0.5859
 1403TIP3   OH2 4172   6.300   6.132   2.092 -0.5826 -0.0499 -0.1183
 1403TIP3    H1 4173   6.241   6.060   2.114  0.9704 -1.1358  0.7555
 1403TIP3    H2 4174   6.386   6.101   2.121  0.0631  2.4035  0.8548
 1404TIP3   OH2 4175   1.238   0.522   2.841  0.2966  0.1861  0.2242
 1404TIP3    H1 4176   1.213   0.612   2.860 -0.1525 -0.2741  1.9350
 1404TIP3    H2 4177   1.299   0.498   2.910 -0.3113 -1.1202  0.3488
 1405TIP3   OH2 4178   1.558   2.027   3.454  0.4583 -0.1506 -1.0272
 1405TIP3    H1 4179   1.468   2.001   3.475  0.4815 -0.4486 -1.2839
 1405TIP3    H2 4180   1.588   1.961   3.390  0.9720 -0.2519 -0.6914
 1406TIP3   OH2 4181   3.565   2.705   4.601  0.2891  0.0712 -0.3690
 1406TIP3    H1 4182   3.639   2.671   4.652 -0.1633 -1.7765 -0.8573
 1406TIP3    H2 4183   3.488   2.661   4.639 -0.2538  0.0193 -1.4884
 1407TIP3   OH2 4184   3.196   3.148   4.850  0.9552  0.0628  0.6335
 1407TIP3    H1 4185   3.172   3.094   4.925  1.5689 -0.4790  0.4581
 1407TIP3    H2 4186   3.174   3.094   4.774 -0.0177  0.7585  0.4086
 1408TIP3   OH2 4187   4.842   0.968   1.217  0.0713 -0.2798  0.2604
 1408TIP3    H1 4188   4.895   0.888   1.214  0.7375  0.1604 -0.3188
 1408TIP3    H2 4189   4.791   0.965   1.136 -1.0515 -0.8631  0.9773
 1409TIP3   OH2 4190   3.011   2.986   2.820 -0.4246 -0.2452  0.4000
 1409TIP3    H1 4191   3.053   3.027   2.896  0.5917 -0.0917 -0.2232
 1409TIP3    H2 4192   3.029   2.893   2.831 -0.2531 -0.2204  0.3377
 1410TIP3   OH2 4193   6.600   6.417   1.754  0.4624 -0.3176  0.2930
 1410TIP3    H1 4194   6.541   6.444   1.683 -1.9568 -1.7465  1.6454
 1410TIP3    H2 4195   6.622   6.326   1.735  1.8776  0.0381  0.0931
 1411TIP3   OH2 4196   0.991   5.761   4.947  0.0575 -0.1405  0.0040
 1411TIP3    H1 4197   0.956   5.807   4.871  1.4007  1.8941  0.5405
 1411TIP3    H2 4198   1.046   5.692   4.909 -0.1832  0.1256 -0.8532
 1412TIP3   OH2 4199   5.446   4.421   5.014  0.3045  0.1231 -0.4314
 1412TIP3    H1 4200   5.359   4.455   5.032  0.5129 -0.0321  1.0514
 1412TIP3    H2 4201   5.456   4.427   4.919 -1.6392 -0.6540 -0.7190
 1413TIP3   OH2 4202   1.185   6.842   0.699 -0.0531  0.1762  0.1686
 1413TIP3    H1 4203   1.165   6.797   0.780  1.2886 -0.9380 -0.0801
 1413TIP3    H2 4204   1.182   6.774   0.632  0.2255  0.7990 -0.4888
 1414TIP3   OH2 4205   5.969   0.880   1.576  0.1547 -0.4189 -0.1161
 1414TIP3    H1 4206   5.994   0.845   1.491 -0.0580  1.5889 -1.0590
 1414TIP3    H2 4207   5.914   0.955   1.556  0.9463  0.7435  1.7569
 1415TIP3   OH2 4208   2.118   6.055   1.861  0.3432  0.1281  0.5743
 1415TIP3    H1 4209   2.168   6.075   1.940 -0.0228  0.8506  0.6408
 1415TIP3    H2 4210   2.168   5.987   1.817 -0.7222 -2.2050  2.6881
 1416TIP3   OH2 4211   2.395   6.088   3.556 -0.1131 -0.0086  0.1435
 1416TIP3    H1 4212   2.324   6.127   3.607 -0.7942 -0.6007 -0.3281
 1416TIP3    H2 4213   2.410   6.150   3.484  0.1491  0.3222  0.4754
 1417TIP3   OH2 4214   1.425   3.397   0.926  0.0062  0.2709 -0.1899
 1417TIP3    H1 4215   1.409   3.488   0.953  2.1258  0.9726 -1.1077
 1417TIP3    H2 4216   1.337   3.361   0.912 -0.8835  2.4160 -0.5763
 1418TIP3   OH2 4217   0.585   2.651   1.158  0.0012  0.2915 -0.0668
 1418TIP3    H1 4218   0.667   2.657   1.207  0.4246  3.3665 -0.9245
 1418TIP3    H2 4219   0.582   2.732   1.107 -2.7893 -0.5020 -1.3552
 1419TIP3   OH2 4220   5.872   5.873   0.010 -0.4426 -0.1737 -0.7658
 1419TIP3    H1 4221   5.798   5.838   0.060 -0.7319  0.6183 -0.6189
 1419TIP3    H2 4222   5.936   5.897   0.076 -0.7766  0.7650 -0.7725
 1420TIP3   OH2 4223   4.762   4.218   3.612 -0.0494  0.0088  0.0193
 1420TIP3    H1 4224   4.773   4.313   3.619  0.4564 -0.1031  0.9557
 1420TIP3    H2 4225   4.814   4.183   3.685 -0.6344 -0.9598 -0.0184
 1421TIP3   OH2 4226   0.645   5.259   1.042 -0.5504  0.2854  0.2837
 1421TIP3    H1 4227   0.628   5.165   1.034 -1.7363  0.5390 -0.4791
 1421TIP3    H2 4228   0.583   5.300   0.982  0.2544  1.5451  0.2670
 1422TIP3   OH2 4229   0.184   6.586   2.575  0.8077  0.1850 -0.1898
 1422TIP3    H1 4230   0.101   6.540   2.587  1.5965 -1.5296 -0.9403
 1422TIP3    H2 4231   0.233   6.569   2.655  1.3099 -0.8011 -0.6851
 1423TIP3   OH2 4232   1.157   0.260   4.698 -0.3278  0.4415 -0.1629
 1423TIP3    H1 4233   1.236   0.260   4.753  1.1448  1.8892 -2.1131
 1423TIP3    H2 4234   1.176   0.194   4.631 -0.3438  1.4387 -1.1686
 1424TIP3   OH2 4235   6.712   1.926   2.125 -0.0527 -0.0260 -0.2481
 1424TIP3    H1 4236   6.682   1.874   2.200 -0.9285 -1.8184 -1.7502
 1424TIP3    H2 4237   6.636   1.931   2.068  0.9184  0.2617 -1.5633
 1425TIP3   OH2 4238   7.000   6.388   5.453 -0.6084 -0.0323 -0.0230
 1425TIP3    H1 4239   6.987   6.315   5.393 -3.0866 -2.2433  2.8520
 1425TIP3    H2 4240   7.088   6.421   5.433 -0.5714 -1.7872 -3.4495
 1426TIP3   OH2 4241   4.265   3.875   3.229  0.2597  0.1952 -0.3489
 1426TIP3    H1 4242   4.308   3.863   3.314  1.0212 -1.1870 -0.8978
 1426TIP3    H2 4243   4.183   3.827   3.237  0.3189  0.0879 -0.3810
 1427TIP3   OH2 4244   3.514   2.670   3.241 -0.4373  0.2354  0.7611
 1427TIP3    H1 4245   3.533   2.629   3.326  2.0326  1.1397  0.7478
 1427TIP3    H2 4246   3.475   2.601   3.188  0.4054 -1.0935  1.8157
 1428TIP3   OH2 4247   5.269   6.173   1.031  0.2202 -0.2649  0.2136
 1428TIP3    H1 4248   5.360   6.193   1.056  1.0179 -0.2113 -2.4660
 1428TIP3    H2 4249   5.261   6.079   1.046 -0.1059  0.0723  2.6599
 1429TIP3   OH2 4250   5.605   1.908   4.045 -0.1402 -0.6272  0.0988
 1429TIP3    H1 4251   5.673   1.857   4.002 -2.1308 -1.3458 -2.5085
 1429TIP3    H2 4252   5.651   1.981   4.086  2.2621 -1.6261 -0.6719
 1430TIP3   OH2 4253   1.704   1.830   0.368 -0.2978  0.3506 -0.0572
 1430TIP3    H1 4254   1.749   1.827   0.284 -2.0936  1.0360 -1.0844
 1430TIP3    H2 4255   1.738   1.909   0.410  1.0599 -0.3186  0.1748
 1431TIP3   OH2 4256   1.180   0.229   1.711  0.2336  0.1737 -0.1303
 1431TIP3    H1 4257   1.225   0.169   1.770 -0.1149  2.3863  2.5550
 1431TIP3    H2 4258   1.089   0.199   1.712  0.4082 -0.3821 -0.3538
 1432TIP3   OH2 4259   1.808   4.286   1.854 -0.5754 -0.1444  0.1500
 1432TIP3    H1 4260   1.840   4.358   1.908 -0.2461 -0.2943  0.1541
 1432TIP3    H2 4261   1.828   4.312   1.764  0.9362 -0.8984  0.2293
 1433TIP3   OH2 4262   1.755   4.337   4.522 -0.3469  0.3704  0.1157
 1433TIP3    H1 4263   1.738   4.265   4.583 -0.1704 -0.0555 -0.3365
 1433TIP3    H2 4264   1.849   4.351   4.527 -0.4005  0.6871  0.3231
 1434TIP3   OH2 4265   0.042   1.623   2.900  0.2759  0.2707  0.0997
 1434TIP3    H1 4266   0.104   1.657   2.965  0.5317 -0.8392  0.4607
 1434TIP3    H2 4267   0.050   1.528   2.907  1.4752  0.0819 -2.6456
 1435TIP3   OH2 4268   6.379   4.108   3.349  0.2878  0.1115 -0.1036
 1435TIP3    H1 4269   6.352   4.018   3.370 -1.4532  0.7791  0.6652
 1435TIP3    H2 4270   6.461   4.120   3.398  0.8651 -1.2128 -0.6664
 1436TIP3   OH2 4271   4.056   3.190   3.991  0.2248  0.3710 -0.3493
 1436TIP3    H1 4272   4.068   3.270   4.041 -2.1301  0.5251  0.0852
 1436TIP3    H2 4273   4.040   3.122   4.057 -2.4869  0.4977 -0.7389
 1437TIP3   OH2 4274   4.699   0.189   2.693  0.1781 -0.1208  0.4091
 1437TIP3    H1 4275   4.616   0.191   2.645  0.9391  0.4686 -0.9716
 1437TIP3    H2 4276   4.729   0.280   2.692  1.8795 -0.6284 -1.0976
 1438TIP3   OH2 4277   4.337   6.641   3.341 -0.6494  0.1960 -0.2877
 1438TIP3    H1 4278   4.307   6.566   3.392 -1.4559  0.5386 -0.2319
 1438TIP3    H2 4279   4.418   6.669   3.383 -1.5729  0.7956  1.1699
 1439TIP3   OH2 4280   4.889   6.800   2.955  0.2537  0.3025  0.4690
 1439TIP3    H1 4281   4.799   6.823   2.976 -0.1597 -1.5146  0.7635
 1439TIP3    H2 4282   4.884   6.755   2.871  0.7023 -0.8935  1.0594
 1440TIP3   OH2 4283   7.216   1.401   0.473 -0.0113  0.1994  0.3127
 1440TIP3    H1 4284   7.282   1.454   0.428 -0.7486  1.0608  0.2204
 1440TIP3    H2 4285   7.135   1.418   0.425 -0.4148 -0.4189  0.7600
 1441TIP3   OH2 4286   1.072   5.589   3.671 -0.4611  0.1351  0.3551
 1441TIP3    H1 4287   1.099   5.500   3.650 -0.6311 -0.1404  1.2473
 1441TIP3    H2 4288   1.129   5.614   3.743 -1.1436  0.3383  0.8330
 1442TIP3   OH2 4289   2.501   6.156   0.204  0.3431 -0.0231  0.3885
 1442TIP3    H1 4290   2.582   6.128   0.247 -0.1999 -3.3947 -0.5301
 1442TIP3    H2 4291   2.515   6.134   0.112 -1.5288 -0.4823  0.1808
 1443TIP3   OH2 4292   4.892   2.521   5.707 -0.3512 -0.1984 -0.4736
 1443TIP3    H1 4293   4.924   2.445   5.659 -0.6350 -1.6251  1.4936
 1443TIP3    H2 4294   4.924   2.509   5.796 -1.5361  1.2917  0.2048
 1444TIP3   OH2 4295   5.000   5.335   4.201 -0.5403  0.3579  0.1002
 1444TIP3    H1 4296   4.933   5.267   4.209 -0.3941  0.2897  0.7377
 1444TIP3    H2 4297   5.068   5.310   4.263 -1.1623  1.8872  1.4509
 1445TIP3   OH2 4298   4.236   4.113   1.367  0.0959 -0.6139 -0.2171
 1445TIP3    H1 4299   4.158   4.075   1.327  1.0555 -1.7331 -1.1436
 1445TIP3    H2 4300   4.290   4.037   1.390  0.0479  0.0348  2.3127
 1446TIP3   OH2 4301   4.302   2.327   3.314  0.0540 -0.5648 -0.0203
 1446TIP3    H1 4302   4.324   2.325   3.221 -1.6358 -0.8409 -0.4542
 1446TIP3    H2 4303   4.321   2.417   3.341 -0.2597 -0.2308 -0.8616
 1447TIP3   OH2 4304   2.182   3.217   5.654  0.7269  0.4163 -0.8490
 1447TIP3    H1 4305   2.210   3.217   5.746 -1.7860  1.4002 -0.0295
 1447TIP3    H2 4306   2.184   3.124   5.629  2.2121  0.2113 -0.0981
 1448TIP3   OH2 4307   6.363   1.416   1.424 -0.0464 -0.0358  0.3991
 1448TIP3    H1 4308   6.340   1.370   1.505 -2.8092 -1.8872 -1.2365
 1448TIP3    H2 4309   6.347   1.508   1.443  1.3992 -0.1484  2.4987
 1449TIP3   OH2 4310   4.947   3.298   3.774 -0.0974  0.1360 -0.0672
 1449TIP3    H1 4311   4.957   3.385   3.813  1.2158 -0.4234  0.9275
 1449TIP3    H2 4312   4.858   3.297   3.740 -0.6021  1.3852  1.1180
 1450TIP3   OH2 4313   4.453   3.335   1.894 -0.0244 -1.0333 -0.0951
 1450TIP3    H1 4314   4.548   3.320   1.891 -0.1867 -1.9712 -0.9758
 1450TIP3    H2 4315   4.426   3.299   1.978  0.6051  0.7019  0.9187
 1451TIP3   OH2 4316   2.638   6.647   4.958 -0.1689 -0.1926  0.0211
 1451TIP3    H1 4317   2.610   6.596   4.882  1.3403  1.2123 -1.5479
 1451TIP3    H2 4318   2.634   6.738   4.929  1.2783  0.3304  1.3393
 1452TIP3   OH2 4319   7.084   6.228   1.222  0.3460  0.1154  0.2532
 1452TIP3    H1 4320   7.115   6.139   1.239 -0.8276 -0.0079  1.9523
 1452TIP3    H2 4321   7.156   6.284   1.251  0.5254 -0.2469  0.5127
 1453TIP3   OH2 4322   3.680   3.304   3.451  0.0860  0.1042 -0.0820
 1453TIP3    H1 4323   3.602   3.256   3.477  1.0803 -1.4900  0.1156
 1453TIP3    H2 4324   3.649   3.393   3.432 -1.7436 -0.4831 -0.0006
 1454TIP3   OH2 4325   4.619   6.124   4.197  0.3548 -0.1714  0.0031
 1454TIP3    H1 4326   4.702   6.103   4.239  0.1543 -0.3184  0.3341
 1454TIP3    H2 4327   4.604   6.217   4.218  0.3714 -0.1800  0.0530
 1455TIP3   OH2 4328   1.655   2.465   4.310  0.3593 -0.4530 -0.7349
 1455TIP3    H1 4329   1.655   2.369   4.312  0.6829 -0.4716 -1.2783
 1455TIP3    H2 4330   1.734   2.488   4.261  0.0127  0.0766 -1.0673
 1456TIP3   OH2 4331   5.097   6.596   4.504  0.0688  0.1962  0.1450
 1456TIP3    H1 4332   5.140   6.662   4.558  0.7859 -0.5924  0.5623
 1456TIP3    H2 4333   5.088   6.520   4.562 -0.3201 -0.2334 -0.4681
 1457TIP3   OH2 4334   5.092   0.595   0.508  0.2396 -0.2968 -0.1131
 1457TIP3    H1 4335   5.002   0.591   0.477 -0.1188 -1.1191  0.9690
 1457TIP3    H2 4336   5.138   0.529   0.457  0.2762  0.2484 -0.7941
 1458TIP3   OH2 4337   1.127   1.165   1.451 -0.1497  0.1874 -0.5565
 1458TIP3    H1 4338   1.176   1.236   1.492 -2.9242  1.8190  0.2197
 1458TIP3    H2 4339   1.129   1.094   1.516  0.5243  0.5012 -0.2244
 1459TIP3   OH2 4340   5.402   3.393   3.891 -0.4882  0.2821 -0.3281
 1459TIP3    H1 4341   5.357   3.469   3.854  2.4562  2.4616  0.2108
 1459TIP3    H2 4342   5.463   3.366   3.823  0.4946  0.2548  0.5380
 1460TIP3   OH2 4343   3.783   3.036   4.286 -0.2394 -0.3770  0.3663
 1460TIP3    H1 4344   3.781   3.093   4.363 -0.7080  0.3569 -0.1763
 1460TIP3    H2 4345   3.720   3.075   4.225 -0.3333 -1.2965 -0.1462
 1461TIP3   OH2 4346   2.130   3.782   1.602  0.1822  0.5176  0.2868
 1461TIP3    H1 4347   2.072   3.734   1.544 -0.3719  0.7167  0.6581
 1461TIP3    H2 4348   2.167   3.852   1.548  0.0548  0.4033  0.0543
 1462TIP3   OH2 4349   4.803   0.363   1.613 -0.5182 -0.0727 -0.1927
 1462TIP3    H1 4350   4.801   0.433   1.548 -2.7886  0.8592  0.7870
 1462TIP3    H2 4351   4.859   0.398   1.683 -1.4998  0.7134  0.2161
 1463TIP3   OH2 4352   4.671   0.298   3.459  0.0709 -0.3480  0.6979
 1463TIP3    H1 4353   4.580   0.301   3.491 -0.3341  0.2751 -0.4355
 1463TIP3    H2 4354   4.697   0.390   3.454  0.1463 -0.4177 -0.6164
 1464TIP3   OH2 4355   5.225   6.613   0.718  0.7089 -0.0652  0.3895
 1464TIP3    H1 4356   5.290   6.550   0.749  0.3435 -0.4930  0.3044
 1464TIP3    H2 4357   5.151   6.559   0.691  1.1882  0.2497 -1.7001
 1465TIP3   OH2 4358   0.061   5.388   0.439  0.2722  0.2864 -0.3393
 1465TIP3    H1 4359   0.102   5.303   0.424  0.2821  0.3975 -0.9655
 1465TIP3    H2 4360   0.012   5.406   0.358 -0.2793  0.5686  0.0453
 1466TIP3   OH2 4361   1.934   4.191   3.811  0.2091 -0.4056  0.6518
 1466TIP3    H1 4362   1.967   4.151   3.731 -0.5510  0.7945 -0.3084
 1466TIP3    H2 4363   1.842   4.166   3.815  0.1756 -0.2352  0.9961
 1467TIP3   OH2 4364   2.906   1.494   1.145  0.5545 -0.1228 -0.0997
 1467TIP3    H1 4365   2.927   1.516   1.054 -0.1544 -0.7411 -0.4261
 1467TIP3    H2 4366   2.811   1.507   1.151  0.8149  1.5748  1.0383
 1468TIP3   OH2 4367   0.089   2.206   3.319  0.3884  0.1884 -0.3236
 1468TIP3    H1 4368   0.093   2.172   3.230  2.1780 -3.8379  1.0450
 1468TIP3    H2 4369   0.178   2.238   3.336  0.3478  0.0001  0.2731
 1469TIP3   OH2 4370   3.769   5.430   1.792  0.5187 -0.0569 -0.2802
 1469TIP3    H1 4371   3.731   5.378   1.863 -1.5225 -1.0775 -1.9852
 1469TIP3    H2 4372   3.715   5.510   1.790 -0.0501 -0.4465 -1.2163
 1470TIP3   OH2 4373   5.821   5.187   2.254  0.0217 -0.0109 -0.0238
 1470TIP3    H1 4374   5.877   5.237   2.196 -1.7418  0.8627 -1.0521
 1470TIP3    H2 4375   5.745   5.164   2.201 -1.5386  0.5749  1.8370
 1471TIP3   OH2 4376   1.651   2.388   2.617 -0.2169  0.2007  0.1820
 1471TIP3    H1 4377   1.662   2.294   2.605 -0.9558  0.0117  0.8877
 1471TIP3    H2 4378   1.669   2.426   2.531  1.0291 -0.4926  0.1234
 1472TIP3   OH2 4379   4.848   1.001   0.576 -0.4510 -0.1017  0.3222
 1472TIP3    H1 4380   4.759   1.027   0.554  0.3337  1.1646 -1.6056
 1472TIP3    H2 4381   4.869   1.053   0.654 -0.8999  0.7192 -0.0908
 1473TIP3   OH2 4382   4.746   5.569   1.118 -0.0640  0.2633  0.1037
 1473TIP3    H1 4383   4.779   5.641   1.065  0.2509  0.1707  0.1723
 1473TIP3    H2 4384   4.687   5.611   1.181 -0.6799  0.3373 -0.5102
 1474TIP3   OH2 4385   6.059   5.532   0.460  0.0882  0.0798 -0.1302
 1474TIP3    H1 4386   6.083   5.556   0.550 -1.9945 -0.0292  0.5216
 1474TIP3    H2 4387   6.136   5.487   0.426  1.8075  2.1846  0.7441
 1475TIP3   OH2 4388   3.536   2.207   2.182 -0.3382  0.4589  0.3568
 1475TIP3    H1 4389   3.597   2.225   2.110  0.0366 -0.9739  0.2936
 1475TIP3    H2 4390   3.450   2.231   2.147  0.1910  2.9423  0.5977
 1476TIP3   OH2 4391   0.189   4.954   4.766  0.3066 -0.2484  0.2070
 1476TIP3    H1 4392   0.156   4.929   4.680 -3.3307  0.4214  1.2738
 1476TIP3    H2 4393   0.175   5.048   4.772 -0.2654 -0.3962  1.7776
 1477TIP3   OH2 4394   3.867   5.888   5.525 -0.7931  0.4597 -0.3916
 1477TIP3    H1 4395   3.962   5.894   5.535 -0.6661  1.6561 -1.9303
 1477TIP3    H2 4396   3.846   5.797   5.547  0.7092  0.1646 -0.0853
 1478TIP3   OH2 4397   1.231   5.732   5.200 -0.5140 -0.2776 -0.3632
 1478TIP3    H1 4398   1.162   5.688   5.151  0.6614 -0.9522 -1.4655
 1478TIP3    H2 4399   1.309   5.679   5.185  0.4333  0.8991  0.2013
 1479TIP3   OH2 4400   7.098   6.546   1.370 -0.8367  0.2793 -0.3160
 1479TIP3    H1 4401   7.113   6.457   1.401 -1.4163  0.2506 -0.0992
 1479TIP3    H2 4402   7.155   6.600   1.424 -0.6969  0.0693 -0.2527
 1480TIP3   OH2 4403   0.754   3.324   1.765  0.3181  0.1740  0.0764
 1480TIP3    H1 4404   0.820   3.258   1.786  0.9612  0.7087 -0.2757
 1480TIP3    H2 4405   0.764   3.340   1.672  0.7018  1.3640  0.3127
 1481TIP3   OH2 4406   1.230   5.622   3.901  0.3138  0.9951 -0.1179
 1481TIP3    H1 4407   1.300   5.614   3.966  0.0694 -0.2048  0.0192
 1481TIP3    H2 4408   1.162   5.673   3.946  1.2583  2.5849 -0.4134
 1482TIP3   OH2 4409   0.835   2.221   4.047  0.0154 -0.4457 -0.1874
 1482TIP3    H1 4410   0.853   2.315   4.039  0.1032 -0.4163  0.3372
 1482TIP3    H2 4411   0.779   2.201   3.972 -0.6353  0.1894  0.1136
 1483TIP3   OH2 4412   0.660   5.692   0.983  0.3933  0.2238 -0.0919
 1483TIP3    H1 4413   0.600   5.717   0.913 -0.8704 -0.3925  0.7299
 1483TIP3    H2 4414   0.747   5.694   0.943 -0.1314  1.5294 -1.2031
 1484TIP3   OH2 4415   6.889   5.198   4.298  0.8529  0.1583  0.0943
 1484TIP3    H1 4416   6.907   5.154   4.381  2.9809 -0.0585 -0.4310
 1484TIP3    H2 4417   6.880   5.127   4.234  0.2851  0.3581 -0.0529
 1485TIP3   OH2 4418   5.043   5.213   1.935  0.0557 -0.2352 -0.4111
 1485TIP3    H1 4419   5.054   5.193   2.028 -1.5353 -0.3441 -0.2289
 1485TIP3    H2 4420   5.023   5.129   1.894 -1.2468  0.0986 -0.5068
 1486TIP3   OH2 4421   2.231   1.414   0.015 -0.2909  0.0669  0.3684
 1486TIP3    H1 4422   2.255   1.332   0.058  0.2998  0.5403  0.9547
 1486TIP3    H2 4423   2.204   1.472   0.086 -2.7294 -0.2589 -0.2135
 1487TIP3   OH2 4424   6.126   0.326   1.039  0.0318 -0.2767  0.5067
 1487TIP3    H1 4425   6.157   0.298   0.953 -0.7087 -0.7891  0.3983
 1487TIP3    H2 4426   6.132   0.248   1.094 -0.0155 -0.0946  0.7743
 1488TIP3   OH2 4427   3.454   6.131   4.577  0.1710  0.3774 -1.1986
 1488TIP3    H1 4428   3.397   6.060   4.607 -1.5697  0.5489 -3.7535
 1488TIP3    H2 4429   3.541   6.092   4.574 -0.4646 -1.1336 -0.9253
 1489TIP3   OH2 4430   1.343   5.867   0.340 -0.5152  0.1892 -0.2480
 1489TIP3    H1 4431   1.378   5.805   0.404 -0.0963  0.1050 -0.5545
 1489TIP3    H2 4432   1.253   5.838   0.326 -1.2088  1.2641  1.6205
 1490TIP3   OH2 4433   4.323   4.680   3.618  0.2014 -0.3290  0.3558
 1490TIP3    H1 4434   4.360   4.727   3.543  1.9080  1.4120  2.1819
 1490TIP3    H2 4435   4.231   4.706   3.619  0.4174  0.5211 -0.4897
 1491TIP3   OH2 4436   6.007   3.991   2.951  0.0710  0.3376 -0.0907
 1491TIP3    H1 4437   6.043   4.024   3.033  2.7361  3.1486 -2.1363
 1491TIP3    H2 4438   5.999   3.897   2.963 -0.3779  0.7151  3.5506
 1492TIP3   OH2 4439   2.681   2.892   4.447  0.4788 -0.2202 -0.0904
 1492TIP3    H1 4440   2.713   2.915   4.360 -0.5096  0.6155 -0.2531
 1492TIP3    H2 4441   2.588   2.873   4.434  0.8334 -2.5949  0.3635
 1493TIP3   OH2 4442   6.410   2.189   3.508 -0.2069  0.0421  0.6466
 1493TIP3    H1 4443   6.438   2.100   3.528  0.6335 -0.1096 -1.0667
 1493TIP3    H2 4444   6.410   2.234   3.593 -0.8520 -1.6196  1.5576
 1494TIP3   OH2 4445   4.039   2.412   3.428  0.0579  0.3491 -0.3116
 1494TIP3    H1 4446   4.118   2.364   3.405  0.4443  1.5199 -1.6130
 1494TIP3    H2 4447   3.984   2.349   3.474  1.6071 -0.5712  0.3511
 1495TIP3   OH2 4448   6.909   1.303   0.074 -0.6746 -0.2701  0.0737
 1495TIP3    H1 4449   6.889   1.381   0.023 -1.6107 -1.2797 -1.1602
 1495TIP3    H2 4450   6.824   1.269   0.101 -0.2125  0.5120  2.8585
 1496TIP3   OH2 4451   3.762   4.871   5.891  0.6863 -0.1974  0.1383
 1496TIP3    H1 4452   3.786   4.933   5.822 -0.3377 -0.2674 -0.2977
 1496TIP3    H2 4453   3.725   4.925   5.961  0.1596 -0.2709 -0.0780
 1497TIP3   OH2 4454   0.230   5.184   5.625  0.5447  0.4649  0.0451
 1497TIP3    H1 4455   0.154   5.155   5.675  0.1000  2.4142  0.5677
 1497TIP3    H2 4456   0.292   5.214   5.692  1.0092  0.6549 -0.4663
 1498TIP3   OH2 4457   4.419   5.911   2.186  0.0966 -0.0156  0.3862
 1498TIP3    H1 4458   4.440   5.992   2.233  0.8661 -0.8564  1.5407
 1498TIP3    H2 4459   4.453   5.841   2.242  1.1703 -1.0585 -1.4871
 1499TIP3   OH2 4460   4.554   0.604   0.165 -0.6404 -0.0600  0.4092
 1499TIP3    H1 4461   4.513   0.636   0.245 -0.2164  1.0212  0.2039
 1499TIP3    H2 4462   4.576   0.513   0.185  0.5371  0.5159  1.9547
 1500TIP3   OH2 4463   1.177   6.245   3.199 -0.2907 -0.2760 -0.4801
 1500TIP3    H1 4464   1.122   6.252   3.121  0.4555  1.5557 -0.8795
 1500TIP3    H2 4465   1.160   6.325   3.248  0.2849 -0.7770  0.5692
 1501TIP3   OH2 4466   1.980   2.757   3.583 -0.4418 -0.1956 -0.8183
 1501TIP3    H1 4467   1.900   2.710   3.605 -1.4306 -0.3287 -4.1565
 1501TIP3    H2 4468   1.951   2.845   3.558  0.5495 -0.0074 -1.3494
 1502TIP3   OH2 4469   4.413   5.052   4.151  0.0546 -0.1569  0.0338
 1502TIP3    H1 4470   4.412   5.117   4.081 -0.9327 -0.6384 -0.4290
 1502TIP3    H2 4471   4.389   5.101   4.229 -1.0714 -0.0135 -0.3797
 1503TIP3   OH2 4472   3.688   5.177   3.261  0.2262 -0.0667 -0.2650
 1503TIP3    H1 4473   3.735   5.260   3.254 -0.5750  0.4223  0.0290
 1503TIP3    H2 4474   3.631   5.174   3.184  0.3064 -0.3734 -0.3137
 1504TIP3   OH2 4475   5.086   5.172   4.871  0.2847  0.2131  0.2096
 1504TIP3    H1 4476   5.134   5.156   4.952 -0.0926  0.9601  0.5754
 1504TIP3    H2 4477   4.998   5.197   4.898  0.1667  0.5104 -0.4290
 1505TIP3   OH2 4478  -0.029   0.335   2.757 -0.1281 -0.1519  0.1467
 1505TIP3    H1 4479   0.044   0.315   2.698 -0.6960  0.5448 -0.8213
 1505TIP3    H2 4480   0.012   0.354   2.841  0.7619 -0.3694 -0.2303
 1506TIP3   OH2 4481   1.582   3.902   3.662  0.5217 -0.0676  0.0919
 1506TIP3    H1 4482   1.549   3.863   3.743  0.0042 -0.5179 -0.3276
 1506TIP3    H2 4483   1.603   3.827   3.607 -2.3665  0.1532 -1.5004
 1507TIP3   OH2 4484   6.473   0.460   4.227  0.5133 -0.2956 -0.2903
 1507TIP3    H1 4485   6.550   0.442   4.282  0.5946  1.3933  0.2129
 1507TIP3    H2 4486   6.495   0.541   4.182 -1.5247  1.0518  0.9838
 1508TIP3   OH2 4487   4.829   0.028   0.026  0.5998  0.1794  0.0462
 1508TIP3    H1 4488   4.910  -0.011  -0.005  0.6898  0.6784 -0.3752
 1508TIP3    H2 4489   4.812  -0.013   0.110  1.3602  0.1630  0.1950
 1509TIP3   OH2 4490   3.616   2.378   4.665  0.6228 -0.4267  0.4364
 1509TIP3    H1 4491   3.525   2.349   4.652  0.6436 -0.4940  0.4401
 1509TIP3    H2 4492   3.658   2.365   4.581 -0.0558  2.1670 -0.3988
 1510TIP3   OH2 4493   0.110   3.105   4.822 -0.2633  0.1177  0.5360
 1510TIP3    H1 4494   0.149   3.192   4.814  1.5784 -0.5478  1.6802
 1510TIP3    H2 4495   0.052   3.111   4.898 -2.0592  0.9390 -0.8062
 1511TIP3   OH2 4496   6.230   4.846   4.207  0.0024  0.1291  0.0461
 1511TIP3    H1 4497   6.299   4.801   4.257 -0.2425  0.1151  0.3711
 1511TIP3    H2 4498   6.182   4.775   4.165 -0.0544  0.1188  0.1288
 1512TIP3   OH2 4499   2.831   4.315   3.545  0.3729 -0.2589  0.2140
 1512TIP3    H1 4500   2.757   4.361   3.585  2.1573  0.9113  2.3979
 1512TIP3    H2 4501   2.888   4.385   3.513  0.3567 -1.1459 -1.9465
 1513TIP3   OH2 4502   5.156   1.050   1.267 -0.2206 -0.1289  0.5200
 1513TIP3    H1 4503   5.066   1.016   1.267  0.3634 -1.8607 -1.5029
 1513TIP3    H2 4504   5.145   1.145   1.268 -2.1230 -0.2912 -0.3111
 1514TIP3   OH2 4505   5.354   1.232   1.201  0.8310  0.0422  0.0101
 1514TIP3    H1 4506   5.339   1.174   1.275 -0.3045 -0.2995 -0.4696
 1514TIP3    H2 4507   5.437   1.275   1.221  0.9812 -0.6903  1.0515
 1515TIP3   OH2 4508   4.517   0.340   1.658 -0.7479  0.2439 -0.3509
 1515TIP3    H1 4509   4.609   0.331   1.634 -0.8598  0.0484 -0.7299
 1515TIP3    H2 4510   4.518   0.358   1.752 -0.3162  0.4353 -0.3883
 1516TIP3   OH2 4511   6.892   4.107   0.570  0.1184  0.2359  0.2353
 1516TIP3    H1 4512   6.978   4.148   0.567  0.4953 -0.5668 -0.3134
 1516TIP3    H2 4513   6.909   4.019   0.606 -0.1204 -0.7548 -1.9436
 1517TIP3   OH2 4514   6.372   5.416   4.819  0.2400 -0.8727  0.1358
 1517TIP3    H1 4515   6.308   5.346   4.804 -1.7984  0.8583  0.2198
 1517TIP3    H2 4516   6.428   5.414   4.741  0.0139 -2.3560 -0.0124
 1518TIP3   OH2 4517   4.556   3.864   0.832 -0.2974 -0.1662 -0.5212
 1518TIP3    H1 4518   4.643   3.835   0.803 -0.3251  0.7733 -1.6218
 1518TIP3    H2 4519   4.498   3.790   0.814  0.1166 -0.4669 -0.6267
 1519TIP3   OH2 4520   6.749   1.421   3.328  0.2972 -0.3924  0.2730
 1519TIP3    H1 4521   6.770   1.446   3.238  1.7937 -0.4204  0.6016
 1519TIP3    H2 4522   6.722   1.329   3.321 -0.4692 -0.1354 -0.2580
 1520TIP3   OH2 4523   0.869   4.367   4.327  0.2147  0.2116 -0.1656
 1520TIP3    H1 4524   0.919   4.448   4.335  0.7904 -0.1926  0.4720
 1520TIP3    H2 4525   0.868   4.348   4.233 -0.7882  1.4717 -0.4442
 1521TIP3   OH2 4526   7.166   1.085   2.956  0.5986 -0.0737  0.2158
 1521TIP3    H1 4527   7.113   1.105   3.033  1.8296  0.8175  0.8583
 1521TIP3    H2 4528   7.152   0.992   2.941 -2.1023  0.3481 -0.3954
 1522TIP3   OH2 4529   1.995   4.027   3.589 -0.1193 -0.0212  0.2688
 1522TIP3    H1 4530   1.982   4.029   3.494 -3.4723  0.3267  0.6447
 1522TIP3    H2 4531   2.004   3.934   3.610  0.4394 -0.1134 -0.3292
 1523TIP3   OH2 4532   6.191   5.057   5.066  0.4584  0.7744  0.1959
 1523TIP3    H1 4533   6.270   5.060   5.013  0.4283 -1.2915 -0.0652
 1523TIP3    H2 4534   6.168   4.964   5.069 -0.5443  1.0325  2.3689
 1524TIP3   OH2 4535   1.973   4.662   0.946 -0.5294 -0.0107 -0.2255
 1524TIP3    H1 4536   1.973   4.629   0.856 -0.3981  0.7845 -0.5276
 1524TIP3    H2 4537   2.010   4.750   0.939 -0.6150  0.0969  0.5930
 1525TIP3   OH2 4538   1.309   3.088   0.268 -0.1475 -0.5492 -0.4274
 1525TIP3    H1 4539   1.238   3.130   0.222 -0.0087 -0.6789 -0.7609
 1525TIP3    H2 4540   1.383   3.090   0.207 -0.4381 -2.2413 -0.8715
 1526TIP3   OH2 4541   1.513   6.722   4.158  0.0279 -0.1997 -0.3016
 1526TIP3    H1 4542   1.602   6.730   4.125  0.6542  2.6551  1.7599
 1526TIP3    H2 4543   1.467   6.798   4.123 -1.3779 -1.0946 -0.5136
 1527TIP3   OH2 4544   5.021   0.208   5.283 -0.4427  0.4179  0.1299
 1527TIP3    H1 4545   5.044   0.250   5.200  1.0493  2.4556  1.4801
 1527TIP3    H2 4546   5.058   0.120   5.275 -0.4157  0.5337 -1.3911
 1528TIP3   OH2 4547   1.752   5.730   5.631  0.3011  0.0063  0.1027
 1528TIP3    H1 4548   1.847   5.730   5.636  0.5068  3.3998 -1.1826
 1528TIP3    H2 4549   1.732   5.743   5.538 -1.2900  1.5822  0.5942
 1529TIP3   OH2 4550   0.985   4.466   2.361 -0.2807  0.0094 -0.1670
 1529TIP3    H1 4551   1.021   4.555   2.369 -1.1665  0.3264  0.4990
 1529TIP3    H2 4552   0.904   4.477   2.312  0.0531 -0.5734 -0.8731
 1530TIP3   OH2 4553   2.130   5.183   1.683 -0.1608  0.6629  0.2468
 1530TIP3    H1 4554   2.058   5.223   1.633  0.9375  0.1880 -1.8380
 1530TIP3    H2 4555   2.196   5.252   1.687 -0.1080  0.5817  0.7724
 1531TIP3   OH2 4556   3.921   3.653   3.022  0.0475 -0.1493 -0.3633
 1531TIP3    H1 4557   3.896   3.560   3.022 -0.6877  0.0384 -0.0228
 1531TIP3    H2 4558   3.931   3.675   2.930 -0.8595 -0.2982 -0.5093
 1532TIP3   OH2 4559   5.008   3.174   0.683 -0.0277  0.0777  0.2695
 1532TIP3    H1 4560   4.949   3.100   0.693 -0.6581  0.4757 -0.3736
 1532TIP3    H2 4561   4.952   3.245   0.652  0.7299  0.5639 -0.0179
 1533TIP3   OH2 4562   6.795   3.802   3.070  0.2528 -0.4837  0.1940
 1533TIP3    H1 4563   6.767   3.733   3.131 -0.3864  0.3152  0.8297
 1533TIP3    H2 4564   6.779   3.884   3.118  0.7800  0.1191 -0.6364
 1534TIP3   OH2 4565   0.389   1.040   3.366  0.2810  0.1475 -0.5796
 1534TIP3    H1 4566   0.464   1.097   3.348 -0.1440  1.0926  0.5271
 1534TIP3    H2 4567   0.313   1.097   3.357 -0.0755  0.2635  2.2087
 1535TIP3   OH2 4568   4.813   2.420   3.108  0.0218 -0.0364 -0.1139
 1535TIP3    H1 4569   4.815   2.515   3.093 -1.1031 -0.1491 -1.1104
 1535TIP3    H2 4570   4.889   2.387   3.060  1.1967  0.4837  1.3391
 1536TIP3   OH2 4571   2.281   2.666   5.346  0.5094  0.1330 -0.5201
 1536TIP3    H1 4572   2.236   2.750   5.334 -0.6828 -0.1202  1.6657
 1536TIP3    H2 4573   2.222   2.602   5.306  1.5855  0.3096 -2.5054
 1537TIP3   OH2 4574   0.692   6.539   4.610  0.2542  0.1595  0.6536
 1537TIP3    H1 4575   0.778   6.577   4.628  0.5750  1.2518 -2.5209
 1537TIP3    H2 4576   0.711   6.457   4.565 -0.2977  0.7336 -0.6824
 1538TIP3   OH2 4577   2.286   2.621   1.148 -0.0246 -0.4602  0.1692
 1538TIP3    H1 4578   2.192   2.622   1.162 -0.1319  1.8267 -0.3038
 1538TIP3    H2 4579   2.301   2.548   1.089 -1.9661  1.0260 -2.3539
 1539TIP3   OH2 4580   1.859   4.319   4.218 -0.1208  0.1787  0.0475
 1539TIP3    H1 4581   1.797   4.249   4.238 -0.1426  0.2084  0.0856
 1539TIP3    H2 4582   1.814   4.399   4.247 -0.3835  0.2847 -0.6366
 1540TIP3   OH2 4583   4.007   5.409   3.845  0.1149  0.2489  0.3920
 1540TIP3    H1 4584   4.022   5.456   3.927 -0.4977  1.0383  0.0571
 1540TIP3    H2 4585   4.095   5.389   3.812  0.3693  0.5144  0.9059
 1541TIP3   OH2 4586   6.331   3.058   1.074 -0.4175 -0.0350 -0.0366
 1541TIP3    H1 4587   6.270   3.127   1.049 -0.1523  0.1360 -0.1966
 1541TIP3    H2 4588   6.274   2.985   1.100 -0.6923  0.0095 -0.5030
 1542TIP3   OH2 4589   2.523   6.562   4.435 -0.4928  0.2642 -0.1845
 1542TIP3    H1 4590   2.616   6.553   4.411  0.2802  1.7457  1.9132
 1542TIP3    H2 4591   2.515   6.653   4.466 -2.6934  0.2103 -0.4541
 1543TIP3   OH2 4592   2.613   0.320   0.744  0.1438 -0.3383 -0.1542
 1543TIP3    H1 4593   2.592   0.329   0.651  1.2685 -0.4525 -0.4337
 1543TIP3    H2 4594   2.534   0.282   0.783 -0.7999  0.8699 -0.8252
 1544TIP3   OH2 4595   2.736   6.681   5.867  0.2905  0.8353  0.3972
 1544TIP3    H1 4596   2.648   6.659   5.837  1.0905 -0.9360 -0.8058
 1544TIP3    H2 4597   2.730   6.773   5.892 -2.0943  0.5361  1.1756
 1545TIP3   OH2 4598   3.751   1.496   3.735  0.3460  0.2341  0.1539
 1545TIP3    H1 4599   3.840   1.492   3.699  0.6542 -0.6324  0.9776
 1545TIP3    H2 4600   3.761   1.474   3.827 -0.8735 -1.0722  0.0168
 1546TIP3   OH2 4601   0.196   0.653   2.976  0.0176  0.2647 -0.6143
 1546TIP3    H1 4602   0.199   0.702   2.894 -1.6933  2.0383  0.2864
 1546TIP3    H2 4603   0.228   0.715   3.042 -0.0293 -0.6196  0.2685
 1547TIP3   OH2 4604   4.628   3.675   2.235 -0.1012  0.0785 -0.5001
 1547TIP3    H1 4605   4.562   3.737   2.202  1.2643  1.2341 -1.1461
 1547TIP3    H2 4606   4.587   3.589   2.222 -2.2987  0.7970  0.9884
 1548TIP3   OH2 4607   6.709   0.720   2.504 -0.0698  0.4283  0.0229
 1548TIP3    H1 4608   6.666   0.781   2.563 -1.9986 -1.3291  0.5600
 1548TIP3    H2 4609   6.767   0.774   2.451  0.4090  2.3019  2.3034
 1549TIP3   OH2 4610   6.131   2.698   3.495 -0.2906  0.5694  0.0124
 1549TIP3    H1 4611   6.055   2.650   3.461  0.3609  0.4902 -1.3966
 1549TIP3    H2 4612   6.125   2.784   3.455 -0.4210  1.0634  1.0603
 1550TIP3   OH2 4613   4.844   5.900   3.267  1.2284  0.0366 -0.5506
 1550TIP3    H1 4614   4.784   5.833   3.236  2.2840 -1.3413  0.2234
 1550TIP3    H2 4615   4.789   5.962   3.315  0.2925 -0.5809 -0.8015
 1551TIP3   OH2 4616   6.584   3.473   4.940  0.0504 -0.1951  0.2678
 1551TIP3    H1 4617   6.644   3.535   4.899  0.7260  0.1169  1.6550
 1551TIP3    H2 4618   6.607   3.388   4.901  2.0430 -0.2351  1.3912
 1552TIP3   OH2 4619   2.400   5.424   3.104  0.1137  0.9670 -0.2274
 1552TIP3    H1 4620   2.453   5.354   3.067  0.0643  1.3559 -1.0564
 1552TIP3    H2 4621   2.435   5.437   3.192  0.9031  0.7096 -0.4993
 1553TIP3   OH2 4622   0.204   3.576   4.112 -0.0068  0.0329 -0.4099
 1553TIP3    H1 4623   0.172   3.560   4.024 -0.0459 -0.8994 -0.2334
 1553TIP3    H2 4624   0.278   3.517   4.122 -0.1365 -0.0247  0.2580
 1554TIP3   OH2 4625   2.813   5.741   4.253 -0.5618  0.3088  0.3435
 1554TIP3    H1 4626   2.725   5.706   4.267 -1.2321  1.9357  0.4009
 1554TIP3    H2 4627   2.802   5.806   4.184  0.5986  0.5558  0.3720
 1555TIP3   OH2 4628   6.485   1.552   5.261  0.2860  0.2046  0.5762
 1555TIP3    H1 4629   6.574   1.517   5.249  1.3095  2.6657  0.4160
 1555TIP3    H2 4630   6.450   1.559   5.172  1.4522  2.7345  0.2223
 1556TIP3   OH2 4631   5.636   1.524   5.466  0.1983  0.4068 -0.6192
 1556TIP3    H1 4632   5.633   1.515   5.371  2.4962 -3.2187 -0.5466
 1556TIP3    H2 4633   5.573   1.459   5.498  1.2711 -0.2368  0.2684
 1557TIP3   OH2 4634   3.193   3.526   2.287 -0.4346 -0.6196 -0.0784
 1557TIP3    H1 4635   3.100   3.518   2.269 -0.3753 -0.0816 -0.6828
 1557TIP3    H2 4636   3.210   3.620   2.281  0.1206 -0.7017  0.1513
 1558TIP3   OH2 4637   2.060   4.133   1.216 -0.3487 -0.2147 -0.0591
 1558TIP3    H1 4638   2.083   4.046   1.183 -1.1029  0.0152 -1.2437
 1558TIP3    H2 4639   2.034   4.118   1.307  0.2993 -1.1010 -0.0105
 1559TIP3   OH2 4640   1.596   5.959   0.311 -0.2966 -0.9829  0.2239
 1559TIP3    H1 4641   1.598   6.051   0.286 -1.0929 -1.0890 -0.2481
 1559TIP3    H2 4642   1.503   5.940   0.326 -0.2302 -1.9330 -0.5149
 1560TIP3   OH2 4643   3.249   2.701   4.429 -0.4938 -0.7584  0.5820
 1560TIP3    H1 4644   3.222   2.639   4.497  0.4523  0.0259  1.7135
 1560TIP3    H2 4645   3.337   2.673   4.404  1.8433  2.4392  4.1900
 1561TIP3   OH2 4646   0.699   2.542   1.510 -0.0042  0.0055  0.5795
 1561TIP3    H1 4647   0.648   2.508   1.437  0.6492 -0.0900  0.1538
 1561TIP3    H2 4648   0.708   2.467   1.570  0.3919 -0.2388  0.2256
 1562TIP3   OH2 4649   1.968   0.394   0.724 -0.2451 -0.0227  0.9605
 1562TIP3    H1 4650   1.891   0.366   0.774 -2.4625  3.5426 -0.1068
 1562TIP3    H2 4651   1.987   0.482   0.757  1.7087  0.2538 -0.6965
 1563TIP3   OH2 4652   1.644   6.510   5.086 -0.0612 -0.1287 -0.1624
 1563TIP3    H1 4653   1.638   6.588   5.142  0.0096 -0.1111 -0.1788
 1563TIP3    H2 4654   1.717   6.460   5.122 -0.4474 -0.4530  0.1771
 1564TIP3   OH2 4655   2.653   0.583   1.759  0.4283 -0.2477 -0.3794
 1564TIP3    H1 4656   2.647   0.647   1.688 -0.4986 -0.0291 -0.1259
 1564TIP3    H2 4657   2.696   0.630   1.830 -1.7367  0.7105  0.4057
 1565TIP3   OH2 4658   7.124   1.591   0.035 -0.0990  0.0188  0.2395
 1565TIP3    H1 4659   7.122   1.643  -0.046 -1.6467  0.6221  0.6201
 1565TIP3    H2 4660   7.210   1.609   0.073  0.5899 -0.1531 -1.1856
 1566TIP3   OH2 4661   2.039   1.614   3.986 -0.3394  0.3063 -0.5511
 1566TIP3    H1 4662   2.023   1.582   4.075 -0.4819  2.4773  0.2613
 1566TIP3    H2 4663   2.062   1.535   3.936  2.4886 -0.6653  2.0040
 1567TIP3   OH2 4664   5.317   0.792   1.323  0.0307  0.1557  0.1269
 1567TIP3    H1 4665   5.280   0.715   1.280 -1.9257 -0.3778  2.5382
 1567TIP3    H2 4666   5.277   0.866   1.278  0.9766 -0.2201 -1.4024
 1568TIP3   OH2 4667   6.683   4.665   3.468  0.0016 -0.1144  0.4007
 1568TIP3    H1 4668   6.604   4.615   3.491  1.4852 -2.4459  0.7347
 1568TIP3    H2 4669   6.679   4.672   3.373 -0.6010 -0.1738  0.4121
 1569TIP3   OH2 4670   0.955   1.066   3.116 -0.1034  0.0989 -0.7091
 1569TIP3    H1 4671   0.933   1.001   3.183 -1.2592 -0.6423 -1.7647
 1569TIP3    H2 4672   1.050   1.073   3.121 -0.1231 -0.2934  0.6802
 1570TIP3   OH2 4673   5.881   6.396   5.476 -0.1771 -0.0675 -0.1504
 1570TIP3    H1 4674   5.923   6.447   5.545  0.3722 -0.6925 -0.0176
 1570TIP3    H2 4675   5.900   6.305   5.498 -0.4519 -0.2979 -0.8347
 1571TIP3   OH2 4676   1.796   1.611   5.725  0.1338  0.2267  0.3428
 1571TIP3    H1 4677   1.738   1.673   5.769  0.2094  0.1563  0.5424
 1571TIP3    H2 4678   1.740   1.535   5.707  0.1811  0.1345  0.5902
 1572TIP3   OH2 4679   1.037   3.584   3.653 -0.1165  0.2833  1.1111
 1572TIP3    H1 4680   0.993   3.544   3.729  0.0855 -1.1518  0.5047
 1572TIP3    H2 4681   1.027   3.520   3.583  0.5082  1.1809  0.1677
 1573TIP3   OH2 4682   4.043   1.890   0.096  0.1265 -0.6625 -0.2299
 1573TIP3    H1 4683   3.963   1.882   0.148 -0.2858  0.2021 -0.6948
 1573TIP3    H2 4684   4.019   1.854   0.010 -0.7021  2.0615 -1.2694
 1574TIP3   OH2 4685   6.800   0.593   4.040  0.2246 -0.6489  0.0624
 1574TIP3    H1 4686   6.846   0.512   4.063  2.5416  0.5395 -0.0747
 1574TIP3    H2 4687   6.867   0.661   4.048 -1.3084  1.0802 -1.1084
 1575TIP3   OH2 4688   3.426   0.872   1.993 -0.7097  0.5599 -0.3111
 1575TIP3    H1 4689   3.351   0.919   1.956 -1.7194 -0.0883  0.8369
 1575TIP3    H2 4690   3.440   0.799   1.933 -0.7905  0.8651 -0.7083
 1576TIP3   OH2 4691   2.927   4.453   2.414  0.5073  0.1426  0.2002
 1576TIP3    H1 4692   2.938   4.540   2.377  1.1835 -0.0866 -0.1499
 1576TIP3    H2 4693   2.837   4.451   2.446  0.7811  1.3135  1.1087
 1577TIP3   OH2 4694   0.780   4.010   5.458  0.1659 -0.7185  0.4139
 1577TIP3    H1 4695   0.743   4.097   5.441  1.3945 -0.5119 -1.4990
 1577TIP3    H2 4696   0.745   3.955   5.389 -1.6674 -2.1738  2.3614
 1578TIP3   OH2 4697   6.221   1.904   3.884  0.1628 -0.4315 -0.1722
 1578TIP3    H1 4698   6.161   1.894   3.958 -0.7224 -0.2753 -0.8562
 1578TIP3    H2 4699   6.176   1.864   3.810  0.3648  0.7469 -0.9713
 1579TIP3   OH2 4700   2.377   5.685   4.166  0.2516  0.0508  0.3725
 1579TIP3    H1 4701   2.327   5.746   4.221  0.1533 -0.4281  0.8266
 1579TIP3    H2 4702   2.314   5.651   4.103  0.1737 -0.0063  0.4814
 1580TIP3   OH2 4703   2.004   1.076   1.425 -0.0296 -0.6778  0.0520
 1580TIP3    H1 4704   1.974   1.124   1.347 -1.5356  0.3337  1.1945
 1580TIP3    H2 4705   2.005   0.984   1.397 -0.2060 -0.3104 -1.2540
 1581TIP3   OH2 4706   5.131   2.604   4.752  0.0589  0.0074 -0.1011
 1581TIP3    H1 4707   5.175   2.520   4.740 -0.3058  0.0504 -2.1798
 1581TIP3    H2 4708   5.201   2.666   4.771  0.3624 -0.6808  1.1149
 1582TIP3   OH2 4709   0.054   3.616   3.771 -0.0621 -0.0261  0.1424
 1582TIP3    H1 4710   0.068   3.556   3.698 -1.4051 -0.4239  0.1871
 1582TIP3    H2 4711   0.025   3.698   3.730  0.1773  0.0703  0.1681
 1583TIP3   OH2 4712   7.226   4.353   2.605  0.0995 -0.0664  0.2561
 1583TIP3    H1 4713   7.207   4.362   2.511 -2.5555 -1.3324  0.5638
 1583TIP3    H2 4714   7.178   4.425   2.646  0.2049 -0.2642  0.7363
 1584TIP3   OH2 4715   4.187   1.747   5.542 -0.1096  0.0370 -0.2100
 1584TIP3    H1 4716   4.275   1.710   5.531 -0.3529 -0.3090 -1.1101
 1584TIP3    H2 4717   4.188   1.826   5.489  0.4547  1.4924  1.8274
 1585TIP3   OH2 4718   3.706   3.595   5.339  0.1202  0.3140 -0.1274
 1585TIP3    H1 4719   3.714   3.658   5.410 -1.0915  0.2899  0.0557
 1585TIP3    H2 4720   3.777   3.532   5.354  0.4402  0.8249  0.5248
 1586TIP3   OH2 4721   7.001   1.590   1.453  0.3035 -0.0470  0.1158
 1586TIP3    H1 4722   7.045   1.513   1.417  1.6050  0.0782  1.3272
 1586TIP3    H2 4723   6.994   1.573   1.547  0.4304  1.2102  0.3801
 1587TIP3   OH2 4724   3.769   2.851   0.937  0.5479 -0.5637  0.2495
 1587TIP3    H1 4725   3.686   2.877   0.977 -0.6586 -1.2630 -1.6019
 1587TIP3    H2 4726   3.824   2.929   0.940 -0.5874  0.2456  0.5560
 1588TIP3   OH2 4727   3.334   1.050   5.546 -0.4438 -0.0723 -0.0775
 1588TIP3    H1 4728   3.313   0.958   5.562 -1.1661  0.3547  1.6641
 1588TIP3    H2 4729   3.274   1.076   5.477 -0.2613 -0.8970 -0.5629
 1589TIP3   OH2 4730   2.425   0.290   3.052  0.5408 -0.1290 -0.2249
 1589TIP3    H1 4731   2.459   0.220   2.996  0.3559 -1.1940  0.9459
 1589TIP3    H2 4732   2.468   0.276   3.137  0.9503  1.5488 -0.1214
 1590TIP3   OH2 4733   3.856   1.436   2.714 -0.2640  0.6325  0.3939
 1590TIP3    H1 4734   3.861   1.371   2.784  0.6927 -0.2489 -0.4690
 1590TIP3    H2 4735   3.942   1.434   2.672 -1.2764 -0.0380 -1.8152
 1591TIP3   OH2 4736   3.517   6.559   4.335 -0.0777 -0.7117 -0.4852
 1591TIP3    H1 4737   3.524   6.570   4.430 -0.5960  1.9127 -0.6826
 1591TIP3    H2 4738   3.607   6.570   4.303 -0.1545  0.1078 -0.4270
 1592TIP3   OH2 4739   4.367   0.566   3.389 -0.1884  0.5323 -0.1720
 1592TIP3    H1 4740   4.299   0.633   3.396 -1.1990 -0.1682 -2.3365
 1592TIP3    H2 4741   4.319   0.486   3.364  1.3852  0.0827 -2.0323
 1593TIP3   OH2 4742   0.571   0.588   3.383 -0.1618  0.1377 -0.0050
 1593TIP3    H1 4743   0.553   0.550   3.297  1.2484  1.6803 -1.0569
 1593TIP3    H2 4744   0.666   0.603   3.382 -0.0908  0.0422  1.9121
 1594TIP3   OH2 4745   2.741   3.412   1.347 -0.1665 -0.4386  0.1457
 1594TIP3    H1 4746   2.742   3.489   1.290 -1.3243 -1.0062 -0.6938
 1594TIP3    H2 4747   2.783   3.441   1.428  0.7508  0.6348 -0.6929
 1595TIP3   OH2 4748   0.495   4.489   0.976  0.3430  0.1886 -0.3835
 1595TIP3    H1 4749   0.477   4.462   0.886 -2.3099 -2.0121  0.6817
 1595TIP3    H2 4750   0.431   4.557   0.994 -0.7443 -1.0394  0.5247
 1596TIP3   OH2 4751   5.302   4.568   5.658 -0.3229  0.0224 -0.4666
 1596TIP3    H1 4752   5.279   4.661   5.666  0.7182  0.1488  2.4917
 1596TIP3    H2 4753   5.218   4.522   5.664 -0.6484  0.7355  1.2670
 1597TIP3   OH2 4754   0.891   0.330   4.883  0.8469 -0.2374 -0.2398
 1597TIP3    H1 4755   0.889   0.243   4.842  3.2857 -0.7881  0.6408
 1597TIP3    H2 4756   0.803   0.342   4.918 -0.3837 -1.1183 -2.7449
 1598TIP3   OH2 4757   0.101   2.198   0.825 -0.2779  0.2152 -0.3757
 1598TIP3    H1 4758   0.136   2.285   0.809  0.7849  0.2074  1.6300
 1598TIP3    H2 4759   0.006   2.208   0.815 -0.2482  1.7908  0.6176
 1599TIP3   OH2 4760   4.439   2.399   0.347 -0.1636  1.1688  0.3929
 1599TIP3    H1 4761   4.467   2.454   0.274  0.1878  0.0983 -0.3060
 1599TIP3    H2 4762   4.383   2.333   0.307 -0.1262  0.6817  1.1259
 1600TIP3   OH2 4763   2.188   5.734   2.371 -0.2217 -0.5429 -0.1209
 1600TIP3    H1 4764   2.120   5.706   2.431 -0.6306 -0.9968 -0.7755
 1600TIP3    H2 4765   2.142   5.785   2.304  0.2785  0.2876  0.1459
 1601TIP3   OH2 4766   5.216   6.289   0.074  0.5029 -0.0274 -0.4200
 1601TIP3    H1 4767   5.204   6.350   0.001 -3.1469  1.1367  0.9180
 1601TIP3    H2 4768   5.146   6.225   0.064  0.4702 -0.3584  1.5707
 1602TIP3   OH2 4769   5.530   5.258   3.819  0.2111  0.3796 -0.5191
 1602TIP3    H1 4770   5.550   5.341   3.777  0.0029  0.0598 -1.2645
 1602TIP3    H2 4771   5.447   5.231   3.780  0.3619 -0.2630 -0.4041
 1603TIP3   OH2 4772   2.713   6.433   0.385 -0.1188 -0.5027 -0.2025
 1603TIP3    H1 4773   2.766   6.367   0.429  0.3593  0.3828  0.5917
 1603TIP3    H2 4774   2.635   6.441   0.440  1.0136  1.4669  1.2420
 1604TIP3   OH2 4775   1.928   4.441   5.147 -0.0072  0.0953 -0.2829
 1604TIP3    H1 4776   1.876   4.381   5.093  2.5728 -2.2278 -0.4248
 1604TIP3    H2 4777   1.962   4.386   5.218  0.6267  1.9544  0.9331
 1605TIP3   OH2 4778   3.847   2.139   2.683 -0.1868 -0.6503  0.1529
 1605TIP3    H1 4779   3.762   2.097   2.691 -0.9496  0.9274  0.7721
 1605TIP3    H2 4780   3.890   2.124   2.767 -1.6381  2.1555  1.5208
 1606TIP3   OH2 4781   3.521   6.447   3.332 -0.3737 -0.1066 -0.5482
 1606TIP3    H1 4782   3.559   6.524   3.289  0.5901 -0.2971 -0.0548
 1606TIP3    H2 4783   3.592   6.411   3.384 -1.2419 -0.4643  0.4239
 1607TIP3   OH2 4784   4.770   2.226   4.377  0.7848  0.5244 -0.1253
 1607TIP3    H1 4785   4.853   2.184   4.400  0.1757 -0.8687 -0.3121
 1607TIP3    H2 4786   4.794   2.296   4.317  1.8975  0.7383  0.5326
 1608TIP3   OH2 4787   6.963   4.070   3.835  0.2040 -0.1315  0.2865
 1608TIP3    H1 4788   7.051   4.046   3.862  0.6834 -0.2964 -1.3199
 1608TIP3    H2 4789   6.907   4.039   3.906  1.3954 -0.3096  1.1829
 1609TIP3   OH2 4790   5.441   0.351   0.595 -0.1252 -0.0962  0.5071
 1609TIP3    H1 4791   5.490   0.296   0.533 -0.3144  0.6502 -0.3299
 1609TIP3    H2 4792   5.507   0.382   0.657  0.6959  1.6063 -1.1177
 1610TIP3   OH2 4793   3.295   3.177   4.409 -0.4361  0.2370  0.2659
 1610TIP3    H1 4794   3.321   3.115   4.341  1.2498 -0.2960  1.3117
 1610TIP3    H2 4795   3.266   3.121   4.481 -0.6206  0.7287  0.5749
 1611TIP3   OH2 4796   3.979   2.663   3.542  0.1948  0.6468 -0.2103
 1611TIP3    H1 4797   3.958   2.729   3.475 -0.0526  2.0765  1.1922
 1611TIP3    H2 4798   4.009   2.587   3.493  0.4306  1.7837 -1.9208
 1612TIP3   OH2 4799   0.219   1.495   0.332  0.9021 -0.0055 -0.2611
 1612TIP3    H1 4800   0.258   1.451   0.257  1.3321  0.5423 -0.3624
 1612TIP3    H2 4801   0.190   1.579   0.298  0.7613  0.0951  0.1035
 1613TIP3   OH2 4802   7.008   1.836   5.841 -0.0340 -0.0500  0.1255
 1613TIP3    H1 4803   7.102   1.852   5.852  0.2624  0.1502 -2.3100
 1613TIP3    H2 4804   7.002   1.741   5.828 -0.0890  0.0142 -0.3317
 1614TIP3   OH2 4805   0.208   3.975   4.584 -0.0954  0.2852  0.2627
 1614TIP3    H1 4806   0.173   3.887   4.569  0.4381  0.2124 -0.6608
 1614TIP3    H2 4807   0.170   4.028   4.513  1.4627  0.2460 -0.6445
 1615TIP3   OH2 4808   5.672   4.678   4.808 -0.1794 -0.0166  0.5667
 1615TIP3    H1 4809   5.627   4.608   4.762  0.1159 -0.1676  0.5018
 1615TIP3    H2 4810   5.610   4.707   4.875 -0.9734  0.8473 -0.5216
 1616TIP3   OH2 4811   5.645   5.810   0.156 -0.2238 -0.5288  0.2193
 1616TIP3    H1 4812   5.627   5.721   0.187 -2.1141 -0.0159  0.7531
 1616TIP3    H2 4813   5.590   5.820   0.078  1.0335 -0.2661 -0.6588
 1617TIP3   OH2 4814   6.329   0.617   1.366 -0.3051 -0.2686  0.3266
 1617TIP3    H1 4815   6.276   0.540   1.384  0.4153 -0.7291  0.4944
 1617TIP3    H2 4816   6.410   0.604   1.415 -0.7158  1.2385  1.4696
 1618TIP3   OH2 4817   0.614   6.269   1.421  0.5896  1.0105 -0.3748
 1618TIP3    H1 4818   0.660   6.299   1.500 -0.8940  4.6786 -0.7088
 1618TIP3    H2 4819   0.562   6.195   1.451  0.5747  1.8809  1.9748
 1619TIP3   OH2 4820   5.592   2.815   5.375 -0.4393 -0.5118 -0.0742
 1619TIP3    H1 4821   5.545   2.732   5.389  0.3394 -0.7866  1.1184
 1619TIP3    H2 4822   5.662   2.792   5.314 -0.5982 -0.5993 -0.2230
 1620TIP3   OH2 4823   3.888   4.515   0.707 -0.3394 -0.0330  0.4029
 1620TIP3    H1 4824   3.949   4.584   0.683 -1.4760  1.1983  0.8926
 1620TIP3    H2 4825   3.918   4.438   0.660 -0.4613  1.4129 -2.2030
 1621TIP3   OH2 4826   2.229   3.355   5.387 -0.3314  0.4804 -0.1725
 1621TIP3    H1 4827   2.211   3.327   5.477 -0.6058  0.9918 -0.0665
 1621TIP3    H2 4828   2.185   3.439   5.379 -0.9267  0.1002 -1.0236
 1622TIP3   OH2 4829   5.574   2.128   3.465  0.2436 -0.2088 -0.5859
 1622TIP3    H1 4830   5.605   2.160   3.380  1.2677  2.1144  0.5691
 1622TIP3    H2 4831   5.653   2.095   3.509 -0.2339 -1.1375 -0.3897
 1623TIP3   OH2 4832   6.307   0.992   3.547 -0.0128  0.2088  0.3187
 1623TIP3    H1 4833   6.311   1.011   3.453  0.8241  1.1477  0.5303
 1623TIP3    H2 4834   6.272   0.904   3.552 -0.8113  0.4387 -0.8511
 1624TIP3   OH2 4835   5.592   6.058   0.688 -0.4010 -0.1335 -0.2426
 1624TIP3    H1 4836   5.598   6.084   0.596  1.9569  1.9892  0.3907
 1624TIP3    H2 4837   5.683   6.048   0.716 -1.0398 -0.0995  2.0338
 1625TIP3   OH2 4838   2.898   1.596   1.840 -0.1318 -0.2564 -0.6259
 1625TIP3    H1 4839   2.891   1.586   1.745 -1.0312 -2.3282 -0.3913
 1625TIP3    H2 4840   2.818   1.555   1.874 -0.0241  0.8280  1.0230
 1626TIP3   OH2 4841   0.929   5.985   1.185 -0.5974 -0.3208  0.3380
 1626TIP3    H1 4842   0.890   6.020   1.105 -2.2173 -0.9512  0.8246
 1626TIP3    H2 4843   0.901   6.044   1.254 -1.6545 -1.3721  0.8542
 1627TIP3   OH2 4844   5.164   3.032   1.157  0.1464  0.6952 -0.3124
 1627TIP3    H1 4845   5.179   3.121   1.188  0.7081  0.3793  0.3542
 1627TIP3    H2 4846   5.207   2.977   1.223 -1.5073 -0.1291  0.1181
 1628TIP3   OH2 4847   2.306   3.448   3.025 -0.6701 -0.4701 -0.5089
 1628TIP3    H1 4848   2.243   3.467   3.095 -0.9078 -1.6387 -0.3895
 1628TIP3    H2 4849   2.252   3.440   2.947 -0.7503 -1.8328 -0.3465
 1629TIP3   OH2 4850   5.320   3.895   3.585 -0.0993 -0.5958 -0.1401
 1629TIP3    H1 4851   5.254   3.898   3.654  0.1926  2.9191  0.1567
 1629TIP3    H2 4852   5.369   3.814   3.603 -2.3971 -1.7701  1.3915
 1630TIP3   OH2 4853   2.389   0.313   3.861 -0.2316  0.0803  0.7247
 1630TIP3    H1 4854   2.468   0.261   3.874 -1.3864 -2.1134 -0.3610
 1630TIP3    H2 4855   2.392   0.338   3.769 -0.9229 -0.2895  0.5941
 1631TIP3   OH2 4856   2.628   6.359   1.266  0.4236 -0.1872  0.3983
 1631TIP3    H1 4857   2.601   6.267   1.267 -3.7635  0.7286 -2.5748
 1631TIP3    H2 4858   2.582   6.399   1.339 -0.7903  0.1105 -0.4927
 1632TIP3   OH2 4859   3.561   0.142   0.350  1.1470  0.3335 -0.0538
 1632TIP3    H1 4860   3.654   0.128   0.332  1.1458  0.3222 -0.0517
 1632TIP3    H2 4861   3.547   0.235   0.336  0.6872  0.0057 -2.2064
 1633TIP3   OH2 4862   6.270   4.835   4.918  0.2310 -0.1020 -0.3190
 1633TIP3    H1 4863   6.231   4.868   4.838 -1.6470 -0.0496  0.5766
 1633TIP3    H2 4864   6.350   4.886   4.929 -0.8915  1.8226 -0.7327
 1634TIP3   OH2 4865   2.525   5.191   4.509 -0.1819  0.7319 -0.8528
 1634TIP3    H1 4866   2.571   5.275   4.497  0.1570  0.4971 -1.2017
 1634TIP3    H2 4867   2.595   5.127   4.521 -0.4588  0.5922  0.0569
 1635TIP3   OH2 4868   1.828   1.618   2.450 -0.0818 -0.3331  0.5736
 1635TIP3    H1 4869   1.870   1.596   2.367  0.1677 -0.7753  0.8127
 1635TIP3    H2 4870   1.794   1.535   2.483  0.5615 -0.3126  1.3197
 1636TIP3   OH2 4871   4.581   4.418   2.617  0.0848  0.8131  0.0226
 1636TIP3    H1 4872   4.661   4.366   2.625  0.3993  1.2837  0.0056
 1636TIP3    H2 4873   4.559   4.444   2.706 -1.5557 -1.4923  0.3874
 1637TIP3   OH2 4874   2.114   0.999   0.969  0.1077  0.1417 -1.0746
 1637TIP3    H1 4875   2.050   0.973   0.903 -1.3455  0.1171  0.2764
 1637TIP3    H2 4876   2.159   0.918   0.993 -2.3775 -0.7685  1.0119
 1638TIP3   OH2 4877   3.467   4.586   0.452 -0.2605  0.1047  0.3204
 1638TIP3    H1 4878   3.372   4.595   0.455 -0.3928 -1.2305  2.0194
 1638TIP3    H2 4879   3.486   4.512   0.511  1.6319 -1.2912 -1.8420
 1639TIP3   OH2 4880   4.305   3.376   0.277 -0.1454 -0.1541 -0.1746
 1639TIP3    H1 4881   4.273   3.463   0.300  0.0992 -0.1367  0.1148
 1639TIP3    H2 4882   4.245   3.345   0.210 -0.4574  0.0838 -0.0076
 1640TIP3   OH2 4883   5.668   2.726   2.071 -0.6234  0.3946 -0.1619
 1640TIP3    H1 4884   5.749   2.713   2.021  0.2654  1.0362  1.0494
 1640TIP3    H2 4885   5.618   2.789   2.020  0.3203  1.1349 -0.2041
 1641TIP3   OH2 4886   6.701   5.408   3.146  0.2572 -0.0069 -0.0571
 1641TIP3    H1 4887   6.771   5.387   3.084  0.9218 -0.8636  0.9542
 1641TIP3    H2 4888   6.737   5.386   3.232 -0.9957  0.2314  0.5556
 1642TIP3   OH2 4889   0.708   2.931   3.726 -0.4186  0.1103 -0.1243
 1642TIP3    H1 4890   0.659   3.003   3.766 -2.8269  0.3038 -3.1047
 1642TIP3    H2 4891   0.763   2.974   3.660 -0.0921 -0.5700 -0.3033
 1643TIP3   OH2 4892   2.279   4.398   5.019 -0.7128 -0.2480 -0.0736
 1643TIP3    H1 4893   2.222   4.336   4.974  1.4324 -1.5294 -1.1905
 1643TIP3    H2 4894   2.259   4.483   4.979 -0.8961 -0.8971 -1.4010
 1644TIP3   OH2 4895   1.803   1.900   2.984  0.4611 -0.4284  0.3349
 1644TIP3    H1 4896   1.817   1.933   3.073 -1.6708  0.4593  0.4017
 1644TIP3    H2 4897   1.887   1.912   2.940  2.3705 -3.1866  2.8702
 1645TIP3   OH2 4898   0.959   5.106   3.089  0.1360  0.1309  0.7359
 1645TIP3    H1 4899   1.014   5.144   3.021  0.7478  0.1428  1.2287
 1645TIP3    H2 4900   0.877   5.084   3.045  1.4708 -2.4583 -0.6558
 1646TIP3   OH2 4901   3.853   0.915   3.098  0.1360  0.4034  0.0674
 1646TIP3    H1 4902   3.780   0.972   3.074  1.7914  2.6722  0.0846
 1646TIP3    H2 4903   3.886   0.881   3.015 -0.3096  0.1485 -0.0104
 1647TIP3   OH2 4904   2.458   1.801   2.902  0.0998 -0.5900  0.5109
 1647TIP3    H1 4905   2.425   1.723   2.858  1.8402 -0.8295 -0.4951
 1647TIP3    H2 4906   2.533   1.828   2.848 -0.2897  1.6157  0.9941
 1648TIP3   OH2 4907   0.670   6.353   3.539  0.2152 -0.1398  0.2272
 1648TIP3    H1 4908   0.644   6.434   3.494 -1.4381 -0.4825  0.4807
 1648TIP3    H2 4909   0.755   6.331   3.501 -0.1797  0.6946 -1.2550
 1649TIP3   OH2 4910   6.901   5.807   0.819  0.5211  0.8091  0.3887
 1649TIP3    H1 4911   6.924   5.889   0.863 -2.2157  1.5439  0.6272
 1649TIP3    H2 4912   6.877   5.833   0.730  1.5428 -0.0325 -0.1489
 1650TIP3   OH2 4913   6.396   3.244   3.134  0.5223 -0.6648  0.3520
 1650TIP3    H1 4914   6.375   3.182   3.064 -0.0729 -0.4370  0.3198
 1650TIP3    H2 4915   6.389   3.330   3.092 -1.6743 -0.4094  1.0980
 1651TIP3   OH2 4916   3.884   6.384   3.844  0.4431  0.5502  0.3149
 1651TIP3    H1 4917   3.872   6.469   3.800  0.7022  0.7180  0.5635
 1651TIP3    H2 4918   3.795   6.355   3.864  0.3206  0.4845 -0.2953
 1652TIP3   OH2 4919   6.056   1.162   5.385 -0.4803  0.1903 -0.4725
 1652TIP3    H1 4920   6.022   1.243   5.349 -2.0162  0.1882  0.8616
 1652TIP3    H2 4921   6.125   1.191   5.446 -2.6559  0.8036  1.8973
 1653TIP3   OH2 4922   1.885   2.991   5.498 -0.5140 -0.4692 -0.1898
 1653TIP3    H1 4923   1.918   3.071   5.458 -0.5215  0.1624  1.0288
 1653TIP3    H2 4924   1.963   2.951   5.537 -0.8148 -0.1058  0.7940
 1654TIP3   OH2 4925   7.150   3.852   1.447  0.7139 -0.3922 -0.0952
 1654TIP3    H1 4926   7.118   3.765   1.421  1.2563 -0.8895  0.8395
 1654TIP3    H2 4927   7.154   3.902   1.366  0.1252 -1.1583 -0.6035
 1655TIP3   OH2 4928   1.853   4.797   1.419 -0.1970  0.5518  0.0693
 1655TIP3    H1 4929   1.835   4.712   1.378 -1.5417  0.7775  0.1506
 1655TIP3    H2 4930   1.939   4.786   1.460 -1.1484 -1.4031  1.7100
 1656TIP3   OH2 4931   0.949   6.619   4.922  0.5778  0.0483  0.0243
 1656TIP3    H1 4932   0.982   6.698   4.878  2.4934 -0.4471  0.4958
 1656TIP3    H2 4933   1.011   6.550   4.896  0.0906 -0.8578  1.2307
 1657TIP3   OH2 4934   6.709   6.326   4.525  0.6998  0.5262 -0.2744
 1657TIP3    H1 4935   6.788   6.286   4.561 -0.3381 -0.4571  0.9680
 1657TIP3    H2 4936   6.693   6.279   4.443 -0.1073 -1.1901  0.8207
 1658TIP3   OH2 4937   6.912   0.421   4.438  0.6660 -0.6432  0.4178
 1658TIP3    H1 4938   6.968   0.347   4.461 -0.7718 -0.6609  4.7154
 1658TIP3    H2 4939   6.954   0.497   4.479 -0.3629  0.0339  0.2630
 1659TIP3   OH2 4940   1.321   6.682   4.605  0.4543  0.1088  0.1080
 1659TIP3    H1 4941   1.391   6.695   4.541 -0.1857  2.5775 -0.2097
 1659TIP3    H2 4942   1.241   6.687   4.553 -0.0448  1.0796  0.9335
 1660TIP3   OH2 4943   4.097   6.252   3.734 -0.6621  0.6197  0.5199
 1660TIP3    H1 4944   4.031   6.306   3.777  0.1568  0.3480  2.1958
 1660TIP3    H2 4945   4.091   6.167   3.777 -0.2757  0.1118 -0.3887
 1661TIP3   OH2 4946   6.889   1.492   2.771  0.5315  0.4432  0.1873
 1661TIP3    H1 4947   6.956   1.560   2.758 -0.5218  1.2737 -1.0751
 1661TIP3    H2 4948   6.806   1.539   2.766 -0.1948 -0.7195  0.8426
 1662TIP3   OH2 4949   0.212   6.598   0.132  0.4336 -0.0457  0.0132
 1662TIP3    H1 4950   0.264   6.545   0.072 -0.1601 -0.8916  0.2366
 1662TIP3    H2 4951   0.182   6.672   0.077 -0.8180 -1.2494 -1.0149
 1663TIP3   OH2 4952   5.869   4.960   5.197 -0.1780  0.1573 -0.9983
 1663TIP3    H1 4953   5.914   5.026   5.249 -0.2854 -0.6299  0.1409
 1663TIP3    H2 4954   5.923   4.950   5.118  1.6866 -0.7394  0.3066
 1664TIP3   OH2 4955   4.709   3.538   0.471  0.6464 -0.5937  0.0662
 1664TIP3    H1 4956   4.684   3.558   0.381 -0.1692 -0.9326  0.1990
 1664TIP3    H2 4957   4.750   3.618   0.504 -2.3154  0.8777  0.5246
 1665TIP3   OH2 4958   4.694   4.491   3.718 -0.3837  0.1489 -0.0653
 1665TIP3    H1 4959   4.703   4.567   3.777  0.2946  0.3457 -0.4101
 1665TIP3    H2 4960   4.693   4.416   3.777  0.5622  0.3255  0.2021
 1666TIP3   OH2 4961   4.997   2.391   1.911  0.1853  0.2298 -0.0164
 1666TIP3    H1 4962   5.039   2.457   1.856  0.5561  1.0286  1.2042
 1666TIP3    H2 4963   5.060   2.319   1.915  0.8912  0.8699  0.7163
 1667TIP3   OH2 4964   4.350   2.358   1.442 -0.2154 -0.7568  0.1070
 1667TIP3    H1 4965   4.402   2.322   1.514 -1.3308 -0.2428  1.2065
 1667TIP3    H2 4966   4.415   2.392   1.380  0.7913 -2.2259  0.3175
 1668TIP3   OH2 4967   2.779   2.069   4.711  0.2944  0.3354  0.1377
 1668TIP3    H1 4968   2.715   2.062   4.640 -0.3200 -0.5361  0.7430
 1668TIP3    H2 4969   2.843   2.000   4.693 -0.8299 -1.1115  1.3203
 1669TIP3   OH2 4970   5.804   1.983   0.197  0.0156 -0.1794 -0.0484
 1669TIP3    H1 4971   5.893   2.014   0.182 -0.3742  0.7067 -0.6018
 1669TIP3    H2 4972   5.756   2.006   0.118 -0.5023 -1.4862 -0.1474
 1670TIP3   OH2 4973   2.712   4.949   2.994 -0.1807  0.8881 -0.4791
 1670TIP3    H1 4974   2.629   4.922   3.035 -0.2052  1.5007 -0.1100
 1670TIP3    H2 4975   2.771   4.875   3.008  0.4617  1.8129  2.5468
 1671TIP3   OH2 4976   2.170   2.356   4.328  0.8105  0.0495 -0.4502
 1671TIP3    H1 4977   2.206   2.420   4.267 -1.3684  0.4182 -1.4726
 1671TIP3    H2 4978   2.153   2.405   4.408  1.4834  0.1315 -0.3547
 1672TIP3   OH2 4979   6.918   3.084   0.521 -0.2778  0.4826  0.4633
 1672TIP3    H1 4980   6.943   3.076   0.613 -0.0122  1.2121  0.4629
 1672TIP3    H2 4981   6.830   3.121   0.523  0.1067  1.4460  0.4289
 1673TIP3   OH2 4982   3.649   2.360   2.945 -0.2673 -0.2871 -0.0324
 1673TIP3    H1 4983   3.652   2.446   2.903  0.2910 -0.7838 -1.0284
 1673TIP3    H2 4984   3.672   2.378   3.036  0.4859  0.5362 -0.3671
 1674TIP3   OH2 4985   4.293   6.799   4.165  0.2444 -0.4642  0.4522
 1674TIP3    H1 4986   4.236   6.820   4.240  0.3639  2.8961 -0.2682
 1674TIP3    H2 4987   4.237   6.748   4.107 -1.9422  2.1274  0.0935
 1675TIP3   OH2 4988   5.174   5.195   2.619 -0.3164  0.0994 -0.2216
 1675TIP3    H1 4989   5.229   5.257   2.667 -1.4787  0.1452  1.1341
 1675TIP3    H2 4990   5.180   5.223   2.528 -1.3974  2.7309  0.4264
 1676TIP3   OH2 4991   7.129   1.564   4.147  0.1061  0.2713  0.3076
 1676TIP3    H1 4992   7.156   1.556   4.055  0.2857  0.9757  0.2933
 1676TIP3    H2 4993   7.205   1.531   4.196  0.0126 -0.1005  0.2038
 1677TIP3   OH2 4994   0.283   4.173   2.490  0.1599  0.3210 -0.1333
 1677TIP3    H1 4995   0.320   4.230   2.423 -0.8262 -1.0552 -1.9296
 1677TIP3    H2 4996   0.352   4.108   2.506 -0.7133 -1.2098 -2.2005
 1678TIP3   OH2 4997   1.079   6.637   0.545  0.5565  0.1971  0.0998
 1678TIP3    H1 4998   0.988   6.608   0.534  0.8279 -0.4580 -0.4984
 1678TIP3    H2 4999   1.126   6.595   0.472  1.4588 -0.0143  0.7923
 1679TIP3   OH2 5000   0.476   4.217   3.171 -0.5136 -0.0847  0.0375
 1679TIP3    H1 5001   0.411   4.152   3.199 -0.5935 -0.9299 -1.9419
 1679TIP3    H2 5002   0.555   4.165   3.155  0.1267  0.6737  0.6967
 1680TIP3   OH2 5003   5.090   6.709   4.233  0.1826 -0.5908 -0.1829
 1680TIP3    H1 5004   5.003   6.693   4.196  0.4772 -0.5512 -0.9101
 1680TIP3    H2 5005   5.091   6.659   4.314 -0.2699 -1.1553 -0.5169
 1681TIP3   OH2 5006   0.492   4.419   3.931 -0.4357 -0.5157 -0.5566
 1681TIP3    H1 5007   0.492   4.472   3.851 -0.0552 -1.2323 -1.0463
 1681TIP3    H2 5008   0.415   4.449   3.979 -1.2205 -0.7162 -1.6407
 1682TIP3   OH2 5009   5.637   5.212   0.623 -0.0192  0.2804  0.0961
 1682TIP3    H1 5010   5.580   5.274   0.668  2.2861  0.8161  2.4602
 1682TIP3    H2 5011   5.623   5.231   0.530 -1.4548  2.4033  0.6601
 1683TIP3   OH2 5012   1.898   3.724   2.254  0.1396  0.0199 -0.3022
 1683TIP3    H1 5013   1.900   3.661   2.182 -2.2930  0.5372 -0.9046
 1683TIP3    H2 5014   1.881   3.808   2.211  0.8468  0.6977  0.7039
 1684TIP3   OH2 5015   3.722   0.183   5.188  0.4534 -0.0144  0.4247
 1684TIP3    H1 5016   3.735   0.091   5.165  0.0867 -0.2550  1.1425
 1684TIP3    H2 5017   3.669   0.180   5.268  0.0630  0.8288  0.2042
 1685TIP3   OH2 5018   1.725   4.871   5.074  0.1157  0.5577  0.3701
 1685TIP3    H1 5019   1.653   4.818   5.038  1.1311 -0.2917 -0.4896
 1685TIP3    H2 5020   1.775   4.810   5.128  0.6277  0.9342  0.3270
 1686TIP3   OH2 5021   2.452   4.750   2.893 -0.1148 -1.3488 -0.2493
 1686TIP3    H1 5022   2.473   4.699   2.972 -1.0732 -1.8250 -0.2812
 1686TIP3    H2 5023   2.479   4.694   2.820  1.2203 -0.7069 -0.2798
 1687TIP3   OH2 5024   5.126   2.329   1.189 -0.9279  0.5017  0.3947
 1687TIP3    H1 5025   5.035   2.348   1.210 -1.0863  1.3176 -0.9401
 1687TIP3    H2 5026   5.155   2.402   1.135  0.3298 -0.0505  0.2755
 1688TIP3   OH2 5027   1.136   1.345   0.484  0.0664 -0.8001 -0.6383
 1688TIP3    H1 5028   1.183   1.341   0.568 -0.1436  0.4232 -0.4361
 1688TIP3    H2 5029   1.189   1.292   0.424  2.2362  1.2108 -0.6602
 1689TIP3   OH2 5030   4.473   1.695   1.625  0.6875  0.2170  0.3407
 1689TIP3    H1 5031   4.423   1.653   1.695 -0.5560 -1.1187 -1.2561
 1689TIP3    H2 5032   4.546   1.635   1.609 -0.9479 -1.3485 -1.7681
 1690TIP3   OH2 5033   2.185   0.992   3.730 -0.3477  0.2517 -0.0416
 1690TIP3    H1 5034   2.251   1.013   3.796  2.1335 -2.2853 -1.4841
 1690TIP3    H2 5035   2.149   0.907   3.759 -0.2689 -0.1845 -1.1605
 1691TIP3   OH2 5036   3.469   3.412   5.478 -0.6123 -0.2432 -0.2913
 1691TIP3    H1 5037   3.392   3.376   5.522 -0.8087  0.6739  0.1368
 1691TIP3    H2 5038   3.458   3.385   5.387 -1.2669 -0.4158 -0.1726
 1692TIP3   OH2 5039   2.310   3.906   4.516 -0.3514  0.1490  0.3561
 1692TIP3    H1 5040   2.231   3.942   4.555 -0.1385  0.0044  0.9329
 1692TIP3    H2 5041   2.351   3.980   4.471 -0.2054  0.4977  1.0566
 1693TIP3   OH2 5042   0.150   6.331   1.320 -0.1638 -0.0133 -0.6599
 1693TIP3    H1 5043   0.219   6.393   1.296  0.4216 -0.5866 -0.4838
 1693TIP3    H2 5044   0.151   6.330   1.416 -1.2003  0.8269 -0.6157
 1694TIP3   OH2 5045   1.887   4.164   5.781 -0.7401 -0.5163  0.1348
 1694TIP3    H1 5046   1.867   4.254   5.809 -2.3583 -1.0923  0.9352
 1694TIP3    H2 5047   1.950   4.132   5.846 -2.7050 -1.0463  1.8994
 1695TIP3   OH2 5048   3.991   5.399   1.626 -0.3721 -0.2691 -0.1403
 1695TIP3    H1 5049   3.972   5.493   1.623 -0.2529 -0.1573  1.4921
 1695TIP3    H2 5050   3.929   5.364   1.690  0.0537 -1.1784 -0.2144
 1696TIP3   OH2 5051   5.621   3.310   1.622 -0.1423  0.4648 -0.3081
 1696TIP3    H1 5052   5.579   3.321   1.708  2.3768  1.8951  0.8385
 1696TIP3    H2 5053   5.574   3.370   1.565 -1.8784 -0.5185 -0.0078
 1697TIP3   OH2 5054   3.515   0.604   1.782  0.1904 -0.1312 -0.4679
 1697TIP3    H1 5055   3.513   0.564   1.695  1.0693 -0.0364 -0.5395
 1697TIP3    H2 5056   3.493   0.533   1.842  1.2348 -0.6015 -0.6366
 1698TIP3   OH2 5057   5.608   4.269   0.313  0.1920 -0.0872 -0.6995
 1698TIP3    H1 5058   5.554   4.227   0.379  0.5409 -0.2327 -0.5006
 1698TIP3    H2 5059   5.694   4.228   0.323  0.4382  0.4002 -0.7561
 1699TIP3   OH2 5060   5.664   2.411   2.549  0.0050 -0.3724  0.7208
 1699TIP3    H1 5061   5.641   2.484   2.492 -0.1044 -0.6348  0.4252
 1699TIP3    H2 5062   5.691   2.342   2.489  0.8723 -0.3108  1.0277
 1700TIP3   OH2 5063   3.474   4.319   4.796 -0.2017  0.0138 -0.4186
 1700TIP3    H1 5064   3.450   4.322   4.889 -0.0373 -0.5496 -0.3585
 1700TIP3    H2 5065   3.389   4.320   4.751 -0.4174 -2.4074 -0.1961
 1701TIP3   OH2 5066   5.078   5.759   1.510  0.0246  0.3083 -0.0445
 1701TIP3    H1 5067   5.019   5.690   1.481  0.2167  0.2682 -0.3468
 1701TIP3    H2 5068   5.030   5.840   1.493  0.5843  0.3452 -1.5652
 1702TIP3   OH2 5069   0.119   3.035   0.671 -0.1644  0.1807  0.2336
 1702TIP3    H1 5070   0.047   3.044   0.733 -0.2856 -0.5417  0.2057
 1702TIP3    H2 5071   0.081   2.988   0.597  0.3985 -0.4260  0.3278
 1703TIP3   OH2 5072   0.160   2.761   0.279  0.0918 -0.2596 -0.7751
 1703TIP3    H1 5073   0.094   2.769   0.348  0.4444  0.4085 -0.5026
 1703TIP3    H2 5074   0.135   2.682   0.231 -1.5527  0.5742 -1.3807
 1704TIP3   OH2 5075   5.746   6.800   3.723 -0.0671 -0.1865 -0.1205
 1704TIP3    H1 5076   5.824   6.848   3.693 -0.1070 -0.7770 -1.2004
 1704TIP3    H2 5077   5.752   6.715   3.680 -0.3350 -0.9419  1.2750
 1705TIP3   OH2 5078   3.965   5.182   5.157 -0.2483  0.5502 -0.2645
 1705TIP3    H1 5079   3.934   5.132   5.082  0.7987 -0.6430  0.0736
 1705TIP3    H2 5080   3.961   5.121   5.230 -1.1462  1.6580  0.6566
 1706TIP3   OH2 5081   1.515   5.958   1.328 -0.3903 -0.0514  0.1699
 1706TIP3    H1 5082   1.542   6.018   1.398  1.1553 -0.1542 -0.2896
 1706TIP3    H2 5083   1.588   5.897   1.319 -0.3134  0.2339 -1.8124
 1707TIP3   OH2 5084   1.474   6.775   4.993 -0.2832 -0.4716 -0.1001
 1707TIP3    H1 5085   1.427   6.830   4.931  0.6129 -0.2292 -0.5778
 1707TIP3    H2 5086   1.529   6.719   4.938  0.8248  0.0280  0.4829
 1708TIP3   OH2 5087   3.351   3.583   0.415  0.0364  0.2303 -0.2904
 1708TIP3    H1 5088   3.341   3.497   0.374 -0.9226  0.2676 -0.1463
 1708TIP3    H2 5089   3.446   3.593   0.425  0.1340 -1.2468  0.5925
 1709TIP3   OH2 5090   4.894   3.363   2.050  0.0240  0.3166 -0.7388
 1709TIP3    H1 5091   4.936   3.414   2.119  1.1927 -0.6739 -0.6849
 1709TIP3    H2 5092   4.946   3.283   2.044 -2.5617 -1.5973  0.2057
 1710TIP3   OH2 5093   3.927   2.604   0.203  0.0278 -0.0987 -0.1425
 1710TIP3    H1 5094   4.021   2.610   0.187 -0.1708 -1.5825 -2.2006
 1710TIP3    H2 5095   3.921   2.562   0.289  1.2036  1.3493  0.6966
 1711TIP3   OH2 5096   5.645   2.210   0.250  0.0076  0.1631  0.6374
 1711TIP3    H1 5097   5.719   2.149   0.243  1.0936  1.3134  1.6149
 1711TIP3    H2 5098   5.571   2.161   0.214  0.5720 -2.1533  2.3537
 1712TIP3   OH2 5099   0.387   3.576   2.461  0.7427 -0.4077 -0.3881
 1712TIP3    H1 5100   0.447   3.579   2.386  2.1864 -0.3349  0.7339
 1712TIP3    H2 5101   0.442   3.552   2.535 -0.2177  1.5379  1.0578
 1713TIP3   OH2 5102   1.757   4.299   4.930 -0.1496  0.2302 -0.0410
 1713TIP3    H1 5103   1.690   4.338   4.873 -0.9208  0.2459  0.8699
 1713TIP3    H2 5104   1.712   4.280   5.012  1.3876  2.0744  1.3230
 1714TIP3   OH2 5105   0.531   4.350   4.360 -0.1206 -0.4614 -0.1097
 1714TIP3    H1 5106   0.531   4.333   4.454  1.8446 -2.5258 -0.3942
 1714TIP3    H2 5107   0.622   4.373   4.339 -0.6272  0.5013 -1.4443
 1715TIP3   OH2 5108   6.684   0.613   3.787 -0.2044  0.0386 -0.1667
 1715TIP3    H1 5109   6.595   0.578   3.795 -0.5803  0.9105 -0.3637
 1715TIP3    H2 5110   6.714   0.623   3.877 -0.7806  0.8842 -0.0547
 1716TIP3   OH2 5111   4.396   3.756   0.457 -0.0649 -0.1101 -0.2277
 1716TIP3    H1 5112   4.478   3.805   0.454  0.4365 -0.8464  0.8296
 1716TIP3    H2 5113   4.409   3.686   0.393 -0.2486  0.3340 -0.7543
 1717TIP3   OH2 5114   6.680   2.622   5.779 -0.2339  0.3653  0.1706
 1717TIP3    H1 5115   6.772   2.608   5.759 -0.3246 -1.0435  0.6606
 1717TIP3    H2 5116   6.670   2.590   5.868 -1.6166 -1.4868 -0.5878
 1718TIP3   OH2 5117   1.513   1.028   3.972  0.4547 -0.3510  0.2229
 1718TIP3    H1 5118   1.466   1.091   4.026  1.4464  0.6913 -0.0756
 1718TIP3    H2 5119   1.476   0.943   3.995 -0.3400  0.2588  1.2502
 1719TIP3   OH2 5120   3.770   0.395   0.418 -0.3977 -0.6558 -0.0199
 1719TIP3    H1 5121   3.777   0.331   0.347 -0.3049 -1.3570  0.6101
 1719TIP3    H2 5122   3.799   0.348   0.496  0.7268  0.4846  0.2781
 1720TIP3   OH2 5123   3.164   5.588   5.827  0.0656  0.2542  0.0301
 1720TIP3    H1 5124   3.174   5.527   5.900 -1.5671  0.9912  0.9167
 1720TIP3    H2 5125   3.248   5.585   5.782  0.8735 -0.7441  1.5144
 1721TIP3   OH2 5126   3.486   2.958   3.222  0.1198  0.0630  0.2164
 1721TIP3    H1 5127   3.448   2.870   3.224  0.3123 -0.0447 -0.5047
 1721TIP3    H2 5128   3.493   2.979   3.129  1.7744  0.0875  0.3149
 1722TIP3   OH2 5129   6.702   3.348   2.585  0.0120 -0.0238 -0.2288
 1722TIP3    H1 5130   6.648   3.417   2.547  1.5459  0.5148 -1.5463
 1722TIP3    H2 5131   6.668   3.267   2.545 -0.4528  0.1924 -0.2847
 1723TIP3   OH2 5132   6.178   5.641   0.183  0.2966  0.3804  0.1421
 1723TIP3    H1 5133   6.083   5.649   0.179  0.1209 -1.5615 -0.9623
 1723TIP3    H2 5134   6.206   5.641   0.092  1.5391  2.1457  0.4594
 1724TIP3   OH2 5135   2.856   6.331   2.493  0.2682 -0.2566  0.4988
 1724TIP3    H1 5136   2.925   6.357   2.431  0.9622 -0.8706  0.9995
 1724TIP3    H2 5137   2.801   6.271   2.443 -0.8199  1.3913 -0.3851
 1725TIP3   OH2 5138   0.517   3.940   5.043  0.3224 -0.3088 -0.1536
 1725TIP3    H1 5139   0.541   4.033   5.036 -0.0018 -0.1995  0.1341
 1725TIP3    H2 5140   0.542   3.903   4.959  0.5079  0.0274 -0.2533
 1726TIP3   OH2 5141   5.708   3.167   2.543 -0.2138  0.8391 -0.3228
 1726TIP3    H1 5142   5.614   3.151   2.553 -0.2019  0.5473 -0.6676
 1726TIP3    H2 5143   5.722   3.167   2.448  0.1661  0.7073 -0.2659
 1727TIP3   OH2 5144   2.539   5.818   3.301 -0.3881  0.0302  0.8118
 1727TIP3    H1 5145   2.530   5.817   3.396 -0.3465  0.0586  0.8160
 1727TIP3    H2 5146   2.623   5.774   3.284  0.6009  1.8142  0.8952
 1728TIP3   OH2 5147   7.203   4.040   1.237  0.8288  0.2865  0.4903
 1728TIP3    H1 5148   7.119   4.016   1.274  1.9331  1.9319  4.6707
 1728TIP3    H2 5149   7.185   4.120   1.187 -0.2175  0.1460  0.6203
 1729TIP3   OH2 5150   6.155   2.925   4.646 -0.0860  0.2760 -0.0053
 1729TIP3    H1 5151   6.161   3.021   4.642 -1.4224  0.3692 -0.2078
 1729TIP3    H2 5152   6.243   2.895   4.623  0.2003  1.4465 -0.5425
 1730TIP3   OH2 5153   3.224   5.432   3.962 -0.4069 -0.0106  0.1744
 1730TIP3    H1 5154   3.158   5.418   4.029 -0.0079 -0.6544  0.4461
 1730TIP3    H2 5155   3.245   5.343   3.931  0.4631  0.1689  0.2287
 1731TIP3   OH2 5156   5.671   6.221   0.194  0.6192 -0.3153  0.5176
 1731TIP3    H1 5157   5.589   6.192   0.234 -0.0919  1.9247  0.8242
 1731TIP3    H2 5158   5.646   6.298   0.143  2.3539 -0.3079 -0.3670
 1732TIP3   OH2 5159   3.912   0.952   1.632  0.0936  0.0003  0.4740
 1732TIP3    H1 5160   3.920   0.978   1.724  1.3651  1.5247 -0.0190
 1732TIP3    H2 5161   4.000   0.927   1.605 -0.2883 -0.5689 -0.2971
 1733TIP3   OH2 5162   1.750   0.086   4.614 -0.3741 -0.4372 -0.6985
 1733TIP3    H1 5163   1.736   0.001   4.656 -1.3632  0.6418  1.3045
 1733TIP3    H2 5164   1.663   0.112   4.585 -0.1420  0.0561 -0.9421
 1734TIP3   OH2 5165   1.717   3.354   4.866 -0.2369  0.3444 -0.5799
 1734TIP3    H1 5166   1.684   3.440   4.840  1.3150  1.6634  1.5244
 1734TIP3    H2 5167   1.812   3.366   4.874  0.0499 -1.6503 -0.4962
 1735TIP3   OH2 5168   6.936   4.464   4.196 -0.4020 -0.4503 -0.0973
 1735TIP3    H1 5169   6.922   4.464   4.291 -0.8896 -0.1553 -0.1661
 1735TIP3    H2 5170   6.955   4.373   4.174  0.5996 -0.3795  0.4066
 1736TIP3   OH2 5171   1.955   1.732   0.865  0.1217 -0.3938 -0.5134
 1736TIP3    H1 5172   1.878   1.783   0.887  2.2085  2.4900  0.7392
 1736TIP3    H2 5173   1.986   1.770   0.783  1.0001 -0.5345 -0.2555
 1737TIP3   OH2 5174   5.864   0.388   4.644 -0.7062  0.4665  0.2978
 1737TIP3    H1 5175   5.912   0.324   4.697 -0.6290  0.2235 -0.0580
 1737TIP3    H2 5176   5.931   0.425   4.586 -0.7699  0.8014  0.4367
 1738TIP3   OH2 5177   5.599   2.881   5.665  0.1154  0.4188  0.3623
 1738TIP3    H1 5178   5.626   2.913   5.578  0.7313 -0.5047  0.1926
 1738TIP3    H2 5179   5.603   2.958   5.721  1.6738  0.6346 -0.0011
 1739TIP3   OH2 5180   5.278   3.076   0.610  0.4044  0.2843  0.3732
 1739TIP3    H1 5181   5.333   3.148   0.579  0.0627  0.1292 -0.6004
 1739TIP3    H2 5182   5.189   3.112   0.612  0.0359 -0.4623 -1.3413
 1740TIP3   OH2 5183   6.704   0.746   1.006  0.0200 -0.3298  0.1370
 1740TIP3    H1 5184   6.689   0.838   1.028  1.0250 -0.3177  0.8761
 1740TIP3    H2 5185   6.662   0.698   1.077  1.3368 -0.3551  0.9429
 1741TIP3   OH2 5186   6.247   6.790   5.868  0.8073  0.2748  0.2886
 1741TIP3    H1 5187   6.161   6.795   5.910  1.1332  1.9832  0.8254
 1741TIP3    H2 5188   6.235   6.726   5.798 -1.1907  1.1825 -0.2828
 1742TIP3   OH2 5189   4.718   2.965   5.654  0.2511  0.3924  0.0320
 1742TIP3    H1 5190   4.665   3.025   5.707  0.7340  0.9690 -0.1374
 1742TIP3    H2 5191   4.661   2.889   5.641 -0.0499  0.4405  0.9819
 1743TIP3   OH2 5192   3.970   1.653   3.889 -0.5734 -0.4911  0.2221
 1743TIP3    H1 5193   3.959   1.677   3.982 -1.7739  2.1091 -0.4841
 1743TIP3    H2 5194   4.049   1.599   3.887 -1.2976 -1.8215  2.9166
 1744TIP3   OH2 5195   5.784   1.211   2.448  0.0389  0.0727 -0.2053
 1744TIP3    H1 5196   5.801   1.149   2.377 -2.8591  0.5982 -1.4774
 1744TIP3    H2 5197   5.839   1.287   2.428  1.7056 -1.0036 -0.0022
 1745TIP3   OH2 5198   2.963   3.957   2.567  0.0984  0.4359  0.2961
 1745TIP3    H1 5199   2.958   3.864   2.584 -0.3952  0.3718 -0.1532
 1745TIP3    H2 5200   3.056   3.978   2.572  0.1762 -0.0151  0.7253
 1746TIP3   OH2 5201   1.813   3.761   1.068 -0.3994  0.3649  0.2785
 1746TIP3    H1 5202   1.744   3.748   1.133 -0.5624 -0.3093 -0.0278
 1746TIP3    H2 5203   1.800   3.691   1.004 -0.4169  1.2018 -0.6452
 1747TIP3   OH2 5204   3.685   0.269   4.268  0.2178  0.1657  0.8122
 1747TIP3    H1 5205   3.637   0.261   4.185  0.8826 -1.7404  0.5491
 1747TIP3    H2 5206   3.707   0.178   4.291  0.4901  0.7037  2.8200
 1748TIP3   OH2 5207   4.143   4.610   0.303 -0.1231 -0.1270  0.7772
 1748TIP3    H1 5208   4.104   4.529   0.335 -1.0974  0.4717  1.1637
 1748TIP3    H2 5209   4.125   4.674   0.372 -0.5645  0.7323 -0.1101
 1749TIP3   OH2 5210   4.946   6.238   0.007 -0.3537 -0.0465  0.6966
 1749TIP3    H1 5211   4.873   6.272  -0.044 -0.9888 -0.5397  1.2578
 1749TIP3    H2 5212   4.911   6.160   0.050  0.5094 -0.3014  0.9588
 1750TIP3   OH2 5213   1.774   1.416   1.600 -0.3158  0.1602 -0.4626
 1750TIP3    H1 5214   1.722   1.492   1.625 -0.3659  0.4495 -1.4306
 1750TIP3    H2 5215   1.814   1.440   1.517  0.5162 -0.4711 -0.2573
 1751TIP3   OH2 5216   3.749   1.534   2.473 -0.1809 -0.2305 -0.2630
 1751TIP3    H1 5217   3.756   1.629   2.460  2.0292 -0.4573 -1.2677
 1751TIP3    H2 5218   3.797   1.518   2.554  2.8920 -0.7932 -2.0296
 1752TIP3   OH2 5219   5.814   4.012   2.375 -0.0697 -0.2263 -0.3897
 1752TIP3    H1 5220   5.741   3.979   2.428 -2.7720  1.9487 -2.3975
 1752TIP3    H2 5221   5.774   4.031   2.290  2.6308  2.1244 -1.2826
 1753TIP3   OH2 5222   0.339   6.020   0.170  0.6446 -0.3829 -1.0548
 1753TIP3    H1 5223   0.322   5.946   0.228  1.7244  1.3303  1.6200
 1753TIP3    H2 5224   0.272   6.085   0.193  1.2972  0.4636 -1.4713
 1754TIP3   OH2 5225   3.473   6.193   5.431  0.1047  0.0857  0.4084
 1754TIP3    H1 5226   3.420   6.190   5.351  0.1284 -0.1832  0.4031
 1754TIP3    H2 5227   3.409   6.185   5.502  0.0185  0.9401  0.4386
 1755TIP3   OH2 5228   2.194   1.950   5.643 -0.3672 -0.1609 -0.3224
 1755TIP3    H1 5229   2.154   2.022   5.691 -1.5094 -1.2750  0.4517
 1755TIP3    H2 5230   2.267   1.991   5.595 -0.7130  1.4084  0.4224
 1756TIP3   OH2 5231   4.828   3.489   4.775  0.1079  0.1673 -0.5007
 1756TIP3    H1 5232   4.823   3.452   4.863 -0.5840 -0.4604 -0.7930
 1756TIP3    H2 5233   4.737   3.495   4.746  0.2401  1.4971 -0.7238
 1757TIP3   OH2 5234   2.407   4.132   4.373 -0.6648  0.3906 -0.7543
 1757TIP3    H1 5235   2.493   4.095   4.356  0.4422  1.3001  2.3063
 1757TIP3    H2 5236   2.369   4.145   4.286  1.8341 -0.9738 -2.1525
 1758TIP3   OH2 5237   0.635   4.870   3.138 -0.2616  0.3397 -0.7666
 1758TIP3    H1 5238   0.643   4.856   3.044  0.6226 -2.1244 -0.3811
 1758TIP3    H2 5239   0.701   4.936   3.158  0.7526 -0.3958 -1.6205
 1759TIP3   OH2 5240   0.207   1.919   2.054  0.8189  0.6859  0.1294
 1759TIP3    H1 5241   0.219   1.869   2.135  1.7458  0.5026 -0.1047
 1759TIP3    H2 5242   0.288   1.970   2.046  0.8461  0.5042 -0.8116
 1760TIP3   OH2 5243   0.675   2.936   4.807 -0.8473  0.1049  0.1018
 1760TIP3    H1 5244   0.585   2.906   4.823 -0.5439 -1.3386 -0.7265
 1760TIP3    H2 5245   0.725   2.903   4.882 -0.6097 -1.0781 -0.5548
 1761TIP3   OH2 5246   6.429   2.289   3.750 -0.5531  0.3300  0.4108
 1761TIP3    H1 5247   6.456   2.376   3.722 -0.3078  0.7545  1.8672
 1761TIP3    H2 5248   6.511   2.243   3.770 -0.7006 -0.0681  0.1110
 1762TIP3   OH2 5249   1.681   2.787   0.641  0.1276 -0.2842  0.5320
 1762TIP3    H1 5250   1.763   2.755   0.605 -0.6863 -0.9813 -0.8200
 1762TIP3    H2 5251   1.613   2.736   0.595 -1.0469  0.1198  1.7524
 1763TIP3   OH2 5252   4.541   5.823   1.658 -0.0714  0.0735 -0.1407
 1763TIP3    H1 5253   4.476   5.768   1.702 -0.3900  0.6368  0.1024
 1763TIP3    H2 5254   4.524   5.911   1.691  1.2169  0.1356  0.3777
 1764TIP3   OH2 5255   5.565   5.288   0.370  0.0705  0.7453  0.8419
 1764TIP3    H1 5256   5.484   5.266   0.323 -0.3030  0.9044  1.3957
 1764TIP3    H2 5257   5.633   5.237   0.326 -0.3871  0.3587  0.5700
 1765TIP3   OH2 5258   6.317   0.602   3.310  0.3096  0.2531 -0.0989
 1765TIP3    H1 5259   6.347   0.525   3.358 -0.0152  0.5845  0.6538
 1765TIP3    H2 5260   6.392   0.662   3.311  0.4833  0.0456 -0.4803
 1766TIP3   OH2 5261   6.943   0.395   4.150 -0.2402 -0.0448  0.1741
 1766TIP3    H1 5262   6.920   0.396   4.243  1.5215  0.0960  0.6418
 1766TIP3    H2 5263   6.979   0.307   4.136  0.8099  0.4067 -0.0167
 1767TIP3   OH2 5264   0.592   0.873   3.952  0.2883 -0.7032 -0.4759
 1767TIP3    H1 5265   0.574   0.833   3.867 -0.3654  2.5634 -2.0463
 1767TIP3    H2 5266   0.683   0.851   3.971  0.3493 -1.7555 -1.8617
 1768TIP3   OH2 5267   2.896   4.658   4.766  0.0949  0.4079 -0.2647
 1768TIP3    H1 5268   2.856   4.732   4.811  0.7631  0.5973  0.0229
 1768TIP3    H2 5269   2.900   4.684   4.674 -0.1253  0.5224 -0.2429
 1769TIP3   OH2 5270   3.454   1.209   0.311  0.3587 -0.0762  0.5809
 1769TIP3    H1 5271   3.514   1.198   0.384  0.8402 -0.2869  0.1650
 1769TIP3    H2 5272   3.367   1.204   0.350  0.5709 -1.9637  0.9155
 1770TIP3   OH2 5273   0.166   1.493   5.167 -0.3859  0.0383 -0.1428
 1770TIP3    H1 5274   0.194   1.562   5.227 -0.0366 -0.2722  0.0571
 1770TIP3    H2 5275   0.077   1.472   5.195 -0.6531  0.7005 -0.4785
 1771TIP3   OH2 5276   0.884   5.116   1.846 -0.0745  0.0137  0.2137
 1771TIP3    H1 5277   0.807   5.173   1.847 -0.8039 -0.9230 -0.5780
 1771TIP3    H2 5278   0.953   5.168   1.887 -0.3052  2.0541 -1.8072
 1772TIP3   OH2 5279   0.266   0.261   0.605  0.3002  0.8066 -0.3392
 1772TIP3    H1 5280   0.238   0.170   0.592  2.9970 -0.1846  0.1271
 1772TIP3    H2 5281   0.197   0.314   0.565 -2.6275 -1.3052  1.5499
 1773TIP3   OH2 5282   7.025   4.846   4.345 -0.3460  0.4386  0.0570
 1773TIP3    H1 5283   7.050   4.779   4.408  0.2972  1.1412  0.5653
 1773TIP3    H2 5284   7.102   4.855   4.288 -1.0949 -0.5466 -1.1771
 1774TIP3   OH2 5285   4.260   2.283   4.666  0.6547  0.6938  0.6255
 1774TIP3    H1 5286   4.263   2.333   4.747 -1.6856  2.0510 -0.0265
 1774TIP3    H2 5287   4.175   2.304   4.628  1.4085 -0.3959 -1.8882
 1775TIP3   OH2 5288   3.060   4.878   3.789  0.3872 -0.0968 -0.6980
 1775TIP3    H1 5289   3.067   4.879   3.694 -0.6831 -1.1946 -0.8209
 1775TIP3    H2 5290   2.978   4.832   3.806  1.0328 -0.7647  0.7828
 1776TIP3   OH2 5291   3.376   1.448   1.717  0.7078  0.1422  0.1024
 1776TIP3    H1 5292   3.345   1.537   1.697  3.7698  1.4745  0.6709
 1776TIP3    H2 5293   3.442   1.461   1.785  0.0943 -2.8084  1.3820
 1777TIP3   OH2 5294   3.526   3.316   0.776  0.1422  0.1661 -0.2338
 1777TIP3    H1 5295   3.540   3.273   0.691 -0.6222 -0.6677  0.0592
 1777TIP3    H2 5296   3.536   3.410   0.756 -1.5164  0.1072 -1.5636
 1778TIP3   OH2 5297   5.331   5.083   3.745 -0.4585 -0.1568  0.4152
 1778TIP3    H1 5298   5.340   5.036   3.828 -1.2146 -1.0490  0.0126
 1778TIP3    H2 5299   5.285   5.022   3.688  0.8803  0.0771 -0.9722
 1779TIP3   OH2 5300   0.178   0.371   5.197 -0.1104 -0.2194  0.1641
 1779TIP3    H1 5301   0.216   0.367   5.109 -0.8770 -1.7325 -0.1267
 1779TIP3    H2 5302   0.165   0.280   5.222 -0.0762  0.1856  1.7940
 1780TIP3   OH2 5303   0.588   1.110   0.842 -0.2231 -0.2232  0.0779
 1780TIP3    H1 5304   0.597   1.061   0.923 -1.2777 -0.8311 -0.1498
 1780TIP3    H2 5305   0.505   1.080   0.805 -0.4626  1.0815 -0.5207
 1781TIP3   OH2 5306   1.744   5.428   2.945  0.1484 -0.0752 -0.1437
 1781TIP3    H1 5307   1.817   5.469   2.993 -0.5713  0.1315  0.7857
 1781TIP3    H2 5308   1.736   5.341   2.982 -0.5386  0.1540  0.2552
 1782TIP3   OH2 5309   5.831   1.581   0.765  0.0421  0.6092 -0.9094
 1782TIP3    H1 5310   5.915   1.570   0.720  0.2444  1.4455 -0.7545
 1782TIP3    H2 5311   5.831   1.513   0.832 -0.0688 -0.3753 -1.8753
 1783TIP3   OH2 5312   5.470   4.615   4.308 -0.6097  0.4669 -0.5830
 1783TIP3    H1 5313   5.402   4.617   4.241 -1.8651  0.0879  0.6456
 1783TIP3    H2 5314   5.427   4.644   4.388  0.6691  0.1919  0.2403
 1784TIP3   OH2 5315   4.933   4.397   2.100  0.2356 -0.3481 -0.1446
 1784TIP3    H1 5316   4.934   4.440   2.014  0.3710  3.0176  1.3820
 1784TIP3    H2 5317   4.847   4.418   2.136  0.8513 -0.1244  1.2576
 1785TIP3   OH2 5318   2.023   2.662   4.907  0.3733  0.0031 -0.2301
 1785TIP3    H1 5319   2.001   2.569   4.902 -0.9226  0.2436  0.3879
 1785TIP3    H2 5320   2.008   2.696   4.819  2.6823 -0.6956 -0.9707
 1786TIP3   OH2 5321   1.267   1.323   1.190  0.1658 -0.3556 -0.2849
 1786TIP3    H1 5322   1.361   1.307   1.200  0.2725 -0.2770 -1.0985
 1786TIP3    H2 5323   1.232   1.319   1.279  1.4465  2.9229  0.5114
 1787TIP3   OH2 5324   6.099   1.729   1.858 -0.4100  0.4155  0.0139
 1787TIP3    H1 5325   6.181   1.725   1.908  0.1786  1.4232 -0.8069
 1787TIP3    H2 5326   6.110   1.663   1.789 -0.5345  0.1509  0.2468
 1788TIP3   OH2 5327   1.128   1.225   4.312  0.2657 -0.4375 -0.2187
 1788TIP3    H1 5328   1.058   1.160   4.309 -0.4746  0.2130  1.3064
 1788TIP3    H2 5329   1.099   1.294   4.252 -1.2381  0.5275  1.4848
 1789TIP3   OH2 5330   5.752   1.456   4.765  0.3024  0.4179  0.1318
 1789TIP3    H1 5331   5.810   1.518   4.722  1.2617  0.2014  1.0635
 1789TIP3    H2 5332   5.740   1.491   4.854  0.7176 -0.6194  0.6200
 1790TIP3   OH2 5333   1.135   4.254   1.219 -0.7988 -0.3813 -0.4974
 1790TIP3    H1 5334   1.194   4.186   1.186 -0.1878  0.4548 -1.1745
 1790TIP3    H2 5335   1.172   4.336   1.185 -1.9193  0.2245 -0.2898
 1791TIP3   OH2 5336   1.188   0.054   4.502  0.0053 -0.0531  0.4036
 1791TIP3    H1 5337   1.154  -0.009   4.565  1.9892 -0.5128  1.0925
 1791TIP3    H2 5338   1.160   0.021   4.417 -0.1946 -1.0692  0.8541
 1792TIP3   OH2 5339   5.572   3.437   5.859 -0.0033 -0.8131 -0.0004
 1792TIP3    H1 5340   5.561   3.522   5.817 -0.6536 -0.8948  0.0020
 1792TIP3    H2 5341   5.630   3.389   5.800  0.2737 -0.4104 -0.0615
 1793TIP3   OH2 5342   0.238   6.228   2.430 -0.0120  0.3177 -0.9876
 1793TIP3    H1 5343   0.303   6.281   2.476 -0.8308  0.7592 -0.3065
 1793TIP3    H2 5344   0.181   6.292   2.387 -1.8453  0.1079  0.9701
 1794TIP3   OH2 5345   4.867   5.257   5.480 -0.0161  0.0847  0.2018
 1794TIP3    H1 5346   4.947   5.205   5.469 -1.0572 -1.9536  1.5626
 1794TIP3    H2 5347   4.898   5.344   5.506  1.7721 -0.0470 -1.3258
 1795TIP3   OH2 5348   4.839   5.661   5.127  0.5624 -0.6824 -0.5951
 1795TIP3    H1 5349   4.806   5.671   5.216  1.6283 -1.7628 -0.0494
 1795TIP3    H2 5350   4.791   5.726   5.076  0.1048  0.1204  0.8100
 1796TIP3   OH2 5351   4.411   5.193   2.754  0.4643 -0.5588 -0.0453
 1796TIP3    H1 5352   4.450   5.256   2.693 -0.5298 -1.2323 -1.4156
 1796TIP3    H2 5353   4.448   5.109   2.729 -0.4701 -0.9419 -0.1785
 1797TIP3   OH2 5354   0.298   0.243   5.617  0.1583 -0.2059 -0.1687
 1797TIP3    H1 5355   0.367   0.294   5.575 -0.3930 -0.2868 -1.1965
 1797TIP3    H2 5356   0.280   0.172   5.556 -1.3382  0.2217 -0.2558
 1798TIP3   OH2 5357   2.657   5.024   3.320  0.9957 -0.0323  0.1324
 1798TIP3    H1 5358   2.633   4.968   3.247  1.2547  0.1782 -0.1170
 1798TIP3    H2 5359   2.694   5.102   3.279  1.0547  0.1260  0.4857
 1799TIP3   OH2 5360   2.016   5.141   3.566 -0.2917 -0.1420 -0.6284
 1799TIP3    H1 5361   1.930   5.135   3.608  0.0812  0.5049  0.2521
 1799TIP3    H2 5362   2.053   5.054   3.575 -0.9594 -0.5082 -1.2703
 1800TIP3   OH2 5363   0.037   1.716   0.322  0.0272 -0.4335 -0.6467
 1800TIP3    H1 5364  -0.052   1.734   0.351 -0.2520 -0.4411 -1.4585
 1800TIP3    H2 5365   0.091   1.778   0.371 -0.1301 -1.8953  1.4967
 1801TIP3   OH2 5366   1.072   3.324   2.082 -0.3311 -0.2608  0.2674
 1801TIP3    H1 5367   1.041   3.237   2.103 -0.2375 -0.4140 -0.2164
 1801TIP3    H2 5368   1.095   3.320   1.989 -1.3573  0.5793 -0.0467
 1802TIP3   OH2 5369   0.192   5.905   2.708  0.1991 -0.8980 -0.4690
 1802TIP3    H1 5370   0.256   5.959   2.754 -0.3013  1.5044 -2.3799
 1802TIP3    H2 5371   0.221   5.815   2.723  2.0388 -0.0619  1.5033
 1803TIP3   OH2 5372   0.720   5.763   3.883  0.1605  0.1373 -0.0659
 1803TIP3    H1 5373   0.652   5.821   3.850  2.0494  2.2922 -0.4273
 1803TIP3    H2 5374   0.769   5.736   3.805  1.9447  1.6753  0.4473
 1804TIP3   OH2 5375   2.408   1.412   0.357  0.3061 -0.2384 -0.6701
 1804TIP3    H1 5376   2.381   1.424   0.448 -1.0364  1.7438 -1.2883
 1804TIP3    H2 5377   2.326   1.405   0.308  1.0122 -0.7961 -1.8204
 1805TIP3   OH2 5378   4.420   0.233   0.721 -0.2800  0.0233  0.4677
 1805TIP3    H1 5379   4.480   0.159   0.714 -2.0151 -1.5336  1.0692
 1805TIP3    H2 5380   4.433   0.283   0.641  1.4334 -0.5236  0.3643
 1806TIP3   OH2 5381   3.568   4.463   5.481  0.0750 -0.3083  0.0690
 1806TIP3    H1 5382   3.485   4.507   5.460  0.7480  0.5881 -0.8124
 1806TIP3    H2 5383   3.608   4.518   5.548  0.8560  0.3870 -0.9382
 1807TIP3   OH2 5384   1.647   2.794   5.433  0.4525  0.6858 -0.3339
 1807TIP3    H1 5385   1.619   2.883   5.452 -0.1619  0.5727 -0.6611
 1807TIP3    H2 5386   1.723   2.804   5.375  1.0834  0.9981  0.5279
 1808TIP3   OH2 5387   0.580   4.875   5.086 -0.5689 -0.2231 -0.1376
 1808TIP3    H1 5388   0.561   4.852   4.995 -0.8512 -1.6650  0.2484
 1808TIP3    H2 5389   0.665   4.836   5.103  0.6636  2.1632 -0.4667
 1809TIP3   OH2 5390   1.150   1.288   3.448 -0.5461 -0.1020 -0.4917
 1809TIP3    H1 5391   1.086   1.335   3.395  0.2461 -0.6440 -1.9779
 1809TIP3    H2 5392   1.165   1.206   3.401  0.9641 -0.1413 -0.0081
 1810TIP3   OH2 5393   2.571   5.635   0.414  0.0093  0.1686  0.0316
 1810TIP3    H1 5394   2.538   5.705   0.357  1.2437  0.7140 -0.0431
 1810TIP3    H2 5395   2.602   5.681   0.492  1.5024 -0.1960 -0.3244
 1811TIP3   OH2 5396   0.296   1.051   4.704 -0.5703 -0.0191 -0.4654
 1811TIP3    H1 5397   0.238   0.990   4.750 -1.2552  1.4356  0.6549
 1811TIP3    H2 5398   0.249   1.073   4.623 -0.4279 -0.7618 -0.7592
 1812TIP3   OH2 5399   2.778   4.108   3.157  0.2672 -0.0742  0.6496
 1812TIP3    H1 5400   2.758   4.171   3.227  0.1913 -0.4849  1.0003
 1812TIP3    H2 5401   2.694   4.066   3.139  0.2818  0.0501  0.2878
 1813TIP3   OH2 5402   4.735   3.407   3.022 -0.0350 -0.1426  0.2891
 1813TIP3    H1 5403   4.697   3.464   3.088 -1.0223 -0.6817  0.2065
 1813TIP3    H2 5404   4.767   3.331   3.070 -0.1462 -0.2303  0.2264
 1814TIP3   OH2 5405   3.928   1.966   3.314 -0.3250  0.7752  0.0398
 1814TIP3    H1 5406   3.872   1.915   3.256 -0.2538 -1.5192  1.8486
 1814TIP3    H2 5407   3.869   2.028   3.357 -0.9363  0.3914 -0.2373
 1815TIP3   OH2 5408   4.674   4.248   3.344 -0.3879 -0.1404 -0.0377
 1815TIP3    H1 5409   4.664   4.159   3.308  0.2619 -0.2017 -0.0923
 1815TIP3    H2 5410   4.700   4.234   3.435 -0.9194  0.0024  0.1344
 1816TIP3   OH2 5411   3.428   1.904   4.666 -0.1646  0.0859 -0.2708
 1816TIP3    H1 5412   3.403   1.922   4.576 -0.7038 -0.9354 -0.3479
 1816TIP3    H2 5413   3.372   1.831   4.692  0.1756  0.1866  0.8008
 1817TIP3   OH2 5414   1.905   5.987   4.986 -0.8441 -0.7464 -0.3737
 1817TIP3    H1 5415   1.961   5.918   4.949 -0.0782 -0.5471  0.3892
 1817TIP3    H2 5416   1.917   6.062   4.927 -1.7708 -1.2805 -1.2732
 1818TIP3   OH2 5417   7.039   2.507   4.182  0.1458  0.2875  0.0321
 1818TIP3    H1 5418   7.003   2.467   4.103  1.5534 -1.4777  0.2128
 1818TIP3    H2 5419   7.100   2.574   4.149  2.4181 -1.9240 -0.5514
 1819TIP3   OH2 5420   4.220   2.924   2.188 -0.7661 -0.4344  0.0759
 1819TIP3    H1 5421   4.232   2.837   2.151  1.4623  0.1099 -0.6658
 1819TIP3    H2 5422   4.309   2.955   2.207 -1.4233  1.9076 -0.2847
 1820TIP3   OH2 5423   4.015   5.611   0.658 -0.3231 -0.1673  0.0606
 1820TIP3    H1 5424   3.931   5.646   0.628 -1.0448 -0.5721  1.5069
 1820TIP3    H2 5425   4.021   5.525   0.617 -0.6811 -0.1911  0.0555
 1821TIP3   OH2 5426   2.245   6.185   4.865 -0.6453 -0.0798 -0.1981
 1821TIP3    H1 5427   2.295   6.256   4.905  0.7376 -1.2944  0.3122
 1821TIP3    H2 5428   2.266   6.191   4.772  0.4633 -0.5455  0.0027
 1822TIP3   OH2 5429   3.235   5.318   3.241  0.1928 -0.4241  0.3474
 1822TIP3    H1 5430   3.311   5.313   3.299  0.2747 -1.8803  0.1631
 1822TIP3    H2 5431   3.265   5.371   3.167  0.2243  1.0804  1.3938
 1823TIP3   OH2 5432   6.643   5.858   5.564 -0.0533 -0.6049 -0.2344
 1823TIP3    H1 5433   6.698   5.780   5.562  0.2227 -0.4012 -1.0878
 1823TIP3    H2 5434   6.678   5.914   5.494  0.5061  0.8012  1.1081
 1824TIP3   OH2 5435   5.642   1.817   5.369  0.5599  0.6548 -0.5009
 1824TIP3    H1 5436   5.678   1.866   5.443  1.1230 -0.6966  0.1750
 1824TIP3    H2 5437   5.691   1.734   5.370 -0.6757 -0.1167 -1.2783
 1825TIP3   OH2 5438   6.090   4.055   4.847 -0.5695  0.4354 -0.1345
 1825TIP3    H1 5439   6.087   4.111   4.924  1.1444  0.7950 -0.2745
 1825TIP3    H2 5440   6.164   3.996   4.864 -2.2983 -1.7976 -0.0037
 1826TIP3   OH2 5441   3.365   1.629   2.421 -0.3865  0.2887 -0.3060
 1826TIP3    H1 5442   3.321   1.543   2.420  1.3133 -0.6193 -0.4155
 1826TIP3    H2 5443   3.308   1.684   2.474 -1.1238 -1.1394  0.4394
 1827TIP3   OH2 5444   3.165   5.337   4.550  0.3522 -0.6653 -0.1626
 1827TIP3    H1 5445   3.086   5.322   4.497  0.0128  0.8095 -0.1421
 1827TIP3    H2 5446   3.146   5.294   4.634  0.3282 -1.8590 -0.7753
 1828TIP3   OH2 5447   6.003   3.277   5.044  0.6561 -0.3621 -0.5541
 1828TIP3    H1 5448   5.966   3.339   5.107  0.7629 -0.8868  0.0371
 1828TIP3    H2 5449   6.097   3.283   5.056  0.6867 -0.3056 -0.8196
 1829TIP3   OH2 5450   6.783   0.744   1.348  0.2209  0.5469 -0.2284
 1829TIP3    H1 5451   6.692   0.773   1.341 -0.0745  0.1865  1.6157
 1829TIP3    H2 5452   6.777   0.655   1.382  1.2527 -0.0855 -1.5777
 1830TIP3   OH2 5453   2.160   4.532   4.366 -0.0491  0.2471  0.6215
 1830TIP3    H1 5454   2.213   4.509   4.289  1.0483 -0.6625  1.6159
 1830TIP3    H2 5455   2.076   4.560   4.330  0.6566  0.4518 -0.9385
 1831TIP3   OH2 5456   3.616   1.809   4.249  0.9141  0.0132  0.0101
 1831TIP3    H1 5457   3.660   1.825   4.333 -2.1514  0.9195  1.5678
 1831TIP3    H2 5458   3.623   1.892   4.202  1.2055  0.0191  0.0609
 1832TIP3   OH2 5459   5.283   3.566   4.797 -0.6291 -0.3879  0.0428
 1832TIP3    H1 5460   5.193   3.582   4.824 -0.8148  1.2521 -1.3487
 1832TIP3    H2 5461   5.275   3.521   4.713 -0.1963  0.4272 -0.4521
 1833TIP3   OH2 5462   3.829   5.674   2.064 -0.6489 -0.1743 -0.0134
 1833TIP3    H1 5463   3.848   5.659   2.157  2.4258 -0.7018 -0.6106
 1833TIP3    H2 5464   3.734   5.670   2.058 -0.9168 -0.8738  2.9815
 1834TIP3   OH2 5465   5.521   4.137   3.311  0.3150  0.1809 -0.5841
 1834TIP3    H1 5466   5.444   4.080   3.321  0.1144  0.4751 -0.4464
 1834TIP3    H2 5467   5.538   4.171   3.399  0.8088 -0.1449 -0.5492
 1835TIP3   OH2 5468   3.762   1.092   5.622 -0.1149 -0.1794  0.5991
 1835TIP3    H1 5469   3.726   1.037   5.553 -2.8478  1.4626  0.5770
 1835TIP3    H2 5470   3.757   1.039   5.701  0.9241 -1.2708 -0.0398
 1836TIP3   OH2 5471   5.933   2.566   0.503 -0.2340  0.3620  0.1013
 1836TIP3    H1 5472   5.903   2.603   0.586  1.3595  2.6924 -0.2724
 1836TIP3    H2 5473   5.993   2.632   0.468 -1.9735  0.1703 -3.6562
 1837TIP3   OH2 5474   0.271   4.221   1.102 -0.3524  0.1889 -0.0080
 1837TIP3    H1 5475   0.197   4.204   1.043 -0.2403 -1.5792  0.3093
 1837TIP3    H2 5476   0.292   4.135   1.139  0.5644  1.0125  1.4535
 1838TIP3   OH2 5477   0.829   1.906   3.556 -0.4226  0.0110  0.1516
 1838TIP3    H1 5478   0.902   1.951   3.599 -0.1876 -0.6600  0.4631
 1838TIP3    H2 5479   0.764   1.975   3.542  0.1602  0.5660  0.1097
 1839TIP3   OH2 5480   1.036   0.827   1.314 -0.3453 -0.0745 -0.3772
 1839TIP3    H1 5481   1.009   0.836   1.406 -0.3622  0.4217 -0.4292
 1839TIP3    H2 5482   1.060   0.916   1.287  1.6875 -0.5463 -0.2420
 1840TIP3   OH2 5483   2.048   3.862   5.728  0.2188  0.7824 -0.5674
 1840TIP3    H1 5484   2.108   3.843   5.656 -0.0600 -2.5589 -0.0685
 1840TIP3    H2 5485   1.963   3.873   5.686  0.3406  0.5845 -0.8683
 1841TIP3   OH2 5486   4.686   6.516   0.407 -0.0838 -0.1105 -0.3207
 1841TIP3    H1 5487   4.679   6.452   0.478 -0.3713 -0.7486 -0.9182
 1841TIP3    H2 5488   4.768   6.494   0.362  1.4981  1.9197  1.3597
 1842TIP3   OH2 5489   0.486   3.992   2.546  0.2809 -0.3326 -0.1843
 1842TIP3    H1 5490   0.524   4.033   2.624  1.9122  2.3392 -2.2057
 1842TIP3    H2 5491   0.547   3.921   2.524  0.5179 -0.2622  0.2390
 1843TIP3   OH2 5492   4.142   1.050   2.728 -0.0818  0.5008  0.5957
 1843TIP3    H1 5493   4.141   1.126   2.670 -0.6835 -1.4246 -2.1637
 1843TIP3    H2 5494   4.234   1.039   2.751 -0.0948  2.5625  1.9012
 1844TIP3   OH2 5495   5.258   4.678   0.611 -0.3222 -0.1038  0.0419
 1844TIP3    H1 5496   5.322   4.622   0.655 -0.3785  0.5277  0.9640
 1844TIP3    H2 5497   5.303   4.707   0.532 -0.9240 -2.8314 -1.4157
 1845TIP3   OH2 5498   6.164   0.244   1.673  0.4291 -0.0774  0.4916
 1845TIP3    H1 5499   6.180   0.277   1.762  0.9164  1.0475  0.0065
 1845TIP3    H2 5500   6.216   0.164   1.668  0.8478  0.1493  1.0408
 1846TIP3   OH2 5501   3.237   3.439   4.790  0.1315 -0.8147  0.1978
 1846TIP3    H1 5502   3.216   3.349   4.815 -1.6582 -0.2306  0.9826
 1846TIP3    H2 5503   3.204   3.447   4.701  1.6863 -1.3439 -0.4617
 1847TIP3   OH2 5504   0.941   3.071   0.343  0.2756 -0.6840  0.6467
 1847TIP3    H1 5505   1.032   3.047   0.323  0.4544  0.4551 -0.0396
 1847TIP3    H2 5506   0.947   3.119   0.425  0.3479 -0.2835  0.4082
 1848TIP3   OH2 5507   2.645   5.110   5.401 -0.1833 -0.3739  0.3656
 1848TIP3    H1 5508   2.634   5.126   5.495 -0.0414 -1.0620  0.5066
 1848TIP3    H2 5509   2.562   5.069   5.375 -0.5504  0.5781  0.0118
 1849TIP3   OH2 5510   0.976   1.943   4.601  0.1674 -0.0490  0.5416
 1849TIP3    H1 5511   0.952   1.955   4.509  2.2882 -0.2145 -0.0825
 1849TIP3    H2 5512   1.044   2.008   4.617  0.3465 -0.5181  1.7760
 1850TIP3   OH2 5513   0.927   3.045   5.393  0.3878 -0.0216 -0.6013
 1850TIP3    H1 5514   0.918   3.010   5.304 -0.3481  1.0136 -0.9702
 1850TIP3    H2 5515   0.942   2.969   5.448 -0.4950 -0.8392 -1.4425
 1851TIP3   OH2 5516   2.970   0.370   5.364  0.2164 -0.2885 -0.1228
 1851TIP3    H1 5517   2.992   0.337   5.277  1.7151  1.3921 -0.4405
 1851TIP3    H2 5518   2.972   0.293   5.420 -1.3520 -1.5154 -1.6271
 1852TIP3   OH2 5519   4.379   5.773   5.583 -0.2061 -0.8331 -0.0579
 1852TIP3    H1 5520   4.383   5.683   5.615 -1.1524 -1.4681 -1.6121
 1852TIP3    H2 5521   4.452   5.780   5.520  0.7736 -0.0280  1.1084
 1853TIP3   OH2 5522   6.977   5.358   5.479  0.0921 -0.2349 -0.3284
 1853TIP3    H1 5523   6.884   5.376   5.464  0.1566  0.1289 -0.3234
 1853TIP3    H2 5524   7.016   5.358   5.392  0.2836  0.7947 -0.2552
 1854TIP3   OH2 5525   4.217   1.948   2.980 -0.6431  0.3954  0.5940
 1854TIP3    H1 5526   4.208   1.864   2.936  0.4491  0.5232  0.0958
 1854TIP3    H2 5527   4.311   1.958   2.994 -0.8536  1.0064  1.6959
 1855TIP3   OH2 5528   1.174   5.464   2.180  0.1864  0.1700 -0.2013
 1855TIP3    H1 5529   1.264   5.494   2.196  0.8829 -2.4561  1.5346
 1855TIP3    H2 5530   1.141   5.444   2.268 -0.9427 -1.8585 -1.0333
 1856TIP3   OH2 5531   3.748   3.175   0.875  1.0140 -0.1342 -0.0651
 1856TIP3    H1 5532   3.670   3.221   0.845 -0.4716  0.6925  4.3167
 1856TIP3    H2 5533   3.820   3.213   0.825 -0.8119  2.9575 -0.6029
 1857TIP3   OH2 5534   5.231   4.098   2.714  0.1666 -0.3296 -0.9334
 1857TIP3    H1 5535   5.139   4.087   2.691  0.3460 -1.7663 -1.0491
 1857TIP3    H2 5536   5.231   4.121   2.807 -0.3103 -0.2786 -0.9455
 1858TIP3   OH2 5537   4.798   1.816   2.516 -0.4764  0.1047 -0.0821
 1858TIP3    H1 5538   4.825   1.724   2.520 -2.6755 -0.5511  0.9210
 1858TIP3    H2 5539   4.760   1.826   2.428  0.4502  0.3057 -0.4788
 1859TIP3   OH2 5540   0.880   4.365   4.036 -0.5433 -0.2858  0.0804
 1859TIP3    H1 5541   0.824   4.301   3.993  0.0920 -0.6491 -0.2182
 1859TIP3    H2 5542   0.829   4.446   4.034 -1.4558 -0.8361  0.6997
 1860TIP3   OH2 5543   3.492   6.129   0.202  0.6700  0.5424  0.3034
 1860TIP3    H1 5544   3.449   6.173   0.128  2.4632  1.2013 -0.4110
 1860TIP3    H2 5545   3.424   6.122   0.269 -1.0837 -0.2822 -1.4634
 1861TIP3   OH2 5546   2.305   0.829   3.345  0.4705 -0.1301 -0.3391
 1861TIP3    H1 5547   2.238   0.824   3.277  0.9578 -2.3264 -0.7282
 1861TIP3    H2 5548   2.385   0.797   3.302  1.1609 -0.0325  0.8374
 1862TIP3   OH2 5549   5.859   2.120   4.155  0.1513 -0.6185  0.1611
 1862TIP3    H1 5550   5.902   2.187   4.102 -2.0092  0.1266 -0.7273
 1862TIP3    H2 5551   5.860   2.155   4.244  0.8562 -0.3710  0.0618
 1863TIP3   OH2 5552   4.817   4.521   0.585 -0.2787  0.3365  0.3904
 1863TIP3    H1 5553   4.883   4.584   0.614 -0.4646  0.8740 -0.3285
 1863TIP3    H2 5554   4.790   4.552   0.499 -1.3879  0.0639  0.6226
 1864TIP3   OH2 5555   6.956   5.629   5.035 -0.0339  0.6020 -0.2197
 1864TIP3    H1 5556   6.995   5.709   4.998 -0.2387  0.5276 -0.6040
 1864TIP3    H2 5557   7.030   5.584   5.076  0.2795  0.4925 -0.8868
 1865TIP3   OH2 5558   4.969   3.080   3.159 -0.4354  0.5327 -0.4685
 1865TIP3    H1 5559   4.993   2.987   3.162 -0.1414  0.6285  0.4724
 1865TIP3    H2 5560   4.904   3.091   3.227  1.4217  1.5052  1.2624
 1866TIP3   OH2 5561   5.413   3.047   4.882  0.1717  0.5079 -0.0131
 1866TIP3    H1 5562   5.404   3.127   4.830  0.4364  0.2898 -0.3992
 1866TIP3    H2 5563   5.502   3.018   4.865 -0.6991 -1.3122 -1.9978
 1867TIP3   OH2 5564   4.517   5.372   2.303 -0.2911 -0.1675 -0.1442
 1867TIP3    H1 5565   4.572   5.437   2.259  1.8694 -0.2454  2.2611
 1867TIP3    H2 5566   4.495   5.309   2.234 -0.3801  1.7342 -1.9676
 1868TIP3   OH2 5567   4.712   6.458   4.539 -0.2831  0.1811  0.4701
 1868TIP3    H1 5568   4.725   6.548   4.509  0.1629 -0.1447 -0.3407
 1868TIP3    H2 5569   4.644   6.465   4.607  0.5293  1.2679  1.2109
 1869TIP3   OH2 5570   5.959   2.353   1.685  0.4171  0.1967 -0.0873
 1869TIP3    H1 5571   5.990   2.334   1.774 -0.8311  0.2194  0.3614
 1869TIP3    H2 5572   6.034   2.333   1.630  0.5693 -1.8428  0.7759
 1870TIP3   OH2 5573   1.588   2.982   2.444 -0.0643  0.4051 -0.1226
 1870TIP3    H1 5574   1.496   2.992   2.466 -0.6189 -0.5916 -1.8059
 1870TIP3    H2 5575   1.610   2.892   2.468 -0.7660 -0.8181 -3.4763
 1871TIP3   OH2 5576   5.486   2.448   3.247  0.1012 -0.1918 -0.1518
 1871TIP3    H1 5577   5.497   2.500   3.327  0.5405  0.2368 -0.4829
 1871TIP3    H2 5578   5.443   2.507   3.185  2.5452  0.5655 -1.2595
 1872TIP3   OH2 5579   4.401   5.081   0.767  0.2780  0.3159 -0.2914
 1872TIP3    H1 5580   4.411   5.176   0.772  1.6693  0.1413  0.6728
 1872TIP3    H2 5581   4.483   5.050   0.730 -0.3103 -0.4974 -0.9368
 1873TIP3   OH2 5582   4.703   6.103   1.908  0.1700 -0.6032 -0.1429
 1873TIP3    H1 5583   4.624   6.055   1.932 -0.0560  0.0826  0.5142
 1873TIP3    H2 5584   4.766   6.082   1.978 -0.5217  1.4776  1.2055
 1874TIP3   OH2 5585   0.478   1.534   1.137  0.4144  1.1465 -0.3221
 1874TIP3    H1 5586   0.466   1.588   1.216  1.6450  0.5050  0.3356
 1874TIP3    H2 5587   0.569   1.506   1.142  0.3242  0.5778 -1.6664
 1875TIP3   OH2 5588   3.404   5.835   5.872 -0.3147  0.4640  0.0723
 1875TIP3    H1 5589   3.447   5.800   5.794  0.8490 -0.5440  1.1226
 1875TIP3    H2 5590   3.391   5.928   5.852  2.6377  0.9157 -0.2555
 1876TIP3   OH2 5591   7.137   4.249   0.560  0.1691  0.1557 -0.3836
 1876TIP3    H1 5592   7.212   4.271   0.616 -1.6988  1.7744  1.6576
 1876TIP3    H2 5593   7.124   4.327   0.506 -0.6171  0.3222  0.0189
 1877TIP3   OH2 5594   2.726   2.462   0.893 -0.3558  0.8819  0.2411
 1877TIP3    H1 5595   2.770   2.423   0.817 -0.9458  0.3967  0.1374
 1877TIP3    H2 5596   2.794   2.511   0.938  0.6094 -0.8654  0.7894
 1878TIP3   OH2 5597   1.676   1.853   1.597 -0.0723 -0.0985  0.0597
 1878TIP3    H1 5598   1.659   1.921   1.533 -1.3372  0.3281  0.8080
 1878TIP3    H2 5599   1.682   1.900   1.681 -2.2909 -0.9612  0.7853
 1879TIP3   OH2 5600   6.186   2.606   1.930  0.3384 -0.4372 -0.0892
 1879TIP3    H1 5601   6.154   2.541   1.866  0.1595 -1.0587  0.6190
 1879TIP3    H2 5602   6.279   2.614   1.912 -0.0014  0.7328 -1.5996
 1880TIP3   OH2 5603   6.630   0.489   1.141 -0.0584  0.2931 -0.4808
 1880TIP3    H1 5604   6.580   0.408   1.156  0.6290 -0.2490 -1.0310
 1880TIP3    H2 5605   6.719   0.466   1.166  0.4288  0.4411 -2.0136
 1881TIP3   OH2 5606   6.837   0.465   5.118 -0.6233  0.4169 -0.4004
 1881TIP3    H1 5607   6.857   0.397   5.182 -1.8976  0.5603  0.1657
 1881TIP3    H2 5608   6.911   0.462   5.057 -0.1048 -0.6987  0.2481
 1882TIP3   OH2 5609   0.870   2.308   3.708 -0.2446 -0.2796  0.0390
 1882TIP3    H1 5610   0.893   2.396   3.738 -0.6346  0.2271 -1.0967
 1882TIP3    H2 5611   0.942   2.253   3.740  0.3176  0.5531  0.2508
 1883TIP3   OH2 5612   6.517   1.860   1.078  0.3008  0.1757  0.5307
 1883TIP3    H1 5613   6.484   1.861   1.168 -0.2097  0.3527  0.3460
 1883TIP3    H2 5614   6.497   1.772   1.047 -0.1838  0.3414  0.3572
 1884TIP3   OH2 5615   1.825   1.283   1.824  0.1862 -0.0911  0.0891
 1884TIP3    H1 5616   1.813   1.324   1.738 -2.6502 -1.3122 -0.2401
 1884TIP3    H2 5617   1.918   1.261   1.828  0.6141  1.0178 -2.1856
 1885TIP3   OH2 5618   4.769   1.612   3.822 -0.4148 -0.4230 -0.0424
 1885TIP3    H1 5619   4.831   1.608   3.895 -1.5623 -0.6581  0.9586
 1885TIP3    H2 5620   4.822   1.592   3.744  0.5372 -1.7876  0.9087
 1886TIP3   OH2 5621   4.629   3.962   1.686 -0.0980 -0.0050  0.3648
 1886TIP3    H1 5622   4.659   4.051   1.708  1.7935 -0.4596 -0.2180
 1886TIP3    H2 5623   4.590   3.971   1.599 -0.4193  0.3374  0.5371
 1887TIP3   OH2 5624   3.310   0.048   0.222  0.2807  0.1016  0.5322
 1887TIP3    H1 5625   3.403   0.056   0.241  0.2970  0.7513  0.2075
 1887TIP3    H2 5626   3.307   0.006   0.136  0.2462 -0.9463  1.0337
 1888TIP3   OH2 5627   7.121   6.581   5.670  0.6756 -0.7449  0.0872
 1888TIP3    H1 5628   7.036   6.554   5.635  0.5164 -0.5286  0.3107
 1888TIP3    H2 5629   7.133   6.527   5.748 -1.4819  2.4618  2.9632
 1889TIP3   OH2 5630   2.348   2.224   5.409 -0.2835  0.0169 -0.0909
 1889TIP3    H1 5631   2.367   2.138   5.372 -0.7742 -0.3599  0.5153
 1889TIP3    H2 5632   2.377   2.219   5.499  0.7207  0.8695 -0.3531
 1890TIP3   OH2 5633   0.327   0.129   2.161  0.3825 -0.7410 -0.0954
 1890TIP3    H1 5634   0.314   0.184   2.238  2.1375  1.9683 -1.5728
 1890TIP3    H2 5635   0.410   0.085   2.177  0.2023 -1.0443  0.0150
 1891TIP3   OH2 5636   1.201   6.443   2.092 -0.4202  0.2938 -0.8851
 1891TIP3    H1 5637   1.258   6.511   2.055 -0.3391  0.9782  0.4553
 1891TIP3    H2 5638   1.124   6.491   2.123 -1.0009 -0.4197 -1.2057
 1892TIP3   OH2 5639   3.254   4.096   2.431  0.6130 -0.4203  0.2608
 1892TIP3    H1 5640   3.262   4.036   2.505 -2.7898 -2.2725 -0.6751
 1892TIP3    H2 5641   3.201   4.168   2.465  0.4187 -0.4699  0.0626
 1893TIP3   OH2 5642   5.813   1.742   3.879  0.2531  0.3954  0.8287
 1893TIP3    H1 5643   5.828   1.728   3.785 -1.8041  0.7136  0.4129
 1893TIP3    H2 5644   5.826   1.656   3.919 -0.7848 -0.1812 -0.0399
 1894TIP3   OH2 5645   2.815   2.325   3.478 -0.4488  0.0299  0.1541
 1894TIP3    H1 5646   2.797   2.233   3.462 -1.1591  0.4975 -1.9838
 1894TIP3    H2 5647   2.859   2.356   3.399 -2.2307  2.0175 -0.1647
 1895TIP3   OH2 5648   6.935   5.444   5.926  0.3186 -0.4550  0.4684
 1895TIP3    H1 5649   6.867   5.390   5.886 -0.0150  1.0575 -1.1423
 1895TIP3    H2 5650   6.959   5.507   5.858  3.2820 -0.8410  1.0109
 1896TIP3   OH2 5651   2.917   2.904   1.703 -0.4725  0.0765 -0.0343
 1896TIP3    H1 5652   2.987   2.842   1.680  0.2211  0.8531 -0.0720
 1896TIP3    H2 5653   2.852   2.893   1.634 -0.2156 -0.4047 -0.2041
 1897TIP3   OH2 5654   1.044   3.277   5.329 -0.2745 -0.5497  0.5863
 1897TIP3    H1 5655   0.986   3.220   5.379 -0.2789 -0.5831  0.5432
 1897TIP3    H2 5656   1.096   3.217   5.276 -0.3216 -0.5108  0.4954
 1898TIP3   OH2 5657   2.824   3.802   0.968  0.4069 -0.1032 -0.4758
 1898TIP3    H1 5658   2.817   3.856   0.889 -0.3446  0.0974 -0.2898
 1898TIP3    H2 5659   2.883   3.850   1.025  0.5733 -0.0062 -0.7291
 1899TIP3   OH2 5660   5.168   6.212   2.718 -0.0483  0.1641  0.2109
 1899TIP3    H1 5661   5.227   6.258   2.778 -0.2871 -0.2994  0.8158
 1899TIP3    H2 5662   5.190   6.246   2.631  1.2641 -0.1582  0.3912
 1900TIP3   OH2 5663   6.749   3.638   2.735  0.1590 -0.5501  0.6779
 1900TIP3    H1 5664   6.766   3.544   2.725  3.1952  0.1441 -3.3941
 1900TIP3    H2 5665   6.824   3.670   2.785  1.8557  0.1809 -2.1159
 1901TIP3   OH2 5666   4.974   4.552   4.902  0.7467 -0.0395 -0.6804
 1901TIP3    H1 5667   4.890   4.597   4.912  0.8170 -0.0422 -0.0187
 1901TIP3    H2 5668   4.951   4.459   4.895  0.5924  0.0921 -2.1869
 1902TIP3   OH2 5669   4.506   0.702   1.627  0.0740  0.0376  0.2144
 1902TIP3    H1 5670   4.534   0.611   1.617  0.3658  0.1548 -0.0393
 1902TIP3    H2 5671   4.486   0.731   1.538  1.9669  0.8504 -0.0055
 1903TIP3   OH2 5672   1.683   0.995   0.026  0.1749 -0.3194  0.8657
 1903TIP3    H1 5673   1.672   0.900   0.018  0.9101 -0.2988 -0.8994
 1903TIP3    H2 5674   1.594   1.028   0.041 -0.2145 -1.2122  0.6244
 1904TIP3   OH2 5675   4.903   1.310   3.982  0.1121  0.4538 -0.9618
 1904TIP3    H1 5676   4.934   1.316   4.072  0.7075  1.7441 -1.2110
 1904TIP3    H2 5677   4.978   1.339   3.929 -0.1317 -0.5354 -1.8974
 1905TIP3   OH2 5678   2.810   6.570   3.260  0.2257  0.0665  0.1016
 1905TIP3    H1 5679   2.773   6.651   3.225  0.1689  0.0490  0.1222
 1905TIP3    H2 5680   2.813   6.583   3.355 -1.1045 -0.5096  0.2375
 1906TIP3   OH2 5681   1.563   3.078   0.151  0.7630  0.3624  0.3760
 1906TIP3    H1 5682   1.616   3.004   0.182  0.3192 -0.0712  0.1083
 1906TIP3    H2 5683   1.616   3.155   0.172  1.4241 -0.0542  0.2695
 1907TIP3   OH2 5684   5.893   5.321   0.693  0.4482  0.1219 -0.2359
 1907TIP3    H1 5685   5.883   5.412   0.664  0.3608 -0.4946 -2.2585
 1907TIP3    H2 5686   5.805   5.284   0.688  0.8945 -0.8087 -2.1900
 1908TIP3   OH2 5687   1.107   5.415   5.610 -0.0021  0.5060  0.5299
 1908TIP3    H1 5688   1.195   5.437   5.641  1.1625 -0.2595 -1.9225
 1908TIP3    H2 5689   1.078   5.345   5.669  1.0865  0.7001  1.3290
 1909TIP3   OH2 5690   1.745   3.731   3.036 -0.0051  0.3520 -0.1633
 1909TIP3    H1 5691   1.806   3.694   2.973 -0.9479  0.0503 -0.9347
 1909TIP3    H2 5692   1.715   3.813   2.996 -1.0861 -0.1499 -0.4348
 1910TIP3   OH2 5693   4.580   2.371   1.678  0.3072 -0.2199  0.0132
 1910TIP3    H1 5694   4.508   2.433   1.690  0.0334 -0.2576 -1.2940
 1910TIP3    H2 5695   4.653   2.410   1.728 -0.1198  0.7016 -0.0583
 1911TIP3   OH2 5696   3.206   1.218   0.446 -0.1519  0.0491 -0.6743
 1911TIP3    H1 5697   3.134   1.219   0.383 -0.6478  0.4894 -0.1053
 1911TIP3    H2 5698   3.176   1.272   0.519  0.5790 -0.1190 -0.2333
 1912TIP3   OH2 5699   4.495   1.686   0.680  0.1090 -0.1206  0.2246
 1912TIP3    H1 5700   4.418   1.679   0.736 -0.6394 -2.0181 -0.9337
 1912TIP3    H2 5701   4.498   1.603   0.633  1.4214  0.8890 -1.6163
 1913TIP3   OH2 5702   2.577   1.763   4.572 -0.1802 -0.4947 -0.4641
 1913TIP3    H1 5703   2.597   1.798   4.659  0.2072 -2.3406  0.2373
 1913TIP3    H2 5704   2.482   1.760   4.569 -0.4838  3.6129 -1.8702
 1914TIP3   OH2 5705   0.885   4.677   5.018 -0.5428 -0.3970  0.0750
 1914TIP3    H1 5706   0.890   4.750   5.080 -0.3895 -0.4843  0.1667
 1914TIP3    H2 5707   0.899   4.599   5.072 -0.1607 -0.4578 -0.1037
 1915TIP3   OH2 5708   1.736   0.333   0.861 -0.7144  0.3145 -0.2129
 1915TIP3    H1 5709   1.702   0.249   0.829  1.3251 -0.3916 -0.6977
 1915TIP3    H2 5710   1.659   0.389   0.869 -1.8876 -0.9521 -1.8962
 1916TIP3   OH2 5711   1.381   1.941   4.636  0.3285 -0.3146 -0.7263
 1916TIP3    H1 5712   1.456   1.985   4.595  0.3366  1.5346  1.1048
 1916TIP3    H2 5713   1.418   1.863   4.677  0.9133 -0.3633 -1.3249
 1917TIP3   OH2 5714   6.384   4.995   2.868  0.1811  0.2526  0.3850
 1917TIP3    H1 5715   6.448   4.929   2.842 -0.7197 -0.7436  0.6275
 1917TIP3    H2 5716   6.305   4.974   2.818 -0.7045 -0.0215  1.8197
 1918TIP3   OH2 5717   0.813   2.053   3.139  0.0560 -0.3971  0.2188
 1918TIP3    H1 5718   0.846   2.128   3.189  1.2337 -1.5033  1.1721
 1918TIP3    H2 5719   0.732   2.028   3.184 -1.9089  1.9220 -1.7379
 1919TIP3   OH2 5720   4.948   5.971   1.396  0.4427  0.4309 -0.6424
 1919TIP3    H1 5721   4.888   5.971   1.321 -1.3604 -1.3979  0.6598
 1919TIP3    H2 5722   4.902   6.022   1.464  0.4674 -0.7185  0.2732
 1920TIP3   OH2 5723   6.382   2.744   0.414  0.2308  0.1688 -0.3213
 1920TIP3    H1 5724   6.414   2.661   0.379 -0.7020 -0.2576 -0.2122
 1920TIP3    H2 5725   6.461   2.793   0.438  0.9097  0.4584 -2.8976
 1921TIP3   OH2 5726   4.729   0.783   5.297 -0.0122 -0.2812 -0.3079
 1921TIP3    H1 5727   4.783   0.712   5.263  0.7244 -0.0101  0.2729
 1921TIP3    H2 5728   4.767   0.804   5.382 -0.1818  0.8417 -0.4957
 1922TIP3   OH2 5729   7.032   1.700   5.155 -0.0342  0.3672 -0.4741
 1922TIP3    H1 5730   7.126   1.707   5.169 -0.1741 -0.3319  0.9685
 1922TIP3    H2 5731   7.006   1.621   5.203 -1.1846 -0.0959 -1.7794
 1923TIP3   OH2 5732   6.030   5.101   0.349  0.3917  0.3714 -0.3084
 1923TIP3    H1 5733   6.091   5.077   0.420 -0.5547 -2.0798 -0.2343
 1923TIP3    H2 5734   5.967   5.029   0.347 -1.9779  2.3552 -1.0175
 1924TIP3   OH2 5735   4.831   5.565   3.145 -0.0972  0.6830  0.0659
 1924TIP3    H1 5736   4.898   5.577   3.212 -0.7302 -1.5511  1.2499
 1924TIP3    H2 5737   4.764   5.512   3.189  0.0446 -2.0601 -2.6609
 1925TIP3   OH2 5738   0.433   1.838   5.147  0.1245  0.0538 -0.7879
 1925TIP3    H1 5739   0.508   1.883   5.186  0.0695  0.6393 -1.3443
 1925TIP3    H2 5740   0.369   1.830   5.217  1.1398 -1.4840  0.0284
 1926TIP3   OH2 5741   3.863   0.666   2.187  0.7157 -0.2048 -0.3199
 1926TIP3    H1 5742   3.813   0.733   2.140  1.0871  1.1187  1.0616
 1926TIP3    H2 5743   3.818   0.656   2.271  1.5989 -0.4795  0.1375
 1927TIP3   OH2 5744   2.098   4.049   4.578 -0.3168 -0.1397 -0.0008
 1927TIP3    H1 5745   2.086   4.121   4.516  1.6293  0.7332  0.5591
 1927TIP3    H2 5746   2.026   4.060   4.641 -2.5319 -1.2367 -2.1561
 1928TIP3   OH2 5747   2.168   1.737   2.759  0.1007  0.5079 -0.0611
 1928TIP3    H1 5748   2.102   1.675   2.726 -1.2913  2.1135 -0.4671
 1928TIP3    H2 5749   2.252   1.694   2.742 -0.6937 -0.2125 -2.6515
 1929TIP3   OH2 5750   0.356   6.344   3.958 -0.1897 -0.4544  0.2949
 1929TIP3    H1 5751   0.435   6.323   3.908  0.4310 -0.3978  1.2230
 1929TIP3    H2 5752   0.327   6.260   3.993 -1.1180 -0.6307 -0.8311
 1930TIP3   OH2 5753   7.137   3.610   0.306 -0.3429 -0.0305 -0.4144
 1930TIP3    H1 5754   7.066   3.548   0.289 -1.3838  1.2420 -0.9251
 1930TIP3    H2 5755   7.118   3.685   0.249 -0.5066  1.7776  1.8471
 1931TIP3   OH2 5756   4.413   6.369   0.503  0.0756  0.7032 -0.1056
 1931TIP3    H1 5757   4.374   6.402   0.422 -0.9968 -1.2854 -0.4508
 1931TIP3    H2 5758   4.479   6.306   0.475 -1.3318 -1.1281  0.5175
 1932TIP3   OH2 5759   5.407   5.406   5.226 -0.3426  0.0718  0.4025
 1932TIP3    H1 5760   5.357   5.430   5.148  0.6372  3.6417  0.7307
 1932TIP3    H2 5761   5.345   5.417   5.298 -0.6547 -1.2066  0.3557
 1933TIP3   OH2 5762   4.289   0.432   1.160  0.4404 -0.0239  0.0565
 1933TIP3    H1 5763   4.206   0.469   1.130 -0.3310 -1.7023  0.0278
 1933TIP3    H2 5764   4.343   0.429   1.080  0.4280  0.7555  0.0078
 1934TIP3   OH2 5765   4.044   1.362   3.026 -0.0606 -0.3644 -0.9214
 1934TIP3    H1 5766   4.025   1.289   3.085  1.6422  0.7768  1.1854
 1934TIP3    H2 5767   3.991   1.344   2.948 -0.4287 -3.3213 -0.1226
 1935TIP3   OH2 5768   1.580   1.289   4.303  0.0347  0.3151  0.0582
 1935TIP3    H1 5769   1.665   1.263   4.268  0.1452 -1.0144  1.2584
 1935TIP3    H2 5770   1.593   1.380   4.330 -0.2597  1.7139 -3.8748
 1936TIP3   OH2 5771   1.768   1.805   2.675 -0.6432  0.3812  0.2508
 1936TIP3    H1 5772   1.757   1.899   2.687 -0.1489  0.3976  0.5914
 1936TIP3    H2 5773   1.786   1.795   2.581  3.5710  1.0929  0.7945
 1937TIP3   OH2 5774   0.494   0.724   3.743  0.4898 -0.1580  1.0145
 1937TIP3    H1 5775   0.422   0.767   3.699  1.2999  0.3164  0.1173
 1937TIP3    H2 5776   0.452   0.657   3.798 -0.5454 -1.0563 -0.7646
 1938TIP3   OH2 5777   0.919   5.890   4.720  0.4462 -0.0994 -0.7080
 1938TIP3    H1 5778   0.991   5.859   4.665  1.8530 -0.0178  0.9932
 1938TIP3    H2 5779   0.908   5.982   4.696 -0.8417 -0.7356 -2.7497
 1939TIP3   OH2 5780   1.748   1.335   2.558  0.3439  0.2132 -0.2794
 1939TIP3    H1 5781   1.684   1.311   2.626 -2.3473  0.9042 -2.3556
 1939TIP3    H2 5782   1.797   1.255   2.541 -1.5899 -1.0633 -0.1683
 1940TIP3   OH2 5783   4.417   2.040   2.635 -0.0165  0.4918 -0.2360
 1940TIP3    H1 5784   4.349   2.082   2.688  1.5498  0.1042  2.2468
 1940TIP3    H2 5785   4.395   1.947   2.637 -1.1117  0.6456 -2.1617
 1941TIP3   OH2 5786   0.471   4.375   0.701  0.5222  0.5226  0.8932
 1941TIP3    H1 5787   0.440   4.466   0.702 -0.2500  0.2609  1.7503
 1941TIP3    H2 5788   0.394   4.323   0.721  0.4808 -0.5179 -1.6531
 1942TIP3   OH2 5789   0.342   3.019   3.823 -0.3530 -0.5930 -0.0429
 1942TIP3    H1 5790   0.307   3.108   3.837  0.9596  0.2823 -1.9043
 1942TIP3    H2 5791   0.333   2.977   3.908 -0.0418  1.6829  1.2069
 1943TIP3   OH2 5792   1.344   2.423   2.836  0.5270  0.0904  0.1179
 1943TIP3    H1 5793   1.331   2.473   2.917  0.6217  0.3026  0.0048
 1943TIP3    H2 5794   1.395   2.347   2.864  2.4718  1.2519 -0.0711
 1944TIP3   OH2 5795   1.278   4.505   2.431 -0.7459  0.0869 -0.3407
 1944TIP3    H1 5796   1.216   4.578   2.436 -0.1467  0.7158 -1.5992
 1944TIP3    H2 5797   1.361   4.542   2.463 -0.9126 -0.6421  0.9876
 1945TIP3   OH2 5798   1.857   4.078   5.301  0.1356 -0.4728  0.2238
 1945TIP3    H1 5799   1.784   4.110   5.355 -0.7773 -0.7777 -0.7848
 1945TIP3    H2 5800   1.895   4.157   5.263 -0.3689 -0.3855 -0.1043
 1946TIP3   OH2 5801   2.284   6.536   5.527  0.0042 -0.1250  0.1693
 1946TIP3    H1 5802   2.317   6.507   5.612 -2.7743  0.6401  1.6508
 1946TIP3    H2 5803   2.338   6.612   5.505  0.9198 -0.4709  1.1458
 1947TIP3   OH2 5804   2.727   0.161   1.551  0.0755  0.1401 -0.3280
 1947TIP3    H1 5805   2.675   0.115   1.617  0.2688 -0.7425 -0.7866
 1947TIP3    H2 5806   2.773   0.229   1.600  0.7471 -0.9334  0.5674
 1948TIP3   OH2 5807   4.560   3.750   4.181 -0.3380  0.0709 -0.3755
 1948TIP3    H1 5808   4.495   3.814   4.152 -0.5418  0.1924  0.3258
 1948TIP3    H2 5809   4.511   3.668   4.187 -0.7398  0.4046  1.3136
 1949TIP3   OH2 5810   4.079   1.100   1.167 -0.2688  0.3523 -0.0819
 1949TIP3    H1 5811   4.057   1.174   1.224 -0.7430 -0.1852  0.4402
 1949TIP3    H2 5812   4.136   1.045   1.221 -0.3804  0.0496 -0.2723
 1950TIP3   OH2 5813   5.042   0.849   2.226 -0.3649 -0.1001 -0.4830
 1950TIP3    H1 5814   4.956   0.884   2.249 -0.1484  1.6447 -2.0821
 1950TIP3    H2 5815   5.090   0.847   2.309 -1.5254  0.1121  0.2225
 1951TIP3   OH2 5816   6.750   1.106   0.549  0.9338 -0.0958 -1.0511
 1951TIP3    H1 5817   6.808   1.107   0.473  0.3977  0.4072 -1.4656
 1951TIP3    H2 5818   6.800   1.061   0.617  1.0498 -1.4345 -1.9949
 1952TIP3   OH2 5819   2.888   2.340   4.806  0.3580 -0.1866 -0.3314
 1952TIP3    H1 5820   2.869   2.384   4.723  1.7758  0.8157 -0.1578
 1952TIP3    H2 5821   2.868   2.248   4.789  1.8687 -0.2237 -2.2115
 1953TIP3   OH2 5822   2.298   4.751   5.083  0.2658  0.0315 -0.2457
 1953TIP3    H1 5823   2.288   4.685   5.152  0.0338 -0.2843 -0.5798
 1953TIP3    H2 5824   2.393   4.754   5.067  0.3715  0.4728  0.4383
 1954TIP3   OH2 5825   2.122   1.415   0.334 -0.3768  0.0766 -0.1145
 1954TIP3    H1 5826   2.103   1.504   0.304 -1.9818  0.2792  1.3598
 1954TIP3    H2 5827   2.056   1.360   0.292 -0.3689 -0.1789  0.1996
 1955TIP3   OH2 5828   4.806   4.358   1.035  0.4758  0.7129  0.3843
 1955TIP3    H1 5829   4.768   4.400   0.959  0.4807 -1.4770 -0.9222
 1955TIP3    H2 5830   4.756   4.277   1.046  1.1119  0.4958  2.1151
 1956TIP3   OH2 5831   3.305   2.551   1.988 -0.2211  0.1285 -0.0689
 1956TIP3    H1 5832   3.361   2.574   1.914  3.2885 -0.1074  2.2460
 1956TIP3    H2 5833   3.297   2.456   1.983 -0.8206  0.1987 -0.6222
 1957TIP3   OH2 5834   6.021   2.695   5.280 -0.3912 -0.0813 -0.0818
 1957TIP3    H1 5835   6.068   2.665   5.358  0.4477  1.2178 -0.0406
 1957TIP3    H2 5836   5.999   2.786   5.300  1.5187  0.9105 -2.0536
 1958TIP3   OH2 5837   2.456   0.974   2.482 -0.2748  0.1363 -0.2378
 1958TIP3    H1 5838   2.360   0.969   2.483 -0.3003  0.5832 -0.4991
 1958TIP3    H2 5839   2.478   0.993   2.391  0.0040  1.1531  0.0331
 1959TIP3   OH2 5840   3.585   1.981   4.926  0.3650  0.1284  0.5715
 1959TIP3    H1 5841   3.667   2.027   4.909  0.2749 -0.2626 -1.1359
 1959TIP3    H2 5842   3.542   1.978   4.840 -1.0384 -0.4218  1.2734
 1960TIP3   OH2 5843   1.473   4.852   3.653 -0.3682 -0.5895  0.2507
 1960TIP3    H1 5844   1.427   4.824   3.732  0.9412 -2.1819  0.5158
 1960TIP3    H2 5845   1.493   4.944   3.667  0.2707 -0.9662  2.0160
 1961TIP3   OH2 5846   0.674   5.144   4.977  0.4017 -0.1142 -0.4778
 1961TIP3    H1 5847   0.756   5.095   4.970  1.1723  1.0250  0.2704
 1961TIP3    H2 5848   0.606   5.081   4.950  1.5008 -1.0844 -1.0781
 1962TIP3   OH2 5849   2.202   6.535   2.755 -0.5601 -0.1783 -0.0838
 1962TIP3    H1 5850   2.133   6.594   2.725  0.1921  1.1113  0.6282
 1962TIP3    H2 5851   2.165   6.493   2.833 -0.1936  1.3217  0.9434
 1963TIP3   OH2 5852   2.950   5.799   0.453 -0.7251  0.2613  0.0970
 1963TIP3    H1 5853   2.995   5.764   0.530 -2.0332 -1.4665  0.1328
 1963TIP3    H2 5854   2.978   5.891   0.450  2.8604 -0.6581  0.0278
 1964TIP3   OH2 5855   2.826   5.286   0.770 -0.3218 -0.0124  0.4719
 1964TIP3    H1 5856   2.794   5.200   0.744 -1.6334  0.4748  0.3944
 1964TIP3    H2 5857   2.864   5.322   0.690  0.4106 -0.5778  0.5513
 1965TIP3   OH2 5858   5.822   4.781   1.230 -0.3388  0.4013 -0.1434
 1965TIP3    H1 5859   5.843   4.711   1.168  1.0075  2.3474 -2.0061
 1965TIP3    H2 5860   5.873   4.759   1.308 -0.1276 -0.8018 -0.5913
 1966TIP3   OH2 5861   3.680   3.458   4.317 -0.1501  0.5301  0.6956
 1966TIP3    H1 5862   3.628   3.436   4.240 -1.3002  0.4252  1.4717
 1966TIP3    H2 5863   3.639   3.537   4.352  2.6606  2.8987 -0.8789
 1967TIP3   OH2 5864   0.874   1.804   5.620  0.1335  0.0489 -0.0091
 1967TIP3    H1 5865   0.926   1.771   5.547  0.2989  1.3629 -0.5127
 1967TIP3    H2 5866   0.813   1.733   5.641  0.8065 -0.7513 -0.7023
 1968TIP3   OH2 5867   3.309   4.615   1.086  0.4878 -0.0405  0.6109
 1968TIP3    H1 5868   3.349   4.626   1.000  2.4622  0.3131  1.4940
 1968TIP3    H2 5869   3.259   4.534   1.079 -0.9505  0.9387 -1.3664
 1969TIP3   OH2 5870   5.891   1.643   5.236 -0.0748 -0.3263 -0.4038
 1969TIP3    H1 5871   5.834   1.598   5.173  0.0475  0.1039 -0.8245
 1969TIP3    H2 5872   5.903   1.731   5.200  2.7170 -1.0750 -1.5034
 1970TIP3   OH2 5873   4.252   0.906   1.303  0.3705  0.0309  0.6130
 1970TIP3    H1 5874   4.194   0.851   1.356  1.1383 -0.7012  0.7246
 1970TIP3    H2 5875   4.332   0.854   1.295  1.5825  1.6237  1.7195
 1971TIP3   OH2 5876   3.951   5.689   3.375 -0.4057 -0.1417 -0.0128
 1971TIP3    H1 5877   3.899   5.714   3.298 -0.1585 -1.1408 -0.5183
 1971TIP3    H2 5878   4.038   5.724   3.358 -0.4701  0.0450  0.0368
 1972TIP3   OH2 5879   2.916   3.834   4.537 -0.2187 -0.0757  0.2728
 1972TIP3    H1 5880   2.828   3.867   4.556 -1.4091 -0.9936 -3.0287
 1972TIP3    H2 5881   2.916   3.745   4.571 -0.1361  0.3012  1.2875
 1973TIP3   OH2 5882   1.784   4.077   2.281 -0.3437 -0.5847  0.3482
 1973TIP3    H1 5883   1.731   4.157   2.282 -1.8253 -1.5131  0.1170
 1973TIP3    H2 5884   1.826   4.078   2.195 -0.3208 -0.0329  0.3620
 1974TIP3   OH2 5885   5.244   0.414   2.454  0.0419 -0.1632  0.2411
 1974TIP3    H1 5886   5.276   0.504   2.459  2.6473 -1.0497  2.0048
 1974TIP3    H2 5887   5.166   0.414   2.510 -0.2154  1.0437 -0.0779
 1975TIP3   OH2 5888   4.915   4.969   5.688  0.1196  0.1559  0.2834
 1975TIP3    H1 5889   4.826   4.939   5.668  0.9865 -1.3311 -1.8241
 1975TIP3    H2 5890   4.934   4.932   5.774 -0.6159 -1.2187 -0.1124
 1976TIP3   OH2 5891   5.146   0.822   4.094 -0.4934  0.2582 -0.0714
 1976TIP3    H1 5892   5.201   0.878   4.040 -3.0181  2.3111 -0.7277
 1976TIP3    H2 5893   5.186   0.826   4.181  1.3571  0.1631 -0.8742
 1977TIP3   OH2 5894   1.795   3.548   0.915  0.2179 -0.1185 -0.3849
 1977TIP3    H1 5895   1.746   3.584   0.841  0.8388  0.7958 -0.3710
 1977TIP3    H2 5896   1.762   3.459   0.924 -1.4094  0.4430 -0.3967
 1978TIP3   OH2 5897   4.467   0.910   3.835  0.7166  0.3265  0.6220
 1978TIP3    H1 5898   4.394   0.967   3.857 -0.2301 -0.6340  0.0490
 1978TIP3    H2 5899   4.534   0.968   3.800 -1.5314  0.8148 -3.3669
 1979TIP3   OH2 5900   3.907   5.901   1.894  0.5016  0.3232 -0.3076
 1979TIP3    H1 5901   3.815   5.927   1.888  0.1677 -0.2791  1.5628
 1979TIP3    H2 5902   3.909   5.837   1.965  2.2336 -0.3703 -0.9332
 1980TIP3   OH2 5903   0.181   5.806   2.105 -0.3104 -0.1620  0.1055
 1980TIP3    H1 5904   0.128   5.728   2.121 -0.2829 -0.7168 -2.2267
 1980TIP3    H2 5905   0.129   5.878   2.142 -1.7022 -0.9616 -0.2300
 1981TIP3   OH2 5906   6.173   0.847   3.012 -0.2909  0.0411  0.4271
 1981TIP3    H1 5907   6.102   0.866   2.951  0.7019 -0.5904 -0.9777
 1981TIP3    H2 5908   6.176   0.751   3.017  0.3304  0.0611  0.6036
 1982TIP3   OH2 5909   3.743   6.585   1.937 -0.5732 -0.1891  0.0204
 1982TIP3    H1 5910   3.712   6.616   2.023  1.0213 -0.7955  0.8456
 1982TIP3    H2 5911   3.750   6.490   1.947 -1.6677 -0.4225 -1.2413
 1983TIP3   OH2 5912   2.526   5.384   2.369 -0.6000 -0.6201  0.1013
 1983TIP3    H1 5913   2.440   5.401   2.330  0.1465 -0.0446 -1.4185
 1983TIP3    H2 5914   2.543   5.460   2.423  0.7133  1.4975 -2.9870
 1984TIP3   OH2 5915   4.331   5.038   3.610 -0.2954  0.2141  0.1162
 1984TIP3    H1 5916   4.406   5.011   3.663  0.8051  1.2478 -0.8610
 1984TIP3    H2 5917   4.320   4.968   3.547  0.6371  0.6128 -0.5054
 1985TIP3   OH2 5918   5.113   3.970   5.292  0.2460 -0.4577  0.1908
 1985TIP3    H1 5919   5.056   3.942   5.220  0.6516 -1.1192  0.1134
 1985TIP3    H2 5920   5.073   3.933   5.370 -0.0886  0.0988  0.2871
 1986TIP3   OH2 5921   5.732   6.512   3.793  0.0150 -0.4515  0.2204
 1986TIP3    H1 5922   5.729   6.575   3.865 -1.1703 -0.2371 -0.0107
 1986TIP3    H2 5923   5.658   6.453   3.808  0.0674 -0.7258 -0.5402
 1987TIP3   OH2 5924   5.453   4.291   2.133 -0.1153  0.2348 -0.2437
 1987TIP3    H1 5925   5.382   4.231   2.157  0.5138  0.0479  1.2585
 1987TIP3    H2 5926   5.412   4.356   2.077 -1.5080  0.2055  0.6953
 1988TIP3   OH2 5927   1.989   6.547   4.961  0.4188  0.0790 -0.0997
 1988TIP3    H1 5928   1.996   6.554   4.866 -0.1589 -0.1651 -0.1658
 1988TIP3    H2 5929   1.983   6.453   4.977  0.7987  0.1066  0.1990
 1989TIP3   OH2 5930   2.404   3.629   5.254  0.1307  0.3226  0.5069
 1989TIP3    H1 5931   2.470   3.696   5.269  0.1260  0.6986 -0.9455
 1989TIP3    H2 5932   2.454   3.551   5.230  0.0891  0.4713 -0.1003
 1990TIP3   OH2 5933   5.720   6.680   3.465  0.0060  0.0981  0.0159
 1990TIP3    H1 5934   5.804   6.634   3.462 -0.0655 -0.0534  0.2882
 1990TIP3    H2 5935   5.743   6.770   3.485  0.0651 -0.0715  0.7510
 1991TIP3   OH2 5936   4.553   1.893   4.517  0.0805  0.1688 -0.1703
 1991TIP3    H1 5937   4.515   1.979   4.498 -1.2328  0.3720  2.8060
 1991TIP3    H2 5938   4.630   1.912   4.570 -1.2641 -0.4504  2.1061
 1992TIP3   OH2 5939   4.936   1.597   3.619 -1.1588 -0.3754 -0.3530
 1992TIP3    H1 5940   4.926   1.565   3.529  0.6568 -0.0029 -0.7296
 1992TIP3    H2 5941   4.955   1.690   3.609 -0.2869 -0.4570  0.3575
 1993TIP3   OH2 5942   2.176   1.999   3.908 -0.2481 -0.0920  0.5041
 1993TIP3    H1 5943   2.241   1.938   3.943  1.6033  2.2390  1.3997
 1993TIP3    H2 5944   2.112   2.009   3.978 -0.7213 -1.1535  0.2463
 1994TIP3   OH2 5945   7.105   1.216   4.230 -0.3568  0.3962  0.7179
 1994TIP3    H1 5946   7.168   1.288   4.225 -0.4392  0.5795  2.0032
 1994TIP3    H2 5947   7.158   1.137   4.217 -0.2322  0.6562 -0.4687
 1995TIP3   OH2 5948   4.072   3.514   0.480 -0.1514  0.1009  0.2999
 1995TIP3    H1 5949   4.096   3.552   0.395  1.1271  0.2755  0.7044
 1995TIP3    H2 5950   3.977   3.507   0.477 -0.1938  0.7453 -0.8779
 1996TIP3   OH2 5951   1.144   1.575   2.156  0.2677 -0.3429  0.3552
 1996TIP3    H1 5952   1.051   1.567   2.136  0.2401  1.8632 -0.6769
 1996TIP3    H2 5953   1.146   1.615   2.243  0.2172  0.5755 -0.0575
 1997TIP3   OH2 5954   3.067   6.574   3.760  0.3368 -0.0628  0.4990
 1997TIP3    H1 5955   3.155   6.605   3.785  1.5029 -2.5233 -0.2396
 1997TIP3    H2 5956   3.045   6.625   3.682  1.3248  0.2270  0.3944
 1998TIP3   OH2 5957   6.483   1.752   4.920  0.5049 -0.2412  0.4495
 1998TIP3    H1 5958   6.434   1.784   4.844  0.9538 -0.9412 -0.1436
 1998TIP3    H2 5959   6.514   1.831   4.964  1.2861  0.1563 -0.7866
 1999TIP3   OH2 5960   7.097   0.202   2.397 -0.1385 -0.2920 -0.1244
 1999TIP3    H1 5961   7.157   0.128   2.383 -1.4195 -1.1960 -1.0355
 1999TIP3    H2 5962   7.054   0.183   2.480 -0.0095 -0.2416 -0.0459
 2000TIP3   OH2 5963   5.904   6.281   5.775 -0.5575 -0.1228  0.1532
 2000TIP3    H1 5964   5.815   6.250   5.756 -0.4138  0.4620 -1.6948
 2000TIP3    H2 5965   5.961   6.213   5.737 -0.2373  0.3618 -0.2538
 2001TIP3   OH2 5966   7.140   3.043   2.355 -1.2299  0.5995  0.1268
 2001TIP3    H1 5967   7.126   3.001   2.270  1.8745 -1.1124  0.3061
 2001TIP3    H2 5968   7.181   2.975   2.409 -0.2536  2.5265  1.9726
 2002TIP3   OH2 5969   3.037   0.573   3.713  0.9018  0.0176 -0.2343
 2002TIP3    H1 5970   3.084   0.649   3.747 -0.4829  1.5960 -1.7245
 2002TIP3    H2 5971   2.965   0.560   3.775  0.0357  1.1289 -0.9817
 2003TIP3   OH2 5972   6.130   5.939   2.256 -0.5708  0.2652  0.1116
 2003TIP3    H1 5973   6.161   5.972   2.340 -0.6690  1.1087 -0.1693
 2003TIP3    H2 5974   6.111   5.847   2.271  0.0808  0.2399  0.8304
 2004TIP3   OH2 5975   2.792   1.140   5.889  0.5777  0.3597  0.0151
 2004TIP3    H1 5976   2.846   1.138   5.809  0.7443  2.3741  0.0216
 2004TIP3    H2 5977   2.848   1.100   5.956  0.2586 -1.8044 -0.9269
 2005TIP3   OH2 5978   7.021   2.343   1.393  0.6742 -0.5183 -0.6551
 2005TIP3    H1 5979   7.070   2.313   1.470  0.3597 -1.3726 -0.7680
 2005TIP3    H2 5980   6.959   2.408   1.427  1.6508  0.3317 -0.4612
 2006TIP3   OH2 5981   4.263   3.108   5.688 -0.5979 -0.3931 -0.0284
 2006TIP3    H1 5982   4.298   3.170   5.624 -0.6084 -0.4311 -0.0716
 2006TIP3    H2 5983   4.198   3.158   5.737  0.1064 -0.0864  0.6107
 2007TIP3   OH2 5984   5.972   4.443   3.084 -0.3762  0.0919  0.5964
 2007TIP3    H1 5985   5.907   4.384   3.123  0.0807  0.2912  1.7009
 2007TIP3    H2 5986   5.921   4.518   3.053 -0.7543 -0.0623  0.8388
 2008TIP3   OH2 5987   1.908   3.947   2.644  0.0478 -0.1261  0.0744
 2008TIP3    H1 5988   1.820   3.981   2.632  0.3098  0.4214 -0.3453
 2008TIP3    H2 5989   1.913   3.870   2.587 -0.6932 -1.1695  1.3642
 2009TIP3   OH2 5990   5.362   2.953   0.026 -0.2811 -0.0201  0.7765
 2009TIP3    H1 5991   5.420   2.977  -0.046 -1.6915 -0.1346 -0.4482
 2009TIP3    H2 5992   5.372   3.024   0.090  1.4664 -0.2395  0.7762
 2010TIP3   OH2 5993   4.187   0.796   3.048  0.6519  0.2348 -0.2644
 2010TIP3    H1 5994   4.224   0.875   3.088  0.7698  0.6924 -1.2534
 2010TIP3    H2 5995   4.246   0.776   2.975  0.1632 -0.2860 -0.5207
 2011TIP3   OH2 5996   0.270   6.553   5.862 -0.1131  0.0586  0.2349
 2011TIP3    H1 5997   0.175   6.552   5.852 -0.5231  0.4320  3.1504
 2011TIP3    H2 5998   0.290   6.470   5.906  1.1775 -0.7886 -1.8108
 2012TIP3   OH2 5999   1.548   6.015   3.399  0.4310 -0.4011  0.0273
 2012TIP3    H1 6000   1.498   6.046   3.323 -0.1617 -1.2276  0.0701
 2012TIP3    H2 6001   1.496   5.943   3.435  1.9033 -1.6709 -0.2637
 2013TIP3   OH2 6002   2.159   3.912   3.869 -0.0049  0.2423 -0.0979
 2013TIP3    H1 6003   2.207   3.994   3.868 -0.0437  0.2773  0.6846
 2013TIP3    H2 6004   2.090   3.924   3.935  0.6144 -0.7644  0.7681
 2014TIP3   OH2 6005   6.917   5.741   1.099  0.0401 -0.4292 -0.2744
 2014TIP3    H1 6006   6.827   5.725   1.125  0.0702 -0.6834 -0.3249
 2014TIP3    H2 6007   6.918   5.725   1.005  0.1809 -0.6255 -0.2407
 2015TIP3   OH2 6008   4.283   5.127   5.233 -0.5989 -0.1797  0.1933
 2015TIP3    H1 6009   4.367   5.128   5.186 -2.2529 -3.3271 -3.4450
 2015TIP3    H2 6010   4.240   5.208   5.206 -0.0414 -0.1843 -0.7736
 2016TIP3   OH2 6011   1.747   5.390   4.358 -0.5031 -0.1333  0.1427
 2016TIP3    H1 6012   1.714   5.302   4.374 -0.3614 -0.5107 -1.4809
 2016TIP3    H2 6013   1.767   5.392   4.264  2.0057  0.7583  0.6047
 2017TIP3   OH2 6014   0.137   6.673   5.581  0.7541 -0.2404 -0.1806
 2017TIP3    H1 6015   0.111   6.760   5.551 -0.1380  0.4754  2.4659
 2017TIP3    H2 6016   0.056   6.634   5.613  1.5879 -1.0228  1.0393
 2018TIP3   OH2 6017   0.161   1.830   4.360 -0.4786 -0.2038 -0.5900
 2018TIP3    H1 6018   0.199   1.915   4.381  1.1227 -1.0147 -0.0620
 2018TIP3    H2 6019   0.134   1.838   4.269 -1.6274  1.2941 -0.1594
 2019TIP3   OH2 6020   1.173   3.852   4.146 -0.1148 -0.1078  0.1162
 2019TIP3    H1 6021   1.123   3.782   4.188 -0.9168 -0.2340 -1.0121
 2019TIP3    H2 6022   1.245   3.869   4.207 -0.3036 -1.4201  0.7551
 2020TIP3   OH2 6023   2.326   1.801   4.030  0.2569  0.0062  0.1320
 2020TIP3    H1 6024   2.399   1.803   4.093 -0.2608 -0.6105  0.7607
 2020TIP3    H2 6025   2.335   1.717   3.986  1.2868  0.8978 -1.4598
 2021TIP3   OH2 6026   2.014   5.161   2.240  0.0734 -0.3129  0.5781
 2021TIP3    H1 6027   1.982   5.229   2.180 -0.9387 -1.7478 -0.6046
 2021TIP3    H2 6028   2.016   5.203   2.325  1.4877  1.7988 -0.4200
 2022TIP3   OH2 6029   4.873   3.471   0.750  0.0298 -0.4289  0.1037
 2022TIP3    H1 6030   4.897   3.517   0.831  0.3701  1.8119 -1.1785
 2022TIP3    H2 6031   4.778   3.485   0.743 -0.3551 -2.2429  1.0012
 2023TIP3   OH2 6032   1.956   0.353   4.971  0.2605 -0.1646 -0.8071
 2023TIP3    H1 6033   1.959   0.275   4.915 -0.1358 -0.0275 -1.0268
 2023TIP3    H2 6034   1.991   0.324   5.055 -0.8524 -0.8637 -0.5618
 2024TIP3   OH2 6035   5.963   6.108   0.215 -0.1258  0.0630  0.0958
 2024TIP3    H1 6036   5.870   6.120   0.195 -0.0048 -1.3952 -1.6898
 2024TIP3    H2 6037   6.008   6.171   0.158  0.0064  0.6916  0.8795
 2025TIP3   OH2 6038   6.092   0.110   5.572 -0.2171  0.2519  0.0966
 2025TIP3    H1 6039   6.065   0.199   5.550 -1.7743  0.0465  1.0237
 2025TIP3    H2 6040   6.047   0.055   5.508  1.9808  0.1501 -1.5089
 2026TIP3   OH2 6041   5.312   6.363   0.556 -0.4715 -0.0816 -0.3783
 2026TIP3    H1 6042   5.401   6.397   0.567 -0.5264 -0.3812  1.1841
 2026TIP3    H2 6043   5.291   6.381   0.464  1.2192 -0.0690 -0.8001
 2027TIP3   OH2 6044   2.014   2.353   4.775 -0.4280 -0.1820  0.4376
 2027TIP3    H1 6045   2.105   2.334   4.751 -0.8978 -0.1356 -1.5787
 2027TIP3    H2 6046   2.015   2.358   4.871  1.0898 -3.2751  0.7035
 2028TIP3   OH2 6047   4.594   2.259   3.237 -0.1483  0.5783 -0.4377
 2028TIP3    H1 6048   4.520   2.217   3.282 -0.3245  0.8529 -0.4680
 2028TIP3    H2 6049   4.624   2.325   3.299  1.0828 -0.5798  0.2382
 2029TIP3   OH2 6050   5.749   1.946   5.636  0.4010 -0.3099 -0.1787
 2029TIP3    H1 6051   5.753   2.017   5.700  0.4990 -0.6319  0.1771
 2029TIP3    H2 6052   5.705   1.875   5.683 -2.7568  0.5670 -1.5089
 2030TIP3   OH2 6053   2.776   3.981   5.405 -0.2919 -0.6008 -0.1210
 2030TIP3    H1 6054   2.799   4.032   5.483 -2.9072  0.3273  0.1440
 2030TIP3    H2 6055   2.828   3.902   5.412  0.6972  0.1544  1.7560
 2031TIP3   OH2 6056   4.023   4.022   2.288  0.1440 -0.2659 -0.0509
 2031TIP3    H1 6057   4.092   4.088   2.278  0.9338 -0.8418  1.2735
 2031TIP3    H2 6058   4.068   3.938   2.276 -0.4963 -0.6214  0.0048
 2032TIP3   OH2 6059   5.657   0.498   4.790  0.5691 -0.5822  0.3106
 2032TIP3    H1 6060   5.711   0.454   4.725  1.3520  0.7546 -0.0042
 2032TIP3    H2 6061   5.607   0.563   4.740 -1.8819 -2.1758  0.4950
 2033TIP3   OH2 6062   6.664   6.418   2.023 -0.0435  0.0572  0.1868
 2033TIP3    H1 6063   6.635   6.413   1.932  0.4478 -2.7182  0.0705
 2033TIP3    H2 6064   6.718   6.339   2.035 -0.1809  0.2643  2.9034
 2034TIP3   OH2 6065   6.507   3.887   1.052 -0.3395 -0.8224 -0.3736
 2034TIP3    H1 6066   6.541   3.807   1.090 -0.2170  0.7311  3.2062
 2034TIP3    H2 6067   6.427   3.906   1.101  0.6753  2.1960  0.3684
 2035TIP3   OH2 6068   0.844   2.879   2.434 -0.5123  0.0736  0.0466
 2035TIP3    H1 6069   0.918   2.823   2.412 -1.0969 -0.3574 -0.8946
 2035TIP3    H2 6070   0.868   2.966   2.402 -0.1370  0.0909  0.3665
 2036TIP3   OH2 6071   4.243   2.424   4.917  0.1211 -0.3519 -0.6204
 2036TIP3    H1 6072   4.266   2.511   4.949 -2.6439 -0.2527  1.4060
 2036TIP3    H2 6073   4.293   2.364   4.973  0.4207 -0.1149 -0.6282
 2037TIP3   OH2 6074   4.843   0.855   5.760  0.4639  0.1806 -0.2036
 2037TIP3    H1 6075   4.927   0.816   5.786  0.8169  0.5639 -0.7524
 2037TIP3    H2 6076   4.778   0.809   5.813  0.8927 -0.9702 -0.6426
 2038TIP3   OH2 6077   0.234   0.248   0.231 -0.0252  0.3947  0.0153
 2038TIP3    H1 6078   0.190   0.164   0.232 -0.0823  0.4233  0.8285
 2038TIP3    H2 6079   0.171   0.308   0.190  0.2232 -0.0497 -1.0618
 2039TIP3   OH2 6080   4.194   6.362   1.458  0.0945 -0.0135 -0.0371
 2039TIP3    H1 6081   4.288   6.343   1.458  0.1046 -0.0530  1.3784
 2039TIP3    H2 6082   4.188   6.454   1.434  0.6351  0.4658  1.5359
 2040TIP3   OH2 6083   5.767   1.025   0.899  0.2964 -0.2831 -0.3123
 2040TIP3    H1 6084   5.715   1.045   0.821  0.3531 -0.5524 -0.4186
 2040TIP3    H2 6085   5.733   1.085   0.965  1.4529  1.2068 -1.0148
 2041TIP3   OH2 6086   4.467   3.981   1.897  0.5422 -1.0866 -0.1479
 2041TIP3    H1 6087   4.400   4.043   1.870  0.1720 -1.6004 -0.4294
 2041TIP3    H2 6088   4.506   3.950   1.815  0.5229 -1.4328 -0.0313
 2042TIP3   OH2 6089   5.528   0.723   1.817  0.2083  0.0455 -0.4315
 2042TIP3    H1 6090   5.509   0.736   1.724 -0.3091  2.1507 -0.0885
 2042TIP3    H2 6091   5.493   0.801   1.860 -0.9523 -1.5779  1.7606
 2043TIP3   OH2 6092   7.139   1.352   1.463 -0.1056  0.4589  0.1518
 2043TIP3    H1 6093   7.130   1.346   1.558 -0.3109 -0.4360  0.0886
 2043TIP3    H2 6094   7.121   1.263   1.432 -1.8817  1.1208 -0.8736
 2044TIP3   OH2 6095   2.016   0.853   3.935  0.2006  0.2559  0.6919
 2044TIP3    H1 6096   1.971   0.831   3.853  0.8543 -0.1463  0.4323
 2044TIP3    H2 6097   1.981   0.790   3.998  1.1449 -0.7528  0.2436
 2045TIP3   OH2 6098   6.668   0.754   5.407  0.5284  0.0081  0.3692
 2045TIP3    H1 6099   6.731   0.749   5.335  0.5780 -1.7503  0.4986
 2045TIP3    H2 6100   6.587   0.784   5.365  0.9349  0.3837 -0.1588
 2046TIP3   OH2 6101   6.399   2.722   1.184 -0.5036  1.1728  0.2366
 2046TIP3    H1 6102   6.336   2.765   1.241 -0.6416  1.1981  0.0657
 2046TIP3    H2 6103   6.353   2.712   1.101  0.6580  3.8949 -0.8640
 2047TIP3   OH2 6104   2.100   6.513   2.035 -0.0922 -0.5107  0.1790
 2047TIP3    H1 6105   2.183   6.545   2.000 -0.4023 -0.5731 -0.6354
 2047TIP3    H2 6106   2.119   6.424   2.064  0.4114 -0.1147  1.0909
 2048TIP3   OH2 6107   5.686   6.128   4.563 -0.3349  0.0033  0.2559
 2048TIP3    H1 6108   5.695   6.176   4.646 -1.4858 -1.2483  1.1410
 2048TIP3    H2 6109   5.604   6.080   4.572 -1.0200  0.6457 -2.0665
 2049TIP3   OH2 6110   3.481   2.079   5.181  0.7215 -0.1126 -0.1312
 2049TIP3    H1 6111   3.561   2.120   5.216  0.7327  1.4633 -1.8361
 2049TIP3    H2 6112   3.507   2.047   5.094 -0.3335 -0.1832 -0.4299
 2050TIP3   OH2 6113   1.649   3.656   3.560 -0.1514 -0.8644  0.8944
 2050TIP3    H1 6114   1.581   3.589   3.549  0.8071 -1.5617 -1.2288
 2050TIP3    H2 6115   1.691   3.662   3.474 -0.7416  3.1219  0.7104
 2051TIP3   OH2 6116   3.826   5.333   0.649  0.0622 -0.0847  0.3425
 2051TIP3    H1 6117   3.810   5.281   0.570 -1.2715 -0.9142  1.1038
 2051TIP3    H2 6118   3.912   5.305   0.679  0.4802  0.0729 -0.6891
 2052TIP3   OH2 6119   2.540   3.274   5.848 -0.2392 -0.5127  0.1697
 2052TIP3    H1 6120   2.532   3.297   5.755  3.3697  0.1211 -0.1550
 2052TIP3    H2 6121   2.519   3.355   5.894  1.6211  0.3564 -0.3894
 2053TIP3   OH2 6122   3.359   4.169   4.405 -0.4788  0.1226  0.7466
 2053TIP3    H1 6123   3.271   4.163   4.368  0.2479  0.2967 -1.1012
 2053TIP3    H2 6124   3.414   4.194   4.331  1.0800  0.3463  1.9455
 2054TIP3   OH2 6125   0.304   3.668   3.370 -0.3515  0.0490 -0.1140
 2054TIP3    H1 6126   0.357   3.590   3.354  0.1752  0.2919  0.4353
 2054TIP3    H2 6127   0.215   3.641   3.348 -0.3137 -0.9835  0.9334
 2055TIP3   OH2 6128   4.730   3.941   4.250 -0.2640 -0.0133  0.4558
 2055TIP3    H1 6129   4.666   3.889   4.202 -0.4056  1.2883 -0.8441
 2055TIP3    H2 6130   4.809   3.939   4.194  0.6020 -0.9624  1.6597
 2056TIP3   OH2 6131   2.731   3.961   5.729 -0.5364  0.2595 -0.5122
 2056TIP3    H1 6132   2.649   3.941   5.683 -0.9602 -0.2972  0.4350
 2056TIP3    H2 6133   2.703   4.004   5.810  0.1364  0.4112 -0.3524
 2057TIP3   OH2 6134   4.700   5.013   0.333  0.1998  0.3888 -0.2195
 2057TIP3    H1 6135   4.611   5.027   0.299 -0.0866  0.4860  0.5479
 2057TIP3    H2 6136   4.696   5.045   0.423  0.4412 -1.5221  0.5104
 2058TIP3   OH2 6137   5.732   6.767   1.195  0.2052  0.5419  0.7171
 2058TIP3    H1 6138   5.787   6.816   1.255 -0.7233  2.2810  0.2184
 2058TIP3    H2 6139   5.644   6.804   1.207  0.2887  2.3770 -3.0216
 2059TIP3   OH2 6140   4.494   0.385   0.469 -0.0747 -0.4277  0.0252
 2059TIP3    H1 6141   4.560   0.378   0.400 -0.9928 -0.6948 -0.8519
 2059TIP3    H2 6142   4.420   0.430   0.427 -0.6335 -0.5645  0.8469
 2060TIP3   OH2 6143   4.793   2.357   0.359 -0.1197  0.7279  0.3278
 2060TIP3    H1 6144   4.733   2.358   0.285  0.5449  0.7788 -0.2225
 2060TIP3    H2 6145   4.877   2.384   0.322  0.6559 -0.9970  0.7062
 2061TIP3   OH2 6146   5.618   4.433   1.024 -0.3089  0.2769  0.4780
 2061TIP3    H1 6147   5.696   4.488   1.009 -0.2578  0.1458  0.2592
 2061TIP3    H2 6148   5.577   4.471   1.101  1.3706 -1.1844  2.1999
 2062TIP3   OH2 6149   6.157   5.554   0.879 -0.1686 -0.2225  0.2367
 2062TIP3    H1 6150   6.198   5.602   0.807  1.3879 -2.0386 -0.1818
 2062TIP3    H2 6151   6.159   5.463   0.851 -2.2121 -0.6663  1.3709
 2063TIP3   OH2 6152   3.081   1.664   3.345  0.1115  0.0764  0.1394
 2063TIP3    H1 6153   3.015   1.614   3.297 -0.2924  0.2319  0.5309
 2063TIP3    H2 6154   3.163   1.644   3.300 -0.1536 -0.3652 -0.1560
 2064TIP3   OH2 6155   5.145   4.712   3.534  0.5631 -0.1113 -0.0892
 2064TIP3    H1 6156   5.112   4.642   3.478 -1.5425  0.4184  0.4026
 2064TIP3    H2 6157   5.142   4.677   3.622 -0.2913  0.4987  0.1374
 2065TIP3   OH2 6158   1.119   6.733   1.668 -0.2805 -0.0516  0.0358
 2065TIP3    H1 6159   1.033   6.733   1.710 -0.8832 -1.0029 -1.1177
 2065TIP3    H2 6160   1.139   6.640   1.656  0.7583  0.1686 -0.0233
 2066TIP3   OH2 6161   0.256   0.246   4.922 -0.4265 -0.6712 -0.1882
 2066TIP3    H1 6162   0.242   0.268   4.830 -0.5827 -0.0673 -0.0197
 2066TIP3    H2 6163   0.191   0.177   4.940 -1.5086  0.3525 -0.0885
 2067TIP3   OH2 6164   4.825   5.240   5.807  0.5705 -0.3774  0.2087
 2067TIP3    H1 6165   4.910   5.248   5.763  0.4779  0.4851  0.1618
 2067TIP3    H2 6166   4.779   5.171   5.758  1.1341 -0.6543  0.0608
 2068TIP3   OH2 6167   6.052   6.122   1.749  0.3537  0.3929 -0.3576
 2068TIP3    H1 6168   6.085   6.036   1.725  0.4195  0.1935  0.4102
 2068TIP3    H2 6169   5.958   6.108   1.765  0.5218  0.2613  0.6181
 2069TIP3   OH2 6170   0.273   4.439   0.066 -0.4176  0.1337  0.3688
 2069TIP3    H1 6171   0.257   4.346   0.084 -2.7773  0.5968  0.9319
 2069TIP3    H2 6172   0.255   4.483   0.149  1.1544  1.1034  0.2472
 2070TIP3   OH2 6173   6.948   3.473   1.148 -0.0819  0.6918  0.2489
 2070TIP3    H1 6174   6.986   3.420   1.077  1.0595 -0.8645  1.9453
 2070TIP3    H2 6175   6.913   3.550   1.103 -0.7503 -0.8896 -2.2085
 2071TIP3   OH2 6176   2.681   4.425   0.644 -0.5751  0.1753  0.1535
 2071TIP3    H1 6177   2.705   4.478   0.568  0.0587  1.1079  0.9636
 2071TIP3    H2 6178   2.747   4.355   0.646  0.1240  0.8231  0.4847
 2072TIP3   OH2 6179   4.425   2.323   5.172  0.0068 -0.3929 -0.0037
 2072TIP3    H1 6180   4.455   2.410   5.199  0.2070  0.0895 -1.6537
 2072TIP3    H2 6181   4.504   2.278   5.143  0.0278 -1.4554  1.5873
 2073TIP3   OH2 6182   2.734   5.554   4.979 -0.1164  0.4595  0.4508
 2073TIP3    H1 6183   2.644   5.528   5.000  0.0211  0.0086  0.5001
 2073TIP3    H2 6184   2.728   5.648   4.962 -0.8110  0.2380 -0.6809
 2074TIP3   OH2 6185   6.354   0.484   2.797 -0.5234  0.0995  0.3400
 2074TIP3    H1 6186   6.338   0.472   2.703  0.8052  1.9674 -0.2016
 2074TIP3    H2 6187   6.431   0.541   2.800 -0.2476 -0.3191  2.5958
 2075TIP3   OH2 6188   5.778   6.733   0.362  0.2847  0.6249 -0.5668
 2075TIP3    H1 6189   5.818   6.770   0.283  1.1497  0.0231 -0.4253
 2075TIP3    H2 6190   5.705   6.791   0.381 -1.0759 -0.2147 -2.8448
 2076TIP3   OH2 6191   3.387   2.546   3.686  0.8244  0.3404  0.2243
 2076TIP3    H1 6192   3.308   2.525   3.735  1.4877 -0.3749  1.0131
 2076TIP3    H2 6193   3.360   2.614   3.625 -0.0720  1.1469  1.4677
 2077TIP3   OH2 6194   6.491   5.626   1.834  0.0688 -0.0752  0.1566
 2077TIP3    H1 6195   6.544   5.605   1.911 -1.2448  0.6677  1.3359
 2077TIP3    H2 6196   6.429   5.553   1.828 -0.3777  0.2752  0.3598
 2078TIP3   OH2 6197   4.180   1.550   0.046  0.2949  0.4368 -0.2772
 2078TIP3    H1 6198   4.112   1.559  -0.020 -0.4825 -2.2201  0.0331
 2078TIP3    H2 6199   4.144   1.591   0.124 -1.2342 -1.3024  0.0046
 2079TIP3   OH2 6200   3.019   6.047   4.489  0.2312  0.2187  0.1843
 2079TIP3    H1 6201   3.072   6.080   4.416 -0.1916 -1.2788 -0.8481
 2079TIP3    H2 6202   3.028   5.952   4.483 -3.1348 -0.1700 -0.4838
 2080TIP3   OH2 6203   3.298   2.500   5.036  0.8629 -0.4476 -0.1543
 2080TIP3    H1 6204   3.346   2.568   4.988 -1.6812  1.5512 -0.0746
 2080TIP3    H2 6205   3.275   2.435   4.969  0.5399  0.4320 -0.9088
 2081TIP3   OH2 6206   5.425   6.629   3.832  0.1398  0.2649 -0.0196
 2081TIP3    H1 6207   5.454   6.547   3.872 -0.7600 -0.2448 -0.3812
 2081TIP3    H2 6208   5.385   6.678   3.904 -2.8123 -1.2661 -0.4636
 2082TIP3   OH2 6209   2.783   5.028   3.815 -0.5475  0.5182  0.6249
 2082TIP3    H1 6210   2.729   5.059   3.743  0.5357  0.0764 -0.4069
 2082TIP3    H2 6211   2.869   5.066   3.799 -0.6635  1.7805  2.6101
 2083TIP3   OH2 6212   6.654   1.958   4.769  0.1979 -0.6112  0.4069
 2083TIP3    H1 6213   6.629   1.943   4.678 -0.5125 -2.4131  0.8480
 2083TIP3    H2 6214   6.715   1.887   4.789  1.7240  0.7750  0.8615
 2084TIP3   OH2 6215   6.455   6.454   5.139  0.0041  0.0272 -0.4397
 2084TIP3    H1 6216   6.460   6.550   5.146 -0.0820 -0.1159  3.0249
 2084TIP3    H2 6217   6.547   6.426   5.136  0.0830  0.1566  0.4960
 2085TIP3   OH2 6218   1.526   3.431   2.227  0.0267 -0.4525  0.0727
 2085TIP3    H1 6219   1.582   3.372   2.278 -0.3060 -0.6317  0.2333
 2085TIP3    H2 6220   1.437   3.400   2.245 -0.2613  0.9686  1.3015
 2086TIP3   OH2 6221   4.552   6.729   2.535  0.0508  0.3081  0.2310
 2086TIP3    H1 6222   4.569   6.815   2.571 -0.6242  0.8577 -0.7169
 2086TIP3    H2 6223   4.630   6.708   2.484  0.9463 -0.4110  1.8150
 2087TIP3   OH2 6224   7.013   1.906   0.979  0.8782 -0.3443  0.2348
 2087TIP3    H1 6225   6.934   1.855   0.999  0.9492 -0.7608 -0.5242
 2087TIP3    H2 6226   7.069   1.893   1.056  0.8249 -1.2899  0.1290
 2088TIP3   OH2 6227   6.371   2.485   0.206 -0.3281  0.3644  0.3929
 2088TIP3    H1 6228   6.452   2.444   0.176 -0.9782  0.4001 -1.6054
 2088TIP3    H2 6229   6.332   2.421   0.265 -0.3345 -1.0447 -1.0753
 2089TIP3   OH2 6230   6.550   3.849   3.458 -0.4281 -0.0739 -0.0232
 2089TIP3    H1 6231   6.646   3.850   3.463 -0.4389 -0.8308  0.5183
 2089TIP3    H2 6232   6.527   3.756   3.461 -1.0394 -0.1763 -3.3127
 2090TIP3   OH2 6233   1.547   5.146   5.043 -0.0172 -0.6825  0.6407
 2090TIP3    H1 6234   1.497   5.195   4.978  2.3059  1.6515  0.4500
 2090TIP3    H2 6235   1.617   5.104   4.992 -0.2661 -1.8470  1.2128
 2091TIP3   OH2 6236   3.778   6.301   2.993  0.6241 -0.6366  0.1393
 2091TIP3    H1 6237   3.823   6.220   3.016  1.4683 -0.4845 -0.9021
 2091TIP3    H2 6238   3.685   6.283   3.012  0.9365 -1.4530  0.9561
 2092TIP3   OH2 6239   6.889   4.736   4.594  0.2242  0.1662  0.0206
 2092TIP3    H1 6240   6.951   4.722   4.666 -0.6585 -1.2143  0.5580
 2092TIP3    H2 6241   6.892   4.655   4.543 -0.6531  0.3332 -0.3196
 2093TIP3   OH2 6242   4.581   1.137   1.775  0.1129  0.0857  1.1780
 2093TIP3    H1 6243   4.669   1.172   1.760 -0.6650  1.4830 -0.4281
 2093TIP3    H2 6244   4.593   1.042   1.773  1.8461  0.1911  2.8827
 2094TIP3   OH2 6245   3.665   5.367   5.625  0.1426 -0.2756  0.2884
 2094TIP3    H1 6246   3.701   5.371   5.537  0.6332 -0.7381  0.4686
 2094TIP3    H2 6247   3.597   5.300   5.621  0.4385 -0.5832  0.3561
 2095TIP3   OH2 6248   5.168   3.068   5.857 -0.3565 -0.1929  0.2472
 2095TIP3    H1 6249   5.210   3.031   5.779 -1.0841 -0.0242 -0.2379
 2095TIP3    H2 6250   5.217   3.031   5.930 -0.1075 -0.9224 -0.2685
 2096TIP3   OH2 6251   3.554   2.111   4.512  0.6952  0.2997 -0.2765
 2096TIP3    H1 6252   3.484   2.069   4.462  1.2944 -0.1786 -0.7303
 2096TIP3    H2 6253   3.562   2.059   4.592  0.6664  0.2385 -0.3142
 2097TIP3   OH2 6254   2.527   0.932   5.311 -0.0064 -0.1922  0.0125
 2097TIP3    H1 6255   2.470   0.993   5.357 -1.6251  0.1120 -2.2092
 2097TIP3    H2 6256   2.468   0.864   5.278  1.3225 -1.3374 -0.1197
 2098TIP3   OH2 6257   4.799   1.871   1.115  0.1209  0.1088 -0.2518
 2098TIP3    H1 6258   4.815   1.952   1.067  0.4354  1.4341  1.9899
 2098TIP3    H2 6259   4.886   1.834   1.130  0.0257 -0.2653 -0.5882
 2099TIP3   OH2 6260   4.410   4.353   5.505 -0.2476  0.1195 -0.2058
 2099TIP3    H1 6261   4.409   4.377   5.597  1.0073  0.7921 -0.3508
 2099TIP3    H2 6262   4.375   4.431   5.460  0.6195  0.4065 -0.4068
 2100TIP3   OH2 6263   4.798   6.429   2.503 -0.2358  0.1878  0.6532
 2100TIP3    H1 6264   4.779   6.337   2.523 -1.3294  0.3660  0.5096
 2100TIP3    H2 6265   4.764   6.442   2.415  2.8821 -0.0977 -0.7108
 2101TIP3   OH2 6266   6.399   3.029   0.608  0.0451 -0.0632  0.1797
 2101TIP3    H1 6267   6.376   3.046   0.517  0.0034 -2.6575 -0.3884
 2101TIP3    H2 6268   6.316   3.037   0.656  0.2479  2.3580  0.2472
 2102TIP3   OH2 6269   1.919   3.420   3.692  0.0799 -0.0872 -0.0248
 2102TIP3    H1 6270   1.892   3.492   3.749  1.0055 -0.2085  0.5753
 2102TIP3    H2 6271   1.968   3.462   3.622 -2.2031  0.2310 -1.5640
 2103TIP3   OH2 6272   3.750   0.703   3.329 -0.0020 -0.0438  0.5842
 2103TIP3    H1 6273   3.813   0.631   3.328 -1.4043 -1.3360 -1.3933
 2103TIP3    H2 6274   3.761   0.743   3.415  1.4527 -2.0638  1.4151
 2104TIP3   OH2 6275   2.588   3.246   1.639 -0.3277  0.2063  0.3131
 2104TIP3    H1 6276   2.638   3.175   1.678 -0.9068 -1.3125 -1.5570
 2104TIP3    H2 6277   2.604   3.239   1.545 -2.1052  1.1857 -0.1194
 2105TIP3   OH2 6278   6.205   6.088   3.543  0.1554  0.1325 -0.0814
 2105TIP3    H1 6279   6.289   6.099   3.498  0.4599 -1.0046  0.1687
 2105TIP3    H2 6280   6.195   5.994   3.552 -1.8801  0.1660 -1.3993
 2106TIP3   OH2 6281   4.599   1.160   4.213  0.3965 -0.0779  0.3840
 2106TIP3    H1 6282   4.543   1.236   4.195  0.3633 -0.2142 -0.0998
 2106TIP3    H2 6283   4.605   1.115   4.129  0.0971 -0.8261  0.7577
 2107TIP3   OH2 6284   4.583   4.300   1.872 -0.0288  0.5284 -0.3062
 2107TIP3    H1 6285   4.629   4.382   1.890  1.0991  0.2078 -1.5739
 2107TIP3    H2 6286   4.647   4.231   1.889 -0.7462 -0.0648  0.0709
 2108TIP3   OH2 6287   4.156   4.144   4.720 -0.4196 -0.0854 -0.2179
 2108TIP3    H1 6288   4.222   4.075   4.732 -2.2497 -1.7665  0.7984
 2108TIP3    H2 6289   4.186   4.216   4.775 -0.2269 -1.4516  1.5418
 2109TIP3   OH2 6290   1.637   4.895   1.245  0.5139  0.6097 -0.8536
 2109TIP3    H1 6291   1.728   4.874   1.268  0.0039  0.0117  0.7395
 2109TIP3    H2 6292   1.585   4.825   1.284 -0.9580  2.9808  1.8289
 2110TIP3   OH2 6293   0.356   2.350   4.899 -0.7521 -0.2512 -0.3132
 2110TIP3    H1 6294   0.323   2.407   4.830 -1.3764  0.0942  0.2608
 2110TIP3    H2 6295   0.339   2.261   4.868  0.3920 -0.1483 -1.2968
 2111TIP3   OH2 6296   5.312   1.007   3.358  0.5002 -0.0087  0.7194
 2111TIP3    H1 6297   5.382   1.044   3.304 -1.3168  1.1283 -0.9917
 2111TIP3    H2 6298   5.251   1.080   3.372 -1.6319 -1.5404 -0.0565
 2112TIP3   OH2 6299   2.658   1.061   4.550  0.2056 -0.0228 -0.2200
 2112TIP3    H1 6300   2.688   0.975   4.519 -0.9456 -0.7419  0.5731
 2112TIP3    H2 6301   2.562   1.054   4.550  0.1257  0.8188  1.0592
 2113TIP3   OH2 6302   3.656   2.507   5.463 -0.0684 -0.0857 -0.3127
 2113TIP3    H1 6303   3.587   2.553   5.510  0.9730  0.5722  0.6188
 2113TIP3    H2 6304   3.611   2.464   5.391 -1.4336  0.3880  0.2257
 2114TIP3   OH2 6305   5.135   4.329   0.614 -0.0644  0.2020 -0.0869
 2114TIP3    H1 6306   5.145   4.365   0.702  0.2515 -1.5585  0.6280
 2114TIP3    H2 6307   5.077   4.254   0.625 -0.0131 -0.0473 -1.3910
 2115TIP3   OH2 6308   2.168   5.409   4.668  0.4884 -0.1387  0.3568
 2115TIP3    H1 6309   2.215   5.397   4.751  0.5620 -2.3477  0.0587
 2115TIP3    H2 6310   2.163   5.321   4.631  1.7446  0.9755 -2.7177
 2116TIP3   OH2 6311   4.411   2.154   4.481  0.4770  0.7623 -0.0142
 2116TIP3    H1 6312   4.371   2.214   4.544  0.7606 -1.3599  2.3320
 2116TIP3    H2 6313   4.338   2.122   4.429  0.0224  1.4465  0.1852
 2117TIP3   OH2 6314   5.998   3.155   0.055 -0.2116 -0.3383  0.5940
 2117TIP3    H1 6315   6.077   3.188   0.099 -0.4720  0.2101  0.6553
 2117TIP3    H2 6316   5.945   3.233   0.040  0.0194 -0.4669 -1.0125
 2118TIP3   OH2 6317   3.180   5.869   5.421  0.0181 -0.5127  0.4384
 2118TIP3    H1 6318   3.111   5.804   5.431 -0.6730  0.1354  0.0183
 2118TIP3    H2 6319   3.151   5.943   5.474  0.5225 -0.3354  0.4736
 2119TIP3   OH2 6320   4.870   4.930   0.829  0.0729  0.0191  0.3249
 2119TIP3    H1 6321   4.794   4.980   0.860 -0.3867  0.4558 -1.3931
 2119TIP3    H2 6322   4.912   4.988   0.766 -0.3606 -1.6441 -1.5887
 2120TIP3   OH2 6323   0.361   0.776   1.094 -0.8577 -0.0022 -0.5741
 2120TIP3    H1 6324   0.447   0.818   1.102 -0.3100 -0.9628 -1.2128
 2120TIP3    H2 6325   0.324   0.813   1.013 -1.5926  1.3282  0.3383
 2121TIP3   OH2 6326   0.489   5.423   2.942  0.3345 -0.1138  0.1193
 2121TIP3    H1 6327   0.497   5.518   2.933 -1.4030  0.2447  1.9085
 2121TIP3    H2 6328   0.548   5.401   3.014 -1.2817  0.0607  1.5634
 2122TIP3   OH2 6329   1.976   3.003   0.737 -0.2720  0.0764  0.1221
 2122TIP3    H1 6330   1.932   2.924   0.705 -2.9763  0.6978  1.9350
 2122TIP3    H2 6331   1.972   3.064   0.664 -1.4903 -0.2724 -0.1226
 2123TIP3   OH2 6332   3.005   0.908   0.302  0.7735  0.0731  0.3666
 2123TIP3    H1 6333   3.100   0.897   0.300  0.7645 -1.0661  2.3774
 2123TIP3    H2 6334   2.983   0.900   0.395 -1.6184 -3.2377 -0.3106
 2124TIP3   OH2 6335   5.100   6.017   5.209 -0.1750  0.2171  0.2892
 2124TIP3    H1 6336   5.030   6.064   5.164 -1.1685 -1.4562  0.0038
 2124TIP3    H2 6337   5.171   6.015   5.145 -0.1549  1.1807  0.2575
 2125TIP3   OH2 6338   4.540   1.495   1.317 -0.5192 -0.4506 -0.3049
 2125TIP3    H1 6339   4.470   1.538   1.367 -1.6582 -3.2496  0.7005
 2125TIP3    H2 6340   4.498   1.420   1.276  1.1832 -0.2272 -2.6824
 2126TIP3   OH2 6341   5.711   0.605   4.309 -0.1105  0.2269  0.5330
 2126TIP3    H1 6342   5.784   0.544   4.324  0.1779  0.5410  0.4119
 2126TIP3    H2 6343   5.633   0.551   4.318  0.1175 -0.0087  1.1999
 2127TIP3   OH2 6344   2.913   2.650   0.426 -0.0249 -0.3383 -0.3595
 2127TIP3    H1 6345   2.970   2.573   0.414 -0.1627 -0.4653 -0.2055
 2127TIP3    H2 6346   2.895   2.679   0.337  1.3064  0.4721 -0.3973
 2128TIP3   OH2 6347   2.970   2.416   3.965  0.0837 -0.2155 -0.1215
 2128TIP3    H1 6348   2.986   2.508   3.943  2.1373 -0.2542  0.9527
 2128TIP3    H2 6349   2.999   2.367   3.888 -0.8242 -0.0051 -0.6160
 2129TIP3   OH2 6350   5.615   6.014   1.637 -0.1408 -0.4827  0.0982
 2129TIP3    H1 6351   5.578   6.017   1.549  0.7526  1.4863 -0.2632
 2129TIP3    H2 6352   5.565   6.079   1.686  0.2600 -0.6116  0.6816
 2130TIP3   OH2 6353   4.509   4.996   3.887 -0.2478  0.0872 -0.2038
 2130TIP3    H1 6354   4.485   5.007   3.979 -0.3881  0.5977 -0.2985
 2130TIP3    H2 6355   4.603   5.009   3.886 -0.3215  0.6292 -0.2134
 2131TIP3   OH2 6356   2.562   3.507   0.643 -0.0123  0.4926 -0.8419
 2131TIP3    H1 6357   2.536   3.417   0.665 -1.5803  1.4861  1.8246
 2131TIP3    H2 6358   2.508   3.529   0.567 -1.2275 -0.1435 -0.2026
 2132TIP3   OH2 6359   1.757   3.990   4.308 -0.4967  0.0374 -0.1924
 2132TIP3    H1 6360   1.707   4.064   4.343 -0.2740  1.1043 -1.9895
 2132TIP3    H2 6361   1.691   3.927   4.280 -0.7171 -0.0493  0.5068
 2133TIP3   OH2 6362   3.701   3.627   5.826  0.0695 -0.5036 -0.2846
 2133TIP3    H1 6363   3.761   3.667   5.889  1.1824  0.2105 -1.7446
 2133TIP3    H2 6364   3.681   3.541   5.863 -1.4270  0.8665  2.3295
 2134TIP3   OH2 6365   0.425   1.547   0.537  0.0002  0.5767  0.4602
 2134TIP3    H1 6366   0.423   1.464   0.585 -0.7653  0.6437  0.5592
 2134TIP3    H2 6367   0.347   1.545   0.482  0.2499  1.0131  0.0819
 2135TIP3   OH2 6368   3.197   6.644   3.188 -0.1637 -0.5286  0.0478
 2135TIP3    H1 6369   3.150   6.724   3.165  1.0878  0.3392  0.3947
 2135TIP3    H2 6370   3.149   6.574   3.143 -1.0357  0.4615 -0.6056
 2136TIP3   OH2 6371   6.233   1.871   3.205  0.2543  0.2628 -0.2280
 2136TIP3    H1 6372   6.252   1.962   3.229  1.9996 -0.1486  0.0637
 2136TIP3    H2 6373   6.199   1.877   3.115 -3.6159  1.5361  1.1044
 2137TIP3   OH2 6374   5.351   0.751   2.160  0.1363 -0.0787  0.3138
 2137TIP3    H1 6375   5.436   0.726   2.126 -0.7852 -2.5019 -0.4117
 2137TIP3    H2 6376   5.288   0.711   2.100 -1.7016  4.7945 -1.5347
 2138TIP3   OH2 6377   5.749  -0.001   5.137 -0.4365 -0.6723 -0.1731
 2138TIP3    H1 6378   5.744  -0.026   5.044 -1.0505 -0.9850 -0.0600
 2138TIP3    H2 6379   5.779   0.090   5.136  1.9346 -1.3678 -0.6088
 2139TIP3   OH2 6380   4.162   2.383   4.391 -0.3925 -0.5535  0.5016
 2139TIP3    H1 6381   4.241   2.394   4.444  0.0158 -0.9276 -0.0200
 2139TIP3    H2 6382   4.109   2.460   4.412 -0.4219 -0.8789  1.7466
 2140TIP3   OH2 6383   6.888   1.191   2.456 -0.3637 -0.0687  0.6639
 2140TIP3    H1 6384   6.871   1.096   2.457 -1.7451  0.1614  0.9804
 2140TIP3    H2 6385   6.856   1.221   2.541  1.8253  0.4199  1.3589
 2141TIP3   OH2 6386   3.035   3.716   3.691  0.1159 -0.4176 -0.5970
 2141TIP3    H1 6387   2.944   3.723   3.662 -0.8486 -0.7683  2.0665
 2141TIP3    H2 6388   3.042   3.627   3.728  0.9463  0.2520  0.9723
 2142TIP3   OH2 6389   5.140   5.115   5.785 -0.6350 -0.2192 -0.2660
 2142TIP3    H1 6390   5.206   5.073   5.841  0.9906  0.5361 -1.5348
 2142TIP3    H2 6391   5.083   5.044   5.758  1.9397 -1.7129 -2.2314
 2143TIP3   OH2 6392   5.084   3.838   0.466 -0.5488  0.1554  0.1389
 2143TIP3    H1 6393   5.062   3.825   0.373  0.1435 -0.0814  0.0039
 2143TIP3    H2 6394   5.179   3.847   0.467 -0.6139  0.8443  0.7505
 2144TIP3   OH2 6395   3.285   0.874   0.315  0.2612 -0.5159  0.7273
 2144TIP3    H1 6396   3.306   0.786   0.348  0.4574 -0.5796  0.4380
 2144TIP3    H2 6397   3.361   0.898   0.262 -0.4553 -0.8259 -0.4934
 2145TIP3   OH2 6398   7.152   5.313   3.119  0.1464 -0.6752 -0.7062
 2145TIP3    H1 6399   7.128   5.405   3.132  0.2133 -0.7435 -0.0934
 2145TIP3    H2 6400   7.100   5.285   3.044  1.4015  0.3417 -2.0043
 2146TIP3   OH2 6401   6.959   1.288   1.795  0.9327  0.0448 -0.2513
 2146TIP3    H1 6402   7.038   1.250   1.832 -0.1335 -0.5727  1.5169
 2146TIP3    H2 6403   6.975   1.382   1.795  1.8373 -0.1022 -0.3748
 2147TIP3   OH2 6404   2.179   1.832   5.265 -0.3199  0.0639  0.3627
 2147TIP3    H1 6405   2.102   1.854   5.213 -0.2040 -0.0660  0.1370
 2147TIP3    H2 6406   2.153   1.754   5.314 -0.7475  0.7198  1.1997
 2148TIP3   OH2 6407   1.003   6.462   4.206 -0.0161  0.2842 -0.0550
 2148TIP3    H1 6408   1.018   6.554   4.224  0.1352  0.3136 -0.3211
 2148TIP3    H2 6409   1.007   6.455   4.110  1.0206 -0.1757  0.0103
 2149TIP3   OH2 6410   6.656   1.856   3.831 -0.9716  0.3140  0.0820
 2149TIP3    H1 6411   6.725   1.863   3.897 -1.6154  1.4626  0.6509
 2149TIP3    H2 6412   6.682   1.780   3.778  1.4996  1.5146 -0.6067
 2150TIP3   OH2 6413   5.118   3.365   2.496  0.0460 -0.1313  0.6239
 2150TIP3    H1 6414   5.127   3.386   2.403 -2.3393 -0.3318  0.2965
 2150TIP3    H2 6415   5.051   3.297   2.499  0.7027 -0.7637  2.4452
 2151TIP3   OH2 6416   5.997   3.545   4.308 -0.1786  0.3225 -0.1871
 2151TIP3    H1 6417   6.058   3.487   4.261 -0.6937 -1.8573  1.6570
 2151TIP3    H2 6418   6.052   3.616   4.341  1.1110 -0.8046  0.1878
 2152TIP3   OH2 6419   1.269   4.020   3.957  0.0038  0.1515  0.3309
 2152TIP3    H1 6420   1.295   3.948   3.900  0.8755  0.6464  0.0736
 2152TIP3    H2 6421   1.242   3.979   4.039  2.1464 -0.4101  0.8205
 2153TIP3   OH2 6422   1.078   1.062   1.185  0.3476  0.1221  0.4161
 2153TIP3    H1 6423   1.165   1.061   1.225 -0.1734  0.7010  1.5995
 2153TIP3    H2 6424   1.030   1.128   1.234 -0.6861 -0.0074 -0.3970
 2154TIP3   OH2 6425   2.982   5.737   3.879  0.0438  0.1087  0.2306
 2154TIP3    H1 6426   2.926   5.746   3.801 -0.2105 -0.4060  0.3504
 2154TIP3    H2 6427   2.935   5.676   3.935  1.1561 -1.0705 -0.0659
 2155TIP3   OH2 6428   4.515   3.509   4.720 -0.0199 -0.3968 -0.0846
 2155TIP3    H1 6429   4.426   3.530   4.748  0.1087 -1.2037  1.0218
 2155TIP3    H2 6430   4.516   3.525   4.626 -0.7820  1.4333  0.1905
 2156TIP3   OH2 6431   1.677   4.255   2.975 -0.6439 -0.2293  0.2422
 2156TIP3    H1 6432   1.771   4.267   2.962 -0.8390 -0.0125 -1.1896
 2156TIP3    H2 6433   1.667   4.236   3.068  1.0060 -2.0308  0.1156
 2157TIP3   OH2 6434   5.162   3.547   4.363  0.1405 -0.5836 -0.2263
 2157TIP3    H1 6435   5.142   3.546   4.269  1.0226  1.6307 -0.4987
 2157TIP3    H2 6436   5.089   3.499   4.403 -0.9670 -0.4292 -1.9181
 2158TIP3   OH2 6437   5.630   5.566   0.284 -1.1739 -0.1576  0.2757
 2158TIP3    H1 6438   5.648   5.472   0.292 -1.2577 -0.3450 -1.3646
 2158TIP3    H2 6439   5.544   5.577   0.324 -0.5834 -0.5208  1.7062
 2159TIP3   OH2 6440   5.499   1.294   3.948  0.2178 -0.5342 -0.1239
 2159TIP3    H1 6441   5.529   1.236   4.017  0.3161 -2.2048 -1.4883
 2159TIP3    H2 6442   5.518   1.382   3.980 -0.2893 -1.2050  2.1880
 2160TIP3   OH2 6443   2.054   1.351   3.966 -0.3850  0.1075  0.3193
 2160TIP3    H1 6444   2.092   1.338   4.054 -0.4354 -0.0164  0.3227
 2160TIP3    H2 6445   2.027   1.263   3.939  0.1215  0.0604 -0.0452
 2161TIP3   OH2 6446   5.691   5.988   2.603  0.7680 -0.5280 -0.4753
 2161TIP3    H1 6447   5.665   6.063   2.657 -0.3084  0.3607 -2.1583
 2161TIP3    H2 6448   5.647   5.913   2.644  0.7809 -0.0451  0.4527
 2162TIP3   OH2 6449   0.043   3.553   3.292 -0.6634 -0.4514 -0.3691
 2162TIP3    H1 6450   0.007   3.559   3.204 -0.5863  1.5521 -0.3084
 2162TIP3    H2 6451  -0.018   3.605   3.346 -0.5050 -1.3286  0.6894
 2163TIP3   OH2 6452   1.502   3.446   0.656 -0.2085  0.3837 -0.0186
 2163TIP3    H1 6453   1.531   3.367   0.609 -0.6591 -0.0441  0.4152
 2163TIP3    H2 6454   1.467   3.413   0.738 -0.9149  0.9890 -0.0685
 2164TIP3   OH2 6455   0.328   3.892   5.249 -0.7719  0.0813  0.1194
 2164TIP3    H1 6456   0.353   3.979   5.279  1.7973 -0.8171  0.8361
 2164TIP3    H2 6457   0.380   3.878   5.170 -1.5704 -0.6246 -0.3023
 2165TIP3   OH2 6458   7.014   4.810   5.401  0.6320 -0.3822  0.1745
 2165TIP3    H1 6459   6.961   4.732   5.384 -0.6328  0.3907  0.5170
 2165TIP3    H2 6460   7.028   4.809   5.495  0.0219  0.1722  0.2752
 2166TIP3   OH2 6461   3.489   3.111   4.853 -0.4282 -0.1345 -0.5808
 2166TIP3    H1 6462   3.498   3.053   4.777  0.1504 -0.1187 -0.5255
 2166TIP3    H2 6463   3.394   3.124   4.862 -0.5136 -0.3293 -1.1544
 2167TIP3   OH2 6464   4.047   5.009   3.086 -0.5584 -0.0706  0.0404
 2167TIP3    H1 6465   4.100   5.007   3.006  0.9445 -1.0035  1.0143
 2167TIP3    H2 6466   3.959   5.034   3.056 -0.5534 -2.3107 -2.2045
 2168TIP3   OH2 6467   3.720   3.696   1.912 -0.7102 -0.4157 -0.0210
 2168TIP3    H1 6468   3.785   3.740   1.857 -1.6354  0.9263 -0.0669
 2168TIP3    H2 6469   3.661   3.654   1.850 -1.2262  0.3264 -0.0335
 2169TIP3   OH2 6470   5.011   4.073   0.573  0.3838 -0.0064  0.0727
 2169TIP3    H1 6471   5.046   3.985   0.579 -0.4079 -0.3627 -0.3037
 2169TIP3    H2 6472   5.006   4.091   0.479 -1.2588 -0.3296  0.0601
 2170TIP3   OH2 6473   2.262   6.766   2.120 -0.5375 -0.6640 -0.4612
 2170TIP3    H1 6474   2.349   6.727   2.123 -0.5861 -0.7170  0.3329
 2170TIP3    H2 6475   2.235   6.773   2.211 -2.0178 -2.1253 -0.7313
 2171TIP3   OH2 6476   6.837   1.951   5.181  0.8422  0.0793  0.0713
 2171TIP3    H1 6477   6.747   1.968   5.153  1.2610  2.1043 -0.2136
 2171TIP3    H2 6478   6.857   1.865   5.145 -1.3709 -1.0083  1.2086
 2172TIP3   OH2 6479   3.110   2.143   4.050 -0.4403  0.3828 -0.0089
 2172TIP3    H1 6480   3.070   2.203   4.113  0.4432  0.9551  0.0395
 2172TIP3    H2 6481   3.054   2.149   3.973 -2.8173 -1.9934  1.3701
 2173TIP3   OH2 6482   1.076   3.909   2.317 -0.3981 -0.4997  0.9410
 2173TIP3    H1 6483   1.039   3.992   2.287  1.5320 -0.1168 -0.5959
 2173TIP3    H2 6484   1.057   3.848   2.246  0.9184 -0.5477  0.6076
 2174TIP3   OH2 6485   1.393   2.757   1.867 -0.0795 -0.0533 -0.2033
 2174TIP3    H1 6486   1.397   2.727   1.777  2.3190 -0.9144  0.0968
 2174TIP3    H2 6487   1.428   2.684   1.918  0.4309  1.1089  1.1959
 2175TIP3   OH2 6488   0.391   5.354   3.630  0.1535  0.7297  0.0450
 2175TIP3    H1 6489   0.442   5.305   3.695  1.4211  0.2619 -1.2381
 2175TIP3    H2 6490   0.437   5.437   3.621 -2.2266  2.5235  2.5290
 2176TIP3   OH2 6491   2.292   1.348   3.477 -0.7996  0.2520  0.0077
 2176TIP3    H1 6492   2.384   1.327   3.461 -0.2408  0.7497  2.1348
 2176TIP3    H2 6493   2.250   1.263   3.492 -0.1560  0.1192  1.2469
 2177TIP3   OH2 6494   4.160   5.376   2.779 -0.0685  0.3222 -0.8905
 2177TIP3    H1 6495   4.239   5.322   2.775 -0.3307 -0.2939  1.2965
 2177TIP3    H2 6496   4.186   5.460   2.741  1.4443 -0.0922 -0.8195
 2178TIP3   OH2 6497   0.257   5.601   3.746  0.0263 -0.3279  0.9121
 2178TIP3    H1 6498   0.333   5.656   3.764 -0.3673 -0.6427  3.9983
 2178TIP3    H2 6499   0.182   5.659   3.754 -0.2100 -0.6131  0.7931
 2179TIP3   OH2 6500   5.909   3.089   0.407  0.0206  0.0838 -0.2735
 2179TIP3    H1 6501   5.846   3.019   0.428 -0.6564  0.5764 -0.6162
 2179TIP3    H2 6502   5.937   3.070   0.317 -0.1847  0.2634 -0.3768
 2180TIP3   OH2 6503   0.785   1.385   2.043  0.4041 -0.2890  0.0426
 2180TIP3    H1 6504   0.703   1.390   1.993  0.8853 -1.6729 -0.9447
 2180TIP3    H2 6505   0.781   1.459   2.103 -1.8681 -0.6706  0.4580
 2181TIP3   OH2 6506   1.899   6.090   1.685  0.6712  0.1889  0.2637
 2181TIP3    H1 6507   1.977   6.090   1.740 -0.1281  0.5278  1.4389
 2181TIP3    H2 6508   1.857   6.006   1.703 -0.1555  0.7533  1.0119
 2182TIP3   OH2 6509   5.492   2.934   1.954 -0.3829 -0.7181  0.4212
 2182TIP3    H1 6510   5.476   2.996   2.025  1.1516 -0.5617  0.6662
 2182TIP3    H2 6511   5.474   2.984   1.874 -1.2963 -0.6412  0.6627
 2183TIP3   OH2 6512   4.345   5.152   1.616  0.8218  0.1266 -0.8249
 2183TIP3    H1 6513   4.258   5.153   1.656  1.6171 -2.2921  1.2594
 2183TIP3    H2 6514   4.370   5.244   1.610 -1.5691  0.8432 -0.8492
 2184TIP3   OH2 6515   2.261   5.816   0.967  0.3276  0.0548  0.3297
 2184TIP3    H1 6516   2.167   5.828   0.952  0.9089  2.5610 -2.0984
 2184TIP3    H2 6517   2.277   5.725   0.941 -0.8327  0.7605 -3.4047
 2185TIP3   OH2 6518   4.242   5.782   4.677 -0.2392  0.2760 -0.2080
 2185TIP3    H1 6519   4.231   5.780   4.773 -0.6574 -1.6103 -0.2438
 2185TIP3    H2 6520   4.161   5.821   4.645 -0.6766 -0.2932  0.1755
 2186TIP3   OH2 6521   5.749   6.121   0.948 -0.4509 -0.2135 -0.3984
 2186TIP3    H1 6522   5.813   6.178   0.905 -1.5228  0.9413 -0.5062
 2186TIP3    H2 6523   5.799   6.077   1.016  1.5253 -2.7334 -3.2049
 2187TIP3   OH2 6524   4.803   4.611   3.045  0.0490 -0.0744  0.0646
 2187TIP3    H1 6525   4.881   4.556   3.038 -0.2557 -0.4075 -0.9180
 2187TIP3    H2 6526   4.754   4.575   3.118  0.0920 -0.8101 -0.2611
 2188TIP3   OH2 6527   2.784   5.391   1.518 -0.6140  0.6727  0.0762
 2188TIP3    H1 6528   2.812   5.461   1.459  0.1194  0.6229  0.3464
 2188TIP3    H2 6529   2.818   5.417   1.604  1.0424 -0.7294 -0.0875
 2189TIP3   OH2 6530   0.234   6.651   0.746 -0.3346 -0.0223  0.0569
 2189TIP3    H1 6531   0.158   6.709   0.761 -0.7010  0.0482 -1.7970
 2189TIP3    H2 6532   0.307   6.711   0.732 -0.4107 -0.0228 -0.3723
 2190TIP3   OH2 6533   6.035   4.181   2.470 -0.0785  0.1442  0.2738
 2190TIP3    H1 6534   6.037   4.273   2.446 -0.4071  0.0848 -0.0026
 2190TIP3    H2 6535   5.973   4.142   2.407  0.9264 -0.4740 -0.3508
 2191TIP3   OH2 6536   3.079   4.330   2.228  0.5166  0.5284  0.7443
 2191TIP3    H1 6537   3.048   4.269   2.161 -1.1693  1.3650  0.7105
 2191TIP3    H2 6538   3.013   4.326   2.297  0.8715  1.5966  1.1690
 2192TIP3   OH2 6539   1.301   1.518   2.469 -0.2075  0.0759  0.1681
 2192TIP3    H1 6540   1.301   1.440   2.525 -0.3859  0.3047  0.4909
 2192TIP3    H2 6541   1.381   1.510   2.417  0.1574  0.0446  0.7223
 2193TIP3   OH2 6542   2.733   4.072   2.488 -0.0407 -0.2731 -0.3743
 2193TIP3    H1 6543   2.816   4.054   2.532 -0.9620 -0.8707  1.1992
 2193TIP3    H2 6544   2.758   4.120   2.409  1.8231 -0.8418 -0.1804
 2194TIP3   OH2 6545   6.801   0.357   5.791  0.1340  0.3085  0.0463
 2194TIP3    H1 6546   6.740   0.414   5.742  0.4249  1.0848  0.5720
 2194TIP3    H2 6547   6.886   0.373   5.750 -0.0340 -1.0004 -0.8840
 2195TIP3   OH2 6548   6.742   4.668   3.191  0.2497  0.2393  0.5888
 2195TIP3    H1 6549   6.666   4.706   3.146  0.0171  1.8903  2.2758
 2195TIP3    H2 6550   6.807   4.657   3.121 -1.2718 -0.6750 -0.7885
 2196TIP3   OH2 6551   6.564   2.067   0.123 -0.2270  0.0202 -0.0026
 2196TIP3    H1 6552   6.550   2.123   0.047 -2.8358 -1.2228 -0.5598
 2196TIP3    H2 6553   6.561   2.126   0.198  1.1983  1.0986 -0.7432
 2197TIP3   OH2 6554   1.708   4.641   1.706  0.0294  0.0876  0.4720
 2197TIP3    H1 6555   1.763   4.572   1.668  1.5694  1.3075  0.4144
 2197TIP3    H2 6556   1.662   4.597   1.779  0.9060 -1.0155  0.3929
 2198TIP3   OH2 6557   0.210   1.042   2.802 -0.0107  0.1416  0.0468
 2198TIP3    H1 6558   0.227   0.952   2.827  1.2810  0.2095 -0.4857
 2198TIP3    H2 6559   0.254   1.095   2.868 -0.4907  0.3800  0.1804
 2199TIP3   OH2 6560   2.070   2.408   0.601 -0.0551  0.3548 -0.3574
 2199TIP3    H1 6561   2.097   2.450   0.520  1.4691  0.2483  0.0490
 2199TIP3    H2 6562   2.128   2.446   0.668 -1.1183  0.2816  0.6393
 2200TIP3   OH2 6563   0.273   4.448   5.757 -0.1009 -0.3516  0.4562
 2200TIP3    H1 6564   0.191   4.494   5.737  0.0292 -0.8342 -1.4472
 2200TIP3    H2 6565   0.303   4.486   5.839 -1.9616  0.2115  0.9267
 2201TIP3   OH2 6566   2.792   4.068   3.608  0.3019 -0.2024 -0.1474
 2201TIP3    H1 6567   2.795   4.163   3.597  2.8616 -0.1522  0.3864
 2201TIP3    H2 6568   2.829   4.033   3.526 -0.3434 -0.7451 -0.2209
 2202TIP3   OH2 6569   7.116   2.860   3.359  0.1460  0.5919 -0.1802
 2202TIP3    H1 6570   7.063   2.880   3.282  1.8313 -3.0136 -2.5819
 2202TIP3    H2 6571   7.062   2.799   3.410  0.2334  0.4730 -0.2288
 2203TIP3   OH2 6572   6.600   5.300   0.275  0.3225  0.4960 -0.1271
 2203TIP3    H1 6573   6.686   5.342   0.279  0.1130  1.2184 -2.0231
 2203TIP3    H2 6574   6.557   5.341   0.199 -0.2232 -2.4815 -1.5785
 2204TIP3   OH2 6575   2.295   2.273   3.218  0.0327  0.0121  0.4015
 2204TIP3    H1 6576   2.278   2.360   3.182  0.1913 -0.0427  0.1976
 2204TIP3    H2 6577   2.390   2.266   3.220  0.0218 -0.0882  0.5850
 2205TIP3   OH2 6578   7.086   3.125   1.673 -0.3425  0.0363 -0.7278
 2205TIP3    H1 6579   7.125   3.187   1.611  0.5034 -1.0189 -1.2820
 2205TIP3    H2 6580   6.999   3.107   1.637 -0.2815  0.2759 -1.0021
 2206TIP3   OH2 6581   1.094   1.319   5.103  0.2231  0.1712 -0.1379
 2206TIP3    H1 6582   1.020   1.328   5.042 -1.4196  0.0209  1.7077
 2206TIP3    H2 6583   1.094   1.226   5.127  1.3874  0.0602 -0.5525
 2207TIP3   OH2 6584   7.103   1.470   4.819  0.5240 -0.1552  0.3126
 2207TIP3    H1 6585   7.192   1.436   4.830  0.9329  0.6881 -0.2421
 2207TIP3    H2 6586   7.109   1.562   4.843 -0.5213 -0.4042  1.6165
 2208TIP3   OH2 6587   0.790   4.422   2.917 -0.0927 -0.8194  0.3514
 2208TIP3    H1 6588   0.763   4.463   2.835 -1.0378 -0.4445  0.8353
 2208TIP3    H2 6589   0.713   4.429   2.974  0.5629 -1.0253  1.2881
 2209TIP3   OH2 6590   6.475   5.044   1.634  0.2479  0.0719  0.2298
 2209TIP3    H1 6591   6.421   5.012   1.561  0.7035  1.0802 -0.5886
 2209TIP3    H2 6592   6.466   4.978   1.702  1.2879 -1.8813 -1.4196
 2210TIP3   OH2 6593   3.483   4.302   1.917  0.1659  0.4094  0.2792
 2210TIP3    H1 6594   3.401   4.268   1.881  0.9157  0.2979 -1.4205
 2210TIP3    H2 6595   3.539   4.225   1.923  1.3872  1.0001 -2.2098
 2211TIP3   OH2 6596   5.834   3.726   2.398  0.5181  0.3209 -0.6843
 2211TIP3    H1 6597   5.800   3.797   2.453 -1.1195  0.0749 -1.3317
 2211TIP3    H2 6598   5.919   3.705   2.437 -0.3701  0.4449  1.4939
 2212TIP3   OH2 6599   5.392   4.945   4.854 -0.1083  0.1925  0.5550
 2212TIP3    H1 6600   5.332   4.875   4.829 -1.0448  1.5051 -1.0539
 2212TIP3    H2 6601   5.460   4.901   4.905 -0.4031 -1.9596 -0.7899
 2213TIP3   OH2 6602   0.098   4.415   2.350  0.8078  0.5658 -0.0027
 2213TIP3    H1 6603   0.176   4.438   2.299  0.9676 -0.0829 -0.0644
 2213TIP3    H2 6604   0.040   4.373   2.287  0.1160  1.6291 -0.1060
 2214TIP3   OH2 6605   2.321   2.723   5.003  0.1572  0.0873  0.3933
 2214TIP3    H1 6606   2.227   2.709   5.014  0.1282  0.1983  0.2838
 2214TIP3    H2 6607   2.332   2.818   5.007 -0.0596  0.2849 -2.0868
 2215TIP3   OH2 6608   3.409   1.967   1.299 -0.0617 -0.0496 -0.2914
 2215TIP3    H1 6609   3.497   2.001   1.310 -0.8522  1.6436  1.2911
 2215TIP3    H2 6610   3.396   1.961   1.204  1.3529  0.7172 -0.5438
 2216TIP3   OH2 6611   1.599   3.469   5.805  0.0128  0.6147 -0.1567
 2216TIP3    H1 6612   1.545   3.416   5.747 -2.1051 -0.2996  2.4877
 2216TIP3    H2 6613   1.676   3.414   5.823  1.1078  1.2177 -2.5402
 2217TIP3   OH2 6614   4.105   4.415   0.484  0.0862  0.2281 -0.1880
 2217TIP3    H1 6615   4.134   4.439   0.571  0.3084  1.4440 -0.5828
 2217TIP3    H2 6616   4.145   4.329   0.468  1.6192  0.8556  0.1634
 2218TIP3   OH2 6617   6.881   3.286   5.366  0.1047  0.4201  0.2169
 2218TIP3    H1 6618   6.828   3.256   5.440  1.3672  0.1150  1.0553
 2218TIP3    H2 6619   6.898   3.207   5.315 -0.1862  0.5032 -0.0085
 2219TIP3   OH2 6620   1.860   1.197   2.106  0.3621 -0.5370  0.4197
 2219TIP3    H1 6621   1.860   1.196   2.010  1.5995 -0.9597  0.3996
 2219TIP3    H2 6622   1.771   1.222   2.130  0.3021  0.5783 -0.8461
 2220TIP3   OH2 6623   2.471   0.959   0.180  0.3237  0.5334 -0.5971
 2220TIP3    H1 6624   2.555   1.005   0.170  0.5223 -0.1520 -2.5389
 2220TIP3    H2 6625   2.480   0.882   0.124 -1.8161  0.7409 -1.2902
 2221TIP3   OH2 6626   0.119   1.599   1.615  0.0071  0.2714 -0.0027
 2221TIP3    H1 6627   0.195   1.542   1.623 -1.6161 -2.2853 -1.3327
 2221TIP3    H2 6628   0.101   1.602   1.521 -1.3331  1.0599  0.2546
 2222TIP3   OH2 6629   4.313   4.640   3.267  0.4673  0.0043  0.2424
 2222TIP3    H1 6630   4.273   4.576   3.326 -0.8685 -1.2578 -1.8959
 2222TIP3    H2 6631   4.316   4.595   3.182 -4.4137  3.9533 -2.5244
 2223TIP3   OH2 6632   5.232   0.949   5.060  0.7213 -0.4612  0.1773
 2223TIP3    H1 6633   5.271   0.965   5.146 -0.4924  0.3648  0.6046
 2223TIP3    H2 6634   5.138   0.955   5.076  0.4888  0.0350 -1.2672
 2224TIP3   OH2 6635   0.534   6.478   1.916  0.4676 -0.4063  0.1853
 2224TIP3    H1 6636   0.500   6.529   1.990 -0.1622 -1.1074  0.3924
 2224TIP3    H2 6637   0.578   6.404   1.957  1.8399  0.2104 -0.0966
 2225TIP3   OH2 6638   1.064   4.886   3.938  0.0165 -0.2178 -0.4268
 2225TIP3    H1 6639   1.079   4.964   3.992 -0.6158 -1.1470  1.1684
 2225TIP3    H2 6640   1.012   4.828   3.994 -1.2260 -0.9802 -2.2933
 2226TIP3   OH2 6641   3.869   5.940   3.519 -0.0452  0.4361  0.1948
 2226TIP3    H1 6642   3.923   5.986   3.455  0.5623  2.6299  2.1581
 2226TIP3    H2 6643   3.889   5.847   3.505  3.1033  1.0706 -0.1694
 2227TIP3   OH2 6644   7.130   5.666   1.582  0.4170  0.6398 -0.3376
 2227TIP3    H1 6645   7.204   5.640   1.636  1.3484 -0.3739 -2.0163
 2227TIP3    H2 6646   7.169   5.702   1.502 -0.9125  1.5518 -0.6196
 2228TIP3   OH2 6647   3.524   0.612   5.082  0.3646 -0.3512 -0.7799
 2228TIP3    H1 6648   3.555   0.537   5.031  0.7092 -0.3822 -0.5330
 2228TIP3    H2 6649   3.467   0.660   5.022  1.5470  0.1534 -1.5357
 2229TIP3   OH2 6650   2.403   2.253   1.569 -0.1497  0.4747  0.2791
 2229TIP3    H1 6651   2.405   2.339   1.612 -0.7964  1.1744 -0.9998
 2229TIP3    H2 6652   2.489   2.246   1.527  0.7381 -0.5044  2.1467
 2230TIP3   OH2 6653   6.810   4.956   1.750  1.0555  0.1020  0.0791
 2230TIP3    H1 6654   6.761   4.926   1.674  0.2124 -1.1391  1.0754
 2230TIP3    H2 6655   6.856   4.879   1.782  0.2307  0.2168  1.6770
 2231TIP3   OH2 6656   3.125   4.512   4.930  0.0311  0.5665 -0.2152
 2231TIP3    H1 6657   3.030   4.513   4.917  0.2152  0.9530 -1.5908
 2231TIP3    H2 6658   3.161   4.473   4.851  1.0400  0.5507  0.2272
 2232TIP3   OH2 6659   5.919   1.486   1.944  0.6996  0.1440  0.1979
 2232TIP3    H1 6660   5.874   1.542   1.880 -2.2562 -0.1097  1.8920
 2232TIP3    H2 6661   5.954   1.547   2.009  0.6054  0.2204  0.1773
 2233TIP3   OH2 6662   4.559   1.037   4.442  0.1272  0.1108 -0.3843
 2233TIP3    H1 6663   4.577   1.106   4.379 -2.7455  0.7793 -0.5976
 2233TIP3    H2 6664   4.531   0.963   4.389 -0.4091  0.0299  0.0063
 2234TIP3   OH2 6665   5.149   1.393   0.329  0.5114 -0.2734 -0.0938
 2234TIP3    H1 6666   5.156   1.298   0.334  1.3921 -0.2012  0.1785
 2234TIP3    H2 6667   5.100   1.418   0.408  2.2269 -0.3275  1.0225
 2235TIP3   OH2 6668   4.700   0.360   4.700  0.3303  0.8604 -0.6789
 2235TIP3    H1 6669   4.650   0.360   4.781 -0.4522 -1.0085 -1.1011
 2235TIP3    H2 6670   4.677   0.442   4.657 -1.1197  0.7814 -0.0987
 2236TIP3   OH2 6671   3.240   5.376   1.711  0.4241 -0.0568  0.2636
 2236TIP3    H1 6672   3.327   5.398   1.679  0.7351 -2.3276 -0.5839
 2236TIP3    H2 6673   3.206   5.312   1.649 -1.2005 -0.4357  1.4663
 2237TIP3   OH2 6674   3.970   4.075   3.266 -0.4522  0.4920  0.3601
 2237TIP3    H1 6675   4.000   3.986   3.245  0.7314  0.6192  1.3804
 2237TIP3    H2 6676   3.874   4.069   3.262 -0.3837 -0.7305  0.0420
 2238TIP3   OH2 6677   0.777   1.011   2.885  0.0589  0.3160  0.3295
 2238TIP3    H1 6678   0.732   1.051   2.960  1.4883  0.6896  1.0186
 2238TIP3    H2 6679   0.862   0.985   2.919 -0.8141 -3.6075 -0.0025
 2239TIP3   OH2 6680   5.900   0.372   1.454  0.2645  0.8366 -0.0453
 2239TIP3    H1 6681   5.937   0.444   1.504  0.0261  2.3113 -1.8889
 2239TIP3    H2 6682   5.842   0.327   1.516  1.3911  1.4134  1.4920
 2240TIP3   OH2 6683   4.975   1.539   4.327 -0.2773  0.4737 -0.0469
 2240TIP3    H1 6684   5.068   1.514   4.322 -0.4284  0.1448 -1.9548
 2240TIP3    H2 6685   4.932   1.463   4.367  0.0894  0.0422 -0.4579
 2241TIP3   OH2 6686   5.788   4.050   3.269 -0.3290 -0.3540  0.1743
 2241TIP3    H1 6687   5.711   4.095   3.304  0.5171  2.9409 -1.7687
 2241TIP3    H2 6688   5.860   4.110   3.288  0.7866 -0.4424 -3.2600
 2242TIP3   OH2 6689   2.221   0.465   2.705  0.7131  0.6676  0.2673
 2242TIP3    H1 6690   2.206   0.533   2.769  0.4216 -0.3205  1.2771
 2242TIP3    H2 6691   2.238   0.386   2.757 -0.0959 -0.2820 -0.8616
 2243TIP3   OH2 6692   0.136   6.208   4.518 -0.0440 -0.1700 -0.1267
 2243TIP3    H1 6693   0.144   6.298   4.548  1.2222  0.0133 -0.9248
 2243TIP3    H2 6694   0.226   6.175   4.516 -0.5279 -1.6906  0.8077
 2244TIP3   OH2 6695   1.853   2.729   1.654  0.1000 -0.5487  0.1290
 2244TIP3    H1 6696   1.805   2.729   1.737  2.0426  0.1215  1.3106
 2244TIP3    H2 6697   1.892   2.816   1.649  1.9966 -1.3736 -0.2644
 2245TIP3   OH2 6698   1.178   5.824   1.911  0.1843  0.0066 -0.6707
 2245TIP3    H1 6699   1.207   5.900   1.961 -1.2167 -1.1931  2.2272
 2245TIP3    H2 6700   1.124   5.861   1.840  1.8518  1.7769 -1.1020
 2246TIP3   OH2 6701   0.500   4.344   4.928  0.3132 -0.0519  0.2036
 2246TIP3    H1 6702   0.550   4.425   4.912  2.0140 -1.2536 -0.9163
 2246TIP3    H2 6703   0.461   4.324   4.843 -1.8117  0.6225  0.9611
 2247TIP3   OH2 6704   6.618   6.415   3.925  0.2013  0.1308  0.0853
 2247TIP3    H1 6705   6.625   6.476   3.998 -2.1385  0.0860  0.4340
 2247TIP3    H2 6706   6.523   6.406   3.911  0.5661 -0.5887 -2.3435
 2248TIP3   OH2 6707   4.334   3.339   5.555 -0.6029 -0.0199  0.0797
 2248TIP3    H1 6708   4.251   3.330   5.509 -0.7539 -1.0164  0.5081
 2248TIP3    H2 6709   4.400   3.343   5.486 -0.9343 -0.1281 -0.2471
 2249TIP3   OH2 6710   0.846   0.653   4.729  0.0837 -0.2378  0.0975
 2249TIP3    H1 6711   0.807   0.602   4.659 -0.9114 -1.6945  1.6438
 2249TIP3    H2 6712   0.939   0.628   4.729  0.3827  0.7045 -1.4180
 2250TIP3   OH2 6713   2.379   2.958   1.910 -0.3537 -0.7977  0.2614
 2250TIP3    H1 6714   2.423   2.934   1.992 -0.8550 -0.1691  0.7268
 2250TIP3    H2 6715   2.294   2.993   1.938 -0.1599  0.2893 -0.4609
 2251TIP3   OH2 6716   6.832   6.535   1.548 -0.1613  0.1539 -0.4708
 2251TIP3    H1 6717   6.789   6.468   1.602  2.9019 -0.9590  0.8210
 2251TIP3    H2 6718   6.800   6.518   1.459 -2.3568 -0.5101  0.3935
 2252TIP3   OH2 6719   6.219   5.036   5.350  0.0885 -0.2655  0.0091
 2252TIP3    H1 6720   6.267   4.954   5.362 -1.3086 -1.2961 -1.0653
 2252TIP3    H2 6721   6.235   5.060   5.259  0.5945  0.7565  0.3500
 2253TIP3   OH2 6722   2.684   3.757   0.649 -0.7091  1.0983  0.1746
 2253TIP3    H1 6723   2.605   3.811   0.647 -1.3601  0.1611 -1.2016
 2253TIP3    H2 6724   2.652   3.667   0.642  0.4836  0.7404 -1.1830
 2254TIP3   OH2 6725   3.060   0.483   2.231 -0.0666 -0.4079  0.4721
 2254TIP3    H1 6726   3.000   0.504   2.302 -0.5967 -0.3656  0.0246
 2254TIP3    H2 6727   3.147   0.479   2.272 -0.1722  0.9470  0.8840
 2255TIP3   OH2 6728   1.370   5.768   5.796 -0.5336  0.1165 -0.0375
 2255TIP3    H1 6729   1.440   5.807   5.848  0.2616 -1.5485  0.2010
 2255TIP3    H2 6730   1.290   5.788   5.845  0.0130  0.1160  0.8637
 2256TIP3   OH2 6731   1.720   1.929   2.385  0.2603  0.0900  0.3074
 2256TIP3    H1 6732   1.744   2.018   2.359  0.5471 -0.2246 -0.5430
 2256TIP3    H2 6733   1.802   1.880   2.381 -0.2955 -0.7681 -1.6155
 2257TIP3   OH2 6734   1.127   1.690   4.613  0.0776  0.3753  0.1114
 2257TIP3    H1 6735   1.159   1.779   4.597 -2.4854  1.3974  0.1458
 2257TIP3    H2 6736   1.141   1.644   4.530 -2.2899  2.1099 -1.3654
 2258TIP3   OH2 6737   4.360   0.335   3.001 -0.3749 -0.0506  0.0507
 2258TIP3    H1 6738   4.403   0.396   2.942  1.3543 -1.5433 -0.3468
 2258TIP3    H2 6739   4.359   0.252   2.953 -0.0327 -1.0138  1.6307
 2259TIP3   OH2 6740   6.735   6.043   5.163 -0.4452  0.6067  0.3767
 2259TIP3    H1 6741   6.800   6.043   5.092 -0.6621  1.5200  0.1680
 2259TIP3    H2 6742   6.651   6.057   5.119 -0.8072 -0.5691  0.6473
 2260TIP3   OH2 6743   6.501   5.664   0.330 -0.9345  0.0995  0.0224
 2260TIP3    H1 6744   6.581   5.688   0.283 -1.1671  2.2762  0.6077
 2260TIP3    H2 6745   6.532   5.622   0.411 -0.5170 -2.4246 -1.3444
 2261TIP3   OH2 6746   1.294   6.642   5.636 -0.0021 -0.2553  0.5655
 2261TIP3    H1 6747   1.238   6.719   5.645 -1.4906 -1.3112  0.6722
 2261TIP3    H2 6748   1.250   6.587   5.572  0.9348 -1.1211  0.6297
 2262TIP3   OH2 6749   0.944   6.179   5.304 -0.1633  0.2894 -0.5287
 2262TIP3    H1 6750   0.878   6.243   5.275 -0.1064  0.0177 -1.2804
 2262TIP3    H2 6751   0.917   6.156   5.393 -0.3212  1.1822 -0.3325
 2263TIP3   OH2 6752   6.338   5.384   0.060  0.6802  0.1271 -0.0082
 2263TIP3    H1 6753   6.280   5.308   0.062  1.7041 -0.7016 -0.2947
 2263TIP3    H2 6754   6.317   5.428  -0.022 -0.2083  0.4001  0.3542
 2264TIP3   OH2 6755   0.760   5.048   2.902 -0.1470  0.5169 -0.1799
 2264TIP3    H1 6756   0.701   4.975   2.883 -0.1367  0.4779 -0.0606
 2264TIP3    H2 6757   0.716   5.125   2.865  0.7086  0.1840 -1.9962
 2265TIP3   OH2 6758   6.549   5.275   2.199 -0.2898  0.0239  0.2789
 2265TIP3    H1 6759   6.465   5.311   2.226 -0.0361  0.2642  0.7557
 2265TIP3    H2 6760   6.573   5.213   2.268  0.3849  0.6739  0.6422
 2266TIP3   OH2 6761   6.372   5.417   5.750 -0.5822  0.1735 -0.0152
 2266TIP3    H1 6762   6.314   5.346   5.779 -2.8917  1.4943 -1.1522
 2266TIP3    H2 6763   6.379   5.475   5.825 -0.1791 -0.3003  0.3238
 2267TIP3   OH2 6764   6.249   2.002   1.115  0.3160 -0.5090 -0.1126
 2267TIP3    H1 6765   6.284   2.051   1.040 -0.4933  0.6192  0.2132
 2267TIP3    H2 6766   6.326   1.966   1.158  0.7264 -2.8621 -2.5574
 2268TIP3   OH2 6767   3.933   1.281   0.482 -0.2564 -0.5791 -0.6484
 2268TIP3    H1 6768   4.002   1.252   0.422  0.3893  0.5013 -0.4455
 2268TIP3    H2 6769   3.863   1.312   0.424 -0.0175 -0.4126 -0.8514
 2269TIP3   OH2 6770   2.679   3.969   1.632  0.0696 -0.2642  0.3739
 2269TIP3    H1 6771   2.752   4.015   1.672  0.6352 -0.3501 -0.5359
 2269TIP3    H2 6772   2.698   3.876   1.647  0.3260 -0.2997 -0.1580
 2270TIP3   OH2 6773   0.847   0.271   0.041  0.5030  0.5234  0.4170
 2270TIP3    H1 6774   0.840   0.182   0.075 -1.6110  0.9556  1.2900
 2270TIP3    H2 6775   0.921   0.268  -0.020 -1.1354 -2.4960 -1.6858
 2271TIP3   OH2 6776   5.933   4.134   4.166  0.2931  0.0814 -1.1624
 2271TIP3    H1 6777   5.922   4.042   4.190 -2.2428  0.2771 -1.3473
 2271TIP3    H2 6778   5.980   4.132   4.082  1.8934 -0.9130 -0.2994
 2272TIP3   OH2 6779   1.334   4.809   3.905  0.2718  0.3011  0.1671
 2272TIP3    H1 6780   1.239   4.820   3.904  0.2624  0.2190  0.1704
 2272TIP3    H2 6781   1.366   4.885   3.953  0.2202  0.4219  0.0119
 2273TIP3   OH2 6782   5.466   5.713   5.858 -0.4212  0.0717  0.2368
 2273TIP3    H1 6783   5.397   5.698   5.794 -0.3502  1.4015 -0.1870
 2273TIP3    H2 6784   5.547   5.704   5.808 -0.2696 -1.3729  0.7076
 2274TIP3   OH2 6785   4.130   0.666   1.449 -0.2244 -0.1878 -0.3059
 2274TIP3    H1 6786   4.076   0.661   1.528 -1.3308  3.4895 -0.6783
 2274TIP3    H2 6787   4.213   0.627   1.475 -0.8773 -0.0025  2.3654
 2275TIP3   OH2 6788   4.527   2.974   2.011 -0.1245 -0.4841 -0.7018
 2275TIP3    H1 6789   4.610   2.930   2.030 -0.4651 -1.0099 -0.3838
 2275TIP3    H2 6790   4.493   2.999   2.097 -0.1254  0.0569 -0.8556
 2276TIP3   OH2 6791   4.772   5.629   0.815  0.2873  0.1062  0.4062
 2276TIP3    H1 6792   4.796   5.545   0.855  0.1174 -0.6429 -0.9804
 2276TIP3    H2 6793   4.839   5.643   0.748  0.8675  1.5887  1.2516
 2277TIP3   OH2 6794   1.904   3.650   4.580  0.2447  0.2947 -0.2638
 2277TIP3    H1 6795   1.875   3.720   4.521 -0.2054  0.7851  0.5255
 2277TIP3    H2 6796   1.850   3.574   4.555  1.4850 -0.1232 -1.8539
 2278TIP3   OH2 6797   6.594   4.744   1.411  0.2367 -0.4453 -0.0232
 2278TIP3    H1 6798   6.526   4.685   1.378 -0.1478  1.5390 -3.1512
 2278TIP3    H2 6799   6.593   4.730   1.506 -2.9846 -2.0937 -0.1495
 2279TIP3   OH2 6800   2.319   4.203   1.948  0.4976  0.1773 -0.3150
 2279TIP3    H1 6801   2.232   4.223   1.984 -0.0925 -0.4766 -1.3419
 2279TIP3    H2 6802   2.372   4.278   1.974 -0.5847  1.0011 -0.3699
 2280TIP3   OH2 6803   6.837   5.015   2.128  0.7247 -0.2993 -0.2194
 2280TIP3    H1 6804   6.775   5.066   2.077  0.4176 -0.3062  0.1422
 2280TIP3    H2 6805   6.923   5.048   2.101  0.5828 -0.4752 -0.9190
 2281TIP3   OH2 6806   3.941   2.876   4.506 -0.1894  0.1680 -0.3990
 2281TIP3    H1 6807   3.933   2.971   4.514 -1.5350 -0.0109  0.8299
 2281TIP3    H2 6808   3.866   2.850   4.453 -1.0166 -0.3954  1.0146
 2282TIP3   OH2 6809   7.016   4.297   3.655  0.3961 -0.3586 -0.2435
 2282TIP3    H1 6810   6.981   4.234   3.718 -0.1850 -0.6921 -0.8802
 2282TIP3    H2 6811   7.106   4.312   3.684  0.6959 -1.8309 -0.3256
 2283TIP3   OH2 6812   0.618   3.978   0.367  0.3582 -0.6264 -0.3137
 2283TIP3    H1 6813   0.690   3.917   0.384  0.0987 -0.6319  0.8358
 2283TIP3    H2 6814   0.544   3.922   0.344  0.5852 -0.6412 -1.0482
 2284TIP3   OH2 6815   1.062   6.027   5.094 -0.1508 -0.5000 -0.5084
 2284TIP3    H1 6816   1.082   5.934   5.096  0.4737 -0.3702 -0.6743
 2284TIP3    H2 6817   0.982   6.035   5.146  0.2895 -1.0025  0.2736
 2285TIP3   OH2 6818   5.364   0.258   3.209  0.2433  0.4906  0.4748
 2285TIP3    H1 6819   5.294   0.302   3.161 -0.2722  0.6048  1.3261
 2285TIP3    H2 6820   5.375   0.310   3.288  2.8189  1.8096 -0.6178
 2286TIP3   OH2 6821   3.353   1.956   4.399  0.2538  0.3537 -0.2484
 2286TIP3    H1 6822   3.267   1.989   4.370 -1.1023 -1.0705  1.8461
 2286TIP3    H2 6823   3.361   1.870   4.357  0.6662  0.4650 -0.4047
 2287TIP3   OH2 6824   0.286   0.820   3.570 -0.3757  0.6458 -0.5474
 2287TIP3    H1 6825   0.321   0.892   3.519  0.4167  0.7581  0.1370
 2287TIP3    H2 6826   0.216   0.859   3.623 -0.4909  0.7433 -0.7719
 2288TIP3   OH2 6827   0.978   0.730   0.270  0.2974 -0.1700  0.0508
 2288TIP3    H1 6828   0.968   0.640   0.239  1.8647 -0.0405 -0.9453
 2288TIP3    H2 6829   0.905   0.777   0.231  0.2266 -0.7519 -0.5356
 2289TIP3   OH2 6830   4.871   0.711   4.728 -0.3452 -0.0724 -0.3443
 2289TIP3    H1 6831   4.887   0.709   4.634  0.2488  0.2020 -0.2518
 2289TIP3    H2 6832   4.919   0.636   4.763  0.1783  0.3523 -0.1498
 2290TIP3   OH2 6833   3.164   2.815   0.470 -0.8366 -0.1791  0.1077
 2290TIP3    H1 6834   3.224   2.752   0.510 -1.4521 -0.4091  0.6852
 2290TIP3    H2 6835   3.089   2.763   0.441 -1.0284  0.1897 -0.0762
 2291TIP3   OH2 6836   5.581   3.387   4.950  0.3912 -0.3124 -0.3789
 2291TIP3    H1 6837   5.535   3.466   4.923 -0.0190 -0.6018 -0.5521
 2291TIP3    H2 6838   5.674   3.407   4.939  0.2720 -0.9199 -3.5879
 2292TIP3   OH2 6839   5.441   6.416   5.041 -0.2419  0.0693 -0.7206
 2292TIP3    H1 6840   5.474   6.366   5.116  0.4745  2.7243  0.9045
 2292TIP3    H2 6841   5.346   6.413   5.050 -0.1877 -0.4207 -0.2621
 2293TIP3   OH2 6842   3.692   1.859   5.401 -0.0250  0.3110  0.1650
 2293TIP3    H1 6843   3.680   1.766   5.420  0.2990  0.2119 -0.1196
 2293TIP3    H2 6844   3.670   1.903   5.484  1.3496 -0.1111  0.7825
 2294TIP3   OH2 6845   1.334   4.411   1.912 -0.2775  0.4222 -0.1867
 2294TIP3    H1 6846   1.271   4.482   1.899 -2.6662 -1.6100 -0.4575
 2294TIP3    H2 6847   1.342   4.404   2.007 -2.8337 -1.0953  0.0260
 2295TIP3   OH2 6848   6.448   1.327   5.399  0.3060  0.3088 -0.2100
 2295TIP3    H1 6849   6.502   1.364   5.469  0.3995 -0.1992 -0.0142
 2295TIP3    H2 6850   6.424   1.403   5.345 -0.8793  0.9457  1.1208
 2296TIP3   OH2 6851   6.763   2.179   4.115  0.3197  0.2020 -0.2568
 2296TIP3    H1 6852   6.708   2.177   4.193 -0.4490  1.0164 -0.7664
 2296TIP3    H2 6853   6.852   2.163   4.148  0.0309  0.7307  0.8000
 2297TIP3   OH2 6854   4.568   6.584   5.355 -0.3770  0.3987 -0.1987
 2297TIP3    H1 6855   4.625   6.660   5.348 -0.6144  0.4458 -2.4141
 2297TIP3    H2 6856   4.527   6.592   5.441  1.5334  1.3368  0.6832
 2298TIP3   OH2 6857   3.218   1.793   0.144  0.3800  0.6790  0.0157
 2298TIP3    H1 6858   3.140   1.827   0.101 -0.3052  0.9248  1.3948
 2298TIP3    H2 6859   3.276   1.768   0.073 -0.9739  0.4546 -1.0337
 2299TIP3   OH2 6860   0.619   4.908   0.069 -0.4442  0.0047  0.1737
 2299TIP3    H1 6861   0.682   4.836   0.060 -0.3254  0.0569  0.5815
 2299TIP3    H2 6862   0.608   4.919   0.163 -0.5567  0.4371  0.1140
 2300TIP3   OH2 6863   5.960   0.764   1.339 -0.1453  0.0578 -0.1658
 2300TIP3    H1 6864   5.874   0.728   1.363  1.0597 -2.9745 -0.0516
 2300TIP3    H2 6865   5.980   0.724   1.254  1.6187 -0.1150  0.3094
 2301TIP3   OH2 6866   4.580   4.827   1.918 -0.2813  0.1078 -0.8414
 2301TIP3    H1 6867   4.620   4.882   1.985 -1.5890 -0.5954  0.5893
 2301TIP3    H2 6868   4.628   4.847   1.838  1.0618  1.2885  0.2125
 2302TIP3   OH2 6869   6.134   4.831   3.110  0.0762 -0.1700 -0.5286
 2302TIP3    H1 6870   6.051   4.846   3.155  0.5899  0.4148  0.2594
 2302TIP3    H2 6871   6.137   4.898   3.042 -1.3425 -1.9146 -2.4466
 2303TIP3   OH2 6872   1.654   5.072   0.248 -0.5244 -0.1630 -0.2535
 2303TIP3    H1 6873   1.594   5.103   0.316 -0.1813  2.0771 -0.8875
 2303TIP3    H2 6874   1.740   5.104   0.277 -0.3328  0.5645 -1.5385
 2304TIP3   OH2 6875   1.385   0.621   4.210  0.3912 -0.2575 -0.0232
 2304TIP3    H1 6876   1.457   0.566   4.239 -0.4690 -2.2329 -1.3868
 2304TIP3    H2 6877   1.380   0.691   4.275  1.7454 -1.6027  1.6262
 2305TIP3   OH2 6878   1.058   4.007   0.679 -0.0440 -0.1152  0.7192
 2305TIP3    H1 6879   1.080   3.915   0.688  0.1912 -0.0569  0.7548
 2305TIP3    H2 6880   0.981   4.019   0.734  0.3349 -0.1411  1.2626
 2306TIP3   OH2 6881   3.981   0.903   2.438 -0.1898 -0.2121 -0.3128
 2306TIP3    H1 6882   3.967   0.815   2.472 -3.2489  0.1520 -0.4080
 2306TIP3    H2 6883   4.009   0.954   2.514  1.4363 -1.1721 -0.2234
 2307TIP3   OH2 6884   4.951   5.643   2.116  0.2512 -0.5274  0.4019
 2307TIP3    H1 6885   4.992   5.729   2.109  1.2093 -1.0851 -1.7217
 2307TIP3    H2 6886   5.018   5.586   2.153  0.6590 -0.9458 -0.9185
 2308TIP3   OH2 6887   4.679   1.700   3.201  0.3984  0.2863  0.4453
 2308TIP3    H1 6888   4.640   1.741   3.278  1.8259 -1.1719  2.0443
 2308TIP3    H2 6889   4.744   1.763   3.170 -1.8230  1.9561 -1.1726
 2309TIP3   OH2 6890   6.673   5.522   5.027 -0.2899  0.0742 -0.3869
 2309TIP3    H1 6891   6.635   5.568   5.102  0.6891 -0.7856  0.6782
 2309TIP3    H2 6892   6.758   5.565   5.013 -1.4741  1.9115 -2.6793
 2310TIP3   OH2 6893   5.992   3.641   4.888 -0.1764 -0.8133 -0.5941
 2310TIP3    H1 6894   5.993   3.587   4.966 -1.7701  1.0623  0.8430
 2310TIP3    H2 6895   6.074   3.622   4.843  1.2096 -1.3023  1.9963
 2311TIP3   OH2 6896   1.734   0.787   5.169 -0.3310  0.7899 -0.2402
 2311TIP3    H1 6897   1.685   0.719   5.123 -0.6366  0.5306  0.4604
 2311TIP3    H2 6898   1.707   0.869   5.127  0.7809  0.4281 -1.7594
 2312TIP3   OH2 6899   0.170   5.175   1.538  0.5240 -1.0134 -0.7108
 2312TIP3    H1 6900   0.228   5.242   1.501  0.6621 -0.2991  0.7227
 2312TIP3    H2 6901   0.226   5.124   1.597 -0.0305 -1.0398 -0.1881
 2313TIP3   OH2 6902   2.949   3.348  -0.000  0.8052  0.0793 -0.0873
 2313TIP3    H1 6903   2.948   3.275   0.062 -0.5935 -1.6600 -2.0200
 2313TIP3    H2 6904   2.869   3.396   0.019  0.2340 -0.6132 -0.6626
 2314TIP3   OH2 6905   7.243   1.998   5.073 -0.2409 -0.0974 -0.9614
 2314TIP3    H1 6906   7.180   2.049   5.124 -0.5983 -0.2050 -1.2921
 2314TIP3    H2 6907   7.193   1.965   4.999  0.0840 -0.6154 -0.9509
 2315TIP3   OH2 6908   4.720   1.393   4.757  0.1170 -0.7921  0.9740
 2315TIP3    H1 6909   4.650   1.448   4.792  1.1125  0.6618  0.7619
 2315TIP3    H2 6910   4.723   1.415   4.664  0.9138 -0.7742  1.0004
 2316TIP3   OH2 6911   4.454   2.641   4.246 -0.1937  0.4483  0.0939
 2316TIP3    H1 6912   4.547   2.647   4.223  0.2186  1.4426  1.8769
 2316TIP3    H2 6913   4.454   2.596   4.331 -1.4151 -0.1395 -0.1957
 2317TIP3   OH2 6914   1.589   0.449   2.832 -0.0626  0.2742 -0.0166
 2317TIP3    H1 6915   1.561   0.379   2.890  0.6912 -0.2085 -0.2285
 2317TIP3    H2 6916   1.577   0.414   2.744 -0.7256  0.8200 -0.1554
 2318TIP3   OH2 6917   3.753   0.855   3.557 -0.7234  0.3848  0.4593
 2318TIP3    H1 6918   3.719   0.829   3.643 -1.5318 -0.9820 -0.2460
 2318TIP3    H2 6919   3.733   0.948   3.550 -0.4565  0.5721  1.8273
 2319TIP3   OH2 6920   2.862   5.369   5.914  0.0954  0.5025 -0.3959
 2319TIP3    H1 6921   2.873   5.410   5.828 -0.5313  1.9465  0.1850
 2319TIP3    H2 6922   2.932   5.304   5.919  0.6314  0.9620 -1.6620
 2320TIP3   OH2 6923   5.278   0.390   3.689  0.1307 -0.0361 -0.2309
 2320TIP3    H1 6924   5.289   0.483   3.707  0.2715  0.0083 -0.5297
 2320TIP3    H2 6925   5.366   0.359   3.668  0.0422 -0.1754 -0.4068
 2321TIP3   OH2 6926   3.728   5.796   1.536 -0.0992 -0.0542 -0.3817
 2321TIP3    H1 6927   3.663   5.865   1.525  0.0590  0.1452 -0.1014
 2321TIP3    H2 6928   3.699   5.726   1.479 -1.9577 -1.0000  1.5702
 2322TIP3   OH2 6929   4.304   4.513   3.033  0.4106 -0.2886 -0.3167
 2322TIP3    H1 6930   4.256   4.434   3.009 -0.5969 -0.2272  1.3532
 2322TIP3    H2 6931   4.318   4.559   2.950  0.1855 -1.7440 -1.1936
 2323TIP3   OH2 6932   1.387   6.412   4.995 -0.5987 -0.1696  0.2761
 2323TIP3    H1 6933   1.336   6.401   5.075  0.2336 -2.5525  0.5717
 2323TIP3    H2 6934   1.470   6.450   5.025 -0.6653 -0.1320  0.4120
 2324TIP3   OH2 6935   1.916   1.280   3.615 -0.6805 -0.1607 -0.3027
 2324TIP3    H1 6936   1.923   1.365   3.659  1.5479  0.4896 -1.7490
 2324TIP3    H2 6937   1.841   1.238   3.657 -0.8807  1.8514  1.5641
 2325TIP3   OH2 6938   6.767   1.653   4.795  0.1758  0.1374 -0.3367
 2325TIP3    H1 6939   6.685   1.613   4.825 -1.5948  3.4882 -0.2183
 2325TIP3    H2 6940   6.761   1.652   4.699  0.1506  0.1260 -0.3349
 2326TIP3   OH2 6941   3.775   1.067   2.663  0.6916 -0.4387 -0.1534
 2326TIP3    H1 6942   3.691   1.026   2.683 -0.2836  2.2344  1.7942
 2326TIP3    H2 6943   3.751   1.150   2.622  2.3885  0.2298  0.1465
 2327TIP3   OH2 6944   2.934   1.903   3.329  0.0106  0.3715  0.4362
 2327TIP3    H1 6945   2.992   1.829   3.346 -0.1216  0.1021 -0.2273
 2327TIP3    H2 6946   2.846   1.864   3.323 -0.0553  0.5684  0.0571
 2328TIP3   OH2 6947   3.464   2.374   0.196  0.0104  0.7431 -0.1720
 2328TIP3    H1 6948   3.438   2.422   0.117  0.5107 -0.6064 -1.2035
 2328TIP3    H2 6949   3.550   2.337   0.174 -0.8395 -1.5456  0.1122
 2329TIP3   OH2 6950   4.261   6.492   2.719  0.4220  0.7273 -0.1933
 2329TIP3    H1 6951   4.220   6.428   2.777  0.1485 -0.2028 -1.3812
 2329TIP3    H2 6952   4.235   6.577   2.755 -1.5380  0.1672 -0.1735
 2330TIP3   OH2 6953   2.866   3.084   2.589 -0.0372 -0.7595 -0.6812
 2330TIP3    H1 6954   2.931   3.154   2.590  0.7848 -1.5053 -0.2694
 2330TIP3    H2 6955   2.908   3.012   2.637 -0.8438 -1.5404 -1.1216
 2331TIP3   OH2 6956   2.727   1.354   5.406  0.1789  0.3064 -0.0182
 2331TIP3    H1 6957   2.803   1.311   5.447  0.1176 -0.0625 -0.2860
 2331TIP3    H2 6958   2.746   1.351   5.312  0.6411  1.7605  0.0129
 2332TIP3   OH2 6959   6.867   5.993   5.460 -0.3278 -0.3005  0.1745
 2332TIP3    H1 6960   6.873   5.953   5.374 -0.2025  0.0203  0.0327
 2332TIP3    H2 6961   6.850   6.086   5.442 -0.6077 -0.2897  0.4974
 2333TIP3   OH2 6962   0.824   3.458   5.174 -0.1060  0.8022  0.0428
 2333TIP3    H1 6963   0.796   3.370   5.151  0.2657  0.5695  0.4763
 2333TIP3    H2 6964   0.831   3.504   5.090  0.8023  0.0943 -0.2850
 2334TIP3   OH2 6965   1.484   0.052   4.471 -0.2343  0.0019 -0.5432
 2334TIP3    H1 6966   1.401   0.006   4.486 -0.8935  0.6903 -1.9507
 2334TIP3    H2 6967   1.538  -0.011   4.423  0.7144 -1.0358  1.6981
 2335TIP3   OH2 6968   6.988   0.049   5.083  0.2410 -0.2814  0.0701
 2335TIP3    H1 6969   6.976  -0.021   5.020 -1.2783 -0.5428  0.6054
 2335TIP3    H2 6970   7.082   0.061   5.089  0.4289 -0.5525 -1.8908
 2336TIP3   OH2 6971   5.479   3.454   2.814 -0.1122  0.5469  0.3647
 2336TIP3    H1 6972   5.479   3.422   2.904  0.6488  1.4768  0.7121
 2336TIP3    H2 6973   5.392   3.430   2.780 -1.1977  1.9354  1.9916
 2337TIP3   OH2 6974   6.001   1.057   1.274 -0.2855  0.2098 -0.2379
 2337TIP3    H1 6975   6.077   1.098   1.232 -0.7875  1.2759 -0.1596
 2337TIP3    H2 6976   6.031   0.970   1.299  0.4451  0.0487 -1.5636
 2338TIP3   OH2 6977   5.023   1.469   4.764  0.3750  0.0876 -0.7945
 2338TIP3    H1 6978   4.942   1.422   4.782 -0.8851  2.1305 -0.8432
 2338TIP3    H2 6979   4.995   1.554   4.732  2.5693  0.4273 -1.9894
 2339TIP3   OH2 6980   3.222   6.094   1.368 -0.1413 -0.2414 -0.0597
 2339TIP3    H1 6981   3.317   6.097   1.360 -0.3226  0.9247 -2.9227
 2339TIP3    H2 6982   3.193   6.178   1.332 -2.2737 -0.7290  0.4014
 2340TIP3   OH2 6983   1.619   5.128   1.536 -0.2928  0.2547  0.7560
 2340TIP3    H1 6984   1.691   5.107   1.477 -0.5233 -0.0963  0.5942
 2340TIP3    H2 6985   1.587   5.212   1.505 -1.7703 -0.8758 -0.9829
 2341TIP3   OH2 6986   1.588   4.487   4.183  0.2917  1.0286  0.4442
 2341TIP3    H1 6987   1.664   4.536   4.152 -0.3815  1.4924 -0.5174
 2341TIP3    H2 6988   1.515   4.518   4.129 -0.6589  0.8474  1.5860
 2342TIP3   OH2 6989   1.761   2.317   5.657  0.2961 -0.1801  0.3465
 2342TIP3    H1 6990   1.690   2.303   5.720  0.0890 -0.2394  0.0996
 2342TIP3    H2 6991   1.777   2.231   5.619 -0.1039  0.0016 -0.2423
 2343TIP3   OH2 6992   3.370   3.255   2.600 -0.4661 -0.3182  0.2477
 2343TIP3    H1 6993   3.451   3.215   2.632 -1.0220 -2.2690 -0.6100
 2343TIP3    H2 6994   3.333   3.190   2.540 -1.7444  1.3039 -0.8221
 2344TIP3   OH2 6995   6.373   5.209   1.115  0.4515  0.1484 -0.2254
 2344TIP3    H1 6996   6.408   5.151   1.183  1.9562  1.0085 -0.2278
 2344TIP3    H2 6997   6.310   5.154   1.067 -0.4979 -0.5431  1.6843
 2345TIP3   OH2 6998   6.991   1.941   5.425  0.2667 -0.2166 -0.7980
 2345TIP3    H1 6999   6.988   1.954   5.330  0.4487  1.0830 -0.6534
 2345TIP3    H2 7000   6.901   1.957   5.454 -0.0083 -1.5898 -0.8436
 2346TIP3   OH2 7001   1.474   1.970   4.928 -0.5930 -0.5662 -0.3053
 2346TIP3    H1 7002   1.460   1.955   5.021 -0.8878  0.0954 -0.2356
 2346TIP3    H2 7003   1.481   1.883   4.889  0.2370 -0.8431  0.4446
 2347TIP3   OH2 7004   2.740   6.202   2.965 -0.2590  0.1851 -0.4832
 2347TIP3    H1 7005   2.744   6.107   2.974 -1.5140 -0.0314 -1.8700
 2347TIP3    H2 7006   2.819   6.233   3.009 -0.2401 -1.4272  0.7269
 2348TIP3   OH2 7007   2.602   2.359   2.719  0.0977 -0.0654 -0.0323
 2348TIP3    H1 7008   2.675   2.297   2.711  0.0438 -0.0028 -1.1821
 2348TIP3    H2 7009   2.566   2.364   2.631 -1.7233 -0.5852  0.6453
 2349TIP3   OH2 7010   4.216   1.347   5.182 -0.1242  0.0511 -0.2627
 2349TIP3    H1 7011   4.252   1.428   5.220  0.3362 -0.0792 -0.4224
 2349TIP3    H2 7012   4.183   1.374   5.096 -1.7360  0.4843  0.4524
 2350TIP3   OH2 7013   6.130   6.117   3.831 -0.1613 -0.3232 -0.1780
 2350TIP3    H1 7014   6.121   6.130   3.736  0.9169  1.7483 -0.0628
 2350TIP3    H2 7015   6.108   6.202   3.869  0.3694 -0.8450  1.3738
 2351TIP3   OH2 7016   2.681   1.782   2.606 -0.1165  0.5550 -0.2433
 2351TIP3    H1 7017   2.618   1.808   2.539  0.9134 -1.1055 -1.9698
 2351TIP3    H2 7018   2.767   1.789   2.563  0.6395  0.0198  1.1049
 2352TIP3   OH2 7019   6.058   5.332   4.694 -0.0952 -0.4893  0.1861
 2352TIP3    H1 7020   6.086   5.392   4.764 -1.8892  0.1037  0.4366
 2352TIP3    H2 7021   6.111   5.254   4.708 -0.2190 -0.2899  2.0535
 2353TIP3   OH2 7022   6.811   0.115   1.808 -0.5226  0.1889 -0.3994
 2353TIP3    H1 7023   6.784   0.071   1.889 -0.0171  0.9800  0.2196
 2353TIP3    H2 7024   6.874   0.181   1.837 -0.6473  0.7649 -1.4017
 2354TIP3   OH2 7025   6.817   6.655   1.245 -0.5498 -0.2728 -0.3706
 2354TIP3    H1 7026   6.906   6.637   1.214 -1.0855  0.6087 -2.5919
 2354TIP3    H2 7027   6.803   6.748   1.224 -1.5169 -0.0120  1.2487
 2355TIP3   OH2 7028   0.335   5.401   4.973  0.0176 -0.8180  0.0021
 2355TIP3    H1 7029   0.371   5.371   4.890 -1.3171  0.6783 -1.1807
 2355TIP3    H2 7030   0.396   5.468   5.004  0.0516 -0.7489 -0.2176
 2356TIP3   OH2 7031   2.301   4.686   0.080 -0.0099  0.3679  0.6816
 2356TIP3    H1 7032   2.380   4.709   0.032  0.1162  0.2864  0.8511
 2356TIP3    H2 7033   2.233   4.682   0.013 -0.0125  1.1215  0.6298
 2357TIP3   OH2 7034   3.980   2.509   4.908  0.0698  0.1362 -0.2721
 2357TIP3    H1 7035   4.002   2.578   4.970  0.4408 -0.9033  0.7794
 2357TIP3    H2 7036   4.059   2.455   4.902 -1.0803 -1.8325  1.1243
 2358TIP3   OH2 7037   6.474   4.175   2.083  0.4534  0.0633  0.2551
 2358TIP3    H1 7038   6.524   4.125   2.148  1.0271  0.1853 -0.0831
 2358TIP3    H2 7039   6.514   4.153   2.000 -0.0589  0.1764 -0.0244
 2359TIP3   OH2 7040   6.886   2.072   5.755  0.7204  0.2046  0.3831
 2359TIP3    H1 7041   6.920   1.990   5.791 -0.2912 -1.3633 -1.9205
 2359TIP3    H2 7042   6.795   2.052   5.732  0.7635  1.5988 -1.2413
 2360TIP3   OH2 7043   0.843   1.854   2.289 -0.0671  0.2632 -0.0322
 2360TIP3    H1 7044   0.923   1.889   2.249  0.3688 -0.0417  0.5417
 2360TIP3    H2 7045   0.805   1.928   2.336 -0.2278  0.4605 -0.4745
 2361TIP3   OH2 7046   4.340   1.530   1.836  0.4909  0.1900  0.4828
 2361TIP3    H1 7047   4.246   1.547   1.843  0.4936  0.2555  0.3671
 2361TIP3    H2 7048   4.355   1.453   1.891  0.0382 -1.0016 -0.9885
 2362TIP3   OH2 7049   5.448   3.671   3.661 -0.3208  0.3861  0.2786
 2362TIP3    H1 7050   5.537   3.652   3.689  0.8844  2.2019 -1.9444
 2362TIP3    H2 7051   5.431   3.611   3.589 -0.5735  0.5690  0.1809
 2363TIP3   OH2 7052   1.193   1.758   3.661 -0.4384  0.0301 -0.1309
 2363TIP3    H1 7053   1.255   1.696   3.701 -0.9941  0.1021  0.8740
 2363TIP3    H2 7054   1.115   1.752   3.716  0.4621  3.7663  1.9423
 2364TIP3   OH2 7055   4.392   6.223   5.396  0.3327  0.2472  0.2070
 2364TIP3    H1 7056   4.297   6.208   5.390  0.2434 -0.2077  2.1242
 2364TIP3    H2 7057   4.431   6.145   5.356 -0.0406  1.1686 -2.1041
 2365TIP3   OH2 7058   0.301   6.793   5.214 -0.6608  0.1946 -0.0317
 2365TIP3    H1 7059   0.332   6.734   5.284  0.6513  0.7966 -0.0679
 2365TIP3    H2 7060   0.297   6.879   5.256  1.9083  0.9151 -1.0889
 2366TIP3   OH2 7061   6.573   0.518   0.846  0.3031 -0.0696 -0.4418
 2366TIP3    H1 7062   6.610   0.430   0.842  1.8147  0.5353 -0.2710
 2366TIP3    H2 7063   6.567   0.537   0.940 -0.4765 -0.1680 -0.4667
 2367TIP3   OH2 7064   0.817   4.465   1.187 -0.1935  0.1901  0.3016
 2367TIP3    H1 7065   0.825   4.384   1.236 -2.1856  0.2759  0.8612
 2367TIP3    H2 7066   0.843   4.443   1.097  1.0283 -0.5904  0.8357
 2368TIP3   OH2 7067   3.509   3.028   2.918 -0.1821 -0.2124 -0.1983
 2368TIP3    H1 7068   3.466   3.035   2.833  1.9844  1.1888 -1.2406
 2368TIP3    H2 7069   3.593   2.986   2.899  0.4925  0.4594  1.1923
 2369TIP3   OH2 7070   3.700   4.488   1.314  0.3813  0.4122 -0.0723
 2369TIP3    H1 7071   3.678   4.529   1.231 -2.7224 -1.4012 -0.3044
 2369TIP3    H2 7072   3.655   4.541   1.380  0.1243  0.0127  0.0813
 2370TIP3   OH2 7073   2.950   0.160   5.611 -0.2329  0.1555 -0.0006
 2370TIP3    H1 7074   2.947   0.248   5.648 -2.4434  0.4662 -0.7546
 2370TIP3    H2 7075   2.957   0.103   5.688  1.2720  0.9584  0.4909
 2371TIP3   OH2 7076   1.329   5.103   1.488 -0.2098  0.3168  0.2384
 2371TIP3    H1 7077   1.416   5.141   1.503 -0.2636  0.2730  0.6655
 2371TIP3    H2 7078   1.321   5.100   1.393 -0.0006  0.9140  0.1973
 2372TIP3   OH2 7079   4.243   2.111   0.565  0.3139 -0.1693 -0.6481
 2372TIP3    H1 7080   4.296   2.036   0.591  1.4461  0.3287 -1.4536
 2372TIP3    H2 7081   4.257   2.119   0.471  0.1919  1.0315 -0.5791
 2373TIP3   OH2 7082   6.951   6.769   0.232 -0.1117 -0.3137 -0.2706
 2373TIP3    H1 7083   7.034   6.816   0.223  0.0010 -0.2869  0.7866
 2373TIP3    H2 7084   6.976   6.680   0.257 -0.4049 -0.1404  0.6924
 2374TIP3   OH2 7085   0.878   0.862   3.402  0.3055 -0.0617 -0.1722
 2374TIP3    H1 7086   0.788   0.879   3.432  0.1726  0.1415 -0.6657
 2374TIP3    H2 7087   0.872   0.778   3.356  0.2179  0.2611 -0.7763
 2375TIP3   OH2 7088   5.192   2.516   3.907 -0.1165 -0.3039  0.4152
 2375TIP3    H1 7089   5.235   2.479   3.830 -0.7257 -0.8290  0.3182
 2375TIP3    H2 7090   5.256   2.577   3.943  0.3879 -0.4608 -0.1914
 2376TIP3   OH2 7091   3.947   2.485   5.241 -0.0117 -0.3064  0.1610
 2376TIP3    H1 7092   3.932   2.465   5.149  0.2978 -0.6356  0.1821
 2376TIP3    H2 7093   3.859   2.488   5.279 -0.1320 -0.3168 -0.1120
 2377TIP3   OH2 7094   4.765   0.762   2.242  0.7934  0.0040  0.2431
 2377TIP3    H1 7095   4.704   0.689   2.236 -0.4993  0.8666  2.0718
 2377TIP3    H2 7096   4.771   0.795   2.152  1.0255 -1.9946 -0.5312
 2378TIP3   OH2 7097   7.191   5.639   1.145 -0.1574 -0.0011 -0.4388
 2378TIP3    H1 7098   7.123   5.706   1.143 -0.3202 -0.0968  0.7375
 2378TIP3    H2 7099   7.166   5.576   1.078  0.8335  1.8720 -2.6885
 2379TIP3   OH2 7100   2.728   1.924   5.387 -0.1388 -0.1163  0.2154
 2379TIP3    H1 7101   2.820   1.897   5.389 -0.9774 -3.4909  2.6734
 2379TIP3    H2 7102   2.729   2.013   5.422  2.2023  0.2726 -0.6083
 2380TIP3   OH2 7103   2.226   6.577   4.273 -0.2876 -0.1546  0.3728
 2380TIP3    H1 7104   2.317   6.578   4.246 -0.3854 -2.4349 -0.2934
 2380TIP3    H2 7105   2.178   6.611   4.197 -0.1193 -0.7513 -0.0046
 2381TIP3   OH2 7106   0.908   6.200   1.358  0.0372  0.5745 -0.3415
 2381TIP3    H1 7107   0.814   6.212   1.369  0.3488  1.4314  1.7364
 2381TIP3    H2 7108   0.947   6.278   1.398  1.7354 -1.2097  1.6897
 2382TIP3   OH2 7109   4.264   6.695   2.905 -0.0564 -0.7886 -0.4984
 2382TIP3    H1 7110   4.286   6.743   2.985 -0.5813 -1.2823 -0.0525
 2382TIP3    H2 7111   4.197   6.749   2.863  0.7430 -0.1564 -0.9877
 2383TIP3   OH2 7112   6.531   2.397   1.655 -0.0307 -0.1088  0.7890
 2383TIP3    H1 7113   6.507   2.484   1.624  2.0272 -0.1789 -1.3099
 2383TIP3    H2 7114   6.504   2.338   1.584  0.1799 -0.9512  1.3953
 2384TIP3   OH2 7115   3.340   3.717   4.798  0.2879  0.3781  0.5055
 2384TIP3    H1 7116   3.315   3.658   4.727  3.6228 -0.9210  0.2206
 2384TIP3    H2 7117   3.260   3.730   4.848 -1.3016 -1.7846 -1.2935
 2385TIP3   OH2 7118   4.072   1.273   0.850 -0.1756 -0.4818  0.5772
 2385TIP3    H1 7119   4.039   1.319   0.928 -0.5870  0.6847 -0.2508
 2385TIP3    H2 7120   3.994   1.260   0.796  0.1953 -0.7613  0.1103
 2386TIP3   OH2 7121   4.046   4.771   3.569  0.2549  0.4516 -0.0486
 2386TIP3    H1 7122   4.040   4.798   3.477  1.4511 -2.9348 -1.3030
 2386TIP3    H2 7123   4.001   4.686   3.572  0.6257  0.2750  2.4028
 2387TIP3   OH2 7124   3.275   0.138   5.894  0.7571 -0.2152 -0.2613
 2387TIP3    H1 7125   3.351   0.080   5.891  0.9233  0.0272 -0.9962
 2387TIP3    H2 7126   3.201   0.083   5.868  1.0535  0.0901 -1.8853
 2388TIP3   OH2 7127   3.679   3.939   5.079  0.0005 -0.5447  0.2552
 2388TIP3    H1 7128   3.668   4.022   5.125 -1.3512  0.1150 -1.1691
 2388TIP3    H2 7129   3.609   3.883   5.112 -0.4039 -0.3803 -0.3067
 2389TIP3   OH2 7130   0.233   4.531   5.206  0.1596  0.4069 -0.3194
 2389TIP3    H1 7131   0.279   4.448   5.193  0.1227  0.5406 -1.3956
 2389TIP3    H2 7132   0.167   4.512   5.273 -1.1955 -1.0102 -1.9257
 2390TIP3   OH2 7133   0.733   6.007   0.545  0.1479  0.1699  0.2605
 2390TIP3    H1 7134   0.645   5.993   0.510  0.1387  0.0191  0.3444
 2390TIP3    H2 7135   0.728   6.091   0.590  0.1595  0.3655 -0.0996
 2391TIP3   OH2 7136   0.462   1.856   2.817 -0.5083  0.1757 -0.1642
 2391TIP3    H1 7137   0.540   1.821   2.860  1.0836  1.7643 -1.5743
 2391TIP3    H2 7138   0.393   1.848   2.882  0.2158 -3.4115  0.3854
 2392TIP3   OH2 7139   6.796   4.068   2.568  0.0489 -0.2752  0.2305
 2392TIP3    H1 7140   6.711   4.089   2.528 -1.1196 -2.3870  1.4631
 2392TIP3    H2 7141   6.796   3.973   2.576  1.9623 -0.2129  1.5508
 2393TIP3   OH2 7142   2.285   6.381   5.279 -0.1351  0.3111 -0.5304
 2393TIP3    H1 7143   2.313   6.292   5.255 -0.2320  0.0364  0.3433
 2393TIP3    H2 7144   2.333   6.401   5.359 -0.8438  0.6596 -0.1756
 2394TIP3   OH2 7145   4.687   0.937   3.421 -0.5641  0.4885  0.3270
 2394TIP3    H1 7146   4.731   0.937   3.505 -1.7802 -2.9761  1.1321
 2394TIP3    H2 7147   4.710   0.853   3.381 -2.4089  0.7170 -1.4295
 2395TIP3   OH2 7148   4.630   2.359   4.584  0.0246  0.1348  0.5896
 2395TIP3    H1 7149   4.666   2.323   4.503 -0.1493 -1.1225  1.0573
 2395TIP3    H2 7150   4.704   2.404   4.625  0.0605  0.9753 -0.3534
 2396TIP3   OH2 7151   2.812   5.687   2.571 -0.2960 -0.2272 -0.0835
 2396TIP3    H1 7152   2.854   5.633   2.638 -0.4127  0.1736  0.3179
 2396TIP3    H2 7153   2.885   5.720   2.518 -0.1867 -0.3716 -0.0244
 2397TIP3   OH2 7154   3.516   6.626   3.560  0.1252 -0.4346 -0.5110
 2397TIP3    H1 7155   3.480   6.683   3.493 -1.6061 -1.1555 -0.2485
 2397TIP3    H2 7156   3.529   6.542   3.517 -2.2739 -1.3019  0.2872
 2398TIP3   OH2 7157   0.857   4.821   1.150  0.3115  0.6846 -0.8894
 2398TIP3    H1 7158   0.780   4.862   1.190  0.4664  0.4967 -0.3792
 2398TIP3    H2 7159   0.930   4.853   1.203  0.3185 -1.2156  0.3296
 2399TIP3   OH2 7160   3.829   4.090   1.076 -0.1629 -0.3805  0.0570
 2399TIP3    H1 7161   3.834   4.065   1.169  1.0089 -0.7176 -0.0771
 2399TIP3    H2 7162   3.844   4.184   1.076 -1.5175 -0.1484  0.3097
 2400TIP3   OH2 7163   5.990   4.418   2.685 -0.2956  0.5463  0.2478
 2400TIP3    H1 7164   5.932   4.415   2.608 -0.8752  0.7308  0.6652
 2400TIP3    H2 7165   5.959   4.347   2.741  1.1324 -0.5971 -0.3749
 2401TIP3   OH2 7166   5.977   5.217   2.675 -0.8580 -0.3227 -0.3693
 2401TIP3    H1 7167   5.948   5.149   2.614 -0.7108 -0.6067 -0.1197
 2401TIP3    H2 7168   5.918   5.209   2.750 -0.1402 -0.8941  0.1365
 2402TIP3   OH2 7169   2.811   0.775   1.351 -0.0638  0.6706  0.2613
 2402TIP3    H1 7170   2.739   0.716   1.333 -0.4748  1.1567  0.2968
 2402TIP3    H2 7171   2.788   0.856   1.305 -0.2899  1.3459  1.5215
 2403TIP3   OH2 7172   3.495   1.838   2.213  0.1175 -0.0873 -0.0291
 2403TIP3    H1 7173   3.465   1.790   2.290 -0.6129  0.9144  0.3296
 2403TIP3    H2 7174   3.417   1.886   2.183  0.7865  0.7597 -0.4560
 2404TIP3   OH2 7175   2.553   3.856   5.352 -0.1414 -0.6099  0.4495
 2404TIP3    H1 7176   2.631   3.910   5.338  0.4824 -1.3421  1.0339
 2404TIP3    H2 7177   2.546   3.849   5.447 -0.6750 -0.9033  0.3885
 2405TIP3   OH2 7178   3.021   1.639   5.164 -0.2278  0.5229  0.2934
 2405TIP3    H1 7179   3.064   1.555   5.147  0.5229  1.0189 -0.2726
 2405TIP3    H2 7180   2.960   1.620   5.235  0.7101 -0.2569  0.9112
 2406TIP3   OH2 7181   3.573   0.973   4.473 -0.1082 -0.0014 -0.0013
 2406TIP3    H1 7182   3.500   1.023   4.510 -0.8973 -0.6183 -0.6887
 2406TIP3    H2 7183   3.533   0.893   4.440  1.2573 -1.4993  1.7834
 2407TIP3   OH2 7184   3.300   6.738   4.047 -0.3562 -0.1603 -0.0724
 2407TIP3    H1 7185   3.314   6.716   3.955  0.5136  0.2022 -0.0379
 2407TIP3    H2 7186   3.378   6.787   4.072 -0.6650 -0.1007  0.8133
 2408TIP3   OH2 7187   6.975   6.115   5.741 -0.3567 -0.2300  0.5951
 2408TIP3    H1 7188   7.046   6.179   5.738  1.0406 -1.5569  2.5620
 2408TIP3    H2 7189   6.911   6.147   5.677  0.9607  2.2442  0.3798
 2409TIP3   OH2 7190   7.044   3.587   4.922  1.3445 -0.8151 -0.2047
 2409TIP3    H1 7191   7.028   3.534   5.000  3.2767 -0.2246  0.6642
 2409TIP3    H2 7192   7.062   3.524   4.853 -0.9302 -1.3651 -0.3694
 2410TIP3   OH2 7193   0.509   6.123   1.623  0.0491 -0.1578  0.5285
 2410TIP3    H1 7194   0.471   6.037   1.608 -1.2055  0.4980 -0.1816
 2410TIP3    H2 7195   0.589   6.106   1.673 -0.2043 -1.7168  0.4306
 2411TIP3   OH2 7196   5.575   5.494   4.195 -0.0430 -0.6068  0.1767
 2411TIP3    H1 7197   5.645   5.557   4.176 -0.2268 -0.8129 -1.3709
 2411TIP3    H2 7198   5.509   5.545   4.243 -1.3984  1.2343 -3.2320
 2412TIP3   OH2 7199   0.568   0.246   3.532 -0.4370 -0.0741 -0.3708
 2412TIP3    H1 7200   0.538   0.156   3.543  0.1765 -0.2143  0.2584
 2412TIP3    H2 7201   0.616   0.246   3.449  0.9713 -0.7460  0.4022
 2413TIP3   OH2 7202   3.348   5.239   3.825  0.3035 -0.1291  0.0048
 2413TIP3    H1 7203   3.419   5.267   3.884  0.7522  1.1243 -1.0870
 2413TIP3    H2 7204   3.391   5.180   3.763  0.3226  0.2945 -0.3943
 2414TIP3   OH2 7205   4.558   3.932   3.899 -0.3644 -0.0246  0.2490
 2414TIP3    H1 7206   4.495   4.003   3.902 -0.7943 -0.4274  0.8525
 2414TIP3    H2 7207   4.624   3.962   3.836  0.2001  1.5157  1.4898
 2415TIP3   OH2 7208   2.800   4.503   4.121 -0.4240  0.5236  0.1190
 2415TIP3    H1 7209   2.713   4.519   4.159  0.9623  5.3155  2.0032
 2415TIP3    H2 7210   2.857   4.489   4.197  0.9761  1.0735 -0.7932
 2416TIP3   OH2 7211   6.847   1.250   2.180  0.8459  0.1158  0.5533
 2416TIP3    H1 7212   6.926   1.235   2.129 -0.2655 -1.3584 -0.8150
 2416TIP3    H2 7213   6.873   1.228   2.270  1.8564 -0.8829  0.0493
 2417TIP3   OH2 7214   0.611   4.730   1.948  0.6690 -0.2274 -0.5060
 2417TIP3    H1 7215   0.668   4.792   1.902  2.7344 -2.3828 -1.0395
 2417TIP3    H2 7216   0.590   4.663   1.883 -0.1689 -0.9507  0.4666
 2418TIP3   OH2 7217   6.721   1.140   0.217  0.4843  0.3629  0.0414
 2418TIP3    H1 7218   6.785   1.089   0.267  2.8747  2.4316 -0.6503
 2418TIP3    H2 7219   6.663   1.176   0.284  0.0986 -1.4320  0.7256
 2419TIP3   OH2 7220   1.008   3.881   3.744 -0.3712  0.3231 -0.3950
 2419TIP3    H1 7221   1.082   3.917   3.696  1.0250 -0.7158  0.8765
 2419TIP3    H2 7222   1.015   3.786   3.731 -0.5586  0.0985  0.9704
 2420TIP3   OH2 7223   5.098   0.159   0.338 -0.0286  0.2033  0.5982
 2420TIP3    H1 7224   5.074   0.076   0.378 -1.6569  0.0519 -0.5940
 2420TIP3    H2 7225   5.158   0.136   0.268 -0.7150 -0.0206  0.0739
 2421TIP3   OH2 7226   1.708   3.523   2.454 -0.0902  0.1208 -0.6575
 2421TIP3    H1 7227   1.686   3.509   2.362  0.8779 -1.5723 -0.6697
 2421TIP3    H2 7228   1.647   3.466   2.502  0.0444  0.2689 -0.3057
 2422TIP3   OH2 7229   4.905   6.070   2.125  0.1913  0.4828 -0.1555
 2422TIP3    H1 7230   4.908   6.102   2.215  1.1850  0.7922 -0.2866
 2422TIP3    H2 7231   4.949   5.985   2.128 -0.6981  0.0041 -0.1730
 2423TIP3   OH2 7232   4.857   2.813   1.003 -0.4403 -0.6097 -0.1165
 2423TIP3    H1 7233   4.835   2.898   1.040 -0.6358 -1.9070  3.0823
 2423TIP3    H2 7234   4.951   2.815   0.989 -0.6179  0.5189 -1.3900
 2424TIP3   OH2 7235   4.001   5.720   2.801  0.0934  0.6316  0.1054
 2424TIP3    H1 7236   4.043   5.714   2.886  1.3434 -0.5404 -0.5528
 2424TIP3    H2 7237   4.034   5.801   2.763  1.2968  0.0635 -0.1240
 2425TIP3   OH2 7238   6.965   0.425   1.183  0.0376  0.7472 -0.3767
 2425TIP3    H1 7239   6.938   0.390   1.098  0.2894  1.5571 -0.7955
 2425TIP3    H2 7240   7.060   0.423   1.181  0.0640 -1.0251  0.6527
 2426TIP3   OH2 7241   0.268   2.146   4.333  0.5510 -0.5659  0.0389
 2426TIP3    H1 7242   0.327   2.080   4.370  0.5276 -0.4253  0.3351
 2426TIP3    H2 7243   0.261   2.123   4.241  0.4495 -1.0518  0.1616
 2427TIP3   OH2 7244   0.928   1.062   4.638 -0.1572 -0.3190  0.2974
 2427TIP3    H1 7245   0.884   1.013   4.708  0.2297 -2.5267 -0.9152
 2427TIP3    H2 7246   1.017   1.074   4.669 -0.2735 -0.3163  0.6361
 2428TIP3   OH2 7247   6.609   3.209   4.515  0.7797 -0.1248  0.1149
 2428TIP3    H1 7248   6.591   3.127   4.469 -0.4170 -0.3437  0.9470
 2428TIP3    H2 7249   6.534   3.265   4.496  0.3317 -0.1698  1.6615
 2429TIP3   OH2 7250   7.097   5.449   2.638  0.0072  0.2551 -0.1167
 2429TIP3    H1 7251   7.092   5.505   2.716 -0.7583 -1.1441  0.8868
 2429TIP3    H2 7252   7.140   5.369   2.669 -1.3084 -0.7673 -0.8378
 2430TIP3   OH2 7253   3.515   1.401   3.843  0.1151 -0.4458  0.4329
 2430TIP3    H1 7254   3.593   1.419   3.790 -0.6421  0.1501 -0.5115
 2430TIP3    H2 7255   3.456   1.356   3.783 -0.4479 -0.4705  1.0069
 2431TIP3   OH2 7256   6.532   5.107   4.147  0.1910 -0.0291  0.1981
 2431TIP3    H1 7257   6.592   5.132   4.077  0.4980  0.0581  0.4867
 2431TIP3    H2 7258   6.537   5.011   4.149  1.2504  0.0236  1.0097
 2432TIP3   OH2 7259   5.635   5.203   2.539  0.0347  0.2507  0.6581
 2432TIP3    H1 7260   5.712   5.207   2.482 -0.3679 -0.5677  0.0219
 2432TIP3    H2 7261   5.570   5.154   2.488  0.6898 -3.3756  2.9376
 2433TIP3   OH2 7262   6.540   0.498   1.454  0.1229 -0.0685  0.5104
 2433TIP3    H1 7263   6.561   0.486   1.547  0.4902 -1.8277  0.2410
 2433TIP3    H2 7264   6.622   0.480   1.408 -0.1803  0.2851 -0.1792
 2434TIP3   OH2 7265   5.361   2.040   5.622 -0.5016  0.0195 -0.6746
 2434TIP3    H1 7266   5.313   1.963   5.653 -0.0216 -1.0783 -2.4851
 2434TIP3    H2 7267   5.358   2.033   5.526  0.5562  1.6417 -0.8714
 2435TIP3   OH2 7268   6.241   2.729   2.354 -0.2555 -0.0678  0.2150
 2435TIP3    H1 7269   6.319   2.746   2.300  0.0423  1.2157  1.0077
 2435TIP3    H2 7270   6.241   2.800   2.419 -2.3501  0.2429 -0.0600
 2436TIP3   OH2 7271   0.698   6.211   4.102  0.5509  0.1679 -0.0386
 2436TIP3    H1 7272   0.789   6.219   4.132  0.1318 -1.1708  1.7390
 2436TIP3    H2 7273   0.646   6.211   4.183 -1.2364  2.6286 -1.0379
 2437TIP3   OH2 7274   0.268   4.479   2.597 -0.0966 -0.6968  0.4409
 2437TIP3    H1 7275   0.287   4.406   2.656 -0.4345 -2.2630 -1.3364
 2437TIP3    H2 7276   0.200   4.447   2.539 -0.7588  1.2922  0.0316
 2438TIP3   OH2 7277   0.929   6.206   4.305  0.4504 -0.4229  0.4287
 2438TIP3    H1 7278   0.955   6.295   4.281 -0.8150 -0.2376 -0.3841
 2438TIP3    H2 7279   1.004   6.151   4.280  1.1746  0.3811  0.7837
 2439TIP3   OH2 7280   5.935   5.580   2.128 -0.6613  0.6630  0.0738
 2439TIP3    H1 7281   6.005   5.621   2.178  0.2548 -0.9798  0.1890
 2439TIP3    H2 7282   5.883   5.654   2.096  1.1129  1.9389 -0.0363
 2440TIP3   OH2 7283   0.464   1.841   5.512 -0.5674 -0.1649  0.0983
 2440TIP3    H1 7284   0.443   1.830   5.605  3.4527 -0.8366  1.1247
 2440TIP3    H2 7285   0.483   1.934   5.503  0.6229 -0.3694  0.3874
 2441TIP3   OH2 7286   0.369   1.364   0.148 -0.2322 -0.5906 -0.3998
 2441TIP3    H1 7287   0.404   1.330   0.230 -1.4588 -2.4814 -0.5943
 2441TIP3    H2 7288   0.430   1.434   0.122  0.4261 -0.2727  1.8477
 2442TIP3   OH2 7289   0.836   6.442   3.762  0.1050  0.3027 -0.1572
 2442TIP3    H1 7290   0.879   6.487   3.690  2.9825 -3.4259 -1.1246
 2442TIP3    H2 7291   0.763   6.395   3.722  0.6039 -0.3327 -0.3468
 2443TIP3   OH2 7292   2.917   2.637   1.009  0.3554 -0.3396  0.0644
 2443TIP3    H1 7293   2.890   2.724   1.038  2.2837 -0.2690  1.9891
 2443TIP3    H2 7294   2.993   2.653   0.954  0.1748 -0.7596 -0.3106
 2444TIP3   OH2 7295   3.807   6.784   4.362 -0.3266  0.0137  0.2530
 2444TIP3    H1 7296   3.722   6.827   4.353  0.3656  1.2667 -0.5734
 2444TIP3    H2 7297   3.792   6.695   4.331 -1.5635 -0.0965  1.0855
 2445TIP3   OH2 7298   5.171   1.873   3.231  0.4297 -0.3186  0.0926
 2445TIP3    H1 7299   5.228   1.848   3.304 -0.6811  0.4777  1.2670
 2445TIP3    H2 7300   5.221   1.940   3.184  1.3121 -1.1067 -0.1169
 2446TIP3   OH2 7301   4.693   6.664   1.888 -0.1415  0.1803  0.5537
 2446TIP3    H1 7302   4.770   6.618   1.919  0.5535  0.9462 -0.0037
 2446TIP3    H2 7303   4.727   6.740   1.840 -1.2150 -0.1157 -0.7331
 2447TIP3   OH2 7304   6.606   1.902   4.483 -0.2337  0.1301 -0.3907
 2447TIP3    H1 7305   6.520   1.943   4.486 -0.5335 -0.4849 -0.5176
 2447TIP3    H2 7306   6.618   1.878   4.391 -1.3705 -2.7933  0.1175
 2448TIP3   OH2 7307   7.104   5.792   0.193  0.5178 -0.0008 -0.4592
 2448TIP3    H1 7308   7.139   5.748   0.270 -0.7534 -1.7330 -0.8204
 2448TIP3    H2 7309   7.137   5.741   0.119  0.8246  0.9962 -1.0387
 2449TIP3   OH2 7310   6.492   5.763   4.437 -0.5447 -0.6960  0.0868
 2449TIP3    H1 7311   6.437   5.686   4.451 -0.4099 -0.8990 -0.5100
 2449TIP3    H2 7312   6.560   5.734   4.377  0.6561 -0.6492  1.3659
 2450TIP3   OH2 7313   5.920   4.822   1.500 -0.2182  0.0249 -0.4891
 2450TIP3    H1 7314   5.864   4.777   1.563  0.7813 -1.1132 -0.3742
 2450TIP3    H2 7315   5.906   4.915   1.517 -0.7248 -0.2568  0.7307
 2451TIP3   OH2 7316   1.468   0.100   5.086 -0.2366 -0.2771 -0.2671
 2451TIP3    H1 7317   1.480   0.053   5.168  0.3046  1.3397  0.6275
 2451TIP3    H2 7318   1.536   0.065   5.028 -0.5410 -1.3345  0.0012
 2452TIP3   OH2 7319   5.302   2.040   4.269 -0.0615  0.8571  0.4990
 2452TIP3    H1 7320   5.249   2.051   4.190 -0.3647  1.1971  0.7465
 2452TIP3    H2 7321   5.357   2.119   4.271 -1.0947  1.5907  1.4110
 2453TIP3   OH2 7322   4.313   4.799   5.484  0.0108 -0.2466  0.3846
 2453TIP3    H1 7323   4.358   4.880   5.462 -1.2778  0.6491  0.9740
 2453TIP3    H2 7324   4.338   4.781   5.575 -0.4947  0.0389  0.5830
 2454TIP3   OH2 7325   2.970   1.106   2.460  0.0736  0.2634 -0.0100
 2454TIP3    H1 7326   3.018   1.163   2.400  3.8097 -1.4671  1.0627
 2454TIP3    H2 7327   2.970   1.153   2.543 -0.0692  0.2264  0.0122
 2455TIP3   OH2 7328   0.177   4.904   0.841  0.0306 -0.4860  0.4950
 2455TIP3    H1 7329   0.242   4.964   0.876 -0.8076  0.3549  0.6359
 2455TIP3    H2 7330   0.228   4.826   0.815  1.2804  0.6555 -0.6556
 2456TIP3   OH2 7331   0.485   1.914   0.801 -1.2919 -0.5007 -0.2498
 2456TIP3    H1 7332   0.484   1.999   0.758 -0.1680 -0.8953 -1.1136
 2456TIP3    H2 7333   0.514   1.933   0.890  0.0481 -0.0745 -0.7435
 2457TIP3   OH2 7334   4.992   0.729   5.099 -0.3125  0.2869  0.0125
 2457TIP3    H1 7335   5.001   0.687   5.013 -0.0474  2.3934 -1.0337
 2457TIP3    H2 7336   4.945   0.810   5.082  0.3053  1.0560  1.7660
 2458TIP3   OH2 7337   2.126   4.634   4.885 -0.0874 -0.2640  0.5931
 2458TIP3    H1 7338   2.179   4.702   4.928  1.4461 -0.9142 -0.1874
 2458TIP3    H2 7339   2.137   4.652   4.792 -2.2174  0.2645  0.4059
 2459TIP3   OH2 7340   1.728   2.915   4.510 -0.0186 -0.1649  0.0547
 2459TIP3    H1 7341   1.746   2.841   4.569 -1.1925 -0.7963 -0.3321
 2459TIP3    H2 7342   1.763   2.888   4.426  0.8139  0.3371  0.2291
 2460TIP3   OH2 7343   4.025   1.744   3.622 -0.0237 -0.2092 -0.6778
 2460TIP3    H1 7344   4.043   1.671   3.682 -0.1999  0.3304  0.0487
 2460TIP3    H2 7345   3.965   1.709   3.557 -0.0616 -0.7237 -0.3649
 2461TIP3   OH2 7346   6.920   5.103   2.746 -0.1138  0.4394  0.2841
 2461TIP3    H1 7347   6.955   5.083   2.832  0.9310  0.7651 -0.0489
 2461TIP3    H2 7348   6.971   5.047   2.686 -0.0133  1.0752 -0.2311
 2462TIP3   OH2 7349   0.214   4.126   3.348 -0.0795 -0.3571  0.8985
 2462TIP3    H1 7350   0.218   4.113   3.443 -1.4316 -2.3237  0.7538
 2462TIP3    H2 7351   0.128   4.091   3.323 -0.1598  1.0003 -0.9398
 2463TIP3   OH2 7352   3.844   3.357   5.332  0.2214 -0.9463  0.3914
 2463TIP3    H1 7353   3.872   3.283   5.278  0.4711 -0.0954 -0.6853
 2463TIP3    H2 7354   3.753   3.338   5.352 -0.0705 -1.0012 -0.8674
 2464TIP3   OH2 7355   4.522   1.428   2.570  0.1058  0.0319 -0.0667
 2464TIP3    H1 7356   4.564   1.490   2.510  0.2013 -0.5985 -0.6571
 2464TIP3    H2 7357   4.494   1.356   2.514 -3.7463  1.3406 -0.1562
 2465TIP3   OH2 7358   5.988   4.521   0.202 -0.0637  0.3860 -0.0472
 2465TIP3    H1 7359   5.985   4.602   0.152 -0.1953  0.0399 -0.6093
 2465TIP3    H2 7360   5.987   4.549   0.293  1.7055  1.0935 -0.2102
 2466TIP3   OH2 7361   6.063   1.069   1.910  0.7567  0.0691  0.0811
 2466TIP3    H1 7362   6.027   1.006   1.972  0.4223  0.1963  0.0193
 2466TIP3    H2 7363   6.158   1.058   1.917  0.8467  1.5138  2.1743
 2467TIP3   OH2 7364   4.738   2.617   4.157 -0.0619 -0.0608 -0.4003
 2467TIP3    H1 7365   4.800   2.624   4.085 -0.0705 -2.5141 -0.7293
 2467TIP3    H2 7366   4.792   2.622   4.236  0.0707  1.5127 -0.5552
 2468TIP3   OH2 7367   5.830   6.626   2.698 -0.3020  0.4661  0.1848
 2468TIP3    H1 7368   5.890   6.552   2.696  0.6394  1.2078 -1.7957
 2468TIP3    H2 7369   5.751   6.594   2.655 -0.1492  0.4000 -0.0504
 2469TIP3   OH2 7370   6.287   2.838   5.016  0.2178  0.1427 -0.2511
 2469TIP3    H1 7371   6.226   2.911   5.029 -2.7043 -2.2794  0.7193
 2469TIP3    H2 7372   6.235   2.771   4.972  1.8442 -2.4331  1.5020
 2470TIP3   OH2 7373   1.749   0.269   4.284 -0.2828  0.3556 -0.3061
 2470TIP3    H1 7374   1.769   0.202   4.219  0.2461 -1.6594  1.8380
 2470TIP3    H2 7375   1.678   0.232   4.336  0.8665  0.8793  1.7255
 2471TIP3   OH2 7376   6.978   6.780   2.697  0.9794 -0.2823  0.1043
 2471TIP3    H1 7377   6.932   6.772   2.613 -0.5946 -0.5713  0.9577
 2471TIP3    H2 7378   7.028   6.698   2.705  0.1050 -0.8331  0.0342
 2472TIP3   OH2 7379   4.397   3.546   1.409  0.3995 -1.0965 -0.0918
 2472TIP3    H1 7380   4.350   3.515   1.487 -0.1688 -1.0080 -0.3965
 2472TIP3    H2 7381   4.484   3.509   1.418  0.8101  0.1249  1.3476
 2473TIP3   OH2 7382   2.423   4.473   1.782  0.5907 -0.0826 -0.2164
 2473TIP3    H1 7383   2.502   4.420   1.794  1.4939  0.4641 -2.8455
 2473TIP3    H2 7384   2.456   4.564   1.782 -0.3620  0.2745  0.6409
 2474TIP3   OH2 7385   5.827   6.007   1.813 -0.0382 -0.1837 -0.2333
 2474TIP3    H1 7386   5.810   6.032   1.903  2.9895  0.8169  0.1640
 2474TIP3    H2 7387   5.740   5.997   1.774 -1.4579  2.6706  1.8635
 2475TIP3   OH2 7388   1.724   2.613   4.537  0.3840 -0.7797  0.2333
 2475TIP3    H1 7389   1.641   2.605   4.583 -0.4681 -1.0581 -1.2934
 2475TIP3    H2 7390   1.717   2.552   4.463  1.3880  0.2121 -0.7144
 2476TIP3   OH2 7391   3.982   1.479   1.607 -0.5551 -0.6204  0.2988
 2476TIP3    H1 7392   3.889   1.495   1.593 -0.0267  2.4800 -0.6060
 2476TIP3    H2 7393   4.010   1.549   1.666  1.3861 -0.8138 -0.3090
 2477TIP3   OH2 7394   6.581   1.900   4.217  0.2104 -0.3360  0.2261
 2477TIP3    H1 7395   6.513   1.883   4.151 -0.4151 -1.3683  1.0967
 2477TIP3    H2 7396   6.645   1.831   4.204 -0.5694 -1.3480  1.5065
 2478TIP3   OH2 7397   3.664   5.223   1.971 -0.0620 -0.2837 -0.3598
 2478TIP3    H1 7398   3.740   5.165   1.961  1.0614  0.9422  0.6558
 2478TIP3    H2 7399   3.589   5.164   1.968  1.0857 -2.3409  3.5027
 2479TIP3   OH2 7400   6.427   2.191   1.456 -0.1644 -0.1638  0.5535
 2479TIP3    H1 7401   6.448   2.118   1.397 -2.0412  1.3830 -2.2490
 2479TIP3    H2 7402   6.354   2.159   1.509 -0.5294 -0.5570 -0.1765
 2480TIP3   OH2 7403   6.364   6.777   3.848  0.4524 -0.2002 -0.4093
 2480TIP3    H1 7404   6.460   6.769   3.844  0.7497  2.6864 -1.2373
 2480TIP3    H2 7405   6.345   6.787   3.941  1.3226  1.9065 -0.3951
 2481TIP3   OH2 7406   6.028   4.252   3.317  0.6501  0.0940 -0.4406
 2481TIP3    H1 7407   6.056   4.266   3.407  2.2491  0.9581 -1.0337
 2481TIP3    H2 7408   6.068   4.324   3.267  1.2774 -1.3432 -2.1185
 2482TIP3   OH2 7409   0.340   5.624   2.457  0.6182  0.4216 -0.8483
 2482TIP3    H1 7410   0.260   5.641   2.508  0.6355  0.6634 -0.9035
 2482TIP3    H2 7411   0.310   5.568   2.385  0.4821  0.5917 -0.9239
 2483TIP3   OH2 7412   6.163   4.282   2.934 -0.0867  0.6942  0.2844
 2483TIP3    H1 7413   6.120   4.198   2.919  1.3901 -0.3393  1.4752
 2483TIP3    H2 7414   6.092   4.340   2.963 -1.3642  0.2800 -1.8075
 2484TIP3   OH2 7415   3.319   6.431   5.766  0.3364  0.7667 -0.3427
 2484TIP3    H1 7416   3.285   6.390   5.846  0.7212 -1.2376 -1.1357
 2484TIP3    H2 7417   3.241   6.456   5.716  0.0810  2.8971  1.0059
 2485TIP3   OH2 7418   5.222  -0.001   1.863 -0.0247 -0.2609 -0.2499
 2485TIP3    H1 7419   5.248   0.075   1.916  1.0858  0.0676 -1.2010
 2485TIP3    H2 7420   5.302  -0.054   1.856 -1.0418 -2.0726  1.2372
 2486TIP3   OH2 7421   5.107   3.426   2.220 -0.3282  0.5075 -0.6536
 2486TIP3    H1 7422   5.163   3.351   2.199 -0.6390  0.1822 -0.3537
 2486TIP3    H2 7423   5.141   3.498   2.168  0.7957  0.4876  0.0346
 2487TIP3   OH2 7424   2.078   3.503   0.488  0.3984  0.1871  0.2517
 2487TIP3    H1 7425   2.155   3.469   0.534  0.3176  0.7058  0.7860
 2487TIP3    H2 7426   2.013   3.434   0.494 -0.4111  1.0639  2.9367
 2488TIP3   OH2 7427   2.441   2.587   0.332 -0.2837  0.2585  0.9396
 2488TIP3    H1 7428   2.482   2.502   0.313 -1.2103  0.0107 -0.0864
 2488TIP3    H2 7429   2.406   2.615   0.248 -1.8056  0.6695  1.6742
 2489TIP3   OH2 7430   4.171   5.075   1.903  0.2253 -0.2016  0.3828
 2489TIP3    H1 7431   4.118   5.015   1.955 -0.2931 -0.8957 -0.8980
 2489TIP3    H2 7432   4.251   5.027   1.883  0.4851  0.1131  0.6527
 2490TIP3   OH2 7433   3.866   3.101   2.691 -0.1636  0.2763 -0.4499
 2490TIP3    H1 7434   3.919   3.032   2.652 -0.0052  0.3671 -0.3920
 2490TIP3    H2 7435   3.928   3.155   2.740 -0.4337 -0.1752  0.4168
 2491TIP3   OH2 7436   4.414   6.202   4.613 -0.2924  0.4598 -0.2494
 2491TIP3    H1 7437   4.320   6.206   4.596 -0.1153  0.9879 -1.1322
 2491TIP3    H2 7438   4.446   6.130   4.558 -0.2206  0.0883  0.2701
 2492TIP3   OH2 7439   0.512   5.747   4.421  0.2959  0.1899 -0.1783
 2492TIP3    H1 7440   0.562   5.692   4.361 -0.2711 -0.2892 -0.2128
 2492TIP3    H2 7441   0.570   5.759   4.496  0.0980 -1.1764  0.2135
 2493TIP3   OH2 7442   4.529   1.009   2.180  0.2252  0.4907 -0.2776
 2493TIP3    H1 7443   4.449   0.974   2.218  0.5790  0.8995  0.9133
 2493TIP3    H2 7444   4.556   0.945   2.114  0.2491 -0.8951  1.0366
 2494TIP3   OH2 7445   1.651   2.433   2.900 -0.4830  0.5513  0.4596
 2494TIP3    H1 7446   1.723   2.375   2.876 -0.0327  2.0345 -2.1725
 2494TIP3    H2 7447   1.586   2.421   2.831 -0.1662  3.3697 -0.5010
 2495TIP3   OH2 7448   7.202   2.255   0.463  0.1206 -0.3370 -0.1887
 2495TIP3    H1 7449   7.144   2.184   0.490 -0.0256 -0.9714 -2.0157
 2495TIP3    H2 7450   7.162   2.289   0.383 -0.1099  2.1964  0.9337
 2496TIP3   OH2 7451   0.503   3.521   1.094 -0.2363 -0.5044  0.4801
 2496TIP3    H1 7452   0.420   3.494   1.054  0.6747 -0.3712 -1.6088
 2496TIP3    H2 7453   0.549   3.439   1.113  0.2762 -0.5592 -0.9032
 2497TIP3   OH2 7454   2.029   4.015   2.896  0.2999  0.0084  0.1167
 2497TIP3    H1 7455   1.993   4.103   2.890  0.6569  0.2574  1.3099
 2497TIP3    H2 7456   2.000   3.971   2.816  0.0725  1.1847 -0.4653
 2498TIP3   OH2 7457   3.559   4.619   4.755  0.4965 -0.5940 -0.1670
 2498TIP3    H1 7458   3.465   4.634   4.747  0.3566 -0.5585  1.2284
 2498TIP3    H2 7459   3.567   4.533   4.796  1.0552 -0.5249 -0.1152
 2499TIP3   OH2 7460   3.501  -0.015   5.838  0.1459 -0.6002 -0.2158
 2499TIP3    H1 7461   3.489  -0.010   5.743  0.2171 -1.7062 -0.2866
 2499TIP3    H2 7462   3.574   0.044   5.857 -2.1550  2.5967 -0.3635
 2500TIP3   OH2 7463   3.317   5.432   2.994 -0.7777  0.0782 -0.4297
 2500TIP3    H1 7464   3.250   5.479   2.944 -2.1272 -1.0852  0.2254
 2500TIP3    H2 7465   3.365   5.501   3.039 -1.6086  0.9357 -0.8131
 2501TIP3   OH2 7466   6.512   4.766   4.274  0.3834  0.2756 -0.2093
 2501TIP3    H1 7467   6.570   4.778   4.199  0.6680  0.0592 -0.0310
 2501TIP3    H2 7468   6.570   4.777   4.350 -0.0068  1.0097 -0.0159
 2502TIP3   OH2 7469   4.520   4.087   0.641  0.2721 -0.6082 -0.2577
 2502TIP3    H1 7470   4.496   4.046   0.724  3.1622 -0.6494  0.6858
 2502TIP3    H2 7471   4.567   4.018   0.593  0.9234  0.1824 -0.7746
 2503TIP3   OH2 7472   1.385   2.770   5.339  0.8860  0.0933 -1.0248
 2503TIP3    H1 7473   1.473   2.739   5.363 -0.4588 -2.1519  1.6142
 2503TIP3    H2 7474   1.358   2.825   5.413 -0.3559 -0.2049 -1.2300
 2504TIP3   OH2 7475   1.332   5.495   1.128  0.5057 -0.1120  0.0705
 2504TIP3    H1 7476   1.347   5.589   1.119  1.2185 -0.3616 -1.6508
 2504TIP3    H2 7477   1.350   5.477   1.221  1.8170  1.1947  0.1157
 2505TIP3   OH2 7478   6.691   5.553   2.008  0.6385 -0.5573 -0.7736
 2505TIP3    H1 7479   6.656   5.627   2.057  0.5714  1.5944 -3.7654
 2505TIP3    H2 7480   6.645   5.477   2.043  0.8053  0.7078  2.5385
 2506TIP3   OH2 7481   0.954   3.999   1.884 -0.5144 -0.1002  0.1502
 2506TIP3    H1 7482   0.989   4.025   1.969  0.2739 -2.9522  0.7965
 2506TIP3    H2 7483   0.870   3.958   1.904 -2.1774  2.4616 -0.9311
 2507TIP3   OH2 7484   1.535   4.256   2.472  0.5025  0.5814  0.2836
 2507TIP3    H1 7485   1.602   4.277   2.536  1.9387 -0.5965 -0.7760
 2507TIP3    H2 7486   1.578   4.264   2.387 -0.3948 -1.1500 -0.3906
 2508TIP3   OH2 7487   0.067   3.936   3.077  0.3298 -0.1017  0.0969
 2508TIP3    H1 7488   0.011   3.986   3.018  1.0030  0.3907 -0.1403
 2508TIP3    H2 7489   0.073   3.850   3.037 -0.2516 -0.1572  0.1243
 2509TIP3   OH2 7490   2.820   2.613   2.207 -0.0390 -0.5911 -0.2794
 2509TIP3    H1 7491   2.793   2.680   2.144 -0.7127 -1.4220 -0.8923
 2509TIP3    H2 7492   2.776   2.533   2.178  0.6237 -1.2710  0.5323
 2510TIP3   OH2 7493   5.744   1.002   4.469  0.5276 -0.0673  0.0841
 2510TIP3    H1 7494   5.766   1.066   4.536  1.0688  1.9939 -1.9211
 2510TIP3    H2 7495   5.676   1.045   4.417  0.1191 -1.5810 -0.6746
 2511TIP3   OH2 7496   5.325   5.268   0.242  0.2509  0.8854 -0.5070
 2511TIP3    H1 7497   5.312   5.210   0.167 -1.7611  0.5702  0.0225
 2511TIP3    H2 7498   5.337   5.355   0.203  2.3254  0.3027 -1.2636
 2512TIP3   OH2 7499   6.332   4.384   3.346  0.2697  0.1974 -0.5778
 2512TIP3    H1 7500   6.357   4.292   3.347 -0.3084  0.0320 -0.6514
 2512TIP3    H2 7501   6.350   4.414   3.257  1.7287  0.5291 -0.1944
 2513TIP3   OH2 7502   5.755   2.223   5.028  0.5007  0.1664 -0.3700
 2513TIP3    H1 7503   5.684   2.286   5.019 -1.6910 -2.1647 -0.4142
 2513TIP3    H2 7504   5.717   2.151   5.078  2.5701 -1.5808 -1.1709
 2514TIP3   OH2 7505   4.697   4.490   1.263 -0.3537 -0.1158  0.2234
 2514TIP3    H1 7506   4.739   4.455   1.184  1.4609 -1.5745  1.7418
 2514TIP3    H2 7507   4.604   4.477   1.247 -0.0168 -0.8709 -1.4581
 2515TIP3   OH2 7508   5.976   6.497   4.548  0.2009 -0.5043  0.2027
 2515TIP3    H1 7509   5.882   6.493   4.533 -0.1585  2.6045  0.8421
 2515TIP3    H2 7510   5.988   6.456   4.634 -0.5872 -0.8027  0.1827
 2516TIP3   OH2 7511   1.573   2.122   4.592  0.0122 -0.1848  0.0721
 2516TIP3    H1 7512   1.648   2.136   4.649 -0.7552 -0.5546  1.2065
 2516TIP3    H2 7513   1.515   2.197   4.609 -0.3995 -0.4988  0.0667
 2517TIP3   OH2 7514   5.397   0.901   2.541 -0.0099 -0.0087  0.0016
 2517TIP3    H1 7515   5.331   0.968   2.561  0.0916 -0.0076  0.3224
 2517TIP3    H2 7516   5.481   0.946   2.549  0.0311  0.0413 -0.5980
 2518TIP3   OH2 7517   2.027   5.355   5.776 -0.5474  0.6527  0.5121
 2518TIP3    H1 7518   1.976   5.308   5.843  0.3372 -0.0649  0.6990
 2518TIP3    H2 7519   1.987   5.330   5.693  1.5484 -2.7162  0.3430
 2519TIP3   OH2 7520   6.288   1.973   2.411  0.0426  0.4049 -0.7771
 2519TIP3    H1 7521   6.282   1.880   2.388  1.5578  0.5387 -1.9011
 2519TIP3    H2 7522   6.255   2.019   2.333  0.5671  0.8023 -0.7771
 2520TIP3   OH2 7523   5.226   4.037   5.613  0.4441 -0.1343 -0.6036
 2520TIP3    H1 7524   5.146   3.986   5.601  0.2065 -0.0551  0.5097
 2520TIP3    H2 7525   5.277   3.986   5.676 -0.6061  1.8232  2.0183
 2521TIP3   OH2 7526   5.098   6.455   2.866 -0.3398 -0.5234  0.7936
 2521TIP3    H1 7527   5.058   6.479   2.949 -0.3895 -0.8007  0.8504
 2521TIP3    H2 7528   5.067   6.366   2.849  1.7348 -1.5133  1.7767
 2522TIP3   OH2 7529   4.476   1.069   1.181 -1.0496  0.0193 -0.4046
 2522TIP3    H1 7530   4.462   1.077   1.276 -2.6679  0.4713 -0.6555
 2522TIP3    H2 7531   4.421   0.995   1.155 -0.8470  0.0898 -1.0498
 2523TIP3   OH2 7532   1.217   4.833   1.775  0.9055 -0.5533  0.4864
 2523TIP3    H1 7533   1.170   4.889   1.713 -0.2563 -0.2807  1.5754
 2523TIP3    H2 7534   1.305   4.826   1.739 -0.2281 -2.0920 -2.3143
 2524TIP3   OH2 7535   4.510   4.541   4.688  0.1252  0.3650 -0.5194
 2524TIP3    H1 7536   4.521   4.633   4.712 -2.9641  0.8466 -0.4853
 2524TIP3    H2 7537   4.552   4.493   4.759 -0.0914  1.7728  0.6123
 2525TIP3   OH2 7538   0.192   6.245   0.208 -0.0616 -0.0513 -0.6906
 2525TIP3    H1 7539   0.212   6.328   0.164  1.2668 -0.1816 -0.3603
 2525TIP3    H2 7540   0.097   6.235   0.196  0.0147  0.6583 -2.2195
 2526TIP3   OH2 7541   1.428   6.558   0.570  0.4939  0.4950 -0.2738
 2526TIP3    H1 7542   1.407   6.509   0.650  0.7139  0.5456 -0.1848
 2526TIP3    H2 7543   1.359   6.534   0.509 -0.4379  1.4928  0.3626
 2527TIP3   OH2 7544   6.763   3.922   1.735 -0.0001  0.1102 -0.7004
 2527TIP3    H1 7545   6.836   3.932   1.796 -0.0077  0.6283 -0.7778
 2527TIP3    H2 7546   6.727   3.836   1.756  1.0886 -0.4820 -1.1612
 2528TIP3   OH2 7547   3.620   5.393   0.826 -0.1723 -0.0762  0.2837
 2528TIP3    H1 7548   3.650   5.476   0.864 -0.0276 -0.1837  0.4053
 2528TIP3    H2 7549   3.683   5.375   0.755 -0.4881  0.1651 -0.0615
 2529TIP3   OH2 7550   3.288   1.186   1.898  0.3575  0.3350 -0.2259
 2529TIP3    H1 7551   3.332   1.245   1.959  0.7798  0.2971 -0.4826
 2529TIP3    H2 7552   3.227   1.241   1.849 -0.2915  0.2850  0.5205
 2530TIP3   OH2 7553   2.392   5.598   2.023  0.6368 -0.2200  0.1482
 2530TIP3    H1 7554   2.316   5.640   1.983 -0.1966  0.2232  2.1015
 2530TIP3    H2 7555   2.362   5.511   2.046  0.9801 -0.3331  0.1729
 2531TIP3   OH2 7556   3.940   0.621   0.682  0.2928 -0.3169  0.1535
 2531TIP3    H1 7557   3.941   0.679   0.758  1.7561 -0.3658  0.1841
 2531TIP3    H2 7558   3.926   0.534   0.718 -2.4522 -0.0115  0.0708
 2532TIP3   OH2 7559   3.169   3.764   0.013 -0.0858 -0.0812 -0.2691
 2532TIP3    H1 7560   3.176   3.676   0.050  1.6286  1.0837  2.4893
 2532TIP3    H2 7561   3.251   3.778  -0.034  1.4182  1.2500  2.5037
 2533TIP3   OH2 7562   0.942   5.415   3.429  0.0359  0.5033  0.1538
 2533TIP3    H1 7563   0.860   5.429   3.381  0.3747 -0.3823 -0.7175
 2533TIP3    H2 7564   1.005   5.474   3.388  0.3791 -0.4058 -0.6496
 2534TIP3   OH2 7565   2.190   0.266   5.182  0.2419  0.0605  0.3474
 2534TIP3    H1 7566   2.192   0.333   5.114 -2.7684  0.4135  0.4496
 2534TIP3    H2 7567   2.155   0.188   5.139  0.4008 -0.3765  0.9872
 2535TIP3   OH2 7568   2.819   1.241   0.969 -0.0065  0.2116 -0.2706
 2535TIP3    H1 7569   2.845   1.182   0.898 -0.6285 -0.8080  0.3215
 2535TIP3    H2 7570   2.892   1.239   1.030 -0.2848 -0.4617  0.0512
 2536TIP3   OH2 7571   4.792   6.367   1.076 -0.4141  0.5129 -0.6354
 2536TIP3    H1 7572   4.846   6.288   1.071 -1.1899 -0.0529 -0.1249
 2536TIP3    H2 7573   4.778   6.382   1.169 -3.0665 -0.6991 -0.7541
 2537TIP3   OH2 7574   1.433   0.519   4.823  0.0105  0.6916  0.4394
 2537TIP3    H1 7575   1.410   0.524   4.730 -1.3529  1.5505  0.8067
 2537TIP3    H2 7576   1.400   0.434   4.851  2.0756 -0.4082 -0.2563
 2538TIP3   OH2 7577   6.518   3.995   4.603  0.4020  0.1631 -0.9288
 2538TIP3    H1 7578   6.435   3.987   4.556  0.3172 -1.5554 -0.5577
 2538TIP3    H2 7579   6.501   4.061   4.671 -1.0045 -0.8744 -0.2050
 2539TIP3   OH2 7580   0.167   5.962   3.870  0.1157 -0.3030  0.5524
 2539TIP3    H1 7581   0.125   5.895   3.816  0.5198 -0.9917  1.0680
 2539TIP3    H2 7582   0.158   6.043   3.820 -1.8562 -0.4096  0.6531
 2540TIP3   OH2 7583   5.739   1.738   2.786  0.5621 -0.3841  0.5124
 2540TIP3    H1 7584   5.816   1.733   2.729  0.5033 -0.8695  0.4672
 2540TIP3    H2 7585   5.710   1.647   2.795  0.5287 -0.3066  1.2591
 2541TIP3   OH2 7586   6.578   4.221   0.951  0.0898  0.0462 -0.8804
 2541TIP3    H1 7587   6.632   4.246   0.875 -0.7430 -1.1711 -1.9113
 2541TIP3    H2 7588   6.492   4.259   0.933 -0.4126 -1.1467 -1.1004
 2542TIP3   OH2 7589   6.637   3.145   0.579  0.3829  0.3524  0.4166
 2542TIP3    H1 7590   6.613   3.234   0.551  0.2223  0.9666  2.3739
 2542TIP3    H2 7591   6.553   3.100   0.590  0.4103  0.3942  0.7835
 2543TIP3   OH2 7592   5.586   5.637   2.978  0.2970 -0.3135  0.2344
 2543TIP3    H1 7593   5.600   5.677   3.064  0.1734 -1.9541  1.0482
 2543TIP3    H2 7594   5.511   5.684   2.941  1.0742  1.1951  0.4956
 2544TIP3   OH2 7595   4.744   6.729   4.396 -0.1087 -0.4438 -0.1462
 2544TIP3    H1 7596   4.824   6.749   4.445 -1.3180  1.2954  1.2833
 2544TIP3    H2 7597   4.775   6.694   4.313  2.1231 -0.2249  0.5128
 2545TIP3   OH2 7598   2.308   3.502   3.320  0.1691  0.6562 -0.1270
 2545TIP3    H1 7599   2.234   3.552   3.284  0.2805  1.7177  1.0097
 2545TIP3    H2 7600   2.352   3.564   3.378  1.4025 -0.2532 -0.0509
 2546TIP3   OH2 7601   2.465   5.705   5.680  0.0519  0.4525 -0.1995
 2546TIP3    H1 7602   2.545   5.657   5.658 -0.1135 -0.1629  0.4916
 2546TIP3    H2 7603   2.483   5.795   5.651  1.4834  0.6111  1.0033
 2547TIP3   OH2 7604   0.312   5.418   4.294 -0.2015 -0.3741  0.0496
 2547TIP3    H1 7605   0.268   5.486   4.242  0.6827 -0.7392 -1.2487
 2547TIP3    H2 7606   0.402   5.450   4.301 -0.3454 -0.2449  1.5690
 2548TIP3   OH2 7607   3.274   4.853   1.702 -0.2488  0.1252  0.2050
 2548TIP3    H1 7608   3.354   4.809   1.730 -0.0765  0.5650  0.4210
 2548TIP3    H2 7609   3.291   4.876   1.610  0.4711  1.5076  0.6507
 2549TIP3   OH2 7610   4.631   6.582   0.051  0.1654 -0.1754 -0.3858
 2549TIP3    H1 7611   4.620   6.656   0.110  2.1803  1.0434 -1.4232
 2549TIP3    H2 7612   4.597   6.507   0.099 -0.8482  1.2181  1.1658
 2550TIP3   OH2 7613   3.970   1.244   0.210 -0.2028 -0.2206 -0.6303
 2550TIP3    H1 7614   4.032   1.269   0.142  0.7920  0.2933  0.4279
 2550TIP3    H2 7615   3.886   1.282   0.182 -0.3938 -1.9182 -2.6907
 2551TIP3   OH2 7616   0.728   4.496   2.233 -0.0733 -0.0137  0.0017
 2551TIP3    H1 7617   0.662   4.560   2.262 -2.3563 -1.4102 -1.7707
 2551TIP3    H2 7618   0.692   4.459   2.153  1.0228 -3.6699  1.0087
 2552TIP3   OH2 7619   3.884   0.864   5.034  0.0622  0.0158 -0.4068
 2552TIP3    H1 7620   3.946   0.937   5.033 -0.7993  0.8662  1.9220
 2552TIP3    H2 7621   3.807   0.898   5.080  0.3268 -2.8247  2.4956
 2553TIP3   OH2 7622   7.004   6.196   4.297  0.3264  0.6357  0.0403
 2553TIP3    H1 7623   7.094   6.226   4.283 -0.0087  1.6465 -0.0606
 2553TIP3    H2 7624   7.002   6.167   4.388  1.1400 -0.8877 -0.3910
 2554TIP3   OH2 7625   4.769   4.716   5.235  0.2366 -0.1327 -0.0034
 2554TIP3    H1 7626   4.774   4.742   5.143 -4.0116 -0.2940 -0.4446
 2554TIP3    H2 7627   4.791   4.795   5.284  1.1665  0.3348 -1.1196
 2555TIP3   OH2 7628   4.230   0.926   0.654  0.0565  0.0775 -0.2280
 2555TIP3    H1 7629   4.205   1.000   0.599  2.3951  0.1777 -1.2856
 2555TIP3    H2 7630   4.236   0.963   0.743  1.7510  1.3500 -0.8248
 2556TIP3   OH2 7631   0.347   2.264   1.480 -0.1523 -0.1088 -0.8571
 2556TIP3    H1 7632   0.332   2.301   1.567 -3.3185 -0.5747 -1.1055
 2556TIP3    H2 7633   0.296   2.320   1.421  0.2886 -1.0202 -2.1459
 2557TIP3   OH2 7634   6.312   3.513   4.139  0.1487 -0.1968  0.2347
 2557TIP3    H1 7635   6.385   3.454   4.156  0.7643  0.7403  0.8902
 2557TIP3    H2 7636   6.350   3.586   4.091 -0.8425 -0.8856 -1.7167
 2558TIP3   OH2 7637   4.625   1.062   5.538 -0.4573 -0.9255 -0.4149
 2558TIP3    H1 7638   4.580   1.034   5.617 -1.8003 -0.2431 -0.8916
 2558TIP3    H2 7639   4.558   1.110   5.488  1.4475  2.6788  0.1188
 2559TIP3   OH2 7640   1.456   2.086   5.496  0.9926  0.2592 -0.4445
 2559TIP3    H1 7641   1.420   2.150   5.434 -1.3617 -0.3960  0.1193
 2559TIP3    H2 7642   1.478   2.138   5.574 -0.0872  0.5385 -0.3034
 2560TIP3   OH2 7643   5.093   5.456   0.361  0.1450 -0.0104  0.3261
 2560TIP3    H1 7644   5.104   5.528   0.299 -0.1696 -0.4748 -0.2805
 2560TIP3    H2 7645   5.115   5.378   0.310 -0.9211 -0.4772  0.5585
 2561TIP3   OH2 7646   6.764   2.413   3.425 -0.8678  0.1067 -0.2872
 2561TIP3    H1 7647   6.812   2.399   3.344  0.9073 -1.0683  0.9018
 2561TIP3    H2 7648   6.768   2.329   3.471 -0.7726  1.0554  1.5442
 2562TIP3   OH2 7649   0.907   6.151   3.066  0.2591 -0.0321  0.1203
 2562TIP3    H1 7650   0.946   6.069   3.096  0.9892  0.2380 -0.0763
 2562TIP3    H2 7651   0.880   6.196   3.147 -1.2065 -0.9566  0.1868
 2563TIP3   OH2 7652   6.770   3.825   5.801 -0.4286  0.0851 -0.4354
 2563TIP3    H1 7653   6.709   3.891   5.766  0.2944 -0.1441 -2.2193
 2563TIP3    H2 7654   6.856   3.867   5.796  0.0029 -0.8716 -1.3244
 2564TIP3   OH2 7655   1.075   5.605   1.349  0.0358 -0.3166 -0.7877
 2564TIP3    H1 7656   0.992   5.616   1.302  0.0138 -0.2796 -0.7404
 2564TIP3    H2 7657   1.069   5.516   1.385 -0.7176  0.2803  0.6394
 2565TIP3   OH2 7658   3.850   1.765   2.761  0.8055 -0.6162 -0.4666
 2565TIP3    H1 7659   3.866   1.670   2.756  0.0502 -0.7111 -1.1513
 2565TIP3    H2 7660   3.799   1.785   2.683 -0.8267  0.0095  0.7159
 2566TIP3   OH2 7661   4.711   3.893   3.023  0.0154  0.5357 -0.1335
 2566TIP3    H1 7662   4.662   3.830   2.971  0.6045 -0.5598  0.6034
 2566TIP3    H2 7663   4.797   3.854   3.034  0.1545  1.1165  0.9811
 2567TIP3   OH2 7664   3.329   3.465   5.034 -0.1764 -0.0961 -0.2335
 2567TIP3    H1 7665   3.286   3.469   4.948 -2.2577 -0.4628  0.7136
 2567TIP3    H2 7666   3.263   3.499   5.095  1.5056  0.8347  1.1645
 2568TIP3   OH2 7667   2.179   0.121   4.288 -0.1869  0.1321 -0.2869
 2568TIP3    H1 7668   2.200   0.099   4.378  0.8324 -1.2174 -0.8266
 2568TIP3    H2 7669   2.179   0.217   4.286 -0.4255  0.1779  1.1784
 2569TIP3   OH2 7670   6.125   6.022   0.694  0.2616  0.2228  0.0458
 2569TIP3    H1 7671   6.203   6.077   0.692 -0.1641  0.8279  0.0180
 2569TIP3    H2 7672   6.096   6.019   0.603  1.8369 -2.3278 -0.5055
 2570TIP3   OH2 7673   2.418   1.561   3.156 -0.8916  0.1709  0.1765
 2570TIP3    H1 7674   2.396   1.627   3.222  1.2671  3.0736 -1.7461
 2570TIP3    H2 7675   2.370   1.588   3.078 -0.5090 -0.9745 -0.4838
 2571TIP3   OH2 7676   6.718   2.171   1.424  0.2941 -0.1063  0.6026
 2571TIP3    H1 7677   6.724   2.140   1.514 -0.7999 -0.4682  0.5730
 2571TIP3    H2 7678   6.629   2.207   1.418  0.5130  0.3154 -0.2032
 2572TIP3   OH2 7679   2.269   2.316   5.165 -0.0257  0.0421 -0.1605
 2572TIP3    H1 7680   2.295   2.305   5.256  2.4679  0.6873 -0.7308
 2572TIP3    H2 7681   2.278   2.229   5.126 -0.0062 -0.0081 -0.0434
 2573TIP3   OH2 7682   4.302   4.718   2.314 -0.0284  0.1537  0.7859
 2573TIP3    H1 7683   4.255   4.793   2.277  0.2012  0.7300  1.6472
 2573TIP3    H2 7684   4.247   4.643   2.293  0.1936  0.4181 -0.9131
 2574TIP3   OH2 7685   4.725   4.982   4.741 -0.2993  0.2105 -0.0674
 2574TIP3    H1 7686   4.798   4.921   4.729 -0.8250 -0.5737  0.5802
 2574TIP3    H2 7687   4.743   5.023   4.826 -0.7245 -0.1665  0.2109
 2575TIP3   OH2 7688   4.740   4.018   4.911  0.0215 -0.1773 -0.2229
 2575TIP3    H1 7689   4.748   4.097   4.857  0.3973 -0.0824 -0.0360
 2575TIP3    H2 7690   4.752   4.049   5.000  2.3524 -0.7147 -0.2688
 2576TIP3   OH2 7691   0.919   2.797   5.570 -0.1314  0.6462 -0.0777
 2576TIP3    H1 7692   0.866   2.719   5.555  2.3146 -1.0213 -0.6232
 2576TIP3    H2 7693   0.917   2.809   5.665 -0.2918 -0.2986  0.0495
 2577TIP3   OH2 7694   2.809   5.646   2.096  0.2950  0.2906  0.0215
 2577TIP3    H1 7695   2.723   5.651   2.138  1.1183  0.8579  1.7261
 2577TIP3    H2 7696   2.868   5.615   2.165  1.6389  0.8284 -0.8455
 2578TIP3   OH2 7697   4.764   3.084   2.357  0.3237  0.4048  0.6110
 2578TIP3    H1 7698   4.788   3.166   2.401 -2.0527  0.9056  1.1390
 2578TIP3    H2 7699   4.700   3.043   2.416 -0.9732 -0.2150 -1.1393
 2579TIP3   OH2 7700   4.899   0.584   4.264 -0.5026  0.1195  0.0405
 2579TIP3    H1 7701   4.969   0.590   4.198 -0.3754 -0.1423  0.1484
 2579TIP3    H2 7702   4.913   0.498   4.305  0.1809  0.7886  1.2647
 2580TIP3   OH2 7703   0.209   5.173   0.455 -0.0027 -0.2494  0.5693
 2580TIP3    H1 7704   0.274   5.129   0.510  1.7647 -0.0368 -1.2179
 2580TIP3    H2 7705   0.199   5.115   0.379  1.0537  1.5004 -1.0069
 2581TIP3   OH2 7706   5.731   6.311   2.921  0.1824 -0.0614 -0.0466
 2581TIP3    H1 7707   5.716   6.392   2.971  2.7687 -1.0722  2.6568
 2581TIP3    H2 7708   5.826   6.307   2.910  0.1646 -2.8724  0.1714
 2582TIP3   OH2 7709   5.921   3.989   1.118 -0.1040 -0.2543 -0.1180
 2582TIP3    H1 7710   5.924   3.906   1.166  0.9123 -0.9433 -1.3243
 2582TIP3    H2 7711   5.828   4.008   1.109 -0.3904 -1.7352 -0.5938
 2583TIP3   OH2 7712   2.220   5.764   0.634 -0.1533  0.4159  0.5261
 2583TIP3    H1 7713   2.308   5.741   0.607 -0.1385 -0.2497  1.1233
 2583TIP3    H2 7714   2.232   5.838   0.694 -0.1665  1.6998 -0.9747
 2584TIP3   OH2 7715   2.373   3.592   4.889 -0.1690 -0.0995  0.1616
 2584TIP3    H1 7716   2.368   3.629   4.801 -0.5212  0.7649  0.5299
 2584TIP3    H2 7717   2.327   3.508   4.883 -1.7654  0.7508 -0.0831
 2585TIP3   OH2 7718   5.040   1.145   1.668 -0.3193  0.0441 -1.0474
 2585TIP3    H1 7719   5.082   1.202   1.603 -0.4277  0.3693 -0.8340
 2585TIP3    H2 7720   5.108   1.083   1.693  0.1815  0.8377 -0.3748
 2586TIP3   OH2 7721   1.473   4.184   5.862  0.0106 -0.0555 -0.1183
 2586TIP3    H1 7722   1.418   4.262   5.865  0.7623  0.4765  0.3961
 2586TIP3    H2 7723   1.533   4.195   5.936  1.1520 -0.3289 -0.9751
 2587TIP3   OH2 7724   5.706   0.782   4.653  0.1852  0.0158 -0.1456
 2587TIP3    H1 7725   5.673   0.851   4.595  1.6709  0.2019 -0.8094
 2587TIP3    H2 7726   5.735   0.829   4.731 -0.3298 -0.0534  0.0902
 2588TIP3   OH2 7727   4.110   1.152   3.658  0.0712  0.4555  0.4343
 2588TIP3    H1 7728   4.140   1.242   3.643  1.3252  0.2867  1.6552
 2588TIP3    H2 7729   4.023   1.161   3.696  0.4074  1.2056  1.0675
 2589TIP3   OH2 7730   5.990   2.953   3.743 -0.2956 -0.1023 -0.2539
 2589TIP3    H1 7731   6.083   2.969   3.729 -0.8717  1.8022 -2.6163
 2589TIP3    H2 7732   5.970   3.000   3.824  0.7342 -0.2186  0.0780
 2590TIP3   OH2 7733   5.789   6.592   1.724  0.5406  0.8333  0.1581
 2590TIP3    H1 7734   5.833   6.648   1.787  1.8978 -1.1050  1.0528
 2590TIP3    H2 7735   5.858   6.566   1.663  0.0807 -0.2447  0.0714
 2591TIP3   OH2 7736   5.225   1.655   3.082 -0.1714  0.0867  0.1963
 2591TIP3    H1 7737   5.161   1.638   3.012  0.0376  1.1186 -0.2609
 2591TIP3    H2 7738   5.185   1.725   3.134  0.0339 -0.1294  0.6504
 2592TIP3   OH2 7739   0.411   3.795   0.322  0.1269 -0.0239 -0.5209
 2592TIP3    H1 7740   0.344   3.727   0.326  2.5178 -2.4954  1.2224
 2592TIP3    H2 7741   0.445   3.789   0.232  0.4043 -1.2957 -0.3522
 2593TIP3   OH2 7742   4.163   3.661   5.384  0.3941  0.1598  0.2930
 2593TIP3    H1 7743   4.137   3.736   5.331 -0.6734  1.7504  2.8801
 2593TIP3    H2 7744   4.258   3.655   5.372  0.4699  1.8350 -0.0962
 2594TIP3   OH2 7745   2.833   3.681   4.869  0.0896 -0.0581 -0.4440
 2594TIP3    H1 7746   2.865   3.626   4.940 -1.3074 -0.7981 -0.3566
 2594TIP3    H2 7747   2.845   3.771   4.901  0.0486 -0.3696  0.4733
 2595TIP3   OH2 7748   6.269   0.912   5.578 -0.0416  0.2413 -0.6084
 2595TIP3    H1 7749   6.247   1.005   5.577 -1.4191 -0.0288  0.6263
 2595TIP3    H2 7750   6.352   0.908   5.624 -0.4119  0.8082  0.1405
 2596TIP3   OH2 7751   1.425   0.279   5.533 -0.0486  0.0903 -0.6929
 2596TIP3    H1 7752   1.335   0.252   5.549  0.0490 -0.5393 -1.1791
 2596TIP3    H2 7753   1.448   0.331   5.610  0.0165 -1.8873  0.7221
 2597TIP3   OH2 7754   7.097   5.632   0.749  0.0913 -0.2611  0.2633
 2597TIP3    H1 7755   7.003   5.647   0.738  0.1144 -0.1250  0.2588
 2597TIP3    H2 7756   7.102   5.545   0.790  0.0253 -1.1112 -1.4302
 2598TIP3   OH2 7757   3.317   6.371   2.826 -0.2754 -0.0341 -0.0320
 2598TIP3    H1 7758   3.288   6.449   2.873  0.3030 -0.1295  0.5087
 2598TIP3    H2 7759   3.381   6.331   2.885  1.5459  0.6007 -1.4739
 2599TIP3   OH2 7760   0.313   1.325   5.375 -0.0255 -0.0663 -0.2294
 2599TIP3    H1 7761   0.308   1.285   5.461 -0.0512 -0.4903 -0.4264
 2599TIP3    H2 7762   0.222   1.336   5.348 -0.0292  0.5070 -0.0048
 2600TIP3   OH2 7763   1.070   4.896   0.338  0.0465  0.3972 -0.0587
 2600TIP3    H1 7764   1.012   4.939   0.275 -1.0922 -1.5007 -0.3691
 2600TIP3    H2 7765   1.151   4.881   0.289  0.0151  1.0611 -0.3212
 2601TIP3   OH2 7766   3.332   4.160   0.369  0.4494 -0.4726 -0.5830
 2601TIP3    H1 7767   3.372   4.148   0.455  1.3437  0.6272 -0.8075
 2601TIP3    H2 7768   3.347   4.077   0.323 -0.5308 -1.2628  0.4946
 2602TIP3   OH2 7769   0.069   0.223   5.767  0.0378  0.0760  0.1414
 2602TIP3    H1 7770   0.110   0.231   5.854  1.5415 -0.2047 -0.5150
 2602TIP3    H2 7771   0.140   0.240   5.705 -1.4766  2.4281 -1.0703
 2603TIP3   OH2 7772   3.901   3.179   5.026 -0.2865 -0.1294 -0.0798
 2603TIP3    H1 7773   3.952   3.254   4.995 -0.3278  0.1216  0.4366
 2603TIP3    H2 7774   3.813   3.195   4.994 -0.9089  1.4046  2.1684
 2604TIP3   OH2 7775   5.105   5.794   3.861 -0.0333 -0.1081  0.4967
 2604TIP3    H1 7776   5.158   5.871   3.840  1.7220 -1.0164  1.3880
 2604TIP3    H2 7777   5.055   5.777   3.781  1.5893  0.3420 -0.6717
 2605TIP3   OH2 7778   2.499   0.254   4.319  0.2760  0.0406 -0.0560
 2605TIP3    H1 7779   2.440   0.184   4.292 -0.7602  1.1874 -0.8701
 2605TIP3    H2 7780   2.577   0.209   4.351 -0.6558 -1.4916  0.1578
 2606TIP3   OH2 7781   6.921   6.259   4.719 -0.1797  0.4805  0.2725
 2606TIP3    H1 7782   6.961   6.182   4.677 -0.7631 -2.2620  4.1896
 2606TIP3    H2 7783   6.992   6.324   4.722  1.2673 -0.9638 -0.6381
 2607TIP3   OH2 7784   1.959   1.410   0.002  0.1483  0.2779 -0.0262
 2607TIP3    H1 7785   2.047   1.444   0.017  0.6335 -1.2855  0.9207
 2607TIP3    H2 7786   1.958   1.326   0.048 -1.7736  0.1637 -0.2147
 2608TIP3   OH2 7787   2.270   1.778   0.398  0.0345 -0.4821 -0.0132
 2608TIP3    H1 7788   2.221   1.747   0.322 -2.0006  2.0211  0.1213
 2608TIP3    H2 7789   2.328   1.846   0.363  0.2960 -0.4751  0.4251
 2609TIP3   OH2 7790   1.191   3.466   0.511 -0.2726  0.1589  0.3168
 2609TIP3    H1 7791   1.223   3.554   0.527  0.7442  0.0220 -0.7841
 2609TIP3    H2 7792   1.120   3.478   0.447 -0.7330  0.2387  0.8315
 2610TIP3   OH2 7793   6.612   6.717   3.333  0.1583  0.2819 -0.0900
 2610TIP3    H1 7794   6.536   6.729   3.391 -0.2659  0.0865 -0.5996
 2610TIP3    H2 7795   6.646   6.806   3.320  0.6326  0.2658  0.9488
 2611TIP3   OH2 7796   1.729   5.641   2.046 -0.0735  0.4079  0.4997
 2611TIP3    H1 7797   1.683   5.558   2.055 -0.6160  0.8395  1.8620
 2611TIP3    H2 7798   1.782   5.630   1.966 -0.0662 -1.2569  0.6938
 2612TIP3   OH2 7799   1.422   5.711   1.730  0.0285 -0.2937 -0.3323
 2612TIP3    H1 7800   1.385   5.799   1.729 -0.2417 -0.3790 -2.5940
 2612TIP3    H2 7801   1.395   5.674   1.814  0.2975  1.8140  0.7341
 2613TIP3   OH2 7802   1.265   1.482   0.764 -0.4102 -0.4159  0.3353
 2613TIP3    H1 7803   1.312   1.496   0.847 -2.2576 -0.9527  1.5417
 2613TIP3    H2 7804   1.330   1.444   0.706  0.6837 -1.0815  1.9120
 2614TIP3   OH2 7805   7.248   6.279   0.776  0.3006  0.1963  0.4197
 2614TIP3    H1 7806   7.223   6.370   0.789  1.3376  0.4467  0.8142
 2614TIP3    H2 7807   7.170   6.237   0.741 -0.5862  0.9589  1.3962
 2615TIP3   OH2 7808   1.487   5.396   1.852  0.6249 -0.2664  0.2554
 2615TIP3    H1 7809   1.417   5.461   1.848  0.8341  0.5447  4.7400
 2615TIP3    H2 7810   1.441   5.312   1.852  0.0710 -0.0026 -1.6236
 2616TIP3   OH2 7811   4.667   3.961   3.274 -0.0577  0.4102 -0.3238
 2616TIP3    H1 7812   4.692   3.962   3.182 -0.4281 -0.8103 -0.4507
 2616TIP3    H2 7813   4.613   3.883   3.283  1.9399 -0.8776  1.4431
 2617TIP3   OH2 7814   3.517   6.765   1.115 -0.2461  0.1988 -0.3916
 2617TIP3    H1 7815   3.570   6.815   1.052 -2.3278  1.3184 -1.3517
 2617TIP3    H2 7816   3.481   6.832   1.173 -2.0957 -0.2669 -0.9472
 2618TIP3   OH2 7817   1.988   2.670   5.234  0.5587  0.1498 -0.2733
 2618TIP3    H1 7818   1.896   2.697   5.236  0.6680  0.5522 -0.5195
 2618TIP3    H2 7819   2.004   2.642   5.144  1.0619  1.5048 -0.6360
 2619TIP3   OH2 7820   2.962   4.564   3.552  0.7877  0.0675  0.0314
 2619TIP3    H1 7821   3.001   4.646   3.521  0.0544  0.1285 -0.7738
 2619TIP3    H2 7822   2.887   4.592   3.605 -0.1988 -0.0712 -1.2450
 2620TIP3   OH2 7823   5.256   5.453   1.530 -0.3571 -0.2177  0.1395
 2620TIP3    H1 7824   5.170   5.412   1.542 -1.2612  0.8262 -2.1419
 2620TIP3    H2 7825   5.272   5.498   1.613 -2.3526  0.1197  0.3985
 2621TIP3   OH2 7826   5.299   4.655   1.123  0.4276  0.8595 -0.3728
 2621TIP3    H1 7827   5.265   4.656   1.033 -1.5652 -1.2182  0.2549
 2621TIP3    H2 7828   5.238   4.709   1.173  1.4602  1.9036 -0.1971
 2622TIP3   OH2 7829   1.510   3.493   1.409 -0.2305  0.6274 -0.0954
 2622TIP3    H1 7830   1.597   3.526   1.431  0.0595 -0.4614  0.4774
 2622TIP3    H2 7831   1.522   3.398   1.398 -1.3143  0.4775 -0.1351
 2623TIP3   OH2 7832   3.370   5.597   4.330  0.5472 -0.7739  0.0316
 2623TIP3    H1 7833   3.452   5.611   4.283 -0.0905  2.2237 -0.4127
 2623TIP3    H2 7834   3.315   5.550   4.268  0.6887  0.6125 -1.2020
 2624TIP3   OH2 7835   4.930   3.101   5.601  0.5960  0.2468  0.1055
 2624TIP3    H1 7836   4.862   3.036   5.620  1.1324 -0.2568  0.3388
 2624TIP3    H2 7837   5.006   3.071   5.652  1.5156 -0.1259 -1.4326
 2625TIP3   OH2 7838   2.979   5.116   2.612  0.6274  0.2034  0.1335
 2625TIP3    H1 7839   2.976   5.155   2.699 -0.0709 -0.0651  0.2337
 2625TIP3    H2 7840   3.041   5.043   2.619  1.1239  0.6241  0.2135
 2626TIP3   OH2 7841   5.542   4.176   0.014 -0.1406  0.3005 -0.4698
 2626TIP3    H1 7842   5.521   4.257   0.062  2.0008  1.2206 -0.9620
 2626TIP3    H2 7843   5.607   4.132   0.069 -0.2069 -0.3708 -0.9152
 2627TIP3   OH2 7844   2.422   4.602   4.674 -0.2581 -0.5841  0.2522
 2627TIP3    H1 7845   2.417   4.514   4.637 -1.5666  0.1836 -1.5895
 2627TIP3    H2 7846   2.492   4.645   4.625  0.5911 -0.6426  1.3582
 2628TIP3   OH2 7847   2.696   3.030   2.075 -0.3629  0.2226 -0.3168
 2628TIP3    H1 7848   2.732   3.005   2.161 -2.2014 -0.6074  0.2683
 2628TIP3    H2 7849   2.739   3.113   2.054  2.4002 -1.0100 -0.0555
 2629TIP3   OH2 7850   4.833   4.052   1.361 -0.2170  0.8847 -0.2047
 2629TIP3    H1 7851   4.851   4.053   1.267 -0.8208  1.5367 -0.3244
 2629TIP3    H2 7852   4.919   4.058   1.402  0.2743 -1.7327 -0.6507
 2630TIP3   OH2 7853   1.580   4.397   1.437  1.0196  0.0422  0.1652
 2630TIP3    H1 7854   1.608   4.330   1.499  0.9562 -0.3762 -0.2560
 2630TIP3    H2 7855   1.495   4.426   1.469  0.0991 -1.4989 -0.7335
 2631TIP3   OH2 7856   3.078   3.029   5.704  0.6815  0.3453  0.0220
 2631TIP3    H1 7857   2.984   3.037   5.720  0.0845  0.1715 -2.8983
 2631TIP3    H2 7858   3.090   2.939   5.677  1.6880  0.3872  0.3139
 2632TIP3   OH2 7859   4.270   5.885   2.478  0.1474  0.1460 -0.0429
 2632TIP3    H1 7860   4.313   5.820   2.534 -2.1156 -0.8052  0.7362
 2632TIP3    H2 7861   4.334   5.955   2.468  0.9269  0.0762  3.2692
 2633TIP3   OH2 7862   3.810   0.155   0.592 -0.1578  0.2196  0.2528
 2633TIP3    H1 7863   3.736   0.108   0.631  2.0771 -3.1650  0.8349
 2633TIP3    H2 7864   3.882   0.140   0.653  1.2566  2.6899 -0.6929
 2634TIP3   OH2 7865   2.350   5.378   4.330  0.1172 -0.7729 -0.3039
 2634TIP3    H1 7866   2.394   5.316   4.389 -1.2960 -2.5811 -1.0620
 2634TIP3    H2 7867   2.309   5.441   4.389  0.6675 -1.1949  0.5522
 2635TIP3   OH2 7868   4.548   2.685   2.734 -0.0157  0.5136 -0.3637
 2635TIP3    H1 7869   4.630   2.687   2.782  1.0975 -0.4490 -2.0985
 2635TIP3    H2 7870   4.553   2.761   2.675 -0.8482  1.0405  0.2277
 2636TIP3   OH2 7871   3.655   5.073   1.598  0.7710 -0.2307  0.1591
 2636TIP3    H1 7872   3.706   5.093   1.677 -0.6254 -0.6385  1.2053
 2636TIP3    H2 7873   3.717   5.085   1.526  2.4132 -0.9807  1.3827
 2637TIP3   OH2 7874   5.728   3.830   2.868 -0.1616  0.2048 -0.1680
 2637TIP3    H1 7875   5.671   3.817   2.944 -0.2003  1.9847  0.1627
 2637TIP3    H2 7876   5.816   3.815   2.902 -0.2117  0.5988  0.1493
 2638TIP3   OH2 7877   1.697   6.258   1.641  0.0092  0.3487 -0.2352
 2638TIP3    H1 7878   1.774   6.203   1.655 -0.3171  0.0425  0.3781
 2638TIP3    H2 7879   1.717   6.339   1.689  0.1496  0.4602 -0.4779
 2639TIP3   OH2 7880   4.016   4.849   2.022 -0.7189  0.1435  0.5438
 2639TIP3    H1 7881   4.017   4.754   2.011 -0.7926  0.3457 -1.6687
 2639TIP3    H2 7882   4.076   4.866   2.095  0.3369 -1.5237  0.1037
 2640TIP3   OH2 7883   3.581   3.781   4.696  0.1771  0.3399  0.4880
 2640TIP3    H1 7884   3.499   3.761   4.742 -0.5279 -0.1067 -0.9047
 2640TIP3    H2 7885   3.614   3.859   4.740 -1.3001  0.8824  0.7095
 2641TIP3   OH2 7886   2.898   3.890   1.878 -0.6037  0.5302  0.4936
 2641TIP3    H1 7887   2.993   3.897   1.886 -0.2431 -0.1331 -2.3970
 2641TIP3    H2 7888   2.880   3.796   1.882 -0.8788  0.5009 -1.0795
 2642TIP3   OH2 7889   5.190   2.234   5.732 -0.5801  0.2019  0.6113
 2642TIP3    H1 7890   5.217   2.150   5.768 -2.5524 -0.4954  0.5451
 2642TIP3    H2 7891   5.223   2.233   5.642  1.5300  0.5909  1.3078
 2643TIP3   OH2 7892   1.534   0.641   1.225  0.3259 -0.1848 -0.1320
 2643TIP3    H1 7893   1.451   0.604   1.255 -0.5010  0.8937 -1.0090
 2643TIP3    H2 7894   1.554   0.708   1.290  1.2611 -1.3622  0.8490
 2644TIP3   OH2 7895   4.141   0.305   3.162  0.1015 -0.0038  0.3495
 2644TIP3    H1 7896   4.214   0.326   3.104 -0.0392  2.2042  0.8914
 2644TIP3    H2 7897   4.104   0.225   3.125  1.1591  0.2948 -1.5079
 2645TIP3   OH2 7898   6.906   2.438   2.408 -0.2598  0.5747 -0.3964
 2645TIP3    H1 7899   6.817   2.459   2.437  0.9402  1.5206  3.0349
 2645TIP3    H2 7900   6.935   2.516   2.361 -0.3755  1.3493  0.7861
 2646TIP3   OH2 7901   6.578   6.202   1.593 -0.5389  0.2207  0.0503
 2646TIP3    H1 7902   6.618   6.116   1.590 -0.4008  0.2807  0.1971
 2646TIP3    H2 7903   6.506   6.197   1.530 -0.3451  0.0933 -0.1619
 2647TIP3   OH2 7904   6.252   5.547   4.406 -0.4351 -0.1441  0.0280
 2647TIP3    H1 7905   6.334   5.520   4.364 -0.8369 -1.8634  0.2774
 2647TIP3    H2 7906   6.190   5.478   4.383 -1.6927  0.8763  0.2594
 2648TIP3   OH2 7907   6.524   0.858   0.163 -0.1997  0.1934  0.4397
 2648TIP3    H1 7908   6.595   0.876   0.102  0.7339 -1.1720  1.0427
 2648TIP3    H2 7909   6.547   0.907   0.242  0.0640 -0.2020  0.6145
 2649TIP3   OH2 7910   6.472   3.377   2.895  0.2415  0.5208 -0.4554
 2649TIP3    H1 7911   6.462   3.458   2.844  0.0691  0.9055  0.1788
 2649TIP3    H2 7912   6.416   3.313   2.850  0.9263  0.5474 -1.3768
 2650TIP3   OH2 7913   3.256   4.695   3.976  0.0317 -0.2871  0.2329
 2650TIP3    H1 7914   3.311   4.695   3.898  0.7108  0.4190  0.6886
 2650TIP3    H2 7915   3.171   4.727   3.946  0.1144 -0.5896 -0.3224
 2651TIP3   OH2 7916   0.765   1.521   2.673 -0.1637 -0.0183 -0.1309
 2651TIP3    H1 7917   0.784   1.614   2.662 -0.3722 -0.1527 -1.8511
 2651TIP3    H2 7918   0.670   1.515   2.666 -0.0136 -0.5727 -2.0758
 2652TIP3   OH2 7919   6.160   5.330   5.142 -0.7123 -0.1330  0.0931
 2652TIP3    H1 7920   6.155   5.240   5.111  0.0304 -0.5641  1.1253
 2652TIP3    H2 7921   6.251   5.356   5.126 -1.4008  1.1978 -2.1004
 2653TIP3   OH2 7922   1.529   0.318   2.613 -0.0354 -0.7940 -0.2266
 2653TIP3    H1 7923   1.508   0.244   2.670  0.1376 -2.8396 -2.6497
 2653TIP3    H2 7924   1.444   0.353   2.586 -0.2056 -1.8990 -1.1996
 2654TIP3   OH2 7925   1.298   0.894   0.760  0.1171 -0.0411 -0.4424
 2654TIP3    H1 7926   1.355   0.817   0.756  0.1047 -0.1859  1.3317
 2654TIP3    H2 7927   1.277   0.913   0.669  0.2029 -2.0782 -0.9427
 2655TIP3   OH2 7928   5.318   5.332   3.620 -0.4217  0.1686 -0.5254
 2655TIP3    H1 7929   5.293   5.243   3.645  0.0641  0.2116  0.1403
 2655TIP3    H2 7930   5.235   5.375   3.600 -0.9259  0.2444  1.4521
 2656TIP3   OH2 7931   3.983   0.486   1.615  0.3251  0.2359 -0.1111
 2656TIP3    H1 7932   3.957   0.463   1.525  1.0209 -0.3726 -0.1595
 2656TIP3    H2 7933   3.938   0.421   1.669  0.6215  0.0487 -0.0892
 2657TIP3   OH2 7934   0.476   1.275   0.399 -0.1810  0.3731 -0.0140
 2657TIP3    H1 7935   0.546   1.340   0.407 -0.0449  0.6931 -2.7561
 2657TIP3    H2 7936   0.520   1.191   0.407  0.5963  0.5703 -1.7425
 2658TIP3   OH2 7937   7.117   4.677   3.090 -0.3156 -0.3492 -0.3958
 2658TIP3    H1 7938   7.112   4.720   3.175  1.0839  1.3673 -1.1111
 2658TIP3    H2 7939   7.028   4.678   3.056 -0.9226 -1.1877  1.0643
 2659TIP3   OH2 7940   6.112   1.171   1.651 -0.4869  0.1414  0.2886
 2659TIP3    H1 7941   6.107   1.118   1.730 -0.6590 -0.7472 -0.3017
 2659TIP3    H2 7942   6.191   1.140   1.606 -1.4911 -0.8287 -0.8884
 2660TIP3   OH2 7943   0.668   0.464  -0.030  0.5055 -0.7062  0.1730
 2660TIP3    H1 7944   0.589   0.476   0.023  1.5837  0.9672  1.5599
 2660TIP3    H2 7945   0.712   0.388   0.009  1.0253  0.1904  1.4149
 2661TIP3   OH2 7946   1.743   3.089   1.565 -0.1667 -0.2131  0.9008
 2661TIP3    H1 7947   1.726   3.049   1.480 -2.1867 -1.6431  1.8701
 2661TIP3    H2 7948   1.805   3.029   1.607  0.4296  0.2164  0.6458
 2662TIP3   OH2 7949   4.629   1.595   5.262  0.2900 -0.1104 -0.0934
 2662TIP3    H1 7950   4.570   1.602   5.338 -0.0921 -0.4511 -0.3563
 2662TIP3    H2 7951   4.617   1.677   5.215  0.6104  0.1488  0.2731
 2663TIP3   OH2 7952   4.453   0.227   2.533  0.3547 -0.0869 -0.4144
 2663TIP3    H1 7953   4.379   0.182   2.575 -0.1334  1.5348  0.5367
 2663TIP3    H2 7954   4.414   0.300   2.486  1.2083 -0.2120 -1.3641
 2664TIP3   OH2 7955   2.647   5.199   5.715  0.0036 -0.0662 -0.0534
 2664TIP3    H1 7956   2.650   5.214   5.810 -0.0276  0.2126 -0.0965
 2664TIP3    H2 7957   2.612   5.280   5.679 -1.1224 -0.5963 -0.2012
 2665TIP3   OH2 7958   0.328   5.916   3.271 -0.3129  0.9347 -0.0834
 2665TIP3    H1 7959   0.353   5.962   3.191 -0.0432 -0.7539 -1.0089
 2665TIP3    H2 7960   0.359   5.973   3.342  2.7877  0.7853 -1.1686
 2666TIP3   OH2 7961   0.633   4.606   5.391 -0.2215  0.7178  0.2493
 2666TIP3    H1 7962   0.621   4.612   5.485 -1.0633  0.6709  0.1486
 2666TIP3    H2 7963   0.549   4.630   5.353  0.5616  2.3493 -0.5554
 2667TIP3   OH2 7964   5.593   5.112   4.480 -0.7934 -0.1079 -0.3837
 2667TIP3    H1 7965   5.622   5.071   4.562  0.6551  1.1435 -0.2276
 2667TIP3    H2 7966   5.619   5.050   4.412 -2.2286 -1.2766  0.0698
 2668TIP3   OH2 7967   7.214   4.694   1.656 -0.3475 -0.5475  0.3785
 2668TIP3    H1 7968   7.260   4.730   1.581 -0.5897 -0.6023  0.2026
 2668TIP3    H2 7969   7.122   4.694   1.630 -0.4701 -0.2517  0.8025
 2669TIP3   OH2 7970   4.472   0.861   5.681  0.2484  0.0633  0.4401
 2669TIP3    H1 7971   4.404   0.821   5.628  0.4156 -0.4222  0.5847
 2669TIP3    H2 7972   4.541   0.794   5.686 -0.1488 -0.2682  2.0345
 2670TIP3   OH2 7973   2.295   0.208   2.770  0.4839  0.4021  0.7124
 2670TIP3    H1 7974   2.362   0.181   2.833 -0.1517  1.3318  1.8228
 2670TIP3    H2 7975   2.254   0.127   2.742  0.8788 -0.0454  1.4009
 2671TIP3   OH2 7976   0.179   3.622   1.833  0.2665  0.1931  0.4757
 2671TIP3    H1 7977   0.242   3.692   1.819  0.1978  0.7399  2.5157
 2671TIP3    H2 7978   0.146   3.637   1.922 -2.5108 -0.2577 -0.3791
 2672TIP3   OH2 7979   6.969   2.336   0.300 -0.4833  0.6867 -0.1239
 2672TIP3    H1 7980   6.933   2.247   0.296  0.3163  0.4092 -1.5746
 2672TIP3    H2 7981   6.928   2.374   0.378 -0.7667 -0.9759  0.5812
 2673TIP3   OH2 7982   0.667   0.137   0.764 -0.8975  0.5405 -0.4763
 2673TIP3    H1 7983   0.653   0.057   0.816  0.5667  1.0794  0.8128
 2673TIP3    H2 7984   0.684   0.205   0.829  0.0936  1.4334 -1.6283
 2674TIP3   OH2 7985   6.413   1.873   0.296  0.7198  0.7792 -0.1184
 2674TIP3    H1 7986   6.477   1.864   0.367  1.2430  0.1937 -0.6531
 2674TIP3    H2 7987   6.458   1.924   0.229  0.9444 -0.3504 -0.8515
 2675TIP3   OH2 7988   1.846   4.718   2.225 -0.0165 -0.5648 -0.2850
 2675TIP3    H1 7989   1.754   4.693   2.237  0.1544 -0.2634  2.1883
 2675TIP3    H2 7990   1.842   4.797   2.171 -1.1093 -1.0664 -0.9990
 2676TIP3   OH2 7991   3.078   5.170   3.762  0.1581  0.2367 -0.2089
 2676TIP3    H1 7992   3.168   5.195   3.743  0.6714 -1.2075  0.2416
 2676TIP3    H2 7993   3.085   5.086   3.806 -1.2243  1.3289  2.3333
 2677TIP3   OH2 7994   6.648   1.454   0.920 -0.7762  0.1735  0.6324
 2677TIP3    H1 7995   6.670   1.361   0.917 -2.6113 -0.2835  0.4747
 2677TIP3    H2 7996   6.658   1.479   1.012  1.7185  0.3839  0.3728
 2678TIP3   OH2 7997   3.304   1.367   2.427 -0.0165  0.6144  0.5552
 2678TIP3    H1 7998   3.348   1.379   2.343 -0.7880  4.0006  0.4936
 2678TIP3    H2 7999   3.369   1.324   2.482  1.4688  0.7643 -0.9846
 2679TIP3   OH2 8000   0.494   3.568   0.462 -0.1872 -0.0990 -0.1895
 2679TIP3    H1 8001   0.586   3.557   0.487 -0.3129 -0.9674 -0.0537
 2679TIP3    H2 8002   0.490   3.655   0.423  1.1072 -0.7949 -2.0286
 2680TIP3   OH2 8003   4.048   0.598   4.649  0.3393 -0.2017 -0.0068
 2680TIP3    H1 8004   4.128   0.553   4.675 -1.0230 -2.4774  0.5801
 2680TIP3    H2 8005   4.009   0.626   4.732 -0.4435 -0.9484 -0.1086
 2681TIP3   OH2 8006   3.517   2.754   4.106 -0.7582  0.5720 -0.2920
 2681TIP3    H1 8007   3.514   2.689   4.177  0.5187 -0.3627 -1.0648
 2681TIP3    H2 8008   3.508   2.703   4.026 -0.0730  1.3802 -0.9000
 2682TIP3   OH2 8009   0.916   6.834   2.665  0.8921  0.3525 -0.1419
 2682TIP3    H1 8010   0.894   6.742   2.651  0.0634  0.6014 -0.5504
 2682TIP3    H2 8011   0.998   6.832   2.714  1.0512 -0.5983 -0.4269
 2683TIP3   OH2 8012   6.300   2.993   3.498 -0.0018  0.2986 -0.3468
 2683TIP3    H1 8013   6.330   2.930   3.433 -2.8236 -1.3377 -0.2359
 2683TIP3    H2 8014   6.249   3.057   3.447 -0.6767  0.0586  0.0124
 2684TIP3   OH2 8015   3.832   6.320   1.967 -0.1914  0.3196  0.1908
 2684TIP3    H1 8016   3.855   6.255   1.900 -0.0130 -1.0351  1.5277
 2684TIP3    H2 8017   3.747   6.292   2.001 -1.1701  2.0428 -0.6939
 2685TIP3   OH2 8018   3.361  -0.007   1.352 -0.1154 -0.0779 -0.0262
 2685TIP3    H1 8019   3.418   0.061   1.315 -0.7656  0.3480 -0.2532
 2685TIP3    H2 8020   3.323   0.034   1.430  0.1382 -0.4753  0.3059
 2686TIP3   OH2 8021   5.901   5.588   3.947 -0.0166 -0.4624  0.0310
 2686TIP3    H1 8022   5.902   5.598   4.042 -1.2020  0.3114 -0.0169
 2686TIP3    H2 8023   5.970   5.648   3.916 -0.0753 -0.2158  0.3686
 2687TIP3   OH2 8024   3.885   2.529   1.236  0.3035  0.1075  0.4346
 2687TIP3    H1 8025   3.975   2.558   1.246  0.2343  0.4357  0.1234
 2687TIP3    H2 8026   3.843   2.597   1.183 -0.3005  0.3001  1.1442
 2688TIP3   OH2 8027   0.392   4.183   5.660 -0.1054  0.6559  0.0351
 2688TIP3    H1 8028   0.327   4.244   5.693 -0.0479 -0.0697  1.5759
 2688TIP3    H2 8029   0.476   4.222   5.683 -0.0688  0.0277  1.0352
 2689TIP3   OH2 8030   2.710   2.585   2.824  0.1753  0.5836 -1.0488
 2689TIP3    H1 8031   2.671   2.499   2.809  1.0421 -0.1890  0.7819
 2689TIP3    H2 8032   2.736   2.616   2.737 -0.2148 -0.9554 -1.7370
 2690TIP3   OH2 8033   5.024   5.106   2.240 -0.1428  0.6705  0.0449
 2690TIP3    H1 8034   5.074   5.152   2.307  0.2523  0.6592 -0.2367
 2690TIP3    H2 8035   5.041   5.013   2.256 -1.1092  0.6076  0.7442
 2691TIP3   OH2 8036   2.849   4.804   1.884  0.3654  0.1488 -0.0542
 2691TIP3    H1 8037   2.806   4.727   1.922 -0.6148  1.2621  1.1966
 2691TIP3    H2 8038   2.849   4.787   1.790 -1.4749 -0.5877  0.0287
 2692TIP3   OH2 8039   1.204   5.820   0.849 -0.1002  0.5022  0.0219
 2692TIP3    H1 8040   1.132   5.878   0.874  0.2552 -0.0417  2.5894
 2692TIP3    H2 8041   1.187   5.738   0.896  1.1863 -0.3148 -0.8600
 2693TIP3   OH2 8042   2.862   4.278   3.912  0.1902  0.2254  0.0274
 2693TIP3    H1 8043   2.814   4.320   3.983  1.7544  1.4886  0.4008
 2693TIP3    H2 8044   2.835   4.324   3.833 -0.7492 -0.4619 -0.0591
 2694TIP3   OH2 8045   0.972   1.171   0.092 -0.2468  0.0751  0.4285
 2694TIP3    H1 8046   0.959   1.226   0.015  0.0833 -0.3226  0.0861
 2694TIP3    H2 8047   0.990   1.084   0.057  2.2588  0.3426  0.8628
 2695TIP3   OH2 8048   2.204   3.588   1.202  0.2532 -0.2430  0.4458
 2695TIP3    H1 8049   2.292   3.550   1.213 -0.2837 -2.0130 -0.9429
 2695TIP3    H2 8050   2.176   3.560   1.115 -1.3996  0.9533  0.5428
 2696TIP3   OH2 8051   5.701   0.281   5.167  0.1708  0.1841 -0.2638
 2696TIP3    H1 8052   5.608   0.258   5.169  0.2335 -0.2104 -1.1883
 2696TIP3    H2 8053   5.704   0.372   5.196 -0.0748 -0.8780  3.5704
 2697TIP3   OH2 8054   4.747   6.490   2.963 -0.2818 -0.1884  0.2580
 2697TIP3    H1 8055   4.719   6.399   2.955 -0.5967  0.0027 -1.0581
 2697TIP3    H2 8056   4.698   6.537   2.895  1.4547  0.5744 -0.5398
 2698TIP3   OH2 8057   5.391   3.901   2.631 -0.8019  0.0371  0.1707
 2698TIP3    H1 8058   5.334   3.968   2.670 -1.8567 -2.0853  2.6343
 2698TIP3    H2 8059   5.333   3.826   2.617  0.3172 -0.4164 -2.5660
 2699TIP3   OH2 8060   3.174   2.590   5.281  0.0430  0.1320  0.4666
 2699TIP3    H1 8061   3.179   2.539   5.200 -2.5490  0.3233  0.0710
 2699TIP3    H2 8062   3.210   2.533   5.348  0.1509 -0.9606 -0.4793
 2700TIP3   OH2 8063   0.278   5.354   2.758  0.4737 -0.0922  0.2632
 2700TIP3    H1 8064   0.256   5.437   2.718 -1.4018 -0.0771  1.2281
 2700TIP3    H2 8065   0.342   5.377   2.826  1.6932  0.2121 -0.9441
 2701TIP3   OH2 8066   1.493   3.706   1.852  0.2694 -0.1591  0.0531
 2701TIP3    H1 8067   1.526   3.763   1.922 -1.8827  1.5578 -0.2101
 2701TIP3    H2 8068   1.427   3.759   1.807 -0.6016 -2.2878 -1.3498
 2702TIP3   OH2 8069   6.633   1.766   2.325 -0.4176  0.3558 -0.7764
 2702TIP3    H1 8070   6.678   1.698   2.376 -1.8642 -0.5756 -0.6857
 2702TIP3    H2 8071   6.541   1.758   2.350 -0.5039  3.1864  0.1607
 2703TIP3   OH2 8072   2.527   5.949   2.563 -0.3013 -0.2757  0.4480
 2703TIP3    H1 8073   2.608   5.910   2.531 -1.0315 -1.0627 -0.4995
 2703TIP3    H2 8074   2.536   5.946   2.659  1.2312  0.6513  0.3678
 2704TIP3   OH2 8075   3.819   4.750   1.692 -0.0598  0.0196 -0.3032
 2704TIP3    H1 8076   3.810   4.660   1.659 -0.2060  0.9402 -3.0381
 2704TIP3    H2 8077   3.898   4.783   1.649  0.3746  1.0140  1.1901
 2705TIP3   OH2 8078   2.937   3.644   0.730 -0.2928  0.4713  0.2432
 2705TIP3    H1 8079   2.926   3.549   0.716  0.0900  0.4440  0.1307
 2705TIP3    H2 8080   2.848   3.679   0.723 -0.4892  0.0672  0.6807
 2706TIP3   OH2 8081   6.348   1.065   3.004  0.0396  0.1318 -0.2391
 2706TIP3    H1 8082   6.290   1.121   2.953  0.1266 -0.5758 -1.1582
 2706TIP3    H2 8083   6.302   0.981   3.009  0.3450 -0.0081  0.2563
 2707TIP3   OH2 8084   1.547   4.194   1.852 -0.1744 -0.1620 -0.1028
 2707TIP3    H1 8085   1.498   4.276   1.846  0.6442  0.5220  1.7558
 2707TIP3    H2 8086   1.639   4.222   1.857  0.1557 -1.2259  0.0058
 2708TIP3   OH2 8087   2.479   5.604   4.615 -0.2912  0.0668  0.4234
 2708TIP3    H1 8088   2.525   5.558   4.686  0.1141 -0.0021  0.1211
 2708TIP3    H2 8089   2.513   5.693   4.619  0.6846 -0.2515 -0.4857
 2709TIP3   OH2 8090   5.154   0.620   0.791 -0.3988 -0.0113  0.0185
 2709TIP3    H1 8091   5.080   0.679   0.806  0.0792  1.0181 -1.4397
 2709TIP3    H2 8092   5.141   0.588   0.702 -0.0373 -1.2510  0.3927
 2710TIP3   OH2 8093   0.413   4.968   3.570 -0.3316 -0.6497 -0.2479
 2710TIP3    H1 8094   0.490   4.947   3.517  0.5455  1.0964  0.2768
 2710TIP3    H2 8095   0.446   5.021   3.642 -2.1928  1.5807 -0.8903
 2711TIP3   OH2 8096   3.929   1.964   4.504 -0.2806 -0.1894 -0.2765
 2711TIP3    H1 8097   3.915   1.998   4.416 -0.4055 -0.1379 -0.2377
 2711TIP3    H2 8098   3.856   1.904   4.519 -1.2580  1.1118  0.4373
 2712TIP3   OH2 8099   1.436   2.123   2.782 -0.0583  0.2377 -0.7392
 2712TIP3    H1 8100   1.481   2.103   2.699 -1.4137  0.0976 -1.4713
 2712TIP3    H2 8101   1.374   2.051   2.793  1.6537 -1.0288  1.6334
 2713TIP3   OH2 8102   2.847   4.552   4.464 -0.4112  0.1417 -0.7727
 2713TIP3    H1 8103   2.856   4.467   4.509  0.5478 -0.4813 -2.0760
 2713TIP3    H2 8104   2.937   4.584   4.456 -0.8108  1.7325  0.4560
 2714TIP3   OH2 8105   3.869   2.778   3.983  0.5496 -0.5089  0.4521
 2714TIP3    H1 8106   3.921   2.773   4.063  1.5876  2.9341  0.1509
 2714TIP3    H2 8107   3.783   2.809   4.012  0.5279 -0.4633  0.3374
 2715TIP3   OH2 8108   3.232   0.483   0.740  0.0607  0.1585  0.1703
 2715TIP3    H1 8109   3.158   0.449   0.690 -0.3490  1.1175  0.0862
 2715TIP3    H2 8110   3.308   0.471   0.683  0.0507 -1.1961  0.4151
 2716TIP3   OH2 8111   5.060   3.798   0.200 -0.2125 -0.1437  0.3057
 2716TIP3    H1 8112   4.995   3.856   0.160 -0.7161 -0.9338 -0.0414
 2716TIP3    H2 8113   5.130   3.792   0.135 -0.5692 -0.6270 -0.0391
 2717TIP3   OH2 8114   6.441   6.744   2.406  0.0284  0.1819 -0.4349
 2717TIP3    H1 8115   6.472   6.664   2.364  1.5674  0.6262 -0.2288
 2717TIP3    H2 8116   6.372   6.777   2.348 -0.1826 -0.9470 -0.8459
 2718TIP3   OH2 8117   2.350   0.520   4.043 -0.2193 -0.1053  0.0349
 2718TIP3    H1 8118   2.347   0.448   3.980 -0.4064  0.8413 -1.0714
 2718TIP3    H2 8119   2.392   0.592   3.995 -0.7925  0.7778  0.8304
 2719TIP3   OH2 8120   6.154   6.807   0.049 -0.0404  0.1980  0.4647
 2719TIP3    H1 8121   6.068   6.789   0.086 -0.1231  2.0769  1.3039
 2719TIP3    H2 8122   6.212   6.816   0.125  0.9812 -1.2788 -0.0930
 2720TIP3   OH2 8123   4.222   6.020   4.497  0.1292  0.2539  0.0490
 2720TIP3    H1 8124   4.249   6.013   4.405  0.6059  0.3340  0.1821
 2720TIP3    H2 8125   4.127   6.029   4.493  0.0989 -0.2248 -0.4163
 2721TIP3   OH2 8126   3.665   5.862   1.237 -0.1550 -0.0663 -0.1903
 2721TIP3    H1 8127   3.758   5.884   1.230  0.1280 -0.9680  0.5813
 2721TIP3    H2 8128   3.630   5.923   1.302  0.2728 -0.7969  0.7481
 2722TIP3   OH2 8129   0.688   4.583   4.086  0.2067 -0.0756  0.3579
 2722TIP3    H1 8130   0.635   4.657   4.114  0.6829  1.1151 -1.7154
 2722TIP3    H2 8131   0.641   4.545   4.012  2.2771  1.2480 -1.7940
 2723TIP3   OH2 8132   2.337   0.134   0.471  0.6209 -0.4672  0.6150
 2723TIP3    H1 8133   2.336   0.124   0.376  0.2849 -1.0796  0.6779
 2723TIP3    H2 8134   2.252   0.103   0.499  0.3199  0.6817  1.0331
 2724TIP3   OH2 8135   4.697   5.167   2.980 -0.1465  0.6645  0.2308
 2724TIP3    H1 8136   4.622   5.222   2.954 -0.8736 -0.5444 -0.3043
 2724TIP3    H2 8137   4.758   5.173   2.907  1.2201  3.1670  1.4395
 2725TIP3   OH2 8138   1.351   4.445   3.766  0.3824 -0.0558 -0.1835
 2725TIP3    H1 8139   1.362   4.370   3.706  1.1998  2.4928 -3.5377
 2725TIP3    H2 8140   1.258   4.468   3.757  0.7906  1.1611 -1.6963
 2726TIP3   OH2 8141   3.984   4.008   0.198 -0.0944 -0.3275 -0.2677
 2726TIP3    H1 8142   4.044   4.014   0.272 -1.2845 -3.7658  1.1994
 2726TIP3    H2 8143   3.907   4.057   0.225  0.4236  0.5479 -0.3478
 2727TIP3   OH2 8144   0.576   2.484   0.662 -0.1409 -0.5497 -0.0917
 2727TIP3    H1 8145   0.669   2.464   0.670  0.0352  0.2522 -0.0696
 2727TIP3    H2 8146   0.536   2.437   0.735  0.0424 -2.0624 -0.9260
 2728TIP3   OH2 8147   2.174   2.149   0.778 -0.0126  0.3312 -0.2350
 2728TIP3    H1 8148   2.192   2.176   0.868 -2.0231 -0.8716  0.6049
 2728TIP3    H2 8149   2.256   2.109   0.748  0.3306 -0.4210  1.5504
 2729TIP3   OH2 8150   1.469   5.139   3.669 -0.0788  0.2756  0.3081
 2729TIP3    H1 8151   1.471   5.163   3.576  1.0922 -0.0379  0.2308
 2729TIP3    H2 8152   1.412   5.205   3.709 -1.6922 -0.3766 -0.8209
 2730TIP3   OH2 8153   1.619   5.783   4.644 -0.1106 -0.1597  0.2701
 2730TIP3    H1 8154   1.595   5.692   4.625 -1.1834  0.1446  0.1150
 2730TIP3    H2 8155   1.541   5.833   4.622  0.1094  0.6851  1.3444
 2731TIP3   OH2 8156   4.306   1.296   1.668  0.0366  0.5785  0.4916
 2731TIP3    H1 8157   4.379   1.235   1.658 -0.9496 -0.7421  1.0343
 2731TIP3    H2 8158   4.343   1.370   1.717  1.3429  0.6054 -0.4837
 2732TIP3   OH2 8159   5.942   2.781   0.936  0.4012  0.4202 -0.2084
 2732TIP3    H1 8160   5.929   2.743   0.849  0.5050  0.7154 -0.3546
 2732TIP3    H2 8161   5.909   2.715   0.996 -1.6330  1.0541 -0.5568
 2733TIP3   OH2 8162   4.750   1.943   3.797  0.2187 -0.4682 -0.4741
 2733TIP3    H1 8163   4.700   1.995   3.859  1.7804  0.3270  0.1722
 2733TIP3    H2 8164   4.684   1.904   3.740 -1.0708  1.4981 -0.4239
 2734TIP3   OH2 8165   4.292   1.077   4.179 -0.1993  0.5954  0.4703
 2734TIP3    H1 8166   4.321   1.167   4.193 -1.0738  1.1896 -1.2557
 2734TIP3    H2 8167   4.323   1.055   4.091 -2.2504  0.2062 -0.2284
 2735TIP3   OH2 8168   7.156   3.531   2.634 -0.0364  0.0553  0.4264
 2735TIP3    H1 8169   7.103   3.469   2.684  0.0479  0.5427  1.1364
 2735TIP3    H2 8170   7.246   3.507   2.654  0.0288 -0.7926 -0.8039
 2736TIP3   OH2 8171   2.876   6.606   3.533 -0.2054 -0.1365  0.5957
 2736TIP3    H1 8172   2.965   6.598   3.498 -0.5937  0.4179 -0.5706
 2736TIP3    H2 8173   2.881   6.680   3.594 -0.0643  0.4895 -0.1620
 2737TIP3   OH2 8174   1.278   3.518   1.627  0.0055  0.2933  0.2275
 2737TIP3    H1 8175   1.211   3.559   1.681 -0.0426  1.2392 -0.5198
 2737TIP3    H2 8176   1.237   3.438   1.595  0.2211 -0.5647  1.9822
 2738TIP3   OH2 8177   6.563   1.216   2.892  0.4625  0.0652  0.4278
 2738TIP3    H1 8178   6.506   1.163   2.948  1.1410  0.4433  1.5112
 2738TIP3    H2 8179   6.502   1.270   2.842 -0.1662  0.0315  1.1290
 2739TIP3   OH2 8180   3.900   1.989   4.239 -0.7134  0.0569 -0.0916
 2739TIP3    H1 8181   3.947   2.072   4.225 -1.6514  0.6910  0.4421
 2739TIP3    H2 8182   3.833   1.987   4.171 -0.9991 -0.0381  0.1915
 2740TIP3   OH2 8183   2.271   5.248   4.079 -0.4679 -0.1963 -1.0529
 2740TIP3    H1 8184   2.291   5.320   4.139 -1.3054 -0.0828 -0.9060
 2740TIP3    H2 8185   2.244   5.176   4.136  0.8382 -0.8043 -1.1653
 2741TIP3   OH2 8186   2.325   0.044   2.357 -0.5625  0.3450  0.5680
 2741TIP3    H1 8187   2.287  -0.032   2.401 -0.5542 -0.0611 -0.1135
 2741TIP3    H2 8188   2.278   0.050   2.274 -2.4765  2.7131  1.6815
 2742TIP3   OH2 8189   2.594   1.952   2.389 -0.0437  0.6348 -0.6184
 2742TIP3    H1 8190   2.555   2.034   2.360 -2.2031 -0.3541 -0.7367
 2742TIP3    H2 8191   2.636   1.916   2.311 -1.2537  0.4985 -1.2429
 2743TIP3   OH2 8192   2.578   4.527   3.221 -0.0090 -0.2145  0.1963
 2743TIP3    H1 8193   2.597   4.499   3.131 -1.1161 -0.6111  0.0670
 2743TIP3    H2 8194   2.606   4.454   3.275  0.5743 -0.0138  0.1671
 2744TIP3   OH2 8195   0.967   5.118   3.359  0.2266 -0.0824  0.2705
 2744TIP3    H1 8196   1.024   5.187   3.393  0.9077 -0.8573  0.7331
 2744TIP3    H2 8197   0.956   5.140   3.266  0.5400  0.5730  0.3853
 2745TIP3   OH2 8198   3.948   0.508   3.277 -0.3289  0.4709 -0.0020
 2745TIP3    H1 8199   4.005   0.580   3.303  0.6754 -0.1694 -0.3568
 2745TIP3    H2 8200   4.005   0.450   3.226 -1.2035 -0.3868 -0.0273
 2746TIP3   OH2 8201   4.771   0.399   3.142  0.0310 -0.1800  0.1335
 2746TIP3    H1 8202   4.703   0.466   3.150  0.9122  0.7356  0.1247
 2746TIP3    H2 8203   4.723   0.317   3.145 -1.1706  0.4539 -0.7547
 2747TIP3   OH2 8204   2.382   1.179   4.179  0.0665 -0.2819  0.0956
 2747TIP3    H1 8205   2.400   1.088   4.202 -1.1774 -0.2510  1.2780
 2747TIP3    H2 8206   2.419   1.189   4.091  0.6572 -1.7732  0.1459
 2748TIP3   OH2 8207   2.453   5.224   2.600 -0.3675  0.2635  0.1474
 2748TIP3    H1 8208   2.386   5.293   2.600 -0.1699  0.4783  0.9720
 2748TIP3    H2 8209   2.464   5.203   2.693  0.1790 -0.2929 -0.0404
 2749TIP3   OH2 8210   5.134   2.837   0.950  0.5209 -0.7354  0.2022
 2749TIP3    H1 8211   5.120   2.911   1.010 -2.2947 -1.2616  0.3266
 2749TIP3    H2 8212   5.203   2.867   0.891 -1.5955  2.7426 -0.8067
 2750TIP3   OH2 8213   3.696   4.225   0.836  0.3564  0.2494 -0.3235
 2750TIP3    H1 8214   3.773   4.168   0.833 -1.5581 -2.5839 -0.0498
 2750TIP3    H2 8215   3.679   4.238   0.929  0.1992  0.4026 -0.3728
 2751TIP3   OH2 8216   6.021   6.257   1.179  0.2068 -0.3402 -0.0424
 2751TIP3    H1 8217   6.073   6.201   1.236 -0.7783 -0.3533  0.8799
 2751TIP3    H2 8218   6.052   6.238   1.091  1.5126 -0.5888  0.4526
 2752TIP3   OH2 8219   1.215   0.708   1.571 -0.0283  0.0351  0.1862
 2752TIP3    H1 8220   1.165   0.789   1.583  0.5802  0.4547 -0.0324
 2752TIP3    H2 8221   1.284   0.713   1.636 -0.5410 -0.7717  0.8077
 2753TIP3   OH2 8222   1.998   6.560   4.049 -0.4571  0.2252  0.4516
 2753TIP3    H1 8223   1.923   6.503   4.031 -0.5228 -0.0462  1.4984
 2753TIP3    H2 8224   1.970   6.614   4.123 -0.5368  1.9170 -0.7463
 2754TIP3   OH2 8225   0.346   4.810   5.262 -0.3856 -0.5684 -0.0315
 2754TIP3    H1 8226   0.342   4.859   5.343  0.0170  0.3231 -0.5369
 2754TIP3    H2 8227   0.395   4.866   5.202  0.1713 -1.6183 -0.6002
 2755TIP3   OH2 8228   6.698   5.405   2.824  0.0747  0.5063 -0.3552
 2755TIP3    H1 8229   6.657   5.490   2.808  0.9905  0.6354 -2.4427
 2755TIP3    H2 8230   6.625   5.343   2.822 -0.4449  1.0960 -0.2432
 2756TIP3   OH2 8231   0.510   1.636   3.291 -0.4377  0.1554 -0.0344
 2756TIP3    H1 8232   0.585   1.578   3.303 -1.5521 -1.0264  1.5998
 2756TIP3    H2 8233   0.448   1.609   3.358 -2.4862  0.8759 -1.5511
 2757TIP3   OH2 8234   0.862   0.742   4.325  0.2592  0.2869 -0.4241
 2757TIP3    H1 8235   0.773   0.710   4.337  0.3576  0.5541  1.2649
 2757TIP3    H2 8236   0.918   0.669   4.352  0.5536  0.3572 -0.8291
 2758TIP3   OH2 8237   6.522   6.050   0.211 -0.3892  0.2688 -0.5026
 2758TIP3    H1 8238   6.446   6.038   0.153 -0.6767  0.8496 -0.2640
 2758TIP3    H2 8239   6.598   6.031   0.156 -0.7381 -1.4924 -0.4304
 2759TIP3   OH2 8240   1.509   0.700   2.869 -0.5257 -0.1813  0.7823
 2759TIP3    H1 8241   1.450   0.716   2.796 -0.6843  0.9445  1.1300
 2759TIP3    H2 8242   1.550   0.616   2.850 -0.6742  0.0242 -0.5182
 2760TIP3   OH2 8243   4.149   3.863   5.194 -0.0368  0.3061  0.0042
 2760TIP3    H1 8244   4.200   3.801   5.141 -0.5514 -0.2874  0.1913
 2760TIP3    H2 8245   4.072   3.882   5.141 -0.3436  0.0464  0.3571
 2761TIP3   OH2 8246   3.015   2.454   5.551  0.2508 -0.0604  1.0378
 2761TIP3    H1 8247   2.931   2.500   5.550  0.0449 -0.4421  0.8942
 2761TIP3    H2 8248   2.994   2.364   5.528  0.7958  0.0133  0.2043
 2762TIP3   OH2 8249   1.824   2.581   0.325  0.8596  0.3790  0.0455
 2762TIP3    H1 8250   1.836   2.507   0.265 -2.5559 -1.4765  1.3639
 2762TIP3    H2 8251   1.909   2.624   0.328  3.4863 -4.2373  0.1575
 2763TIP3   OH2 8252   1.977   2.625   0.947  0.0458 -0.0852  0.1418
 2763TIP3    H1 8253   2.047   2.577   0.903  1.1124  0.7159  0.8738
 2763TIP3    H2 8254   1.998   2.617   1.040 -0.0381  1.3137  0.3071
 2764TIP3   OH2 8255   3.717   6.243   1.249  0.4316  0.0003  0.3056
 2764TIP3    H1 8256   3.795   6.296   1.229  0.4854 -0.6557 -1.4701
 2764TIP3    H2 8257   3.722   6.226   1.343  0.9863  2.2145  0.7328
 2765TIP3   OH2 8258   2.411   6.541   1.532 -0.0208 -0.4382 -0.4141
 2765TIP3    H1 8259   2.454   6.625   1.516 -0.5247  0.3195  1.9027
 2765TIP3    H2 8260   2.443   6.513   1.617  0.4928 -2.8807 -1.3269
 2766TIP3   OH2 8261   1.381   2.035   5.210  0.3168  0.3300  0.3910
 2766TIP3    H1 8262   1.292   2.000   5.212  0.8809 -1.1430  1.3389
 2766TIP3    H2 8263   1.370   2.128   5.188 -1.4540  0.2269  0.6987
 2767TIP3   OH2 8264   0.235   5.047   1.231  0.1534  0.4739 -0.2764
 2767TIP3    H1 8265   0.248   5.126   1.283  1.2823  0.3377 -0.3277
 2767TIP3    H2 8266   0.149   5.058   1.192  0.6468  2.0995 -0.9999
 2768TIP3   OH2 8267   0.434   6.617   1.489 -0.3631 -0.1926  0.6277
 2768TIP3    H1 8268   0.446   6.569   1.406  0.5326 -0.6692  1.0180
 2768TIP3    H2 8269   0.374   6.563   1.540 -0.9802  0.1419  0.2661
 2769TIP3   OH2 8270   4.848   1.345   2.466  0.5043 -0.1800  0.4592
 2769TIP3    H1 8271   4.894   1.264   2.442  1.6437  0.8412 -0.9538
 2769TIP3    H2 8272   4.840   1.340   2.561  0.9878 -1.7260  0.4577
 2770TIP3   OH2 8273   6.779   1.222   2.704 -0.3666 -0.1087  0.0983
 2770TIP3    H1 8274   6.818   1.291   2.759  1.2906 -1.8187  1.2237
 2770TIP3    H2 8275   6.689   1.215   2.735 -0.1192  0.5431  1.0216
 2771TIP3   OH2 8276   7.123   5.806   4.202  0.3067  0.4317  0.5745
 2771TIP3    H1 8277   7.201   5.861   4.192  1.5767 -1.2136  1.0012
 2771TIP3    H2 8278   7.051   5.861   4.171  1.7585  1.6306 -0.8649
 2772TIP3   OH2 8279   5.395   4.121   0.843 -0.1568  0.2361  0.8873
 2772TIP3    H1 8280   5.455   4.087   0.909 -1.2211 -2.3965  0.6424
 2772TIP3    H2 8281   5.315   4.142   0.891 -0.8372 -1.4223  0.5550
 2773TIP3   OH2 8282   2.850   3.761   3.401  0.0769 -0.4176 -0.4650
 2773TIP3    H1 8283   2.795   3.723   3.470 -2.2898  0.5593 -1.7143
 2773TIP3    H2 8284   2.789   3.787   3.333  2.0163  1.7204 -1.5089
 2774TIP3   OH2 8285   0.754   1.843   4.270 -0.0696  0.8392 -0.1904
 2774TIP3    H1 8286   0.706   1.840   4.353 -0.7400  1.9008 -0.5262
 2774TIP3    H2 8287   0.818   1.913   4.281  3.0193 -1.9116  1.0456
 2775TIP3   OH2 8288   6.920   2.631   3.567 -0.2550  0.7114  0.1857
 2775TIP3    H1 8289   6.986   2.582   3.617  2.8238  1.3686 -2.8921
 2775TIP3    H2 8290   6.879   2.565   3.510 -1.2761  0.5792  1.0329
 2776TIP3   OH2 8291   3.326   3.498   2.697  0.0584 -0.4143  0.0312
 2776TIP3    H1 8292   3.331   3.416   2.648 -1.0966  0.0793 -0.9693
 2776TIP3    H2 8293   3.366   3.564   2.640 -1.5302  0.2122 -0.4158
 2777TIP3   OH2 8294   2.105   1.868   4.860  0.0109 -0.3619  0.4782
 2777TIP3    H1 8295   2.047   1.889   4.933 -0.9305 -0.6627 -0.1769
 2777TIP3    H2 8296   2.148   1.951   4.839 -0.8392  0.0648  0.3910
 2778TIP3   OH2 8297   6.661   4.752   5.489 -0.0622 -0.1840  0.1412
 2778TIP3    H1 8298   6.591   4.698   5.524 -0.7401  0.8564  0.4278
 2778TIP3    H2 8299   6.650   4.837   5.532  1.6233 -0.1084  0.5173
 2779TIP3   OH2 8300   0.660   5.168   2.462 -0.2756 -0.0204  0.1679
 2779TIP3    H1 8301   0.594   5.148   2.529 -0.6650  0.6301 -0.0119
 2779TIP3    H2 8302   0.650   5.262   2.447  0.9638  0.1612  0.4277
 2780TIP3   OH2 8303   1.929   2.181   2.813 -0.2407 -1.0107 -0.0417
 2780TIP3    H1 8304   2.002   2.238   2.837  0.1358 -0.8317 -1.4841
 2780TIP3    H2 8305   1.963   2.092   2.827  0.2722 -0.9283 -0.7109
 2781TIP3   OH2 8306   1.533   4.266   0.834 -0.3725  0.1102 -0.0791
 2781TIP3    H1 8307   1.621   4.255   0.869  0.1666 -0.4794 -1.5708
 2781TIP3    H2 8308   1.531   4.356   0.803 -0.4532  0.2639  0.3665
 2782TIP3   OH2 8309   3.379   0.492   3.532 -0.1516 -0.6553 -0.3838
 2782TIP3    H1 8310   3.319   0.562   3.507 -1.3107 -0.9314  1.4491
 2782TIP3    H2 8311   3.331   0.412   3.514  0.1126 -0.9038 -0.0056
 2783TIP3   OH2 8312   2.255   0.084   3.235 -0.1896 -0.0881 -0.6132
 2783TIP3    H1 8313   2.167   0.061   3.266 -0.0134  1.7830  1.5187
 2783TIP3    H2 8314   2.243   0.166   3.188  0.5735  1.1970  1.2893
 2784TIP3   OH2 8315   1.979   5.836   0.994  0.6743 -0.6752 -0.0588
 2784TIP3    H1 8316   1.945   5.747   0.996  0.0233 -0.4345 -0.4199
 2784TIP3    H2 8317   1.902   5.892   0.980  0.9878 -0.0104  0.7747
 2785TIP3   OH2 8318   5.640   2.236   3.233  0.0452 -0.5796 -0.0539
 2785TIP3    H1 8319   5.631   2.194   3.148 -1.3526 -0.0009 -0.2256
 2785TIP3    H2 8320   5.576   2.307   3.231  0.2032 -0.3734  1.3559
 2786TIP3   OH2 8321   2.193   5.373   2.103  0.0020 -0.0715  0.4149
 2786TIP3    H1 8322   2.223   5.292   2.063 -1.0252 -0.8898  1.2185
 2786TIP3    H2 8323   2.113   5.395   2.055  1.9421  2.2889 -1.9686
 2787TIP3   OH2 8324   6.165   3.070   5.813 -0.4396  0.6134  0.2134
 2787TIP3    H1 8325   6.112   3.113   5.746  0.1226  0.1876 -0.5157
 2787TIP3    H2 8326   6.171   3.134   5.883  0.1025  1.6106 -0.7164
 2788TIP3   OH2 8327   4.320   0.404   3.991  0.1263 -0.0125 -0.1085
 2788TIP3    H1 8328   4.388   0.428   4.054  0.2858 -1.6080  0.3770
 2788TIP3    H2 8329   4.355   0.432   3.907  1.5840 -1.0803  0.0889
 2789TIP3   OH2 8330   2.206   5.573   1.272  0.3975  0.5359 -0.2183
 2789TIP3    H1 8331   2.219   5.668   1.273  0.2501  0.5519  0.1154
 2789TIP3    H2 8332   2.177   5.551   1.360  1.8717 -0.0241  0.1523
 2790TIP3   OH2 8333   7.039   6.460   0.350  0.2912 -0.5645 -0.3891
 2790TIP3    H1 8334   7.092   6.491   0.423  1.2728  0.2044 -1.3821
 2790TIP3    H2 8335   7.074   6.373   0.330 -1.4924 -1.8027  1.4583
 2791TIP3   OH2 8336   6.989   3.266   2.282  0.0526  0.0912  0.6892
 2791TIP3    H1 8337   6.924   3.220   2.228  0.1922 -0.7215  1.2109
 2791TIP3    H2 8338   7.040   3.197   2.323 -0.6360  0.6548  2.5982
 2792TIP3   OH2 8339   4.618   4.788   2.971  0.0153 -0.2501 -0.1188
 2792TIP3    H1 8340   4.606   4.843   3.049 -2.1204  0.3075 -0.7656
 2792TIP3    H2 8341   4.696   4.735   2.990  0.2355  0.7065  1.8792
 2793TIP3   OH2 8342   0.163   2.722   0.931  0.0580  0.4513 -1.1188
 2793TIP3    H1 8343   0.152   2.805   0.976 -2.0210  0.7258 -2.0351
 2793TIP3    H2 8344   0.179   2.659   1.002  0.2951  1.3887 -0.3094
 2794TIP3   OH2 8345   2.826   3.633   1.900 -1.0534  0.1577 -0.0574
 2794TIP3    H1 8346   2.859   3.544   1.882  1.0413  0.5017  1.6445
 2794TIP3    H2 8347   2.758   3.620   1.966 -1.1124 -0.2272 -0.1885
 2795TIP3   OH2 8348   6.024   6.594   5.887  0.2780  0.7792 -0.6595
 2795TIP3    H1 8349   6.021   6.499   5.894  2.1588  0.7009 -0.4438
 2795TIP3    H2 8350   6.086   6.611   5.816  0.2745  1.8397 -0.4234
 2796TIP3   OH2 8351   6.897   2.078   0.276  0.7722  0.2757 -0.1925
 2796TIP3    H1 8352   6.894   2.063   0.371 -0.5615 -2.2818 -0.5614
 2796TIP3    H2 8353   6.972   2.025   0.246  0.7546  0.5104 -0.6619
 2797TIP3   OH2 8354   6.178   3.993   5.489  0.0720  0.0856 -0.3256
 2797TIP3    H1 8355   6.089   4.021   5.511  0.3113  0.7725 -0.1958
 2797TIP3    H2 8356   6.230   4.073   5.495  1.1026 -0.6584  1.6949
 2798TIP3   OH2 8357   4.328   0.863   5.018  0.1666 -0.8796 -0.7161
 2798TIP3    H1 8358   4.290   0.951   5.019 -0.8446 -1.2897 -1.2967
 2798TIP3    H2 8359   4.374   0.856   5.101 -0.1951  0.0062 -0.4269
 2799TIP3   OH2 8360   4.503   4.879   4.530 -0.1452  0.5910  0.1005
 2799TIP3    H1 8361   4.585   4.862   4.485  0.0366 -2.7261  1.4048
 2799TIP3    H2 8362   4.436   4.869   4.463  0.2914 -1.2609 -0.0979
 2800TIP3   OH2 8363   5.455   4.627   5.326 -0.0853  0.6934 -0.1157
 2800TIP3    H1 8364   5.384   4.664   5.379 -0.7065  0.2074 -0.5896
 2800TIP3    H2 8365   5.525   4.692   5.331  0.2225  0.2693  2.0219
 2801TIP3   OH2 8366   2.911   2.218   2.391  0.0852 -0.2281  0.3533
 2801TIP3    H1 8367   2.922   2.151   2.458  0.7804  0.1677  0.6428
 2801TIP3    H2 8368   2.952   2.296   2.428 -0.4460  0.2812 -0.1017
 2802TIP3   OH2 8369   2.591   4.736   2.291  0.0576  0.3803 -0.0535
 2802TIP3    H1 8370   2.608   4.727   2.197 -1.2116 -1.1966 -0.1672
 2802TIP3    H2 8371   2.496   4.745   2.297  0.0177 -0.6487  1.1436
 2803TIP3   OH2 8372   4.619   5.114   0.592 -0.0148  0.4947  0.0978
 2803TIP3    H1 8373   4.598   5.205   0.617 -0.0060  0.2943  0.8644
 2803TIP3    H2 8374   4.707   5.100   0.626 -0.0923  0.1393  0.1563
 2804TIP3   OH2 8375   0.810   3.141   3.039  0.1215  0.0710  0.2195
 2804TIP3    H1 8376   0.801   3.230   3.004 -0.2414 -0.2456 -0.5242
 2804TIP3    H2 8377   0.731   3.127   3.090 -0.1741 -0.0803 -0.2704
 2805TIP3   OH2 8378   3.338   2.389   2.644  0.3685  0.5209  0.5017
 2805TIP3    H1 8379   3.386   2.399   2.562  0.3721  0.1672  0.4565
 2805TIP3    H2 8380   3.361   2.466   2.695 -0.6617  1.4080 -0.3346
 2806TIP3   OH2 8381   0.919   5.362   1.037 -0.5412 -0.6544 -0.2122
 2806TIP3    H1 8382   0.824   5.349   1.040 -0.3833 -1.7619  0.4625
 2806TIP3    H2 8383   0.953   5.281   0.997  0.1755 -0.6392  0.3423
 2807TIP3   OH2 8384   1.947   1.317   0.843 -0.5005  0.2678 -0.0616
 2807TIP3    H1 8385   1.991   1.377   0.783 -3.0689  1.7915 -0.6004
 2807TIP3    H2 8386   1.918   1.244   0.787  0.3044 -0.1577  0.0695
 2808TIP3   OH2 8387   4.445   5.957   1.419  0.6087 -0.2492  0.2246
 2808TIP3    H1 8388   4.456   5.969   1.513  2.2907 -0.0134  0.0270
 2808TIP3    H2 8389   4.487   6.033   1.379  1.7387 -1.3117 -0.7449
 2809TIP3   OH2 8390   6.940   6.147   0.025  0.0952 -0.2287 -0.2625
 2809TIP3    H1 8391   6.903   6.228   0.060  0.2679  0.0042 -0.6145
 2809TIP3    H2 8392   6.887   6.077   0.065  1.0388 -0.0482  1.3939
 2810TIP3   OH2 8393   6.346   5.332   0.624  0.2022  0.4688 -0.3828
 2810TIP3    H1 8394   6.350   5.330   0.528 -0.3548 -0.1575 -0.4014
 2810TIP3    H2 8395   6.413   5.271   0.652 -1.6818 -1.7452 -0.4608
 2811TIP3   OH2 8396   6.243   1.542   2.979  0.5944 -0.2347 -0.0993
 2811TIP3    H1 8397   6.160   1.560   2.936  0.9131 -1.3307 -1.2574
 2811TIP3    H2 8398   6.237   1.585   3.064 -0.7258  0.5911 -0.5903
 2812TIP3   OH2 8399   2.466   2.942   1.505 -0.0964  0.1402  0.2704
 2812TIP3    H1 8400   2.511   3.018   1.468  1.0810 -0.6993 -0.0978
 2812TIP3    H2 8401   2.425   2.899   1.430  1.5051 -1.0449  0.0219
 2813TIP3   OH2 8402   6.143   5.606   3.319  0.1594  0.1360 -0.0489
 2813TIP3    H1 8403   6.129   5.516   3.350  2.1121 -1.2641 -2.7443
 2813TIP3    H2 8404   6.071   5.622   3.258  0.5495 -0.1882 -0.6099
 2814TIP3   OH2 8405   7.132   5.812   5.687  0.4988 -0.2864  0.5782
 2814TIP3    H1 8406   7.187   5.768   5.622  1.8954 -0.3646  1.7694
 2814TIP3    H2 8407   7.101   5.891   5.643  1.3507 -0.3741 -0.2057
 2815TIP3   OH2 8408   5.868   0.544   1.193 -0.1604 -0.1848 -0.1512
 2815TIP3    H1 8409   5.883   0.472   1.254  0.8743 -0.3536 -0.5731
 2815TIP3    H2 8410   5.775   0.564   1.201 -0.3676 -1.2692  0.3044
 2816TIP3   OH2 8411   0.153   4.020   1.989  0.2275  0.6961  0.6083
 2816TIP3    H1 8412   0.138   4.014   2.084 -2.2931  2.2992  0.3865
 2816TIP3    H2 8413   0.202   4.102   1.978  0.6676  0.4244  0.5250
 2817TIP3   OH2 8414   3.151   6.647   5.686  0.2516  0.5661  0.4212
 2817TIP3    H1 8415   3.176   6.703   5.612 -0.3356  1.2513  0.7321
 2817TIP3    H2 8416   3.171   6.699   5.763  3.6244 -1.2129  0.9474
 2818TIP3   OH2 8417   3.470   6.112   0.842 -0.4905 -0.3907 -0.0925
 2818TIP3    H1 8418   3.473   6.154   0.927  0.0027 -0.3884 -0.1076
 2818TIP3    H2 8419   3.543   6.050   0.843 -1.0707 -1.0840 -0.1530
 2819TIP3   OH2 8420   4.210   6.164   5.842  0.3993  0.1469  0.1766
 2819TIP3    H1 8421   4.249   6.077   5.837 -1.5304 -0.7099 -0.9037
 2819TIP3    H2 8422   4.266   6.219   5.787  1.7253 -0.3306  0.9966
 2820TIP3   OH2 8423   0.360   0.677   4.678 -0.2920  0.3260  0.0287
 2820TIP3    H1 8424   0.381   0.598   4.628 -3.7679 -0.4663 -0.4572
 2820TIP3    H2 8425   0.443   0.704   4.716  1.2367 -2.9987 -0.5815
 2821TIP3   OH2 8426   0.644   5.412   5.101 -0.4913 -0.0863  0.3149
 2821TIP3    H1 8427   0.631   5.320   5.078 -0.3932  0.1500 -0.7405
 2821TIP3    H2 8428   0.721   5.439   5.051  0.6471  0.0741  2.0723
 2822TIP3   OH2 8429   1.224   4.564   5.646 -0.3146 -0.0504 -0.4067
 2822TIP3    H1 8430   1.276   4.496   5.688 -0.1914 -0.2627 -0.8879
 2822TIP3    H2 8431   1.199   4.526   5.561 -1.2774  0.0434 -0.1735
 2823TIP3   OH2 8432   7.084   2.553   1.785  0.3599 -0.2981  0.2558
 2823TIP3    H1 8433   7.102   2.470   1.830 -1.1200 -0.1334  1.2191
 2823TIP3    H2 8434   7.034   2.527   1.708 -0.9455 -0.2610  1.0616
 2824TIP3   OH2 8435   3.175   0.594   2.994 -0.0967 -0.7324  0.0484
 2824TIP3    H1 8436   3.115   0.666   2.974 -0.2817 -1.1415 -0.9545
 2824TIP3    H2 8437   3.232   0.628   3.062  0.6384  0.8174 -1.2889
 2825TIP3   OH2 8438   1.260   6.448   1.366  0.3358  0.3126  0.0750
 2825TIP3    H1 8439   1.251   6.466   1.460  0.1314 -0.8581  0.2882
 2825TIP3    H2 8440   1.309   6.366   1.362  2.4397  1.5394 -0.8976
 2826TIP3   OH2 8441   5.347   2.896   0.795 -0.1959 -0.0964 -0.0485
 2826TIP3    H1 8442   5.314   2.963   0.734 -0.0942  0.1392  0.1534
 2826TIP3    H2 8443   5.422   2.937   0.837  0.7611 -0.8594 -0.9727
 2827TIP3   OH2 8444   4.923   1.227   0.373 -0.6850 -0.0980 -0.9395
 2827TIP3    H1 8445   4.839   1.263   0.344 -0.2134  3.5234  1.4743
 2827TIP3    H2 8446   4.912   1.215   0.468  1.6153  0.9888 -0.4667
 2828TIP3   OH2 8447   0.947   3.284   2.764  0.4636  0.4354  0.3930
 2828TIP3    H1 8448   0.976   3.194   2.748 -0.4755  0.2163 -0.1407
 2828TIP3    H2 8449   1.028   3.332   2.784  1.0058 -0.4606  0.3964
 2829TIP3   OH2 8450   5.385   1.903   5.375 -0.0626 -0.0056 -0.5873
 2829TIP3    H1 8451   5.338   1.820   5.380  0.0345 -0.0132  0.5390
 2829TIP3    H2 8452   5.477   1.879   5.380  0.0229  0.1041 -1.4332
 2830TIP3   OH2 8453   4.713   2.086   3.060  0.1220  0.0204  0.0088
 2830TIP3    H1 8454   4.760   2.028   3.120 -0.8943 -0.6451  0.1859
 2830TIP3    H2 8455   4.680   2.156   3.115  0.4654  0.2095 -0.0266
 2831TIP3   OH2 8456   1.169   2.132   4.600 -0.0116  0.3595  0.4813
 2831TIP3    H1 8457   1.253   2.089   4.617  0.1487  0.2798 -0.4562
 2831TIP3    H2 8458   1.183   2.222   4.627  0.8049  0.6583 -0.8354
 2832TIP3   OH2 8459   2.717   4.224   0.129 -0.0536 -0.0942 -0.2409
 2832TIP3    H1 8460   2.739   4.299   0.183 -0.9864  0.7972 -1.0463
 2832TIP3    H2 8461   2.621   4.217   0.134  0.0549 -1.6298  0.3232
 2833TIP3   OH2 8462   4.382   3.629   2.405 -0.7719 -0.4470  0.4176
 2833TIP3    H1 8463   4.322   3.576   2.352 -1.5297 -0.6982  1.4990
 2833TIP3    H2 8464   4.392   3.580   2.486 -2.2135  1.4446  1.8312
 2834TIP3   OH2 8465   3.425   4.502   5.118  0.2026  0.2142  0.2766
 2834TIP3    H1 8466   3.407   4.428   5.176  0.2810 -0.0565 -0.0417
 2834TIP3    H2 8467   3.372   4.573   5.153  0.2679  0.0607  0.6953
 2835TIP3   OH2 8468   0.840   1.171   1.695 -0.1699  0.1358  0.1572
 2835TIP3    H1 8469   0.892   1.091   1.682  1.3083  1.1668 -0.6019
 2835TIP3    H2 8470   0.902   1.242   1.680 -1.2134  1.4486  1.7224
 2836TIP3   OH2 8471   1.675   6.102   1.101 -0.4277 -0.4272  0.4278
 2836TIP3    H1 8472   1.636   6.101   1.014 -0.6964 -0.6767  0.5486
 2836TIP3    H2 8473   1.628   6.034   1.149  0.8097 -1.3862  0.3103
 2837TIP3   OH2 8474   5.881   4.881   4.939  0.0117 -0.5115  0.2410
 2837TIP3    H1 8475   5.970   4.847   4.945  0.2271  0.1595  1.1559
 2837TIP3    H2 8476   5.833   4.816   4.888  0.9565 -1.0177 -0.0143
 2838TIP3   OH2 8477   4.319   1.639   3.923  0.9000  0.3762  0.0593
 2838TIP3    H1 8478   4.335   1.661   3.831 -1.2312  3.3582  0.2422
 2838TIP3    H2 8479   4.406   1.640   3.963  1.7541  0.1623 -1.6738
 2839TIP3   OH2 8480   2.238   1.247   1.040 -0.1021 -0.5711 -0.2884
 2839TIP3    H1 8481   2.144   1.255   1.020  0.0541 -0.0092 -0.8563
 2839TIP3    H2 8482   2.258   1.155   1.026 -0.4178 -0.5546 -0.9017
 2840TIP3   OH2 8483   6.512   5.909   4.783 -0.2638 -0.5062 -0.3967
 2840TIP3    H1 8484   6.585   5.856   4.751 -1.6494 -1.0614 -2.8523
 2840TIP3    H2 8485   6.451   5.845   4.822  0.2130 -0.1145  1.0708
 2841TIP3   OH2 8486   0.909   3.875   4.300 -0.0626  0.0379  0.0389
 2841TIP3    H1 8487   0.851   3.873   4.377  0.3399 -0.4151  0.3402
 2841TIP3    H2 8488   0.968   3.801   4.313  0.8090  0.6941 -0.0894
 2842TIP3   OH2 8489   5.586   4.095   5.217 -0.2847 -0.4314 -0.2343
 2842TIP3    H1 8490   5.495   4.127   5.217 -0.0368  0.2907 -1.1168
 2842TIP3    H2 8491   5.588   4.032   5.145  0.0622  0.0045 -0.6109
 2843TIP3   OH2 8492   5.625   4.529   0.233  0.1154  0.4905  0.5803
 2843TIP3    H1 8493   5.616   4.510   0.140  1.4299  1.2504  0.2676
 2843TIP3    H2 8494   5.629   4.444   0.276 -1.2392  0.1415  0.0273
 2844TIP3   OH2 8495   2.620   4.555   0.135  0.3193 -0.0206 -0.0149
 2844TIP3    H1 8496   2.595   4.640   0.098  3.1800  1.2507  0.6934
 2844TIP3    H2 8497   2.624   4.570   0.229  0.3261 -1.0901  0.1673
 2845TIP3   OH2 8498   7.030   4.622   3.508 -0.4138 -0.3567 -0.4090
 2845TIP3    H1 8499   7.119   4.590   3.493  0.1119 -0.4780  2.3809
 2845TIP3    H2 8500   7.009   4.672   3.430  2.9186  1.3905 -0.3623
 2846TIP3   OH2 8501   6.761   1.350   1.446  0.0433  0.4198 -0.6774
 2846TIP3    H1 8502   6.679   1.373   1.489  0.4903 -0.6926  0.8797
 2846TIP3    H2 8503   6.829   1.392   1.499  0.5595 -0.0538 -0.9515
 2847TIP3   OH2 8504   6.729   5.254   4.855  0.9605  0.0662  0.0226
 2847TIP3    H1 8505   6.766   5.194   4.919 -2.5638 -1.2715  1.0872
 2847TIP3    H2 8506   6.670   5.310   4.906 -1.2622 -0.4321 -1.8085
 2848TIP3   OH2 8507   5.359   1.122   2.988 -0.0840  0.6044  0.3074
 2848TIP3    H1 8508   5.451   1.129   3.011  0.2252  2.4396 -1.2479
 2848TIP3    H2 8509   5.325   1.211   2.996 -1.1801  0.3579 -1.2032
 2849TIP3   OH2 8510   3.995   6.441   4.079  0.6544 -0.0700 -0.4042
 2849TIP3    H1 8511   3.967   6.425   3.989 -0.9483 -0.7831  0.1953
 2849TIP3    H2 8512   3.989   6.356   4.122  1.6961  0.2023  0.3280
 2850TIP3   OH2 8513   5.874   4.177   2.779 -0.0187  0.4011 -0.0563
 2850TIP3    H1 8514   5.913   4.090   2.786  0.2865  0.5959  0.7676
 2850TIP3    H2 8515   5.822   4.174   2.698 -1.8338 -1.2639  1.0971
 2851TIP3   OH2 8516   0.268   3.791   4.301  0.5535  0.2677 -0.0132
 2851TIP3    H1 8517   0.174   3.774   4.294  0.8815 -2.4375  0.8952
 2851TIP3    H2 8518   0.293   3.823   4.214 -1.0675  0.1982 -0.5359
 2852TIP3   OH2 8519   3.109   1.257   2.269  0.3252  0.1778 -0.0527
 2852TIP3    H1 8520   3.085   1.314   2.196  2.5339  1.0199 -0.1938
 2852TIP3    H2 8521   3.163   1.312   2.326  0.9681 -1.2477  0.7776
 2853TIP3   OH2 8522   1.922   4.697   4.016 -0.0340 -0.4789 -0.3427
 2853TIP3    H1 8523   1.929   4.785   3.979  0.9500 -0.1253  0.6382
 2853TIP3    H2 8524   1.941   4.639   3.943  3.3333  0.2272 -0.1736
 2854TIP3   OH2 8525   3.023   2.323   4.234 -0.0794 -0.2952 -0.3431
 2854TIP3    H1 8526   2.977   2.374   4.168  0.1181  0.6695  0.2513
 2854TIP3    H2 8527   3.062   2.388   4.292  1.0137 -1.1084 -0.1329
 2855TIP3   OH2 8528   0.623   5.373   0.433  0.2497  0.1024 -0.0178
 2855TIP3    H1 8529   0.561   5.374   0.506 -0.9815 -0.2902 -1.0140
 2855TIP3    H2 8530   0.671   5.455   0.441  0.4891 -0.1475  1.4937
 2856TIP3   OH2 8531   6.462   3.680   2.205 -0.3040 -0.6310 -0.0653
 2856TIP3    H1 8532   6.528   3.687   2.135 -2.1620 -0.0970 -1.8699
 2856TIP3    H2 8533   6.423   3.593   2.192  1.0052 -1.5867  1.9635
 2857TIP3   OH2 8534   6.656   1.191   0.969 -0.3038  0.6959 -0.0823
 2857TIP3    H1 8535   6.747   1.168   0.948 -0.3610 -0.0944  0.4836
 2857TIP3    H2 8536   6.628   1.124   1.031 -1.2332  1.0168 -0.1379
 2858TIP3   OH2 8537   0.088   0.578   5.620  0.0058  0.0706  0.4627
 2858TIP3    H1 8538   0.062   0.644   5.556 -0.3925 -1.5824 -1.1671
 2858TIP3    H2 8539   0.037   0.598   5.698 -0.7680  1.1456 -0.2990
 2859TIP3   OH2 8540   2.018   6.583   0.668 -0.0076  0.3987  0.1829
 2859TIP3    H1 8541   2.060   6.499   0.652 -0.1095  0.5554 -1.0419
 2859TIP3    H2 8542   1.931   6.574   0.628  1.6025  2.6096 -4.6148
 2860TIP3   OH2 8543   4.068   1.078   2.210 -0.8284  0.2806 -0.1294
 2860TIP3    H1 8544   3.983   1.067   2.253 -1.4179 -1.6153 -1.6641
 2860TIP3    H2 8545   4.082   0.997   2.161  2.2897  0.1383  0.7440
 2861TIP3   OH2 8546   4.925   0.807   1.627 -0.1075 -0.0806 -0.3538
 2861TIP3    H1 8547   4.954   0.733   1.680 -0.0310 -0.5884 -1.0938
 2861TIP3    H2 8548   4.994   0.873   1.638 -0.2589 -0.0490  0.4407
 2862TIP3   OH2 8549   0.653   1.463   1.473  0.3856  0.2643 -0.7246
 2862TIP3    H1 8550   0.601   1.542   1.463  0.1470  0.0786 -0.9709
 2862TIP3    H2 8551   0.703   1.456   1.391 -0.0475 -0.1626 -0.9597
 2863TIP3   OH2 8552   6.929   1.001   4.828  0.4853 -0.4741 -0.4446
 2863TIP3    H1 8553   6.910   0.907   4.837  0.0667 -0.2941  0.7905
 2863TIP3    H2 8554   6.857   1.034   4.774 -2.1898 -0.0707  2.9876
 2864TIP3   OH2 8555   1.753   5.500   3.599  0.6113  0.0958  0.0358
 2864TIP3    H1 8556   1.771   5.495   3.505  0.3390  0.6265 -0.0485
 2864TIP3    H2 8557   1.834   5.534   3.637  0.7604 -0.2246  0.0100
 2865TIP3   OH2 8558   0.518   5.991   2.709 -0.5379  0.0432 -0.0761
 2865TIP3    H1 8559   0.516   5.999   2.614  1.0782  0.8232 -0.0931
 2865TIP3    H2 8560   0.596   6.041   2.735 -0.2375 -1.1799  1.5435
 2866TIP3   OH2 8561   1.107   2.031   5.122 -0.1892  0.0954 -0.4314
 2866TIP3    H1 8562   1.014   2.041   5.142 -0.0020 -0.4268  0.7831
 2866TIP3    H2 8563   1.109   1.971   5.048 -0.8327  0.6150 -0.8882
 2867TIP3   OH2 8564   4.787   4.944   5.399  0.0376  0.2192 -0.0023
 2867TIP3    H1 8565   4.712   4.928   5.456 -0.2016 -2.8568 -0.9965
 2867TIP3    H2 8566   4.853   4.984   5.456 -1.1031 -0.2664  1.7339
 2868TIP3   OH2 8567   1.931   3.567   2.039 -0.1077 -0.5147  0.1816
 2868TIP3    H1 8568   1.906   3.484   1.998 -1.2380  0.2017 -0.6296
 2868TIP3    H2 8569   1.982   3.612   1.971  0.6120 -0.5821  0.6666
 2869TIP3   OH2 8570   0.371   1.802   2.582 -0.0917 -0.4036  0.0714
 2869TIP3    H1 8571   0.279   1.830   2.588 -0.1387 -0.5081 -0.1300
 2869TIP3    H2 8572   0.406   1.814   2.670  0.0886  0.9819 -0.1698
 2870TIP3   OH2 8573   1.412   3.629   5.528  0.4696  0.5957  0.0153
 2870TIP3    H1 8574   1.399   3.556   5.589  1.2775 -0.5432 -1.1101
 2870TIP3    H2 8575   1.501   3.617   5.495 -0.6304 -0.1591 -2.9927
 2871TIP3   OH2 8576   2.914   4.623   2.690 -0.7501 -0.3509 -0.1571
 2871TIP3    H1 8577   2.844   4.661   2.637 -1.3050  1.5408  1.7486
 2871TIP3    H2 8578   2.995   4.647   2.644 -1.2583 -0.1863 -0.9851
 2872TIP3   OH2 8579   2.725   1.004   1.721 -0.0851 -0.2211 -1.0100
 2872TIP3    H1 8580   2.659   0.986   1.788 -1.3738  0.7640 -1.9767
 2872TIP3    H2 8581   2.805   1.020   1.770 -1.0394  0.6760  0.3206
 2873TIP3   OH2 8582   0.916   5.012   4.919 -0.0693 -0.0047 -0.3162
 2873TIP3    H1 8583   0.856   4.945   4.885  1.2892 -1.6037  0.2911
 2873TIP3    H2 8584   0.997   4.999   4.870  0.0320  1.6672 -0.6464
 2874TIP3   OH2 8585   5.193   5.275   2.360 -0.0467 -0.6411  0.1386
 2874TIP3    H1 8586   5.168   5.364   2.335  1.5548  0.1683  1.3301
 2874TIP3    H2 8587   5.288   5.275   2.359 -0.0115 -2.5840 -0.5897
 2875TIP3   OH2 8588   2.386   2.672   0.089  0.0697 -0.5755  0.0789
 2875TIP3    H1 8589   2.460   2.652   0.032 -0.6940 -1.2314 -0.7141
 2875TIP3    H2 8590   2.368   2.765   0.072  1.5288 -0.0275  1.2860
 2876TIP3   OH2 8591   1.650   3.583   5.427  0.7709 -0.2218 -0.6573
 2876TIP3    H1 8592   1.627   3.540   5.344  1.2650  0.3534 -1.0953
 2876TIP3    H2 8593   1.729   3.632   5.408  0.6521  0.2575  0.0519
 2877TIP3   OH2 8594   3.371   3.142   0.212  0.4742 -0.1007  0.3890
 2877TIP3    H1 8595   3.452   3.140   0.161 -0.2172 -0.4652 -0.7192
 2877TIP3    H2 8596   3.360   3.053   0.244 -0.1053 -0.3523 -0.4770
 2878TIP3   OH2 8597   1.775   0.852   1.300  0.2697 -0.0827  0.1221
 2878TIP3    H1 8598   1.733   0.789   1.359  0.7786 -0.6613 -0.1210
 2878TIP3    H2 8599   1.868   0.836   1.310  0.3777  0.1892 -0.4292
 2879TIP3   OH2 8600   0.754   4.575   1.431  0.4081 -0.8721 -0.2935
 2879TIP3    H1 8601   0.737   4.538   1.344 -1.7151  0.6026 -0.5835
 2879TIP3    H2 8602   0.772   4.500   1.486  1.9474 -1.8441 -2.0055
 2880TIP3   OH2 8603   4.032   3.271   5.707  0.1801 -0.7979 -0.1772
 2880TIP3    H1 8604   4.017   3.359   5.673  0.9987 -0.0211  1.3414
 2880TIP3    H2 8605   3.955   3.221   5.680 -1.2606  0.9055  0.5429
 2881TIP3   OH2 8606   4.500   0.797   1.385  0.5198  0.1867 -0.1744
 2881TIP3    H1 8607   4.549   0.734   1.332  0.0980  0.9388 -1.4788
 2881TIP3    H2 8608   4.560   0.870   1.398  0.6140  0.0166  0.3850
 2882TIP3   OH2 8609   2.681   4.294   3.321 -0.3516  0.1664 -0.3228
 2882TIP3    H1 8610   2.607   4.272   3.379 -0.3939  0.8099 -0.1291
 2882TIP3    H2 8611   2.756   4.299   3.379  0.0459 -1.3984 -0.6408
 2883TIP3   OH2 8612   6.468   5.472   1.122  0.1244 -0.2669 -0.1326
 2883TIP3    H1 8613   6.511   5.442   1.042 -1.1228  0.7495 -1.2414
 2883TIP3    H2 8614   6.394   5.412   1.133 -1.8144  1.6465 -1.8240
 2884TIP3   OH2 8615   1.700   2.220   1.111 -0.0080  0.4356 -0.0953
 2884TIP3    H1 8616   1.788   2.234   1.148 -0.2815  2.2292 -0.0398
 2884TIP3    H2 8617   1.705   2.258   1.023 -0.7632  0.6566 -0.0455
 2885TIP3   OH2 8618   6.009   4.678   3.461  0.4150 -0.3540 -0.3062
 2885TIP3    H1 8619   6.072   4.737   3.502  1.0121 -0.4292 -1.0880
 2885TIP3    H2 8620   6.055   4.643   3.385 -0.7740  0.0534 -1.2501
 2886TIP3   OH2 8621   2.224   3.010   3.402  0.1100 -0.5114 -0.4400
 2886TIP3    H1 8622   2.205   3.073   3.472  2.1358  0.8548 -1.0579
 2886TIP3    H2 8623   2.203   3.056   3.321 -2.2909 -2.1106 -0.8473
 2887TIP3   OH2 8624   4.916  -0.027   1.958  0.2442  0.2191  0.7784
 2887TIP3    H1 8625   5.002  -0.019   1.917  0.1304 -1.9620 -0.0626
 2887TIP3    H2 8626   4.880   0.061   1.957  1.2813  0.7038 -1.6247
 2888TIP3   OH2 8627   2.872   3.947   4.884 -0.8785  0.3993 -0.1291
 2888TIP3    H1 8628   2.806   4.003   4.843 -0.7503  1.9105  1.6233
 2888TIP3    H2 8629   2.918   4.004   4.944  1.3084 -0.9027 -0.4701
 2889TIP3   OH2 8630   4.455   4.229   4.700  0.1547  0.4259 -0.7191
 2889TIP3    H1 8631   4.504   4.278   4.765 -0.0011  0.7142 -0.8175
 2889TIP3    H2 8632   4.425   4.150   4.746  0.6074  0.3033 -0.6289
 2890TIP3   OH2 8633   5.316   0.480   5.293  0.3707  0.2760  0.3579
 2890TIP3    H1 8634   5.364   0.556   5.260  0.9298 -0.0728  0.3505
 2890TIP3    H2 8635   5.224   0.505   5.289  0.5732  1.0911  0.7073
 2891TIP3   OH2 8636   0.068   4.289   2.922  0.3620  0.1874 -0.3998
 2891TIP3    H1 8637   0.112   4.227   2.864 -0.5495  0.0022 -0.9132
 2891TIP3    H2 8638  -0.010   4.243   2.951  0.6732  0.3766  0.7892
 2892TIP3   OH2 8639   4.125   0.584   5.282 -0.7702 -0.1487  0.1724
 2892TIP3    H1 8640   4.066   0.514   5.255 -1.5406  0.5101  0.0958
 2892TIP3    H2 8641   4.067   0.659   5.297  0.1465  0.7976 -0.8812
 2893TIP3   OH2 8642   4.207   1.886   5.303  0.4295 -0.0762 -0.2206
 2893TIP3    H1 8643   4.283   1.942   5.290  0.8359 -0.6278 -0.2506
 2893TIP3    H2 8644   4.153   1.900   5.225  0.9660 -0.4052 -0.6629
 2894TIP3   OH2 8645   0.570   6.382   5.524  0.2347  0.3448  0.1464
 2894TIP3    H1 8646   0.611   6.442   5.586  0.1286 -1.6168  2.2962
 2894TIP3    H2 8647   0.477   6.403   5.529  0.4725  2.2197 -1.7922
 2895TIP3   OH2 8648   5.503   5.337   1.638 -0.3647  0.2139 -0.2639
 2895TIP3    H1 8649   5.423   5.365   1.682  0.1666  0.7207  0.4235
 2895TIP3    H2 8650   5.497   5.376   1.550 -1.2563 -0.4757 -0.5191
 2896TIP3   OH2 8651   1.711   5.087   3.952  0.1239 -0.6231  0.0995
 2896TIP3    H1 8652   1.699   5.174   3.915 -0.5450 -0.2156  1.2492
 2896TIP3    H2 8653   1.623   5.056   3.972  0.3061 -1.8327 -0.8680
 2897TIP3   OH2 8654   2.115   0.241   3.863  0.6934  0.3884  0.4123
 2897TIP3    H1 8655   2.204   0.267   3.842  0.6069 -0.5505 -1.2281
 2897TIP3    H2 8656   2.060   0.291   3.803  0.3490 -1.3390 -0.7845
 2898TIP3   OH2 8657   2.460   4.010   3.314  0.1495 -0.0007 -0.3228
 2898TIP3    H1 8658   2.375   3.991   3.273  1.0103  1.1950 -2.8723
 2898TIP3    H2 8659   2.443   4.087   3.369 -0.6990 -0.6260  0.3141
 2899TIP3   OH2 8660   4.248   2.835   4.366  0.2863 -0.1251  0.2085
 2899TIP3    H1 8661   4.282   2.764   4.311 -0.3811 -0.4231  0.1655
 2899TIP3    H2 8662   4.213   2.791   4.443 -0.2577  0.1416  0.1191
 2900TIP3   OH2 8663   6.599   1.379   2.130 -0.4345 -0.8425  0.2564
 2900TIP3    H1 8664   6.687   1.356   2.162 -0.9264  0.6971  3.0702
 2900TIP3    H2 8665   6.556   1.420   2.206 -3.4206 -1.0550 -1.1750
 2901TIP3   OH2 8666   1.295   6.716   1.416 -0.2376 -0.2805 -0.3016
 2901TIP3    H1 8667   1.244   6.727   1.497  1.1526 -2.5762  0.9748
 2901TIP3    H2 8668   1.238   6.665   1.359 -0.8034  0.4093 -0.3655
 2902TIP3   OH2 8669   2.486   3.889   5.630 -0.6455 -0.1555 -0.2504
 2902TIP3    H1 8670   2.477   3.795   5.617 -0.4669 -0.1110 -0.7020
 2902TIP3    H2 8671   2.428   3.908   5.704 -1.5061 -0.4506 -0.8238
 2903TIP3   OH2 8672   3.135   4.582   4.407  0.7565 -0.1697 -0.0906
 2903TIP3    H1 8673   3.203   4.534   4.360  1.0419  0.5182 -0.3950
 2903TIP3    H2 8674   3.151   4.674   4.385 -1.5114 -0.1095 -1.8435
 2904TIP3   OH2 8675   1.171   4.913   5.369 -0.4657 -0.0467 -0.1078
 2904TIP3    H1 8676   1.221   4.932   5.448  0.3514 -1.9719 -0.1027
 2904TIP3    H2 8677   1.079   4.921   5.396 -0.2867 -2.6837  1.6912
 2905TIP3   OH2 8678   4.042   6.310   2.132  0.6724  0.1575 -0.0709
 2905TIP3    H1 8679   3.987   6.338   2.059  1.6673  0.7031 -0.6292
 2905TIP3    H2 8680   4.101   6.245   2.095 -0.0316 -0.9634  0.6898
 2906TIP3   OH2 8681   4.670   5.489   4.660 -0.6652 -0.2434 -0.4641
 2906TIP3    H1 8682   4.672   5.394   4.649 -1.8134 -0.1375 -1.9073
 2906TIP3    H2 8683   4.754   5.519   4.626 -1.1484 -0.5880 -2.0173
 2907TIP3   OH2 8684   5.404   3.387   3.098 -0.0617 -0.2298 -0.1425
 2907TIP3    H1 8685   5.339   3.332   3.142  1.4203 -0.8535  1.3649
 2907TIP3    H2 8686   5.481   3.331   3.091  1.6804  1.7238  1.8757
 2908TIP3   OH2 8687   5.323   0.684   2.418  0.6400 -0.1522  0.6122
 2908TIP3    H1 8688   5.346   0.708   2.328  0.4618 -0.3224  0.5196
 2908TIP3    H2 8689   5.341   0.762   2.469 -1.6090  0.8253  0.0510
 2909TIP3   OH2 8690   2.855   1.574   5.356  0.4576  0.1714  0.0975
 2909TIP3    H1 8691   2.932   1.562   5.412  0.6818 -1.3045 -0.4628
 2909TIP3    H2 8692   2.793   1.507   5.386  0.2489 -0.0678 -0.8304
 2910TIP3   OH2 8693   6.857   4.124   0.163 -0.2181 -0.1324  0.0130
 2910TIP3    H1 8694   6.815   4.170   0.236  0.4083  0.3759  0.0646
 2910TIP3    H2 8695   6.784   4.092   0.110 -0.6769  0.0787  0.4965
 2911TIP3   OH2 8696   3.581   3.754   0.179 -0.0277 -0.0884  0.0432
 2911TIP3    H1 8697   3.517   3.773   0.111 -0.5481 -0.5045  0.4087
 2911TIP3    H2 8698   3.554   3.669   0.214 -0.1776  0.4272  1.2407
 2912TIP3   OH2 8699   3.874   4.152   0.497 -0.3709  0.3392  0.2396
 2912TIP3    H1 8700   3.816   4.209   0.447  0.5224  1.1344  0.0728
 2912TIP3    H2 8701   3.847   4.063   0.473 -0.4589  0.7016 -1.1018
 2913TIP3   OH2 8702   3.912   1.488   5.080  0.1382  0.3125 -0.4069
 2913TIP3    H1 8703   3.993   1.534   5.059 -0.1037  0.8343 -0.2037
 2913TIP3    H2 8704   3.843   1.553   5.069 -0.4883 -0.5945 -2.4353
 2914TIP3   OH2 8705   4.379   4.169   3.463  0.3472  0.1527 -0.0778
 2914TIP3    H1 8706   4.428   4.176   3.381  0.1560 -1.0381 -0.3106
 2914TIP3    H2 8707   4.386   4.256   3.503  0.1810  0.8446 -1.5032
 2915TIP3   OH2 8708   3.337   4.220   3.183 -0.3394  0.1278  0.1797
 2915TIP3    H1 8709   3.352   4.172   3.264  0.9622 -0.2790 -0.2731
 2915TIP3    H2 8710   3.307   4.154   3.121 -0.9352  0.3622  0.2171
 2916TIP3   OH2 8711   3.794   2.773   2.464  0.1987 -0.2428 -0.1439
 2916TIP3    H1 8712   3.803   2.686   2.426  0.2653 -0.5249  0.5045
 2916TIP3    H2 8713   3.851   2.829   2.411  1.3686 -0.8946  0.3839
 2917TIP3   OH2 8714   4.455   0.843   5.283 -0.3345 -0.1551 -0.1537
 2917TIP3    H1 8715   4.550   0.844   5.293 -0.5403 -0.4255  2.3775
 2917TIP3    H2 8716   4.428   0.933   5.301 -0.5988 -0.2031 -0.3148
 2918TIP3   OH2 8717   1.630   6.750   5.221 -0.2281 -0.6301  0.8417
 2918TIP3    H1 8718   1.578   6.750   5.301 -0.7996  2.9021  0.6397
 2918TIP3    H2 8719   1.568   6.774   5.152  1.1582  1.8291  0.2932
 2919TIP3   OH2 8720   1.451   0.305   4.054 -0.2330 -0.0765  0.8176
 2919TIP3    H1 8721   1.494   0.379   4.010  0.1755 -0.1941  1.0160
 2919TIP3    H2 8722   1.514   0.233   4.045 -0.2740 -0.1764  1.3500
 2920TIP3   OH2 8723   0.909   2.274   3.335  0.2034 -0.3942  0.3914
 2920TIP3    H1 8724   0.961   2.247   3.410 -2.7689 -3.0990  1.7234
 2920TIP3    H2 8725   0.819   2.276   3.368 -1.1115 -0.7038 -2.8335
 2921TIP3   OH2 8726   6.613   4.979   5.627  0.2152 -0.2036  0.2366
 2921TIP3    H1 8727   6.637   5.061   5.584  1.5081 -0.0320  1.2398
 2921TIP3    H2 8728   6.540   5.003   5.684  1.3183  0.5434  1.3917
 2922TIP3   OH2 8729   3.840   2.962   2.986  0.1652 -0.0774  0.8323
 2922TIP3    H1 8730   3.912   2.917   2.942  0.8011 -0.0701  1.8249
 2922TIP3    H2 8731   3.806   2.897   3.048 -1.5761 -0.5430 -0.5126
 2923TIP3   OH2 8732   4.720   3.184   2.737  0.4640  0.3652 -0.1516
 2923TIP3    H1 8733   4.679   3.230   2.810  0.0909  0.0652 -0.1683
 2923TIP3    H2 8734   4.743   3.098   2.772 -0.8226 -0.2288 -0.7100
 2924TIP3   OH2 8735   3.412   5.887   1.104  0.3992 -0.1927 -0.0124
 2924TIP3    H1 8736   3.429   5.981   1.107  0.8971 -0.1440 -2.2922
 2924TIP3    H2 8737   3.484   5.847   1.152  0.9907  0.5306 -0.2934
 2925TIP3   OH2 8738   3.661   6.256   1.571  0.1592  0.4634 -0.1002
 2925TIP3    H1 8739   3.685   6.345   1.597  0.2323  0.6532 -0.8016
 2925TIP3    H2 8740   3.740   6.205   1.589  0.7196  0.8696 -1.2961
 2926TIP3   OH2 8741   2.080   3.583   4.336  0.0723 -0.4362  0.1459
 2926TIP3    H1 8742   2.033   3.646   4.391  0.3003  0.3821 -0.5789
 2926TIP3    H2 8743   2.075   3.620   4.248  3.0848  0.3314  0.1850
 2927TIP3   OH2 8744   4.615   2.216   3.687 -0.4254 -0.6624  0.0522
 2927TIP3    H1 8745   4.701   2.248   3.717 -0.5916  1.6363 -1.6043
 2927TIP3    H2 8746   4.567   2.195   3.767  0.3710  1.7312  1.2418
 2928TIP3   OH2 8747   4.594   3.972   3.627  0.7767  0.3994 -0.1342
 2928TIP3    H1 8748   4.618   4.059   3.597  0.5346  1.2420  1.9567
 2928TIP3    H2 8749   4.672   3.918   3.611  1.0735  1.0804 -1.0446
 2929TIP3   OH2 8750   1.399   2.805   2.259  0.0375  0.3919  0.1573
 2929TIP3    H1 8751   1.364   2.750   2.189 -2.2279  0.2660  1.3004
 2929TIP3    H2 8752   1.443   2.744   2.319 -0.5015  0.1204  0.2784
 2930TIP3   OH2 8753   0.981   3.762   2.120 -0.4180  0.0411  0.6149
 2930TIP3    H1 8754   1.074   3.742   2.107  0.1423  1.9661  1.2937
 2930TIP3    H2 8755   0.947   3.774   2.032 -0.4231 -2.0710  0.2642
 2931TIP3   OH2 8756   1.413   5.357   3.996  0.0353  0.5339 -0.1547
 2931TIP3    H1 8757   1.499   5.366   3.955 -0.0505  2.6807  0.0372
 2931TIP3    H2 8758   1.415   5.270   4.036  1.8138  0.2250 -0.7993
 2932TIP3   OH2 8759   0.722   6.732   2.173 -0.0655  0.1415 -0.8981
 2932TIP3    H1 8760   0.745   6.703   2.261  1.2664 -0.6239 -1.4518
 2932TIP3    H2 8761   0.627   6.724   2.168  0.0290 -2.1248 -0.2929
 2933TIP3   OH2 8762   6.661   4.904   5.208 -0.2844 -0.1818  0.4927
 2933TIP3    H1 8763   6.652   4.826   5.154 -0.3925 -0.6583  1.1884
 2933TIP3    H2 8764   6.683   4.871   5.295 -1.1939  0.5066  1.0041
 2934TIP3   OH2 8765   4.614   5.782   4.099 -0.6605  0.2545  0.7006
 2934TIP3    H1 8766   4.614   5.867   4.142  1.0035  0.6881 -0.1053
 2934TIP3    H2 8767   4.550   5.791   4.028  1.3855  1.7900 -1.0857
 2935TIP3   OH2 8768   1.976   4.325   2.347 -0.4541  0.1777  0.6634
 2935TIP3    H1 8769   2.022   4.271   2.411  1.6237  0.3556 -0.6044
 2935TIP3    H2 8770   1.992   4.415   2.375 -2.2012  0.2447  1.6117
 2936TIP3   OH2 8771   4.802   2.531   1.784 -0.1515  0.3265 -0.1697
 2936TIP3    H1 8772   4.753   2.575   1.854  0.1483  0.4138 -0.0138
 2936TIP3    H2 8773   4.866   2.476   1.830  1.1398  1.6145 -0.3768
 2937TIP3   OH2 8774   5.283   2.727   3.292 -0.3069  0.0858 -0.1991
 2937TIP3    H1 8775   5.207   2.760   3.339 -0.5007  0.0902 -0.5116
 2937TIP3    H2 8776   5.255   2.642   3.258  0.1982 -0.4342  0.6347
 2938TIP3   OH2 8777   4.460   1.485   5.051 -0.3197  0.7023 -0.6228
 2938TIP3    H1 8778   4.448   1.391   5.063  0.8065  0.3787 -1.7457
 2938TIP3    H2 8779   4.456   1.521   5.139 -0.2762 -0.4568 -0.1205
 2939TIP3   OH2 8780   5.947   5.879   0.824 -0.1649 -0.2829  0.1274
 2939TIP3    H1 8781   5.936   5.889   0.919  0.5613  0.8033  0.1176
 2939TIP3    H2 8782   6.019   5.939   0.802  1.6861 -2.6434 -0.6729
 2940TIP3   OH2 8783   3.764   6.573   0.025 -0.6949  0.1976 -0.1552
 2940TIP3    H1 8784   3.814   6.500   0.062 -1.0962 -0.1656 -0.3176
 2940TIP3    H2 8785   3.830   6.629  -0.017 -0.2160  0.6814  1.1943
 2941TIP3   OH2 8786   3.268   3.125   2.346  0.5468 -0.8216  0.1346
 2941TIP3    H1 8787   3.222   3.050   2.310 -0.6362  0.5234 -1.3063
 2941TIP3    H2 8788   3.272   3.188   2.273  1.2997  0.6015  1.3431
 2942TIP3   OH2 8789   3.885   4.698   5.581 -0.2242  0.0339 -0.4510
 2942TIP3    H1 8790   3.966   4.659   5.549  0.3687  2.1650 -1.7566
 2942TIP3    H2 8791   3.834   4.715   5.502 -0.3516  2.0164  0.0186
 2943TIP3   OH2 8792   1.403   5.145   3.178  0.0599  0.0132  0.2420
 2943TIP3    H1 8793   1.333   5.207   3.160  0.1890 -0.3699 -1.7947
 2943TIP3    H2 8794   1.366   5.060   3.155  1.2223 -0.1770 -1.0251
 2944TIP3   OH2 8795   5.032   0.661   4.517 -0.0250 -0.0651  0.0916
 2944TIP3    H1 8796   4.986   0.675   4.434 -2.5502 -2.2508  0.9807
 2944TIP3    H2 8797   5.102   0.599   4.496 -0.0797  0.0902 -0.5613
 2945TIP3   OH2 8798   6.243   4.043   4.205 -0.3357  0.4808  0.9063
 2945TIP3    H1 8799   6.231   3.967   4.148  1.6782  1.0110 -0.3038
 2945TIP3    H2 8800   6.171   4.102   4.182  0.7485  0.9433 -1.5952
 2946TIP3   OH2 8801   4.667   5.390   0.067  0.2472  0.2479 -0.4564
 2946TIP3    H1 8802   4.602   5.431   0.011 -0.7880 -0.2449  0.3284
 2946TIP3    H2 8803   4.724   5.341   0.008  0.0222  0.8485 -1.1730
 2947TIP3   OH2 8804   3.546   0.804   1.346 -0.3929 -0.5277 -0.1395
 2947TIP3    H1 8805   3.592   0.737   1.296  1.5721  0.1948  0.5962
 2947TIP3    H2 8806   3.615   0.862   1.377 -1.8492  0.7318  0.8963
 2948TIP3   OH2 8807   1.530   2.773   2.634  0.2626  0.4634  0.3081
 2948TIP3    H1 8808   1.500   2.812   2.716 -3.0438  0.3122 -0.6592
 2948TIP3    H2 8809   1.611   2.729   2.656 -0.0825  1.1278  3.2885
 2949TIP3   OH2 8810   0.403   0.568   1.678 -0.0649 -0.0992 -0.1471
 2949TIP3    H1 8811   0.406   0.612   1.763 -1.8433  1.4591 -0.8296
 2949TIP3    H2 8812   0.334   0.503   1.687 -1.0304  0.8287 -0.7130
 2950TIP3   OH2 8813   0.993   2.023   1.135 -0.5831  0.0807 -0.3919
 2950TIP3    H1 8814   0.963   2.100   1.086  1.2462  1.0662 -0.0805
 2950TIP3    H2 8815   0.984   2.049   1.227 -0.8199 -0.4349 -0.2703
 2951TIP3   OH2 8816   5.437   6.273   1.474 -0.4430 -0.4149 -0.3837
 2951TIP3    H1 8817   5.355   6.231   1.446 -1.6811  0.4050  1.7693
 2951TIP3    H2 8818   5.412   6.364   1.492  0.6571 -0.4304  1.4323
 2952TIP3   OH2 8819   0.106   1.273   1.705 -0.3574  0.2530 -0.2623
 2952TIP3    H1 8820   0.158   1.349   1.682 -0.5141 -0.1573 -2.1326
 2952TIP3    H2 8821   0.166   1.199   1.696 -1.0332 -0.1480 -1.7152
 2953TIP3   OH2 8822   2.249   4.828   3.210  0.5414 -0.5611 -0.4784
 2953TIP3    H1 8823   2.210   4.915   3.204  2.1188  0.0848 -2.8933
 2953TIP3    H2 8824   2.207   4.778   3.139  1.2753 -1.0393 -0.5910
 2954TIP3   OH2 8825   0.431   5.998   3.016 -0.0573 -0.3273 -0.0581
 2954TIP3    H1 8826   0.402   6.074   2.965 -0.6649 -0.5537 -0.0643
 2954TIP3    H2 8827   0.526   6.004   3.017 -0.0115 -0.5244 -1.5392
 2955TIP3   OH2 8828   5.501   0.467   1.315 -0.1336  0.5337 -0.6056
 2955TIP3    H1 8829   5.410   0.498   1.323 -0.3672 -0.3608  0.5884
 2955TIP3    H2 8830   5.516   0.461   1.221 -1.4983  0.2152 -0.8263
 2956TIP3   OH2 8831   6.624   6.157   4.330  0.2149 -0.0941  0.2061
 2956TIP3    H1 8832   6.677   6.194   4.259 -0.1841 -0.2479 -0.1762
 2956TIP3    H2 8833   6.535   6.187   4.311  0.3052  1.0476  1.4133
 2957TIP3   OH2 8834   6.603   4.559   0.167 -0.2253 -0.3177 -0.3759
 2957TIP3    H1 8835   6.660   4.516   0.103 -0.1277 -1.5466  0.5005
 2957TIP3    H2 8836   6.523   4.579   0.119  1.5337  3.2296 -2.1970
 2958TIP3   OH2 8837   0.968   4.336   4.730 -0.6050 -0.4257  0.0344
 2958TIP3    H1 8838   0.955   4.242   4.745 -2.2930 -0.2901 -0.3164
 2958TIP3    H2 8839   0.884   4.366   4.695 -1.2299  1.8288  3.0783
 2959TIP3   OH2 8840   3.699   3.995   3.296 -0.8732 -0.4052  0.1497
 2959TIP3    H1 8841   3.769   3.965   3.354 -1.1204 -0.3236  0.4852
 2959TIP3    H2 8842   3.625   3.938   3.314 -1.3393  0.3768  0.7710
 2960TIP3   OH2 8843   3.080   5.466   4.900 -0.4784  0.0659  0.2480
 2960TIP3    H1 8844   3.087   5.560   4.889 -0.6555  0.1731  0.9944
 2960TIP3    H2 8845   2.995   5.443   4.861 -0.1717  0.1195 -0.4659
 2961TIP3   OH2 8846   1.944   4.293   2.893  0.4440  0.3457  0.4602
 2961TIP3    H1 8847   1.994   4.369   2.924  0.8762  0.1585  0.2355
 2961TIP3    H2 8848   1.967   4.285   2.801 -0.8052  0.8709  0.0867
 2962TIP3   OH2 8849   1.054   2.085   3.650  0.0114 -0.5220 -0.0132
 2962TIP3    H1 8850   1.095   2.161   3.609  1.3959 -2.0739 -1.6513
 2962TIP3    H2 8851   1.127   2.038   3.692 -0.8506 -0.8752  1.1629
 2963TIP3   OH2 8852   1.252   1.293   5.346  0.2894 -0.2669 -0.1404
 2963TIP3    H1 8853   1.331   1.246   5.318  0.5406 -0.9867  1.6615
 2963TIP3    H2 8854   1.188   1.275   5.277  1.1635 -1.1393 -0.7529
 2964TIP3   OH2 8855   6.890   4.603   1.029  0.2315 -0.8490  0.2605
 2964TIP3    H1 8856   6.866   4.622   0.938 -0.8478 -0.8237  0.5326
 2964TIP3    H2 8857   6.848   4.672   1.080  0.7464 -0.9200  0.7937
 2965TIP3   OH2 8858   2.503   5.938   5.170  0.0955 -0.0986 -0.5449
 2965TIP3    H1 8859   2.521   6.025   5.135 -0.6647 -0.6426 -2.4647
 2965TIP3    H2 8860   2.419   5.947   5.215 -0.0942  0.1212 -0.9374
 2966TIP3   OH2 8861   3.344   1.590   5.643 -0.2274 -0.1968  0.5836
 2966TIP3    H1 8862   3.359   1.674   5.688 -0.2768  0.3036 -0.3221
 2966TIP3    H2 8863   3.321   1.615   5.554 -3.1743 -1.0327  1.0018
 2967TIP3   OH2 8864   5.059   2.476   5.091 -0.2872  0.5739 -0.2055
 2967TIP3    H1 8865   5.044   2.396   5.142 -0.0447 -0.3846 -1.5777
 2967TIP3    H2 8866   5.105   2.534   5.151  0.9825 -0.9296  0.3641
 2968TIP3   OH2 8867   5.241   3.679   2.160  0.2067  0.0648  0.1020
 2968TIP3    H1 8868   5.306   3.745   2.137 -0.6944  0.6837 -0.7433
 2968TIP3    H2 8869   5.276   3.638   2.239  1.2833  0.8398  0.0569
 2969TIP3   OH2 8870   1.555   4.844   3.215  0.5090 -0.1773  0.1667
 2969TIP3    H1 8871   1.483   4.781   3.223  0.0709  0.4034  0.9518
 2969TIP3    H2 8872   1.607   4.812   3.142 -0.5335 -0.6330 -0.3956
 2970TIP3   OH2 8873   4.331   4.793   1.295  0.1360 -0.1187 -0.4008
 2970TIP3    H1 8874   4.378   4.873   1.316 -0.1951  0.5147 -1.9557
 2970TIP3    H2 8875   4.251   4.797   1.347  0.7640 -0.1418  0.5893
 2971TIP3   OH2 8876   2.329   4.485   2.039 -0.1996 -0.0379  0.2094
 2971TIP3    H1 8877   2.243   4.515   2.070 -0.0306  0.2036  0.4501
 2971TIP3    H2 8878   2.323   4.491   1.944 -0.3526  0.2445  0.2356
 2972TIP3   OH2 8879   6.784   3.725   5.071  0.7059  0.5482  0.0502
 2972TIP3    H1 8880   6.854   3.728   5.137  1.1946 -0.4120 -0.3982
 2972TIP3    H2 8881   6.831   3.715   4.988  0.0223 -2.3861 -0.0729
 2973TIP3   OH2 8882   4.669   2.195   2.498  0.4190  0.3114 -0.4426
 2973TIP3    H1 8883   4.658   2.153   2.584  1.7479  0.0246 -0.3993
 2973TIP3    H2 8884   4.700   2.125   2.441  0.6035  0.7593 -0.8943
 2974TIP3   OH2 8885   2.853   4.620   3.250  0.2236  0.6165  0.2459
 2974TIP3    H1 8886   2.897   4.605   3.334  0.8340 -2.3066 -0.4846
 2974TIP3    H2 8887   2.765   4.585   3.262  0.0886  0.8168 -0.1370
 2975TIP3   OH2 8888   3.299   4.301   0.658 -0.0325  0.5573 -0.1289
 2975TIP3    H1 8889   3.261   4.382   0.623 -0.2573  0.4042 -0.2402
 2975TIP3    H2 8890   3.228   4.237   0.652 -0.1025  0.5459  0.6758
 2976TIP3   OH2 8891   5.677   5.816   4.281  0.5952  0.1456  0.0471
 2976TIP3    H1 8892   5.688   5.841   4.373  0.8576 -0.9341  0.3217
 2976TIP3    H2 8893   5.589   5.846   4.258  0.9430  1.4423  0.2940
 2977TIP3   OH2 8894   0.939   5.085   4.591 -0.2730  0.2342  0.1198
 2977TIP3    H1 8895   0.869   5.100   4.655 -0.5553  1.9967 -0.5485
 2977TIP3    H2 8896   1.007   5.039   4.640 -0.8847  0.6770  1.4265
 2978TIP3   OH2 8897   3.624   0.637   0.156  0.2496 -0.5104 -0.2179
 2978TIP3    H1 8898   3.626   0.604   0.066  2.1883  0.5475 -0.6239
 2978TIP3    H2 8899   3.631   0.559   0.211  2.2234 -0.9926 -1.0900
 2979TIP3   OH2 8900   6.859   5.656   2.387  0.1275 -0.2465 -0.3619
 2979TIP3    H1 8901   6.946   5.619   2.373 -0.4184 -1.9485  0.4992
 2979TIP3    H2 8902   6.808   5.584   2.424 -1.4487  0.9297 -0.1539
 2980TIP3   OH2 8903  -0.018   4.098   3.987  0.1375 -0.1801 -0.8008
 2980TIP3    H1 8904   0.025   4.179   4.012  0.2824 -0.1214 -1.2273
 2980TIP3    H2 8905   0.047   4.030   4.002 -0.2905 -0.3488  0.4510
 2981TIP3   OH2 8906   6.163   4.171   0.233  0.1439  0.4086  0.2889
 2981TIP3    H1 8907   6.197   4.232   0.297 -0.2776  0.2173  0.7033
 2981TIP3    H2 8908   6.176   4.215   0.149  0.3454  0.8269  0.5349
 2982TIP3   OH2 8909   2.498   0.171   4.646  0.0989  0.3446  0.0907
 2982TIP3    H1 8910   2.406   0.156   4.622  0.0480  0.5083  0.1807
 2982TIP3    H2 8911   2.548   0.124   4.580 -0.0484  0.3224 -0.0060
 2983TIP3   OH2 8912   0.161   3.544   5.044  0.2930  0.3950 -0.0921
 2983TIP3    H1 8913   0.095   3.566   5.111 -0.1980  0.4064 -0.5678
 2983TIP3    H2 8914   0.133   3.594   4.967  1.0483  0.6483 -0.2034
 2984TIP3   OH2 8915   0.295   2.251   0.484  0.0406  0.0905  0.2081
 2984TIP3    H1 8916   0.331   2.314   0.421  2.8077  0.9680  2.4475
 2984TIP3    H2 8917   0.201   2.271   0.487  0.6217  3.4991  0.0561
 2985TIP3   OH2 8918   2.835   0.754   1.624 -0.1296  0.1054  0.0129
 2985TIP3    H1 8919   2.791   0.833   1.655 -0.7467  0.2124 -1.1113
 2985TIP3    H2 8920   2.836   0.762   1.529 -1.6106 -1.9633 -0.2334
 2986TIP3   OH2 8921   4.254   2.875   3.397  0.2665  0.3963 -0.6954
 2986TIP3    H1 8922   4.171   2.836   3.369 -0.2895 -1.7881  3.2319
 2986TIP3    H2 8923   4.228   2.944   3.458  1.4001  1.5099 -1.4317
 2987TIP3   OH2 8924   2.079   1.696   5.676  0.0861  0.5906  0.8911
 2987TIP3    H1 8925   2.106   1.788   5.671  0.0150  0.5682 -0.1895
 2987TIP3    H2 8926   1.988   1.696   5.644  0.7634 -0.1192 -1.1580
 2988TIP3   OH2 8927   0.531   2.143   4.681  0.3661 -0.2337 -0.1868
 2988TIP3    H1 8928   0.475   2.179   4.750  0.1005  2.5178 -1.6822
 2988TIP3    H2 8929   0.620   2.166   4.707  0.4157 -0.5879 -0.0301
 2989TIP3   OH2 8930   3.192   1.099   1.040  0.3660 -0.4093 -0.1827
 2989TIP3    H1 8931   3.227   1.032   1.098 -0.4633 -0.8081 -0.1234
 2989TIP3    H2 8932   3.107   1.120   1.077  0.1089 -0.1976 -0.8816
 2990TIP3   OH2 8933   1.170   2.824   3.250  0.4990  0.1341 -0.0025
 2990TIP3    H1 8934   1.081   2.831   3.283  1.0085  2.0578  1.1180
 2990TIP3    H2 8935   1.170   2.874   3.168  1.0549  2.3158  1.2497
 2991TIP3   OH2 8936   6.527   4.552   5.840 -0.1231 -0.2776  0.4416
 2991TIP3    H1 8937   6.602   4.610   5.823 -0.2332 -0.4413 -0.7391
 2991TIP3    H2 8938   6.451   4.604   5.813 -0.2862 -0.6754  0.1251
 2992TIP3   OH2 8939   6.847   0.716   4.881 -0.0288  1.1871 -0.6957
 2992TIP3    H1 8940   6.761   0.682   4.855  0.5875  1.5749 -3.4762
 2992TIP3    H2 8941   6.899   0.638   4.899 -0.9282  0.9481  1.0919
 2993TIP3   OH2 8942   5.819   4.608   0.976  0.1506  0.0834 -0.0273
 2993TIP3    H1 8943   5.888   4.619   0.910  0.3759 -1.0708 -0.0077
 2993TIP3    H2 8944   5.767   4.687   0.969  1.4430  0.9671 -0.0932
 2994TIP3   OH2 8945   4.807   0.107   3.619  0.3831 -0.7532  0.9012
 2994TIP3    H1 8946   4.768   0.173   3.562 -1.0969 -0.8737  1.7192
 2994TIP3    H2 8947   4.900   0.106   3.595 -0.2465 -1.2065 -1.8736
 2995TIP3   OH2 8948   2.817   0.343   1.735  0.8877  0.0641 -0.2941
 2995TIP3    H1 8949   2.856   0.361   1.821 -0.6963  0.2166  0.4197
 2995TIP3    H2 8950   2.763   0.420   1.717  1.8125  0.4067 -1.8313
 2996TIP3   OH2 8951   6.736   3.279   1.458  0.3495 -0.0798 -0.6047
 2996TIP3    H1 8952   6.759   3.189   1.479 -2.5136 -0.6608  0.5166
 2996TIP3    H2 8953   6.756   3.328   1.538 -0.1287 -0.1771 -0.4172
 2997TIP3   OH2 8954   4.529   1.258   3.171 -0.1080  0.2225  0.6438
 2997TIP3    H1 8955   4.494   1.270   3.082  0.0484 -0.0021  0.5513
 2997TIP3    H2 8956   4.451   1.257   3.227 -0.2358 -0.0533  0.4629
 2998TIP3   OH2 8957   0.193   3.511   2.670 -0.5504 -0.3227  0.5958
 2998TIP3    H1 8958   0.225   3.551   2.589 -3.5092  2.5770  0.6253
 2998TIP3    H2 8959   0.271   3.501   2.724  1.1095  0.4857 -1.4897
 2999TIP3   OH2 8960   6.277   2.405   4.792 -0.1302 -0.0778  0.2362
 2999TIP3    H1 8961   6.277   2.369   4.881  1.4178 -1.6656 -0.3473
 2999TIP3    H2 8962   6.358   2.457   4.788 -0.3315  0.2091 -0.1663
 3000TIP3   OH2 8963  -0.001   4.451   1.154 -0.8526 -0.2614  0.1724
 3000TIP3    H1 8964  -0.007   4.445   1.059  0.7473  2.1690 -0.1702
 3000TIP3    H2 8965   0.093   4.456   1.172 -1.1794  1.1875  1.6977
 3001TIP3   OH2 8966   5.752   2.730   4.005  0.2290  0.1909  0.2440
 3001TIP3    H1 8967   5.674   2.756   4.054  0.5005 -1.7663  1.8289
 3001TIP3    H2 8968   5.822   2.731   4.069  1.3128  0.7671 -0.9044
 3002TIP3   OH2 8969   6.646   4.388   4.013  0.4738 -0.2051 -0.4832
 3002TIP3    H1 8970   6.570   4.374   4.070  0.5164 -2.6639 -0.8898
 3002TIP3    H2 8971   6.719   4.399   4.074  0.0231  0.7382 -0.0931
 3003TIP3   OH2 8972   3.022   3.563   5.778 -0.5514 -0.4246  0.4562
 3003TIP3    H1 8973   3.015   3.656   5.798 -2.1980 -0.1390 -1.2588
 3003TIP3    H2 8974   2.953   3.522   5.829 -0.0186 -0.6736  0.9815
 3004TIP3   OH2 8975   7.032   1.120   1.135  0.5139  0.3288  0.1218
 3004TIP3    H1 8976   6.988   1.154   1.057  0.4840 -0.4219 -0.1900
 3004TIP3    H2 8977   7.121   1.155   1.130  1.0982 -1.2115 -1.2505
 3005TIP3   OH2 8978   2.056   4.298   4.021  0.3605 -0.5328 -0.4668
 3005TIP3    H1 8979   2.015   4.248   3.950 -0.1576  2.0048 -2.1128
 3005TIP3    H2 8980   1.985   4.321   4.079 -0.8089  3.3733 -3.0179
 3006TIP3   OH2 8981   5.216   5.824   4.114  0.2870  0.0977 -1.0750
 3006TIP3    H1 8982   5.160   5.818   4.036 -1.6375  0.9234  0.1711
 3006TIP3    H2 8983   5.216   5.735   4.150 -0.6446  0.1752 -0.8489
 3007TIP3   OH2 8984   4.828   0.308   5.708  0.4027  0.0788 -0.1807
 3007TIP3    H1 8985   4.775   0.236   5.674 -0.5241  0.4673  0.3942
 3007TIP3    H2 8986   4.850   0.360   5.631  0.5221 -0.4576 -0.5125
 3008TIP3   OH2 8987   6.303   4.130   5.187  0.1494 -0.5373  0.3498
 3008TIP3    H1 8988   6.358   4.200   5.151  2.3230 -1.5078  1.5459
 3008TIP3    H2 8989   6.221   4.137   5.139  1.1580  1.2774 -1.2758
 3009TIP3   OH2 8990   0.436   4.275   2.799 -0.3445  0.1514  0.2525
 3009TIP3    H1 8991   0.361   4.238   2.845 -0.4707 -0.7448 -0.6439
 3009TIP3    H2 8992   0.495   4.201   2.785  0.6539  0.8089  0.7883
 3010TIP3   OH2 8993   4.499   4.628   4.019 -0.1641  0.0107 -0.4849
 3010TIP3    H1 8994   4.479   4.578   4.099  0.2208  0.1826 -0.2760
 3010TIP3    H2 8995   4.418   4.674   3.998  0.0397  0.8229  0.4357
 3011TIP3   OH2 8996   0.116   4.159   5.474 -0.4607 -0.7797  0.6084
 3011TIP3    H1 8997   0.084   4.102   5.544 -0.8283 -0.9862  0.2791
 3011TIP3    H2 8998   0.074   4.243   5.489 -1.2249 -1.0662  0.1437
 3012TIP3   OH2 8999   3.292   5.018   5.288  0.4569  0.6327  0.3656
 3012TIP3    H1 9000   3.368   5.073   5.269  0.9018 -0.3406 -0.7495
 3012TIP3    H2 9001   3.221   5.057   5.237  0.5971  0.5856  0.1355
 3013TIP3   OH2 9002   0.336   1.433   1.578  0.5577 -0.3441  0.0722
 3013TIP3    H1 9003   0.333   1.338   1.567  0.5652 -0.4178  0.6624
 3013TIP3    H2 9004   0.426   1.457   1.560  0.8542 -0.6151  1.1041
 3014TIP3   OH2 9005   6.230   6.312   3.221  0.1112  0.4776 -0.1705
 3014TIP3    H1 9006   6.161   6.247   3.207  1.5447 -1.0256 -0.6669
 3014TIP3    H2 9007   6.185   6.396   3.218 -1.8729 -0.4862  0.7927
 3015TIP3   OH2 9008   4.271   0.099   2.919 -0.1672 -0.2231 -0.6655
 3015TIP3    H1 9009   4.282   0.075   2.827 -0.1809 -1.2032 -0.4273
 3015TIP3    H2 9010   4.187   0.144   2.922  0.4178  0.9546 -1.3292
 3016TIP3   OH2 9011   6.363   2.147   4.075 -0.0954  0.1065 -0.1145
 3016TIP3    H1 9012   6.450   2.113   4.053 -0.5631 -1.1815 -0.0846
 3016TIP3    H2 9013   6.314   2.141   3.992 -0.3113  0.2944 -0.0012
 3017TIP3   OH2 9014   3.767   5.288   4.204  0.1594 -0.1462 -0.1290
 3017TIP3    H1 9015   3.728   5.375   4.201  2.1219  0.7969  0.0090
 3017TIP3    H2 9016   3.759   5.261   4.296  2.5199  1.3993  0.6099
 3018TIP3   OH2 9017   1.789   3.853   0.104  0.2363  0.8026 -0.2031
 3018TIP3    H1 9018   1.713   3.834   0.048  0.0969  1.1166 -0.1214
 3018TIP3    H2 9019   1.848   3.779   0.089 -0.9224 -0.4824  1.2005
 3019TIP3   OH2 9020   3.561   5.820   4.142 -0.2484  0.3493  0.2080
 3019TIP3    H1 9021   3.533   5.872   4.066  1.1483  1.1351  0.2011
 3019TIP3    H2 9022   3.646   5.857   4.167  0.3778 -1.3689  0.7699
 3020TIP3   OH2 9023   4.563   5.629   3.477  0.6805 -0.3174  0.2626
 3020TIP3    H1 9024   4.609   5.698   3.526 -1.8104  2.7406 -1.3169
 3020TIP3    H2 9025   4.485   5.612   3.530  1.2267 -1.9607  0.5816
 3021TIP3   OH2 9026   4.049   0.551   2.939  0.6093  0.3093  0.7569
 3021TIP3    H1 9027   4.130   0.597   2.961  1.5663 -1.9604  2.3688
 3021TIP3    H2 9028   3.997   0.553   3.019  0.1367 -0.3224  0.4832
 3022TIP3   OH2 9029   3.616   1.666   3.948 -0.5736 -0.1741 -0.4581
 3022TIP3    H1 9030   3.643   1.631   4.033  0.3327  0.5928 -0.4151
 3022TIP3    H2 9031   3.573   1.593   3.905  0.3569 -1.0464  0.0414
 3023TIP3   OH2 9032   1.487   6.445   2.488  0.2089  0.7064  0.7501
 3023TIP3    H1 9033   1.493   6.523   2.433  2.1098 -0.2320 -0.4819
 3023TIP3    H2 9034   1.463   6.375   2.427  1.6796 -0.2330  1.2040
 3024TIP3   OH2 9035   4.613   2.339   0.099  0.3034 -0.2773  0.5403
 3024TIP3    H1 9036   4.519   2.330   0.119  0.1477  1.4003  0.7109
 3024TIP3    H2 9037   4.619   2.420   0.049  1.5825 -0.8011 -0.1994
 3025TIP3   OH2 9038   1.801   2.285   4.083  0.4929  0.6148  0.1418
 3025TIP3    H1 9039   1.835   2.266   3.995  1.7395  0.6598  0.5916
 3025TIP3    H2 9040   1.826   2.208   4.135  0.8057  1.0998  0.7191
 3026TIP3   OH2 9041   3.721   2.217   0.185  0.4094  0.1885 -0.2179
 3026TIP3    H1 9042   3.815   2.220   0.170  0.4902 -2.0886 -0.3703
 3026TIP3    H2 9043   3.710   2.248   0.275  1.5849 -1.8705  0.6953
 3027TIP3   OH2 9044   3.992   6.165   4.119 -0.1687 -0.4234  0.0726
 3027TIP3    H1 9045   4.002   6.110   4.041 -1.0414 -0.6041  0.0771
 3027TIP3    H2 9046   4.075   6.156   4.166 -0.1821 -1.4800 -0.0905
 3028TIP3   OH2 9047   6.769   3.661   0.861  0.4368  0.2256  0.8065
 3028TIP3    H1 9048   6.839   3.674   0.925  1.3253 -1.0748  0.1470
 3028TIP3    H2 9049   6.801   3.704   0.781 -0.8376  2.1920  1.2918
 3029TIP3   OH2 9050   3.104   3.669   3.388 -0.0167 -0.3049 -0.1913
 3029TIP3    H1 9051   3.138   3.741   3.334  1.2922 -1.1033 -0.4655
 3029TIP3    H2 9052   3.009   3.681   3.387  0.2020  2.2114  0.8589
 3030TIP3   OH2 9053   3.526   0.951   4.892  0.4238  0.1520 -0.1976
 3030TIP3    H1 9054   3.585   0.929   4.820 -2.3414  0.1495 -2.6118
 3030TIP3    H2 9055   3.580   1.003   4.952  3.5427 -2.0291 -0.8789
 3031TIP3   OH2 9056   4.532   2.477   3.018 -0.5108  0.3347  0.1757
 3031TIP3    H1 9057   4.605   2.507   2.965 -1.0171 -0.0346 -0.7694
 3031TIP3    H2 9058   4.571   2.416   3.080  0.0031  0.2084 -0.2597
 3032TIP3   OH2 9059   3.299   1.095   4.848 -0.1038 -0.3328 -0.5033
 3032TIP3    H1 9060   3.245   1.056   4.917 -0.0867  0.5037 -0.0044
 3032TIP3    H2 9061   3.377   1.041   4.845 -0.9696 -1.5882 -1.2612
 3033TIP3   OH2 9062   5.923   5.595   1.441  0.1621  0.2089  0.1691
 3033TIP3    H1 9063   5.860   5.537   1.483  0.7771 -0.4868  0.1447
 3033TIP3    H2 9064   5.997   5.539   1.419  0.1177  0.6731 -1.3064
 3034TIP3   OH2 9065   5.639   5.922   2.314  0.0808  0.8055 -0.3717
 3034TIP3    H1 9066   5.641   5.990   2.247 -2.1229  0.6295 -0.6824
 3034TIP3    H2 9067   5.645   5.969   2.397  3.1393  1.0088 -0.5787
 3035TIP3   OH2 9068   5.778   6.266   0.460 -0.2698 -0.4265 -0.0179
 3035TIP3    H1 9069   5.836   6.341   0.449  0.7163 -1.1880 -0.0767
 3035TIP3    H2 9070   5.744   6.249   0.372 -1.1708  0.4517  0.1299
 3036TIP3   OH2 9071   1.918   4.320   0.562 -0.2586  0.8717  0.2191
 3036TIP3    H1 9072   1.840   4.267   0.543 -0.0950  0.6421  0.1759
 3036TIP3    H2 9073   1.990   4.256   0.564 -0.1654  0.9919  0.8989
 3037TIP3   OH2 9074   5.595   2.753   0.842  0.4523  0.2716 -0.0121
 3037TIP3    H1 9075   5.504   2.730   0.862  0.3666  0.9228  0.3946
 3037TIP3    H2 9076   5.633   2.776   0.927  0.4511  1.8390 -0.3986
 3038TIP3   OH2 9077   4.084   2.550   0.843 -0.4482  0.3232  0.0672
 3038TIP3    H1 9078   4.112   2.464   0.812 -0.1217  0.5364 -0.2486
 3038TIP3    H2 9079   4.040   2.590   0.768 -0.8108  0.3376  0.2863
 3039TIP3   OH2 9080   5.806   3.194   4.560 -0.0186 -0.1090  0.1267
 3039TIP3    H1 9081   5.897   3.199   4.587  0.7200 -2.0229 -1.7574
 3039TIP3    H2 9082   5.799   3.254   4.486 -0.2517 -0.1332  0.1282
 3040TIP3   OH2 9083   3.532   6.692   2.518 -0.1545  0.1621  0.5117
 3040TIP3    H1 9084   3.552   6.769   2.463  0.1774 -0.5937 -0.4627
 3040TIP3    H2 9085   3.608   6.685   2.576  1.9675 -1.8364 -2.2049
 3041TIP3   OH2 9086   3.467   1.733   0.820  0.0163  0.1111  0.1356
 3041TIP3    H1 9087   3.404   1.674   0.781 -0.4377  0.5979  0.1220
 3041TIP3    H2 9088   3.424   1.766   0.898  0.8985 -0.8129  1.0339
 3042TIP3   OH2 9089   1.982   5.758   4.793 -0.7500  0.1043 -0.4190
 3042TIP3    H1 9090   2.076   5.739   4.794 -0.5040  1.2613  0.9760
 3042TIP3    H2 9091   1.942   5.682   4.836 -0.3367  0.1565  0.0690
 3043TIP3   OH2 9092   0.707   1.403   0.973  0.0287 -0.1278  0.2684
 3043TIP3    H1 9093   0.791   1.370   0.940 -0.1931 -0.6437  0.1997
 3043TIP3    H2 9094   0.643   1.369   0.910 -0.1848  0.6230  0.0806
 3044TIP3   OH2 9095   0.425   2.144   5.493 -0.2163 -0.0132 -0.0659
 3044TIP3    H1 9096   0.339   2.103   5.493 -0.0045 -0.5415  1.4778
 3044TIP3    H2 9097   0.423   2.204   5.568  1.6595 -2.1555  1.8798
 3045TIP3   OH2 9098   3.127   1.799   5.675  0.5141  0.0544  1.1859
 3045TIP3    H1 9099   3.195   1.863   5.661 -0.3391  1.0433  1.4226
 3045TIP3    H2 9100   3.133   1.777   5.768 -0.0801  0.8689  1.4330
 3046TIP3   OH2 9101   2.883   0.517   0.931  0.2835 -0.2691 -0.7914
 3046TIP3    H1 9102   2.913   0.475   1.011 -1.4648  1.0307  0.6427
 3046TIP3    H2 9103   2.839   0.448   0.882  0.1217 -0.7716  0.0570
 3047TIP3   OH2 9104   1.510   1.192   5.322  0.1840 -0.0241  0.4324
 3047TIP3    H1 9105   1.568   1.190   5.397  0.4728 -0.4597  0.1991
 3047TIP3    H2 9106   1.557   1.145   5.253 -0.4786 -0.4542  0.2638
 3048TIP3   OH2 9107   2.325   4.451   2.315  0.3943  0.1991  0.0002
 3048TIP3    H1 9108   2.310   4.440   2.221  1.6823 -0.0479 -0.2043
 3048TIP3    H2 9109   2.304   4.543   2.332  1.4467  0.6206 -0.8289
 3049TIP3   OH2 9110   4.454   0.158   5.372 -0.2536 -0.2373 -0.1433
 3049TIP3    H1 9111   4.442   0.064   5.386 -0.4591 -0.2226 -0.2083
 3049TIP3    H2 9112   4.535   0.180   5.417 -0.1876 -0.4538 -0.1583
 3050TIP3   OH2 9113   0.673   0.584   4.079  0.3613  0.0218  0.7465
 3050TIP3    H1 9114   0.766   0.599   4.096  0.0594  2.2982  0.6690
 3050TIP3    H2 9115   0.660   0.614   3.989 -0.2597 -1.3620  0.3460
 3051TIP3   OH2 9116   2.910   5.666   0.219  0.7828  0.1318 -0.4117
 3051TIP3    H1 9117   2.910   5.696   0.310  0.0240 -0.6450 -0.1355
 3051TIP3    H2 9118   2.999   5.632   0.205  0.7660 -0.1739  0.1947
 3052TIP3   OH2 9119   5.080   4.855   2.320  0.0954  0.4341 -0.2877
 3052TIP3    H1 9120   5.075   4.880   2.413 -0.4253  0.9337 -0.4488
 3052TIP3    H2 9121   5.067   4.760   2.321 -1.8099  0.6544  0.0034
 3053TIP3   OH2 9122   0.063   3.321   1.264 -0.1601  0.6525  0.3094
 3053TIP3    H1 9123   0.058   3.411   1.230  0.3383  0.6167  0.1310
 3053TIP3    H2 9124   0.125   3.277   1.206 -1.3735 -0.1756 -0.3932
 3054TIP3   OH2 9125   2.389   5.540   0.072 -0.6135  0.2166 -0.1313
 3054TIP3    H1 9126   2.401   5.446   0.061 -0.4792  0.1714  0.3615
 3054TIP3    H2 9127   2.410   5.556   0.164 -3.5271  0.2632  0.6102
 3055TIP3   OH2 9128   0.993   3.131   3.802  0.1026  0.0277 -0.2744
 3055TIP3    H1 9129   0.991   3.186   3.881 -2.4980  0.7174 -0.7285
 3055TIP3    H2 9130   0.989   3.041   3.835  0.9923  0.2179  0.3951
 3056TIP3   OH2 9131   1.696   3.905   4.005  0.4206 -0.1962  0.6154
 3056TIP3    H1 9132   1.714   3.996   3.979  1.1656 -0.6411 -0.5138
 3056TIP3    H2 9133   1.750   3.852   3.946 -0.5514 -1.4062  0.7643
 3057TIP3   OH2 9134   0.333   6.451   0.603  0.4486 -0.0699 -0.3081
 3057TIP3    H1 9135   0.340   6.498   0.520 -0.0302  1.7484  0.6284
 3057TIP3    H2 9136   0.312   6.519   0.667 -0.9752 -1.6800  1.0111
 3058TIP3   OH2 9137   6.056   1.297   4.719 -0.6428  0.6791 -0.2361
 3058TIP3    H1 9138   6.144   1.261   4.722 -1.2059 -0.7458  0.3638
 3058TIP3    H2 9139   6.056   1.366   4.785 -0.4698 -0.6029  1.1653
 3059TIP3   OH2 9140   6.457   3.389   0.447  0.5340 -0.2086 -0.1588
 3059TIP3    H1 9141   6.489   3.478   0.431 -2.3242  0.9955  0.1812
 3059TIP3    H2 9142   6.435   3.356   0.360 -0.6314  0.3743 -0.0990
 3060TIP3   OH2 9143   5.230   2.869   3.053 -0.0214 -0.5053 -0.1617
 3060TIP3    H1 9144   5.314   2.876   3.009  0.7396 -0.8828  1.1827
 3060TIP3    H2 9145   5.251   2.846   3.143 -1.5775 -0.8640  0.1506
 3061TIP3   OH2 9146   1.674   5.141   3.039 -0.0356  0.0985  0.0286
 3061TIP3    H1 9147   1.603   5.160   3.101  0.1917  0.7201  0.1003
 3061TIP3    H2 9148   1.676   5.045   3.034  0.5170 -0.0050  1.6696
 3062TIP3   OH2 9149   1.046   4.512   2.976 -0.4056 -0.2725 -0.2909
 3062TIP3    H1 9150   1.112   4.442   2.979 -1.4175 -1.3361 -1.5591
 3062TIP3    H2 9151   0.964   4.466   2.954 -1.2932  1.1990 -0.1516
 3063TIP3   OH2 9152   5.205   4.745   2.805 -0.5505  0.8430 -0.1845
 3063TIP3    H1 9153   5.119   4.741   2.848 -0.6503  0.3802 -0.4163
 3063TIP3    H2 9154   5.237   4.833   2.824 -1.0416  0.9957 -0.0301
 3064TIP3   OH2 9155   6.486   2.727   0.110 -0.3268  0.0851 -0.1070
 3064TIP3    H1 9156   6.574   2.693   0.128 -0.8342 -0.5240  1.4085
 3064TIP3    H2 9157   6.428   2.659   0.143 -1.3739  1.6509  1.4153
 3065TIP3   OH2 9158   1.914   1.705   3.259  0.1351  0.5054  0.2227
 3065TIP3    H1 9159   1.852   1.645   3.217 -0.7475  1.7685 -0.3453
 3065TIP3    H2 9160   1.996   1.656   3.261 -0.9822 -1.4642  1.5880
 3066TIP3   OH2 9161   4.816   2.585   4.392  0.1691 -0.3519 -0.1919
 3066TIP3    H1 9162   4.885   2.552   4.450  0.8236 -0.1699 -0.8438
 3066TIP3    H2 9163   4.736   2.581   4.444  0.9328  0.9769  1.1447
 3067TIP3   OH2 9164   6.448   3.251   0.179 -0.0926 -0.1814  0.3743
 3067TIP3    H1 9165   6.488   3.281   0.097 -1.7652  0.2604 -0.3241
 3067TIP3    H2 9166   6.473   3.159   0.186  1.8381  0.3231  0.4942
 3068TIP3   OH2 9167   4.669   2.688   5.685 -0.6052  0.4782 -0.3224
 3068TIP3    H1 9168   4.618   2.692   5.766  1.0128  2.7833  0.6897
 3068TIP3    H2 9169   4.732   2.617   5.700 -1.4007 -0.2310 -0.2773
 3069TIP3   OH2 9170   3.714   4.812   4.927  0.5806  0.0742  0.4694
 3069TIP3    H1 9171   3.680   4.726   4.902 -2.4541  1.2184  0.2169
 3069TIP3    H2 9172   3.678   4.827   5.015  0.2872  1.4314  0.1466
 3070TIP3   OH2 9173   2.528   5.669   1.069  0.3368  0.0055  0.9521
 3070TIP3    H1 9174   2.434   5.650   1.068  0.1595  0.8995  0.2652
 3070TIP3    H2 9175   2.567   5.590   1.106 -0.5452 -1.0060 -0.1881
 3071TIP3   OH2 9176   4.702   1.906   5.760  0.4822 -0.2527 -0.6541
 3071TIP3    H1 9177   4.662   1.975   5.813  1.2976 -0.6252  0.4902
 3071TIP3    H2 9178   4.632   1.878   5.701 -0.6634 -0.2195  0.6280
 3072TIP3   OH2 9179   3.995   0.855   2.849 -0.0804  0.2912  0.1205
 3072TIP3    H1 9180   4.035   0.933   2.809 -0.6001  0.0912 -0.8121
 3072TIP3    H2 9181   4.065   0.817   2.902  0.2104  1.3376  0.5104
 3073TIP3   OH2 9182   4.952   1.842   0.199  0.3562 -0.2353 -0.1367
 3073TIP3    H1 9183   4.922   1.891   0.123 -1.7098 -1.9402 -0.5308
 3073TIP3    H2 9184   5.009   1.774   0.163  0.4367 -0.2429  0.0023
 3074TIP3   OH2 9185   6.918   3.615   4.314  0.1662 -0.4859 -0.2859
 3074TIP3    H1 9186   6.855   3.613   4.243 -0.9851  1.6867  0.5700
 3074TIP3    H2 9187   7.002   3.632   4.272 -0.7180  2.4512 -1.1453
 3075TIP3   OH2 9188   3.089   2.388   5.808  0.2365  0.2948  0.4540
 3075TIP3    H1 9189   3.049   2.439   5.737 -0.6147 -0.4239  0.3965
 3075TIP3    H2 9190   3.102   2.301   5.770 -1.8851 -0.6300  1.6754
 3076TIP3   OH2 9191   5.143   2.445   4.397 -0.5199  0.3460  0.0586
 3076TIP3    H1 9192   5.185   2.376   4.345 -1.7200 -0.9508  0.7464
 3076TIP3    H2 9193   5.096   2.499   4.333 -0.7611 -0.3487 -0.3591
 3077TIP3   OH2 9194   6.993   1.418   0.327 -0.1183 -0.0628  0.0820
 3077TIP3    H1 9195   6.974   1.396   0.236 -0.9400  1.3777 -0.1252
 3077TIP3    H2 9196   6.933   1.490   0.348  1.3583  0.9426  1.1434
 3078TIP3   OH2 9197   4.735   4.692   5.608 -0.2520 -0.4010  0.0328
 3078TIP3    H1 9198   4.668   4.759   5.594  1.5729  1.6704  0.6313
 3078TIP3    H2 9199   4.740   4.645   5.525 -1.2799  0.4944 -0.5588
 3079TIP3   OH2 9200   2.772   0.582   5.068 -0.1839  0.2658  0.5250
 3079TIP3    H1 9201   2.855   0.545   5.038 -0.2916  0.3528  0.1118
 3079TIP3    H2 9202   2.764   0.553   5.159 -0.5814 -1.2917  0.0168
 3080TIP3   OH2 9203   5.327   6.352   4.460 -0.3140 -0.2840 -0.8968
 3080TIP3    H1 9204   5.395   6.415   4.481 -0.5439 -0.0862 -0.7322
 3080TIP3    H2 9205   5.264   6.361   4.532  1.4912 -3.4249  1.3622
 3081TIP3   OH2 9206   0.013   0.815   0.499  0.2731  0.0264 -0.3541
 3081TIP3    H1 9207   0.010   0.805   0.594 -0.7158 -0.3979 -0.4111
 3081TIP3    H2 9208   0.048   0.903   0.485 -0.3772  0.4261  0.4266
 3082TIP3   OH2 9209   2.232   6.709   3.702  0.0127  0.0061  0.1711
 3082TIP3    H1 9210   2.275   6.669   3.778  1.2861 -1.6593 -1.3308
 3082TIP3    H2 9211   2.297   6.768   3.665 -0.3179  0.2275 -0.0645
 3083TIP3   OH2 9212   4.222   4.464   4.672  0.3171 -0.2120 -0.2063
 3083TIP3    H1 9213   4.294   4.527   4.681 -0.2570  0.2762  1.4761
 3083TIP3    H2 9214   4.246   4.393   4.731  0.6721 -1.3315 -1.6525
 3084TIP3   OH2 9215   4.358   2.938   3.720  0.0036  0.0872 -0.2630
 3084TIP3    H1 9216   4.346   3.030   3.696 -0.7778  0.2783  0.7707
 3084TIP3    H2 9217   4.396   2.898   3.642  0.5369  1.3205 -0.6658
 3085TIP3   OH2 9218   4.374   5.535   4.658  0.1980  1.0272 -0.0770
 3085TIP3    H1 9219   4.313   5.609   4.661  1.4528  2.0820  0.6508
 3085TIP3    H2 9220   4.377   5.503   4.748 -1.2616 -0.7452 -0.6060
 3086TIP3   OH2 9221   0.203   0.787   5.326  0.0688 -0.0876  0.0442
 3086TIP3    H1 9222   0.127   0.778   5.385 -0.2146  2.4551  0.2037
 3086TIP3    H2 9223   0.188   0.722   5.258 -1.0602 -1.2005  1.2738
 3087TIP3   OH2 9224   5.412   2.663   3.993 -0.7650 -0.5358 -0.0482
 3087TIP3    H1 9225   5.366   2.712   4.060 -1.8557 -0.4690 -0.8101
 3087TIP3    H2 9226   5.425   2.725   3.921  0.9980 -0.4098  0.3251
 3088TIP3   OH2 9227   4.096   6.620   3.746  0.1992 -0.5240  0.0237
 3088TIP3    H1 9228   4.035   6.673   3.797  1.1840  1.6290 -0.8890
 3088TIP3    H2 9229   4.144   6.684   3.693  3.2526 -2.0949  0.6873
 3089TIP3   OH2 9230   2.489   0.981   0.499 -0.9552  0.2452 -0.3420
 3089TIP3    H1 9231   2.468   0.927   0.423 -1.7218 -0.0617  0.0735
 3089TIP3    H2 9232   2.583   0.996   0.493 -0.6760 -1.3864 -0.2997
 3090TIP3   OH2 9233   2.554   5.353   3.342  0.1016  1.0589  0.3769
 3090TIP3    H1 9234   2.521   5.271   3.306  0.6060  1.0906 -0.1760
 3090TIP3    H2 9235   2.518   5.357   3.430 -0.1944  0.4020  0.2894
 3091TIP3   OH2 9236   5.656   5.733   1.154 -0.2092  0.4829 -0.2496
 3091TIP3    H1 9237   5.748   5.744   1.178 -0.2748  2.2183 -0.6857
 3091TIP3    H2 9238   5.651   5.762   1.063 -0.7457 -2.0409 -1.1042
 3092TIP3   OH2 9239   1.156   5.936   2.422  0.0540  0.4308  0.3672
 3092TIP3    H1 9240   1.249   5.957   2.432  0.2544  1.0051 -2.1750
 3092TIP3    H2 9241   1.114   5.979   2.496  1.7269  0.7488  1.1838
 3093TIP3   OH2 9242   2.871   2.248   5.417  0.4841 -0.1072  0.6060
 3093TIP3    H1 9243   2.909   2.246   5.329 -1.0460 -2.6326 -0.0859
 3093TIP3    H2 9244   2.789   2.297   5.406  0.6988  0.3125  0.8388
 3094TIP3   OH2 9245   7.142  -0.005   5.404  0.1502 -1.0922 -0.2845
 3094TIP3    H1 9246   7.227  -0.002   5.360  0.0232  2.4890 -0.5668
 3094TIP3    H2 9247   7.142   0.070   5.463 -1.8717 -2.5142  1.6995
 3095TIP3   OH2 9248   5.717   2.314   1.505  0.2382  0.1773 -0.8935
 3095TIP3    H1 9249   5.628   2.302   1.536  0.8709  0.3890  1.1697
 3095TIP3    H2 9250   5.759   2.368   1.573  1.7204  0.7550 -2.2035
 3096TIP3   OH2 9251   1.962   5.995   5.260  0.3842  0.2271 -0.1905
 3096TIP3    H1 9252   2.055   6.013   5.265  0.4289 -0.2100  0.7786
 3096TIP3    H2 9253   1.944   5.985   5.166  1.0089  1.7542 -0.4972
 3097TIP3   OH2 9254   0.207   2.177   0.158  0.2438  0.1266 -0.5110
 3097TIP3    H1 9255   0.149   2.238   0.203 -0.1667  0.0424 -0.9098
 3097TIP3    H2 9256   0.161   2.157   0.076  0.4826 -0.5253 -0.4944
 3098TIP3   OH2 9257   4.768   3.691   1.665  0.4126  0.2025 -0.3949
 3098TIP3    H1 9258   4.742   3.656   1.750  1.7157  1.1351  0.4229
 3098TIP3    H2 9259   4.742   3.783   1.667  1.3947  0.4943 -0.5776
 3099TIP3   OH2 9260   0.344   4.207   2.010 -0.2407 -0.3378 -0.0633
 3099TIP3    H1 9261   0.301   4.278   1.963 -1.8554  0.0004  1.7957
 3099TIP3    H2 9262   0.411   4.249   2.062 -3.4065  0.5628  3.7422
 3100TIP3   OH2 9263   0.845   0.733   2.977  0.3071 -0.1571 -0.0681
 3100TIP3    H1 9264   0.754   0.759   2.987  1.3964  4.3703  0.3846
 3100TIP3    H2 9265   0.849   0.691   2.891 -1.9556  0.9703 -0.7973
 3101TIP3   OH2 9266   7.160   6.002   3.623 -0.2795  0.2457  0.2777
 3101TIP3    H1 9267   7.090   5.967   3.567  1.2317 -1.3349 -0.7457
 3101TIP3    H2 9268   7.238   5.952   3.597  0.8980  0.8053  2.4921
 3102TIP3   OH2 9269   2.336   4.351   0.452 -0.0993  0.3691 -0.0995
 3102TIP3    H1 9270   2.290   4.417   0.400 -1.5915 -0.1748  0.4945
 3102TIP3    H2 9271   2.419   4.393   0.476 -1.1440  2.1606  0.5386
 3103TIP3   OH2 9272   4.532   0.202   3.849 -0.8876 -0.3608  0.1173
 3103TIP3    H1 9273   4.470   0.263   3.810  1.6444  1.6290 -1.1605
 3103TIP3    H2 9274   4.540   0.131   3.785 -0.9988 -0.0264 -0.2710
 3104TIP3   OH2 9275   4.744   3.657   5.196 -0.1092 -0.7202 -0.6680
 3104TIP3    H1 9276   4.738   3.590   5.264 -1.1246  0.0136 -0.0039
 3104TIP3    H2 9277   4.673   3.636   5.136 -0.6063 -0.1004 -0.3119
 3105TIP3   OH2 9278   6.415   3.713   3.972  0.0248 -0.2617  0.4277
 3105TIP3    H1 9279   6.439   3.687   3.883  0.0524 -0.9090  0.6236
 3105TIP3    H2 9280   6.326   3.746   3.964  0.4632  0.8692 -0.0586
 3106TIP3   OH2 9281   2.366   2.243   1.990  0.1516  0.2732 -0.1345
 3106TIP3    H1 9282   2.416   2.309   1.941  1.5849  0.8097  1.9209
 3106TIP3    H2 9283   2.362   2.168   1.931  3.0146  0.3891 -0.6330
 3107TIP3   OH2 9284   7.008   4.639   5.023 -0.0750 -0.0160 -0.1268
 3107TIP3    H1 9285   6.986   4.725   5.061  1.6817  0.2200  0.4138
 3107TIP3    H2 9286   6.926   4.611   4.982 -0.9316  1.5371  0.3975
 3108TIP3   OH2 9287   3.387   0.312   2.681 -0.1452  0.1056 -0.2221
 3108TIP3    H1 9288   3.315   0.334   2.623 -0.3242  0.4121  0.1131
 3108TIP3    H2 9289   3.405   0.220   2.663 -1.5272 -0.3706  0.6598
 3109TIP3   OH2 9290   3.664   4.842   4.118  0.1642 -0.4800  0.0816
 3109TIP3    H1 9291   3.693   4.906   4.183  0.6328  0.5758 -1.1253
 3109TIP3    H2 9292   3.578   4.874   4.089 -0.0232 -0.9177  0.1471
 3110TIP3   OH2 9293   3.782   5.541   2.744 -0.2175  0.4309 -0.1542
 3110TIP3    H1 9294   3.843   5.598   2.792 -0.7182  0.2260  0.7547
 3110TIP3    H2 9295   3.758   5.592   2.667  0.5170  0.8261 -0.1314
 3111TIP3   OH2 9296   3.340   2.587   0.317  0.2275 -0.0286 -0.1471
 3111TIP3    H1 9297   3.305   2.551   0.398 -1.2404  0.6601 -0.4333
 3111TIP3    H2 9298   3.384   2.513   0.275 -2.2729 -1.4370 -0.4992
 3112TIP3   OH2 9299   4.422   4.438   5.054  0.4268  0.0893  0.3973
 3112TIP3    H1 9300   4.419   4.515   5.112  1.2974  1.3644 -1.1642
 3112TIP3    H2 9301   4.512   4.436   5.023  0.2300 -1.1996 -0.1047
 3113TIP3   OH2 9302   6.290   6.363   2.272 -0.7124 -0.6884  0.2213
 3113TIP3    H1 9303   6.208   6.332   2.310 -0.1031 -1.1008  1.2166
 3113TIP3    H2 9304   6.294   6.321   2.186 -1.5325 -0.6745  0.1752
 3114TIP3   OH2 9305   5.255   6.636   5.156  0.5149 -0.2669 -0.6344
 3114TIP3    H1 9306   5.295   6.702   5.101 -0.0959 -0.1445 -0.9412
 3114TIP3    H2 9307   5.191   6.684   5.209 -0.2491 -0.6572 -1.1732
 3115TIP3   OH2 9308   2.544   1.762   1.374 -0.1422  0.1977  0.0437
 3115TIP3    H1 9309   2.593   1.697   1.425  2.7504  1.2719 -1.1315
 3115TIP3    H2 9310   2.466   1.716   1.344  0.4911 -1.8922  1.4089
 3116TIP3   OH2 9311   7.117   3.010   0.829  0.1863 -0.1025  0.2214
 3116TIP3    H1 9312   7.028   3.037   0.851  0.3080  1.7535 -1.2953
 3116TIP3    H2 9313   7.165   3.017   0.912 -0.9627 -0.7314  0.9652
 3117TIP3   OH2 9314   4.739   1.379   3.299  0.1003  0.0928 -0.8368
 3117TIP3    H1 9315   4.683   1.319   3.249 -1.2895 -0.2268  1.0119
 3117TIP3    H2 9316   4.805   1.407   3.236  0.6467 -3.1226 -1.8956
 3118TIP3   OH2 9317   3.348   2.415   4.148  0.2601 -0.1087  0.0811
 3118TIP3    H1 9318   3.374   2.332   4.109  0.4692 -0.6987  1.4101
 3118TIP3    H2 9319   3.312   2.466   4.076  1.3281 -0.8471 -1.0125
 3119TIP3   OH2 9320   1.819   4.514   1.328  0.0563  0.1104  0.3785
 3119TIP3    H1 9321   1.741   4.466   1.356 -0.2969 -0.1493 -1.0040
 3119TIP3    H2 9322   1.821   4.504   1.233  1.8755 -0.0446  0.3927
 3120TIP3   OH2 9323   4.262   3.500   4.839 -0.1878 -0.0560  0.0074
 3120TIP3    H1 9324   4.199   3.465   4.776 -0.3976  0.5551 -0.1364
 3120TIP3    H2 9325   4.248   3.449   4.919 -1.1224  0.3133  0.0916
 3121TIP3   OH2 9326   1.550   1.321   1.022  0.8675  0.5588  0.1844
 3121TIP3    H1 9327   1.611   1.379   0.975 -0.2874  1.9140  0.2760
 3121TIP3    H2 9328   1.464   1.357   1.003  0.2399  0.0100  1.8126
 3122TIP3   OH2 9329   1.944   2.888   2.754 -0.3282  0.1004 -0.1497
 3122TIP3    H1 9330   2.034   2.923   2.754 -0.6852  1.2014  1.9352
 3122TIP3    H2 9331   1.945   2.819   2.820 -1.2474  0.8998  0.7358
 3123TIP3   OH2 9332   2.536   0.715   2.163  0.5252  0.4959  0.3338
 3123TIP3    H1 9333   2.511   0.702   2.072 -2.0425 -1.0815  1.1522
 3123TIP3    H2 9334   2.583   0.635   2.187 -0.1925  0.1961  0.7823
 3124TIP3   OH2 9335   1.665   4.813   4.223 -0.2582  0.6778  0.0565
 3124TIP3    H1 9336   1.608   4.868   4.170  0.0737 -0.5330 -1.6405
 3124TIP3    H2 9337   1.726   4.874   4.265 -0.7052  1.6968 -0.7352
 3125TIP3   OH2 9338   4.884   2.584   1.513  0.3507 -0.1248  0.0563
 3125TIP3    H1 9339   4.873   2.499   1.470 -0.6160  0.6048 -1.2130
 3125TIP3    H2 9340   4.836   2.576   1.595 -0.2289 -0.6235 -0.3244
 3126TIP3   OH2 9341   0.940   1.876   0.699  0.1968 -0.0460  0.0651
 3126TIP3    H1 9342   0.876   1.946   0.713 -2.1634 -1.9199 -0.6527
 3126TIP3    H2 9343   0.954   1.874   0.604  0.6060 -0.2465  0.1277
 3127TIP3   OH2 9344   7.177   4.743   1.139 -0.1374  0.3093 -0.5231
 3127TIP3    H1 9345   7.160   4.649   1.141 -1.9348  0.5361 -2.4207
 3127TIP3    H2 9346   7.112   4.781   1.197 -0.3456  0.4883 -0.8705
 3128TIP3   OH2 9347   6.802   5.456   4.654 -0.1178 -0.0876 -0.2363
 3128TIP3    H1 9348   6.757   5.399   4.717 -0.3426  1.3306  0.9512
 3128TIP3    H2 9349   6.742   5.461   4.579 -1.4379  0.8115  0.8223
 3129TIP3   OH2 9350   6.690   2.554   4.485  0.6953 -0.7717 -0.3168
 3129TIP3    H1 9351   6.781   2.550   4.457  1.0704  0.3425  0.6434
 3129TIP3    H2 9352   6.640   2.571   4.405  1.6538  1.6310 -0.4713
 3130TIP3   OH2 9353   3.488   2.628   5.645 -0.0910  0.4364  0.3293
 3130TIP3    H1 9354   3.410   2.614   5.699  0.4292  2.6944  1.8175
 3130TIP3    H2 9355   3.560   2.630   5.708  0.9744 -0.0500 -0.8374
 3131TIP3   OH2 9356   5.101   2.761   1.594  0.0477  0.0656 -0.0830
 3131TIP3    H1 9357   5.055   2.684   1.561  0.5895  0.5804 -2.1984
 3131TIP3    H2 9358   5.079   2.830   1.531  0.9610  1.1876  0.7936
 3132TIP3   OH2 9359   2.793   5.842   0.010 -0.4921 -0.7544 -0.2547
 3132TIP3    H1 9360   2.820   5.933   0.006 -2.2589 -0.0689  1.6504
 3132TIP3    H2 9361   2.815   5.813   0.098 -0.8428 -1.8654 -0.5044
 3133TIP3   OH2 9362   2.688   0.657   0.276 -0.1645  0.2661  0.6311
 3133TIP3    H1 9363   2.690   0.645   0.371  0.4996 -0.7319  0.4990
 3133TIP3    H2 9364   2.775   0.631   0.247  0.2427  2.2805 -0.0728
 3134TIP3   OH2 9365   3.903   3.939   5.655 -0.3531  0.3092 -0.3104
 3134TIP3    H1 9366   3.866   4.025   5.672  0.0261  0.3456  0.3730
 3134TIP3    H2 9367   3.994   3.957   5.631 -1.0757  0.3371 -3.3710
 3135TIP3   OH2 9368   4.871   1.395   3.065  0.3708  0.5508  0.5385
 3135TIP3    H1 9369   4.940   1.428   3.008 -0.5708  1.0460 -0.3412
 3135TIP3    H2 9370   4.853   1.307   3.032  0.5172  0.4576  0.7074
 3136TIP3   OH2 9371   0.752   0.812   2.251 -0.0500  0.4233 -0.5528
 3136TIP3    H1 9372   0.787   0.796   2.338 -1.0635  0.1460 -0.1875
 3136TIP3    H2 9373   0.816   0.870   2.210  0.4505  0.5308  0.3626
 3137TIP3   OH2 9374   5.010   3.888   1.921 -1.0263 -0.1696  0.1450
 3137TIP3    H1 9375   4.996   3.839   2.003  0.5531  1.1053  1.2494
 3137TIP3    H2 9376   4.988   3.979   1.944 -1.6255  0.0532 -1.1969
 3138TIP3   OH2 9377   1.371   0.783   2.612 -0.4813 -0.1156 -0.6205
 3138TIP3    H1 9378   1.361   0.811   2.521 -0.9379  1.4325 -0.1246
 3138TIP3    H2 9379   1.281   0.770   2.642 -0.4209  0.9326  0.0521
 3139TIP3   OH2 9380   0.172   3.242   3.805  0.6589  0.4398  0.3691
 3139TIP3    H1 9381   0.171   3.315   3.744 -0.8932 -0.1020 -0.3323
 3139TIP3    H2 9382   0.083   3.240   3.841  0.1812 -1.9372 -0.7272
 3140TIP3   OH2 9383   1.638   6.084   4.741 -0.2497  0.5756 -0.1151
 3140TIP3    H1 9384   1.725   6.122   4.734 -1.6776  3.9964 -2.3669
 3140TIP3    H2 9385   1.648   5.994   4.711  2.3594  1.1214 -1.1286
 3141TIP3   OH2 9386   2.110   4.757   1.828 -0.4134  0.0975  0.5838
 3141TIP3    H1 9387   2.201   4.782   1.847  0.2221 -1.5250 -0.1771
 3141TIP3    H2 9388   2.072   4.836   1.789  0.8138  0.6408  0.4233
 3142TIP3   OH2 9389   1.781   6.599   0.478  0.0052  0.0370  0.4621
 3142TIP3    H1 9390   1.762   6.508   0.458 -0.9376  0.3038  0.1272
 3142TIP3    H2 9391   1.698   6.636   0.506  0.2279  0.9671 -0.0546
 3143TIP3   OH2 9392   6.045   6.417   0.608  0.0056 -0.0397 -0.7791
 3143TIP3    H1 9393   6.132   6.378   0.613 -0.4054 -1.0733 -1.3246
 3143TIP3    H2 9394   6.024   6.416   0.515 -0.0533  1.4523 -0.8031
 3144TIP3   OH2 9395   4.355   0.031   3.333  0.0552  0.3015 -0.4912
 3144TIP3    H1 9396   4.392  -0.009   3.254  2.2944  2.2689 -0.5407
 3144TIP3    H2 9397   4.372   0.124   3.323 -1.6099  0.8682  1.3240
 3145TIP3   OH2 9398   4.197   0.720   5.875 -0.2101 -0.0547 -0.3113
 3145TIP3    H1 9399   4.152   0.782   5.932 -0.3108 -1.8881  1.7060
 3145TIP3    H2 9400   4.133   0.698   5.808 -0.7882  0.6291  0.0028
 3146TIP3   OH2 9401   3.632   6.057   5.689 -0.0804 -0.3118  0.4938
 3146TIP3    H1 9402   3.728   6.058   5.698 -0.0530 -0.1583  0.1872
 3146TIP3    H2 9403   3.609   6.148   5.670 -0.3191 -0.2908  0.8654
 3147TIP3   OH2 9404   4.057   5.938   2.660 -0.6919 -0.0283  0.1451
 3147TIP3    H1 9405   4.074   6.017   2.710 -2.5686  1.1565 -0.9365
 3147TIP3    H2 9406   4.122   5.939   2.590 -0.9154  0.7739 -0.0619
 3148TIP3   OH2 9407   2.940   6.362   3.132 -0.0889  0.4183 -0.6700
 3148TIP3    H1 9408   2.959   6.320   3.215 -0.9150 -0.5661 -0.9489
 3148TIP3    H2 9409   2.875   6.430   3.153 -1.2172 -0.6284 -0.6529
 3149TIP3   OH2 9410   3.677   0.330   5.617  0.6530 -0.3609  0.0493
 3149TIP3    H1 9411   3.760   0.350   5.574  0.9203  3.1129  1.7964
 3149TIP3    H2 9412   3.629   0.412   5.615 -0.8048 -0.9981  3.0668
 3150TIP3   OH2 9413   6.405   1.438   0.175  0.8535  0.3739 -0.1511
 3150TIP3    H1 9414   6.462   1.382   0.227  0.8388 -0.8182 -1.3731
 3150TIP3    H2 9415   6.317   1.422   0.210  0.7494 -0.9510 -0.9443
 3151TIP3   OH2 9416   1.987   1.883   2.325 -0.2468 -0.3126  0.2249
 3151TIP3    H1 9417   2.061   1.829   2.301  0.3354  0.9212 -0.8465
 3151TIP3    H2 9418   2.013   1.923   2.408 -0.3051 -0.9328  0.5527
 3152TIP3   OH2 9419   6.781   0.343   5.498 -0.0512 -0.1495  0.0178
 3152TIP3    H1 9420   6.827   0.295   5.429 -0.0378  0.2775 -0.2771
 3152TIP3    H2 9421   6.720   0.400   5.451 -0.9955 -0.8221  0.4162
 3153TIP3   OH2 9422   1.450   5.422   2.954 -0.6037 -0.1178  0.4830
 3153TIP3    H1 9423   1.419   5.389   3.039 -1.2030  0.6098  0.5632
 3153TIP3    H2 9424   1.545   5.431   2.965 -0.5990 -0.5800  0.8750
 3154TIP3   OH2 9425   1.797   6.778   5.833 -0.2873 -0.0135 -0.0460
 3154TIP3    H1 9426   1.839   6.842   5.889 -0.1627 -1.2644  1.3533
 3154TIP3    H2 9427   1.855   6.771   5.757  1.1866 -0.4637  1.0670
 3155TIP3   OH2 9428   6.071   2.522   4.098  0.2258  0.4002 -0.0223
 3155TIP3    H1 9429   6.116   2.579   4.160  0.2345  1.0973 -0.6590
 3155TIP3    H2 9430   6.040   2.581   4.028 -1.2418 -0.1271  0.1459
 3156TIP3   OH2 9431   2.981   1.440   4.349  0.2440 -0.2370  0.1792
 3156TIP3    H1 9432   2.910   1.438   4.413  0.9424  0.8131  1.0184
 3156TIP3    H2 9433   2.942   1.481   4.272 -0.0278  0.5090  0.6975
 3157TIP3   OH2 9434   5.859   4.884   0.399  1.0226 -0.4481  0.3670
 3157TIP3    H1 9435   5.854   4.823   0.326 -0.8886  1.6513 -1.3919
 3157TIP3    H2 9436   5.796   4.850   0.463  0.0940 -0.4172 -0.5192
 3158TIP3   OH2 9437   1.170   0.499   4.074  0.0928  0.0838 -0.1679
 3158TIP3    H1 9438   1.233   0.431   4.048 -0.3122 -0.4260  0.1672
 3158TIP3    H2 9439   1.216   0.550   4.141 -0.4681 -1.4061  1.4119
 3159TIP3   OH2 9440   5.059   0.554   4.018 -0.2699  0.3176 -0.3346
 3159TIP3    H1 9441   5.095   0.636   4.052 -0.0963 -0.3759  1.2409
 3159TIP3    H2 9442   5.122   0.487   4.046 -1.3230 -0.5668 -0.0053
 3160TIP3   OH2 9443   0.474   1.370   0.737 -0.1046  0.4256 -0.1192
 3160TIP3    H1 9444   0.557   1.401   0.704 -0.0457 -0.6340 -1.0184
 3160TIP3    H2 9445   0.497   1.296   0.794 -0.4973 -1.7773 -2.5964
 3161TIP3   OH2 9446   4.244   0.014   1.146  0.0735 -0.2929 -0.0256
 3161TIP3    H1 9447   4.334   0.034   1.169 -0.4032  0.8278  0.9803
 3161TIP3    H2 9448   4.250  -0.044   1.070  1.6186  0.1266 -0.2412
 3162TIP3   OH2 9449   3.299   6.586   0.708  0.4306  0.1580  0.0211
 3162TIP3    H1 9450   3.254   6.651   0.653 -0.8620  0.0788  0.9530
 3162TIP3    H2 9451   3.229   6.537   0.750  1.3578 -2.2966 -1.1177
 3163TIP3   OH2 9452   1.629   2.616   5.714  0.4467  0.2755  0.0874
 3163TIP3    H1 9453   1.559   2.571   5.667  0.5512 -0.0850  0.2770
 3163TIP3    H2 9454   1.607   2.709   5.705  0.8680  0.2650 -1.3159
 3164TIP3   OH2 9455   1.755   2.172   2.150  0.2785 -0.1231  0.2056
 3164TIP3    H1 9456   1.728   2.081   2.136  0.6173 -0.2928  0.6097
 3164TIP3    H2 9457   1.851   2.168   2.152  0.3169  0.3701 -0.5685
 3165TIP3   OH2 9458   2.668   2.815   2.990  0.0368  0.7871 -0.0598
 3165TIP3    H1 9459   2.601   2.798   2.923 -0.7132 -0.7947  1.0222
 3165TIP3    H2 9460   2.650   2.903   3.022 -0.4473  1.0267 -0.9692
 3166TIP3   OH2 9461   5.855   3.099   1.934 -0.2590  0.2955 -0.3829
 3166TIP3    H1 9462   5.933   3.140   1.970  0.1919 -1.4073  0.7023
 3166TIP3    H2 9463   5.807   3.068   2.011 -0.3672 -1.5290 -1.1273
 3167TIP3   OH2 9464   5.823   3.528   3.916 -0.5144 -0.5291  0.2907
 3167TIP3    H1 9465   5.918   3.515   3.924  0.0232  1.8670 -1.0009
 3167TIP3    H2 9466   5.805   3.603   3.974 -1.5248 -0.6606  0.1596
 3168TIP3   OH2 9467   3.004   6.513   4.165 -0.2117  0.1146  0.4125
 3168TIP3    H1 9468   3.100   6.507   4.167 -0.1717  0.4058 -0.4168
 3168TIP3    H2 9469   2.976   6.430   4.126 -0.3382 -0.2327  1.2181
 3169TIP3   OH2 9470   0.008   5.093   3.789  0.0410  0.1757  0.8781
 3169TIP3    H1 9471   0.066   5.168   3.773  0.1441 -0.2368 -0.9407
 3169TIP3    H2 9472  -0.017   5.064   3.702 -1.7128 -0.6079  1.6063
 3170TIP3   OH2 9473   0.428   5.565   0.240  0.1670 -0.3445 -0.2142
 3170TIP3    H1 9474   0.361   5.526   0.184  0.6275 -0.5342 -0.6468
 3170TIP3    H2 9475   0.412   5.527   0.327 -0.5725 -0.0201 -0.2054
 3171TIP3   OH2 9476   2.377   1.564   2.782  0.0988  0.0475 -0.5201
 3171TIP3    H1 9477   2.318   1.490   2.768  0.5217 -0.0228 -2.0903
 3171TIP3    H2 9478   2.448   1.550   2.719  1.3232  0.6253  0.6801
 3172TIP3   OH2 9479   5.404   3.123   2.824  0.2880 -0.1717  0.1893
 3172TIP3    H1 9480   5.338   3.190   2.845 -1.6335 -2.1765  0.8590
 3172TIP3    H2 9481   5.408   3.122   2.729 -2.1201 -1.2737  0.0273
 3173TIP3   OH2 9482   5.094   5.824   3.194  0.2663 -0.3917 -0.5225
 3173TIP3    H1 9483   5.007   5.863   3.209  0.5699  0.0033  0.2807
 3173TIP3    H2 9484   5.088   5.785   3.107 -0.1855  1.0918 -1.1995
 3174TIP3   OH2 9485   4.094   3.807   4.122 -0.0030 -0.0949  0.2765
 3174TIP3    H1 9486   4.187   3.789   4.138  0.4062  0.1957 -1.4798
 3174TIP3    H2 9487   4.055   3.720   4.111  0.8518 -0.2456 -2.5967
 3175TIP3   OH2 9488   1.912   6.601   3.794  0.7198 -0.0927 -0.1032
 3175TIP3    H1 9489   1.897   6.516   3.753 -0.1524 -0.2842  0.5860
 3175TIP3    H2 9490   1.963   6.580   3.873 -0.0548 -0.0590  0.4127
 3176TIP3   OH2 9491   5.007   5.859   0.087  0.0417 -0.0761 -0.3686
 3176TIP3    H1 9492   4.943   5.929   0.102 -0.8042 -1.0310  0.6290
 3176TIP3    H2 9493   4.953   5.781   0.070  0.9354 -0.8637  0.3159
 3177TIP3   OH2 9494   2.103   4.421   1.312 -0.7945 -0.2093 -0.1133
 3177TIP3    H1 9495   2.153   4.499   1.335 -1.3499 -0.0179  0.4989
 3177TIP3    H2 9496   2.011   4.451   1.314 -0.9883 -0.7875 -0.2341
 3178TIP3   OH2 9497   4.776   3.270   0.497  0.1417 -0.3671 -0.0153
 3178TIP3    H1 9498   4.704   3.221   0.458  0.2152 -0.6272  0.1719
 3178TIP3    H2 9499   4.775   3.354   0.452  1.1581 -1.1743 -1.6120
 3179TIP3   OH2 9500   5.159   2.492   3.276 -0.1996  0.0361 -0.4563
 3179TIP3    H1 9501   5.196   2.405   3.292 -1.9518 -1.0763 -2.1209
 3179TIP3    H2 9502   5.065   2.477   3.269 -0.6856  2.3005  0.4720
 3180TIP3   OH2 9503   1.393   1.586   0.314  0.2488 -0.3123 -0.0088
 3180TIP3    H1 9504   1.376   1.679   0.300 -0.8300 -0.2631  1.3818
 3180TIP3    H2 9505   1.462   1.564   0.252 -0.2724  1.1449 -1.1584
 3181TIP3   OH2 9506   6.718   2.512   2.910  0.3167 -0.3756 -0.1345
 3181TIP3    H1 9507   6.732   2.539   2.820  0.2224  1.3259  0.3223
 3181TIP3    H2 9508   6.787   2.448   2.927  2.8031  2.0658 -0.2960
 3182TIP3   OH2 9509   6.865   0.246   2.907 -0.1926 -0.5183 -0.7211
 3182TIP3    H1 9510   6.911   0.271   2.987  1.1899 -0.9950 -1.3263
 3182TIP3    H2 9511   6.777   0.281   2.917  1.2500  3.8586 -1.1210
 3183TIP3   OH2 9512   4.128   1.459   3.743  0.4136  0.2442  0.4991
 3183TIP3    H1 9513   4.209   1.510   3.736  0.7263 -0.3845 -0.7367
 3183TIP3    H2 9514   4.134   1.415   3.828  1.3006  0.3199  0.4853
 3184TIP3   OH2 9515   5.875   1.376   0.962 -0.1573  0.0878  0.2779
 3184TIP3    H1 9516   5.935   1.371   1.036 -0.3634 -0.5271  0.4157
 3184TIP3    H2 9517   5.819   1.298   0.971 -0.3998  0.1790 -0.3366
 3185TIP3   OH2 9518   2.751   4.371   5.409  0.1843  0.2148 -0.5517
 3185TIP3    H1 9519   2.786   4.443   5.355  0.4210  1.1549  0.8014
 3185TIP3    H2 9520   2.819   4.355   5.474  0.0446 -1.1305 -0.7052
 3186TIP3   OH2 9521   2.662   6.516   5.531 -0.4005  0.1474 -0.3880
 3186TIP3    H1 9522   2.737   6.575   5.540 -2.1697  2.4105  0.5092
 3186TIP3    H2 9523   2.654   6.502   5.437  1.4018 -0.5559 -0.4824
 3187TIP3   OH2 9524   4.912   4.026   3.368 -0.6660  0.0112 -0.5170
 3187TIP3    H1 9525   4.831   3.993   3.331  0.1482 -0.9994 -1.4556
 3187TIP3    H2 9526   4.900   4.017   3.463 -1.1518 -1.3644 -0.6898
 3188TIP3   OH2 9527   1.951   2.138   0.524 -0.1180 -0.0916 -0.1181
 3188TIP3    H1 9528   1.987   2.207   0.580  0.1094 -0.9425  0.7993
 3188TIP3    H2 9529   2.013   2.132   0.451  0.4221 -0.0425  0.3313
 3189TIP3   OH2 9530   2.999   2.006   1.272  0.4425 -0.3715 -0.3774
 3189TIP3    H1 9531   3.022   1.934   1.213  2.6350 -0.2788  0.2588
 3189TIP3    H2 9532   3.007   2.085   1.218  1.5648 -0.3603 -0.2299
 3190TIP3   OH2 9533   3.002   6.754   4.520  0.2710  0.3815 -0.2140
 3190TIP3    H1 9534   3.026   6.724   4.607 -0.1920  1.4193  0.2836
 3190TIP3    H2 9535   3.085   6.755   4.471  0.3041 -1.7189 -0.2876
 3191TIP3   OH2 9536   3.839   1.182   3.772 -0.1372 -0.3696 -0.2761
 3191TIP3    H1 9537   3.815   1.222   3.856 -0.6828  0.0460 -0.6179
 3191TIP3    H2 9538   3.755   1.161   3.731  0.1468 -2.4128  0.1257
 3192TIP3   OH2 9539   3.205   2.193   2.794  0.0335 -0.2901  0.4352
 3192TIP3    H1 9540   3.257   2.248   2.734 -0.9041  1.2731  0.9974
 3192TIP3    H2 9541   3.136   2.251   2.826 -0.8194 -1.7323  1.3243
 3193TIP3   OH2 9542   2.182   0.122   1.818  0.7614  0.4440  0.2961
 3193TIP3    H1 9543   2.260   0.163   1.780  0.7971  0.0762 -0.0368
 3193TIP3    H2 9544   2.136   0.085   1.743 -0.1144  1.2946  0.4066
 3194TIP3   OH2 9545   5.640   6.429   3.537 -0.2984  0.5289  0.2765
 3194TIP3    H1 9546   5.716   6.432   3.595  0.7803 -1.9266 -0.8982
 3194TIP3    H2 9547   5.648   6.508   3.483  0.1929  1.4025  1.5610
 3195TIP3   OH2 9548   6.279   4.684   5.834  0.1231 -0.8897  0.1064
 3195TIP3    H1 9549   6.205   4.685   5.895  0.7191  1.8882  0.9115
 3195TIP3    H2 9550   6.247   4.731   5.757  0.9058 -0.0755  0.2718
 3196TIP3   OH2 9551   2.257   1.275   5.818  0.3695 -0.1614  0.1650
 3196TIP3    H1 9552   2.232   1.259   5.727  0.9581 -0.0506 -0.0170
 3196TIP3    H2 9553   2.212   1.356   5.841 -0.3393 -0.5476  0.1990
 3197TIP3   OH2 9554   6.822   0.799   2.844 -0.4863 -0.0723 -0.1775
 3197TIP3    H1 9555   6.871   0.721   2.869  0.4437  0.6311  0.2933
 3197TIP3    H2 9556   6.890   0.861   2.815 -1.2221  0.4646 -0.8079
 3198TIP3   OH2 9557   0.140   0.435   3.991 -0.3586 -0.1593 -0.3333
 3198TIP3    H1 9558   0.223   0.437   3.944 -0.0425  2.0552  0.1829
 3198TIP3    H2 9559   0.120   0.527   4.008 -3.6198 -0.4795 -1.6102
 3199TIP3   OH2 9560   1.652   3.630   0.384 -0.1846 -0.1648 -0.1999
 3199TIP3    H1 9561   1.600   3.583   0.319  1.1750 -0.7088 -0.9460
 3199TIP3    H2 9562   1.613   3.606   0.468 -0.7692 -1.0058 -0.6933
 3200TIP3   OH2 9563   3.717   1.693   0.940 -0.5527 -0.0008  0.3912
 3200TIP3    H1 9564   3.642   1.733   0.895  0.7969  2.1190 -0.1049
 3200TIP3    H2 9565   3.708   1.722   1.030 -1.5662 -1.7143  0.8904
 3201TIP3   OH2 9566   5.907   4.496   1.340  0.3040  0.8356 -0.1027
 3201TIP3    H1 9567   5.935   4.445   1.265 -1.5115 -0.7979  0.2583
 3201TIP3    H2 9568   5.985   4.545   1.366  1.7903 -0.7958 -1.2446
 3202TIP3   OH2 9569   3.545   0.868   2.490 -0.7552  0.0380 -0.1408
 3202TIP3    H1 9570   3.532   0.927   2.415 -0.0910  0.7541  0.2833
 3202TIP3    H2 9571   3.569   0.784   2.450 -2.8153 -0.2918 -0.7912
 3203TIP3   OH2 9572   4.294   4.823   3.864 -0.0221 -0.1031 -0.4612
 3203TIP3    H1 9573   4.360   4.893   3.858 -0.2790  0.0569 -1.4856
 3203TIP3    H2 9574   4.323   4.757   3.801  0.0033 -0.7565  0.2228
 3204TIP3   OH2 9575   2.168   2.904   4.227  0.5230 -0.3052 -0.6521
 3204TIP3    H1 9576   2.256   2.902   4.191  0.6813 -1.7293 -0.2527
 3204TIP3    H2 9577   2.112   2.878   4.154  0.3696  0.9738 -1.0131
 3205TIP3   OH2 9578   6.657   6.236   5.924  0.2284  0.2174  0.4258
 3205TIP3    H1 9579   6.663   6.142   5.909  1.8416  0.2699  0.5244
 3205TIP3    H2 9580   6.662   6.274   5.836 -2.7403  0.2019  0.1471
 3206TIP3   OH2 9581   2.402   0.582   0.661  0.5588 -0.1564 -0.3883
 3206TIP3    H1 9582   2.450   0.569   0.742  1.5145 -1.5617 -1.1530
 3206TIP3    H2 9583   2.408   0.499   0.615  1.3583  1.0428 -2.6127
 3207TIP3   OH2 9584   6.279   3.036   1.783 -0.2400  0.2966 -0.2994
 3207TIP3    H1 9585   6.312   3.113   1.736 -0.6813  0.5669 -0.1728
 3207TIP3    H2 9586   6.324   2.962   1.742  0.1383  0.6152 -0.4683
 3208TIP3   OH2 9587   5.630   2.924   1.438 -0.4372 -0.0799  0.4537
 3208TIP3    H1 9588   5.668   2.841   1.408  0.1217  0.9754 -1.9266
 3208TIP3    H2 9589   5.667   2.936   1.526 -0.4723 -2.2839  0.8305
 3209TIP3   OH2 9590   4.612   5.735   2.310  0.2053  0.2499 -0.1532
 3209TIP3    H1 9591   4.640   5.697   2.226 -0.0291 -2.2019  0.8083
 3209TIP3    H2 9592   4.567   5.664   2.355 -2.6012  2.4218  0.7474
 3210TIP3   OH2 9593   6.465   1.022   0.362 -0.3730 -0.3517  0.4524
 3210TIP3    H1 9594   6.422   1.085   0.420  0.1005 -1.1183  1.6891
 3210TIP3    H2 9595   6.413   0.942   0.371 -0.5348 -0.3764 -0.5283
 3211TIP3   OH2 9596   7.059   3.346   3.739 -0.3670 -0.7697 -0.1078
 3211TIP3    H1 9597   7.092   3.436   3.734  0.0143 -0.7792  1.4734
 3211TIP3    H2 9598   7.047   3.319   3.648  2.0005 -0.0229 -0.7199
 3212TIP3   OH2 9599   4.829   3.133   1.019  0.4037 -0.3093  0.1225
 3212TIP3    H1 9600   4.918   3.168   1.012 -0.3352  1.7026  0.1755
 3212TIP3    H2 9601   4.789   3.152   0.934  0.4221 -2.5054 -0.4291
 3213TIP3   OH2 9602   6.314   1.709   3.422  0.4101  0.3380 -0.0045
 3213TIP3    H1 9603   6.322   1.770   3.349 -0.3960 -0.4471 -0.7702
 3213TIP3    H2 9604   6.255   1.641   3.390  1.6534 -1.1047  0.6356
 3214TIP3   OH2 9605   5.741   3.448   2.015 -0.4852  0.1119  0.6230
 3214TIP3    H1 9606   5.688   3.368   2.014 -2.4255  1.3208  0.4004
 3214TIP3    H2 9607   5.744   3.472   2.108  1.6281 -1.1102  0.9306
 3215TIP3   OH2 9608   3.964   2.299   1.111 -0.5424 -0.1706  0.1919
 3215TIP3    H1 9609   3.922   2.311   1.026  0.9396 -0.7165 -0.6583
 3215TIP3    H2 9610   3.953   2.383   1.156 -2.0286 -0.1317 -0.1983
 3216TIP3   OH2 9611   6.418   4.330   1.398  0.4373 -0.6187  0.5386
 3216TIP3    H1 9612   6.332   4.343   1.357  0.6532 -1.1867 -0.1112
 3216TIP3    H2 9613   6.480   4.339   1.326  0.8505 -1.2520  0.8110
 3217TIP3   OH2 9614   2.635   5.075   4.870  0.4900 -0.3798 -0.0182
 3217TIP3    H1 9615   2.654   5.029   4.789  0.3581  0.8358 -0.7709
 3217TIP3    H2 9616   2.541   5.093   4.866  0.6681  0.5984 -0.1049
 3218TIP3   OH2 9617   1.138   0.592   3.163  0.5654 -0.6723 -0.0732
 3218TIP3    H1 9618   1.162   0.654   3.094 -0.9010  1.5742  1.3298
 3218TIP3    H2 9619   1.203   0.606   3.232  0.2738 -0.7488  0.2194
 3219TIP3   OH2 9620   1.767   3.938   3.380 -0.1281 -0.1752 -0.1300
 3219TIP3    H1 9621   1.778   3.949   3.474 -1.0612 -0.9214  0.0897
 3219TIP3    H2 9622   1.765   3.843   3.367  1.1068 -0.0963 -1.0611
 3220TIP3   OH2 9623   4.372   5.505   1.175 -0.2692  0.0753 -0.2207
 3220TIP3    H1 9624   4.383   5.466   1.261  0.4425 -0.9880 -0.7683
 3220TIP3    H2 9625   4.278   5.498   1.157 -0.4645  0.5636  0.5672
 3221TIP3   OH2 9626   5.458   4.460   1.257 -0.1108  0.3551  0.1663
 3221TIP3    H1 9627   5.396   4.524   1.220 -0.8667 -0.4394  0.0214
 3221TIP3    H2 9628   5.513   4.511   1.316 -0.2410  1.2684 -0.4829
 3222TIP3   OH2 9629   1.167   6.434   5.491 -0.3810 -0.5243 -0.3329
 3222TIP3    H1 9630   1.096   6.435   5.427 -1.3370  0.7916  0.6816
 3222TIP3    H2 9631   1.126   6.405   5.573  0.1316  0.5528  0.3471
 3223TIP3   OH2 9632   5.157   2.465   1.693 -0.6785 -0.4531 -0.5657
 3223TIP3    H1 9633   5.171   2.400   1.624 -0.1070 -0.7128 -0.2075
 3223TIP3    H2 9634   5.176   2.549   1.650  0.4709 -0.6730 -0.5220
 3224TIP3   OH2 9635   2.300   3.872   1.210 -0.0574 -0.1813 -0.0441
 3224TIP3    H1 9636   2.235   3.875   1.140  0.0041 -0.5082 -0.1167
 3224TIP3    H2 9637   2.275   3.796   1.263 -0.5873  0.5362  0.7643
 3225TIP3   OH2 9638   4.183   4.247   2.327  0.2650  0.4277  0.4945
 3225TIP3    H1 9639   4.278   4.254   2.319  0.3225 -0.7625 -0.1571
 3225TIP3    H2 9640   4.148   4.324   2.282  0.9173  0.9327  0.8453
 3226TIP3   OH2 9641   1.399   1.884   3.096  0.5657  0.0358 -0.3877
 3226TIP3    H1 9642   1.460   1.827   3.143 -0.0998 -3.7068 -3.5235
 3226TIP3    H2 9643   1.447   1.965   3.080  2.3381 -0.3003  2.5933
 3227TIP3   OH2 9644   6.983   4.682   5.640 -0.6244  0.2879  0.3298
 3227TIP3    H1 9645   6.958   4.595   5.671  3.4845 -1.2394  0.0021
 3227TIP3    H2 9646   7.035   4.720   5.712  0.3174  1.0685 -0.7095
 3228TIP3   OH2 9647   4.048   3.327   1.108  0.0339  0.4653 -0.3249
 3228TIP3    H1 9648   4.084   3.385   1.040 -0.6765  0.6595 -0.5370
 3228TIP3    H2 9649   4.118   3.322   1.173  1.5049 -1.1844 -1.8853
 3229TIP3   OH2 9650   0.220   5.026   0.207  0.6021 -0.1470  0.4062
 3229TIP3    H1 9651   0.145   4.971   0.185 -0.0347  1.1630 -0.8738
 3229TIP3    H2 9652   0.284   5.009   0.138  0.2921  0.8751 -0.1532
 3230TIP3   OH2 9653   3.210   4.119   1.233  0.6401  0.0388 -0.2477
 3230TIP3    H1 9654   3.244   4.197   1.276  2.3163 -1.5322  1.4726
 3230TIP3    H2 9655   3.284   4.084   1.184  0.9620 -2.1615  1.6259
 3231TIP3   OH2 9656   2.752   0.598   0.558 -0.2856  0.0296 -0.4201
 3231TIP3    H1 9657   2.667   0.560   0.581 -0.0221  1.1466  3.1328
 3231TIP3    H2 9658   2.816   0.544   0.607  0.8308  0.5091 -1.3086
 3232TIP3   OH2 9659   3.686   3.379   5.621 -0.1393  0.2043  0.5376
 3232TIP3    H1 9660   3.705   3.472   5.637 -0.7079  0.7715 -1.8058
 3232TIP3    H2 9661   3.622   3.379   5.550 -0.6701 -1.9894  0.9402
 3233TIP3   OH2 9662   0.290   2.826   1.651  0.2782 -0.7410 -0.0304
 3233TIP3    H1 9663   0.324   2.748   1.607  2.4865 -0.7162  1.4576
 3233TIP3    H2 9664   0.341   2.898   1.614 -0.9486 -0.1270 -0.5668
 3234TIP3   OH2 9665   6.846   4.650   3.998  0.6167 -0.4862 -0.2575
 3234TIP3    H1 9666   6.878   4.574   4.047 -0.0171 -0.7900 -0.3037
 3234TIP3    H2 9667   6.842   4.620   3.907  1.2652 -0.0951 -0.4253
 3235TIP3   OH2 9668   4.839   6.157   2.758 -0.3295  0.4636 -0.2858
 3235TIP3    H1 9669   4.930   6.176   2.737 -0.5199  0.4975 -1.1189
 3235TIP3    H2 9670   4.842   6.121   2.847  0.4473  0.8205 -0.1617
 3236TIP3   OH2 9671   6.120   3.890   2.291 -0.5966  0.0113 -0.1567
 3236TIP3    H1 9672   6.055   3.823   2.274  0.0173 -0.9913  1.2262
 3236TIP3    H2 9673   6.097   3.925   2.377  0.8748 -0.6390  0.5432
 3237TIP3   OH2 9674   1.417   2.396   4.196 -0.1514 -0.0672 -0.3303
 3237TIP3    H1 9675   1.373   2.465   4.148  0.2143  0.7140  0.4362
 3237TIP3    H2 9676   1.480   2.441   4.253  0.1193 -1.0212  0.1637
 3238TIP3   OH2 9677   3.491   1.440   5.449 -0.5025 -0.1907  0.1088
 3238TIP3    H1 9678   3.543   1.380   5.396  1.3019  1.2911  0.1059
 3238TIP3    H2 9679   3.525   1.430   5.537 -1.8768 -0.9119  0.5852
 3239TIP3   OH2 9680   0.605   2.030   1.442 -0.0227 -0.6963 -0.4449
 3239TIP3    H1 9681   0.583   1.971   1.514 -2.4645 -0.3466 -0.8017
 3239TIP3    H2 9682   0.521   2.049   1.400  0.6611  2.7404 -0.5559
 3240TIP3   OH2 9683   3.237   3.839   3.208  0.3663 -0.0903 -0.2352
 3240TIP3    H1 9684   3.168   3.900   3.181  1.2116  0.5935 -0.8848
 3240TIP3    H2 9685   3.251   3.783   3.132  1.7307  0.9046 -0.7680
 3241TIP3   OH2 9686   1.980   2.181   1.915 -0.6983  0.1112 -0.4312
 3241TIP3    H1 9687   1.998   2.275   1.910  0.8138 -0.1688 -0.9062
 3241TIP3    H2 9688   1.988   2.160   2.008  0.4264  0.2214 -0.4814
 3242TIP3   OH2 9689   3.925   3.968   4.700 -0.1325  0.1867 -0.2439
 3242TIP3    H1 9690   3.878   4.046   4.726 -1.0348 -0.8567  1.3886
 3242TIP3    H2 9691   4.006   4.001   4.661  0.0688  1.9141  1.5043
 3243TIP3   OH2 9692   5.956   6.404   2.479  0.0742 -1.1976 -0.6536
 3243TIP3    H1 9693   6.023   6.374   2.540 -1.2962  0.0482  1.6261
 3243TIP3    H2 9694   5.943   6.496   2.502  0.3587 -0.2776 -3.7484
 3244TIP3   OH2 9695   5.162   3.734   5.844 -0.5207 -0.6832 -0.0171
 3244TIP3    H1 9696   5.211   3.683   5.780  0.6211  0.9433 -0.4960
 3244TIP3    H2 9697   5.229   3.769   5.903 -1.0083  1.7518 -0.7926
 3245TIP3   OH2 9698   6.775   0.065   0.304 -0.2509  0.2182  0.6447
 3245TIP3    H1 9699   6.753  -0.026   0.281 -2.4941  1.0034 -0.6022
 3245TIP3    H2 9700   6.830   0.094   0.231  0.4361 -0.1121  1.0244
 3246TIP3   OH2 9701   3.313   1.702   1.632 -0.1661  0.0307 -0.2387
 3246TIP3    H1 9702   3.325   1.721   1.539  1.2810  2.3629  0.3363
 3246TIP3    H2 9703   3.299   1.787   1.672  1.6079 -0.6246  1.9715
 3247TIP3   OH2 9704   0.842   1.967   0.075 -0.4343 -0.1540  0.2751
 3247TIP3    H1 9705   0.785   1.890   0.071  0.2858 -0.6694 -0.3803
 3247TIP3    H2 9706   0.931   1.932   0.077 -0.1106  0.6513  0.6047
 3248TIP3   OH2 9707   0.367   0.052   1.477  0.4833  0.8132  0.7800
 3248TIP3    H1 9708   0.396   0.009   1.396 -0.0583 -0.3604  1.1796
 3248TIP3    H2 9709   0.351   0.143   1.451 -0.4630  0.2837 -0.6257
 3249TIP3   OH2 9710   3.016   1.904   5.399  0.3964  0.1374  0.1574
 3249TIP3    H1 9711   3.056   1.818   5.409  0.0858  0.1829  2.1793
 3249TIP3    H2 9712   3.066   1.945   5.328  0.3764 -1.7647 -1.0430
 3250TIP3   OH2 9713   3.736   0.879   4.763  0.1724 -0.1994  0.0138
 3250TIP3    H1 9714   3.795   0.875   4.838  1.0014 -3.1739 -0.6760
 3250TIP3    H2 9715   3.794   0.899   4.689 -0.0280 -0.8255 -0.3218
 3251TIP3   OH2 9716   1.741   0.146   4.045 -0.0818 -0.1329  0.2862
 3251TIP3    H1 9717   1.762   0.231   4.004 -1.5609 -0.2661 -0.8313
 3251TIP3    H2 9718   1.820   0.094   4.033  0.0750  0.3657 -1.0333
 3252TIP3   OH2 9719   5.623   1.183   1.884  0.2063 -0.5525 -0.4799
 3252TIP3    H1 9720   5.693   1.159   1.946  0.4098 -0.6740 -0.7537
 3252TIP3    H2 9721   5.669   1.220   1.809 -0.1212  1.0891  0.0869
 3253TIP3   OH2 9722   5.284   1.635   3.374  0.2959 -0.2142 -0.2838
 3253TIP3    H1 9723   5.336   1.622   3.295  0.1825  1.1414 -0.6002
 3253TIP3    H2 9724   5.195   1.612   3.348  0.0350  1.3904 -0.9396
 3254TIP3   OH2 9725   5.279   5.061   2.849 -0.1846 -0.2135 -0.4563
 3254TIP3    H1 9726   5.224   5.105   2.913 -1.2253 -0.4292 -1.1697
 3254TIP3    H2 9727   5.245   5.090   2.764  1.5266  0.5064 -0.9266
 3255TIP3   OH2 9728   7.198   6.673   1.923  0.0689 -0.2213  0.0966
 3255TIP3    H1 9729   7.169   6.687   2.012  0.3895  1.6095 -0.0567
 3255TIP3    H2 9730   7.125   6.701   1.868  0.3975  0.0046 -0.2349
 3256TIP3   OH2 9731   1.233   0.689   3.794  0.2459  0.2321  0.8015
 3256TIP3    H1 9732   1.260   0.598   3.801 -0.7628 -0.1444  0.0655
 3256TIP3    H2 9733   1.144   0.685   3.760  0.3226  1.5023  0.3940
 3257TIP3   OH2 9734  -0.007   2.644   4.504 -0.2781 -0.2802  0.3612
 3257TIP3    H1 9735   0.065   2.649   4.441 -2.0555  2.1942 -1.6905
 3257TIP3    H2 9736   0.024   2.696   4.579  0.9203 -1.2040  0.5452
 3258TIP3   OH2 9737   1.340   2.628   1.222  0.2599 -0.2781  0.3153
 3258TIP3    H1 9738   1.304   2.577   1.294  0.4267 -2.1900 -0.8717
 3258TIP3    H2 9739   1.411   2.574   1.186  1.2546  1.3278 -0.2987
 3259TIP3   OH2 9740   5.700   1.677   4.448 -0.0978 -0.6581  0.1543
 3259TIP3    H1 9741   5.646   1.752   4.423  1.4756  1.0979  1.6814
 3259TIP3    H2 9742   5.655   1.640   4.524 -0.3502 -0.6344  0.0179
 3260TIP3   OH2 9743   4.445   4.074   2.709  0.0196 -0.0568 -0.3204
 3260TIP3    H1 9744   4.397   4.133   2.651  0.1593  0.0549 -0.3254
 3260TIP3    H2 9745   4.400   3.990   2.702 -1.2081  0.4656  0.9723
 3261TIP3   OH2 9746   3.427   3.332   3.554 -0.2053  0.3777 -0.4013
 3261TIP3    H1 9747   3.466   3.324   3.642 -2.3610 -2.1700  0.4727
 3261TIP3    H2 9748   3.363   3.402   3.562 -0.2723  0.2695  0.0363
 3262TIP3   OH2 9749   5.438   3.060   1.726 -0.4245  0.5622 -0.4465
 3262TIP3    H1 9750   5.375   3.104   1.669  0.7288  1.8094 -0.8182
 3262TIP3    H2 9751   5.521   3.064   1.678  0.5159  1.3557  1.1597
 3263TIP3   OH2 9752   4.769   1.085   3.168 -0.6183 -0.4923  0.2496
 3263TIP3    H1 9753   4.681   1.111   3.194 -0.8010 -1.1863  0.3372
 3263TIP3    H2 9754   4.807   1.046   3.247  0.0986  0.6045  0.4814
 3264TIP3   OH2 9755   5.869   1.861   4.836  0.1128  0.0428 -0.0412
 3264TIP3    H1 9756   5.907   1.948   4.851  1.8853 -0.6718 -0.1832
 3264TIP3    H2 9757   5.944   1.807   4.811 -0.6902 -1.9225  1.6157
 3265TIP3   OH2 9758   7.099   0.829   2.288  0.6752  0.4603 -0.7609
 3265TIP3    H1 9759   7.193   0.815   2.272  0.2870  0.5078 -3.7490
 3265TIP3    H2 9760   7.057   0.754   2.244 -0.6923  0.0234  1.1971
 3266TIP3   OH2 9761   5.556   3.133   4.652 -0.2553 -0.1029 -0.0472
 3266TIP3    H1 9762   5.581   3.186   4.576  0.8991  0.0157  0.3989
 3266TIP3    H2 9763   5.466   3.159   4.671  0.0947  1.2730 -0.2003
 3267TIP3   OH2 9764   3.137   2.174   3.148 -0.5779  0.1902 -0.0348
 3267TIP3    H1 9765   3.130   2.249   3.089 -2.0138 -0.1916 -0.3958
 3267TIP3    H2 9766   3.230   2.170   3.171  0.1915 -0.0524 -2.8041
 3268TIP3   OH2 9767   6.543   4.108   4.304 -0.1211  0.2307 -0.2127
 3268TIP3    H1 9768   6.525   4.035   4.246  0.3593 -0.5178  0.5678
 3268TIP3    H2 9769   6.482   4.098   4.376 -0.0877  0.6340 -0.1221
 3269TIP3   OH2 9770   3.044   0.950   4.376  0.2516 -0.6351 -0.5925
 3269TIP3    H1 9771   3.068   0.985   4.462 -0.3984  3.3226 -1.7985
 3269TIP3    H2 9772   2.979   0.882   4.394 -1.1001  1.1927  2.0689
 3270TIP3   OH2 9773   2.530   1.447   1.132  0.0236  0.2683 -0.1836
 3270TIP3    H1 9774   2.557   1.511   1.066  1.0622 -0.5621 -0.5858
 3270TIP3    H2 9775   2.522   1.365   1.084  1.0477 -0.4107  0.7478
 3271TIP3   OH2 9776   3.037   2.740   5.704  0.1117  0.2705  0.0059
 3271TIP3    H1 9777   3.017   2.704   5.618 -1.6575  1.3583 -0.0894
 3271TIP3    H2 9778   2.964   2.712   5.760  0.0310  1.4727  0.5546
 3272TIP3   OH2 9779   5.104   1.326   1.276  0.1839 -0.3892 -0.7367
 3272TIP3    H1 9780   5.189   1.314   1.234  0.0464  0.8491 -1.4044
 3272TIP3    H2 9781   5.058   1.389   1.221 -0.1597  0.9950  1.0290
 3273TIP3   OH2 9782   5.602   1.348   2.705 -0.0829  0.3359  0.3243
 3273TIP3    H1 9783   5.525   1.304   2.669  0.8546 -1.3197  0.2513
 3273TIP3    H2 9784   5.600   1.328   2.798  0.9763 -0.8708  0.1012
 3274TIP3   OH2 9785   1.930   0.961   3.601 -0.1178 -0.1889 -0.4251
 3274TIP3    H1 9786   2.001   1.024   3.613  0.3308 -1.0628  2.1431
 3274TIP3    H2 9787   1.852   1.005   3.633 -0.1603 -0.2439 -0.4525
 3275TIP3   OH2 9788   1.949   1.176   5.821  0.7351 -0.7969  0.1489
 3275TIP3    H1 9789   1.987   1.215   5.742  1.4014  0.7379  1.1685
 3275TIP3    H2 9790   1.859   1.154   5.796  0.6962  0.3652 -0.8255
 3276TIP3   OH2 9791   0.907   2.216   0.931 -0.5259 -0.4083  0.0811
 3276TIP3    H1 9792   0.902   2.183   0.841  0.0601  2.2602 -1.0099
 3276TIP3    H2 9793   0.818   2.208   0.964 -1.1213  0.0702 -1.3346
 3277TIP3   OH2 9794   0.142   6.238   1.068  0.0848  0.2131  0.1388
 3277TIP3    H1 9795   0.082   6.283   1.009 -0.2343 -0.6514 -0.2001
 3277TIP3    H2 9796   0.124   6.276   1.154 -0.7941  0.1102  0.0012
 3278TIP3   OH2 9797   5.438   4.537   0.759 -0.5385 -0.8636  0.3374
 3278TIP3    H1 9798   5.466   4.587   0.835 -2.0310 -0.4053  0.6205
 3278TIP3    H2 9799   5.483   4.453   0.768  0.9794 -0.0736  0.5503
 3279TIP3   OH2 9800   5.732   3.151   5.519 -0.5894 -0.5154 -0.2583
 3279TIP3    H1 9801   5.666   3.211   5.484  0.2668  0.5447 -0.0896
 3279TIP3    H2 9802   5.714   3.149   5.613  0.7620  1.2862  0.0915
 3280TIP3   OH2 9803   6.199   6.777   3.001  0.5631  0.4136 -0.1695
 3280TIP3    H1 9804   6.258   6.779   2.926  1.8352  0.1738  0.7900
 3280TIP3    H2 9805   6.248   6.731   3.069 -1.0626 -0.5817  0.4016
 3281TIP3   OH2 9806   6.928   1.386   4.596 -0.0818 -0.0202  0.2693
 3281TIP3    H1 9807   6.973   1.316   4.549  0.2363 -0.0893  0.6664
 3281TIP3    H2 9808   6.986   1.406   4.669 -0.7019 -0.1209  0.8015
 3282TIP3   OH2 9809   4.049   3.571   1.585  0.1678 -0.0271  0.1799
 3282TIP3    H1 9810   4.125   3.600   1.636  0.6548  1.5152 -1.3311
 3282TIP3    H2 9811   4.018   3.494   1.632  3.0113 -1.1019  0.5273
 3283TIP3   OH2 9812   4.120   0.950   5.640  0.3440 -0.2701  0.3818
 3283TIP3    H1 9813   4.173   0.890   5.588  0.3483  0.8597 -0.9823
 3283TIP3    H2 9814   4.175   1.029   5.647 -0.6273  0.4491  0.0450
 3284TIP3   OH2 9815   4.194   3.605   1.029  0.2505 -0.6700  0.0434
 3284TIP3    H1 9816   4.196   3.584   0.935 -0.4059 -0.2563 -0.0674
 3284TIP3    H2 9817   4.263   3.551   1.066 -0.2014 -1.6829 -0.5163
 3285TIP3   OH2 9818   4.815   2.475   4.962 -0.2986  0.1154 -0.1108
 3285TIP3    H1 9819   4.891   2.491   5.017 -0.3161 -0.5890  0.1303
 3285TIP3    H2 9820   4.751   2.541   4.988 -0.2045 -0.0410  0.5233
 3286TIP3   OH2 9821   6.290   4.768   5.535 -0.0858 -0.5263  0.1626
 3286TIP3    H1 9822   6.350   4.694   5.528  0.9080  0.4376 -2.9010
 3286TIP3    H2 9823   6.203   4.729   5.523  0.3289 -1.3353 -0.3150
 3287TIP3   OH2 9824   5.937   2.567   3.279  0.3218  0.5867 -0.3638
 3287TIP3    H1 9825   5.858   2.590   3.231 -0.4418 -0.8563  0.1258
 3287TIP3    H2 9826   5.907   2.551   3.368  1.0367 -0.6475 -0.3229
 3288TIP3   OH2 9827   3.508   6.602   1.383 -0.0973 -0.0448 -0.1528
 3288TIP3    H1 9828   3.595   6.564   1.390  0.0116  0.4479  1.7825
 3288TIP3    H2 9829   3.491   6.607   1.289  1.7230 -0.6589 -0.5523
 3289TIP3   OH2 9830   0.376   6.557   3.561 -0.4556  0.1846 -0.1041
 3289TIP3    H1 9831   0.446   6.615   3.592  0.1034 -1.1474  1.2438
 3289TIP3    H2 9832   0.306   6.570   3.625  0.0058 -1.2211  0.7359
 3290TIP3   OH2 9833   5.385   5.786   0.799 -0.1993  0.3627 -0.4445
 3290TIP3    H1 9834   5.480   5.792   0.807  0.1491 -2.0382 -1.7164
 3290TIP3    H2 9835   5.364   5.838   0.721  0.0613  0.9160 -0.1471
 3291TIP3   OH2 9836   1.103   6.031   4.163 -0.2787  0.2342 -0.0796
 3291TIP3    H1 9837   1.042   5.990   4.102 -1.8785  1.0065  0.9542
 3291TIP3    H2 9838   1.172   6.067   4.106 -0.4894 -1.0695 -1.2263
 3292TIP3   OH2 9839   3.252   6.313   3.131 -0.2338 -0.2797 -0.3619
 3292TIP3    H1 9840   3.246   6.306   3.226 -0.2039  1.2327 -0.2210
 3292TIP3    H2 9841   3.184   6.377   3.108  0.3065 -0.0153 -1.2545
 3293TIP3   OH2 9842   1.851   2.499   2.396  0.2231 -0.3773 -0.4182
 3293TIP3    H1 9843   1.900   2.555   2.457 -0.0789 -1.2885  0.6884
 3293TIP3    H2 9844   1.878   2.530   2.309  1.4317  0.2844  0.1611
 3294TIP3   OH2 9845   4.521   0.259   0.971 -0.0159 -0.2044  0.1045
 3294TIP3    H1 9846   4.471   0.243   0.890  2.2045 -0.4778 -1.3062
 3294TIP3    H2 9847   4.563   0.344   0.955  4.1094 -2.2281 -1.1793
 3295TIP3   OH2 9848   6.165   3.163   3.312 -0.3042  0.0441 -0.0965
 3295TIP3    H1 9849   6.220   3.215   3.253 -0.7234  0.5452 -0.0437
 3295TIP3    H2 9850   6.076   3.192   3.294 -0.5591 -0.7801 -0.1921
 3296TIP3   OH2 9851   4.003   3.792   3.232 -0.1829  0.1923  0.1705
 3296TIP3    H1 9852   3.965   3.738   3.162  1.9209 -0.8360 -0.2758
 3296TIP3    H2 9853   3.990   3.741   3.311  0.8174 -0.4938 -0.0859
 3297TIP3   OH2 9854   3.852   6.420   0.502 -0.5546  0.5609  0.3230
 3297TIP3    H1 9855   3.940   6.384   0.518 -0.0245  0.7572 -1.8169
 3297TIP3    H2 9856   3.798   6.381   0.570  0.7055 -1.5645  0.2169
 3298TIP3   OH2 9857   6.741   1.071   5.320 -0.0263 -0.4868  0.0945
 3298TIP3    H1 9858   6.649   1.095   5.306 -0.2418 -0.4745  1.3801
 3298TIP3    H2 9859   6.783   1.087   5.236 -0.6746  2.0139  0.1705
 3299TIP3   OH2 9860   7.118   2.181   5.543  0.0091 -0.1599  0.1914
 3299TIP3    H1 9861   7.185   2.205   5.607  2.7943 -2.6490 -1.4968
 3299TIP3    H2 9862   7.076   2.103   5.581  1.0313 -1.0857 -0.5004
 3300TIP3   OH2 9863   2.263   3.645   4.622 -0.1000  0.1483  0.1814
 3300TIP3    H1 9864   2.293   3.578   4.562  0.2440 -0.9626  1.5353
 3300TIP3    H2 9865   2.295   3.727   4.586  1.6197 -0.6674 -0.2076
 3301TIP3   OH2 9866   4.932   2.105   1.069  0.7529 -0.3737  0.3423
 3301TIP3    H1 9867   4.877   2.150   1.005  0.2734 -0.3094  0.7938
 3301TIP3    H2 9868   4.922   2.157   1.149  0.4237 -1.1129  0.7860
 3302TIP3   OH2 9869   6.997   1.175   0.846 -0.3485 -0.1741 -0.5067
 3302TIP3    H1 9870   6.997   1.092   0.798  0.4879  0.4057 -1.5500
 3302TIP3    H2 9871   7.036   1.238   0.786 -1.1410  1.0343  0.2032
 3303TIP3   OH2 9872   0.883   1.354   3.352 -0.6716  0.3387  0.0359
 3303TIP3    H1 9873   0.847   1.319   3.270 -1.2343 -1.6800  1.0911
 3303TIP3    H2 9874   0.814   1.411   3.386 -0.9478  0.1929 -0.2691
 3304TIP3   OH2 9875   4.982   0.830   1.958  0.6169  0.0403 -0.2445
 3304TIP3    H1 9876   4.993   0.807   2.051 -3.4373  2.2734  1.0503
 3304TIP3    H2 9877   4.963   0.747   1.915  0.5186 -0.8168  1.3686
 3305TIP3   OH2 9878   5.826   2.072   1.905 -0.6949 -0.7802  0.0730
 3305TIP3    H1 9879   5.756   2.098   1.846 -0.9339 -2.1962 -0.3163
 3305TIP3    H2 9880   5.819   1.976   1.910 -0.2341 -0.7647  1.8401
 3306TIP3   OH2 9881   1.359   6.230   5.813  0.6371  0.2889  0.3243
 3306TIP3    H1 9882   1.312   6.281   5.747  0.1091  0.2449  0.6633
 3306TIP3    H2 9883   1.445   6.213   5.773 -0.6132 -2.2107 -1.5838
 3307TIP3   OH2 9884   2.988   2.423   2.634  0.4543  0.4910 -0.3164
 3307TIP3    H1 9885   2.981   2.415   2.729  2.2464  0.4480 -0.1568
 3307TIP3    H2 9886   3.074   2.464   2.620 -0.8088  2.8564 -1.8118
 3308TIP3   OH2 9887   2.619   3.033   1.788 -0.2256 -0.4161  0.2080
 3308TIP3    H1 9888   2.628   2.996   1.876 -1.5097 -0.4856  0.3324
 3308TIP3    H2 9889   2.525   3.033   1.772 -0.0830  0.6896 -0.7134
 3309TIP3   OH2 9890   1.591   5.970   0.852  0.4474  0.3774  0.7819
 3309TIP3    H1 9891   1.602   5.876   0.869 -1.5312 -0.1820 -0.6033
 3309TIP3    H2 9892   1.674   5.997   0.812  0.7510 -0.9983  0.4301
 3310TIP3   OH2 9893   5.750   6.003   1.323 -0.1180 -0.3271  0.1283
 3310TIP3    H1 9894   5.657   5.985   1.338  0.1305 -0.0592  2.2843
 3310TIP3    H2 9895   5.754   6.099   1.314  0.0421 -0.2341  1.0583
 3311TIP3   OH2 9896   1.678   1.560   0.122 -0.4549  0.0956  0.4738
 3311TIP3    H1 9897   1.743   1.504   0.164  0.7719  0.1274 -1.2478
 3311TIP3    H2 9898   1.696   1.648   0.156 -0.2728 -0.0646  0.7890
 3312TIP3   OH2 9899   4.068   5.373   0.165 -0.0829 -0.5182  0.2172
 3312TIP3    H1 9900   4.038   5.453   0.208 -0.9580 -1.0727  0.6807
 3312TIP3    H2 9901   4.117   5.327   0.233 -0.5251 -0.8829  0.2943
 3313TIP3   OH2 9902   5.045   0.616   3.752  0.2184  0.4552  0.1036
 3313TIP3    H1 9903   5.031   0.586   3.842 -2.5437  1.6812  0.1742
 3313TIP3    H2 9904   5.139   0.633   3.747  0.9668 -2.4284  1.8125
 3314TIP3   OH2 9905   3.999   2.753   1.958  0.1468  0.6370 -0.2499
 3314TIP3    H1 9906   4.013   2.835   1.910  0.1588 -0.0979 -1.5371
 3314TIP3    H2 9907   3.947   2.699   1.898 -0.6746  0.0499  0.9639
 3315TIP3   OH2 9908   5.615   6.502   5.638  0.1881  0.2440  0.4558
 3315TIP3    H1 9909   5.608   6.597   5.645 -0.4575  0.2448 -0.0877
 3315TIP3    H2 9910   5.629   6.485   5.545  0.0094 -0.2027  0.5026
 3316TIP3   OH2 9911   6.550   5.770   0.695  0.2646 -0.7176 -0.3758
 3316TIP3    H1 9912   6.600   5.844   0.661 -1.0294 -0.0678 -0.9378
 3316TIP3    H2 9913   6.538   5.790   0.788  0.1318 -0.3384 -0.4714
 3317TIP3   OH2 9914   6.392   3.240   1.641  0.3906 -0.1320  0.1154
 3317TIP3    H1 9915   6.327   3.290   1.591 -0.6385 -0.0952  1.4395
 3317TIP3    H2 9916   6.469   3.238   1.584 -0.8420 -0.4159 -1.6160
 3318TIP3   OH2 9917   0.182   4.199   4.794 -0.1563  0.0875  0.0472
 3318TIP3    H1 9918   0.210   4.122   4.744  0.2083  0.3954 -0.2261
 3318TIP3    H2 9919   0.094   4.177   4.824 -0.2343 -0.2513 -0.4221
 3319TIP3   OH2 9920   7.165   6.348   5.094 -0.4522  0.4510  0.5574
 3319TIP3    H1 9921   7.245   6.373   5.047  1.5633 -1.5538  2.6523
 3319TIP3    H2 9922   7.129   6.430   5.128  0.3817  1.4476 -0.8704
 3320TIP3   OH2 9923   5.519   6.588   0.296  0.5046 -0.1776  0.3582
 3320TIP3    H1 9924   5.476   6.551   0.373 -1.4002  0.2197 -0.4669
 3320TIP3    H2 9925   5.521   6.517   0.233  1.4201 -0.2938  0.5031
 3321TIP3   OH2 9926   1.206   5.023   1.078 -0.0614 -0.4086  0.3802
 3321TIP3    H1 9927   1.126   5.047   1.032 -0.6599 -1.3351  0.9035
 3321TIP3    H2 9928   1.247   4.957   1.024 -0.1578 -0.6427  0.5901
 3322TIP3   OH2 9929   1.100   5.249   1.257 -0.1038 -0.2532 -0.1103
 3322TIP3    H1 9930   1.048   5.210   1.187  1.8616 -2.6694 -0.3616
 3322TIP3    H2 9931   1.187   5.261   1.219  0.5521  0.0485  1.4005
 3323TIP3   OH2 9932   1.335   3.322   4.811 -0.5516  0.5322  0.3297
 3323TIP3    H1 9933   1.371   3.374   4.882  0.2437  2.1509 -1.1849
 3323TIP3    H2 9934   1.246   3.354   4.799 -0.3454  0.9759 -0.0477
 3324TIP3   OH2 9935   6.048   3.659   1.997  0.1170  0.1021  0.1347
 3324TIP3    H1 9936   6.104   3.736   2.001  0.6818 -0.3347  1.2680
 3324TIP3    H2 9937   6.093   3.594   2.052 -1.2897 -0.3880  0.7544
 3325TIP3   OH2 9938   0.993   5.968   0.077  0.0895  0.2627  0.3055
 3325TIP3    H1 9939   0.936   5.954   0.153  1.3082 -0.0243  1.1965
 3325TIP3    H2 9940   1.080   5.942   0.107  0.7497  0.9387 -0.9442
 3326TIP3   OH2 9941   3.928   6.135   5.770  0.1540  0.0366 -0.3362
 3326TIP3    H1 9942   3.909   6.170   5.684 -0.7238  0.5246  0.0400
 3326TIP3    H2 9943   4.014   6.169   5.792  0.3869 -0.1050 -1.0228
 3327TIP3   OH2 9944   3.840   2.967   0.205  0.1263 -0.8258  0.3851
 3327TIP3    H1 9945   3.857   2.949   0.297 -0.5754 -0.1565  0.6555
 3327TIP3    H2 9946   3.745   2.957   0.196  0.0973 -0.1597 -0.0978
 3328TIP3   OH2 9947   1.309   6.043   1.154 -0.3720 -0.0950 -0.0836
 3328TIP3    H1 9948   1.236   5.986   1.181 -1.0515  2.1009  3.2877
 3328TIP3    H2 9949   1.372   6.037   1.226 -0.1990  2.8232  0.1124
 3329TIP3   OH2 9950   0.904   5.821   0.615 -0.0733 -0.1221  0.3654
 3329TIP3    H1 9951   0.982   5.876   0.617  0.2480 -0.5545  0.0629
 3329TIP3    H2 9952   0.830   5.882   0.616  0.2832  0.3322 -0.6789
 3330TIP3   OH2 9953   0.492   5.499   1.864  0.1935  0.6730  0.0011
 3330TIP3    H1 9954   0.511   5.478   1.955  3.3782  1.5748 -0.3455
 3330TIP3    H2 9955   0.503   5.594   1.858  0.1058  0.6290 -1.3236
 3331TIP3   OH2 9956   2.466   0.965   2.219  0.6273  0.2120  0.1682
 3331TIP3    H1 9957   2.494   1.004   2.137  1.3689 -0.0756  0.2788
 3331TIP3    H2 9958   2.481   0.872   2.209  0.5777  0.1544  0.5756
 3332TIP3   OH2 9959   0.840   1.022   4.102  0.0499  0.0345 -0.1348
 3332TIP3    H1 9960   0.866   0.938   4.062 -0.4640 -0.6409  0.9004
 3332TIP3    H2 9961   0.893   1.027   4.182  0.8109  1.2011 -0.6891
 3333TIP3   OH2 9962   4.611   5.412   4.909  0.6045 -0.0149 -0.2618
 3333TIP3    H1 9963   4.645   5.483   4.855  1.1409  1.3307  1.7053
 3333TIP3    H2 9964   4.521   5.438   4.929  0.0277 -1.0721 -1.3883
 3334TIP3   OH2 9965   5.895   3.167   4.820 -0.6917  0.0006  0.3337
 3334TIP3    H1 9966   5.969   3.213   4.781 -1.9599  0.5528 -1.5973
 3334TIP3    H2 9967   5.918   3.157   4.912  2.6673 -1.7526 -0.5501
 3335TIP3   OH2 9968   5.438   1.725   1.457 -0.2086 -0.3237 -0.1626
 3335TIP3    H1 9969   5.462   1.812   1.426  1.4372 -1.2642 -1.6785
 3335TIP3    H2 9970   5.444   1.669   1.380  0.8270 -2.1647  1.1690
 3336TIP3   OH2 9971   3.432   4.480   0.897  0.2781  0.4585  0.1884
 3336TIP3    H1 9972   3.435   4.389   0.867 -0.5863  0.3353  0.4610
 3336TIP3    H2 9973   3.348   4.513   0.866  0.7892  1.3287 -0.3326
 3337TIP3   OH2 9974   5.496   1.896   0.065 -0.0571 -0.1787  0.0441
 3337TIP3    H1 9975   5.504   1.983   0.106 -0.3950  1.0199 -2.2811
 3337TIP3    H2 9976   5.454   1.842   0.132 -2.2360  2.1216  0.6780
 3338TIP3   OH2 9977   2.790   1.931   0.334  0.3389  0.2670 -0.4002
 3338TIP3    H1 9978   2.782   1.880   0.254  1.4963  0.6424 -0.7791
 3338TIP3    H2 9979   2.855   1.883   0.386  0.7521  0.8450 -0.3702
 3339TIP3   OH2 9980   3.452   0.463   4.452  0.2692 -0.2903 -0.2233
 3339TIP3    H1 9981   3.429   0.554   4.473  1.7470 -0.0076  0.2888
 3339TIP3    H2 9982   3.423   0.413   4.529  2.6837  0.2917  1.1817
 3340TIP3   OH2 9983   5.432   6.313   5.384 -0.3020  0.1145  0.1733
 3340TIP3    H1 9984   5.421   6.396   5.338 -1.8296 -1.4503 -2.5391
 3340TIP3    H2 9985   5.512   6.276   5.348 -0.2663 -0.1153  0.4898
 3341TIP3   OH2 9986   0.176   5.973   1.124  0.7581 -0.5649  0.4990
 3341TIP3    H1 9987   0.163   6.061   1.089  0.2281 -0.4531  0.9551
 3341TIP3    H2 9988   0.230   5.986   1.202  0.1970 -0.5743  0.8936
 3342TIP3   OH2 9989   2.139   6.301   4.312 -0.3198 -0.0583 -0.4540
 3342TIP3    H1 9990   2.167   6.392   4.311 -2.7364  0.7715 -2.3440
 3342TIP3    H2 9991   2.215   6.252   4.279  1.0237  1.2190  0.6531
 3343TIP3   OH2 9992   2.480   2.066   1.249 -0.1280 -0.2176 -0.0969
 3343TIP3    H1 9993   2.547   2.090   1.312 -0.3402 -0.0684  0.0735
 3343TIP3    H2 9994   2.489   2.130   1.178 -0.2631 -0.0352  0.0504
 3344TIP3   OH2 9995   3.386   5.502   3.679 -0.2459  0.0015  0.3559
 3344TIP3    H1 9996   3.350   5.461   3.757 -0.8755  1.0921  0.6537
 3344TIP3    H2 9997   3.448   5.566   3.712  0.7278 -0.6771 -0.1059
 3345TIP3   OH2 9998   3.053   2.787   5.049 -0.4573  0.8851 -0.2394
 3345TIP3    H1 9999   2.984   2.729   5.018 -1.0117  0.6968  1.2530
 3345TIP3    H210000   3.090   2.742   5.125 -0.1925  1.9946  0.3152
 3346TIP3   OH210001   3.026   0.433   2.802 -0.1358 -0.1195 -0.3656
 3346TIP3    H110002   3.083   0.477   2.866  1.2177  0.7149 -2.0725
 3346TIP3    H210003   2.945   0.483   2.804 -1.1375 -1.5851  2.4266
 3347TIP3   OH210004   0.137   3.001   5.102  0.4903 -0.5020  0.0520
 3347TIP3    H110005   0.188   2.983   5.022  0.7598 -0.6167  0.2465
 3347TIP3    H210006   0.058   2.948   5.092  0.8740 -1.1129  0.2096
 3348TIP3   OH210007   4.028   3.880   3.874  0.1844 -0.1752 -0.0895
 3348TIP3    H110008   4.022   3.876   3.970  1.0900  0.6729  0.0218
 3348TIP3    H210009   4.026   3.974   3.854  0.6366 -0.3215 -0.8519
 3349TIP3   OH210010   6.609   2.206   4.352  0.1986  0.6973  0.2462
 3349TIP3    H110011   6.545   2.259   4.400  0.4723  0.2440  1.1340
 3349TIP3    H210012   6.584   2.116   4.370 -0.5213  0.4729 -1.6072
 3350TIP3   OH210013   4.316   3.095   0.351 -0.2668  0.1098 -0.2189
 3350TIP3    H110014   4.331   3.190   0.354 -1.2779  0.2631  0.7219
 3350TIP3    H210015   4.252   3.084   0.281  1.8673 -0.2313 -2.2562
 3351TIP3   OH210016   3.423   1.239   4.283  0.2261 -0.3088 -0.8311
 3351TIP3    H110017   3.507   1.196   4.297  0.8812  1.1328 -0.0422
 3351TIP3    H210018   3.391   1.259   4.371  0.0750  0.9836 -1.1504
 3352TIP3   OH210019   4.730   3.785   4.482 -0.0036  0.3447 -0.6077
 3352TIP3    H110020   4.720   3.695   4.452 -1.6973  0.1685  0.3653
 3352TIP3    H210021   4.715   3.838   4.403  0.1955 -0.2047 -1.0177
 3353TIP3   OH210022   4.101   4.123   3.993  0.0731 -0.1129  0.4393
 3353TIP3    H110023   4.177   4.065   3.991  0.3076  0.2052 -1.1429
 3353TIP3    H210024   4.138   4.210   4.006 -0.2099 -0.1876  1.8818
 3354TIP3   OH210025   6.425   4.328   4.169  0.1903 -0.1141 -0.0454
 3354TIP3    H110026   6.402   4.385   4.242  2.4767  0.1977  0.5016
 3354TIP3    H210027   6.430   4.240   4.206 -1.2044 -0.3738 -0.4235
 3355TIP3   OH210028   6.140   0.548   2.956 -0.2107 -0.5632 -0.2447
 3355TIP3    H110029   6.069   0.538   2.893 -0.3599  0.5343 -0.2677
 3355TIP3    H210030   6.220   0.539   2.904 -0.3259 -1.4619 -0.2760
 3356TIP3   OH210031   2.787   2.210   5.806  0.5793  0.2165 -0.7999
 3356TIP3    H110032   2.708   2.253   5.774  0.7830 -0.1380 -1.8151
 3356TIP3    H210033   2.800   2.136   5.746  1.3906 -0.0334 -0.3324
 3357TIP3   OH210034   0.266   3.805   2.712 -0.1688  0.3391 -0.8205
 3357TIP3    H110035   0.311   3.887   2.690 -0.4176  0.5709 -0.4728
 3357TIP3    H210036   0.267   3.755   2.630 -1.2204  1.2592 -1.4191
 3358TIP3   OH210037   3.603   0.160   2.889 -0.2018  0.0371 -0.7566
 3358TIP3    H110038   3.544   0.235   2.886 -1.5790 -1.0377 -2.1647
 3358TIP3    H210039   3.662   0.173   2.814  0.1035  0.1187 -0.5061
 3359TIP3   OH210040   0.594   6.723   2.617 -0.6846 -0.1767 -0.2541
 3359TIP3    H110041   0.572   6.685   2.703 -0.7661  2.1613  0.8343
 3359TIP3    H210042   0.608   6.816   2.635  4.1076 -0.3051 -1.9134
 3360TIP3   OH210043   5.061   1.285   5.754 -0.3985  0.2661 -0.5304
 3360TIP3    H110044   4.973   1.268   5.719 -0.6896  1.7285 -0.5985
 3360TIP3    H210045   5.076   1.215   5.817 -0.5380 -1.5053 -2.3366
 3361TIP3   OH210046   1.687   3.964   5.874 -0.0016  0.7986 -0.0033
 3361TIP3    H110047   1.722   4.030   5.814  0.3241 -0.4561 -1.2547
 3361TIP3    H210048   1.763   3.932   5.922  0.0960  0.2651 -0.5014
 3362TIP3   OH210049   5.605   1.189   4.175  0.0931 -0.2987  0.4283
 3362TIP3    H110050   5.658   1.218   4.250  2.0810 -1.8388 -0.2910
 3362TIP3    H210051   5.522   1.162   4.214  0.4158  0.5689  1.8377
 3363TIP3   OH210052   3.014   5.959   4.042 -0.2533 -0.0050  0.0814
 3363TIP3    H110053   3.029   5.887   3.981  0.2669  0.0528  0.1392
 3363TIP3    H210054   3.060   6.034   4.004 -1.0017  0.3692 -0.1069
 3364TIP3   OH210055   5.211   4.800   5.776  0.2660 -0.4826  0.5230
 3364TIP3    H110056   5.237   4.856   5.849  1.9432 -1.3690  0.6769
 3364TIP3    H210057   5.125   4.765   5.800 -0.5433  1.5164  0.6813
 3365TIP3   OH210058   3.242   1.616   1.961  0.3458 -0.3206  0.2203
 3365TIP3    H110059   3.279   1.532   1.989 -2.0030 -1.2280  0.8190
 3365TIP3    H210060   3.169   1.593   1.903 -0.5612  1.2829  0.6546
 3366TIP3   OH210061   3.749   4.895   2.199  0.6734 -0.5065  0.1048
 3366TIP3    H110062   3.673   4.927   2.151  0.5799 -2.6715 -1.3143
 3366TIP3    H210063   3.820   4.896   2.135  1.9933  1.6803  1.4610
 3367TIP3   OH210064   2.131   3.150   3.194  0.8637 -0.2005  0.2351
 3367TIP3    H110065   2.160   3.110   3.112  1.0059  0.2272  0.0780
 3367TIP3    H210066   2.035   3.139   3.193  0.5935  1.7355 -1.0344
 3368TIP3   OH210067   1.607   0.632   5.804  0.3190  0.3359 -0.8560
 3368TIP3    H110068   1.610   0.614   5.898 -1.2799 -3.6803 -1.3523
 3368TIP3    H210069   1.679   0.692   5.788  3.0753 -1.7456  2.4360
 3369TIP3   OH210070   0.381   0.419   3.701 -0.8470 -0.0056 -0.0421
 3369TIP3    H110071   0.452   0.361   3.671  0.7979  1.4721  0.7650
 3369TIP3    H210072   0.354   0.465   3.622  0.4602  0.7626 -0.0854
 3370TIP3   OH210073   1.763   4.139   1.466  0.2629 -0.0464  0.1197
 3370TIP3    H110074   1.736   4.102   1.550  0.1669  0.1952  0.1963
 3370TIP3    H210075   1.857   4.123   1.462  0.3848  0.5459  0.5785
 3371TIP3   OH210076   3.743   1.170   4.561  0.3594  0.2345 -0.1758
 3371TIP3    H110077   3.823   1.118   4.561  0.1603 -0.2274 -2.7863
 3371TIP3    H210078   3.676   1.112   4.526 -0.2105  1.7105 -1.7165
 3372TIP3   OH210079   3.371   0.190   0.570 -0.6064 -0.3914 -0.7584
 3372TIP3    H110080   3.413   0.168   0.653  0.2625  0.6328 -0.9063
 3372TIP3    H210081   3.442   0.186   0.506 -1.5107 -2.5727 -1.7503
 3373TIP3   OH210082   1.354   1.399   4.753 -0.2300 -0.1777 -0.3305
 3373TIP3    H110083   1.328   1.482   4.793 -2.0585 -0.4033 -0.9683
 3373TIP3    H210084   1.417   1.424   4.685  1.8636  0.3286  1.6793
 3374TIP3   OH210085   2.494   4.228   5.476  0.5158 -0.3287  0.5903
 3374TIP3    H110086   2.489   4.222   5.381  1.8741 -1.6705  0.5682
 3374TIP3    H210087   2.550   4.303   5.492  0.0777  0.0566  0.3508
 3375TIP3   OH210088   2.158   6.687   1.072 -0.1960  0.2565 -0.3186
 3375TIP3    H110089   2.202   6.758   1.118  0.0399  0.1091 -0.3140
 3375TIP3    H210090   2.086   6.729   1.026 -1.4533  0.2114  1.4903
 3376TIP3   OH210091   2.565   6.208   5.140 -0.0339  0.0212 -0.5678
 3376TIP3    H110092   2.508   6.263   5.087 -0.6276  0.1948  0.2324
 3376TIP3    H210093   2.653   6.243   5.124 -0.2710  0.4454 -0.9723
 3377TIP3   OH210094   4.053   3.548   3.416  0.5441 -0.3777  0.3854
 3377TIP3    H110095   4.142   3.560   3.448  0.6483 -0.1239  0.0001
 3377TIP3    H210096   4.062   3.494   3.337  0.7765  2.7317 -1.9020
 3378TIP3   OH210097   4.430   5.473   2.934  0.6788  0.2637 -0.1147
 3378TIP3    H110098   4.402   5.564   2.930  0.9728  0.3631  0.0924
 3378TIP3    H210099   4.421   5.448   3.026 -0.9301 -0.4067 -0.4225
 3379TIP3   OH210100   4.580   6.149   3.870 -0.1234 -0.2524 -0.8647
 3379TIP3    H110101   4.586   6.139   3.965  2.3644  0.2872 -0.8926
 3379TIP3    H210102   4.496   6.193   3.855 -0.4698 -0.1869  1.0825
 3380TIP3   OH210103   2.797   3.361   2.817 -0.0910 -0.3427  0.0929
 3380TIP3    H110104   2.727   3.392   2.876 -0.9963  0.5025 -1.3673
 3380TIP3    H210105   2.756   3.361   2.730  1.9490  0.9118 -0.9300
 3381TIP3   OH210106   2.882   6.558   1.541 -0.1635  0.1404 -0.3368
 3381TIP3    H110107   2.919   6.483   1.589 -0.4018 -1.3510 -2.3457
 3381TIP3    H210108   2.795   6.571   1.581 -0.4031 -1.1289 -0.4013
 3382TIP3   OH210109   3.468   4.992   4.644  0.2168  0.3218  0.4386
 3382TIP3    H110110   3.444   4.909   4.687 -0.6531 -0.2048 -0.9797
 3382TIP3    H210111   3.419   5.059   4.692  0.9898  0.0451  1.6535
 3383TIP3   OH210112   3.492   6.500   1.068 -0.9132  0.1241  0.1499
 3383TIP3    H110113   3.496   6.595   1.055 -1.3259 -0.0918 -1.8968
 3383TIP3    H210114   3.553   6.465   1.003  0.2986 -0.9868  1.8211
 3384TIP3   OH210115   6.713   1.116   5.811 -0.3740  0.1337 -0.1112
 3384TIP3    H110116   6.706   1.057   5.736  0.0903  0.3701 -0.3415
 3384TIP3    H210117   6.774   1.184   5.783 -0.8620  0.6995  0.1698
 3385TIP3   OH210118   6.637   4.662   5.116 -0.0982 -0.1375 -0.1991
 3385TIP3    H110119   6.671   4.656   5.026 -0.2957  2.3587 -0.5395
 3385TIP3    H210120   6.557   4.610   5.115 -0.6893  0.7223 -1.8259
 3386TIP3   OH210121   2.865   6.602   3.952 -0.4850  0.1215 -0.2229
 3386TIP3    H110122   2.913   6.579   4.032 -0.2891 -0.5426 -0.5189
 3386TIP3    H210123   2.934   6.619   3.887 -0.6162  1.9140  0.0649
 3387TIP3   OH210124   5.403   5.667   0.371 -0.0200  0.1057  0.4323
 3387TIP3    H110125   5.364   5.698   0.453 -0.6886  0.6405 -0.0785
 3387TIP3    H210126   5.339   5.689   0.304  1.4515  1.6624 -0.5312
 3388TIP3   OH210127   0.638   1.714   0.911 -0.0328 -0.4892  0.0896
 3388TIP3    H110128   0.671   1.627   0.935  0.8378 -0.1013  0.3263
 3388TIP3    H210129   0.670   1.728   0.821  0.6978  0.0014  0.4185
 3389TIP3   OH210130   5.969   4.406   1.073 -0.3887  0.9221 -0.6176
 3389TIP3    H110131   5.938   4.323   1.035 -2.1429  1.3595 -0.2606
 3389TIP3    H210132   5.922   4.473   1.023  0.6793  1.6843 -0.6059
 3390TIP3   OH210133   2.184   4.095   4.164  0.7423  0.3677  0.0353
 3390TIP3    H110134   2.137   4.155   4.106  2.0732  1.9706  0.5342
 3390TIP3    H210135   2.129   4.016   4.167 -0.5327  1.1387 -1.4948
 3391TIP3   OH210136   4.500   6.556   5.628  0.4035 -0.4821 -0.0353
 3391TIP3    H110137   4.556   6.591   5.697 -0.6375 -0.8217  1.0167
 3391TIP3    H210138   4.448   6.631   5.599  0.1927 -0.5325  0.2067
 3392TIP3   OH210139   4.424   6.533   3.075  0.7976 -0.4804 -0.0402
 3392TIP3    H110140   4.363   6.557   3.145  1.7277 -0.3604  0.7419
 3392TIP3    H210141   4.396   6.586   3.000 -1.0054 -1.5214 -0.1889
 3393TIP3   OH210142   1.072   2.498   5.242 -0.2135 -0.0994 -0.1602
 3393TIP3    H110143   1.041   2.459   5.324  1.1996  0.9429  0.9259
 3393TIP3    H210144   1.101   2.586   5.267  0.3854  0.1858 -1.7537
 3394TIP3   OH210145   1.982   1.076   5.333 -0.4182  0.1357 -0.7559
 3394TIP3    H110146   2.002   0.993   5.290 -0.8603  0.0320 -0.7695
 3394TIP3    H210147   1.967   1.137   5.260  0.1292  0.2892 -0.7474
 3395TIP3   OH210148   5.699   6.195   2.315  0.3379 -0.0986  0.0814
 3395TIP3    H110149   5.745   6.215   2.396 -1.0024 -1.2632  1.1895
 3395TIP3    H210150   5.645   6.273   2.299 -1.1817 -0.7554  1.6692
 3396TIP3   OH210151   6.180   1.681   3.664 -0.4768  0.5084  0.4410
 3396TIP3    H110152   6.134   1.600   3.686 -0.2512  0.1086 -0.5237
 3396TIP3    H210153   6.154   1.699   3.574  1.6606 -0.0147 -0.3300
 3397TIP3   OH210154   5.201   4.413   2.074  0.3576  0.2563  0.4439
 3397TIP3    H110155   5.110   4.392   2.093  0.3778  0.8584  1.2317
 3397TIP3    H210156   5.217   4.374   1.987 -1.2444  1.9256 -0.6623
 3398TIP3   OH210157   3.223   5.674   3.187 -0.0619 -0.0588  0.0114
 3398TIP3    H110158   3.306   5.713   3.158 -0.8035  2.1685  0.6671
 3398TIP3    H210159   3.241   5.646   3.277  0.0235  0.2883  0.1045
 3399TIP3   OH210160   6.669   6.204   2.854  0.4366 -0.0919 -0.2197
 3399TIP3    H110161   6.655   6.235   2.944  0.8539  0.0485 -0.2013
 3399TIP3    H210162   6.764   6.212   2.841  0.3043  0.4982 -0.8897
 3400TIP3   OH210163   2.680   5.755   5.441  0.5041  0.4971  0.2082
 3400TIP3    H110164   2.620   5.811   5.490 -0.9095 -0.3913 -0.4406
 3400TIP3    H210165   2.706   5.808   5.365 -1.3016  0.1117 -0.7284
 3401TIP3   OH210166   5.764   0.729   2.865  0.2824 -0.4459 -0.7797
 3401TIP3    H110167   5.752   0.677   2.944  0.9933 -0.1791 -0.4905
 3401TIP3    H210168   5.718   0.680   2.797  1.0809 -1.5480 -0.5551
 3402TIP3   OH210169   3.115   4.571   2.087 -0.1020 -0.2812  0.0756
 3402TIP3    H110170   3.155   4.649   2.128 -1.1179 -0.2136  0.9938
 3402TIP3    H210171   3.121   4.504   2.155 -0.0151 -0.7611 -0.4050
 3403TIP3   OH210172   4.550   5.614   3.803  0.3983  0.7709 -0.0093
 3403TIP3    H110173   4.633   5.568   3.789 -0.6240 -0.4493 -2.8971
 3403TIP3    H210174   4.560   5.696   3.755 -0.0787  0.5298 -0.5385
 3404TIP3   OH210175   4.529   4.456   0.541 -0.2180  0.2038  0.4244
 3404TIP3    H110176   4.618   4.452   0.575 -0.6399  1.8546  1.8473
 3404TIP3    H210177   4.517   4.547   0.515 -1.7870  0.2325  1.1206
 3405TIP3   OH210178   1.512   5.224   4.621  0.1851  0.8548 -0.7099
 3405TIP3    H110179   1.442   5.179   4.574  2.3705 -1.6873 -1.8008
 3405TIP3    H210180   1.563   5.154   4.661  0.9889  2.7232  1.7621
 3406TIP3   OH210181   0.512   2.258   4.156  0.1865 -0.3086 -0.4169
 3406TIP3    H110182   0.561   2.329   4.113  0.2698 -0.3141 -0.3328
 3406TIP3    H210183   0.577   2.215   4.211  0.1333 -0.4453 -0.4606
 3407TIP3   OH210184   4.213   3.396   5.089 -0.6604  0.5423  0.1817
 3407TIP3    H110185   4.192   3.399   5.182 -0.4763  0.2746  0.2358
 3407TIP3    H210186   4.131   3.415   5.044 -0.6269  1.2177  0.4052
 3408TIP3   OH210187   6.802   2.058   2.892  0.3001 -0.0360 -0.5387
 3408TIP3    H110188   6.756   2.080   2.812  0.5029  1.1918 -0.3272
 3408TIP3    H210189   6.753   2.101   2.962  1.8149  1.4803 -0.3279
 3409TIP3   OH210190   4.324   2.236   0.167 -0.1887 -0.0454 -0.1714
 3409TIP3    H110191   4.285   2.242   0.080  1.0406  0.9377 -0.6918
 3409TIP3    H210192   4.379   2.158   0.164 -0.4520 -0.2326 -0.1404
 3410TIP3   OH210193   2.114   6.118   0.082 -0.2260  0.2634  0.2369
 3410TIP3    H110194   2.137   6.095  -0.008  2.4368  1.6490  0.4668
 3410TIP3    H210195   2.100   6.213   0.079 -1.2227  0.1670  1.1241
 3411TIP3   OH210196   0.411   6.128   4.616  0.1478 -0.3041 -0.0069
 3411TIP3    H110197   0.435   6.209   4.662  0.4922  0.2269 -1.0895
 3411TIP3    H210198   0.418   6.060   4.683 -0.1400  0.5482  0.9283
 3412TIP3   OH210199   0.317   3.496   1.595  0.0725 -0.0410 -0.2917
 3412TIP3    H110200   0.385   3.475   1.659 -1.2965 -0.6388  1.0267
 3412TIP3    H210201   0.251   3.543   1.645 -0.3257  0.8818 -1.6346
 3413TIP3   OH210202   7.113   1.969   4.844 -0.4751 -0.2558 -0.2441
 3413TIP3    H110203   7.123   1.962   4.749 -1.3868  0.7999 -0.4364
 3413TIP3    H210204   7.079   1.883   4.870  0.7347 -0.9021 -0.7160
 3414TIP3   OH210205   3.997   4.332   2.750 -1.0613  0.1178  0.1510
 3414TIP3    H110206   3.990   4.383   2.669  1.2742 -0.6157 -0.5848
 3414TIP3    H210207   3.990   4.241   2.722  0.5784 -0.1837  0.6037
 3415TIP3   OH210208   3.143   1.044   3.337  0.4643 -0.4418 -0.0729
 3415TIP3    H110209   3.085   1.096   3.281  2.1554  1.9704  0.2569
 3415TIP3    H210210   3.091   1.026   3.415 -0.8955 -1.2316 -1.1126
 3416TIP3   OH210211   6.495   2.120   0.607  0.3790 -0.2600 -0.3599
 3416TIP3    H110212   6.493   2.136   0.702 -0.6199 -1.0943 -0.2208
 3416TIP3    H210213   6.494   2.025   0.598  0.9373 -0.1977 -1.2153
 3417TIP3   OH210214   6.315   6.168   1.120  0.3237 -0.1264  0.0080
 3417TIP3    H110215   6.388   6.123   1.079 -0.3352  0.4644 -1.9192
 3417TIP3    H210216   6.247   6.171   1.052 -0.8621  0.8179  1.1776
 3418TIP3   OH210217   0.096   2.545   5.398 -0.3798  0.2721 -0.3296
 3418TIP3    H110218   0.065   2.584   5.316 -0.8422 -0.5824 -0.5648
 3418TIP3    H210219   0.131   2.460   5.372 -1.3870 -0.4090  0.4758
 3419TIP3   OH210220   1.678   5.359   5.500  0.0511 -0.3400 -0.3300
 3419TIP3    H110221   1.611   5.306   5.543  0.0263 -0.3617 -0.3954
 3419TIP3    H210222   1.657   5.449   5.525  1.3746 -0.5130  1.5950
 3420TIP3   OH210223   2.922   6.284   4.530 -0.0070 -0.3898 -0.6255
 3420TIP3    H110224   2.855   6.283   4.461 -1.7151  0.4043  0.9437
 3420TIP3    H210225   2.952   6.193   4.535 -1.5606 -0.9453 -0.8236
 3421TIP3   OH210226   0.230   5.448   1.926 -0.4515 -0.1652  0.4747
 3421TIP3    H110227   0.322   5.429   1.905 -0.8002 -0.8907 -0.4195
 3421TIP3    H210228   0.188   5.362   1.930 -0.9816  0.1286  1.4698
 3422TIP3   OH210229   1.065   4.407   3.757  0.2330 -0.0354 -0.8004
 3422TIP3    H110230   1.050   4.362   3.674  1.7624 -0.0698 -1.0813
 3422TIP3    H210231   1.014   4.356   3.821  1.7444 -2.1016 -1.1368
 3423TIP3   OH210232   4.904   5.355   0.884  0.2658 -0.1718 -0.2379
 3423TIP3    H110233   4.995   5.327   0.885  0.1905 -0.4162  0.1131
 3423TIP3    H210234   4.871   5.333   0.972 -0.2733 -0.5766 -0.5341
 3424TIP3   OH210235   2.853   1.651   4.202 -0.1669  0.2731 -0.0662
 3424TIP3    H110236   2.846   1.745   4.187 -0.7513  0.4550  1.2484
 3424TIP3    H210237   2.868   1.642   4.296  0.2724 -0.9380 -0.2277
 3425TIP3   OH210238   1.357   1.605   2.748 -0.7329 -0.5810  0.0099
 3425TIP3    H110239   1.319   1.605   2.660  0.4984 -0.7692 -0.5490
 3425TIP3    H210240   1.451   1.593   2.733 -0.6284 -1.6829  1.4104
 3426TIP3   OH210241   5.763   1.786   1.607 -0.1705  0.5838 -0.0405
 3426TIP3    H110242   5.786   1.870   1.569 -0.6334 -0.2645 -2.3484
 3426TIP3    H210243   5.669   1.792   1.624 -0.7358 -0.2371 -2.5263
 3427TIP3   OH210244   1.803   0.680   3.718 -0.8017  0.3610 -0.1737
 3427TIP3    H110245   1.761   0.659   3.801 -0.7831  0.8597 -0.0369
 3427TIP3    H210246   1.735   0.722   3.666 -0.7904  0.1249 -0.3847
 3428TIP3   OH210247   2.842   6.046   1.996  0.0806 -0.4398  0.0350
 3428TIP3    H110248   2.825   6.011   1.908  1.7467 -1.6225  0.1435
 3428TIP3    H210249   2.762   6.025   2.045 -1.0176  0.5461 -1.2496
 3429TIP3   OH210250   6.518   4.272   5.057 -0.4639  0.5886  0.0104
 3429TIP3    H110251   6.507   4.361   5.021 -0.6678  0.3054 -0.6504
 3429TIP3    H210252   6.603   4.244   5.025 -1.1822 -0.1540 -1.3829
 3430TIP3   OH210253   0.930   0.852   5.212  0.3142  0.0071 -0.0967
 3430TIP3    H110254   0.868   0.816   5.276 -0.4999  0.3994 -0.6556
 3430TIP3    H210255   0.921   0.795   5.136  1.1960 -0.3843  0.0766
 3431TIP3   OH210256   6.864   6.018   3.697  0.1553  0.5630  0.1830
 3431TIP3    H110257   6.844   6.035   3.605  1.7533  1.8354  0.0218
 3431TIP3    H210258   6.791   6.055   3.745 -0.8925 -0.4645 -0.5615
 3432TIP3   OH210259   0.980   6.339   0.347  0.0169  0.2293 -0.0696
 3432TIP3    H110260   0.948   6.425   0.373  2.0295  0.6795  1.1263
 3432TIP3    H210261   0.907   6.299   0.301 -2.2408  1.1907  2.3994
 3433TIP3   OH210262   1.742   5.310   1.745 -0.1248  0.0064  0.3391
 3433TIP3    H110263   1.749   5.235   1.804 -0.6777  1.1954  2.0019
 3433TIP3    H210264   1.648   5.323   1.733 -0.0257  0.1652 -0.2993
 3434TIP3   OH210265   7.098   3.177   5.023 -0.3147 -0.2627  0.0125
 3434TIP3    H110266   7.053   3.230   5.088 -0.5297 -0.3500 -0.0646
 3434TIP3    H210267   7.069   3.087   5.040 -0.0381 -0.3396  0.0726
 3435TIP3   OH210268   5.725   4.767   0.181  0.6265 -0.2755 -0.3836
 3435TIP3    H110269   5.691   4.785   0.093 -0.4455  0.2827  0.1147
 3435TIP3    H210270   5.715   4.672   0.191 -1.9820 -0.0385  0.1464
 3436TIP3   OH210271   0.379   5.651   5.581  0.1150 -0.2243  0.4461
 3436TIP3    H110272   0.329   5.612   5.653 -0.6219 -1.4823 -0.6862
 3436TIP3    H210273   0.446   5.586   5.561 -0.3692 -0.4046 -0.6861
 3437TIP3   OH210274   3.688   4.586   3.699 -0.2579 -0.1780  0.2422
 3437TIP3    H110275   3.673   4.610   3.608 -0.1356  0.3429  0.3602
 3437TIP3    H210276   3.661   4.662   3.750 -1.0012 -0.7154  0.6883
 3438TIP3   OH210277   2.878   0.258   3.347  0.0538  0.2361 -0.8770
 3438TIP3    H110278   2.846   0.253   3.437  0.0371 -1.4388 -0.9458
 3438TIP3    H210279   2.940   0.330   3.348  1.2620 -0.7564  0.8790
 3439TIP3   OH210280   2.526   3.191   4.491 -0.1394  0.0364 -0.0516
 3439TIP3    H110281   2.510   3.210   4.399  2.0750  0.2235 -0.4432
 3439TIP3    H210282   2.619   3.209   4.504 -0.2757 -0.5174  2.0978
 3440TIP3   OH210283   6.080   6.470   2.761 -0.2032  0.0705  0.2749
 3440TIP3    H110284   6.061   6.392   2.813  2.2155 -3.5960 -3.6865
 3440TIP3    H210285   6.146   6.517   2.811 -2.1714  0.1099  3.0701
 3441TIP3   OH210286   5.442   3.966   5.795  0.3265  0.4203 -0.0235
 3441TIP3    H110287   5.518   4.019   5.773 -1.1725  2.2615 -1.0708
 3441TIP3    H210288   5.396   4.016   5.862  0.8658 -1.4961  1.8583
 3442TIP3   OH210289   4.616   0.857   2.992 -0.8950 -0.6025 -0.1419
 3442TIP3    H110290   4.609   0.914   3.068 -2.3965 -0.0578 -0.6565
 3442TIP3    H210291   4.554   0.786   3.010 -1.4764 -0.3159 -0.9642
 3443TIP3   OH210292   5.045   3.954   2.255 -0.0362  0.3469  0.1515
 3443TIP3    H110293   5.070   3.864   2.279  0.6324  0.6607  0.6994
 3443TIP3    H210294   4.956   3.964   2.289  0.6129  0.5315  1.9567
 3444TIP3   OH210295   3.098   0.797   5.195 -0.2524  1.2329 -0.0638
 3444TIP3    H110296   3.046   0.768   5.270 -1.1002 -2.2912 -1.8221
 3444TIP3    H210297   3.183   0.755   5.207 -0.8969 -0.7085 -1.7366
 3445TIP3   OH210298   6.992   2.090   3.107 -0.5602 -0.7938 -0.2802
 3445TIP3    H110299   6.952   2.066   3.024  0.3542 -0.7208 -0.7618
 3445TIP3    H210300   7.085   2.069   3.096  0.1458  1.9553 -0.3849
 3446TIP3   OH210301   0.194   4.917   4.476 -0.2831  0.8011 -0.2954
 3446TIP3    H110302   0.225   4.829   4.454  1.6454  1.0357  1.2480
 3446TIP3    H210303   0.163   4.953   4.393 -2.9143 -1.9596 -0.6511
 3447TIP3   OH210304   4.858   5.666   1.829 -0.0075 -0.1820  0.1737
 3447TIP3    H110305   4.838   5.573   1.826 -1.0562  0.0399 -0.1943
 3447TIP3    H210306   4.928   5.674   1.894  1.7615 -1.5091 -1.4510
 3448TIP3   OH210307   7.188   0.431   0.737 -0.8756 -0.0410  0.3988
 3448TIP3    H110308   7.257   0.488   0.771 -1.5266  1.2088 -0.3066
 3448TIP3    H210309   7.205   0.346   0.778 -0.8151  1.0256  2.7565
 3449TIP3   OH210310   1.903   6.807   4.908 -0.3140  0.1954 -0.2173
 3449TIP3    H110311   1.948   6.819   4.824  2.3379 -0.0485  1.0748
 3449TIP3    H210312   1.898   6.712   4.919 -0.1608  0.2258  0.1277
 3450TIP3   OH210313   1.845   6.618   4.470  0.5297  0.3705  0.0485
 3450TIP3    H110314   1.901   6.594   4.544  1.3626  0.3048 -0.5897
 3450TIP3    H210315   1.849   6.713   4.466  0.7119  0.3558 -0.0911
 3451TIP3   OH210316   4.731   4.477   2.270 -0.3143 -0.4695  0.1300
 3451TIP3    H110317   4.696   4.538   2.334 -0.0599 -0.3435  0.1511
 3451TIP3    H210318   4.734   4.393   2.316  0.2132 -0.3028  0.4040
 3452TIP3   OH210319   4.068   1.225   4.792  0.0384  0.0096  0.5523
 3452TIP3    H110320   4.071   1.310   4.748  1.0855 -0.3131 -0.0257
 3452TIP3    H210321   3.976   1.213   4.815 -0.1530  1.1991  0.4438
 3453TIP3   OH210322   7.060   5.278   2.370  0.0284  0.3002  0.1602
 3453TIP3    H110323   7.002   5.298   2.296 -0.5509 -0.1182  0.4928
 3453TIP3    H210324   7.034   5.341   2.438  1.4868  1.6130 -0.4326
 3454TIP3   OH210325   2.919   0.845   2.566  0.0077  0.2390 -0.8411
 3454TIP3    H110326   2.915   0.924   2.511 -1.1513  0.1590 -0.8929
 3454TIP3    H210327   3.003   0.852   2.611 -0.1001  1.5452 -0.7932
 3455TIP3   OH210328   0.995   5.360   1.478  0.7115  0.1201 -0.4006
 3455TIP3    H110329   0.903   5.339   1.464  0.6666 -0.9768  1.3304
 3455TIP3    H210330   1.039   5.330   1.398 -0.2120 -0.8781 -0.5467
 3456TIP3   OH210331   0.924   4.845   5.703  0.4482  0.2090  0.6286
 3456TIP3    H110332   0.907   4.752   5.721  1.4828 -0.0573  0.3015
 3456TIP3    H210333   0.915   4.887   5.788 -1.3716  0.0357  0.5481
 3457TIP3   OH210334   4.348   6.721   1.353 -0.2624 -0.6775 -0.5027
 3457TIP3    H110335   4.405   6.701   1.279 -0.7247 -0.0866 -1.0311
 3457TIP3    H210336   4.261   6.693   1.324 -0.8266  1.4036 -1.0273
 3458TIP3   OH210337   6.511   3.298   3.743 -0.3594  0.3132  0.1568
 3458TIP3    H110338   6.573   3.267   3.676  0.1766  0.4885  0.5619
 3458TIP3    H210339   6.436   3.239   3.735 -0.5898  0.7381 -1.0420
 3459TIP3   OH210340   2.119   1.484   1.401  0.1977  0.1650 -0.3914
 3459TIP3    H110341   2.056   1.487   1.329 -1.4976  1.3406  1.0819
 3459TIP3    H210342   2.150   1.393   1.401 -0.9255 -0.2557 -1.6112
 3460TIP3   OH210343   1.979   3.936   4.100 -0.2755 -0.7383 -0.4264
 3460TIP3    H110344   1.990   3.857   4.154 -0.0252 -1.1823 -1.1150
 3460TIP3    H210345   1.896   3.973   4.129  0.0148 -0.7784  0.5035
 3461TIP3   OH210346   0.399   6.231   3.643 -0.1673  0.0607  0.0901
 3461TIP3    H110347   0.469   6.219   3.707  0.4198  2.4077 -0.0171
 3461TIP3    H210348   0.418   6.316   3.602 -1.5912 -0.4828 -1.8441
 3462TIP3   OH210349   4.685   3.896   5.670 -0.4416  0.9227  0.8137
 3462TIP3    H110350   4.648   3.808   5.660  2.0544 -0.2474  1.1984
 3462TIP3    H210351   4.679   3.934   5.583  0.4386 -0.5157  0.0799
 3463TIP3   OH210352   5.351   6.617   1.171  0.5473  0.1693  0.1799
 3463TIP3    H110353   5.400   6.693   1.204  0.2106  0.6076 -0.3303
 3463TIP3    H210354   5.259   6.641   1.181  0.4186  0.5052 -1.4764
 3464TIP3   OH210355   0.681   5.071   0.567 -0.3004 -0.0852  0.1633
 3464TIP3    H110356   0.638   5.155   0.552 -1.0487 -0.4660  0.1252
 3464TIP3    H210357   0.724   5.050   0.484 -1.6656 -0.6139 -0.4303
 3465TIP3   OH210358   6.347   1.099   1.535 -0.0051  0.0697 -0.3348
 3465TIP3    H110359   6.438   1.090   1.565 -0.1611 -1.9403 -0.3646
 3465TIP3    H210360   6.340   1.039   1.461 -1.4876 -0.1527 -0.0351
 3466TIP3   OH210361   3.029   6.478   0.662 -0.3138 -0.6335 -0.1200
 3466TIP3    H110362   3.014   6.572   0.668  0.6559 -0.5224  0.9315
 3466TIP3    H210363   2.952   6.444   0.616  0.3187  0.9241 -2.5224
 3467TIP3   OH210364   1.929   2.663   0.633  0.2808 -0.3214 -0.1174
 3467TIP3    H110365   2.014   2.662   0.589 -0.1780 -0.2941 -1.0283
 3467TIP3    H210366   1.896   2.574   0.626 -0.7606  0.1389 -1.8108
 3468TIP3   OH210367   6.718   6.159   3.903 -0.2467 -0.2384  0.7139
 3468TIP3    H110368   6.667   6.239   3.911  0.0261 -0.2429  3.0183
 3468TIP3    H210369   6.783   6.165   3.972 -0.1059 -2.3727  0.8218
 3469TIP3   OH210370   0.775   6.196   5.815 -0.3679 -0.2572  0.0710
 3469TIP3    H110371   0.747   6.124   5.872  0.1599 -0.9822 -0.5666
 3469TIP3    H210372   0.828   6.252   5.872 -1.2807 -0.0282  0.7277
 3470TIP3   OH210373   3.576   1.432   0.605 -0.0503  0.0315 -0.4130
 3470TIP3    H110374   3.496   1.429   0.656 -0.3759 -0.2273 -0.9274
 3470TIP3    H210375   3.584   1.344   0.568  0.5572  0.0078 -0.2357
 3471TIP3   OH210376   2.251   1.699   1.867  0.2378  0.5235 -0.3348
 3471TIP3    H110377   2.224   1.651   1.788 -1.5698 -0.4387  0.7847
 3471TIP3    H210378   2.195   1.776   1.869  0.0888  0.4062  0.1365
 3472TIP3   OH210379   3.304   1.115   5.811 -0.7242  0.4157 -0.9108
 3472TIP3    H110380   3.325   1.078   5.725 -0.5429  2.2738 -1.7199
 3472TIP3    H210381   3.341   1.203   5.808 -2.4804  1.2456  0.3189
 3473TIP3   OH210382   4.102   5.517   1.080 -0.1606  0.7250 -0.4425
 3473TIP3    H110383   4.089   5.437   1.029 -2.1259  0.7397 -0.0504
 3473TIP3    H210384   4.121   5.584   1.014 -1.6510  0.5373 -1.1078
 3474TIP3   OH210385   5.994   0.727   4.640  0.1656  0.5547 -0.5463
 3474TIP3    H110386   5.991   0.813   4.598  0.0585  0.8572  0.0663
 3474TIP3    H210387   5.904   0.695   4.635 -0.4207  1.6599  1.5869
 3475TIP3   OH210388   3.404   2.017   2.903  0.1632 -0.0079 -0.6599
 3475TIP3    H110389   3.327   2.064   2.872 -1.0066  0.3395  2.4092
 3475TIP3    H210390   3.372   1.928   2.921  0.2697  0.2835  1.1564
 3476TIP3   OH210391   6.084   0.154   4.650  0.0289  0.5670  0.0996
 3476TIP3    H110392   6.013   0.114   4.700 -0.3187 -0.0162 -0.8322
 3476TIP3    H210393   6.160   0.149   4.709 -0.6092  0.8868  0.9711
 3477TIP3   OH210394   5.876   0.228   1.237  0.1477  0.1322  0.3399
 3477TIP3    H110395   5.874   0.271   1.323  1.1861 -1.3249  1.1342
 3477TIP3    H210396   5.967   0.200   1.226 -0.5773 -2.3235  0.1356
 3478TIP3   OH210397   3.823   6.167   4.342 -0.3020 -0.3170 -0.1019
 3478TIP3    H110398   3.882   6.103   4.301 -0.7435  0.7102 -2.5035
 3478TIP3    H210399   3.876   6.246   4.352 -0.2170 -0.5275  1.3946
 3479TIP3   OH210400   4.766   3.107   3.324  0.2479  0.1933 -0.3453
 3479TIP3    H110401   4.786   3.198   3.348 -0.2369 -0.3737  2.6215
 3479TIP3    H210402   4.740   3.066   3.406 -1.1079 -2.2592 -1.8735
 3480TIP3   OH210403   3.977   3.313   0.795  0.4175 -0.2377 -0.8021
 3480TIP3    H110404   3.977   3.408   0.780  0.3225 -0.3693 -1.6668
 3480TIP3    H210405   4.068   3.287   0.788  0.8720  0.1687  2.1394
 3481TIP3   OH210406   5.904   4.846   3.267 -0.6059 -0.1562  0.0661
 3481TIP3    H110407   5.965   4.797   3.323 -0.3759 -2.6203 -2.1817
 3481TIP3    H210408   5.838   4.782   3.241 -2.0410  1.5272 -0.6305
 3482TIP3   OH210409   5.692   6.418   4.232  0.6488  0.2249 -0.3530
 3482TIP3    H110410   5.787   6.429   4.239  0.4642  0.7119  2.9456
 3482TIP3    H210411   5.679   6.323   4.238  0.9172  0.1636 -0.7029
 3483TIP3   OH210412   6.298   0.749   0.832  0.3917 -0.2142 -0.0357
 3483TIP3    H110413   6.385   0.788   0.827  0.1239  0.6831  1.6240
 3483TIP3    H210414   6.305   0.685   0.903 -0.8303  1.4564  1.6839
 3484TIP3   OH210415   0.483   0.838   2.261  0.2418  0.1779 -0.2903
 3484TIP3    H110416   0.579   0.839   2.265  0.3280 -0.2845 -1.8289
 3484TIP3    H210417   0.458   0.760   2.310  0.5491  1.0422  1.3186
 3485TIP3   OH210418   3.173   4.129   2.929 -0.1800  0.1418  0.3199
 3485TIP3    H110419   3.110   4.078   2.980  0.3720 -1.7603 -0.7983
 3485TIP3    H210420   3.135   4.132   2.841 -0.1185  1.5855  0.3197
 3486TIP3   OH210421   4.878   2.784   4.830  0.2809  0.2763  0.2425
 3486TIP3    H110422   4.802   2.727   4.837  0.7033 -0.3102  0.1250
 3486TIP3    H210423   4.953   2.725   4.832  0.7521  0.8757  0.7482
 3487TIP3   OH210424   6.186   1.263   2.900 -0.3539 -0.0238 -0.2050
 3487TIP3    H110425   6.163   1.268   2.807  1.7941 -0.1829 -0.8037
 3487TIP3    H210426   6.242   1.339   2.915 -0.9890  0.2174  1.0755
 3488TIP3   OH210427   5.871   0.568   5.136  0.4025  0.8470  0.1043
 3488TIP3    H110428   5.868   0.663   5.142 -0.6946  0.7497  1.4875
 3488TIP3    H210429   5.937   0.550   5.069 -1.1358  2.6360 -2.0171
 3489TIP3   OH210430   6.008   0.141   3.780 -0.2972  0.6292 -0.0934
 3489TIP3    H110431   6.099   0.168   3.790  0.4152 -2.0141  1.4965
 3489TIP3    H210432   5.989   0.156   3.687  1.9906  0.5961 -0.6269
 3490TIP3   OH210433   1.510   2.534   1.986 -0.2234  0.2740 -0.3614
 3490TIP3    H110434   1.564   2.464   1.950 -1.3794 -0.9307  0.1883
 3490TIP3    H210435   1.433   2.490   2.022 -1.3347  1.8879 -0.6367
 3491TIP3   OH210436   6.109   4.944   5.858  0.1491  0.0580 -0.3038
 3491TIP3    H110437   6.114   4.998   5.936 -0.2871  1.2796 -1.0914
 3491TIP3    H210438   6.016   4.927   5.846 -0.0005  1.5464 -1.6206
 3492TIP3   OH210439   0.348   1.459   3.971 -0.6053  0.5749 -0.4935
 3492TIP3    H110440   0.414   1.528   3.967  0.4954 -0.3439  0.8193
 3492TIP3    H210441   0.387   1.392   4.028 -2.5821 -0.1225  0.0977
 3493TIP3   OH210442   5.224   6.495   2.225  0.0566 -0.3096 -0.0101
 3493TIP3    H110443   5.192   6.436   2.157  1.1330 -1.9283  0.8323
 3493TIP3    H210444   5.145   6.532   2.264 -0.6146 -0.7291 -0.9302
 3494TIP3   OH210445   2.695   4.865   0.579  0.2913 -0.4268  0.1499
 3494TIP3    H110446   2.700   4.898   0.668  0.0380  0.1802 -0.0583
 3494TIP3    H210447   2.618   4.909   0.541  0.1961 -0.9371 -0.2581
 3495TIP3   OH210448   1.270   3.884   1.810 -0.3135 -0.0384 -0.1033
 3495TIP3    H110449   1.272   3.979   1.797 -3.2629  0.4103  1.7936
 3495TIP3    H210450   1.196   3.854   1.757  0.3328 -1.2527 -0.3563
 3496TIP3   OH210451   3.477   2.582   4.316 -0.4663 -0.3851 -0.1168
 3496TIP3    H110452   3.419   2.530   4.261 -1.3014 -0.2273  0.5971
 3496TIP3    H210453   3.536   2.519   4.356 -0.2202 -0.5605 -0.7358
 3497TIP3   OH210454   6.168   4.844   3.624 -0.7403 -0.2984  0.1290
 3497TIP3    H110455   6.209   4.825   3.709  0.8919  1.7598 -0.1231
 3497TIP3    H210456   6.216   4.920   3.591 -2.9049  0.4065 -1.5885
 3498TIP3   OH210457   0.031   2.519   2.553 -0.2164  0.7797 -0.0199
 3498TIP3    H110458   0.110   2.544   2.506  0.3980 -0.2893  0.4137
 3498TIP3    H210459  -0.018   2.465   2.491 -0.0550  0.4862  0.1094
 3499TIP3   OH210460   1.322   5.624   1.455 -0.4386 -0.1209 -0.3715
 3499TIP3    H110461   1.354   5.687   1.519 -0.4520 -1.1770  0.7056
 3499TIP3    H210462   1.227   5.627   1.463 -0.5908  1.3544 -1.9646
 3500TIP3   OH210463   5.367   6.800   4.402  0.3615 -0.1981 -0.2407
 3500TIP3    H110464   5.460   6.810   4.425  0.3823 -0.1844 -0.3297
 3500TIP3    H210465   5.367   6.740   4.327  0.3155 -0.0218 -0.3836
 3501TIP3   OH210466   3.737   4.982   5.406 -0.2785  0.0776 -0.0963
 3501TIP3    H110467   3.809   4.985   5.469 -0.3475  0.6240 -0.0430
 3501TIP3    H210468   3.659   4.968   5.459 -0.1915 -0.7418 -0.1729
 3502TIP3   OH210469   6.126   0.210   2.697 -0.0737 -0.2192 -0.7614
 3502TIP3    H110470   6.084   0.274   2.755  1.0503 -2.0019  2.2440
 3502TIP3    H210471   6.218   0.235   2.696 -0.0279 -0.4008 -1.5602
 3503TIP3   OH210472   1.786   2.855   5.215 -0.0858 -0.4262 -0.2553
 3503TIP3    H110473   1.753   2.897   5.136  0.7571 -0.1618 -0.4814
 3503TIP3    H210474   1.856   2.913   5.246  0.5371 -1.2334 -0.1128
 3504TIP3   OH210475   5.321   4.447   1.578  0.0950 -0.2213  0.2371
 3504TIP3    H110476   5.410   4.412   1.570 -0.5468 -1.5112 -1.8335
 3504TIP3    H210477   5.284   4.440   1.490 -2.0057  0.4668  1.0127
 3505TIP3   OH210478   1.503   6.606   2.244 -0.5397  0.2523 -0.4173
 3505TIP3    H110479   1.446   6.584   2.171  0.4079 -1.1042 -0.7791
 3505TIP3    H210480   1.563   6.672   2.209 -2.1372  2.1121  0.1170
 3506TIP3   OH210481   2.394   0.764   3.617 -0.2949 -0.1603 -0.4133
 3506TIP3    H110482   2.305   0.740   3.640 -0.4912  0.8056 -0.1093
 3506TIP3    H210483   2.389   0.784   3.523 -0.3909 -0.1648 -0.4096
 3507TIP3   OH210484   4.097   0.581   2.046  0.1497 -0.0730  0.7534
 3507TIP3    H110485   4.013   0.620   2.072  0.3071 -0.2397  1.5419
 3507TIP3    H210486   4.081   0.487   2.048 -0.2111 -0.0877 -1.0900
 3508TIP3   OH210487   1.109   1.068   5.225 -0.3821 -0.2029  0.0029
 3508TIP3    H110488   1.059   0.988   5.243  0.4281 -0.7747 -0.2124
 3508TIP3    H210489   1.176   1.041   5.162 -0.2900  0.7258 -0.3182
 3509TIP3   OH210490   3.975   4.633   4.788  0.6476 -0.1906 -1.0272
 3509TIP3    H110491   3.923   4.630   4.868  0.0240  2.4909 -1.2589
 3509TIP3    H210492   4.066   4.632   4.819  0.5231 -2.3427 -0.5189
 3510TIP3   OH210493   5.674   0.762   2.476 -0.0669  0.0257  0.1302
 3510TIP3    H110494   5.713   0.840   2.516 -0.7597  0.0949  0.6920
 3510TIP3    H210495   5.609   0.732   2.539 -0.4232 -0.5029 -0.4693
 3511TIP3   OH210496   4.179   4.210   5.294 -0.5136 -0.1960 -0.3181
 3511TIP3    H110497   4.107   4.157   5.328 -1.4611  1.5822  0.5606
 3511TIP3    H210498   4.137   4.289   5.262  0.7884 -0.2111 -2.2433
 3512TIP3   OH210499   6.729   1.581   0.262  0.4805  0.8770 -0.4125
 3512TIP3    H110500   6.690   1.667   0.273  0.9013  1.0531 -0.2944
 3512TIP3    H210501   6.792   1.592   0.190  1.9197  1.1456  0.8447
 3513TIP3   OH210502   5.031   4.533   3.741  1.1198  0.2942 -0.1237
 3513TIP3    H110503   4.987   4.515   3.658  0.2051 -0.2747  0.4644
 3513TIP3    H210504   5.066   4.447   3.768 -0.4455 -0.0080  1.1078
 3514TIP3   OH210505   4.744   5.414   3.763 -0.2129 -0.4509 -0.0484
 3514TIP3    H110506   4.788   5.435   3.681 -2.1559  1.1151 -0.7704
 3514TIP3    H210507   4.801   5.449   3.831  0.1882  0.5372 -0.8697
 3515TIP3   OH210508   4.275   0.059   3.734  0.0319  0.1814  0.4593
 3515TIP3    H110509   4.303  -0.025   3.769  0.0738  0.3799  0.9008
 3515TIP3    H210510   4.216   0.036   3.662 -0.0798 -0.2277  0.6774
 3516TIP3   OH210511   1.211   4.679   5.258 -0.4024  0.0094  0.3698
 3516TIP3    H110512   1.298   4.651   5.285  0.0485  1.6772  0.7985
 3516TIP3    H210513   1.200   4.765   5.299 -1.8273  0.2912 -0.5251
 3517TIP3   OH210514   6.945   2.873   3.167 -0.3743  0.2252 -0.1404
 3517TIP3    H110515   6.985   2.805   3.112 -1.1196 -0.2087 -0.1576
 3517TIP3    H210516   6.912   2.937   3.104  0.2403  0.5671 -0.1275
 3518TIP3   OH210517   2.409   5.109   2.344 -0.0454 -0.4048  0.3679
 3518TIP3    H110518   2.323   5.104   2.384  0.1479 -0.9708  0.7198
 3518TIP3    H210519   2.399   5.062   2.261  0.0256 -0.8240  0.5937
 3519TIP3   OH210520   2.993   4.130   5.072 -0.2060  0.5010  0.1402
 3519TIP3    H110521   2.910   4.153   5.115 -0.1034 -3.3731  2.9156
 3519TIP3    H210522   3.053   4.199   5.097 -1.4384  0.9098  2.1770
 3520TIP3   OH210523   2.836   3.258   5.531 -0.0777  0.5590  0.4214
 3520TIP3    H110524   2.848   3.163   5.533 -0.3832  0.5223  0.6575
 3520TIP3    H210525   2.877   3.286   5.450  0.4337  0.2813  0.5825
 3521TIP3   OH210526   4.547   4.905   5.063 -0.0480  0.5921 -0.5427
 3521TIP3    H110527   4.532   4.901   4.968  0.6414  0.7714 -0.6657
 3521TIP3    H210528   4.588   4.991   5.077 -0.1400  0.5627 -0.0810
 3522TIP3   OH210529   5.724   1.592   1.345  0.2748 -0.3437  0.0512
 3522TIP3    H110530   5.795   1.655   1.353  0.3070 -0.4883  0.9808
 3522TIP3    H210531   5.691   1.604   1.256 -0.3134  1.6138  0.4883
 3523TIP3   OH210532   4.663   0.116   5.557  0.0412 -0.5605  0.1765
 3523TIP3    H110533   4.632   0.074   5.637 -0.4621 -2.6587 -1.0531
 3523TIP3    H210534   4.680   0.044   5.497 -1.8286  1.0153 -2.4252
 3524TIP3   OH210535   1.658   1.058   0.808 -0.0652  0.2588  0.0546
 3524TIP3    H110536   1.650   1.067   0.903 -1.8293 -1.0673  0.0913
 3524TIP3    H210537   1.642   0.965   0.791  1.5720  0.2045 -1.4496
 3525TIP3   OH210538   0.205   1.498   0.758  0.2753 -0.4875 -0.2603
 3525TIP3    H110539   0.257   1.569   0.795  0.0046 -0.5575  0.2704
 3525TIP3    H210540   0.268   1.444   0.710  0.3784  0.4653 -1.2260
 3526TIP3   OH210541   3.373   2.040   1.022 -0.1274 -0.1474  0.4251
 3526TIP3    H110542   3.455   2.088   1.009 -1.3448  1.9427 -0.0290
 3526TIP3    H210543   3.314   2.077   0.956 -1.2438 -2.1000  0.2695
 3527TIP3   OH210544   5.676   5.795   4.796  1.1944  0.4978 -0.7532
 3527TIP3    H110545   5.706   5.832   4.713 -0.0429 -2.7391 -2.8267
 3527TIP3    H210546   5.723   5.712   4.803 -0.2109 -0.2159  0.7480
 3528TIP3   OH210547   3.405   6.349   1.532 -0.3338  0.0214 -0.0468
 3528TIP3    H110548   3.399   6.420   1.469  0.8984 -0.0085 -0.2283
 3528TIP3    H210549   3.497   6.350   1.561 -0.8807  0.1427  1.8643
 3529TIP3   OH210550   3.050   5.719   4.766  0.4178  0.5855  0.1030
 3529TIP3    H110551   2.989   5.776   4.719  0.2727  0.2087 -0.1689
 3529TIP3    H210552   3.113   5.690   4.700 -0.0628 -0.3223  0.0215
 3530TIP3   OH210553   6.450   6.239   0.380  0.3665 -0.1037  0.5570
 3530TIP3    H110554   6.463   6.179   0.307 -1.9886 -0.0243 -0.0054
 3530TIP3    H210555   6.415   6.319   0.340 -0.5633  0.0931  1.7145
 3531TIP3   OH210556   2.839   4.671   0.448  0.7434  0.2968  0.5092
 3531TIP3    H110557   2.900   4.699   0.380  0.0050 -0.2621 -0.4098
 3531TIP3    H210558   2.782   4.747   0.462  0.9851  0.4611  0.6056
 3532TIP3   OH210559   0.273   1.299   2.653 -0.9257 -0.0977  0.3709
 3532TIP3    H110560   0.291   1.210   2.685  1.0369  0.1505  0.0890
 3532TIP3    H210561   0.274   1.291   2.558 -1.1694  0.1493  0.3481
 3533TIP3   OH210562   2.600   1.489   3.348  0.2759 -0.3194  0.2843
 3533TIP3    H110563   2.529   1.522   3.293  0.6240  1.6340  0.8927
 3533TIP3    H210564   2.585   1.395   3.355 -2.0983  0.0077  0.1838
 3534TIP3   OH210565   0.607   1.317   5.077 -0.1426  0.4111 -0.0242
 3534TIP3    H110566   0.684   1.263   5.061 -0.2989 -0.0692  0.7619
 3534TIP3    H210567   0.547   1.295   5.005 -0.1086 -0.2993  0.1535
 3535TIP3   OH210568   4.591   1.392   4.497 -0.2690  0.4020  0.0310
 3535TIP3    H110569   4.585   1.467   4.438 -1.6332  0.3822  0.1279
 3535TIP3    H210570   4.668   1.344   4.466  0.3475  1.5785 -0.3200
 3536TIP3   OH210571   3.254   1.556   1.297  0.0247 -0.0218  0.3363
 3536TIP3    H110572   3.223   1.646   1.297  0.5120  0.1672 -0.9923
 3536TIP3    H210573   3.175   1.503   1.304 -0.3864  0.4921 -0.3500
 3537TIP3   OH210574   0.278   3.992   5.863 -0.4426  0.5727 -0.4161
 3537TIP3    H110575   0.322   4.057   5.808  1.1381 -1.1111 -1.2302
 3537TIP3    H210576   0.326   3.993   5.945  0.4704 -0.4969 -0.9174
 3538TIP3   OH210577   2.260   0.457   5.706  0.0758  0.7896  0.3765
 3538TIP3    H110578   2.226   0.417   5.626  0.0336  0.3239  0.6232
 3538TIP3    H210579   2.218   0.543   5.711 -1.1179  0.2000  0.7066
 3539TIP3   OH210580   3.646   1.454   1.058 -0.3609 -0.3209  0.0970
 3539TIP3    H110581   3.654   1.501   0.975 -0.2376 -1.4191 -0.5351
 3539TIP3    H210582   3.703   1.501   1.118 -0.2962  0.3689 -0.4921
 3540TIP3   OH210583   6.174   5.274   5.864 -0.4242 -0.3325  0.1308
 3540TIP3    H110584   6.161   5.181   5.880 -1.4355 -0.4869 -1.3772
 3540TIP3    H210585   6.089   5.314   5.885 -0.5622 -0.0292 -0.9379
 3541TIP3   OH210586   2.122   5.546   3.370  0.0948  0.0656  1.2333
 3541TIP3    H110587   2.104   5.635   3.402  0.8182  0.2001  1.2764
 3541TIP3    H210588   2.194   5.557   3.308  0.2174 -0.4996  1.2756
 3542TIP3   OH210589   0.324   6.428   5.582  0.4992  0.2476 -0.2455
 3542TIP3    H110590   0.307   6.521   5.596 -1.3082  0.2161 -1.7624
 3542TIP3    H210591   0.239   6.386   5.593  1.0586 -1.0714 -0.7102
 3543TIP3   OH210592   2.498   6.099   1.218 -0.3857 -0.6200 -0.1039
 3543TIP3    H110593   2.513   6.085   1.124 -0.6208 -0.0237 -0.2363
 3543TIP3    H210594   2.405   6.121   1.225 -0.6999 -2.0231  0.4414
 3544TIP3   OH210595   6.880   0.629   5.610 -0.1154  0.2830 -0.3032
 3544TIP3    H110596   6.926   0.549   5.635 -1.4620 -0.0844  1.2245
 3544TIP3    H210597   6.879   0.629   5.515 -0.3442 -1.6961 -0.3282
 3545TIP3   OH210598   3.304   2.372   0.835  0.3262 -0.2351  0.4398
 3545TIP3    H110599   3.262   2.355   0.919  0.5249  0.3869  0.6695
 3545TIP3    H210600   3.396   2.389   0.856  1.3132 -3.8770 -0.2623
 3546TIP3   OH210601   5.540   1.079   5.147 -0.4333  0.2030  0.3955
 3546TIP3    H110602   5.476   1.096   5.216 -0.6956 -0.1053  0.2330
 3546TIP3    H210603   5.624   1.077   5.192 -0.4061  1.7627  0.4416
 3547TIP3   OH210604   6.207   1.831   0.644  0.1096  0.1399  0.4253
 3547TIP3    H110605   6.299   1.814   0.666 -0.2867  0.0002  2.1318
 3547TIP3    H210606   6.209   1.911   0.592  1.1521  0.4340  0.8873
 3548TIP3   OH210607   7.191   6.338   1.565  0.6807 -0.1928 -0.9810
 3548TIP3    H110608   7.197   6.247   1.538 -0.2271  0.2074 -2.6350
 3548TIP3    H210609   7.169   6.334   1.658  3.9145 -1.6247 -0.1243
 3549TIP3   OH210610   1.267   6.045   3.840  0.0042 -0.1719  0.2120
 3549TIP3    H110611   1.321   6.123   3.826 -0.0166 -0.0436  0.8083
 3549TIP3    H210612   1.329   5.977   3.865  0.0070 -0.3181 -0.1800
 3550TIP3   OH210613   5.390   0.781   3.575  0.5221 -0.3644 -0.0083
 3550TIP3    H110614   5.362   0.771   3.483  0.7877  0.6200 -0.2116
 3550TIP3    H210615   5.468   0.836   3.570 -0.1624  0.7205  0.8870
 3551TIP3   OH210616   3.993   1.482   1.028 -0.0722  0.6164  0.2715
 3551TIP3    H110617   3.922   1.462   1.089 -0.6127  0.0651 -0.5174
 3551TIP3    H210618   4.047   1.547   1.074  2.1510 -2.9288  3.3288
 3552TIP3   OH210619   4.402   3.281   2.147 -0.0128  0.4285  0.2862
 3552TIP3    H110620   4.424   3.202   2.196 -1.8028  0.3274  0.9839
 3552TIP3    H210621   4.348   3.332   2.207  0.2576  1.7111 -0.5321
 3553TIP3   OH210622   4.579   0.802   2.018  0.4828  0.2690 -0.3101
 3553TIP3    H110623   4.521   0.831   1.949 -1.1898 -0.8343  0.5777
 3553TIP3    H210624   4.610   0.716   1.990  0.5692  0.2424 -0.1380
 3554TIP3   OH210625   0.190   3.262   5.220 -0.3634 -0.1941  0.1689
 3554TIP3    H110626   0.160   3.191   5.163 -0.4000  0.5765 -0.7879
 3554TIP3    H210627   0.113   3.284   5.272 -0.8092  0.1965 -0.6360
 3555TIP3   OH210628   4.423   2.743   1.852 -0.3008 -0.5906 -0.3239
 3555TIP3    H110629   4.385   2.723   1.937  2.3371 -1.2946  0.7868
 3555TIP3    H210630   4.407   2.837   1.840 -2.3908 -0.8656 -0.0104
 3556TIP3   OH210631   5.288   1.775   5.095  0.1310  0.1068 -0.0955
 3556TIP3    H110632   5.289   1.725   5.013 -0.5583  0.4484 -0.3177
 3556TIP3    H210633   5.195   1.787   5.115  0.2302  2.5442 -0.8261
 3557TIP3   OH210634   1.853   6.336   3.704  0.4103  0.3578 -0.2560
 3557TIP3    H110635   1.903   6.287   3.769 -1.0018  0.0606  0.6546
 3557TIP3    H210636   1.788   6.273   3.672 -0.1188  1.0449 -0.5570
 3558TIP3   OH210637   4.339   1.970   4.791  0.0383 -0.5871  0.2440
 3558TIP3    H110638   4.302   1.965   4.703 -0.7515  0.2096  0.5148
 3558TIP3    H210639   4.416   2.027   4.781  0.0547 -0.6419  0.0400
 3559TIP3   OH210640   4.403   2.489   4.488  0.4096 -0.2071 -0.7146
 3559TIP3    H110641   4.355   2.535   4.556 -1.4489 -1.6872 -0.9317
 3559TIP3    H210642   4.473   2.442   4.534  0.8196  0.8679 -0.2089
 3560TIP3   OH210643   2.785   2.591   1.714  0.5756  0.1516  0.1252
 3560TIP3    H110644   2.792   2.661   1.650  0.0408  0.0743 -0.0249
 3560TIP3    H210645   2.691   2.576   1.723  0.6318  0.3180  1.0991
 3561TIP3   OH210646   1.868   2.327   0.173 -0.0252 -0.4357 -0.0317
 3561TIP3    H110647   1.957   2.338   0.141 -0.6296  1.9909 -1.0922
 3561TIP3    H210648   1.825   2.272   0.107  0.9609 -2.8989  1.2243
 3562TIP3   OH210649   4.431   1.205   3.607  0.0103 -0.0266  0.3239
 3562TIP3    H110650   4.405   1.250   3.688 -0.0636  2.0251 -0.7901
 3562TIP3    H210651   4.526   1.217   3.603 -0.1350  0.9590 -0.4868
 3563TIP3   OH210652   4.597   0.675   3.899 -0.7238 -1.0919 -0.4216
 3563TIP3    H110653   4.550   0.757   3.888 -2.1655 -1.7073  0.8049
 3563TIP3    H210654   4.656   0.671   3.824 -0.1310  1.3489 -0.1546
 3564TIP3   OH210655   6.871   1.468   5.019 -0.5473 -0.0099 -0.8226
 3564TIP3    H110656   6.851   1.379   4.988 -0.1714 -0.4888  0.2490
 3564TIP3    H210657   6.863   1.523   4.942  1.7781 -1.3464 -2.1466
 3565TIP3   OH210658   6.499   1.525   3.232  0.7471 -0.1054 -0.1389
 3565TIP3    H110659   6.588   1.507   3.261 -0.0380 -0.0298  2.5576
 3565TIP3    H210660   6.447   1.453   3.269 -0.5219  0.6814 -0.3404
 3566TIP3   OH210661   2.896   4.969   4.060  0.5973  0.1000 -0.0584
 3566TIP3    H110662   2.970   4.997   4.005  0.3790  0.1407 -0.3294
 3566TIP3    H210663   2.839   4.920   4.001 -0.8378  2.1535 -0.4939
 3567TIP3   OH210664   1.702   1.074   1.084 -0.0744 -0.1936  0.7856
 3567TIP3    H110665   1.660   1.159   1.078  0.5773  0.0504 -1.7629
 3567TIP3    H210666   1.793   1.093   1.105  0.2648 -0.1319 -0.6066
 3568TIP3   OH210667   2.810   0.868   5.031 -0.0092  0.3631 -0.4904
 3568TIP3    H110668   2.807   0.777   5.059  1.8034  0.2204 -0.6930
 3568TIP3    H210669   2.821   0.918   5.112 -0.7394  0.3990 -0.4059
 3569TIP3   OH210670   5.854   5.590   4.224 -0.0733 -0.1386 -0.0859
 3569TIP3    H110671   5.784   5.650   4.249 -0.7639 -1.4738  1.3729
 3569TIP3    H210672   5.929   5.617   4.277 -0.2974 -0.3861  0.3584
 3570TIP3   OH210673   6.591   5.063   0.407 -0.1962 -0.6643 -0.0044
 3570TIP3    H110674   6.595   5.155   0.384  1.5499 -0.0638  2.2743
 3570TIP3    H210675   6.523   5.058   0.475 -0.5556 -1.1414 -0.3893
 3571TIP3   OH210676   3.682   6.507   2.208 -0.0124  0.0365  0.3192
 3571TIP3    H110677   3.738   6.521   2.285  0.4550 -0.8480  0.1610
 3571TIP3    H210678   3.644   6.420   2.222  0.5853 -0.4142 -0.7417
 3572TIP3   OH210679   4.129   1.478   2.662 -0.0205  0.0035 -0.0185
 3572TIP3    H110680   4.217   1.489   2.698  0.1100 -1.0300 -0.0173
 3572TIP3    H210681   4.140   1.419   2.588 -0.5672  0.6965 -0.6770
 3573TIP3   OH210682   6.470   1.181   0.766  0.2160  0.2398  0.5444
 3573TIP3    H110683   6.517   1.221   0.693  1.0737  0.2631  1.1016
 3573TIP3    H210684   6.533   1.180   0.838 -0.1023 -1.2566  0.8262
 3574TIP3   OH210685   1.615   0.751   1.490 -0.1420 -0.0770 -0.2319
 3574TIP3    H110686   1.664   0.741   1.572 -0.7033 -2.4351 -0.1066
 3574TIP3    H210687   1.555   0.822   1.507 -0.2523 -0.5271  1.4426
 3575TIP3   OH210688   4.985   5.525   2.539  0.1008 -0.8004 -0.2890
 3575TIP3    H110689   4.974   5.466   2.613 -1.1248  0.4137  0.5417
 3575TIP3    H210690   4.984   5.468   2.462 -0.8925 -1.8735  0.4940
 3576TIP3   OH210691   4.387   6.067   3.213 -0.1802 -0.5732 -0.1385
 3576TIP3    H110692   4.426   6.154   3.226 -1.0084 -0.1870 -0.1480
 3576TIP3    H210693   4.296   6.086   3.188 -0.4795 -1.4488  0.2494
 3577TIP3   OH210694   0.955   1.398   0.853 -0.2305 -0.0113  0.0753
 3577TIP3    H110695   0.945   1.324   0.793  0.7506  0.4178 -0.6335
 3577TIP3    H210696   0.963   1.475   0.796 -2.0508  0.7783  0.8025
 3578TIP3   OH210697   6.078   0.532   3.914 -0.1844 -0.2401  0.0228
 3578TIP3    H110698   6.090   0.478   3.992  1.6867 -1.4815 -1.0554
 3578TIP3    H210699   6.014   0.485   3.861 -0.4632 -0.0713  0.2050
 3579TIP3   OH210700   2.497   4.757   0.944 -0.2694 -0.0151 -0.6690
 3579TIP3    H110701   2.572   4.777   0.888 -0.3585 -2.2946 -1.7001
 3579TIP3    H210702   2.532   4.698   1.011 -0.5506  1.2683  0.6482
 3580TIP3   OH210703   1.185   2.283   3.520 -0.4599  0.1083 -0.3393
 3580TIP3    H110704   1.158   2.349   3.457  0.7197 -0.6838 -1.7178
 3580TIP3    H210705   1.238   2.330   3.584  1.3064  0.3544 -1.9181
 3581TIP3   OH210706   0.344   2.535   1.095  0.0196 -0.2025  0.2700
 3581TIP3    H110707   0.335   2.503   1.184  0.5282 -2.5524 -0.4636
 3581TIP3    H210708   0.427   2.583   1.095  0.4188 -0.8788  0.8841
 3582TIP3   OH210709   1.610   0.850   5.418  0.3151 -0.3044  0.4181
 3582TIP3    H110710   1.579   0.765   5.450  1.9991 -0.7022  1.1167
 3582TIP3    H210711   1.630   0.835   5.326 -0.6041 -0.2967  0.2061
 3583TIP3   OH210712   0.473   2.899   4.533  0.7322  0.1039  0.2403
 3583TIP3    H110713   0.469   2.813   4.575  1.7314  0.3480  0.8755
 3583TIP3    H210714   0.443   2.960   4.600 -1.1676  0.1629 -0.6021
 3584TIP3   OH210715   6.923   6.110   1.598 -0.0170  0.3961 -0.2380
 3584TIP3    H110716   6.906   6.197   1.563 -0.7642  0.0650 -0.7280
 3584TIP3    H210717   6.841   6.062   1.585  0.6949 -0.6935 -0.9424
 3585TIP3   OH210718   2.429   3.391   1.349 -0.6216  0.1966  0.0266
 3585TIP3    H110719   2.509   3.378   1.300 -1.3253  0.1395 -1.1475
 3585TIP3    H210720   2.443   3.472   1.397 -0.5583  1.2338 -1.6663
 3586TIP3   OH210721   5.204   0.935   1.736 -0.0941 -0.4965  0.0318
 3586TIP3    H110722   5.208   0.872   1.808 -0.0411 -1.0354 -0.4319
 3586TIP3    H210723   5.295   0.957   1.718 -0.1682  1.1436  1.3974
 3587TIP3   OH210724   1.696   5.731   5.348  0.1749  0.2859  0.9922
 3587TIP3    H110725   1.659   5.683   5.275 -0.5516 -0.7050  1.9825
 3587TIP3    H210726   1.686   5.823   5.324  0.0388 -0.0182 -0.1797
 3588TIP3   OH210727   4.803   4.055   2.292  0.3134 -0.4243 -0.1428
 3588TIP3    H110728   4.718   4.039   2.251  0.8806  1.1323 -2.0842
 3588TIP3    H210729   4.781   4.088   2.380 -1.1837  1.4466 -1.1363
 3589TIP3   OH210730   1.205   4.829   5.674  0.4909 -0.4345 -0.0920
 3589TIP3    H110731   1.217   4.734   5.668  0.3398 -0.6244  2.0605
 3589TIP3    H210732   1.111   4.842   5.659  0.5552 -0.5821 -0.6491
 3590TIP3   OH210733   3.312   0.428   1.934 -0.1868  0.0086  0.2591
 3590TIP3    H110734   3.298   0.342   1.895 -1.8291  0.3731 -0.0185
 3590TIP3    H210735   3.362   0.411   2.013 -2.0524 -1.4308  1.2055
 3591TIP3   OH210736   5.123   6.136   0.499 -0.3909  0.3454 -0.0121
 3591TIP3    H110737   5.124   6.076   0.425 -0.6647  0.5336 -0.1670
 3591TIP3    H210738   5.051   6.196   0.481  0.4182  1.2574 -0.2843
 3592TIP3   OH210739   7.073   1.016   3.224  0.6374  0.0560 -0.9359
 3592TIP3    H110740   7.017   0.940   3.209 -1.0279  1.3798 -1.8029
 3592TIP3    H210741   7.095   1.012   3.317  0.7319 -1.5648 -1.0069
 3593TIP3   OH210742   2.287   3.243   1.732  0.3928 -0.1009  0.7194
 3593TIP3    H110743   2.378   3.230   1.756  0.6389 -0.5753 -0.3872
 3593TIP3    H210744   2.237   3.209   1.806  1.0581  2.8536  2.6864
 3594TIP3   OH210745   0.048   2.089   3.020 -0.0121  0.5119  0.3623
 3594TIP3    H110746   0.076   2.177   3.047  0.0663  0.7026 -0.3364
 3594TIP3    H210747  -0.006   2.103   2.943  0.1896 -0.0682  0.1086
 3595TIP3   OH210748   4.694   3.100   4.131  0.2057 -0.2400 -0.0180
 3595TIP3    H110749   4.773   3.155   4.135 -0.3469  0.5085  1.6339
 3595TIP3    H210750   4.679   3.074   4.222 -1.3289 -0.5579 -0.3437
 3596TIP3   OH210751   2.763   6.216   4.313  0.1296 -0.1161 -0.0715
 3596TIP3    H110752   2.753   6.123   4.293 -1.9456  0.4580 -2.2163
 3596TIP3    H210753   2.834   6.246   4.255  0.3286 -0.2118  0.1203
 3597TIP3   OH210754   4.122   4.030   2.828 -0.5440  0.4044  0.7497
 3597TIP3    H110755   4.137   4.059   2.738 -1.9702 -1.1383 -0.0248
 3597TIP3    H210756   4.028   4.013   2.832 -0.3603 -0.3919  2.2752
 3598TIP3   OH210757   1.550   0.672   2.091 -0.3030 -0.1259 -0.6209
 3598TIP3    H110758   1.559   0.633   2.178  0.9122 -1.2829 -1.2463
 3598TIP3    H210759   1.472   0.631   2.055  1.8855 -3.5219 -1.9622
 3599TIP3   OH210760   2.709   0.980   3.936  0.5734 -0.8409 -0.6343
 3599TIP3    H110761   2.766   0.921   3.886  1.8133 -0.0870 -0.1554
 3599TIP3    H210762   2.748   1.066   3.926  0.8960 -0.6578  1.6025
 3600TIP3   OH210763   1.790   6.417   2.535 -0.0170 -0.0632  0.4965
 3600TIP3    H110764   1.722   6.351   2.539 -0.7899  0.7150  0.4766
 3600TIP3    H210765   1.756   6.484   2.475  1.3604 -0.3269 -0.6434
 3601TIP3   OH210766   7.082   6.105   3.866 -0.0998 -0.3107  0.4092
 3601TIP3    H110767   7.014   6.113   3.800  0.1147 -2.9737 -0.2482
 3601TIP3    H210768   7.155   6.062   3.820  1.6051  1.3685  1.3995
 3602TIP3   OH210769   5.787   4.484   2.178  0.2073  0.1361  0.0571
 3602TIP3    H110770   5.717   4.548   2.167  0.0708  0.0800  0.5358
 3602TIP3    H210771   5.756   4.406   2.133  0.3842  0.4126 -0.5445
 3603TIP3   OH210772   4.384   2.695   5.353 -0.5209 -0.7465  0.1264
 3603TIP3    H110773   4.290   2.681   5.365 -0.8686  2.1816  1.8219
 3603TIP3    H210774   4.391   2.786   5.324  1.8155 -0.8842  0.0954
 3604TIP3   OH210775   5.595   0.350   5.521 -0.1556  0.1627  0.1093
 3604TIP3    H110776   5.614   0.408   5.594  1.7511 -0.1047 -0.1298
 3604TIP3    H210777   5.665   0.366   5.458 -0.6662 -1.0037 -0.8013
 3605TIP3   OH210778   2.239   4.620   2.661 -0.3575  0.1551  0.1944
 3605TIP3    H110779   2.325   4.657   2.683 -0.1418 -0.9108  1.2269
 3605TIP3    H210780   2.255   4.573   2.579 -0.3372  1.2453 -0.4437
 3606TIP3   OH210781   1.896   0.977   0.349  0.0248  0.9460 -0.2520
 3606TIP3    H110782   1.872   0.969   0.441 -0.7742  1.2723 -0.4213
 3606TIP3    H210783   1.904   0.887   0.318 -0.6336  0.8221 -0.0837
 3607TIP3   OH210784   1.252   5.120   4.889 -0.1158 -0.2241  0.0078
 3607TIP3    H110785   1.238   5.113   4.984  0.2213  0.6884  0.1302
 3607TIP3    H210786   1.312   5.049   4.869 -0.6404 -0.7856  0.3782
 3608TIP3   OH210787   3.664   5.220   2.569 -0.0418  0.3249  0.2804
 3608TIP3    H110788   3.758   5.233   2.582  0.1583  1.3968 -1.8136
 3608TIP3    H210789   3.626   5.308   2.575 -0.6488  0.1378 -0.5849
 3609TIP3   OH210790   6.862   6.786   5.532  0.5343 -0.4025 -0.1131
 3609TIP3    H110791   6.791   6.811   5.472  0.3363 -1.0641 -0.1689
 3609TIP3    H210792   6.826   6.802   5.619 -0.4554 -2.5282 -0.0500
 3610TIP3   OH210793   4.390   1.073   2.812  0.5993 -0.2000 -0.6253
 3610TIP3    H110794   4.376   1.139   2.879 -1.3101  0.2870 -1.4244
 3610TIP3    H210795   4.440   1.004   2.856 -0.4482  0.1635  1.2716
 3611TIP3   OH210796   3.076   5.920   2.120 -0.0162 -0.4942  0.3695
 3611TIP3    H110797   3.122   6.004   2.117 -1.1782  0.1560  0.0148
 3611TIP3    H210798   2.999   5.934   2.065 -1.6250 -0.9320  2.3999
 3612TIP3   OH210799   1.554   5.734   2.930  0.1037 -0.5048  0.6805
 3612TIP3    H110800   1.607   5.807   2.900 -1.5789  0.4777 -0.0888
 3612TIP3    H210801   1.573   5.663   2.869 -1.0642  0.5350 -0.9693
 3613TIP3   OH210802   3.035   0.196   2.640 -0.4421  0.0757  0.0146
 3613TIP3    H110803   3.054   0.275   2.691  2.6269  0.0304 -0.7979
 3613TIP3    H210804   3.037   0.226   2.549 -0.6064 -0.6904 -0.2473
 3614TIP3   OH210805   1.574   0.183   0.544  0.0906 -0.1340  0.0646
 3614TIP3    H110806   1.605   0.121   0.610 -1.2036  1.3181  2.1664
 3614TIP3    H210807   1.520   0.245   0.593 -2.2179  0.1661 -2.6174
 3615TIP3   OH210808   4.721   2.062   0.314 -0.1706 -0.0347 -0.1228
 3615TIP3    H110809   4.651   1.999   0.296 -0.5592  0.4690 -0.4057
 3615TIP3    H210810   4.732   2.058   0.409 -0.2098 -0.5049 -0.1349
 3616TIP3   OH210811   0.734   6.200   0.225 -0.7557 -0.0647 -0.2436
 3616TIP3    H110812   0.698   6.169   0.142 -0.7947 -0.2634 -0.1548
 3616TIP3    H210813   0.780   6.123   0.260 -0.8949 -0.0346  0.0044
 3617TIP3   OH210814   6.067   5.675   2.355 -0.5717 -0.4318 -0.2792
 3617TIP3    H110815   6.135   5.622   2.395 -0.0251  0.3802 -0.1115
 3617TIP3    H210816   5.985   5.640   2.390 -0.2345 -1.2919 -0.3376
 3618TIP3   OH210817   2.523   3.085   3.070 -0.4302  0.2716  0.1911
 3618TIP3    H110818   2.496   3.145   3.140 -2.9846  0.3847 -0.7650
 3618TIP3    H210819   2.617   3.100   3.060 -0.5988  2.5983  1.3964
 3619TIP3   OH210820   3.680   3.920   1.383 -0.3945 -0.1798 -0.1909
 3619TIP3    H110821   3.701   4.013   1.373  1.8703 -0.8727 -4.2016
 3619TIP3    H210822   3.756   3.884   1.429 -0.7500 -0.2123  0.3707
 3620TIP3   OH210823   2.113   5.318   0.253 -0.2970 -0.1076 -0.0951
 3620TIP3    H110824   2.130   5.295   0.161  0.9233 -2.1908  0.5688
 3620TIP3    H210825   2.188   5.370   0.279  0.1854 -0.8882  0.1250
 3621TIP3   OH210826   6.029   4.161   5.101 -0.1390 -0.2479 -0.5304
 3621TIP3    H110827   5.947   4.112   5.094  0.1713 -0.7369 -0.7524
 3621TIP3    H210828   6.002   4.248   5.129 -0.7269 -0.4385 -0.4899
 3622TIP3   OH210829   0.322   4.220   3.831 -0.2695  0.1982  0.3317
 3622TIP3    H110830   0.368   4.253   3.754  0.1605 -1.2325 -0.0448
 3622TIP3    H210831   0.337   4.287   3.898 -2.2429  2.4358 -1.2858
 3623TIP3   OH210832   3.515   1.939   0.422  0.6936  0.3842 -0.5669
 3623TIP3    H110833   3.564   1.959   0.502  3.0464 -0.2100 -1.7522
 3623TIP3    H210834   3.490   1.847   0.432 -0.2055  0.6823  0.0342
 3624TIP3   OH210835   2.752   6.789   5.242  0.2621  0.7827 -0.1246
 3624TIP3    H110836   2.816   6.794   5.171 -0.5505  0.2692 -0.9204
 3624TIP3    H210837   2.793   6.734   5.308  0.9878  1.1726 -0.2412
 3625TIP3   OH210838   0.120   0.041   0.595 -0.0245  0.4488  0.4084
 3625TIP3    H110839   0.096   0.085   0.677  1.5848  1.7813  0.2178
 3625TIP3    H210840   0.043   0.053   0.538 -1.5150 -1.2581  1.9443
 3626TIP3   OH210841   5.608   0.499   1.548 -0.5448  0.6173 -0.1040
 3626TIP3    H110842   5.645   0.587   1.535 -0.6949  0.6172 -0.5639
 3626TIP3    H210843   5.567   0.478   1.463  0.4591 -0.3595 -0.3616
 3627TIP3   OH210844   2.969   6.664   2.581 -0.3099 -0.4068 -0.0836
 3627TIP3    H110845   3.011   6.625   2.505  0.9755 -0.4439  0.6133
 3627TIP3    H210846   2.949   6.753   2.555 -1.3765 -0.8904 -0.9925
 3628TIP3   OH210847   5.558   4.311   1.614 -0.0503  0.2125  0.4018
 3628TIP3    H110848   5.615   4.297   1.538  0.2328 -0.4324  0.7263
 3628TIP3    H210849   5.606   4.375   1.667  0.7295 -0.8680  1.0258
 3629TIP3   OH210850   0.643   5.743   0.021 -0.0303 -0.3467  0.1922
 3629TIP3    H110851   0.608   5.750   0.110 -0.0488 -0.1573  0.1710
 3629TIP3    H210852   0.645   5.649   0.003  0.5762 -0.4296  0.6324
 3630TIP3   OH210853   0.870   6.484   1.883  0.1175  0.1149 -0.7232
 3630TIP3    H110854   0.873   6.394   1.853  0.9181 -0.4396  0.9295
 3630TIP3    H210855   0.807   6.527   1.824  1.6697 -0.8376 -3.2154
 3631TIP3   OH210856   0.776   2.686   2.150 -0.3393  0.1966 -0.0562
 3631TIP3    H110857   0.734   2.762   2.190 -3.3781 -2.5580  2.5897
 3631TIP3    H210858   0.863   2.683   2.190 -0.2215  2.0818 -0.0813
 3632TIP3   OH210859   1.928   6.580   2.745  0.7685  0.2274  0.0915
 3632TIP3    H110860   1.890   6.554   2.661 -2.6300  2.3988  0.7787
 3632TIP3    H210861   1.913   6.674   2.751  1.8264  0.3263  2.6818
 3633TIP3   OH210862   6.172   1.745   4.778  0.4204  0.1991 -0.0038
 3633TIP3    H110863   6.214   1.735   4.693  0.3062 -0.7471  0.0347
 3633TIP3    H210864   6.178   1.838   4.798  2.0891  0.1708 -0.2143
 3634TIP3   OH210865   2.034   3.140   4.873  0.6263  0.3104  0.4490
 3634TIP3    H110866   1.990   3.184   4.946 -0.1112  0.3861 -0.0214
 3634TIP3    H210867   2.038   3.207   4.804  0.2453 -0.1037  0.0138
 3635TIP3   OH210868   4.512   4.253   1.603  0.7710 -0.3953 -0.3972
 3635TIP3    H110869   4.514   4.267   1.697 -0.0226 -0.0393 -0.4271
 3635TIP3    H210870   4.604   4.248   1.577  1.0275 -2.6447  0.6930
 3636TIP3   OH210871   1.015   1.982   2.064 -0.1562 -0.1258  0.1809
 3636TIP3    H110872   0.968   2.066   2.063 -2.1679 -1.1897 -1.2858
 3636TIP3    H210873   1.095   1.999   2.015 -0.5411  0.9224 -0.1160
 3637TIP3   OH210874   3.907   5.257   2.575  0.2184 -0.1217 -0.0668
 3637TIP3    H110875   3.985   5.208   2.551 -0.2603 -1.4200  0.8650
 3637TIP3    H210876   3.940   5.331   2.627  0.7797 -2.0036  2.4832
 3638TIP3   OH210877   1.285   5.963   2.734 -0.7373 -0.9865  1.0856
 3638TIP3    H110878   1.323   5.968   2.646 -2.0590  2.6323  0.5300
 3638TIP3    H210879   1.193   5.985   2.722 -0.7325  0.7487  3.4294
 3639TIP3   OH210880   2.194   3.293   2.039  0.1216 -0.2383 -0.1670
 3639TIP3    H110881   2.230   3.381   2.030  0.2522 -0.3129 -0.3776
 3639TIP3    H210882   2.104   3.301   2.007  0.3729 -0.3498 -0.9266
 3640TIP3   OH210883   5.978   6.235   3.441  0.1274 -0.2997  0.8014
 3640TIP3    H110884   6.048   6.170   3.437 -1.7655 -2.4536 -3.0236
 3640TIP3    H210885   5.902   6.185   3.472 -1.1010  0.3099 -1.0952
 3641TIP3   OH210886   3.224   5.833   2.833 -0.1777 -0.1594 -0.2584
 3641TIP3    H110887   3.203   5.866   2.920 -2.6434  0.4952 -1.0137
 3641TIP3    H210888   3.265   5.908   2.788  1.1783 -0.5251  0.3117
 3642TIP3   OH210889   6.091   5.395   1.373 -0.0555  0.1889 -0.3772
 3642TIP3    H110890   6.187   5.394   1.380 -0.1510 -0.0154  1.4257
 3642TIP3    H210891   6.071   5.319   1.319  0.8293  0.8915 -1.7603
 3643TIP3   OH210892   6.731   6.484   3.469  0.3811  0.0924 -0.3458
 3643TIP3    H110893   6.693   6.567   3.437  0.5504  0.1736 -0.3352
 3643TIP3    H210894   6.814   6.510   3.510 -0.7274  0.2860  1.9682
 3644TIP3   OH210895   1.342   1.649   1.481 -0.4745 -0.1084 -0.4381
 3644TIP3    H110896   1.361   1.556   1.466  0.8644  0.1797 -0.6039
 3644TIP3    H210897   1.391   1.695   1.413 -0.1390  0.7904  0.3934
 3645TIP3   OH210898   0.102   2.238   5.728 -0.2491  0.5025  0.3197
 3645TIP3    H110899   0.068   2.226   5.817 -0.5210  0.6796  0.2405
 3645TIP3    H210900   0.194   2.215   5.735  0.0222  1.6899  0.9177
 3646TIP3   OH210901   6.098   6.697   1.603  0.1713  0.9176  0.1855
 3646TIP3    H110902   6.168   6.662   1.658 -0.9961  0.3097  1.3294
 3646TIP3    H210903   6.081   6.627   1.539 -0.2663  0.5064  0.7354
 3647TIP3   OH210904   5.553   0.441   2.409  0.4187 -0.0232 -0.1016
 3647TIP3    H110905   5.492   0.515   2.407  2.2871  1.5759 -1.0647
 3647TIP3    H210906   5.520   0.381   2.341 -0.3725  0.5357 -0.2243
 3648TIP3   OH210907   6.490   6.088   0.909  0.4053 -0.2198  0.0856
 3648TIP3    H110908   6.529   6.129   0.831 -0.4874  1.4429  0.4738
 3648TIP3    H210909   6.535   6.130   0.983 -1.8618  1.5725  0.5351
 3649TIP3   OH210910   4.374   6.165   0.937 -0.6593  0.4333 -0.0827
 3649TIP3    H110911   4.462   6.129   0.933 -0.7195  0.3007 -0.1983
 3649TIP3    H210912   4.366   6.197   1.027 -0.3589  0.7838 -0.1759
 3650TIP3   OH210913   6.707   4.283   0.702  0.2554 -0.2436  0.7146
 3650TIP3    H110914   6.765   4.210   0.679  0.1402 -0.6210  1.5766
 3650TIP3    H210915   6.758   4.361   0.682  0.0978 -0.5291 -0.9651
 3651TIP3   OH210916   6.680   2.961   5.166  0.2632 -0.2828 -0.6931
 3651TIP3    H110917   6.591   2.995   5.167 -0.4771 -2.0896  0.8917
 3651TIP3    H210918   6.681   2.897   5.094 -0.8238 -2.7148  1.2911
 3652TIP3   OH210919   5.095   0.238   3.565 -0.2644 -0.2107 -0.1050
 3652TIP3    H110920   5.146   0.294   3.622  0.5036 -0.8559 -0.1541
 3652TIP3    H210921   5.138   0.153   3.568 -0.0948 -0.2185 -1.7718
 3653TIP3   OH210922   2.362   3.889   5.070 -0.4605 -0.1252 -0.3621
 3653TIP3    H110923   2.377   3.845   5.154  1.5485 -0.5935 -0.9100
 3653TIP3    H210924   2.434   3.860   5.015 -0.8560  1.4131 -1.7592
 3654TIP3   OH210925   4.837   1.140   0.851  0.4552 -0.5193 -0.4832
 3654TIP3    H110926   4.777   1.093   0.909  0.6415  0.7670  0.7959
 3654TIP3    H210927   4.833   1.231   0.880  3.2504 -0.4167 -0.1064
 3655TIP3   OH210928   2.819   1.298   5.073  0.0798 -0.6630  0.4973
 3655TIP3    H110929   2.748   1.238   5.095 -0.4206  0.2030  1.3178
 3655TIP3    H210930   2.801   1.325   4.983 -0.2078 -1.0215  0.4455
 3656TIP3   OH210931   5.931   4.779   5.707  0.1515 -0.0766  0.1260
 3656TIP3    H110932   5.982   4.737   5.638 -0.2203  0.2817 -0.3728
 3656TIP3    H210933   5.919   4.710   5.772 -0.4171 -0.7473 -0.6654
 3657TIP3   OH210934   4.475   1.448   0.534 -0.1398 -0.1401  0.2195
 3657TIP3    H110935   4.436   1.395   0.465 -0.6884 -0.8856  1.0763
 3657TIP3    H210936   4.412   1.445   0.606  0.1104  1.1664  0.5195
 3658TIP3   OH210937   2.678   2.682   4.071 -0.5017  0.4234 -0.3864
 3658TIP3    H110938   2.716   2.659   4.155  0.4815  1.0679 -0.6388
 3658TIP3    H210939   2.584   2.687   4.088 -0.2256  1.6918  0.9639
 3659TIP3   OH210940   2.294   4.734   2.374  0.5986  0.3338 -0.4057
 3659TIP3    H110941   2.333   4.786   2.444  0.3559 -0.6128  0.4540
 3659TIP3    H210942   2.237   4.795   2.328  1.2542  1.1287 -0.1888
 3660TIP3   OH210943   4.160   1.191   5.405  0.1456 -0.1388 -0.0731
 3660TIP3    H110944   4.072   1.164   5.381 -0.2926  1.6324 -0.6364
 3660TIP3    H210945   4.182   1.260   5.342  0.9535  1.1458  1.5101
 3661TIP3   OH210946   0.604   5.777   0.296  0.3668  0.0755 -0.2416
 3661TIP3    H110947   0.538   5.839   0.327 -1.6295 -1.2329 -1.6178
 3661TIP3    H210948   0.555   5.696   0.279  2.6452 -1.4950  0.2216
 3662TIP3   OH210949   6.378   1.412   3.932 -0.3319  0.0142  0.3445
 3662TIP3    H110950   6.383   1.444   3.842  0.1529  0.6689  0.5905
 3662TIP3    H210951   6.469   1.393   3.955 -0.3915  0.3092  0.8483
 3663TIP3   OH210952   4.031   6.524   3.051 -0.3296 -0.3282 -0.1092
 3663TIP3    H110953   3.992   6.493   3.133 -0.6565 -2.6900 -1.0633
 3663TIP3    H210954   4.027   6.619   3.057 -0.2427 -0.3948  2.6409
 3664TIP3   OH210955   5.115   1.832   4.324 -0.2792  0.2110  1.0733
 3664TIP3    H110956   5.190   1.884   4.352  1.5158 -2.7580  2.1954
 3664TIP3    H210957   5.118   1.835   4.229  1.5470 -0.1412  1.0822
 3665TIP3   OH210958   5.914   6.639   4.951 -0.4075  0.3930 -0.4343
 3665TIP3    H110959   5.828   6.601   4.937  0.7028 -2.4075 -0.2708
 3665TIP3    H210960   5.945   6.600   5.032  0.8770  1.6607 -0.2713
 3666TIP3   OH210961   0.225   4.773   4.987 -0.5107 -0.6424 -0.2092
 3666TIP3    H110962   0.191   4.843   4.930  0.2064 -1.6152 -1.9114
 3666TIP3    H210963   0.246   4.702   4.927 -0.0555 -1.8702  1.3491
 3667TIP3   OH210964   6.466   3.932   5.308 -0.2542 -0.2209 -0.3857
 3667TIP3    H110965   6.389   3.986   5.291  0.8170  1.2387 -0.7781
 3667TIP3    H210966   6.508   3.922   5.222  0.8120  0.2928  0.0682
 3668TIP3   OH210967   1.047   0.424   5.082  0.4036  0.5035 -0.1127
 3668TIP3    H110968   1.011   0.386   5.001 -1.5079  0.5094  0.6792
 3668TIP3    H210969   1.009   0.511   5.086  0.8523  0.6691  0.5587
 3669TIP3   OH210970   2.392   2.475   2.262  0.7423  0.0344 -0.3886
 3669TIP3    H110971   2.320   2.535   2.279  0.4784 -0.6723  1.2498
 3669TIP3    H210972   2.439   2.512   2.188 -1.0766  0.7178 -1.2447
 3670TIP3   OH210973   6.670   1.649   2.871 -0.0546 -0.7997 -0.1068
 3670TIP3    H110974   6.654   1.720   2.932  2.5532 -0.5376  0.3901
 3670TIP3    H210975   6.662   1.689   2.784 -1.1719 -0.5480  0.1060
 3671TIP3   OH210976   3.060   0.493   3.428  0.5549 -0.0642 -0.1016
 3671TIP3    H110977   3.051   0.538   3.513  0.2438 -0.1181 -0.1050
 3671TIP3    H210978   3.111   0.415   3.448 -1.1677 -1.1146  0.4273
 3672TIP3   OH210979   3.151   0.679   1.681 -0.1188  0.4748 -0.2302
 3672TIP3    H110980   3.067   0.722   1.663 -0.6378  0.0192  0.9944
 3672TIP3    H210981   3.210   0.715   1.615 -1.0417  1.5040 -0.5424
 3673TIP3   OH210982   5.331   2.953   2.228  0.1125  0.1188 -0.1231
 3673TIP3    H110983   5.303   2.868   2.195  0.7461 -0.0554 -0.2344
 3673TIP3    H210984   5.397   2.933   2.294  1.1318  0.5280 -0.9792
 3674TIP3   OH210985   6.751   0.221   4.024  0.4658 -0.1724  0.1953
 3674TIP3    H110986   6.780   0.134   4.051  1.3498  0.2933  0.7870
 3674TIP3    H210987   6.818   0.280   4.056  0.3783  0.6467 -1.0461
 3675TIP3   OH210988   6.014   3.200   5.639  0.0159  0.2020 -0.3068
 3675TIP3    H110989   5.921   3.209   5.622 -0.0501 -0.0927 -0.1195
 3675TIP3    H210990   6.057   3.237   5.562 -0.2599  0.0884 -0.5133
 3676TIP3   OH210991   1.942   3.352   5.056 -0.3236 -0.5005  0.8108
 3676TIP3    H110992   1.955   3.301   5.136 -0.6524 -0.6214  0.7893
 3676TIP3    H210993   2.016   3.413   5.054 -0.2843 -0.5346  1.1769
 3677TIP3   OH210994   3.547   3.158   0.538  0.2837  0.3428  0.2326
 3677TIP3    H110995   3.457   3.129   0.525 -0.0936 -0.0952  3.1511
 3677TIP3    H210996   3.573   3.194   0.453 -2.7157  0.7367 -0.6431
 3678TIP3   OH210997   0.884   4.026   5.738 -0.6640  0.0534 -0.3765
 3678TIP3    H110998   0.883   4.012   5.644 -1.3070 -1.1170 -0.2174
 3678TIP3    H210999   0.846   3.946   5.775  1.8538 -0.6041  1.0138
 3679TIP3   OH211000   5.174   4.363   1.799  0.5199  0.3972 -0.5510
 3679TIP3    H111001   5.211   4.414   1.727 -0.6408  0.9684 -0.7769
 3679TIP3    H211002   5.095   4.412   1.824 -1.2556 -1.8280 -1.4775
 3680TIP3   OH211003   5.529   3.432   2.508  0.1288 -0.1880 -0.3074
 3680TIP3    H111004   5.561   3.461   2.593  0.0268  1.4340 -0.7985
 3680TIP3    H211005   5.587   3.360   2.484 -0.3691 -1.2646  1.4981
 3681TIP3   OH211006   1.578   6.626   2.913 -0.2484 -0.2070  0.5757
 3681TIP3    H111007   1.586   6.576   2.995  0.4516 -0.9719  0.0607
 3681TIP3    H211008   1.569   6.559   2.846  0.0173  0.3927 -0.0655
 3682TIP3   OH211009   0.849   0.332   4.281 -0.4646  0.3361  0.3677
 3682TIP3    H111010   0.854   0.314   4.187  1.7806 -0.4742  0.5708
 3682TIP3    H211011   0.914   0.401   4.296  0.1888 -0.4831  1.4934
 3683TIP3   OH211012   3.323   4.692   1.358 -0.7769  0.4753 -0.4878
 3683TIP3    H111013   3.307   4.669   1.267  2.2640  2.5271 -1.6990
 3683TIP3    H211014   3.311   4.787   1.362  2.5895  1.0037  0.2415
 3684TIP3   OH211015   5.894   2.349   3.118  0.4427 -0.2434 -0.5485
 3684TIP3    H111016   5.965   2.396   3.162 -0.1954  0.9051 -0.6798
 3684TIP3    H211017   5.844   2.308   3.188  1.4974 -1.4528 -0.4931
 3685TIP3   OH211018   5.772   6.247   1.523  0.9934  0.3214  0.0214
 3685TIP3    H111019   5.686   6.288   1.514  1.4469  0.9828 -1.6162
 3685TIP3    H211020   5.756   6.153   1.511  0.1992  0.1356  2.0947
 3686TIP3   OH211021   5.364   1.503   0.619  0.3196 -0.4844 -0.8080
 3686TIP3    H111022   5.400   1.582   0.659 -0.0652 -0.2606 -0.9028
 3686TIP3    H211023   5.435   1.439   0.624  0.6619 -0.1040 -0.8161
 3687TIP3   OH211024   3.145   1.796   1.375 -0.2144  0.0496  0.4221
 3687TIP3    H111025   3.059   1.832   1.351  0.2375  1.7645  1.2553
 3687TIP3    H211026   3.205   1.869   1.364  1.1674 -1.1374 -0.1642
 3688TIP3   OH211027   5.743   0.692   3.747 -0.1922 -0.0715  0.1829
 3688TIP3    H111028   5.719   0.772   3.702  0.3542  0.6083  1.0674
 3688TIP3    H211029   5.791   0.721   3.824  0.3604 -1.2588  0.3156
 3689TIP3   OH211030   6.499   4.795   3.088  0.7407 -0.6518  0.5171
 3689TIP3    H111031   6.408   4.774   3.067  0.5046 -1.7113  2.4328
 3689TIP3    H211032   6.493   4.876   3.139  0.9844 -0.2133 -0.1279
 3690TIP3   OH211033   2.388   5.332   1.645 -0.1751 -0.3321 -0.2338
 3690TIP3    H111034   2.444   5.398   1.685  0.2771  1.6015 -3.6621
 3690TIP3    H211035   2.448   5.264   1.615 -0.3529 -1.0450  0.9704
 3691TIP3   OH211036   6.181   6.365   5.623  0.5849  0.4184 -0.9378
 3691TIP3    H111037   6.122   6.294   5.648  0.0808  1.1866  0.1151
 3691TIP3    H211038   6.263   6.321   5.602 -0.2415 -0.6356 -2.1000
 3692TIP3   OH211039   6.239   5.872   5.470  0.4477 -0.4301  0.2190
 3692TIP3    H111040   6.190   5.950   5.442  0.8909 -0.2816 -0.1453
 3692TIP3    H211041   6.238   5.877   5.566  0.4384  0.0008  0.1991
 3693TIP3   OH211042   6.938   3.039   5.222 -0.7608  0.0535  0.4376
 3693TIP3    H111043   6.996   2.967   5.247 -0.8475  0.1024  0.7943
 3693TIP3    H211044   6.852   2.998   5.213 -1.0101  0.2744  1.6294
 3694TIP3   OH211045   1.847   0.973   5.543 -0.3968  0.1180  0.3575
 3694TIP3    H111046   1.782   0.939   5.481 -0.6661  0.6116  0.3595
 3694TIP3    H211047   1.926   0.986   5.491 -0.4844  0.0841  0.2165
 3695TIP3   OH211048   6.553   1.014   3.231 -0.1926  0.3802 -0.5304
 3695TIP3    H111049   6.468   1.012   3.188  0.3118 -1.2959 -1.5204
 3695TIP3    H211050   6.616   1.024   3.160  0.4634  1.9871  0.2172
 3696TIP3   OH211051   6.550   4.249   3.765  0.2299 -0.3250 -0.1246
 3696TIP3    H111052   6.589   4.278   3.848  1.6463  0.6280 -1.0737
 3696TIP3    H211053   6.618   4.193   3.726 -0.6560 -1.2368 -0.3889
 3697TIP3   OH211054   2.539   3.926   2.354 -0.2435 -0.0946  0.2011
 3697TIP3    H111055   2.607   3.973   2.402 -1.4070  1.4445  0.3944
 3697TIP3    H211056   2.571   3.925   2.263  0.1977  0.2892  0.3466
 3698TIP3   OH211057   2.862   4.405   0.374  0.1131  0.7367 -0.0486
 3698TIP3    H111058   2.951   4.380   0.351 -0.0998 -0.8001  0.6281
 3698TIP3    H211059   2.872   4.482   0.430  1.0935 -0.0323  0.8751
 3699TIP3   OH211060   2.770   0.137   2.695  0.2880  0.2915 -0.7279
 3699TIP3    H111061   2.850   0.169   2.654  0.0130  0.9370 -0.7643
 3699TIP3    H211062   2.702   0.148   2.628  0.2845 -0.9187 -0.9606
 3700TIP3   OH211063   0.601   5.344   3.792  0.1740  0.0291 -0.0935
 3700TIP3    H111064   0.618   5.339   3.886  0.5430  0.0261 -0.1578
 3700TIP3    H211065   0.591   5.437   3.774  2.7393  0.2950 -0.4852
 3701TIP3   OH211066   3.157   3.994   4.243 -0.5300  0.0576  0.2229
 3701TIP3    H111067   3.130   4.086   4.241 -1.5665 -0.2237  0.7339
 3701TIP3    H211068   3.147   3.964   4.152 -1.7896  0.0075  0.3722
 3702TIP3   OH211069   1.905   2.559   5.668  0.2099 -0.7308  0.4052
 3702TIP3    H111070   1.816   2.584   5.694  0.2600 -0.8840  0.7261
 3702TIP3    H211071   1.900   2.465   5.655  0.3932 -0.7847  0.7070
 3703TIP3   OH211072   5.622   1.357   1.287 -0.1989 -0.9223  0.5380
 3703TIP3    H111073   5.673   1.422   1.335 -0.0910 -0.7271  0.1656
 3703TIP3    H211074   5.686   1.290   1.262 -0.3326 -1.2377  1.0273
 3704TIP3   OH211075   3.253  -0.027   0.974 -0.7805 -0.0472 -0.2542
 3704TIP3    H111076   3.185  -0.016   1.041 -0.2943 -0.8591  0.3919
 3704TIP3    H211077   3.295   0.059   0.969  0.8237 -0.5592  2.3493
 3705TIP3   OH211078   6.329   3.042   4.040 -0.5976 -0.0973 -0.3133
 3705TIP3    H111079   6.348   3.016   3.950  1.5370  0.3365 -0.0365
 3705TIP3    H211080   6.287   2.966   4.079  0.6915 -1.2134 -1.0120
 3706TIP3   OH211081   2.716   5.627   0.675  0.2203 -0.6674  0.3083
 3706TIP3    H111082   2.740   5.575   0.752  2.0976 -2.4229 -1.3563
 3706TIP3    H211083   2.746   5.715   0.696 -1.9834 -0.3664  2.7186
 3707TIP3   OH211084   4.966   2.817   5.115  0.1145  0.0989 -0.3553
 3707TIP3    H111085   4.889   2.840   5.064  1.2352 -0.0230 -2.2112
 3707TIP3    H211086   5.040   2.850   5.064  1.3314  0.0006  1.2256
 3708TIP3   OH211087   6.115   1.362   3.970 -1.0483  0.2091 -0.7899
 3708TIP3    H111088   6.209   1.367   3.951 -0.2764 -0.8096  2.3082
 3708TIP3    H211089   6.098   1.269   3.982 -2.0876  0.5303  0.3468
 3709TIP3   OH211090   5.979   1.008   5.804  0.1599  0.3768 -0.5513
 3709TIP3    H111091   6.074   0.998   5.795  0.3425 -0.0983  1.3116
 3709TIP3    H211092   5.952   0.929   5.852 -0.8604  1.3812  0.5969
 3710TIP3   OH211093   0.754   5.166   5.737  0.1469  0.0856 -0.0899
 3710TIP3    H111094   0.771   5.235   5.673  2.5655  0.3002  0.6655
 3710TIP3    H211095   0.721   5.212   5.814  1.6600  0.4439  0.3777
 3711TIP3   OH211096   5.183   5.295   0.888  0.0902  0.4709 -0.6722
 3711TIP3    H111097   5.185   5.275   0.795  0.4303 -0.4305 -0.4829
 3711TIP3    H211098   5.232   5.377   0.896 -1.7541  1.7144 -1.5361
 3712TIP3   OH211099   3.852   4.021   2.783 -0.5634 -0.2636  0.1413
 3712TIP3    H111100   3.804   4.027   2.866 -0.7243 -0.9666  0.1051
 3712TIP3    H211101   3.785   4.021   2.716 -0.4745 -0.4429  0.0504
 3713TIP3   OH211102   1.331   4.468   1.527 -0.2414  0.2094  0.5353
 3713TIP3    H111103   1.294   4.546   1.486  1.1135  0.0154 -1.1675
 3713TIP3    H211104   1.257   4.407   1.536 -0.8042  0.7284 -0.4925
 3714TIP3   OH211105   5.721   0.176   3.856  0.3539  0.9318  0.5258
 3714TIP3    H111106   5.798   0.140   3.812  0.3508 -1.9580  2.5819
 3714TIP3    H211107   5.755   0.215   3.936 -0.0566  2.2972  0.0555
 3715TIP3   OH211108   0.831   1.232   2.683  0.3324 -0.0301 -0.4961
 3715TIP3    H111109   0.824   1.320   2.720  0.7129 -0.6044  0.9755
 3715TIP3    H211110   0.770   1.179   2.734  2.3317 -1.2796  0.7147
 3716TIP3   OH211111   3.263   2.917   1.632 -0.2593 -0.1327  0.8260
 3716TIP3    H111112   3.294   2.920   1.541  1.1022  1.5630  1.2869
 3716TIP3    H211113   3.211   2.837   1.637 -1.3552  0.3179 -1.7535
 3717TIP3   OH211114   6.478   3.951   4.098  0.6555  0.4331  0.0306
 3717TIP3    H111115   6.448   3.878   4.044 -2.3355 -0.1353  2.1920
 3717TIP3    H211116   6.417   4.022   4.078  0.0831  0.5129  1.8751
 3718TIP3   OH211117   4.212   1.276   2.107  0.2746  0.0548 -0.0148
 3718TIP3    H111118   4.159   1.303   2.031  1.2522 -1.3510 -1.2576
 3718TIP3    H211119   4.174   1.193   2.134  0.1055  0.4184  0.8936
 3719TIP3   OH211120   3.075   3.933   3.532  0.2071 -0.6382 -0.0494
 3719TIP3    H111121   3.084   3.878   3.610 -0.8545  0.5856  0.9586
 3719TIP3    H211122   3.042   3.873   3.465  1.3943 -1.7698  0.3225
 3720TIP3   OH211123   1.147   5.495   0.912  0.5093 -0.5577 -0.1614
 3720TIP3    H111124   1.211   5.474   0.980  0.0640  1.0503  0.8076
 3720TIP3    H211125   1.064   5.464   0.947  0.1845  0.7947  0.3461
 3721TIP3   OH211126   6.949   1.547   0.775  0.6091  0.0878 -0.9098
 3721TIP3    H111127   6.929   1.538   0.868 -1.6884  0.3843 -1.3166
 3721TIP3    H211128   7.022   1.486   0.760  1.4118  0.4599  1.1636
 3722TIP3   OH211129   0.177   5.856   3.535 -0.4441 -0.3594 -0.1729
 3722TIP3    H111130   0.261   5.897   3.556 -1.2999 -0.0113  3.1653
 3722TIP3    H211131   0.200   5.773   3.494  1.5073 -0.0553  0.1995
 3723TIP3   OH211132   2.728   0.491   5.309 -0.6280  0.1611 -0.1019
 3723TIP3    H111133   2.718   0.531   5.396  1.0576 -0.0641  0.2172
 3723TIP3    H211134   2.811   0.445   5.313 -1.1796 -1.0086 -1.4120
 3724TIP3   OH211135   1.425   1.005   5.545  0.8765 -0.1120  0.3704
 3724TIP3    H111136   1.446   0.949   5.470  2.0391 -0.4573  0.9324
 3724TIP3    H211137   1.498   1.067   5.548  0.3588  0.4870  0.6632
 3725TIP3   OH211138   0.676   2.506   4.129 -0.2040 -0.0505  0.2563
 3725TIP3    H111139   0.640   2.567   4.065 -0.0053  0.9638  1.0853
 3725TIP3    H211140   0.771   2.516   4.120 -0.0158 -2.4895 -1.7095
 3726TIP3   OH211141   4.026   3.971   1.301 -0.2065  0.3670 -0.3070
 3726TIP3    H111142   4.026   3.876   1.314  1.8861  0.3499  0.0096
 3726TIP3    H211143   3.972   4.005   1.372  0.3326 -0.5265  0.5687
 3727TIP3   OH211144   2.596   1.947   1.586 -0.0374 -0.5021  0.2697
 3727TIP3    H111145   2.688   1.938   1.564 -0.3041  1.1463 -1.9194
 3727TIP3    H211146   2.550   1.909   1.511 -1.0715  1.5638 -0.2163
 3728TIP3   OH211147   4.421   0.503   3.773  0.3827  0.1003  0.0632
 3728TIP3    H111148   4.391   0.553   3.697 -0.6048  0.2547  0.5436
 3728TIP3    H211149   4.497   0.551   3.805  0.1758  0.6179 -0.2048
 3729TIP3   OH211150   6.710   2.223   5.339  0.5046 -0.1634  0.0268
 3729TIP3    H111151   6.741   2.181   5.258 -2.5667 -0.8842 -0.8798
 3729TIP3    H211152   6.697   2.150   5.400 -1.6274 -0.2292 -0.4375
 3730TIP3   OH211153   1.214   3.193   0.522  0.0171 -0.3222  0.3166
 3730TIP3    H111154   1.237   3.284   0.541  0.0298 -0.2781  0.1020
 3730TIP3    H211155   1.252   3.177   0.435  0.8133 -0.8145  0.7428
 3731TIP3   OH211156   6.967   5.371   0.729  0.5345 -0.4581 -0.2509
 3731TIP3    H111157   6.947   5.411   0.644  0.7830 -0.5250 -0.3433
 3731TIP3    H211158   6.918   5.422   0.792  0.8280 -0.0223 -0.3711
 3732TIP3   OH211159   1.701   3.866   2.452 -0.3300 -0.4877 -0.3282
 3732TIP3    H111160   1.748   3.787   2.427  0.1222  0.0329 -1.1703
 3732TIP3    H211161   1.736   3.934   2.395 -2.5654 -0.1926 -1.4586
 3733TIP3   OH211162   0.933   1.666   1.633  0.3871 -0.3290  0.3435
 3733TIP3    H111163   1.009   1.641   1.686  0.3034 -1.9546 -0.2467
 3733TIP3    H211164   0.944   1.618   1.552 -1.2372 -0.5254  0.2182
 3734TIP3   OH211165   6.890   2.988   2.584  0.1348 -0.4182 -0.5307
 3734TIP3    H111166   6.953   3.059   2.594 -2.0783  1.2862  3.8015
 3734TIP3    H211167   6.819   3.027   2.533 -1.1912  0.8258  2.0482
 3735TIP3   OH211168   0.808   1.097   5.119 -0.5684  0.2866  0.6549
 3735TIP3    H111169   0.855   1.110   5.201  1.6057  1.6701 -0.7229
 3735TIP3    H211170   0.846   1.017   5.081 -0.6427  0.3734  0.3936
 3736TIP3   OH211171   2.092   1.324   2.499  0.4519 -0.3066  0.2015
 3736TIP3    H111172   2.039   1.359   2.571  0.9114 -0.3505  0.5641
 3736TIP3    H211173   2.107   1.233   2.523 -1.4103 -1.0305 -1.1262
 3737TIP3   OH211174   3.324   0.868   3.180  0.8185  0.0646 -0.0004
 3737TIP3    H111175   3.372   0.812   3.119 -1.1535 -1.0358 -0.5974
 3737TIP3    H211176   3.274   0.928   3.125 -0.9783 -0.9318  0.4624
 3738TIP3   OH211177   7.108   2.723   2.996 -0.2621  0.4462 -0.2628
 3738TIP3    H111178   7.064   2.771   2.926 -1.4547 -1.5507 -0.9662
 3738TIP3    H211179   7.146   2.647   2.953 -1.2441 -0.9760  1.2576
 3739TIP3   OH211180   3.711   3.042   2.194  0.3014  0.3506 -0.0250
 3739TIP3    H111181   3.659   3.037   2.274  1.5595 -0.3063  0.7656
 3739TIP3    H211182   3.781   2.979   2.206  0.3573  0.0334 -1.7763
 3740TIP3   OH211183   5.227   0.882   0.260 -0.1860 -0.0673  0.4199
 3740TIP3    H111184   5.315   0.907   0.289  0.0786 -0.6778  0.1507
 3740TIP3    H211185   5.236   0.791   0.230 -0.6653  0.2221 -0.6483
 3741TIP3   OH211186   6.178   0.926   4.928  0.1577 -0.0366 -0.6081
 3741TIP3    H111187   6.265   0.908   4.961 -0.6405 -1.0944  1.0451
 3741TIP3    H211188   6.154   0.847   4.878 -0.4660 -0.4682  0.3416
 3742TIP3   OH211189   2.344   2.808   3.680 -0.0204  0.3307  0.5249
 3742TIP3    H111190   2.439   2.810   3.676  0.1554 -3.1169  0.0266
 3742TIP3    H211191   2.318   2.900   3.679  3.1933  1.3806 -1.4643
 3743TIP3   OH211192   1.595   4.592   5.119 -0.4157 -0.4732  0.3779
 3743TIP3    H111193   1.667   4.588   5.056 -0.8638  0.2540 -0.2095
 3743TIP3    H211194   1.523   4.544   5.076 -1.1984  1.2623 -0.3671
 3744TIP3   OH211195   1.692   2.247   0.355  0.5800  0.2328 -0.2453
 3744TIP3    H111196   1.611   2.237   0.305 -0.0549  0.4652  0.6952
 3744TIP3    H211197   1.754   2.286   0.293  0.5629 -1.6725 -1.5200
 3745TIP3   OH211198   2.457   4.340   4.559 -0.0753 -0.0872 -0.4275
 3745TIP3    H111199   2.537   4.287   4.553 -0.1445 -0.1831 -0.5074
 3745TIP3    H211200   2.404   4.311   4.485 -0.0078  0.2745 -0.6154
 3746TIP3   OH211201   0.844   1.168   0.759  0.0031 -0.2064 -0.2302
 3746TIP3    H111202   0.772   1.132   0.810 -0.2662 -0.8226 -1.0378
 3746TIP3    H211203   0.838   1.125   0.674  0.8419  0.3251 -0.5724
 3747TIP3   OH211204   0.756   2.290   4.813  0.3654  0.0869 -0.2953
 3747TIP3    H111205   0.750   2.289   4.909  0.4781  2.0860 -0.2372
 3747TIP3    H211206   0.841   2.250   4.794  0.2936 -0.4313  0.4201
 3748TIP3   OH211207   0.431   1.343   1.914  0.1498 -0.6668  0.3071
 3748TIP3    H111208   0.472   1.332   1.828 -0.2133 -2.3655  0.3151
 3748TIP3    H211209   0.453   1.432   1.940  0.8947 -0.3755 -1.2172
 3749TIP3   OH211210   0.424   2.208   3.506  0.1695 -0.1043  0.5071
 3749TIP3    H111211   0.359   2.174   3.568 -2.3311  2.3087 -0.5814
 3749TIP3    H211212   0.393   2.296   3.485  1.2544 -0.5074 -3.6100
 3750TIP3   OH211213   3.043   1.031   2.104  0.2638  0.1487  0.2014
 3750TIP3    H111214   2.958   1.057   2.139 -0.6585  0.4674 -2.0869
 3750TIP3    H211215   3.103   1.098   2.134 -0.6280  0.8351  0.5100
 3751TIP3   OH211216   0.310   3.179   2.624 -0.1456 -0.2922 -0.4054
 3751TIP3    H111217   0.334   3.095   2.665 -0.5544 -1.8895 -3.1476
 3751TIP3    H211218   0.370   3.242   2.663 -1.8682 -1.0975  4.1128
 3752TIP3   OH211219   4.475   0.452   2.793  0.0367 -0.0604  0.0414
 3752TIP3    H111220   4.564   0.462   2.757 -0.0350 -2.1154 -0.8321
 3752TIP3    H211221   4.425   0.413   2.722 -1.9226  2.1151  0.1345
 3753TIP3   OH211222   6.172   2.307   1.505  0.5222  0.2609  0.7665
 3753TIP3    H111223   6.177   2.216   1.476 -0.0562  0.6773 -0.6920
 3753TIP3    H211224   6.255   2.346   1.480  0.3163  0.4295  0.3398
 3754TIP3   OH211225   5.801   3.078   2.842 -0.3775 -0.6214  0.1811
 3754TIP3    H111226   5.836   3.167   2.846  0.7938 -0.9616 -1.5456
 3754TIP3    H211227   5.753   3.075   2.759 -0.6865 -1.5039  0.3857
 3755TIP3   OH211228   1.336   3.983   1.451 -0.5346 -0.1391 -0.4830
 3755TIP3    H111229   1.313   3.891   1.465 -1.4844  0.3065  1.2370
 3755TIP3    H211230   1.400   3.982   1.380  0.8233 -2.2832  0.6839
 3756TIP3   OH211231   0.149   2.012   5.411  0.5079  0.2442 -0.1358
 3756TIP3    H111232   0.064   2.054   5.425 -0.0518 -0.5869 -0.9704
 3756TIP3    H211233   0.152   1.942   5.476  0.6415  0.3813  0.0089
 3757TIP3   OH211234   5.685   6.514   2.028 -0.1782 -0.0380 -0.3440
 3757TIP3    H111235   5.638   6.570   1.966  1.3903  1.7999  0.0228
 3757TIP3    H211236   5.768   6.559   2.043  0.2082 -1.2954  1.7716
 3758TIP3   OH211237   7.141   1.923   0.505 -0.5612  0.1216 -0.0414
 3758TIP3    H111238   7.222   1.942   0.553 -0.7020  0.2147  0.1608
 3758TIP3    H211239   7.089   1.871   0.567 -0.9952  0.7519  0.1230
 3759TIP3   OH211240   1.155   0.075   3.561  0.3822 -0.1621  0.6268
 3759TIP3    H111241   1.171   0.040   3.474 -0.2838 -2.9415  1.5295
 3759TIP3    H211242   1.241   0.108   3.589  0.8962 -0.4069 -0.5682
 3760TIP3   OH211243   6.948   0.063   0.550  0.5336  0.1726 -0.1853
 3760TIP3    H111244   6.922   0.154   0.533 -1.4372 -0.4609 -0.8809
 3760TIP3    H211245   6.866   0.014   0.551  1.4541 -1.4734  1.2104
 3761TIP3   OH211246   3.474   5.670   0.663  0.3129 -0.1328 -0.0977
 3761TIP3    H111247   3.468   5.575   0.655 -0.1121 -0.1530  0.3872
 3761TIP3    H211248   3.483   5.702   0.573  0.3027 -0.6249 -0.2717
 3762TIP3   OH211249   4.025   5.138   0.013  0.1148 -0.0884  0.7720
 3762TIP3    H111250   3.966   5.106   0.081  0.6405  0.2227  1.3818
 3762TIP3    H211251   4.050   5.225   0.042 -1.4624  1.0207 -0.9809
 3763TIP3   OH211252   3.988   4.820   3.289 -0.1778 -0.2326 -0.0196
 3763TIP3    H111253   3.895   4.828   3.268 -0.0064 -0.3982 -0.8830
 3763TIP3    H211254   4.032   4.864   3.217  0.4333 -0.6560  0.0913
 3764TIP3   OH211255   1.794   5.780   2.266  0.2481 -0.0164  0.0152
 3764TIP3    H111256   1.831   5.710   2.321  1.2404  0.1794 -0.3752
 3764TIP3    H211257   1.766   5.736   2.186 -0.8341 -0.2401  0.4980
 3765TIP3   OH211258   2.625   5.176   1.620 -0.7332 -0.1290 -0.2176
 3765TIP3    H111259   2.696   5.165   1.683 -1.1855 -0.0139  0.3182
 3765TIP3    H211260   2.665   5.222   1.546  0.5434 -2.7842 -1.3207
 3766TIP3   OH211261   3.989   1.992   2.415  0.2675 -0.0192 -0.1189
 3766TIP3    H111262   4.044   1.934   2.468 -1.5383 -1.0627  0.6985
 3766TIP3    H211263   3.963   2.062   2.475  0.9018  0.6431 -0.5891
 3767TIP3   OH211264   0.204   1.238   0.872 -0.4010  0.4739 -0.2741
 3767TIP3    H111265   0.202   1.316   0.816  1.9222  0.5554 -0.3578
 3767TIP3    H211266   0.275   1.256   0.934  1.2773 -2.1631 -1.2755
 3768TIP3   OH211267   5.403   4.635   3.506  0.4040 -0.1239  0.0652
 3768TIP3    H111268   5.391   4.586   3.424 -0.9025  0.5203 -0.1421
 3768TIP3    H211269   5.322   4.684   3.517  1.2669  1.1816  0.8301
 3769TIP3   OH211270   4.056   4.466   2.521 -0.3940 -0.0640  0.2859
 3769TIP3    H111271   4.046   4.481   2.427  0.8720  1.3551  0.3366
 3769TIP3    H211272   4.150   4.468   2.536 -0.5363 -0.9318  1.5094
 3770TIP3   OH211273   1.747   5.075   2.651 -0.0716 -0.0050  0.0565
 3770TIP3    H111274   1.755   5.102   2.559 -0.2543  0.2950  0.1275
 3770TIP3    H211275   1.700   5.147   2.693 -2.3185 -1.2365 -0.1629
 3771TIP3   OH211276   1.667   4.798   0.201 -0.2287  0.2169  0.8461
 3771TIP3    H111277   1.691   4.785   0.293 -0.1732 -1.4955  0.6294
 3771TIP3    H211278   1.645   4.890   0.195 -0.2514  0.3660  2.5882
 3772TIP3   OH211279   5.339   5.870   0.540  0.4765  0.0937  0.1985
 3772TIP3    H111280   5.427   5.895   0.511  0.3096  1.3839  0.7406
 3772TIP3    H211281   5.280   5.926   0.490  0.0653  0.5470  1.1511
 3773TIP3   OH211282   4.501   3.235   0.126 -0.2195 -0.1511  0.1142
 3773TIP3    H111283   4.588   3.239   0.166 -0.6775  0.0819  1.1149
 3773TIP3    H211284   4.443   3.275   0.190 -1.3305 -1.8015  0.2064
 3774TIP3   OH211285   0.452   4.581   3.253 -0.1739  0.1421  0.6895
 3774TIP3    H111286   0.510   4.515   3.215  2.0354  2.0328  0.6140
 3774TIP3    H211287   0.380   4.530   3.291  0.2452 -2.1390 -1.3410
 3775TIP3   OH211288   5.467   3.754   5.485  0.1276 -0.0520 -0.5710
 3775TIP3    H111289   5.391   3.721   5.532  0.5489 -0.7830 -0.3964
 3775TIP3    H211290   5.431   3.823   5.429 -0.4502  0.5100  0.4631
 3776TIP3   OH211291   5.587   2.900   2.402 -0.1804  0.1559 -0.4062
 3776TIP3    H111292   5.611   2.986   2.366 -1.4560  1.3298  1.3593
 3776TIP3    H211293   5.654   2.882   2.468 -0.9102  0.7072  0.5104
 3777TIP3   OH211294   6.963   4.656   2.355 -0.2765  0.3097  0.3145
 3777TIP3    H111295   7.002   4.693   2.276 -1.6230 -0.2960 -0.6583
 3777TIP3    H211296   7.032   4.664   2.421 -0.1964  3.8133 -0.0168
 3778TIP3   OH211297   3.588   2.939   0.132  0.4543 -0.1503  0.0853
 3778TIP3    H111298   3.584   2.913   0.040  0.9102  0.1127 -0.0130
 3778TIP3    H211299   3.516   2.891   0.174  0.9832 -1.2048 -0.1749
 3779TIP3   OH211300   6.386   2.616   3.143  0.1770  0.5774 -0.0731
 3779TIP3    H111301   6.299   2.605   3.105  0.5162  0.7068 -0.9046
 3779TIP3    H211302   6.388   2.553   3.215 -0.9782  1.3243  0.6354
 3780TIP3   OH211303   4.720   2.820   2.172 -0.7639 -0.1636 -0.4093
 3780TIP3    H111304   4.813   2.841   2.175 -0.8316  0.0777  0.4553
 3780TIP3    H211305   4.683   2.864   2.249 -1.4219 -1.0491 -0.1962
 3781TIP3   OH211306   6.518   5.041   1.287  0.3064  0.0312 -0.1802
 3781TIP3    H111307   6.430   5.019   1.318  1.3598 -2.0939  1.5474
 3781TIP3    H211308   6.574   4.974   1.325  2.8186  1.7798 -0.5893
 3782TIP3   OH211309   6.939   6.209   2.873  0.0747 -0.0875  0.0720
 3782TIP3    H111310   6.992   6.232   2.949 -0.0654 -0.0657  0.1633
 3782TIP3    H211311   6.955   6.115   2.860 -0.6916 -0.3250  0.7512
 3783TIP3   OH211312   3.359   0.977   0.577 -0.6107 -0.0302 -0.7519
 3783TIP3    H111313   3.347   0.977   0.482  0.9016 -0.6232 -0.9583
 3783TIP3    H211314   3.404   0.895   0.596 -0.8727  0.0948  0.4805
 3784TIP3   OH211315   0.370   0.340   2.349  0.3635 -0.2997  0.2080
 3784TIP3    H111316   0.455   0.336   2.392  1.1613 -2.0255 -1.4124
 3784TIP3    H211317   0.360   0.433   2.326  0.5036  0.4310  2.7823
 3785TIP3   OH211318   6.002   1.683   0.530  0.3886 -0.5405 -0.5627
 3785TIP3    H111319   6.063   1.696   0.458  0.5665 -0.7603 -0.4544
 3785TIP3    H211320   6.055   1.692   0.609  0.4573 -1.5667 -0.4803
 3786TIP3   OH211321   3.929   6.101   1.065  0.0503  0.1352 -0.1403
 3786TIP3    H111322   3.950   6.032   1.002  1.6948 -0.7778  1.3155
 3786TIP3    H211323   3.894   6.054   1.141 -3.0099  1.2890 -0.6872
 3787TIP3   OH211324   3.089   2.540   3.501 -0.3709 -0.0576  0.3786
 3787TIP3    H111325   3.056   2.490   3.426 -1.0332  0.7484  0.1248
 3787TIP3    H211326   3.123   2.620   3.462  0.5162 -0.2178  0.8071
 3788TIP3   OH211327   0.932   0.736   5.759  0.4370 -0.3302 -0.0875
 3788TIP3    H111328   0.868   0.703   5.822  0.1693 -0.8413 -0.6230
 3788TIP3    H211329   0.881   0.788   5.697  0.5942 -0.4408 -0.3103
 3789TIP3   OH211330   4.042   6.015   3.890  0.1032 -0.3254  0.4575
 3789TIP3    H111331   3.957   5.980   3.863  0.1805 -0.1780  0.0138
 3789TIP3    H211332   4.105   5.947   3.865  0.1382 -0.3358  0.5760
 3790TIP3   OH211333   0.829   3.706   0.781 -0.1302  0.4499 -0.6638
 3790TIP3    H111334   0.772   3.679   0.853  0.3431  0.2318 -0.3686
 3790TIP3    H211335   0.789   3.787   0.748  0.2215  1.1269  0.5162
 3791TIP3   OH211336   6.714   4.357   5.657 -0.3089  0.5401  0.1805
 3791TIP3    H111337   6.684   4.303   5.583  0.1891  0.1347  0.2646
 3791TIP3    H211338   6.649   4.343   5.725 -0.8251  0.9935 -0.2177
 3792TIP3   OH211339   2.560   5.658   2.244 -0.8551 -0.4700 -0.0832
 3792TIP3    H111340   2.524   5.570   2.236  0.6978 -1.3034  1.4525
 3792TIP3    H211341   2.485   5.716   2.226 -2.3460 -2.0888  0.5674
 3793TIP3   OH211342   3.578   2.474   1.691 -0.5582  0.6230 -0.6151
 3793TIP3    H111343   3.569   2.513   1.604 -1.1576 -2.1306 -1.9237
 3793TIP3    H211344   3.573   2.547   1.752 -2.4847  2.4380 -2.7786
 3794TIP3   OH211345   5.607   2.077   1.737  0.0717 -0.2900  0.0963
 3794TIP3    H111346   5.535   2.139   1.741 -0.6435 -1.1335  0.7781
 3794TIP3    H211347   5.574   1.999   1.782  0.4227 -1.6975 -1.9718
 3795TIP3   OH211348   5.209   2.615   5.653  0.0350 -0.5089  0.0680
 3795TIP3    H111349   5.249   2.624   5.740 -1.2846 -1.1183  0.7746
 3795TIP3    H211350   5.129   2.668   5.658 -1.0598 -2.0651 -0.0819
 3796TIP3   OH211351   6.311   6.627   1.732 -0.0649  0.0459  0.5021
 3796TIP3    H111352   6.356   6.544   1.716 -0.9048 -0.6755  1.7060
 3796TIP3    H211353   6.346   6.657   1.816  0.3858  1.0359 -0.0217
 3797TIP3   OH211354   5.083   5.802   2.523 -0.3107  0.1947  0.5040
 3797TIP3    H111355   5.112   5.800   2.614 -2.2750  1.6042  1.2427
 3797TIP3    H211356   5.036   5.719   2.510 -0.8140  0.3808  1.0883
 3798TIP3   OH211357   0.916   1.691   2.060  0.2975  0.7184  0.1365
 3798TIP3    H111358   0.867   1.749   2.119 -2.4806 -0.2209 -1.0789
 3798TIP3    H211359   0.871   1.699   1.976  1.9082 -0.7089 -0.9143
 3799TIP3   OH211360   1.088   5.469   0.643  0.1446 -0.1208 -0.4247
 3799TIP3    H111361   1.156   5.496   0.582  0.4698  1.8703  0.7234
 3799TIP3    H211362   1.122   5.494   0.729 -1.7277  0.2667  0.2416
 3800TIP3   OH211363   3.460   4.549   4.329 -0.4710  0.2404 -0.5048
 3800TIP3    H111364   3.532   4.510   4.279 -0.3789 -0.5037  0.1892
 3800TIP3    H211365   3.490   4.549   4.419 -1.5493 -0.6122 -0.1218
 3801TIP3   OH211366   4.963   2.063   2.550  0.1051  0.4316 -0.2914
 3801TIP3    H111367   4.894   1.997   2.559  0.6434 -0.0184  0.7224
 3801TIP3    H211368   4.967   2.080   2.456  0.4606 -1.5335 -0.6761
 3802TIP3   OH211369   3.525   0.233   2.035  0.2075 -0.1815  0.7916
 3802TIP3    H111370   3.462   0.163   2.053  0.9434 -0.8510  0.8355
 3802TIP3    H211371   3.491   0.309   2.083  0.0500 -0.8454  1.7647
 3803TIP3   OH211372   3.167   1.828   4.747 -0.7369  0.0673  0.2766
 3803TIP3    H111373   3.190   1.746   4.790  0.8725 -0.2235 -1.0442
 3803TIP3    H211374   3.087   1.808   4.699 -1.0234 -0.3772  0.9253
 3804TIP3   OH211375   1.553   1.244   2.102 -0.3808  0.5432 -0.5313
 3804TIP3    H111376   1.591   1.332   2.095 -0.1751  0.3878 -1.6041
 3804TIP3    H211377   1.479   1.245   2.041  1.3572 -0.8687 -2.8529
 3805TIP3   OH211378   2.888   2.764   0.690  0.0497  0.3033  0.1170
 3805TIP3    H111379   2.828   2.707   0.737 -1.1291  0.1838 -1.4308
 3805TIP3    H211380   2.932   2.706   0.627  1.5407  0.4620  0.9789
 3806TIP3   OH211381   6.853   4.248   2.242  0.1603 -0.5129  0.1457
 3806TIP3    H111382   6.919   4.184   2.271 -1.0504 -1.0147  1.9240
 3806TIP3    H211383   6.780   4.195   2.212  0.5664  0.0463 -1.9949
 3807TIP3   OH211384   3.129   6.274   4.760  0.2342  0.2643  0.0950
 3807TIP3    H111385   3.123   6.258   4.666  1.0256 -1.1635  0.2456
 3807TIP3    H211386   3.176   6.357   4.768 -0.9507  1.0400 -0.7690
 3808TIP3   OH211387   0.767   5.228   4.390 -0.1837 -0.3486  0.5446
 3808TIP3    H111388   0.834   5.181   4.439 -1.5084 -1.2732  1.5601
 3808TIP3    H211389   0.684   5.191   4.421 -1.1239 -0.5143 -1.9148
 3809TIP3   OH211390   2.788   6.720   1.287  0.0798 -0.3813  0.3799
 3809TIP3    H111391   2.808   6.628   1.303 -1.3274 -0.8404 -0.3835
 3809TIP3    H211392   2.827   6.738   1.201 -0.3442 -0.4893  0.1652
 3810TIP3   OH211393   4.695   0.513   1.957  0.6061  0.0460 -0.2092
 3810TIP3    H111394   4.726   0.505   2.047  0.4237  0.5027 -0.1008
 3810TIP3    H211395   4.775   0.523   1.905  0.7039 -0.0751 -0.0834
 3811TIP3   OH211396   1.946   0.136   4.792  0.3088  0.3468  0.0805
 3811TIP3    H111397   1.867   0.137   4.738 -0.2494 -0.5596  0.8322
 3811TIP3    H211398   2.015   0.107   4.733 -0.4970 -1.6935  0.0523
 3812TIP3   OH211399   5.507   4.652   3.784 -0.3296 -0.2100  0.2602
 3812TIP3    H111400   5.506   4.620   3.694 -0.0541  0.8725 -0.1290
 3812TIP3    H211401   5.424   4.621   3.821 -0.3964 -0.7400 -0.3256
 3813TIP3   OH211402   0.482   6.769   4.807 -0.4620 -0.1732  0.0007
 3813TIP3    H111403   0.545   6.702   4.835  2.0396  1.7713 -0.5713
 3813TIP3    H211404   0.490   6.771   4.712 -2.5883 -0.9341 -0.2215
 3814TIP3   OH211405   3.675   3.737   3.496 -0.0957  0.1256 -0.6777
 3814TIP3    H111406   3.738   3.805   3.516 -0.5944 -0.0544  1.8983
 3814TIP3    H211407   3.723   3.655   3.507 -0.4368  0.0163  0.0887
 3815TIP3   OH211408   7.102   4.537   0.413 -0.6524 -0.2449 -0.1841
 3815TIP3    H111409   7.140   4.624   0.427  1.0844 -0.7330 -1.4493
 3815TIP3    H211410   7.113   4.522   0.319 -2.0647 -1.3428 -0.1979
 3816TIP3   OH211411   0.132   1.056   0.419 -0.1037 -0.2957 -0.3856
 3816TIP3    H111412   0.137   1.126   0.355 -2.1702 -0.0197 -0.3388
 3816TIP3    H211413   0.131   1.101   0.504  1.5872 -0.5960 -0.1777
 3817TIP3   OH211414   3.386   6.628   2.306 -0.0759  0.2232 -0.2101
 3817TIP3    H111415   3.467   6.616   2.257  0.9594  1.2051  1.2032
 3817TIP3    H211416   3.414   6.659   2.392 -1.9867  1.4227  0.0357
 3818TIP3   OH211417   4.451   4.267   0.056  0.8409  0.4827 -0.0957
 3818TIP3    H111418   4.504   4.346   0.072 -0.0553  0.7531  1.7381
 3818TIP3    H211419   4.452   4.220   0.139 -2.2678  0.8115  0.2614
 3819TIP3   OH211420   1.379   2.289   5.358 -0.1885 -0.2612  0.1574
 3819TIP3    H111421   1.403   2.362   5.416  3.4601 -0.2682 -1.0890
 3819TIP3    H211422   1.365   2.329   5.273  0.7682 -0.8310 -0.2933
 3820TIP3   OH211423   6.955   0.087   1.210 -0.1695  0.4535 -0.1540
 3820TIP3    H111424   7.003   0.087   1.293 -1.2464 -1.4591  0.5408
 3820TIP3    H211425   7.005   0.027   1.153  1.0938  2.4763 -1.2856
 3821TIP3   OH211426   4.031   1.745   1.100  0.4231 -0.8940  0.0072
 3821TIP3    H111427   4.123   1.768   1.086  0.9992 -2.2399  1.2437
 3821TIP3    H211428   3.985   1.784   1.026  2.0379 -0.5366 -0.8676
 3822TIP3   OH211429   7.169   4.474   0.148  0.0544 -0.1111 -0.1971
 3822TIP3    H111430   7.257   4.507   0.168 -0.5382 -0.0098  2.4727
 3822TIP3    H211431   7.128   4.543   0.096  0.1653  1.7105  2.0313
 3823TIP3   OH211432   4.753   0.092   1.413 -0.2751  0.5053 -0.3101
 3823TIP3    H111433   4.835   0.043   1.406 -0.2849  0.5633 -0.8407
 3823TIP3    H211434   4.726   0.081   1.504  0.4055  0.6152 -0.0940
 3824TIP3   OH211435   6.125   0.946   5.194 -0.0142  0.1425 -0.2942
 3824TIP3    H111436   6.110   1.039   5.212  1.6794 -0.0442  2.8149
 3824TIP3    H211437   6.143   0.942   5.100  1.9013  3.3102 -0.1963
 3825TIP3   OH211438   3.193   1.842   3.745  0.1964  0.0536  0.1242
 3825TIP3    H111439   3.195   1.809   3.835  1.1899 -0.7415 -0.1785
 3825TIP3    H211440   3.284   1.842   3.717 -0.1147  0.1498 -0.9329
 3826TIP3   OH211441   0.593   2.722   0.560  0.2420 -0.2167  0.1478
 3826TIP3    H111442   0.599   2.637   0.603  0.6959 -0.3563 -0.1776
 3826TIP3    H211443   0.681   2.759   0.570  0.2949 -0.1676 -0.4785
 3827TIP3   OH211444   6.608   4.345   1.199 -0.4947  0.4247 -0.3925
 3827TIP3    H111445   6.600   4.304   1.112 -1.1346 -0.3910  0.0297
 3827TIP3    H211446   6.702   4.359   1.210 -0.1593 -1.5341 -0.3118
 3828TIP3   OH211447   6.238   0.611   4.946 -0.8385 -0.1270  0.3332
 3828TIP3    H111448   6.295   0.682   4.974 -0.1866 -0.7570  0.6251
 3828TIP3    H211449   6.254   0.541   5.010  1.1024 -1.8394 -1.8821
 3829TIP3   OH211450   0.971   4.155   4.451 -0.3199  0.0108  0.3095
 3829TIP3    H111451   0.931   4.239   4.431  0.6442  0.7625  1.4061
 3829TIP3    H211452   0.980   4.111   4.366 -2.3574  0.2889 -0.0844
 3830TIP3   OH211453   2.598   3.062   0.345 -0.2041 -0.1490  0.3208
 3830TIP3    H111454   2.621   3.141   0.296 -0.5998 -0.1829  0.0799
 3830TIP3    H211455   2.683   3.028   0.376 -0.2015  1.6019  2.3947
 3831TIP3   OH211456   5.417   3.818   2.947  0.1745  0.3138 -0.0251
 3831TIP3    H111457   5.431   3.904   2.988 -1.7805  0.3467  0.6509
 3831TIP3    H211458   5.440   3.832   2.855  0.0496  1.5227  0.1008
 3832TIP3   OH211459   1.073   3.418   3.436 -0.2301  0.2695  0.4394
 3832TIP3    H111460   1.088   3.485   3.369 -1.7478  0.5461  0.3388
 3832TIP3    H211461   1.099   3.336   3.395 -1.6599  0.3651 -0.7213
 3833TIP3   OH211462   1.368   3.253   2.832 -0.0119 -0.0335  0.2924
 3833TIP3    H111463   1.292   3.295   2.871 -0.1822 -0.5364  0.5005
 3833TIP3    H211464   1.418   3.219   2.906  1.1292  1.4668  0.2603
 3834TIP3   OH211465   0.886   0.291   5.612  0.3002 -0.0150  0.2150
 3834TIP3    H111466   0.856   0.209   5.650  0.7922  0.5656  1.9640
 3834TIP3    H211467   0.976   0.300   5.644  0.7729  0.4963 -1.1746
 3835TIP3   OH211468   4.154   1.688   2.397  0.3755  0.1798 -0.0195
 3835TIP3    H111469   4.236   1.644   2.418  0.7556  0.4675 -0.8583
 3835TIP3    H211470   4.118   1.714   2.481  0.7223 -0.7020  0.4087
 3836TIP3   OH211471   6.449  -0.005   5.818 -0.1129 -0.3391 -0.0453
 3836TIP3    H111472   6.534  -0.040   5.844  0.3028 -0.1577 -1.1044
 3836TIP3    H211473   6.429   0.062   5.883  0.8218  0.0066 -0.1087
 3837TIP3   OH211474   6.440   3.415   4.502  0.5840  0.1042 -0.1180
 3837TIP3    H111475   6.369   3.410   4.438 -0.2208  0.9373  0.6641
 3837TIP3    H211476   6.395   3.415   4.587  1.4609  1.3087  0.3863
 3838TIP3   OH211477   1.126   2.749   5.320  0.3350  0.5330 -0.3207
 3838TIP3    H111478   1.220   2.749   5.335  0.6126  1.7369 -1.7684
 3838TIP3    H211479   1.088   2.775   5.403  1.3297  0.7973  0.0617
 3839TIP3   OH211480   1.320   2.716   2.968 -0.1559  0.0530  0.4947
 3839TIP3    H111481   1.267   2.789   3.000  0.6048  0.6158  0.4789
 3839TIP3    H211482   1.406   2.754   2.950  0.1298 -0.7595  0.0894
 3840TIP3   OH211483   1.684   6.332   1.337  0.2511 -0.3524  0.4308
 3840TIP3    H111484   1.709   6.266   1.273  0.6742  0.5451 -0.3500
 3840TIP3    H211485   1.759   6.338   1.396  1.3125  1.2380 -1.0078
 3841TIP3   OH211486   0.877   4.252   3.549  0.2960  0.1060 -0.1862
 3841TIP3    H111487   0.881   4.333   3.499  1.3941 -0.1759 -0.5834
 3841TIP3    H211488   0.884   4.182   3.484  1.2021 -0.2696  0.2924
 3842TIP3   OH211489   0.038   0.089   0.097  0.3846 -0.6698 -0.3934
 3842TIP3    H111490  -0.040   0.057   0.142 -0.5692  0.2738 -1.3194
 3842TIP3    H211491   0.020   0.182   0.081  1.2154 -0.7046 -1.6303
 3843TIP3   OH211492   0.660   3.765   2.074  0.0518  0.2412 -0.2246
 3843TIP3    H111493   0.667   3.678   2.033 -2.9309 -0.4150  0.4022
 3843TIP3    H211494   0.604   3.750   2.150 -0.2869  2.6751  0.0618
 3844TIP3   OH211495   0.892   3.214   5.074  0.2141  0.2109  1.0088
 3844TIP3    H111496   0.886   3.236   4.981  1.2677  2.6692  1.4378
 3844TIP3    H211497   0.984   3.188   5.086  0.3584  0.9370  1.5356
 3845TIP3   OH211498   7.124   1.386   5.148  0.3159  0.1812 -0.8592
 3845TIP3    H111499   7.043   1.407   5.103 -0.0222 -0.1607 -0.4153
 3845TIP3    H211500   7.120   1.291   5.161  0.0818  0.3550  0.5069
 3846TIP3   OH211501   1.231   1.849   4.013  0.0595  0.0855  0.3215
 3846TIP3    H111502   1.223   1.814   4.101  1.4656 -0.0968  0.3930
 3846TIP3    H211503   1.257   1.774   3.960 -0.2075  0.3159 -0.1426
 3847TIP3   OH211504   6.788   4.436   2.423 -0.3932  0.3056  0.2993
 3847TIP3    H111505   6.867   4.489   2.431  1.1456 -2.0218  2.1735
 3847TIP3    H211506   6.804   4.379   2.349 -1.5572  1.6013 -1.0087
 3848TIP3   OH211507   5.121   5.000   0.677  0.0363  0.3727  0.4509
 3848TIP3    H111508   5.146   5.023   0.587 -1.2936  0.5761  0.1082
 3848TIP3    H211509   5.203   5.004   0.727  1.1967 -1.5981 -1.1085
 3849TIP3   OH211510   3.224   1.468   0.292 -0.2139 -0.1762 -0.4083
 3849TIP3    H111511   3.189   1.555   0.274  0.1177 -0.3729 -2.2205
 3849TIP3    H211512   3.153   1.421   0.335 -0.5787  0.8067  0.0854
 3850TIP3   OH211513   2.833   4.558   1.099  0.0417  0.0951 -0.0587
 3850TIP3    H111514   2.868   4.529   1.183 -1.9447 -0.3313  0.6788
 3850TIP3    H211515   2.842   4.482   1.042 -0.4086 -0.2927  0.3699
 3851TIP3   OH211516   1.193   1.002   3.951  0.2135  0.5212  0.1220
 3851TIP3    H111517   1.204   0.952   4.032  1.4394  0.7432  0.1182
 3851TIP3    H211518   1.146   0.943   3.892  0.0213  0.0642  0.7316
 3852TIP3   OH211519   6.310   5.846   2.925  0.5724  0.0332  0.1133
 3852TIP3    H111520   6.289   5.897   3.003 -1.1619 -0.6363  0.1302
 3852TIP3    H211521   6.382   5.893   2.884 -0.3652  1.9997  0.5939
 3853TIP3   OH211522   2.573   0.357   0.204  0.1805  0.0979  0.2143
 3853TIP3    H111523   2.668   0.372   0.206  0.5518 -1.3398 -2.2856
 3853TIP3    H211524   2.543   0.402   0.125 -1.1536  0.1385  0.7139
 3854TIP3   OH211525   7.174   1.388   0.746  0.5293  0.1296  0.4300
 3854TIP3    H111526   7.237   1.450   0.782 -0.8944  1.8539  0.1125
 3854TIP3    H211527   7.180   1.399   0.651  1.1733 -1.2078  0.2927
 3855TIP3   OH211528   2.901   6.369   2.754  1.0498 -0.0485  0.4559
 3855TIP3    H111529   2.875   6.369   2.662  1.5404 -1.3227  0.3008
 3855TIP3    H211530   2.847   6.438   2.794  1.3884  1.0459 -0.9175
 3856TIP3   OH211531   0.656   2.440   0.996  0.7510  0.7345  0.6245
 3856TIP3    H111532   0.641   2.522   1.043  0.4998 -0.1022  2.0579
 3856TIP3    H211533   0.598   2.377   1.038  2.6522 -0.7385  1.1742
 3857TIP3   OH211534   2.515   5.399   0.864 -0.4582  0.4187  0.4866
 3857TIP3    H111535   2.598   5.438   0.888  0.0184  0.7888 -1.5555
 3857TIP3    H211536   2.449   5.450   0.912  0.2309  2.9232 -1.0213
 3858TIP3   OH211537   3.638   1.350   4.729  0.2717  0.4283 -0.0517
 3858TIP3    H111538   3.669   1.311   4.811  0.5316 -0.2473 -0.4637
 3858TIP3    H211539   3.675   1.294   4.661  0.2863  1.1506 -0.6398
 3859TIP3   OH211540   5.231   0.626   2.776  0.0760  0.0400 -0.7371
 3859TIP3    H111541   5.160   0.681   2.810 -0.8210 -2.1739  1.2006
 3859TIP3    H211542   5.307   0.684   2.776 -1.4637  2.2386 -2.0566
 3860TIP3   OH211543   1.005   2.745   2.774 -0.1934  0.0142  0.1515
 3860TIP3    H111544   0.915   2.754   2.741 -0.1263 -0.1933 -0.0959
 3860TIP3    H211545   0.996   2.739   2.869 -0.4720 -0.3471  0.1054
 3861TIP3   OH211546   6.282   0.670   3.702 -0.1216  0.3112  0.1509
 3861TIP3    H111547   6.213   0.635   3.758 -0.4913  1.8602  0.7014
 3861TIP3    H211548   6.258   0.641   3.614 -1.3724  0.6632  0.3627
 3862TIP3   OH211549   3.296   4.461   5.396  0.2275  0.0335  0.2802
 3862TIP3    H111550   3.302   4.407   5.475  0.1907 -1.3624 -0.6479
 3862TIP3    H211551   3.217   4.429   5.351  1.6422 -0.9901 -1.5999
 3863TIP3   OH211552   4.554   3.590   2.658 -0.3318  0.8781 -0.4926
 3863TIP3    H111553   4.621   3.609   2.724 -1.1725  0.8270  0.3966
 3863TIP3    H211554   4.495   3.529   2.701  0.2572 -0.8773 -2.0324
 3864TIP3   OH211555   1.451   3.879   0.054  0.3651 -0.2230 -0.2822
 3864TIP3    H111556   1.383   3.920   0.108  0.0306 -0.5335 -0.4617
 3864TIP3    H211557   1.405   3.808   0.009  0.8013 -0.4007 -0.4433
 3865TIP3   OH211558   0.304   3.182   3.057 -0.2261 -0.7768 -0.3213
 3865TIP3    H111559   0.280   3.236   2.982 -0.6309  1.4236  1.2966
 3865TIP3    H211560   0.271   3.230   3.133 -0.4444 -3.2455  1.2572
 3866TIP3   OH211561   3.183   5.911   4.973  0.1845 -0.3122 -0.1071
 3866TIP3    H111562   3.091   5.911   4.946  0.2251 -0.6320 -0.2519
 3866TIP3    H211563   3.230   5.872   4.899  0.3615 -0.7410  0.2260
 3867TIP3   OH211564   6.234   6.318   4.557  0.0929 -0.0342  0.6102
 3867TIP3    H111565   6.262   6.303   4.648 -0.2775  1.1671  0.9441
 3867TIP3    H211566   6.142   6.292   4.556 -0.2804  1.1904  0.9449
 3868TIP3   OH211567   3.860   6.682   1.126  0.5690  0.6114 -0.1329
 3868TIP3    H111568   3.938   6.704   1.076  0.9251  0.7610  0.4764
 3868TIP3    H211569   3.787   6.716   1.073  0.9192  0.5468 -0.6611
 3869TIP3   OH211570   6.406   1.130   2.202  0.0045  0.5205  0.0524
 3869TIP3    H111571   6.494   1.115   2.167  0.4422  1.7880  0.5722
 3869TIP3    H211572   6.348   1.103   2.131  0.6879 -2.4697  0.4550
 3870TIP3   OH211573   2.552   4.757   2.028  0.4339  0.5515  0.0156
 3870TIP3    H111574   2.475   4.727   1.980  1.2738 -1.9519  0.0887
 3870TIP3    H211575   2.576   4.839   1.986 -2.1260  1.3157 -0.1194
 3871TIP3   OH211576   2.674   4.731   2.551  0.1270  0.3330  0.2638
 3871TIP3    H111577   2.635   4.773   2.475 -1.2217 -0.9791  0.1760
 3871TIP3    H211578   2.673   4.798   2.619 -1.2690  0.6905 -0.0788
 3872TIP3   OH211579   0.654   6.251   2.017 -0.8445 -0.4809  0.2086
 3872TIP3    H111580   0.698   6.267   2.100  1.7238 -2.5057 -0.6136
 3872TIP3    H211581   0.681   6.162   1.992 -1.0103  0.2417 -3.0441
 3873TIP3   OH211582   3.293   3.223   3.852  0.2919 -0.0845  0.4332
 3873TIP3    H111583   3.300   3.290   3.920 -1.0454  0.6523 -0.1143
 3873TIP3    H211584   3.383   3.199   3.833  0.8486  1.9502  0.2865
 3874TIP3   OH211585   2.669   3.483   4.079 -0.2561  0.5572 -0.3614
 3874TIP3    H111586   2.697   3.403   4.125 -2.6900 -0.3656 -0.3385
 3874TIP3    H211587   2.634   3.539   4.148 -0.8941  0.5527 -0.6774
 3875TIP3   OH211588   4.437   4.404   3.628 -0.2973 -0.4141 -0.0561
 3875TIP3    H111589   4.386   4.479   3.597  0.3343 -0.4666 -1.2624
 3875TIP3    H211590   4.523   4.440   3.650  0.1753 -0.8549 -1.1357
 3876TIP3   OH211591   5.924   2.680   4.367  0.3708 -0.5444  0.8911
 3876TIP3    H111592   5.855   2.624   4.333  1.4467 -0.2179 -2.1262
 3876TIP3    H211593   5.884   2.767   4.370  0.7047 -0.2638 -1.3256
 3877TIP3   OH211594   3.783   4.220   4.844  0.3059 -0.4024 -0.2040
 3877TIP3    H111595   3.729   4.291   4.879  0.2789 -1.1337  1.3390
 3877TIP3    H211596   3.873   4.248   4.858  0.2956 -0.5838  0.2483
 3878TIP3   OH211597   3.254   0.304   4.653 -0.5891  0.2593 -0.0114
 3878TIP3    H111598   3.209   0.251   4.588 -1.2286 -0.4009  0.9427
 3878TIP3    H211599   3.248   0.253   4.734  1.2742  0.4782  0.3085
 3879TIP3   OH211600   0.921   6.014   3.349  0.4660 -0.0715 -0.0668
 3879TIP3    H111601   0.925   6.093   3.403 -0.8210 -0.1453  0.1517
 3879TIP3    H211602   1.002   5.967   3.370 -0.6496 -0.8682  2.9934
 3880TIP3   OH211603   0.967   4.167   2.226  0.1709  0.2099  0.4353
 3880TIP3    H111604   0.986   4.261   2.225  0.2020  0.2072  0.7629
 3880TIP3    H211605   1.021   4.131   2.155 -0.2808  0.5208 -0.0720
 3881TIP3   OH211606   0.049   1.747   2.434  0.1117 -0.2275 -0.3434
 3881TIP3    H111607   0.004   1.676   2.480  0.1506  0.2584  0.4598
 3881TIP3    H211608   0.083   1.803   2.503 -0.6432  1.0424 -0.9599
 3882TIP3   OH211609   0.945   0.687   3.660  0.0303  0.4301  0.4156
 3882TIP3    H111610   0.861   0.643   3.676  0.3429 -0.1299  0.5746
 3882TIP3    H211611   0.926   0.780   3.668 -0.5468  0.3011  0.5896
 3883TIP3   OH211612   5.469   2.605   4.439  0.0799 -0.1133 -1.0326
 3883TIP3    H111613   5.410   2.678   4.420 -0.2090 -0.8952 -3.5066
 3883TIP3    H211614   5.451   2.582   4.530  1.5704  4.0642  0.5480
 3884TIP3   OH211615   5.656   4.474   0.550  0.3738  0.6892 -0.1367
 3884TIP3    H111616   5.630   4.560   0.517  1.8427  0.8537 -0.9810
 3884TIP3    H211617   5.580   4.418   0.538 -0.1749  1.5655 -0.7876
 3885TIP3   OH211618   6.801   6.540   4.252 -0.1603  0.0733 -0.0904
 3885TIP3    H111619   6.896   6.534   4.265  0.2763  2.9554 -1.1521
 3885TIP3    H211620   6.768   6.574   4.335 -0.1230 -0.0465 -0.0261
 3886TIP3   OH211621   1.357   4.909   0.211 -0.3706 -0.4886 -0.0508
 3886TIP3    H111622   1.399   4.832   0.174  0.4965 -0.6926  1.2730
 3886TIP3    H211623   1.421   4.943   0.275 -1.5544  0.1359  0.8487
 3887TIP3   OH211624   5.005   4.764   4.289  0.0410  0.2661 -0.2852
 3887TIP3    H111625   5.066   4.760   4.362  0.4909  1.3633 -0.5736
 3887TIP3    H211626   5.019   4.852   4.251 -2.0054  0.7066 -0.1094
 3888TIP3   OH211627   5.177   5.222   4.365 -0.8064  0.3876 -0.9811
 3888TIP3    H111628   5.234   5.265   4.429 -0.0905  0.8449 -1.9060
 3888TIP3    H211629   5.185   5.129   4.385 -1.2358  0.5691  0.1144
 3889TIP3   OH211630   4.791   1.788   2.875 -0.3244  0.3449  0.0550
 3889TIP3    H111631   4.818   1.877   2.852 -1.9990  1.0655  0.6952
 3889TIP3    H211632   4.700   1.797   2.903 -0.4525 -1.5428  0.3950
 3890TIP3   OH211633   6.004   6.134   3.167  0.4016 -0.2757 -0.5167
 3890TIP3    H111634   5.937   6.187   3.211  1.5348 -0.2090  1.2243
 3890TIP3    H211635   5.985   6.044   3.196  1.3972 -0.1810  0.4730
 3891TIP3   OH211636   3.977   2.419   2.875  0.0254 -0.1858  0.7160
 3891TIP3    H111637   3.967   2.324   2.875  0.0896 -0.2094 -0.8147
 3891TIP3    H211638   4.045   2.436   2.941  1.2122 -1.3521 -0.1519
 3892TIP3   OH211639   2.995   4.816   0.158 -0.0492 -0.8667  0.2066
 3892TIP3    H111640   3.067   4.753   0.163  1.1480  0.2198 -1.8879
 3892TIP3    H211641   2.979   4.827   0.064 -0.7361  1.3655  0.5306
 3893TIP3   OH211642   6.503   5.986   2.802  0.0886  0.3373 -0.0403
 3893TIP3    H111643   6.553   5.954   2.727  1.7000 -2.2160  1.9312
 3893TIP3    H211644   6.555   6.059   2.836  2.2785 -1.7542  1.4858
 3894TIP3   OH211645   6.534   2.794   3.885  0.0518 -0.4038  0.6316
 3894TIP3    H111646   6.548   2.786   3.979 -3.7614  1.9567  1.6450
 3894TIP3    H211647   6.467   2.728   3.865  0.1763 -0.2795 -0.2451
 3895TIP3   OH211648   2.749   6.031   3.941  0.0348 -0.8463 -0.0842
 3895TIP3    H111649   2.721   5.945   3.973 -0.6546 -1.1245 -1.3532
 3895TIP3    H211650   2.841   6.037   3.965 -0.0873 -1.6509  0.6260
 3896TIP3   OH211651   0.863   4.737   2.607  0.4331  0.1660  0.3184
 3896TIP3    H111652   0.797   4.667   2.611 -0.8763  1.4069  1.7538
 3896TIP3    H211653   0.902   4.738   2.694  2.0954 -0.2256 -0.3667
 3897TIP3   OH211654   4.323   6.779   2.392  0.3652 -0.5858 -0.1195
 3897TIP3    H111655   4.408   6.741   2.415  0.4956 -0.3831 -0.2610
 3897TIP3    H211656   4.268   6.703   2.370  0.6863 -0.6837 -0.6132
 3898TIP3   OH211657   7.144   3.661   5.746  0.0517  0.0977  0.2485
 3898TIP3    H111658   7.177   3.740   5.790  0.5758  0.0039  0.0329
 3898TIP3    H211659   7.197   3.590   5.782  0.2828 -0.0177 -0.3019
 3899TIP3   OH211660   0.897   1.693   5.039  1.1255 -0.0922  0.3165
 3899TIP3    H111661   0.815   1.682   5.087  1.1373 -0.6956  0.2028
 3899TIP3    H211662   0.884   1.772   4.987  0.6125 -0.1960  0.2870
 3900TIP3   OH211663   1.877   0.482   4.402 -0.0623  0.7096  0.0885
 3900TIP3    H111664   1.820   0.413   4.367 -1.1755  1.6246  0.0372
 3900TIP3    H211665   1.918   0.442   4.479  0.1424 -0.3502 -0.5514
 3901TIP3   OH211666   1.995   5.826   3.217  0.3500 -0.2694  0.0569
 3901TIP3    H111667   2.053   5.891   3.176 -0.1681  0.2856  0.1876
 3901TIP3    H211668   1.916   5.875   3.238  0.4093 -0.6705  1.2576
 3902TIP3   OH211669   3.590   0.462   5.329  0.0488 -0.0623 -0.0800
 3902TIP3    H111670   3.575   0.513   5.408  1.3918  0.2665 -0.0099
 3902TIP3    H211671   3.610   0.527   5.262 -1.3706 -0.3178 -0.7907
 3903TIP3   OH211672   4.479   5.637   0.770  0.0744  0.1508 -0.4043
 3903TIP3    H111673   4.565   5.680   0.772 -0.8071  2.0629 -0.9868
 3903TIP3    H211674   4.438   5.663   0.853 -0.1364 -0.3582 -0.3438
 3904TIP3   OH211675   2.830   2.650   4.336  0.2390 -0.2405  0.1933
 3904TIP3    H111676   2.824   2.732   4.386 -2.3854 -0.0931 -0.1797
 3904TIP3    H211677   2.922   2.642   4.314  0.9847  1.3417  2.3285
 3905TIP3   OH211678   2.083   1.963   2.893  0.6359  0.1836 -0.0644
 3905TIP3    H111679   2.151   2.018   2.930  0.2322  0.5178  0.1967
 3905TIP3    H211680   2.130   1.892   2.850  1.1113 -0.4980  1.5222
 3906TIP3   OH211681   0.733   2.827   4.523  0.1407 -0.2902  0.5821
 3906TIP3    H111682   0.640   2.836   4.502  0.7571  2.1765 -1.6536
 3906TIP3    H211683   0.739   2.855   4.614 -1.3028 -0.4944  0.7760
 3907TIP3   OH211684   4.826   1.078   2.199  0.2172 -0.8448  0.6055
 3907TIP3    H111685   4.841   1.085   2.105 -0.3264 -1.6316  0.4534
 3907TIP3    H211686   4.733   1.060   2.208  0.0825  0.0842  1.3496
 3908TIP3   OH211687   3.266   5.544   2.362 -0.3429  0.8360  0.7400
 3908TIP3    H111688   3.324   5.580   2.429  2.1428 -0.1489 -0.7524
 3908TIP3    H211689   3.283   5.450   2.363 -1.5992  0.5720 -0.0690
 3909TIP3   OH211690   3.747   4.820   0.948 -0.4044 -0.2507 -0.4614
 3909TIP3    H111691   3.659   4.856   0.957 -1.2699 -2.2570 -0.1281
 3909TIP3    H211692   3.743   4.766   0.870 -0.3985 -2.6072  1.0506
 3910TIP3   OH211693   1.733   1.455   2.044  0.3037  0.0164 -0.2956
 3910TIP3    H111694   1.804   1.504   2.086  0.4582 -2.6250  2.8131
 3910TIP3    H211695   1.777   1.407   1.973  0.7155  1.7127 -1.2633
 3911TIP3   OH211696   3.956   3.710   4.823 -0.0835 -0.2776  0.2901
 3911TIP3    H111697   3.878   3.657   4.807  0.9142 -1.6119 -0.3299
 3911TIP3    H211698   3.943   3.788   4.768 -1.2249 -0.1854  0.6511
 3912TIP3   OH211699   2.325   0.730   4.820  0.2496  0.3271 -0.0154
 3912TIP3    H111700   2.418   0.726   4.841 -0.3054 -1.0437  2.6458
 3912TIP3    H211701   2.300   0.640   4.801 -0.6403  0.5903 -0.1587
 3913TIP3   OH211702   4.471   3.486   3.127  0.6954 -0.3549  0.2176
 3913TIP3    H111703   4.473   3.391   3.141 -1.9274 -0.6038 -0.4838
 3913TIP3    H211704   4.391   3.500   3.075  2.0682  2.0326 -1.4234
 3914TIP3   OH211705   5.606   1.072   4.885 -0.4241 -0.3810 -0.2821
 3914TIP3    H111706   5.575   1.058   4.975 -0.8465  1.4564 -0.1031
 3914TIP3    H211707   5.681   1.013   4.876 -1.0299 -1.3814  0.9082
 3915TIP3   OH211708   3.131   3.660   1.795 -0.2440 -0.3805  0.1330
 3915TIP3    H111709   3.107   3.634   1.706 -1.5254 -0.5908  0.5253
 3915TIP3    H211710   3.172   3.746   1.784  0.4308 -0.7900 -0.7437
 3916TIP3   OH211711   5.530   2.000   2.324  0.0414  0.1588  0.1247
 3916TIP3    H111712   5.452   2.004   2.378  0.1253  0.6282  0.2186
 3916TIP3    H211713   5.601   2.029   2.382  0.5329 -1.6274  0.4713
 3917TIP3   OH211714   1.944   2.088   0.876 -0.2100 -0.1208 -0.0760
 3917TIP3    H111715   1.930   2.176   0.909  1.0719  0.0875 -0.0446
 3917TIP3    H211716   2.021   2.094   0.820 -0.8952 -0.9635 -1.1519
 3918TIP3   OH211717   6.798   1.474   2.484  0.2053 -0.3222 -0.1162
 3918TIP3    H111718   6.852   1.478   2.404  1.2551  1.8600  0.6203
 3918TIP3    H211719   6.861   1.463   2.555 -0.1481  2.7368  0.8163
 3919TIP3   OH211720   2.563   5.419   2.810  0.0201  0.0632  0.0515
 3919TIP3    H111721   2.570   5.472   2.730 -1.8811  2.1094  1.1305
 3919TIP3    H211722   2.604   5.472   2.878  0.3021 -0.9902  0.7235
 3920TIP3   OH211723   1.055   1.797   0.967  0.1568  0.2205 -0.4134
 3920TIP3    H111724   1.031   1.860   1.034 -2.6910 -0.2455 -0.8860
 3920TIP3    H211725   1.003   1.822   0.890  1.2184 -0.9185 -1.5643
 3921TIP3   OH211726   5.637   6.232   5.773  0.4528  0.2885 -0.0145
 3921TIP3    H111727   5.597   6.168   5.714 -1.4349 -0.3637  1.8543
 3921TIP3    H211728   5.614   6.317   5.735  0.4648 -0.1106 -0.9460
 3922TIP3   OH211729   2.928   5.139   5.639  0.3249 -0.4113 -0.0329
 3922TIP3    H111730   2.954   5.225   5.672 -0.4607 -0.0701 -0.2894
 3922TIP3    H211731   2.833   5.143   5.633  0.4119  0.5434 -4.8534
 3923TIP3   OH211732   0.548   2.459   5.404 -0.7627 -0.2150 -0.2652
 3923TIP3    H111733   0.616   2.392   5.400 -2.5466 -2.0761 -1.1582
 3923TIP3    H211734   0.498   2.439   5.483  0.5317  2.1112  1.2989
 3924TIP3   OH211735   2.626   2.868   3.682  0.0158  0.3633 -0.2351
 3924TIP3    H111736   2.658   2.914   3.604  0.4285 -0.9939 -0.9060
 3924TIP3    H211737   2.672   2.784   3.681 -0.7658 -0.1109  0.8925
 3925TIP3   OH211738   3.156   5.156   1.482 -0.1243 -0.3227  0.2498
 3925TIP3    H111739   3.104   5.137   1.560 -1.3444  1.1985 -0.1492
 3925TIP3    H211740   3.153   5.075   1.431 -0.3850 -0.9146  1.1791
 3926TIP3   OH211741   0.364   1.013   0.631 -0.6350 -0.0620 -0.1099
 3926TIP3    H111742   0.301   1.083   0.614 -0.7431 -0.0759  0.2308
 3926TIP3    H211743   0.394   0.987   0.544  0.2122  1.1359 -0.2058
 3927TIP3   OH211744   6.457   4.606   1.210 -0.3863 -0.1383 -0.9434
 3927TIP3    H111745   6.520   4.538   1.187  0.1718  0.1803 -0.4009
 3927TIP3    H211746   6.372   4.569   1.186 -0.1474 -1.2724 -0.1280
 3928TIP3   OH211747   5.938   4.258   2.188 -0.7313  0.1241  0.3920
 3928TIP3    H111748   5.870   4.192   2.190 -1.6893  1.0354 -0.9056
 3928TIP3    H211749   6.006   4.221   2.132 -1.3762  0.3174 -0.5412
 3929TIP3   OH211750   5.446   5.791   4.934  0.6315 -0.2800  0.5901
 3929TIP3    H111751   5.532   5.789   4.893  0.7056  0.2210  0.7253
 3929TIP3    H211752   5.414   5.701   4.925  0.9091 -0.3220 -0.0074
 3930TIP3   OH211753   4.420   2.097   5.582 -0.0239  0.2090 -0.0495
 3930TIP3    H111754   4.484   2.151   5.629 -0.4376 -0.3629  1.2259
 3930TIP3    H211755   4.469   2.062   5.507  1.1715 -0.1790  0.8680
 3931TIP3   OH211756   5.600   4.904   2.845  0.0329 -0.0816 -0.5814
 3931TIP3    H111757   5.573   4.876   2.932 -3.1741  0.2547 -1.3413
 3931TIP3    H211758   5.635   4.992   2.857 -0.8061  0.1348  0.3012
 3932TIP3   OH211759   3.905   2.698   5.905  0.2806  0.6706  0.0492
 3932TIP3    H111760   3.892   2.614   5.861  2.7023 -0.3616  1.1291
 3932TIP3    H211761   3.977   2.739   5.857  0.9103  0.8742  1.1201
 3933TIP3   OH211762   7.065   5.581   1.882 -0.4640  0.1223 -0.9226
 3933TIP3    H111763   6.985   5.619   1.846 -0.8622  2.7840  2.3085
 3933TIP3    H211764   7.136   5.628   1.838 -0.6832 -0.8407 -2.3604
 3934TIP3   OH211765   0.002   0.603   3.655 -0.1106 -0.2084 -0.6078
 3934TIP3    H111766   0.028   0.671   3.593  0.9599 -3.1627 -3.7231
 3934TIP3    H211767   0.056   0.619   3.732 -0.8887  3.1397 -0.5947
 3935TIP3   OH211768   6.595   3.406   1.026 -1.0873 -0.2467  0.0724
 3935TIP3    H111769   6.558   3.391   0.938  0.8584  1.4563 -1.1275
 3935TIP3    H211770   6.641   3.325   1.046 -0.3805 -0.1687 -1.1245
 3936TIP3   OH211771   5.879   3.908   4.921  0.0097  0.1522  0.1523
 3936TIP3    H111772   5.935   3.983   4.901 -1.2093  0.6596 -1.5536
 3936TIP3    H211773   5.927   3.832   4.886  0.3600  0.3681  0.1557
 3937TIP3   OH211774   3.523   4.731   1.731  0.3839 -0.8566 -0.4182
 3937TIP3    H111775   3.522   4.690   1.817  0.0671 -0.7947 -0.3937
 3937TIP3    H211776   3.577   4.809   1.743 -3.2441  1.7341  0.9124
 3938TIP3   OH211777   2.369   3.907   3.697  0.0382  0.7698 -0.1061
 3938TIP3    H111778   2.299   3.889   3.760 -2.0631  0.3048 -2.4071
 3938TIP3    H211779   2.448   3.877   3.741 -1.0888  1.6004  2.7592
 3939TIP3   OH211780   6.736   3.472   1.912  0.0417 -0.5943 -0.0696
 3939TIP3    H111781   6.691   3.418   1.977  0.0031  0.2224  0.6008
 3939TIP3    H211782   6.807   3.417   1.879  1.1307 -0.4539  1.9082
 3940TIP3   OH211783   6.931   5.602   4.230 -0.3211 -0.2816  0.7740
 3940TIP3    H111784   6.853   5.657   4.225 -1.1874 -1.4676  0.7028
 3940TIP3    H211785   7.004   5.662   4.214 -1.3062  0.6272 -0.5747
 3941TIP3   OH211786   4.543   5.702   5.377 -0.3795  0.0298  0.5440
 3941TIP3    H111787   4.529   5.615   5.338  1.3595 -0.1598  0.2253
 3941TIP3    H211788   4.636   5.719   5.362 -0.8861  2.3936 -0.2784
 3942TIP3   OH211789   3.679   6.392   0.902  0.1714  0.2218  0.3296
 3942TIP3    H111790   3.747   6.459   0.891 -0.7660  1.0097 -0.9052
 3942TIP3    H211791   3.708   6.320   0.846 -0.1878  0.7197 -0.5208
 3943TIP3   OH211792   3.591   6.463   5.420 -0.0247 -0.1993 -0.0878
 3943TIP3    H111793   3.571   6.369   5.420 -0.7394 -0.0560 -0.4475
 3943TIP3    H211794   3.620   6.481   5.510 -0.7234 -0.5992  0.2303
 3944TIP3   OH211795   4.025   0.482   0.934  0.1446 -0.1379 -0.9122
 3944TIP3    H111796   4.035   0.397   0.977  2.9590  0.2975 -0.4769
 3944TIP3    H211797   4.038   0.546   1.005  0.5247  0.6160 -1.6388
 3945TIP3   OH211798   6.311   0.692   1.699  0.3576 -0.6976 -0.2662
 3945TIP3    H111799   6.323   0.732   1.613  1.1823 -0.1680  0.0861
 3945TIP3    H211800   6.242   0.627   1.685 -0.9054  0.7275 -0.8855
 3946TIP3   OH211801   5.369   2.649   1.203 -0.0249 -0.1006  0.7549
 3946TIP3    H111802   5.320   2.644   1.121  0.7021  1.2007  0.2148
 3946TIP3    H211803   5.310   2.695   1.263 -0.0115  0.2247  0.5230
 3947TIP3   OH211804   3.157   4.332   5.134  0.7301  0.5802  0.3091
 3947TIP3    H111805   3.194   4.264   5.078 -0.6059 -0.7108  0.9134
 3947TIP3    H211806   3.149   4.408   5.077  0.0773 -0.4752 -1.0707
 3948TIP3   OH211807   3.919   1.793   4.805 -0.1324  0.3884  0.0675
 3948TIP3    H111808   3.896   1.883   4.826 -1.3449  0.3109 -0.8000
 3948TIP3    H211809   3.852   1.765   4.743  0.9483 -0.7027 -0.6670
 3949TIP3   OH211810   2.914   1.171   3.232  0.2118 -0.1539  0.0566
 3949TIP3    H111811   2.856   1.096   3.214  0.7245 -0.7430  0.8326
 3949TIP3    H211812   2.887   1.237   3.168 -1.5271 -0.3015  0.5767
 3950TIP3   OH211813   4.538   0.467   4.186  0.5251 -0.1913  0.0319
 3950TIP3    H111814   4.598   0.467   4.112 -0.4350  1.2363 -0.7999
 3950TIP3    H211815   4.560   0.546   4.235  0.4342 -0.5527  0.6666
 3951TIP3   OH211816   5.112   5.978   2.852  0.2216 -0.3007 -0.4260
 3951TIP3    H111817   5.140   6.058   2.806 -0.1928 -0.9562 -1.9017
 3951TIP3    H211818   5.049   6.009   2.917  0.4025  0.6241 -0.6670
 3952TIP3   OH211819   2.731   2.226   1.719 -0.1686 -0.5930 -0.0033
 3952TIP3    H111820   2.797   2.186   1.776 -0.8609 -0.5097  0.8683
 3952TIP3    H211821   2.716   2.160   1.651  1.5561 -0.1979 -0.8349
 3953TIP3   OH211822   5.349   4.445   3.114  0.0354 -0.1150  0.0364
 3953TIP3    H111823   5.368   4.510   3.047 -0.8667  1.0916  0.9250
 3953TIP3    H211824   5.435   4.406   3.134  0.1162 -1.8711 -3.0935
 3954TIP3   OH211825   1.501   2.636   4.712 -0.3796  0.1432  0.3562
 3954TIP3    H111826   1.547   2.654   4.794  0.0360 -0.9410  0.3770
 3954TIP3    H211827   1.426   2.696   4.713  1.4002  2.5485 -0.0355
 3955TIP3   OH211828   0.381   3.816   0.601  0.3817  0.1574  0.2920
 3955TIP3    H111829   0.360   3.723   0.601  2.2306 -0.2990 -0.2012
 3955TIP3    H211830   0.409   3.835   0.511  2.7403  0.4844  1.0202
 3956TIP3   OH211831   4.449   6.097   1.656  0.2616  0.3252 -0.0296
 3956TIP3    H111832   4.467   6.175   1.604 -1.7965  0.7462 -0.2065
 3956TIP3    H211833   4.374   6.122   1.711 -0.4035 -1.4858 -0.0501
 3957TIP3   OH211834   1.961   3.249   2.764 -0.7241 -0.0005 -0.2841
 3957TIP3    H111835   2.016   3.171   2.775 -1.3227 -0.2387  1.2104
 3957TIP3    H211836   1.905   3.228   2.689 -0.4270 -0.7249 -0.3144
 3958TIP3   OH211837   1.598   2.344   2.254  0.6075  0.3378 -0.4872
 3958TIP3    H111838   1.672   2.285   2.235  0.6620  0.5403 -0.9254
 3958TIP3    H211839   1.638   2.428   2.273  0.5201  0.2790 -0.0398
 3959TIP3   OH211840   1.554   3.127   4.820 -0.5497 -0.4140 -0.6824
 3959TIP3    H111841   1.622   3.190   4.842 -0.6554 -1.0409  1.6123
 3959TIP3    H211842   1.474   3.179   4.813 -0.2319  0.0160 -1.2964
 3960TIP3   OH211843   3.820   2.299   5.065  0.4409  0.2473 -0.2455
 3960TIP3    H111844   3.806   2.245   5.142 -1.0912  0.0246 -0.6582
 3960TIP3    H211845   3.848   2.238   4.997 -1.9287 -0.2144 -0.8977
 3961TIP3   OH211846   6.177   0.265   0.783 -0.0624  0.1762 -0.5280
 3961TIP3    H111847   6.213   0.353   0.784 -0.3235  0.2781  0.1451
 3961TIP3    H211848   6.216   0.224   0.706  0.5349  0.6776 -0.4960
 3962TIP3   OH211849   5.871   5.470   2.463  0.6547 -0.3396 -0.0385
 3962TIP3    H111850   5.924   5.394   2.489  0.8119 -0.1636  0.1611
 3962TIP3    H211851   5.807   5.480   2.534  0.5280 -0.3854 -0.1459
 3963TIP3   OH211852   2.326   5.924   5.369  0.1886 -0.1816  0.6145
 3963TIP3    H111853   2.328   5.959   5.458  1.9596  1.6177 -0.0519
 3963TIP3    H211854   2.280   5.841   5.377 -1.1527  0.6916  2.9115
 3964TIP3   OH211855   1.966   0.786   1.666  0.3584 -0.6265  0.6020
 3964TIP3    H111856   1.930   0.699   1.684 -0.3797 -0.1404  1.5584
 3964TIP3    H211857   1.989   0.783   1.573 -1.4304 -1.2405  0.1289
 3965TIP3   OH211858   5.472   5.684   1.340  0.3930  0.0701  0.4970
 3965TIP3    H111859   5.401   5.633   1.301  1.5665 -1.3612  0.1455
 3965TIP3    H211860   5.540   5.686   1.272  1.1404  0.4459  1.2377
 3966TIP3   OH211861   2.205   4.549   0.309 -0.0384  0.7418  0.6401
 3966TIP3    H111862   2.254   4.578   0.232  0.9722  0.3867  1.1370
 3966TIP3    H211863   2.227   4.612   0.377  1.0052 -0.3236  1.3133
 3967TIP3   OH211864   0.647   5.155   3.221  0.5523 -0.4352 -0.4106
 3967TIP3    H111865   0.648   5.201   3.305 -2.0891 -0.0920 -0.4813
 3967TIP3    H211866   0.674   5.220   3.157 -1.7447  0.7049 -0.3205
 3968TIP3   OH211867   2.993   2.868   3.643  0.4160  0.2682  0.4392
 3968TIP3    H111868   3.043   2.950   3.640 -0.1840  0.6408 -2.3673
 3968TIP3    H211869   2.917   2.884   3.587 -0.2337 -1.9092  0.6052
 3969TIP3   OH211870   5.643   5.027   3.956  0.7931 -0.5920  0.2309
 3969TIP3    H111871   5.733   5.037   3.925  0.5527 -3.7777 -1.8813
 3969TIP3    H211872   5.589   5.063   3.886  0.3882 -2.1147 -0.2707
 3970TIP3   OH211873   1.475   1.933   0.425 -0.0710  0.3657  0.5540
 3970TIP3    H111874   1.536   1.868   0.391  0.2085  1.0445 -0.2904
 3970TIP3    H211875   1.456   1.989   0.350 -2.4241 -0.3328  0.5545
 3971TIP3   OH211876   5.837   2.335   1.267 -0.3659  0.3460  0.0198
 3971TIP3    H111877   5.809   2.326   1.358 -0.9416 -0.7419 -0.2521
 3971TIP3    H211878   5.811   2.253   1.226  3.0815 -0.7669 -0.2920
 3972TIP3   OH211879   0.751   2.257   5.383  0.2678 -0.3952 -0.2424
 3972TIP3    H111880   0.834   2.299   5.406  0.0814  1.4147 -2.4178
 3972TIP3    H211881   0.727   2.205   5.460  2.0716  1.1544  1.4760
 3973TIP3   OH211882   3.729   4.593   2.188  0.6718 -0.0951  0.5551
 3973TIP3    H111883   3.642   4.558   2.169  0.7051  0.4213 -0.6353
 3973TIP3    H211884   3.717   4.643   2.269  0.2754 -1.4613  1.3865
 3974TIP3   OH211885   0.031   5.228   2.771  0.5321 -0.7973  0.4709
 3974TIP3    H111886   0.119   5.264   2.756 -0.2981  1.5990  0.8883
 3974TIP3    H211887   0.037   5.137   2.743  2.5448 -0.0945 -1.6855
 3975TIP3   OH211888   7.043   0.774   3.938  0.5123  0.7373 -0.7845
 3975TIP3    H111889   6.988   0.782   3.860 -1.0319 -1.1977  0.0312
 3975TIP3    H211890   7.130   0.751   3.904 -0.2453 -0.5516 -1.9334
 3976TIP3   OH211891   1.079   0.056   1.421  0.1891 -0.4455 -0.7166
 3976TIP3    H111892   1.136   0.132   1.413 -0.4846  0.2611  0.7353
 3976TIP3    H211893   1.122   0.000   1.485 -0.4433 -0.1797 -0.0480
 3977TIP3   OH211894   1.597   0.875   2.304  0.2910 -0.4678  0.1298
 3977TIP3    H111895   1.691   0.885   2.290  0.3358 -0.2867  0.5282
 3977TIP3    H211896   1.589   0.794   2.354  0.1250 -1.1709 -1.0017
 3978TIP3   OH211897   6.172   5.437   5.473  0.0750 -0.4016 -0.3065
 3978TIP3    H111898   6.195   5.478   5.557 -0.6879 -0.1724 -0.1952
 3978TIP3    H211899   6.099   5.490   5.440  0.9684  0.0924 -1.5814
 3979TIP3   OH211900   2.003   0.106   3.313 -0.4762  0.6003  0.8105
 3979TIP3    H111901   1.971   0.176   3.372  0.7294  2.3134 -0.4643
 3979TIP3    H211902   1.978   0.136   3.226  0.8460 -0.1256  0.1609
 3980TIP3   OH211903   7.108   1.949   1.662  0.1192 -0.4975 -0.2111
 3980TIP3    H111904   7.198   1.937   1.695  0.2485  0.0810 -0.3423
 3980TIP3    H211905   7.056   1.964   1.741  0.2962  0.0785 -0.1950
 3981TIP3   OH211906   5.234   0.598   1.941 -0.2870 -0.1306  0.3607
 3981TIP3    H111907   5.303   0.595   1.874 -0.8294  0.0404 -0.2143
 3981TIP3    H211908   5.159   0.556   1.899 -0.2652 -1.1951  1.3124
 3982TIP3   OH211909   7.109   1.091   3.527  0.3002 -0.4949  0.3400
 3982TIP3    H111910   7.062   1.160   3.481  0.1124 -0.8901 -0.0666
 3982TIP3    H211911   7.106   1.117   3.619  0.5708  0.2363  0.1492
 3983TIP3   OH211912   5.609   0.182   0.427  0.4998 -0.1578  0.8208
 3983TIP3    H111913   5.701   0.172   0.451  0.8360  0.5439 -0.1330
 3983TIP3    H211914   5.608   0.180   0.331 -0.8505 -3.2876  0.7483
 3984TIP3   OH211915   4.395   3.081   1.792  0.1150 -0.7721  0.4581
 3984TIP3    H111916   4.376   3.173   1.812  1.3549 -0.5042  0.4966
 3984TIP3    H211917   4.454   3.054   1.863  0.9067 -1.1662 -0.3368
 3985TIP3   OH211918   3.786   3.382   0.560 -0.3611 -0.6958  0.2752
 3985TIP3    H111919   3.830   3.375   0.645  1.1020 -0.1607 -0.4043
 3985TIP3    H211920   3.800   3.296   0.520 -0.2687 -0.6488  0.2078
 3986TIP3   OH211921   5.480   1.581   4.608 -0.0611  0.5390 -0.0884
 3986TIP3    H111922   5.425   1.507   4.634 -0.5991  0.4322 -1.4630
 3986TIP3    H211923   5.437   1.618   4.532  1.2593  1.0557 -0.6126
 3987TIP3   OH211924   0.373   4.680   2.866  0.4619  0.5865 -0.3300
 3987TIP3    H111925   0.288   4.701   2.905  0.2199  1.4171 -1.2487
 3987TIP3    H211926   0.406   4.607   2.918 -1.1010 -0.1713 -0.3279
 3988TIP3   OH211927   3.208   0.249   1.219 -0.1290 -0.3447  0.3660
 3988TIP3    H111928   3.135   0.208   1.173 -1.2449  1.1767  0.6815
 3988TIP3    H211929   3.205   0.212   1.308  0.0555 -0.9573  0.1181
 3989TIP3   OH211930   6.001   6.616   3.808 -0.7449  0.4736 -0.1473
 3989TIP3    H111931   6.062   6.616   3.734  0.4864 -1.0313  0.7927
 3989TIP3    H211932   5.921   6.576   3.773 -0.3830  0.3162 -0.8184
 3990TIP3   OH211933   2.163   5.576   5.188 -0.0649  0.0167  0.6337
 3990TIP3    H111934   2.122   5.626   5.259  1.4955  0.1387  1.4742
 3990TIP3    H211935   2.247   5.619   5.173 -0.7137  0.6038 -1.9739
 3991TIP3   OH211936   2.520   3.447   5.069 -0.1626 -0.6285 -0.5655
 3991TIP3    H111937   2.574   3.382   5.025  0.0480  0.3459 -1.8076
 3991TIP3    H211938   2.485   3.501   4.998 -1.5600 -0.3115  0.3170
 3992TIP3   OH211939   0.332   2.380   0.868  0.3544  0.3804 -0.1975
 3992TIP3    H111940   0.320   2.472   0.889  0.3273  0.2993  0.1407
 3992TIP3    H211941   0.343   2.336   0.952  0.3158  0.0666 -0.3513
 3993TIP3   OH211942   4.900   5.607   0.140  0.2527  0.5398  0.0702
 3993TIP3    H111943   4.813   5.585   0.106  0.4020  0.5761 -0.3396
 3993TIP3    H211944   4.895   5.585   0.233  0.3799 -1.1861 -0.2952
 3994TIP3   OH211945   6.642   2.162   3.846  0.4050  0.2398  0.3374
 3994TIP3    H111946   6.686   2.188   3.927 -1.2998  2.2332  0.7439
 3994TIP3    H211947   6.654   2.068   3.840 -0.5848 -0.2137  3.6929
 3995TIP3   OH211948   5.401   1.673   4.378  0.8068 -0.3318 -0.0526
 3995TIP3    H111949   5.423   1.706   4.292  1.0382 -0.7049 -0.1383
 3995TIP3    H211950   5.330   1.611   4.362  2.0096 -1.7154 -0.1962
 3996TIP3   OH211951   2.208   2.756   0.534  0.5956 -0.5217 -0.2844
 3996TIP3    H111952   2.189   2.791   0.621  0.3673  0.7963 -0.8419
 3996TIP3    H211953   2.289   2.799   0.507 -0.8931  1.4892 -1.9342
 3997TIP3   OH211954   2.553   4.010   0.419 -0.2265  0.3033  0.0743
 3997TIP3    H111955   2.506   4.069   0.360  0.7896  0.0941 -0.9818
 3997TIP3    H211956   2.573   3.934   0.365  0.6517  0.0677  0.7215
 3998TIP3   OH211957   1.768   0.381   5.717 -0.1662  0.1978 -0.2411
 3998TIP3    H111958   1.737   0.323   5.787  0.5505  0.7177  0.5305
 3998TIP3    H211959   1.863   0.371   5.718 -0.1362  0.3175 -1.0597
 3999TIP3   OH211960   1.045   5.877   3.661 -0.4761  0.0473 -0.0897
 3999TIP3    H111961   1.127   5.871   3.709 -0.0825  1.9136 -0.4467
 3999TIP3    H211962   1.031   5.789   3.626  1.6931 -0.1715 -0.5300
 4000TIP3   OH211963   3.101   0.138   1.962  0.0056 -0.1113 -0.2740
 4000TIP3    H111964   3.051   0.220   1.970 -0.5363 -0.5031  0.4302
 4000TIP3    H211965   3.143   0.128   2.047 -3.3472 -2.7316  1.3300
 4001TIP3   OH211966   6.569   2.853   0.736  0.2104 -0.2283  0.0606
 4001TIP3    H111967   6.503   2.899   0.684  0.9477  0.0528 -0.6477
 4001TIP3    H211968   6.584   2.910   0.812  0.2437  0.1177 -0.2038
 4002TIP3   OH211969   0.531   4.550   0.061 -0.0743  0.4252  0.3999
 4002TIP3    H111970   0.568   4.522   0.145 -0.1098 -2.9769 -0.6050
 4002TIP3    H211971   0.449   4.502   0.054  0.8238 -0.8645 -2.3743
 4003TIP3   OH211972   2.280   5.490   2.330 -0.1299  0.0780 -0.3681
 4003TIP3    H111973   2.231   5.467   2.252  0.5197  1.3754 -1.1972
 4003TIP3    H211974   2.248   5.577   2.354  0.7990  0.3627 -0.1234
 4004TIP3   OH211975   3.411   1.150   4.005 -0.0074  0.0795 -0.1169
 4004TIP3    H111976   3.431   1.183   4.093  1.5713 -1.8788  0.3478
 4004TIP3    H211977   3.442   1.219   3.946 -0.9057  1.3344  0.8351
 4005TIP3   OH211978   6.033   3.615   0.229  0.8971  0.2665 -0.2714
 4005TIP3    H111979   6.064   3.606   0.139  1.8467 -0.1254  0.0768
 4005TIP3    H211980   6.103   3.576   0.282  0.2114  0.2063  0.6151
 4006TIP3   OH211981   3.988   1.716   4.184  0.5685 -0.7009 -0.4078
 4006TIP3    H111982   3.948   1.663   4.253  0.7455 -1.8547 -1.1627
 4006TIP3    H211983   3.965   1.806   4.207  0.2178 -1.0903  0.8881
 4007TIP3   OH211984   0.295   0.400   0.933 -0.2184  0.0521 -0.2041
 4007TIP3    H111985   0.349   0.438   1.002 -0.0612 -0.6594  0.0816
 4007TIP3    H211986   0.347   0.411   0.854 -0.7362  1.5581 -0.3522
 4008TIP3   OH211987   7.151   2.098   2.766 -0.0504 -0.0184  0.4935
 4008TIP3    H111988   7.075   2.124   2.713  1.2240 -1.6288 -2.3851
 4008TIP3    H211989   7.226   2.113   2.708  1.7369  0.2083  2.7312
 4009TIP3   OH211990   3.935   2.920   1.533 -0.4566 -0.4073 -0.5052
 4009TIP3    H111991   4.026   2.895   1.519  0.5778  1.5914  1.8142
 4009TIP3    H211992   3.906   2.863   1.605 -0.0621  0.8021  0.6568
 4010TIP3   OH211993   3.995   4.763   3.867  0.8720  0.0346  0.0876
 4010TIP3    H111994   4.008   4.768   3.772  1.3324  0.0857  0.1509
 4010TIP3    H211995   4.025   4.848   3.900 -3.0513  1.7386 -0.1021
 4011TIP3   OH211996   4.951   6.748   1.574  0.0561 -0.1158 -0.1607
 4011TIP3    H111997   5.013   6.800   1.522  0.5371 -0.0089  0.5027
 4011TIP3    H211998   4.915   6.811   1.637  1.6083 -0.7962  1.5309
 4012TIP3   OH211999   4.537   0.268   2.195 -0.0570 -0.2512 -0.1707
 4012TIP3    H112000   4.555   0.174   2.190 -0.2300 -0.2619 -0.7236
 4012TIP3    H212001   4.448   0.277   2.160 -0.3736  0.0206  0.6888
 4013TIP3   OH212002   5.456   3.933   1.836 -0.2774 -0.3532 -0.5945
 4013TIP3    H112003   5.441   3.967   1.748 -0.1060 -1.1341 -0.9392
 4013TIP3    H212004   5.403   3.988   1.893  0.9105  1.2589 -0.9616
 4014TIP3   OH212005   6.008   2.966   2.642  0.5075 -0.2243 -0.1322
 4014TIP3    H112006   5.957   3.032   2.688 -3.4897 -1.0756 -2.7840
 4014TIP3    H212007   6.055   3.014   2.574  1.8103  0.3578  1.1319
 4015TIP3   OH212008   3.241   4.673   0.217  0.9764  0.0282  0.4091
 4015TIP3    H112009   3.220   4.582   0.197  2.5742 -1.2093  3.6034
 4015TIP3    H212010   3.270   4.710   0.134 -0.7940 -2.0099 -1.2197
 4016TIP3   OH212011   3.855   3.159   3.814  0.3028  0.0938 -0.3234
 4016TIP3    H112012   3.928   3.164   3.876 -0.3495 -0.1551  0.4857
 4016TIP3    H212013   3.872   3.080   3.763  0.4824 -0.0967  0.0264
 4017TIP3   OH212014   0.575   6.039   0.049  0.0835 -0.2437 -0.1814
 4017TIP3    H112015   0.489   6.043   0.089 -0.7103 -0.6643 -1.7341
 4017TIP3    H212016   0.602   5.948   0.058  0.2735 -0.1582  0.1196
 4018TIP3   OH212017   1.603   5.989   5.604  0.1968 -0.0542 -0.1445
 4018TIP3    H112018   1.659   6.037   5.544  0.8512  0.7364  1.0733
 4018TIP3    H212019   1.637   5.899   5.602 -0.5924 -0.3717 -1.8848
 4019TIP3   OH212020   7.032   1.636   3.242  0.1718  0.5006  0.2373
 4019TIP3    H112021   7.029   1.588   3.158 -0.2778  1.4879 -0.3269
 4019TIP3    H212022   7.125   1.654   3.255  0.1648  1.2014 -0.5678
 4020TIP3   OH212023   0.427   0.522   2.839  0.0525 -0.4514  0.0142
 4020TIP3    H112024   0.421   0.427   2.841 -0.8759 -0.3870  1.0084
 4020TIP3    H212025   0.399   0.550   2.926  0.7152  0.7153 -0.1217
 4021TIP3   OH212026   4.379   0.398   5.523  0.1659 -0.6400 -0.0457
 4021TIP3    H112027   4.419   0.345   5.591  1.7144 -0.2742 -0.6368
 4021TIP3    H212028   4.451   0.422   5.465  0.1408  4.1600  1.4692
 4022TIP3   OH212029   5.006   2.883   4.097  0.1295  0.2794 -0.0880
 4022TIP3    H112030   4.967   2.820   4.037  0.3931 -0.4146  0.4562
 4022TIP3    H212031   5.040   2.952   4.040 -3.3935  1.8524 -0.5380
 4023TIP3   OH212032   5.405   4.358   0.525  0.0591 -0.3113 -0.5275
 4023TIP3    H112033   5.379   4.450   0.533 -0.1305 -0.3773 -0.3680
 4023TIP3    H212034   5.332   4.309   0.564  0.2609 -0.5178 -0.4041
 4024TIP3   OH212035   5.868   0.312   4.929  0.1059 -0.0268 -0.1062
 4024TIP3    H112036   5.896   0.403   4.916 -0.8313  0.1822 -0.7306
 4024TIP3    H212037   5.838   0.309   5.019  2.6340 -0.4132  0.8130
 4025TIP3   OH212038   4.563   3.201   3.153  0.2910 -0.1251  0.3595
 4025TIP3    H112039   4.631   3.184   3.219 -1.3482 -0.7638  1.9715
 4025TIP3    H212040   4.481   3.182   3.198 -1.0796  2.0912 -1.0340
 4026TIP3   OH212041   0.281   1.165   3.029 -0.5843  0.1928 -0.1065
 4026TIP3    H112042   0.204   1.171   3.084  0.1867 -0.1696  1.0397
 4026TIP3    H212043   0.311   1.256   3.020 -0.7291  0.2558  0.0486
 4027TIP3   OH212044   4.503   2.620   0.124 -0.1082 -0.6912 -1.0837
 4027TIP3    H112045   4.553   2.639   0.045  0.1218 -1.0361 -1.0276
 4027TIP3    H212046   4.475   2.705   0.156  1.1772 -0.4002 -0.6457
 4028TIP3   OH212047   6.958   2.811   2.783  0.2791  0.0328  0.4324
 4028TIP3    H112048   6.909   2.734   2.753 -0.9545  0.0992  2.1173
 4028TIP3    H212049   6.935   2.880   2.721 -0.8201 -0.2477  0.5125
 4029TIP3   OH212050   6.646   0.960   4.763 -0.6271 -0.1587 -0.0848
 4029TIP3    H112051   6.600   1.041   4.743  0.3257  0.1577 -1.0958
 4029TIP3    H212052   6.628   0.902   4.689 -0.1803 -0.3648 -0.0393
 4030TIP3   OH212053   4.133   3.888   0.840  0.5368 -0.4352 -0.0523
 4030TIP3    H112054   4.160   3.884   0.748  1.3911 -2.9576  0.2285
 4030TIP3    H212055   4.212   3.911   0.888  0.2767  0.0978  0.1291
 4031TIP3   OH212056   3.369   6.048   2.740 -0.1971 -0.2261  0.1409
 4031TIP3    H112057   3.383   6.041   2.646  0.3790 -0.2657  0.2231
 4031TIP3    H212058   3.291   6.102   2.749 -0.2280 -0.1813 -0.3602
 4032TIP3   OH212059   1.426   4.295   5.367  0.2481  0.1679 -0.0944
 4032TIP3    H112060   1.365   4.367   5.382  0.2383  0.6196 -2.1328
 4032TIP3    H212061   1.371   4.216   5.378 -0.6040  0.5554 -1.3713
 4033TIP3   OH212062   6.230   1.238   1.228  0.1803 -0.0362  0.1483
 4033TIP3    H112063   6.271   1.209   1.147  0.7723 -0.7572  0.6849
 4033TIP3    H212064   6.299   1.283   1.276 -0.8036  2.6323 -0.7866
 4034TIP3   OH212065   1.133   5.959   0.553 -0.1165 -0.7894 -0.2186
 4034TIP3    H112066   1.139   6.054   0.555 -1.3416 -0.7012  1.6464
 4034TIP3    H212067   1.206   5.929   0.607 -1.6859 -0.7002  2.1001
 4035TIP3   OH212068   3.409   5.384   2.665  0.1843  0.6928 -0.1499
 4035TIP3    H112069   3.338   5.428   2.714  0.0674  0.0491  0.2660
 4035TIP3    H212070   3.459   5.456   2.627 -1.0424  1.1596 -0.9548
 4036TIP3   OH212071   5.387   0.657   4.286 -0.0868  0.1325 -0.2434
 4036TIP3    H112072   5.409   0.692   4.200 -1.1166  1.0088 -0.1659
 4036TIP3    H212073   5.411   0.727   4.347 -1.2397  0.3313 -0.0035
 4037TIP3   OH212074   5.925   1.936   2.167 -0.1816  0.2658 -0.0640
 4037TIP3    H112075   5.883   1.898   2.244 -0.1053 -0.4259 -0.3561
 4037TIP3    H212076   5.864   1.919   2.095 -0.0589  0.5348 -0.2353
 4038TIP3   OH212077   6.043   5.200   5.440 -0.0867 -0.4218 -0.3374
 4038TIP3    H112078   6.113   5.143   5.409 -0.8595 -0.2715 -2.5370
 4038TIP3    H212079   6.082   5.287   5.439 -0.2528 -0.3380 -1.5483
 4039TIP3   OH212080   2.123   5.459   1.513  0.2484 -0.4742  0.7382
 4039TIP3    H112081   2.069   5.523   1.560  0.2441  0.6997 -0.7949
 4039TIP3    H212082   2.066   5.384   1.500 -0.7049  0.3536  0.0246
 4040TIP3   OH212083   6.957   3.837   2.267 -0.1125 -0.3132 -0.0685
 4040TIP3    H112084   6.972   3.821   2.360 -1.9397 -1.4081  0.0854
 4040TIP3    H212085   6.962   3.751   2.227 -0.5206 -0.0127 -0.7873
 4041TIP3   OH212086   6.438   1.631   0.946 -0.2595 -0.4721 -0.5996
 4041TIP3    H112087   6.501   1.560   0.940 -0.5854 -1.0801  1.9502
 4041TIP3    H212088   6.355   1.588   0.964 -0.8033  0.4847 -0.7359
 4042TIP3   OH212089   0.042   3.089   1.864  0.0393  0.0773 -0.1150
 4042TIP3    H112090   0.104   3.162   1.858  0.9269 -0.5793  0.7957
 4042TIP3    H212091  -0.023   3.108   1.796 -0.1774  2.0961  0.5955
 4043TIP3   OH212092   3.862   5.075   1.864 -0.3714 -0.2601  0.1599
 4043TIP3    H112093   3.928   5.112   1.806  0.1387  0.0298  0.9206
 4043TIP3    H212094   3.868   4.980   1.849 -0.8955 -0.1397 -0.9402
 4044TIP3   OH212095   0.347   2.911   5.289 -1.2595  0.1663 -0.2181
 4044TIP3    H112096   0.425   2.951   5.251  0.1688 -1.4855  0.8321
 4044TIP3    H212097   0.276   2.935   5.230  0.4456 -0.2874 -2.5569
 4045TIP3   OH212098   3.708   3.510   4.721 -0.2350  0.1174 -0.1008
 4045TIP3    H112099   3.669   3.573   4.660 -1.4326  1.0619  1.5646
 4045TIP3    H212100   3.665   3.527   4.805 -0.2078 -2.5536  0.5683
 4046TIP3   OH212101   2.925   0.683   5.726  0.3317  0.1919  0.2369
 4046TIP3    H112102   2.843   0.729   5.744 -1.1630 -2.1299 -0.2608
 4046TIP3    H212103   2.989   0.724   5.784 -1.0293  2.3937  0.2939
 4047TIP3   OH212104   1.607   3.304   2.661  0.1354 -0.4030  0.0005
 4047TIP3    H112105   1.654   3.231   2.701 -1.0634 -1.7743 -0.9739
 4047TIP3    H212106   1.518   3.297   2.696 -0.5124 -0.6452 -1.5870
 4048TIP3   OH212107   1.390   2.141   0.779  0.1189 -0.2225 -0.0288
 4048TIP3    H112108   1.449   2.153   0.705  0.8055  1.9452  0.7937
 4048TIP3    H212109   1.306   2.119   0.739  1.1471 -2.1580 -1.2706
 4049TIP3   OH212110   2.374   0.103   0.190  0.0810 -0.3445 -1.0515
 4049TIP3    H112111   2.337   0.107   0.102  0.3170  0.4361 -1.1158
 4049TIP3    H212112   2.460   0.144   0.183 -0.2143  0.4460 -0.3010
 4050TIP3   OH212113   3.672   4.812   3.840 -0.6825 -0.6223 -0.1997
 4050TIP3    H112114   3.704   4.849   3.922  0.3353 -1.4132 -0.2242
 4050TIP3    H212115   3.696   4.876   3.773  2.4452 -1.8946 -0.4561
 4051TIP3   OH212116   3.848   0.367   4.999  0.2293 -0.2533 -0.2683
 4051TIP3    H112117   3.768   0.370   4.947  0.8621 -0.5564 -1.2927
 4051TIP3    H212118   3.838   0.292   5.056 -1.1368  0.9682  1.1873
 4052TIP3   OH212119   6.568   1.426   1.684 -0.2821 -0.2768  0.1322
 4052TIP3    H112120   6.491   1.467   1.724 -1.2996 -0.1415 -1.8252
 4052TIP3    H212121   6.596   1.361   1.748 -0.1277  1.7371  2.2386
 4053TIP3   OH212122   1.317   5.353   4.764  0.1439 -0.4407 -0.5605
 4053TIP3    H112123   1.412   5.350   4.779  0.3786  1.3164 -1.4709
 4053TIP3    H212124   1.287   5.265   4.787  2.0376 -1.1467 -0.5870
 4054TIP3   OH212125   2.954   0.169   3.907  0.1261  0.0851  0.4606
 4054TIP3    H112126   3.019   0.173   3.837  0.5654 -1.2442  0.7564
 4054TIP3    H212127   2.871   0.189   3.865  0.3554 -0.9099 -0.4954
 4055TIP3   OH212128   5.712   0.115   4.478 -1.1932  0.0359  0.2894
 4055TIP3    H112129   5.654   0.163   4.538 -0.3642  1.0196  0.3196
 4055TIP3    H212130   5.661   0.108   4.397 -1.3512  0.9468  0.2942
 4056TIP3   OH212131   0.212   0.399   1.690  0.3940 -0.2997  0.6367
 4056TIP3    H112132   0.123   0.400   1.656  0.4111  2.6940  0.4486
 4056TIP3    H212133   0.203   0.397   1.785  0.1862 -1.2423  0.6060
 4057TIP3   OH212134   2.587   0.244   4.883 -0.1763  0.0779 -0.0878
 4057TIP3    H112135   2.540   0.180   4.935  1.2239  0.0184  1.1560
 4057TIP3    H212136   2.567   0.220   4.792 -1.2830 -0.8565  0.3770
 4058TIP3   OH212137   1.440   4.215   3.954  0.3127 -0.4758  0.0516
 4058TIP3    H112138   1.411   4.306   3.947  2.9166  0.4435  0.2605
 4058TIP3    H212139   1.362   4.163   3.933 -1.2717  1.7746  0.0470
 4059TIP3   OH212140   0.326   1.290   5.686 -0.2072 -0.3932  0.4665
 4059TIP3    H112141   0.244   1.316   5.727 -0.4459 -1.0188  0.4003
 4059TIP3    H212142   0.366   1.229   5.747  1.0052  1.1133  1.2506
 4060TIP3   OH212143   3.529   6.718   5.460 -0.0568 -0.0287  0.0934
 4060TIP3    H112144   3.492   6.740   5.375 -1.0934 -0.9937  0.2633
 4060TIP3    H212145   3.565   6.630   5.448  1.2870  0.4791  0.2240
 4061TIP3   OH212146   1.948   0.387   1.377  0.0771 -0.3027  0.8261
 4061TIP3    H112147   2.037   0.421   1.369  0.2231 -0.2004  2.6363
 4061TIP3    H212148   1.897   0.442   1.318  1.0597  0.2151  0.4299
 4062TIP3   OH212149   1.586   4.629   2.479 -0.2479 -0.2331 -0.3108
 4062TIP3    H112150   1.569   4.596   2.568  2.9746 -3.0614 -0.5552
 4062TIP3    H212151   1.659   4.690   2.490 -1.2064  1.0587 -0.8462
 4063TIP3   OH212152   3.628   4.200   5.420  0.2682 -0.2625 -0.4764
 4063TIP3    H112153   3.584   4.280   5.448 -0.0441 -0.7412  0.4407
 4063TIP3    H212154   3.599   4.187   5.330 -1.4959 -0.5626  0.0987
 4064TIP3   OH212155   3.775   0.241   2.160 -0.4015 -0.0675 -0.4696
 4064TIP3    H112156   3.695   0.245   2.107 -0.4449  0.9097 -0.3512
 4064TIP3    H212157   3.757   0.174   2.226 -1.4470  0.7176  0.0694
 4065TIP3   OH212158   4.725   0.496   2.669  0.0558  0.0456 -0.3507
 4065TIP3    H112159   4.755   0.486   2.579  0.4564 -1.0294 -0.1089
 4065TIP3    H212160   4.735   0.589   2.687  2.0798 -0.0580 -0.6912
 4066TIP3   OH212161   6.217   2.738   0.987 -0.3021 -0.1087  0.0278
 4066TIP3    H112162   6.251   2.718   0.900 -3.0309 -0.7130 -0.9916
 4066TIP3    H212163   6.123   2.745   0.975 -0.7587 -0.0973  2.9458
 4067TIP3   OH212164   1.770   6.362   4.045 -0.1642  0.4500  0.4641
 4067TIP3    H112165   1.824   6.298   3.999  2.3213  3.3851 -1.0657
 4067TIP3    H212166   1.770   6.331   4.136  0.7313 -1.8042 -0.2267
 4068TIP3   OH212167   2.379   3.037   4.658  0.2565 -0.2711  0.1641
 4068TIP3    H112168   2.295   3.061   4.620  0.1657 -0.6089  0.1450
 4068TIP3    H212169   2.444   3.073   4.598  0.1131 -1.1825 -0.5733
 4069TIP3   OH212170   0.705   2.862   5.834 -0.0886 -0.4884 -0.0587
 4069TIP3    H112171   0.788   2.909   5.831 -0.2701 -0.2133 -1.6076
 4069TIP3    H212172   0.729   2.770   5.820 -0.0549 -0.3629 -0.8982
 4070TIP3   OH212173   5.078   6.586   1.293  0.2092  0.0201  0.3778
 4070TIP3    H112174   5.092   6.676   1.261 -0.5160  0.8077  2.1397
 4070TIP3    H212175   4.999   6.592   1.346  0.5379 -1.5379  1.0938
 4071TIP3   OH212176   7.169   5.391   5.675  0.2241  0.1451  0.3728
 4071TIP3    H112177   7.162   5.472   5.725  0.0940  0.8436 -0.7490
 4071TIP3    H212178   7.096   5.394   5.614  0.8860 -0.2692 -0.4569
 4072TIP3   OH212179   3.430   5.069   0.722  0.2180  0.2360  0.1649
 4072TIP3    H112180   3.374   5.001   0.684  0.6010  0.6060 -1.1213
 4072TIP3    H212181   3.509   5.022   0.748  1.2037  0.3596 -2.2775
 4073TIP3   OH212182   0.853   3.935   2.726 -0.0856 -0.4289  0.0354
 4073TIP3    H112183   0.834   3.876   2.652 -1.1603 -1.1907  0.8900
 4073TIP3    H212184   0.926   3.989   2.695 -0.3152 -0.9283 -1.4770
 4074TIP3   OH212185   5.892   1.653   4.243  0.2774 -0.3500  0.0441
 4074TIP3    H112186   5.824   1.686   4.301  0.8074  2.0325 -0.5554
 4074TIP3    H212187   5.963   1.627   4.301 -0.4395 -1.1136  0.5890
 4075TIP3   OH212188   5.693   4.761   3.971 -0.8410 -0.2551  0.2512
 4075TIP3    H112189   5.644   4.699   3.917  0.2895 -0.1666 -0.8895
 4075TIP3    H212190   5.647   4.844   3.960 -0.7490 -0.2875 -0.4003
 4076TIP3   OH212191   1.285   0.116   1.928 -0.0512 -0.4652  0.4574
 4076TIP3    H112192   1.356   0.052   1.934  1.2191  1.0023  2.0368
 4076TIP3    H212193   1.326   0.200   1.947 -1.5822  0.9471 -1.8950
 4077TIP3   OH212194   3.323   0.091   3.981 -0.1963  0.3259  0.0892
 4077TIP3    H112195   3.291   0.167   3.931 -0.7288  0.4457  0.6034
 4077TIP3    H212196   3.389   0.127   4.039 -0.1084  0.3142 -0.0037
 4078TIP3   OH212197   0.714   5.537   4.563 -0.5155  0.4215 -0.4952
 4078TIP3    H112198   0.809   5.545   4.572 -0.4545 -0.7423  0.1323
 4078TIP3    H212199   0.680   5.620   4.597  0.2753  1.0508 -1.1736
 4079TIP3   OH212200   5.023   3.679   1.485  0.1962  0.6056 -0.2282
 4079TIP3    H112201   4.937   3.664   1.526  0.9370 -0.3286  1.0370
 4079TIP3    H212202   5.060   3.753   1.534  1.4147 -1.0147  1.4052
 4080TIP3   OH212203   6.195   3.834   3.381  0.3405 -0.4731 -0.4105
 4080TIP3    H112204   6.242   3.791   3.310 -0.8410 -1.4324 -0.6371
 4080TIP3    H212205   6.103   3.830   3.356  0.1207  1.9437 -0.2926
 4081TIP3   OH212206   2.813   0.062   1.966  0.7455  0.2900  0.4071
 4081TIP3    H112207   2.788  -0.027   1.989 -0.2175 -0.0558 -1.7884
 4081TIP3    H212208   2.903   0.054   1.933  0.8232  0.2303  0.6271
 4082TIP3   OH212209   2.157   4.992   4.145 -0.4843 -0.0643  0.3392
 4082TIP3    H112210   2.070   5.032   4.149 -0.1446  0.7137  0.1217
 4082TIP3    H212211   2.166   4.963   4.055 -0.1716  0.6741  0.1233
 4083TIP3   OH212212   2.316   5.408   5.503  0.0734 -0.1121 -0.5531
 4083TIP3    H112213   2.348   5.322   5.530  0.5799  0.1888 -0.1875
 4083TIP3    H212214   2.386   5.445   5.450  0.9602  1.1138  1.3754
 4084TIP3   OH212215   3.463   2.066   2.440 -0.1419 -0.3144  0.1792
 4084TIP3    H112216   3.506   2.086   2.358 -0.3376 -1.0610 -0.1138
 4084TIP3    H212217   3.399   2.137   2.452 -0.6350 -0.5979 -0.6901
 4085TIP3   OH212218   2.910   3.007   1.009  0.1581  0.0597 -0.0505
 4085TIP3    H112219   2.951   3.064   1.075 -0.2873 -0.2372  0.4987
 4085TIP3    H212220   2.956   3.026   0.928  0.8704  0.2762  0.4003
 4086TIP3   OH212221   2.950   0.049   1.396  0.2349 -0.1149  0.0197
 4086TIP3    H112222   2.983   0.129   1.436 -1.3712  0.9137 -0.5987
 4086TIP3    H212223   2.873   0.025   1.448 -0.1697 -0.4023 -0.6928
 4087TIP3   OH212224   1.733   4.147   0.082  0.1258  0.2184  0.1588
 4087TIP3    H112225   1.761   4.130  -0.007  0.8768  0.1176  0.4105
 4087TIP3    H212226   1.752   4.067   0.130 -1.6015 -0.2613  0.1204
 4088TIP3   OH212227   3.942   4.470   4.551  0.7771  0.1388  0.6485
 4088TIP3    H112228   3.860   4.517   4.567  0.5372  0.1244 -0.4374
 4088TIP3    H212229   4.008   4.518   4.600  0.8471  2.6209 -1.6109
 4089TIP3   OH212230   5.026   3.095   1.877 -0.2762 -0.0070 -0.3068
 4089TIP3    H112231   5.101   3.154   1.879  0.7427 -1.2290 -1.2158
 4089TIP3    H212232   4.982   3.114   1.794 -0.4664  0.0729 -0.1908
 4090TIP3   OH212233   0.337   6.027   5.765 -0.2300  0.4785  0.5467
 4090TIP3    H112234   0.398   6.048   5.694 -0.3483  0.4154  0.4256
 4090TIP3    H212235   0.359   5.938   5.790 -1.2170 -0.0719 -0.4739
 4091TIP3   OH212236   0.948   0.339   4.569  0.7102 -0.0968 -0.4228
 4091TIP3    H112237   0.902   0.270   4.616  2.0094  0.2363  1.4596
 4091TIP3    H212238   1.040   0.326   4.590  1.2095  0.9245 -1.7948
 4092TIP3   OH212239  -0.014   3.265   4.462 -0.2474  0.2844  0.1356
 4092TIP3    H112240   0.063   3.212   4.484 -0.7432 -0.2453  0.5890
 4092TIP3    H212241   0.021   3.334   4.406  0.2636 -1.0400 -1.2400
 4093TIP3   OH212242   5.889   0.114   0.492 -0.4758 -0.2274  0.5503
 4093TIP3    H112243   5.942   0.038   0.467  0.1662  0.3367  0.1423
 4093TIP3    H212244   5.854   0.091   0.578  1.1812 -0.2588  1.2635
 4094TIP3   OH212245   1.155   4.389   4.017  0.3071 -0.4689 -0.0409
 4094TIP3    H112246   1.128   4.393   3.925 -0.4352  2.3995  0.1822
 4094TIP3    H212247   1.078   4.354   4.063  0.5119 -1.4731 -0.4582
 4095TIP3   OH212248   5.766   1.567   0.434 -0.0458  0.0884 -0.3479
 4095TIP3    H112249   5.735   1.641   0.382 -0.3956 -0.8860 -1.5600
 4095TIP3    H212250   5.841   1.603   0.483  1.2125  0.7225 -2.5740
 4096TIP3   OH212251   6.210   4.490   3.654  0.2586 -0.4169  0.0678
 4096TIP3    H112252   6.221   4.568   3.709  2.0043 -1.2043  0.9289
 4096TIP3    H212253   6.170   4.523   3.574  0.0184  1.1988  0.8069
 4097TIP3   OH212254   1.418   1.337   3.453  0.0006  0.0717  0.2296
 4097TIP3    H112255   1.323   1.324   3.460 -0.5254  3.4790  1.6508
 4097TIP3    H212256   1.455   1.249   3.454 -3.1741 -1.4755 -2.0047
 4098TIP3   OH212257   0.616   2.848   3.165 -0.6571 -0.4899 -0.2575
 4098TIP3    H112258   0.553   2.793   3.212  0.7152  0.0178  2.3463
 4098TIP3    H212259   0.603   2.936   3.201  2.3264 -0.5944  1.3604
 4099TIP3   OH212260   2.113   4.688   1.457  0.1395 -0.3370 -0.5712
 4099TIP3    H112261   2.178   4.733   1.403  0.1071  1.7996  1.0385
 4099TIP3    H212262   2.164   4.641   1.522  0.1131 -0.4275 -0.6154
 4100TIP3   OH212263   3.321   0.612   0.974  0.4453  0.1646  0.0016
 4100TIP3    H112264   3.409   0.616   0.938  0.2340 -0.1698 -0.5565
 4100TIP3    H212265   3.275   0.549   0.919 -0.9596  2.4044 -1.5421
 4101TIP3   OH212266   6.577   1.068   1.694  0.1029  0.0080  0.3473
 4101TIP3    H112267   6.663   1.051   1.657  0.3467  0.0070  0.9068
 4101TIP3    H212268   6.593   1.083   1.787 -0.3722  1.1158  0.2568
 4102TIP3   OH212269   5.768   6.354   3.252  0.0931 -0.3519 -0.4604
 4102TIP3    H112270   5.798   6.323   3.337 -0.8722  3.5410  1.4866
 4102TIP3    H212271   5.677   6.382   3.267 -0.2155  0.1488 -2.8701
 4103TIP3   OH212272   2.237   6.313   1.525 -0.1653 -0.1151 -0.0581
 4103TIP3    H112273   2.288   6.393   1.516 -2.4556  1.2270 -2.9663
 4103TIP3    H212274   2.160   6.339   1.577 -0.3972 -0.7083 -0.0983
 4104TIP3   OH212275   2.118   1.213   5.545 -0.3504  0.3734  0.2793
 4104TIP3    H112276   2.067   1.290   5.573 -1.5199 -0.6251  1.0572
 4104TIP3    H212277   2.069   1.178   5.471 -0.8110 -0.5768  1.0082
 4105TIP3   OH212278   5.228   1.430   4.382 -0.0010  0.0239 -0.3270
 4105TIP3    H112279   5.182   1.348   4.366  2.2541 -1.3024 -0.4065
 4105TIP3    H212280   5.239   1.433   4.477  0.8106 -0.3123 -0.4016
 4106TIP3   OH212281   4.314   5.559   3.602  0.4300 -0.7836  0.2905
 4106TIP3    H112282   4.295   5.487   3.542  0.8647 -0.7305  0.0846
 4106TIP3    H212283   4.302   5.522   3.689  0.5749 -1.0820  0.1841
 4107TIP3   OH212284   2.142   0.062   0.675 -0.1151  0.9078 -0.4281
 4107TIP3    H112285   2.083   0.005   0.625 -0.7889  2.1194 -1.0504
 4107TIP3    H212286   2.134   0.030   0.765  0.5222 -0.7987 -0.9352
 4108TIP3   OH212287   5.822   2.586   4.874  0.1700 -0.3957 -0.5540
 4108TIP3    H112288   5.896   2.615   4.821  1.7230 -0.2783  1.5618
 4108TIP3    H212289   5.859   2.521   4.934 -1.6711 -1.0968 -0.1121
 4109TIP3   OH212290   3.795   4.985   1.177 -0.0467 -0.0325 -0.2231
 4109TIP3    H112291   3.771   4.948   1.092 -0.0060 -1.8510  0.5082
 4109TIP3    H212292   3.790   4.911   1.238  1.0826  0.9509  1.1464
 4110TIP3   OH212293   6.267   4.424   0.236  0.2827 -0.5165 -0.0078
 4110TIP3    H112294   6.311   4.504   0.265  0.8820 -0.5774 -0.7109
 4110TIP3    H212295   6.176   4.449   0.226  0.3782 -0.0527  0.2481
 4111TIP3   OH212296   7.182   1.313   0.030 -0.0088 -0.5513  0.6353
 4111TIP3    H112297   7.211   1.401   0.006  1.6691 -1.1652  0.2396
 4111TIP3    H212298   7.088   1.321   0.043  0.1740  1.3925  1.0380
 4112TIP3   OH212299   3.412   5.659   4.894  0.5416 -0.7360 -0.0119
 4112TIP3    H112300   3.443   5.570   4.878 -1.2561 -1.3552 -0.2745
 4112TIP3    H212301   3.395   5.663   4.988 -2.0609 -1.6452 -0.3772
 4113TIP3   OH212302   2.112   1.935   4.483 -0.2034  0.4291  0.2380
 4113TIP3    H112303   2.174   1.930   4.410 -1.0040  0.2613 -0.4531
 4113TIP3    H212304   2.066   2.018   4.471  0.1099  0.7114  0.9360
 4114TIP3   OH212305   2.020   6.452   3.292 -0.2979  0.0963  0.5408
 4114TIP3    H112306   1.934   6.413   3.276 -0.7315  1.4150 -0.5848
 4114TIP3    H212307   2.017   6.481   3.383 -1.3430  0.7962  0.2980
 4115TIP3   OH212308   5.020   2.481   2.438 -0.0778 -0.0886  0.3677
 4115TIP3    H112309   5.110   2.448   2.437  1.1233  2.8240 -0.5869
 4115TIP3    H212310   4.984   2.453   2.354  0.6712  0.3739 -0.1266
 4116TIP3   OH212311   0.822   5.262   3.658 -0.3469  0.4050 -0.9510
 4116TIP3    H112312   0.736   5.299   3.678 -0.5108 -0.1685 -0.6021
 4116TIP3    H212313   0.871   5.336   3.620 -0.9330  0.7751 -0.9984
 4117TIP3   OH212314   2.473   1.465   5.780  0.1008 -0.1858  0.3732
 4117TIP3    H112315   2.387   1.448   5.819 -0.4209  0.8188 -0.3022
 4117TIP3    H212316   2.535   1.425   5.841 -0.8632 -1.3916  0.6016
 4118TIP3   OH212317   4.104   3.029   0.159 -0.0276  0.2144  1.1671
 4118TIP3    H112318   4.147   2.954   0.118  1.2823  0.8590  1.3072
 4118TIP3    H212319   4.012   3.005   0.162  0.1508 -0.7480 -0.1790
 4119TIP3   OH212320   4.731   0.749   2.773  0.1561 -0.0451  0.2222
 4119TIP3    H112321   4.694   0.806   2.705  0.7092  0.4396  0.3182
 4119TIP3    H212322   4.706   0.791   2.855  2.6610  1.4961  0.2971
 4120TIP3   OH212323   6.448   2.888   1.621  0.2432  1.0441 -0.2151
 4120TIP3    H112324   6.381   2.823   1.599  0.3737  0.6057  0.6317
 4120TIP3    H212325   6.446   2.950   1.549  0.0937  0.1140 -1.0416
 4121TIP3   OH212326   4.467   2.879   4.921  0.1416 -0.5450 -0.5197
 4121TIP3    H112327   4.525   2.811   4.888 -0.6062 -0.2329 -2.6131
 4121TIP3    H212328   4.524   2.952   4.942  0.5894 -0.3204 -2.3427
 4122TIP3   OH212329   0.907   1.196   0.361  0.6126 -0.3841 -0.1928
 4122TIP3    H112330   0.935   1.198   0.270  0.2878 -1.8919 -0.3599
 4122TIP3    H212331   0.977   1.240   0.409  1.2855 -0.4866 -1.0572
 4123TIP3   OH212332   5.931   4.002   2.032 -0.0786  0.0150  0.6639
 4123TIP3    H112333   5.924   4.021   1.938 -0.1974 -1.0025  0.4558
 4123TIP3    H212334   6.023   4.017   2.053  0.4035 -1.6509 -0.0741
 4124TIP3   OH212335   4.074   1.664   0.285 -0.6941 -0.3956  0.0032
 4124TIP3    H112336   3.990   1.708   0.300 -0.8011 -0.4013 -0.5239
 4124TIP3    H212337   4.089   1.611   0.363 -0.0005  1.4432  1.1557
 4125TIP3   OH212338   0.167   6.291   2.772  0.6939 -0.0345 -0.5118
 4125TIP3    H112339   0.223   6.357   2.815 -0.0306  0.1191  0.2316
 4125TIP3    H212340   0.228   6.238   2.720  1.4668  0.4177 -0.0936
 4126TIP3   OH212341   2.458   1.738   2.103  0.3187  0.0109 -0.3930
 4126TIP3    H112342   2.504   1.822   2.101 -0.9562  0.7185 -0.8320
 4126TIP3    H212343   2.480   1.697   2.020 -0.7357  0.8603 -1.1146
 4127TIP3   OH212344   2.309   6.356   3.411  0.4697 -0.0877  0.0117
 4127TIP3    H112345   2.329   6.442   3.375 -0.1349 -1.3116 -3.6620
 4127TIP3    H212346   2.235   6.371   3.469  0.1428  1.8472 -0.8221
 4128TIP3   OH212347   5.708   5.932   5.176  0.3071  0.0238 -0.0384
 4128TIP3    H112348   5.736   5.841   5.177 -0.4533 -0.2136 -0.1278
 4128TIP3    H212349   5.789   5.981   5.161  0.7021 -0.6392 -0.1218
 4129TIP3   OH212350   0.082   5.424   4.428 -0.5066 -0.0781  0.4619
 4129TIP3    H112351   0.155   5.369   4.397 -0.4526  0.8731 -1.2209
 4129TIP3    H212352   0.010   5.363   4.442 -0.4204 -0.6285 -1.2772
 4130TIP3   OH212353   0.753   3.960   3.812 -0.5445 -0.5674  0.2574
 4130TIP3    H112354   0.845   3.958   3.785 -0.2269  0.0556  1.2584
 4130TIP3    H212355   0.754   3.935   3.904 -1.4976 -1.5729  0.0105
 4131TIP3   OH212356   6.466   2.291   1.949 -0.3017 -0.3767 -0.1582
 4131TIP3    H112357   6.379   2.253   1.938 -0.8779  0.6259  0.6710
 4131TIP3    H212358   6.449   2.380   1.981  1.0464 -0.7200  1.6728
 4132TIP3   OH212359   0.408   1.281   1.050 -0.4908  0.4955  0.3822
 4132TIP3    H112360   0.403   1.365   1.095  1.6592 -0.4129  2.5448
 4132TIP3    H212361   0.449   1.223   1.113 -0.3255 -1.7506 -1.6667
 4133TIP3   OH212362   2.482   1.079   3.178 -0.4079  0.0202 -0.0395
 4133TIP3    H112363   2.441   1.032   3.105 -2.1745  0.6383  0.5100
 4133TIP3    H212364   2.454   1.031   3.256 -1.4368  1.3606  0.4605
 4134TIP3   OH212365   5.519   6.243   1.065  0.4110 -0.2006 -0.2130
 4134TIP3    H112366   5.562   6.276   1.144 -0.2472  1.9985 -0.6940
 4134TIP3    H212367   5.588   6.199   1.016  1.0535 -0.7066  1.1134
 4135TIP3   OH212368   5.595   2.702   2.754 -0.0903  0.0668  0.0681
 4135TIP3    H112369   5.630   2.626   2.800 -1.0056 -2.3329 -2.8463
 4135TIP3    H212370   5.671   2.743   2.714  0.2121 -0.4784  0.0785
 4136TIP3   OH212371   4.818   5.574   5.710 -0.2312  0.1826 -0.2133
 4136TIP3    H112372   4.802   5.665   5.684 -1.1996  0.0053 -0.2777
 4136TIP3    H212373   4.730   5.537   5.722  0.1656 -0.2506  1.5531
 4137TIP3   OH212374   0.436   5.163   2.647 -0.0231 -0.5445 -0.6960
 4137TIP3    H112375   0.384   5.088   2.675  0.4470 -0.0551  1.7356
 4137TIP3    H212376   0.381   5.239   2.666  0.5083 -0.1655 -0.6313
 4138TIP3   OH212377   4.203   5.352   1.973 -0.2993  0.5517  0.2431
 4138TIP3    H112378   4.149   5.278   1.945  0.0791  0.7007 -0.9380
 4138TIP3    H212379   4.143   5.427   1.969 -0.8718  0.2421  2.1014
 4139TIP3   OH212380   4.461   1.957   2.302 -0.2701  0.0083 -0.2437
 4139TIP3    H112381   4.412   1.963   2.384 -1.6071  0.9188 -1.0680
 4139TIP3    H212382   4.453   1.865   2.277 -2.3151  0.2656 -0.7452
 4140TIP3   OH212383   2.981   3.132   2.127 -0.1032  0.0963 -0.0427
 4140TIP3    H112384   2.999   3.128   2.033 -0.3082 -0.7569 -0.0549
 4140TIP3    H212385   2.983   3.226   2.148  0.5377  0.2555 -0.7771
 4141TIP3   OH212386   5.238   1.572   4.926  0.0374 -0.4956  0.0468
 4141TIP3    H112387   5.202   1.521   4.998 -1.9794  0.3199 -0.3187
 4141TIP3    H212388   5.186   1.545   4.850 -0.0791  1.0104 -0.4311
 4142TIP3   OH212389   6.347   6.644   2.679 -0.7278 -0.2433  0.0994
 4142TIP3    H112390   6.377   6.649   2.588  0.8096 -1.6707  0.4909
 4142TIP3    H212391   6.362   6.553   2.704 -1.7422 -0.0317  1.5951
 4143TIP3   OH212392   4.208   3.893   1.629  0.2909 -0.3236 -0.4806
 4143TIP3    H112393   4.225   3.867   1.538  0.1202 -0.9648 -0.3318
 4143TIP3    H212394   4.251   3.826   1.682 -0.1894 -0.3304 -0.0920
 4144TIP3   OH212395   4.447   5.313   0.933 -0.3884  0.1827 -0.6183
 4144TIP3    H112396   4.492   5.333   0.851 -0.7751  0.5622 -0.7408
 4144TIP3    H212397   4.438   5.397   0.977  0.1334 -0.0662 -0.0151
 4145TIP3   OH212398   4.842   6.290   5.790 -0.5126  0.0115 -0.0908
 4145TIP3    H112399   4.899   6.349   5.741  1.7161 -1.6262  0.3874
 4145TIP3    H212400   4.897   6.214   5.810 -2.5648 -1.1971  1.3555
 4146TIP3   OH212401   5.354   2.810   3.747  0.2825 -0.0928 -0.5686
 4146TIP3    H112402   5.377   2.739   3.687 -0.2882 -1.1616  0.4351
 4146TIP3    H212403   5.355   2.889   3.692  1.3534 -0.7999 -1.6166
 4147TIP3   OH212404   6.229   0.475   0.090 -0.0812 -0.1442 -0.1479
 4147TIP3    H112405   6.273   0.465   0.174  2.1332  1.7707 -0.9862
 4147TIP3    H212406   6.136   0.486   0.113  0.6141  1.7415  2.2073
 4148TIP3   OH212407   2.104   4.617   2.092  0.1317  0.3548  0.1111
 4148TIP3    H112408   2.097   4.673   2.014  0.9167  2.2674  1.3373
 4148TIP3    H212409   2.081   4.675   2.165 -0.6234 -1.4010  1.3349
 4149TIP3   OH212410   6.664   2.653   5.208  0.1770 -0.5620 -0.3576
 4149TIP3    H112411   6.610   2.673   5.132  0.2787  0.2088 -0.2347
 4149TIP3    H212412   6.601   2.622   5.274 -0.4435  2.0914  0.4273
 4150TIP3   OH212413   5.097   4.212   4.222  0.5286 -0.1609 -0.1180
 4150TIP3    H112414   5.110   4.135   4.278  0.9796 -0.1573 -0.2131
 4150TIP3    H212415   5.009   4.200   4.185  0.0471  0.0456  0.9229
 4151TIP3   OH212416   3.905   1.609   3.413 -0.3199 -0.5518 -0.7268
 4151TIP3    H112417   3.903   1.515   3.429 -3.4128 -0.5660 -0.7302
 4151TIP3    H212418   3.921   1.617   3.319 -3.4668 -1.2926 -1.4246
 4152TIP3   OH212419   4.550   4.007   1.393 -0.2224 -0.3561 -0.3566
 4152TIP3    H112420   4.511   4.091   1.414  0.6285 -0.0246 -0.0776
 4152TIP3    H212421   4.644   4.025   1.384 -0.1709 -1.0509 -1.4479
 4153TIP3   OH212422   0.296   0.957   0.893 -0.0363  0.0744 -0.3826
 4153TIP3    H112423   0.276   1.048   0.917  0.9070 -0.0681  1.1317
 4153TIP3    H212424   0.302   0.957   0.798 -0.1488  1.5821 -0.4077
 4154TIP3   OH212425   1.390   1.384   5.025 -0.8015 -0.5752  0.2093
 4154TIP3    H112426   1.329   1.451   5.058  1.3490  2.1141 -0.8408
 4154TIP3    H212427   1.394   1.400   4.931  0.8615 -1.2204  0.1355
 4155TIP3   OH212428   6.441   1.138   2.464  0.0137  0.0847 -0.2851
 4155TIP3    H112429   6.434   1.226   2.503  0.6208  0.4264 -0.9150
 4155TIP3    H212430   6.424   1.152   2.371  3.1475  0.1229 -0.9906
 4156TIP3   OH212431   5.227   4.890   0.284  0.1762 -0.2874 -0.8532
 4156TIP3    H112432   5.149   4.877   0.229 -1.2668  1.3820  0.6588
 4156TIP3    H212433   5.204   4.965   0.340  1.6773 -1.6757  1.8065
 4157TIP3   OH212434   2.383   5.817   0.327 -0.5181  0.4117  0.3677
 4157TIP3    H112435   2.414   5.906   0.317  0.3650 -0.0249 -1.0498
 4157TIP3    H212436   2.304   5.813   0.273 -0.9113  0.4999  0.9328
 4158TIP3   OH212437   1.736   5.855   1.703 -0.7350 -0.4457  0.2717
 4158TIP3    H112438   1.682   5.805   1.642 -3.1302  2.7073 -0.4643
 4158TIP3    H212439   1.697   5.838   1.789 -0.0604 -1.5734  0.3711
 4159TIP3   OH212440   6.184   5.455   2.601  0.0802  0.6465 -0.3900
 4159TIP3    H112441   6.229   5.455   2.685  0.3643  2.3476 -0.4979
 4159TIP3    H212442   6.097   5.490   2.620  0.6442  2.5308 -0.9755
 4160TIP3   OH212443   6.287   4.061   4.467  0.0443 -0.2344  0.5114
 4160TIP3    H112444   6.273   4.043   4.374  0.3015  0.2868  0.3692
 4160TIP3    H212445   6.200   4.081   4.500  0.0005 -0.0749  0.3046
 4161TIP3   OH212446   1.928   3.691   2.520  0.4483 -0.5149 -0.3245
 4161TIP3    H112447   1.947   3.693   2.426 -0.2823  0.5359 -0.4705
 4161TIP3    H212448   1.873   3.613   2.532  0.9539 -0.9311 -0.6773
 4162TIP3   OH212449   0.286   3.483   0.924 -0.0415 -0.1570 -0.5682
 4162TIP3    H112450   0.210   3.535   0.951  0.5863  0.3221  0.3439
 4162TIP3    H212451   0.310   3.517   0.838  0.0144  0.6871 -0.2279
 4163TIP3   OH212452   5.690   6.564   3.004  0.1824 -0.6547  0.5441
 4163TIP3    H112453   5.639   6.595   2.929  2.2959  1.2022 -0.2367
 4163TIP3    H212454   5.773   6.613   2.999  0.4667 -0.4956  4.0358
 4164TIP3   OH212455   6.231   1.252   3.262 -0.1762 -0.2514  0.2561
 4164TIP3    H112456   6.144   1.210   3.265 -0.5640  0.2901 -2.0405
 4164TIP3    H212457   6.281   1.198   3.201 -0.8698  2.7016 -3.3034
 4165TIP3   OH212458   2.894   3.103   1.489 -0.2855  0.0392 -0.0950
 4165TIP3    H112459   2.968   3.098   1.429 -0.9619 -2.5946 -0.8495
 4165TIP3    H212460   2.909   3.032   1.552  0.2137  2.4734  2.7725
 4166TIP3   OH212461   5.024   5.605   3.341  0.3360  0.6165  0.4656
 4166TIP3    H112462   5.099   5.548   3.323  0.1487  0.4112  0.3287
 4166TIP3    H212463   5.042   5.686   3.293 -0.5936 -0.2491 -1.4365
 4167TIP3   OH212464   0.687   3.524   3.590 -0.3566  0.1180 -0.0323
 4167TIP3    H112465   0.687   3.553   3.681  2.6963  2.2761 -0.5439
 4167TIP3    H212466   0.748   3.450   3.589  1.1007  1.2619 -0.5045
 4168TIP3   OH212467   4.002   6.105   0.234 -0.3603  0.7240 -0.2863
 4168TIP3    H112468   4.091   6.139   0.239 -0.5808  1.1744  0.9159
 4168TIP3    H212469   3.983   6.075   0.323 -0.9609 -0.5445 -0.8224
 4169TIP3   OH212470   5.879   1.180   4.002 -0.0937  0.2902  0.7523
 4169TIP3    H112471   5.898   1.172   4.095  0.4226  0.5777  0.6761
 4169TIP3    H212472   5.816   1.253   3.997  1.0918  1.3366  0.7399
 4170TIP3   OH212473   6.012   1.219   5.021 -0.3650 -0.2292 -0.5632
 4170TIP3    H112474   5.965   1.190   4.942 -2.4836  1.6854 -0.1292
 4170TIP3    H212475   5.977   1.307   5.038  4.1522  1.8275 -0.6726
 4171TIP3   OH212476   0.121   4.873   2.077  0.1669  0.3330  0.2225
 4171TIP3    H112477   0.210   4.892   2.046  0.6199 -0.5593  0.8954
 4171TIP3    H212478   0.091   4.954   2.118  0.7314  0.6006  0.1107
 4172TIP3   OH212479   4.070   1.727   5.011 -0.0173  0.0733 -0.5515
 4172TIP3    H112480   4.013   1.748   5.085 -1.1969 -1.7726 -0.8662
 4172TIP3    H212481   4.019   1.750   4.934  0.8316  1.0845 -0.8322
 4173TIP3   OH212482   4.441   2.655   3.900 -0.2080 -0.4193 -0.0072
 4173TIP3    H112483   4.386   2.728   3.871  2.1236  2.0218  1.2618
 4173TIP3    H212484   4.449   2.599   3.823 -0.9250  1.4062 -1.4914
 4174TIP3   OH212485   1.079   3.786   0.953  0.3547  0.5759  0.5292
 4174TIP3    H112486   1.005   3.840   0.928 -0.9567 -0.8913  1.0855
 4174TIP3    H212487   1.129   3.774   0.872 -0.5610  0.7611 -0.0656
 4175TIP3   OH212488   0.847   0.155   5.129  0.4587 -0.2920 -0.3116
 4175TIP3    H112489   0.844   0.212   5.206  0.7987  0.3593 -0.7774
 4175TIP3    H212490   0.927   0.180   5.083 -0.7171  0.6758 -1.9016
 4176TIP3   OH212491   2.217   3.873   3.209  0.2680  0.3014 -0.1343
 4176TIP3    H112492   2.278   3.817   3.161 -1.4354 -0.8636 -1.0303
 4176TIP3    H212493   2.167   3.813   3.263 -3.0255  0.5220 -2.6190
 4177TIP3   OH212494   0.362   2.662   2.950  0.3244 -0.3596  0.0062
 4177TIP3    H112495   0.448   2.621   2.944 -0.3356 -1.7817 -0.2737
 4177TIP3    H212496   0.328   2.661   2.860  0.3842  1.0778 -0.0572
 4178TIP3   OH212497   7.010   0.965   2.039 -0.1766 -0.0632  0.2938
 4178TIP3    H112498   7.075   1.033   2.018  1.3469 -2.3758 -3.3730
 4178TIP3    H212499   7.040   0.929   2.123  0.0134  2.4326  1.4130
 4179TIP3   OH212500   4.252   5.073   4.414 -0.6379  0.1570 -0.5428
 4179TIP3    H112501   4.242   5.168   4.423  0.7874  0.2130  0.7707
 4179TIP3    H212502   4.264   5.041   4.503 -2.6148 -1.4994 -0.7761
 4180TIP3   OH212503   4.158   3.536   2.259 -0.2062 -0.1376 -0.4116
 4180TIP3    H112504   4.107   3.575   2.188 -1.5288  0.1547  0.6543
 4180TIP3    H212505   4.112   3.455   2.279 -0.5965  0.4026  0.9484
 4181TIP3   OH212506   6.862   3.754   3.983  0.0899 -0.5062 -0.2338
 4181TIP3    H112507   6.808   3.676   3.995 -0.0204 -0.8792 -2.6213
 4181TIP3    H212508   6.952   3.723   3.989  0.0458 -0.5808  0.0489
 4182TIP3   OH212509   3.083   3.996   0.332  0.1850  0.1768 -0.2919
 4182TIP3    H112510   3.110   4.054   0.404 -0.8530  0.9364 -0.4930
 4182TIP3    H212511   3.124   3.912   0.353 -1.7728 -0.2586  2.3923
 4183TIP3   OH212512   0.037   4.142   0.957  0.3117  0.2167  0.1069
 4183TIP3    H112513   0.036   4.061   0.906  0.6071 -0.1422  0.6557
 4183TIP3    H212514  -0.046   4.185   0.937  0.4208  0.0719 -0.6595
 4184TIP3   OH212515   1.031   5.241   0.180  0.3330  0.0198  0.5037
 4184TIP3    H112516   1.001   5.176   0.245  3.8879  0.0340  2.4045
 4184TIP3    H212517   1.019   5.325   0.224  1.2832  0.1530  0.5214
 4185TIP3   OH212518   3.029   0.176   1.702  0.2085  0.5222  0.5328
 4185TIP3    H112519   2.942   0.215   1.709  0.1993  0.7382 -0.6218
 4185TIP3    H212520   3.044   0.136   1.788 -1.8869 -1.3315  0.1397
 4186TIP3   OH212521   4.076   4.693   1.408  0.3236  0.3618  0.2371
 4186TIP3    H112522   4.064   4.603   1.437 -1.1613  0.6820  0.6821
 4186TIP3    H212523   4.083   4.744   1.489  1.2103  0.6644 -0.0107
 4187TIP3   OH212524   2.965   1.618   1.538 -0.9705  0.6908 -0.0888
 4187TIP3    H112525   2.966   1.538   1.484 -1.7320  1.0437 -0.6434
 4187TIP3    H212526   3.043   1.667   1.509 -0.5145  0.1719  0.2344
 4188TIP3   OH212527   5.499   0.467   5.008 -0.1637 -0.0421 -0.5145
 4188TIP3    H112528   5.565   0.481   4.941 -0.1449 -0.2075 -0.5296
 4188TIP3    H212529   5.485   0.554   5.046  0.7508 -0.1579  0.1303
 4189TIP3   OH212530   0.146   5.500   4.686 -0.0087  0.2595 -0.3794
 4189TIP3    H112531   0.058   5.462   4.694  0.5313 -1.8495 -2.9068
 4189TIP3    H212532   0.158   5.511   4.591  2.5957  0.0731 -0.1242
 4190TIP3   OH212533   4.933   4.793   3.301  0.2484  1.0005 -0.7721
 4190TIP3    H112534   5.023   4.773   3.278  0.7855  1.2016  1.0130
 4190TIP3    H212535   4.883   4.717   3.271  1.3900 -0.3175  0.4824
 4191TIP3   OH212536   6.333   6.475   3.877 -0.1741  0.7711  0.2593
 4191TIP3    H112537   6.359   6.563   3.850 -1.3020  1.3698  1.0719
 4191TIP3    H212538   6.262   6.452   3.817  0.3366  0.2613 -0.1651
 4192TIP3   OH212539   0.452   1.486   5.801 -0.1561 -0.2703  0.1503
 4192TIP3    H112540   0.428   1.408   5.751  0.7692  0.2295 -1.1276
 4192TIP3    H212541   0.368   1.520   5.833 -0.6805 -1.1537 -0.2296
 4193TIP3   OH212542   6.249   6.668   0.578  0.2066 -0.5372  0.6454
 4193TIP3    H112543   6.189   6.714   0.637 -0.3867  0.6880 -0.8285
 4193TIP3    H212544   6.289   6.600   0.632 -1.4139 -0.4389  2.0587
 4194TIP3   OH212545   0.121   5.775   5.514 -0.2658 -0.4412  0.2004
 4194TIP3    H112546   0.190   5.732   5.565 -0.2129 -0.1989  0.3384
 4194TIP3    H212547   0.111   5.721   5.437 -1.3327 -1.6006  1.1200
 4195TIP3   OH212548   0.118   6.446   1.985 -0.3792 -0.2652  0.0348
 4195TIP3    H112549   0.069   6.378   1.939 -1.0464 -0.4727  1.0004
 4195TIP3    H212550   0.071   6.527   1.965 -1.1725 -0.4687  0.9864
 4196TIP3   OH212551   2.973   5.260   1.316 -0.5812 -0.0198 -0.4366
 4196TIP3    H112552   2.911   5.273   1.388 -0.1629  0.7632 -0.2095
 4196TIP3    H212553   3.053   5.231   1.359 -0.0534  1.3132 -0.4863
 4197TIP3   OH212554   6.105   5.532   1.802  0.7695  0.1039 -0.2541
 4197TIP3    H112555   6.033   5.595   1.809 -0.5396 -1.4645  1.5898
 4197TIP3    H212556   6.141   5.527   1.890  0.0072 -2.5706 -0.0114
 4198TIP3   OH212557   5.727   1.290   1.652 -0.8387  0.0822  0.8347
 4198TIP3    H112558   5.658   1.355   1.635 -2.0061 -0.9879  1.3615
 4198TIP3    H212559   5.792   1.307   1.583 -2.7470 -0.4130 -1.2214
 4199TIP3   OH212560   1.018   2.723   0.412  0.2779  0.6471  0.6918
 4199TIP3    H112561   1.042   2.775   0.335 -0.3737  0.5571  0.4203
 4199TIP3    H212562   1.005   2.634   0.378  1.6536  0.2258  1.1987
 4200TIP3   OH212563   2.697   1.222   2.427  0.4918  0.4373 -0.3284
 4200TIP3    H112564   2.783   1.179   2.424  1.2258  1.6409  1.4289
 4200TIP3    H212565   2.655   1.187   2.506 -0.2940  0.4880 -0.7129
 4201TIP3   OH212566   1.207   1.988   1.574  0.3518  0.7559  0.6009
 4201TIP3    H112567   1.262   2.065   1.561  1.2811  0.0714  0.4219
 4201TIP3    H212568   1.261   1.914   1.545 -0.6469  0.0643  0.4389
 4202TIP3   OH212569   2.715   0.789   2.908 -0.2648 -0.3806 -0.2492
 4202TIP3    H112570   2.676   0.846   2.842 -2.4259 -0.6741  0.7046
 4202TIP3    H212571   2.652   0.717   2.918 -0.0283 -0.3182  2.1385
 4203TIP3   OH212572   6.883   0.295   2.222 -0.2427 -0.7187 -0.3496
 4203TIP3    H112573   6.891   0.238   2.145 -0.8324 -0.6196 -0.4871
 4203TIP3    H212574   6.924   0.246   2.293 -1.5954 -1.7415 -0.2493
 4204TIP3   OH212575   7.078   2.368   5.873 -0.1282  0.7995 -0.9647
 4204TIP3    H112576   7.095   2.288   5.923 -1.2223  0.7972 -0.5667
 4204TIP3    H212577   7.139   2.364   5.799 -0.8520 -0.8966 -1.5116
 4205TIP3   OH212578   0.499   6.407   0.224  0.6298 -0.0134  0.2259
 4205TIP3    H112579   0.415   6.420   0.270  0.1211  1.2729 -0.9778
 4205TIP3    H212580   0.539   6.332   0.268 -0.0748  0.7755  2.3787
 4206TIP3   OH212581   1.101   1.350   1.732  0.1645 -0.2689 -0.3115
 4206TIP3    H112582   1.170   1.347   1.667 -0.6514  0.3508 -1.2289
 4206TIP3    H212583   1.101   1.440   1.764  1.7657 -0.9754  1.9301
 4207TIP3   OH212584   3.502   1.648   5.159  0.5657  0.0200  0.3920
 4207TIP3    H112585   3.420   1.698   5.156 -0.9380 -2.3301 -0.4802
 4207TIP3    H212586   3.508   1.617   5.249  0.0730 -0.3959  0.2904
 4208TIP3   OH212587   1.411   2.131   2.233  0.3258  0.1456 -0.4298
 4208TIP3    H112588   1.465   2.207   2.257 -0.4269  0.3836  0.5881
 4208TIP3    H212589   1.410   2.131   2.138  3.1812 -0.6166 -0.5701
 4209TIP3   OH212590   2.025   2.736   5.497  0.3212  0.1333  0.1434
 4209TIP3    H112591   2.028   2.700   5.409  0.5653  0.8821 -0.1586
 4209TIP3    H212592   1.986   2.667   5.550  1.0089 -0.6721 -0.3766
 4210TIP3   OH212593   1.340   4.414   4.547  0.1839  0.1572  0.0645
 4210TIP3    H112594   1.329   4.368   4.464  0.5129  0.5739 -0.2155
 4210TIP3    H212595   1.421   4.463   4.537 -0.4038  1.1790  0.1662
 4211TIP3   OH212596   4.072   4.326   3.226  0.2564 -0.0068 -0.3184
 4211TIP3    H112597   4.014   4.259   3.263  2.8284 -1.8618  0.6786
 4211TIP3    H212598   4.098   4.290   3.141  0.0803  0.7522 -0.7031
 4212TIP3   OH212599   3.064   1.500   3.906 -0.1930 -0.5280  0.4000
 4212TIP3    H112600   3.042   1.578   3.856 -2.0050 -1.4393 -0.3141
 4212TIP3    H212601   3.075   1.432   3.840 -3.0252 -1.8456  1.1328
 4213TIP3   OH212602   2.962   1.033   1.839  0.2568  0.8893  0.2325
 4213TIP3    H112603   3.048   1.012   1.804  0.2393  0.9088  0.1768
 4213TIP3    H212604   2.977   1.050   1.932  0.2175  0.2962  0.3536
 4214TIP3   OH212605   2.077   5.811   3.465 -0.2768  0.2188 -0.0248
 4214TIP3    H112606   2.083   5.816   3.369 -0.8144  1.5107 -0.0105
 4214TIP3    H212607   2.011   5.875   3.488 -0.9291 -0.8291  1.1535
 4215TIP3   OH212608   5.228   0.516   5.830 -0.2897  0.3231  0.0653
 4215TIP3    H112609   5.236   0.489   5.739  1.1819 -0.6514  0.4541
 4215TIP3    H212610   5.146   0.478   5.860  0.4896 -1.6066 -0.1330
 4216TIP3   OH212611   2.885   2.328   0.700  0.2015  0.0201  0.4547
 4216TIP3    H112612   2.872   2.234   0.684  1.3407 -0.1352  0.3521
 4216TIP3    H212613   2.974   2.345   0.669 -0.2600  1.3081 -0.2228
 4217TIP3   OH212614   2.437   6.609   0.591 -0.2500  0.4954  0.4184
 4217TIP3    H112615   2.403   6.599   0.680  0.0236 -1.1839  0.3613
 4217TIP3    H212616   2.452   6.520   0.560  1.1118  1.0841 -0.7605
 4218TIP3   OH212617   5.581   4.569   2.660 -0.2244  0.3558 -0.1075
 4218TIP3    H112618   5.641   4.622   2.607 -1.0667  3.2249  1.5731
 4218TIP3    H212619   5.624   4.483   2.666  1.1446  0.6708 -3.1585
 4219TIP3   OH212620   0.864   5.340   2.101  0.4245 -0.1486  0.1791
 4219TIP3    H112621   0.871   5.293   2.184  1.6542  2.9401  1.9770
 4219TIP3    H212622   0.925   5.294   2.042  1.3644 -0.9942  1.7453
 4220TIP3   OH212623   4.249   5.276   3.736 -0.8726 -0.4059  0.8453
 4220TIP3    H112624   4.299   5.277   3.818  0.5471  0.1755  0.0067
 4220TIP3    H212625   4.290   5.207   3.684 -0.4564  0.5708 -0.1436
 4221TIP3   OH212626   5.100   4.169   1.489 -0.1279  0.3300  0.1232
 4221TIP3    H112627   5.067   4.250   1.528 -0.4192 -0.2479  1.1085
 4221TIP3    H212628   5.173   4.198   1.433  0.7205  1.1412  1.5747
 4222TIP3   OH212629   3.836   3.822   4.474 -0.7659  0.6807 -0.3672
 4222TIP3    H112630   3.755   3.858   4.437 -0.1381  2.0255 -0.4865
 4222TIP3    H212631   3.857   3.880   4.547 -0.7722 -0.6264  0.7117
 4223TIP3   OH212632   0.998   3.695   4.679 -0.3643  0.4194 -0.6665
 4223TIP3    H112633   1.066   3.761   4.687  0.5122 -0.6422  1.4890
 4223TIP3    H212634   1.044   3.617   4.647 -1.0237  0.3220 -1.4051
 4224TIP3   OH212635   5.761   4.227   1.912 -0.0350 -0.4151 -0.0172
 4224TIP3    H112636   5.850   4.220   1.877 -0.3323 -0.5562 -0.7700
 4224TIP3    H212637   5.706   4.187   1.844 -0.7428  0.3079  0.1276
 4225TIP3   OH212638   6.664   3.132   1.204  0.4065 -0.0585  0.3477
 4225TIP3    H112639   6.740   3.077   1.187  0.6448  0.9062 -2.0931
 4225TIP3    H212640   6.697   3.199   1.265  1.0490 -0.6203  0.6276
 4226TIP3   OH212641   0.920   5.476   5.848 -0.4409  0.3807 -0.3421
 4226TIP3    H112642   0.887   5.547   5.793  0.5530  0.4841 -0.8334
 4226TIP3    H212643   0.904   5.397   5.796  0.0120  0.4255 -0.5560
 4227TIP3   OH212644   5.006   1.425   0.569 -0.0893 -0.0359  0.3817
 4227TIP3    H112645   4.947   1.455   0.500 -0.3077  0.6822  0.8710
 4227TIP3    H212646   5.032   1.505   0.615  0.9501 -0.3809  0.4302
 4228TIP3   OH212647   3.328   1.466   0.731  0.2738 -0.2253 -0.0118
 4228TIP3    H112648   3.252   1.448   0.676  1.5094  1.0267 -2.2824
 4228TIP3    H212649   3.292   1.487   0.817 -1.9890  1.0164 -1.1923
 4229TIP3   OH212650   0.376   5.666   4.129 -0.0350 -0.4136  0.1417
 4229TIP3    H112651   0.306   5.715   4.173 -1.3536 -1.3708 -0.8006
 4229TIP3    H212652   0.455   5.718   4.143 -1.1373  1.2922  0.2841
 4230TIP3   OH212653   3.247   0.525   0.365  0.3616  0.0280 -0.5988
 4230TIP3    H112654   3.196   0.445   0.357  0.0162  0.2427 -0.5508
 4230TIP3    H212655   3.195   0.581   0.422  0.6445  0.2537 -0.5594
 4231TIP3   OH212656   5.105   6.168   4.261 -0.4519 -0.1253 -0.2817
 4231TIP3    H112657   5.065   6.114   4.193 -2.4520  1.3463 -0.3570
 4231TIP3    H212658   5.049   6.157   4.337  0.5326 -0.0534  0.4739
 4232TIP3   OH212659   6.078   6.039   1.346  0.1303 -0.2161  0.1378
 4232TIP3    H112660   6.133   5.971   1.307 -0.3566 -0.7498  0.3825
 4232TIP3    H212661   6.033   5.996   1.418 -1.5308 -0.1124 -0.7842
 4233TIP3   OH212662   0.221   5.215   5.151  0.0047 -0.3077 -0.5567
 4233TIP3    H112663   0.300   5.178   5.191 -0.7197 -0.2912  0.9537
 4233TIP3    H212664   0.254   5.285   5.094  1.1674 -1.2174 -1.0539
 4234TIP3   OH212665   3.591   0.651   0.892  0.0796  0.5760 -0.5976
 4234TIP3    H112666   3.669   0.701   0.915  0.5208  0.1185 -1.0890
 4234TIP3    H212667   3.621   0.561   0.887 -0.4555  0.4139 -0.9392
 4235TIP3   OH212668   4.118   3.521   4.606  0.2450 -0.2401  0.2865
 4235TIP3    H112669   4.089   3.521   4.515 -1.2571  0.4915  0.7327
 4235TIP3    H212670   4.146   3.610   4.622  1.5019 -0.6166  0.2648
 4236TIP3   OH212671   6.751   6.698   4.502  0.2180  0.2084 -0.2873
 4236TIP3    H112672   6.834   6.712   4.547  0.1969  0.4728 -0.3250
 4236TIP3    H212673   6.717   6.787   4.488  0.1633  0.1253 -0.7091
 4237TIP3   OH212674   4.744   2.283   0.978  0.3873 -0.1134 -0.3831
 4237TIP3    H112675   4.791   2.327   0.907 -0.5983  1.8624  0.1286
 4237TIP3    H212676   4.667   2.244   0.935  1.1824 -1.2485 -0.8129
 4238TIP3   OH212677   0.986   3.891   0.232  0.2463  0.2577 -0.5701
 4238TIP3    H112678   0.943   3.902   0.317 -0.7482  1.4126 -1.1897
 4238TIP3    H212679   0.936   3.822   0.188  1.1267 -0.7619 -0.0164
 4239TIP3   OH212680   1.543   0.089   2.790  0.2068  0.3285 -0.1976
 4239TIP3    H112681   1.637   0.080   2.803 -0.1956 -2.1588  1.5926
 4239TIP3    H212682   1.518   0.012   2.739 -0.9999  0.2991  0.3982
 4240TIP3   OH212683   0.172   1.494   2.297 -0.2872  0.4413  0.1972
 4240TIP3    H112684   0.164   1.571   2.353  1.0749  0.6660  0.1330
 4240TIP3    H212685   0.196   1.530   2.211 -0.3192 -0.0094 -0.0026
 4241TIP3   OH212686   1.040   3.781   2.544  0.3740  0.1293 -0.7159
 4241TIP3    H112687   1.061   3.839   2.471 -1.2828  0.8259 -0.6710
 4241TIP3    H212688   0.959   3.737   2.518  0.3296 -0.4027  0.2685
 4242TIP3   OH212689   6.647   0.339   4.436 -0.1694  0.5915 -0.0601
 4242TIP3    H112690   6.742   0.342   4.441 -0.0856  0.4056 -1.3460
 4242TIP3    H212691   6.620   0.300   4.519  0.9168  0.0123  0.0360
 4243TIP3   OH212692   1.320   0.917   5.106 -0.1079  0.0066 -0.2881
 4243TIP3    H112693   1.332   0.838   5.053  0.0877 -0.0706 -0.1271
 4243TIP3    H212694   1.327   0.887   5.196  1.9436  0.5167 -0.2434
 4244TIP3   OH212695   1.266   2.959   2.753 -0.6037 -0.1155 -0.2348
 4244TIP3    H112696   1.267   2.872   2.712  0.4156 -0.7103  0.9843
 4244TIP3    H212697   1.328   3.011   2.703  1.6815 -1.2360  1.2836
 4245TIP3   OH212698   6.515   2.867   5.779 -0.3887 -0.3079  0.1109
 4245TIP3    H112699   6.425   2.838   5.786 -0.6570  0.4308 -0.1520
 4245TIP3    H212700   6.567   2.788   5.793 -1.0769 -1.6625 -3.7871
 4246TIP3   OH212701   6.942   5.371   4.088  0.5801 -0.1562 -0.1629
 4246TIP3    H112702   6.994   5.306   4.136 -1.1701  0.1855  2.4157
 4246TIP3    H212703   6.929   5.442   4.150 -3.3002 -0.4452 -0.3689
 4247TIP3   OH212704   3.867   6.546   2.412 -0.1785  0.0116 -0.1975
 4247TIP3    H112705   3.921   6.480   2.454  0.0936 -0.1135 -0.7332
 4247TIP3    H212706   3.842   6.606   2.483 -0.0022 -0.3742  0.1936
 4248TIP3   OH212707   4.942   0.061   2.816  0.0791  0.3593  0.1784
 4248TIP3    H112708   5.004   0.057   2.743 -0.2554  1.0806 -0.1558
 4248TIP3    H212709   4.866   0.107   2.780 -0.0771  0.7472  0.9838
 4249TIP3   OH212710   4.844   1.328   1.747 -0.2439  0.1058  0.3564
 4249TIP3    H112711   4.869   1.411   1.705  0.3992 -0.1938  0.1300
 4249TIP3    H212712   4.915   1.268   1.724 -0.9574 -0.6489  0.1032
 4250TIP3   OH212713   1.331   2.182   4.853 -0.2022  0.1489  0.2035
 4250TIP3    H112714   1.344   2.248   4.922 -0.0200  1.1870 -0.7956
 4250TIP3    H212715   1.380   2.106   4.883  1.9447  1.4171  0.1017
 4251TIP3   OH212716   3.312   4.599   4.658 -0.5591  0.2596 -0.6046
 4251TIP3    H112717   3.304   4.509   4.628 -1.2128 -0.5067  1.7005
 4251TIP3    H212718   3.268   4.651   4.590 -1.7307 -1.3208 -1.1118
 4252TIP3   OH212719   3.009   1.763   1.130 -0.4074  0.3432 -0.4838
 4252TIP3    H112720   2.914   1.762   1.143 -0.1249 -1.1674  2.0227
 4252TIP3    H212721   3.034   1.670   1.130  1.1263  0.7330 -0.6530
 4253TIP3   OH212722   4.542   5.819   2.561 -0.0567 -0.2638 -0.3083
 4253TIP3    H112723   4.561   5.803   2.469 -0.4000 -2.0972 -0.0832
 4253TIP3    H212724   4.594   5.755   2.609 -0.5451  0.0933  0.7412
 4254TIP3   OH212725   2.225   3.074   4.429 -0.2163  0.1928  0.3878
 4254TIP3    H112726   2.281   3.139   4.387  0.8859 -0.5785  0.6133
 4254TIP3    H212727   2.205   3.011   4.359  0.2705 -0.2191  0.6126
 4255TIP3   OH212728   2.675   1.026   3.536  0.7414  0.5140  0.5236
 4255TIP3    H112729   2.716   0.965   3.474  3.1682  1.8784  0.6574
 4255TIP3    H212730   2.638   0.969   3.603  2.9917 -0.9025  0.6997
 4256TIP3   OH212731   5.990   4.628   2.295  0.4807  0.4128  0.2927
 4256TIP3    H112732   6.067   4.587   2.255 -0.5812  0.5895 -2.0388
 4256TIP3    H212733   5.918   4.570   2.272 -0.1053  0.0083  2.8316
 4257TIP3   OH212734   6.294   1.487   0.490  0.1026  0.6066 -0.0214
 4257TIP3    H112735   6.246   1.546   0.432 -0.1827 -0.2113 -0.6235
 4257TIP3    H212736   6.374   1.536   0.511  0.5302  0.6648 -1.6449
 4258TIP3   OH212737   1.764   5.064   4.884  0.1284  0.1646 -0.0243
 4258TIP3    H112738   1.706   5.037   4.813  0.0362  0.9679 -0.2576
 4258TIP3    H212739   1.756   4.994   4.949  0.5632 -0.8165 -0.9872
 4259TIP3   OH212740   1.591   2.675   2.979  0.1778 -0.1372  0.5706
 4259TIP3    H112741   1.669   2.727   2.960  0.8070 -1.3203 -0.2096
 4259TIP3    H212742   1.613   2.587   2.947 -1.5238 -0.4564  0.1990
 4260TIP3   OH212743   3.363   1.868   1.939  0.1032  0.6192  0.0236
 4260TIP3    H112744   3.329   1.783   1.968 -0.1899  0.2931 -1.2066
 4260TIP3    H212745   3.299   1.932   1.971 -1.3342  0.0801 -1.6069
 4261TIP3   OH212746   0.528   6.699   3.899 -0.0686 -0.4552  0.1410
 4261TIP3    H112747   0.563   6.614   3.925  2.1438 -0.2861 -1.9565
 4261TIP3    H212748   0.579   6.762   3.950 -0.3503 -0.3238  0.2615
 4262TIP3   OH212749   0.702   2.455   3.518  0.1880 -0.7426 -0.7151
 4262TIP3    H112750   0.612   2.430   3.542  0.8228 -2.2426  0.2738
 4262TIP3    H212751   0.757   2.391   3.563  1.7299 -0.3249 -1.9340
 4263TIP3   OH212752   0.787   3.771   2.359 -0.3200  0.2101 -0.1596
 4263TIP3    H112753   0.749   3.859   2.360 -0.1433  0.2878  0.0682
 4263TIP3    H212754   0.842   3.769   2.281 -1.5872 -0.2564 -1.0684
 4264TIP3   OH212755   3.570   2.615   3.870 -0.5608 -0.1243 -0.2209
 4264TIP3    H112756   3.517   2.578   3.799  0.0477 -1.3908 -0.0360
 4264TIP3    H212757   3.660   2.607   3.838 -0.3903  1.1359 -0.1272
 4265TIP3   OH212758   3.340   3.198   1.372 -0.2159  0.0628  0.1268
 4265TIP3    H112759   3.389   3.279   1.359 -0.3213 -0.1492 -1.9229
 4265TIP3    H212760   3.253   3.228   1.401  0.1522  0.5958  0.7083
 4266TIP3   OH212761   3.396   2.609   1.135  0.1378 -0.3751  0.3812
 4266TIP3    H112762   3.312   2.583   1.097  0.0181  0.2393  0.2060
 4266TIP3    H212763   3.459   2.544   1.102  0.0207  0.0843 -0.8142
 4267TIP3   OH212764   5.403   1.561   1.235  0.2840  0.2623  0.1447
 4267TIP3    H112765   5.371   1.560   1.144 -0.0524  1.3678  0.2425
 4267TIP3    H212766   5.498   1.549   1.227  0.7373  3.5529 -0.6018
 4268TIP3   OH212767   6.368   3.725   1.844  0.8566  0.2681  0.2449
 4268TIP3    H112768   6.322   3.645   1.871  0.4558  0.1126 -0.8644
 4268TIP3    H212769   6.305   3.795   1.860 -0.5581 -0.1066 -2.8890
 4269TIP3   OH212770   2.420   0.625   1.917  0.3728 -0.6427 -0.0772
 4269TIP3    H112771   2.493   0.576   1.878 -1.0403 -2.0407 -1.0840
 4269TIP3    H212772   2.366   0.652   1.843 -0.3842 -0.0350  0.6783
 4270TIP3   OH212773   4.317   0.728   3.678  0.3728 -0.0656 -0.6377
 4270TIP3    H112774   4.279   0.800   3.627 -0.1589 -1.2152 -1.9494
 4270TIP3    H212775   4.379   0.770   3.736  0.0838  1.4571 -1.3718
 4271TIP3   OH212776   3.797   2.552   3.731  0.0684 -0.1106  0.1273
 4271TIP3    H112777   3.831   2.599   3.655  1.3752  1.2303  1.4924
 4271TIP3    H212778   3.820   2.461   3.715  0.6075  0.2002 -0.9326
 4272TIP3   OH212779   3.985   0.659   5.704 -0.0482 -0.0543 -0.3795
 4272TIP3    H112780   3.986   0.713   5.625  2.0190  0.0819 -0.3161
 4272TIP3    H212781   4.020   0.574   5.676 -1.9752 -0.9610 -0.1782
 4273TIP3   OH212782   5.445   0.529   3.021  0.1319  0.1888 -0.3995
 4273TIP3    H112783   5.433   0.457   2.959  1.3549 -0.7711  0.4219
 4273TIP3    H212784   5.361   0.538   3.065 -0.1475 -0.4779 -0.7905
 4274TIP3   OH212785   6.827   6.381   2.293  0.0954  0.5292  0.1197
 4274TIP3    H112786   6.918   6.361   2.273 -0.5128 -0.6981 -1.6138
 4274TIP3    H212787   6.817   6.472   2.267  0.6131  0.4139 -0.5207
 4275TIP3   OH212788   1.760   2.708   1.948  0.3953 -0.7994 -0.1027
 4275TIP3    H112789   1.677   2.660   1.950  0.2663 -0.5618  1.5429
 4275TIP3    H212790   1.754   2.769   2.022  2.5385 -1.6381  0.8145
 4276TIP3   OH212791   3.819   1.276   0.733 -0.1720 -0.5393  0.0156
 4276TIP3    H112792   3.724   1.272   0.739 -0.0916 -1.1405  1.4164
 4276TIP3    H212793   3.838   1.273   0.639 -1.4665 -2.2942 -0.2319
 4277TIP3   OH212794   6.693   5.422   5.331 -0.1526  0.4417 -0.0285
 4277TIP3    H112795   6.710   5.382   5.246  1.6756  0.5375  0.2356
 4277TIP3    H212796   6.598   5.431   5.336 -0.2836  0.7226 -2.1839
 4278TIP3   OH212797   0.490   4.350   1.220 -0.1771  0.2322 -0.4843
 4278TIP3    H112798   0.505   4.416   1.152 -2.2239  0.1382 -1.0712
 4278TIP3    H212799   0.407   4.309   1.197 -0.6276 -0.2431  1.7242
 4279TIP3   OH212800   4.521   3.724   3.294  0.2036 -0.4188 -0.1202
 4279TIP3    H112801   4.454   3.743   3.360 -1.3287  0.4718 -1.8306
 4279TIP3    H212802   4.501   3.635   3.265 -0.3035 -0.1468 -0.6435
 4280TIP3   OH212803   3.781   5.778   3.178 -0.1222 -0.0795  0.5911
 4280TIP3    H112804   3.796   5.807   3.088  0.8715 -2.5794 -0.1453
 4280TIP3    H212805   3.737   5.851   3.220  0.0524  1.4553 -1.7181
 4281TIP3   OH212806   5.160   2.322   4.132 -0.1828 -0.5591  0.3560
 4281TIP3    H112807   5.108   2.369   4.066 -1.6010 -1.3460  0.8636
 4281TIP3    H212808   5.246   2.364   4.129 -0.6423  0.3686 -0.9796
 4282TIP3   OH212809   0.841   1.217   1.355 -0.3614  0.6064  0.0009
 4282TIP3    H112810   0.817   1.306   1.330  0.2595  0.5739 -0.7535
 4282TIP3    H212811   0.898   1.228   1.432  0.4220  0.9267 -0.6086
 4283TIP3   OH212812   0.215   2.323   3.853 -0.1399 -0.0623 -0.4804
 4283TIP3    H112813   0.243   2.320   3.762 -1.1990 -0.0386 -0.8103
 4283TIP3    H212814   0.202   2.231   3.877  1.8243 -0.2083  0.1992
 4284TIP3   OH212815   7.022   2.738   0.152  0.2474  0.0647 -0.1386
 4284TIP3    H112816   7.072   2.693   0.084 -0.8885 -0.3039 -0.7645
 4284TIP3    H212817   7.049   2.829   0.145  1.2238 -0.2077 -0.0881
 4285TIP3   OH212818   2.963   1.905   5.065 -0.6568 -0.1215  0.1398
 4285TIP3    H112819   2.906   1.870   4.996 -0.4991  0.9881 -0.5779
 4285TIP3    H212820   3.006   1.827   5.101 -1.9972 -0.8948  0.1434
 4286TIP3   OH212821   4.271   2.513   5.779 -0.0891 -0.1163 -0.3958
 4286TIP3    H112822   4.333   2.468   5.722 -0.7974 -0.7212 -0.7034
 4286TIP3    H212823   4.186   2.499   5.737 -0.4816  0.3822  0.2222
 4287TIP3   OH212824   5.857   4.123   1.507  0.0905  0.1533 -0.0451
 4287TIP3    H112825   5.798   4.050   1.526 -1.4312  0.7589 -2.0899
 4287TIP3    H212826   5.805   4.182   1.452  2.1849  1.4208 -0.7669
 4288TIP3   OH212827   5.683   6.141   4.267  0.2152  0.1443 -0.1967
 4288TIP3    H112828   5.706   6.057   4.228  1.5069  0.8855 -1.0947
 4288TIP3    H212829   5.663   6.120   4.358 -1.7558 -1.4608 -0.8991
 4289TIP3   OH212830   2.452   2.540   3.274  0.8031 -0.6351 -0.2461
 4289TIP3    H112831   2.362   2.564   3.253  0.9850 -1.2439 -1.8606
 4289TIP3    H212832   2.447   2.500   3.361 -0.4117 -0.3603 -0.1709
 4290TIP3   OH212833   3.963   0.059   3.006  0.8735 -0.2239 -0.3102
 4290TIP3    H112834   3.948   0.115   2.930 -2.7348  1.2019  1.2242
 4290TIP3    H212835   3.971  -0.029   2.969  0.4759  0.5771 -2.4430
 4291TIP3   OH212836   6.776   5.309   3.676  0.3524  0.4430  0.6689
 4291TIP3    H112837   6.683   5.321   3.658  0.2736 -0.7317  0.1448
 4291TIP3    H212838   6.804   5.390   3.717 -0.7604  1.0649  0.2421
 4292TIP3   OH212839   2.016   6.535   5.531 -0.4789  0.2141 -0.3930
 4292TIP3    H112840   2.105   6.519   5.502 -1.1880 -2.0115 -1.5981
 4292TIP3    H212841   1.973   6.578   5.457 -0.7611 -0.0265 -0.3726
 4293TIP3   OH212842   1.609   2.522   5.148 -0.1219 -0.1660  0.2454
 4293TIP3    H112843   1.527   2.571   5.141 -1.4189 -2.2292 -0.1875
 4293TIP3    H212844   1.649   2.552   5.229 -1.4662  0.6810  0.6252
 4294TIP3   OH212845   5.891   2.559   1.129 -0.4442  0.1580  0.0307
 4294TIP3    H112846   5.811   2.555   1.077  0.9496 -1.5217 -2.1744
 4294TIP3    H212847   5.885   2.485   1.189 -1.4782  1.3415  1.4481
 4295TIP3   OH212848   5.070   2.238   5.265 -0.1634  0.3873 -0.5406
 4295TIP3    H112849   5.125   2.280   5.332 -1.1876  3.4399 -1.4089
 4295TIP3    H212850   5.119   2.162   5.237  0.9680 -0.1908  2.6210
 4296TIP3   OH212851   2.867   0.391   0.217  0.3303  0.2911  0.0083
 4296TIP3    H112852   2.931   0.323   0.240  1.0107  0.6312 -0.8131
 4296TIP3    H212853   2.921   0.469   0.202 -0.2530  0.5241 -0.9462
 4297TIP3   OH212854   0.532   6.017   5.042  0.0190  0.6173  0.4367
 4297TIP3    H112855   0.619   5.998   5.077 -0.2901  0.9693  1.4210
 4297TIP3    H212856   0.472   5.965   5.095 -0.2581 -1.0794 -1.4314
 4298TIP3   OH212857   4.148   0.498   4.392 -0.7400 -0.1697  0.1271
 4298TIP3    H112858   4.216   0.459   4.447 -1.1311  1.3192  1.7747
 4298TIP3    H212859   4.111   0.568   4.446 -1.6380  0.9306 -1.8070
 4299TIP3   OH212860   1.286   1.946   3.472  0.0182  0.3802 -0.3915
 4299TIP3    H112861   1.262   1.902   3.553  1.3373 -0.4448 -0.4158
 4299TIP3    H212862   1.212   1.930   3.413 -1.6212  2.1948  1.0232
 4300TIP3   OH212863   0.564   4.593   5.661 -0.1691 -0.6098  0.0421
 4300TIP3    H112864   0.526   4.673   5.697  2.4025  0.5801  0.3891
 4300TIP3    H212865   0.587   4.541   5.739  1.0688 -0.1873 -0.0142
 4301TIP3   OH212866   1.408   3.335   4.272 -0.3360 -0.4769  0.0785
 4301TIP3    H112867   1.365   3.402   4.326  0.9149 -0.2710  0.8717
 4301TIP3    H212868   1.501   3.352   4.284  0.0360 -2.6694  0.7257
 4302TIP3   OH212869   2.154   0.023   4.033  0.5412  0.0656  0.6385
 4302TIP3    H112870   2.162   0.062   4.120  0.7560 -0.5671  0.9048
 4302TIP3    H212871   2.133   0.097   3.975 -2.7754  0.0798  1.6737
 4303TIP3   OH212872   0.446   5.112   3.842 -0.2891 -0.0527 -0.2251
 4303TIP3    H112873   0.509   5.180   3.866 -1.7098  1.7460 -1.3013
 4303TIP3    H212874   0.387   5.105   3.917  0.7582 -1.2674  0.5170
 4304TIP3   OH212875   3.937   5.490   3.560 -0.0029 -0.6065  0.3234
 4304TIP3    H112876   3.957   5.559   3.496  2.2651 -0.7676  0.7885
 4304TIP3    H212877   3.941   5.535   3.645 -0.4223 -0.9267  0.5137
 4305TIP3   OH212878   5.063   5.601   4.663 -0.1199 -0.1224 -0.3351
 4305TIP3    H112879   5.046   5.507   4.653 -0.4912 -0.1543  0.5385
 4305TIP3    H212880   5.071   5.633   4.573 -0.8212 -0.8483 -0.6722
 4306TIP3   OH212881   3.654   6.515   1.660  0.0788 -0.8103  0.4805
 4306TIP3    H112882   3.677   6.581   1.595 -2.4566 -0.8259 -0.5559
 4306TIP3    H212883   3.667   6.559   1.744  2.1761 -0.3576 -0.0292
 4307TIP3   OH212884   4.782   0.450   5.061 -0.2283 -0.2843 -0.5556
 4307TIP3    H112885   4.689   0.472   5.072 -0.6062 -1.4873 -1.1387
 4307TIP3    H212886   4.795   0.373   5.117  0.2887 -0.4389 -0.8853
 4308TIP3   OH212887   4.976   4.708   0.670 -0.0471 -0.1697  0.0555
 4308TIP3    H112888   4.978   4.793   0.714  1.9012 -0.1815  0.0467
 4308TIP3    H212889   5.059   4.702   0.623 -0.1257 -2.0849  0.0534
 4309TIP3   OH212890   4.668   0.487   0.667 -0.3263 -0.5531 -0.2695
 4309TIP3    H112891   4.593   0.486   0.608 -0.9547  0.3217  0.4758
 4309TIP3    H212892   4.712   0.570   0.649  0.4310 -1.0278 -0.6505
 4310TIP3   OH212893   5.317   3.545   0.242  0.3323 -0.1188 -0.3874
 4310TIP3    H112894   5.399   3.568   0.287  0.2562  0.6942 -0.6426
 4310TIP3    H212895   5.278   3.478   0.297 -0.0591  1.2843  1.1365
 4311TIP3   OH212896   2.854   4.708   3.832 -0.1355 -0.2480 -0.6085
 4311TIP3    H112897   2.821   4.671   3.914 -0.0973  1.5979  0.3009
 4311TIP3    H212898   2.776   4.735   3.785 -0.3230 -3.3287 -2.3117
 4312TIP3   OH212899   6.334   0.972   1.031 -0.3286 -0.4084 -0.1820
 4312TIP3    H112900   6.421   0.955   0.996 -0.0462  0.7231 -0.0780
 4312TIP3    H212901   6.274   0.947   0.961  0.1268 -0.3226 -0.6020
 4313TIP3   OH212902   4.723   0.774   4.148 -1.0539 -0.4137  0.0789
 4313TIP3    H112903   4.772   0.693   4.164 -0.7329 -0.4642 -1.0915
 4313TIP3    H212904   4.654   0.749   4.087 -3.0032 -0.4814  2.1919
 4314TIP3   OH212905   6.957   2.393   5.476  0.0985 -0.2269  0.7677
 4314TIP3    H112906   7.020   2.327   5.504  0.5103 -0.8900 -1.5026
 4314TIP3    H212907   7.007   2.453   5.421 -1.2096 -0.8268 -1.1672
 4315TIP3   OH212908   2.134   2.416   5.452  0.0135  0.0992 -0.0026
 4315TIP3    H112909   2.117   2.378   5.538 -0.2158  0.6630  0.2053
 4315TIP3    H212910   2.215   2.374   5.422 -0.6179 -1.0985 -0.1011
 4316TIP3   OH212911   6.462   5.397   2.618 -0.6456  0.0443  0.0416
 4316TIP3    H112912   6.425   5.405   2.706 -3.1555 -0.2914 -0.9078
 4316TIP3    H212913   6.415   5.324   2.578 -0.9749  1.3946 -2.2367
 4317TIP3   OH212914   5.094   6.679   2.005  0.3537  0.4060  0.2544
 4317TIP3    H112915   5.103   6.772   2.024 -0.6039  1.0218 -1.9706
 4317TIP3    H212916   5.170   6.659   1.950  0.6802 -0.2163  0.9119
 4318TIP3   OH212917   1.896   0.590   1.162  0.3246 -0.3150  0.0563
 4318TIP3    H112918   1.846   0.644   1.101 -0.4633 -0.1020  0.8647
 4318TIP3    H212919   1.969   0.645   1.189 -1.4330  1.1450  2.2543
 4319TIP3   OH212920   2.012   1.628   4.505  0.5101  0.3017  0.4844
 4319TIP3    H112921   2.018   1.704   4.563 -0.4302  1.4750 -0.8525
 4319TIP3    H212922   2.080   1.643   4.439 -1.0076  1.1267 -0.9726
 4320TIP3   OH212923   4.771   2.730   1.317 -0.0618 -0.1212 -0.1568
 4320TIP3    H112924   4.806   2.705   1.402 -2.0180  0.5548  0.9057
 4320TIP3    H212925   4.689   2.682   1.309 -0.1507  0.1941 -1.4614
 4321TIP3   OH212926   4.732   2.830   0.084 -0.1903 -0.1223 -0.3967
 4321TIP3    H112927   4.772   2.749   0.050 -3.5848 -2.5142  0.7945
 4321TIP3    H212928   4.701   2.806   0.171 -1.3711  2.5115 -0.0168
 4322TIP3   OH212929   0.509   2.255   2.852 -0.3566 -0.3942  0.2182
 4322TIP3    H112930   0.600   2.285   2.861 -0.4082 -0.1199 -0.1466
 4322TIP3    H212931   0.503   2.180   2.912  0.3420 -0.9131 -0.3353
 4323TIP3   OH212932   1.417   0.319   3.041 -1.0641  0.7566  0.1273
 4323TIP3    H112933   1.405   0.233   2.999  0.6927  1.0115 -1.0307
 4323TIP3    H212934   1.431   0.298   3.133 -0.3597 -0.2640 -0.1828
 4324TIP3   OH212935   4.411   1.932   3.271 -0.2636 -0.0292 -0.5300
 4324TIP3    H112936   4.420   1.998   3.339 -2.0985  0.5199 -0.7528
 4324TIP3    H212937   4.317   1.911   3.270 -0.1890 -0.4681 -2.4560
 4325TIP3   OH212938   2.919   5.755   1.144 -0.1235  0.1468 -0.3480
 4325TIP3    H112939   2.845   5.803   1.107  0.3357  0.6703 -0.5994
 4325TIP3    H212940   2.995   5.784   1.094  0.5921  1.1639  1.2307
 4326TIP3   OH212941   2.217   2.547   0.816 -0.0529  0.5228 -0.3839
 4326TIP3    H112942   2.218   2.476   0.880  1.0143 -0.2189 -1.1965
 4326TIP3    H212943   2.292   2.530   0.760  0.2390  2.3118 -0.5958
 4327TIP3   OH212944   3.926   4.703   5.130 -0.3851  0.1012 -0.2363
 4327TIP3    H112945   4.015   4.735   5.119 -0.5160  1.0060  1.0036
 4327TIP3    H212946   3.901   4.733   5.218 -1.2979 -1.6389  0.1449
 4328TIP3   OH212947   3.245   0.270   3.471  0.3813 -0.1482  0.1109
 4328TIP3    H112948   3.259   0.185   3.513  1.6682  0.4822  1.0299
 4328TIP3    H212949   3.248   0.251   3.378  1.5602 -0.9992  0.2941
 4329TIP3   OH212950   6.539   0.892   0.832  0.2927  0.5460  0.5737
 4329TIP3    H112951   6.613   0.843   0.869 -0.3580  0.4197  1.7798
 4329TIP3    H212952   6.562   0.906   0.741  2.3168  1.4746  1.1738
 4330TIP3   OH212953   1.619   0.281   3.655 -0.0827 -0.3086  0.3284
 4330TIP3    H112954   1.630   0.360   3.710  0.8891  1.4400 -2.1873
 4330TIP3    H212955   1.525   0.265   3.655 -0.8325  3.0569 -1.8051
 4331TIP3   OH212956   2.164   5.051   1.918  0.5565 -0.1901 -0.0322
 4331TIP3    H112957   2.226   5.109   1.961 -0.1745  0.6190 -0.0273
 4331TIP3    H212958   2.129   5.103   1.845 -1.3208  0.0018  0.9392
 4332TIP3   OH212959   2.082   1.332   2.224 -0.3585 -0.5288 -0.1845
 4332TIP3    H112960   2.016   1.275   2.184 -0.9300 -0.1427  0.2047
 4332TIP3    H212961   2.068   1.322   2.318 -0.4785  0.2759 -0.1153
 4333TIP3   OH212962   5.696   0.433   0.697  0.2686 -0.4692  0.2609
 4333TIP3    H112963   5.704   0.511   0.642  0.7941 -1.1503 -0.6633
 4333TIP3    H212964   5.741   0.455   0.778  0.7618  0.0558 -0.1500
 4334TIP3   OH212965   6.463   4.231   0.218  0.0542 -0.4249 -0.6009
 4334TIP3    H112966   6.537   4.267   0.267  0.3349  0.8981 -1.9185
 4334TIP3    H212967   6.395   4.298   0.224 -0.8008 -1.3123 -0.0179
 4335TIP3   OH212968   6.373   6.268   4.308 -0.6157  0.5562 -0.2838
 4335TIP3    H112969   6.302   6.276   4.372 -1.4790  1.2122 -1.2910
 4335TIP3    H212970   6.365   6.346   4.253  0.8843  0.6373 -0.4431
 4336TIP3   OH212971   0.458   3.943   4.459  0.2266 -0.7389  0.4558
 4336TIP3    H112972   0.387   3.962   4.519  0.6025  0.5251  0.5300
 4336TIP3    H212973   0.417   3.890   4.389 -0.8835  0.3203  0.2729
 4337TIP3   OH212974   2.709   1.267   0.124 -0.2618 -0.1183 -0.2492
 4337TIP3    H112975   2.739   1.190   0.173 -1.1472 -0.6821 -0.5605
 4337TIP3    H212976   2.674   1.230   0.043 -0.6950  0.6224 -0.4003
 4338TIP3   OH212977   7.076   4.843   1.385 -0.0602  0.2358 -0.3108
 4338TIP3    H112978   7.023   4.855   1.464  0.6060 -0.1409  0.2045
 4338TIP3    H212979   7.166   4.845   1.416  0.2341  0.6678 -1.1496
 4339TIP3   OH212980   5.109   1.466   3.806 -0.1151 -0.2445  0.2842
 4339TIP3    H112981   5.124   1.497   3.896 -1.4866 -1.7164  1.0634
 4339TIP3    H212982   5.078   1.544   3.759  0.3645  0.4865  1.1442
 4340TIP3   OH212983   6.105   1.417   0.682  0.3077  0.6975 -0.6470
 4340TIP3    H112984   6.164   1.428   0.608  0.8379  2.5023 -0.0095
 4340TIP3    H212985   6.143   1.346   0.733  1.5325  1.3243 -0.6505
 4341TIP3   OH212986   3.232   0.947   1.760  0.3135  0.2807 -0.4218
 4341TIP3    H112987   3.253   0.910   1.674  0.5655  1.4297 -0.8656
 4341TIP3    H212988   3.263   1.037   1.756  1.9960 -0.1337  1.5274
 4342TIP3   OH212989   2.270   4.908   1.040 -0.0203 -0.1600  0.2220
 4342TIP3    H112990   2.234   4.978   0.985 -1.4839 -0.1858  1.0851
 4342TIP3    H212991   2.347   4.877   0.993 -1.5479 -0.6042 -2.1586
 4343TIP3   OH212992   4.730   0.996   3.741  0.3186  0.0653  0.2420
 4343TIP3    H112993   4.745   1.087   3.715  0.0038  0.3984  1.1937
 4343TIP3    H212994   4.804   0.948   3.704  0.7396  0.7840  0.1312
 4344TIP3   OH212995   2.212   5.316   2.661  0.1028  0.0940 -0.0432
 4344TIP3    H112996   2.161   5.238   2.682 -0.6252  0.4764 -0.3226
 4344TIP3    H212997   2.230   5.357   2.745  2.2167 -1.3904  0.2984
 4345TIP3   OH212998   1.953   1.420   5.629  0.1231 -0.0850  0.0295
 4345TIP3    H112999   1.920   1.487   5.689 -0.9475 -1.3641  0.9554
 4345TIP3    H213000   1.902   1.432   5.549  2.0123  2.0466 -0.9247
 4346TIP3   OH213001   1.004   5.200   5.373  0.4894 -0.2319 -0.5293
 4346TIP3    H113002   1.084   5.243   5.403 -0.6097  0.7535  1.1396
 4346TIP3    H213003   0.983   5.242   5.290  0.2484  1.4585  0.3574
 4347TIP3   OH213004   5.456   3.333   1.178  0.3141  0.1842 -0.4335
 4347TIP3    H113005   5.501   3.249   1.188 -0.1148  0.0950  0.9269
 4347TIP3    H213006   5.523   3.399   1.201  0.3552  0.1562 -0.4735
 4348TIP3   OH213007   6.478   5.818   0.970 -0.2047  0.6340 -1.1000
 4348TIP3    H113008   6.463   5.910   0.949  0.9148  0.7941 -1.2283
 4348TIP3    H213009   6.390   5.781   0.981 -0.6611  2.2490  1.3374
 4349TIP3   OH213010   3.270   6.100   5.641 -0.2042  0.1721 -0.2524
 4349TIP3    H113011   3.214   6.032   5.679 -0.0693  0.2727  0.1304
 4349TIP3    H213012   3.326   6.128   5.713  3.3139 -2.8728 -1.4430
 4350TIP3   OH213013   0.125   6.066   2.158  0.5591 -0.2411 -0.0625
 4350TIP3    H113014   0.193   6.106   2.104 -1.4547  1.4383 -1.5270
 4350TIP3    H213015   0.153   6.081   2.248  0.8933  2.7781 -0.5795
 4351TIP3   OH213016   6.936   3.887   4.443 -0.0153  0.0562 -0.3486
 4351TIP3    H113017   6.974   3.801   4.423 -0.6898  0.0570 -1.7249
 4351TIP3    H213018   6.847   3.868   4.471  0.1198  0.2644  0.2598
 4352TIP3   OH213019   0.342   3.092   3.363  0.1600  0.1783 -0.0742
 4352TIP3    H113020   0.320   3.172   3.316  0.0856  0.7912  0.9720
 4352TIP3    H213021   0.268   3.034   3.347 -1.0521  1.2759  1.2744
 4353TIP3   OH213022   0.247   4.150   0.062  0.3699  0.2151  0.0800
 4353TIP3    H113023   0.214   4.090   0.128  1.4600  2.3237  2.7028
 4353TIP3    H213024   0.335   4.116   0.041  0.5110  0.2272  0.6452
 4354TIP3   OH213025   5.924   2.323   5.707 -0.3532  0.3560 -0.7258
 4354TIP3    H113026   5.858   2.363   5.650  0.9186 -0.1147 -2.6071
 4354TIP3    H213027   5.995   2.297   5.648  1.3635  0.4732  1.1777
 4355TIP3   OH213028   2.942   2.504   1.937  0.1555 -0.1154 -0.2754
 4355TIP3    H113029   2.943   2.585   1.988 -0.4053 -1.1803  1.5140
 4355TIP3    H213030   2.856   2.502   1.897 -0.0143 -0.0518  0.0793
 4356TIP3   OH213031   2.474   0.445   2.538 -0.6808  0.5420 -0.2584
 4356TIP3    H113032   2.518   0.363   2.518  0.3059  0.2687  2.5730
 4356TIP3    H213033   2.543   0.511   2.533 -0.9077  0.7960 -0.0881
 4357TIP3   OH213034   2.709   1.407   0.437 -0.4224 -0.0456  0.5855
 4357TIP3    H113035   2.616   1.398   0.413 -0.3149  0.3911 -0.0361
 4357TIP3    H213036   2.708   1.416   0.532 -0.8571 -1.9203  0.7822
 4358TIP3   OH213037   6.122   4.671   1.412  0.1082 -0.1916  0.6128
 4358TIP3    H113038   6.176   4.737   1.367  0.1687  0.7963  2.0694
 4358TIP3    H213039   6.064   4.722   1.468 -0.7503 -1.3481  0.7995
 4359TIP3   OH213040   6.259   5.802   0.413 -0.2543  0.8933 -0.4339
 4359TIP3    H113041   6.355   5.796   0.414 -0.1930  1.0952  1.9725
 4359TIP3    H213042   6.231   5.734   0.352  1.3943 -0.1983 -0.0535
 4360TIP3   OH213043   0.652   2.706   0.282  0.0278  0.6545  0.2657
 4360TIP3    H113044   0.653   2.724   0.376 -1.8886 -0.9361  0.6685
 4360TIP3    H213045   0.674   2.613   0.276 -0.8639  0.4902 -0.7427
 4361TIP3   OH213046   5.320   1.141   0.874  0.7292  0.3960  0.6326
 4361TIP3    H113047   5.283   1.226   0.848 -1.3007 -0.5040  0.4418
 4361TIP3    H213048   5.280   1.122   0.958 -2.3391 -2.3036 -1.2083
 4362TIP3   OH213049   3.879   2.554   1.818  0.1303  0.1180 -0.3061
 4362TIP3    H113050   3.959   2.502   1.827  0.4095  0.5972  0.0109
 4362TIP3    H213051   3.850   2.538   1.728  0.7676  0.1973 -0.5310
 4363TIP3   OH213052   3.678   4.833   4.450  0.1846  0.1383 -0.0339
 4363TIP3    H113053   3.744   4.890   4.410 -0.1839 -1.2527 -2.8383
 4363TIP3    H213054   3.598   4.885   4.450  0.5201  0.6618  0.2474
 4364TIP3   OH213055   1.569   6.262   3.511  0.1278 -0.2873  0.9194
 4364TIP3    H113056   1.584   6.168   3.502  0.0088 -0.3174  1.0471
 4364TIP3    H213057   1.580   6.296   3.422 -0.1722 -0.4693  0.8131
 4365TIP3   OH213058   1.015   6.733   3.279 -0.1762  0.4122 -0.1845
 4365TIP3    H113059   1.021   6.820   3.241 -0.7824  0.5983  0.1304
 4365TIP3    H213060   0.937   6.694   3.238  0.9996 -0.5984 -1.5443
 4366TIP3   OH213061   3.278   2.956   0.917  0.3903  0.2646  0.4492
 4366TIP3    H113062   3.354   2.907   0.947 -0.2596 -1.2054 -0.2325
 4366TIP3    H213063   3.295   3.046   0.945  1.8336 -0.2469  1.3079
 4367TIP3   OH213064   0.168   1.199   2.398 -0.3918 -0.6475  0.5406
 4367TIP3    H113065   0.166   1.285   2.355 -1.4445 -1.5021 -1.2627
 4367TIP3    H213066   0.237   1.151   2.352 -1.7051 -1.6684 -0.4383
 4368TIP3   OH213067   5.265   0.352   0.830  0.1609 -0.2048 -0.5273
 4368TIP3    H113068   5.238   0.443   0.843  0.9356  0.0736 -0.8307
 4368TIP3    H213069   5.299   0.349   0.741  1.8406 -0.3509  0.0887
 4369TIP3   OH213070   6.907   5.540   1.553 -0.2485 -0.3303 -0.2384
 4369TIP3    H113071   6.868   5.565   1.637 -1.1954 -2.1516 -0.0932
 4369TIP3    H213072   6.988   5.590   1.549 -0.7142  0.6329  1.2477
 4370TIP3   OH213073   5.203   2.268   1.525  0.6098  0.8846 -0.3850
 4370TIP3    H113074   5.121   2.220   1.528  1.0711  0.0318 -0.9625
 4370TIP3    H213075   5.213   2.293   1.433  1.0366  0.8965 -0.3396
 4371TIP3   OH213076   2.025   4.732   0.449  0.1943  0.1118 -0.5941
 4371TIP3    H113077   1.944   4.780   0.433 -0.5893 -1.1180 -0.5153
 4371TIP3    H213078   2.061   4.716   0.362  0.4692  0.8389 -0.6180
 4372TIP3   OH213079   1.632   4.339   0.247  0.2106  0.2647  0.0764
 4372TIP3    H113080   1.684   4.271   0.204  0.6160  0.2165  0.6441
 4372TIP3    H213081   1.665   4.421   0.211  1.0083  0.2633  0.7735
 4373TIP3   OH213082   2.379   0.718   2.605  0.2773  0.2514 -0.3971
 4373TIP3    H113083   2.433   0.791   2.575  0.9788 -0.0987 -0.0372
 4373TIP3    H213084   2.319   0.756   2.669 -0.1873  0.7232 -1.1020
 4374TIP3   OH213085   3.223   6.342   4.502 -0.3049  0.1504 -0.1570
 4374TIP3    H113086   3.270   6.278   4.449  0.0832 -0.3013  0.7193
 4374TIP3    H213087   3.154   6.374   4.444 -0.1616 -0.6500 -0.7967
 4375TIP3   OH213088   4.320   1.772   2.669  0.7662  0.1366 -0.1068
 4375TIP3    H113089   4.236   1.807   2.699  0.1163  1.0034 -2.6743
 4375TIP3    H213090   4.331   1.690   2.718 -1.9724 -0.4021 -0.2346
 4376TIP3   OH213091   2.914   3.368   1.610 -0.1429 -0.3803  0.0486
 4376TIP3    H113092   2.893   3.374   1.703  0.4445 -0.9991  0.2358
 4376TIP3    H213093   2.891   3.278   1.586  0.6858 -0.5505 -0.1396
 4377TIP3   OH213094   0.821   3.825   0.479 -0.2209  0.2718 -0.0394
 4377TIP3    H113095   0.790   3.864   0.561 -0.8331  0.5884 -0.4168
 4377TIP3    H213096   0.833   3.733   0.500  1.7659  0.6955  1.0189
 4378TIP3   OH213097   6.428   5.048   0.620 -0.0644 -0.1876  0.0355
 4378TIP3    H113098   6.504   5.094   0.657  0.9137 -1.0738 -0.7978
 4378TIP3    H213099   6.399   4.990   0.690 -0.4690  0.7068  0.6276
 4379TIP3   OH213100   3.095   1.365   0.629  0.0768 -0.9657 -0.2731
 4379TIP3    H113101   3.071   1.309   0.703  1.8719 -1.2766  0.1308
 4379TIP3    H213102   3.027   1.432   0.626 -0.2843 -1.2243  1.3603
 4380TIP3   OH213103   3.301   3.600   3.054 -0.0812 -0.4694  0.4976
 4380TIP3    H113104   3.384   3.553   3.058 -0.7715 -1.7112  0.4987
 4380TIP3    H213105   3.235   3.532   3.045 -1.2254  0.4106  1.8984
 4381TIP3   OH213106   4.591   3.595   3.910  0.1847  0.4615 -0.2442
 4381TIP3    H113107   4.636   3.680   3.914 -1.4254  1.3399  0.4563
 4381TIP3    H213108   4.499   3.617   3.923 -0.0540 -1.6381  2.3546
 4382TIP3   OH213109   3.283   2.063   0.526  0.2900 -0.1643 -0.3162
 4382TIP3    H113110   3.378   2.056   0.522  0.3241 -0.9323  1.1582
 4382TIP3    H213111   3.251   1.979   0.494  0.2689 -1.4755  2.8031
 4383TIP3   OH213112   1.680   0.922   2.801  0.3558  0.2796 -0.8300
 4383TIP3    H113113   1.624   0.845   2.804  0.1620  0.3057 -2.5096
 4383TIP3    H213114   1.622   0.993   2.775  0.6838  0.8385 -0.0647
 4384TIP3   OH213115   1.090   1.920   0.125  0.2372 -0.4010 -0.4687
 4384TIP3    H113116   1.094   2.015   0.117 -0.6731 -0.2095  0.9060
 4384TIP3    H213117   1.179   1.894   0.147  0.4213  0.1761 -0.5168
 4385TIP3   OH213118   1.914   4.919   3.833 -0.4617 -0.0441  0.1040
 4385TIP3    H113119   1.855   4.992   3.851 -3.3287 -1.9808 -0.8298
 4385TIP3    H213120   1.905   4.904   3.739  0.1523 -1.5146  0.2546
 4386TIP3   OH213121   0.375   5.011   1.678  0.2713  0.1002 -0.3644
 4386TIP3    H113122   0.372   4.922   1.713 -1.1028  0.7032  1.1551
 4386TIP3    H213123   0.359   5.068   1.753 -0.7059  1.5606 -1.5972
 4387TIP3   OH213124   4.491   3.505   3.667  0.1918  0.2713 -0.3825
 4387TIP3    H113125   4.537   3.553   3.736  1.1536 -0.3428 -0.5661
 4387TIP3    H213126   4.399   3.527   3.678  0.0287 -1.3902  2.4019
 4388TIP3   OH213127   4.387   4.476   1.469  0.5910  0.1783 -0.2563
 4388TIP3    H113128   4.426   4.420   1.535 -0.3604 -0.0968  0.0859
 4388TIP3    H213129   4.296   4.449   1.465 -0.4231  2.9313  1.3036
 4389TIP3   OH213130   4.449   4.463   2.363 -0.4450  0.0078 -0.0824
 4389TIP3    H113131   4.397   4.542   2.379  0.2992  0.2931  1.0471
 4389TIP3    H213132   4.467   4.428   2.450  0.9466 -0.2696 -0.4565
 4390TIP3   OH213133   0.784   2.602   5.804 -0.6941 -0.6342 -0.2911
 4390TIP3    H113134   0.736   2.519   5.810  0.4642 -1.2634  0.8554
 4390TIP3    H213135   0.874   2.579   5.826 -0.1525  0.7788 -0.9279
 4391TIP3   OH213136   5.502   5.636   3.357 -0.1400 -0.2551 -0.9125
 4391TIP3    H113137   5.445   5.627   3.281  1.2091  0.0071 -1.9994
 4391TIP3    H213138   5.494   5.728   3.382 -0.9423 -0.4467 -0.4207
 4392TIP3   OH213139   2.893   3.363   0.653 -0.1185  0.0973 -0.0285
 4392TIP3    H113140   2.823   3.396   0.596 -0.3092  1.1442  0.7953
 4392TIP3    H213141   2.885   3.267   0.647 -2.0172  0.1870  0.5102
 4393TIP3   OH213142   4.276   4.132   5.879 -0.0889 -0.0383 -0.0532
 4393TIP3    H113143   4.260   4.126   5.785 -0.8270 -0.5883  0.0934
 4393TIP3    H213144   4.192   4.108   5.919 -0.1721  1.4512  0.7332
 4394TIP3   OH213145   6.010   1.111   2.631 -0.0300  0.0092 -0.1512
 4394TIP3    H113146   5.985   1.032   2.583  0.6183  0.0401 -0.5639
 4394TIP3    H213147   6.025   1.177   2.563  1.5082 -0.1176  0.0162
 4395TIP3   OH213148   1.729   4.085   0.530  0.1243 -0.5352 -0.1458
 4395TIP3    H113149   1.700   4.045   0.448 -0.5700 -0.5625  0.1075
 4395TIP3    H213150   1.786   4.020   0.570 -0.8273 -1.2032  0.1609
 4396TIP3   OH213151   2.518   2.083   0.091 -0.7463 -0.2457 -0.6908
 4396TIP3    H113152   2.515   2.161   0.146 -3.2830 -0.7770  0.0715
 4396TIP3    H213153   2.480   2.110   0.008 -5.2992 -1.3469  0.7694
 4397TIP3   OH213154   5.565   4.399   4.429 -0.0389 -0.1078  0.4131
 4397TIP3    H113155   5.547   4.486   4.392  0.8989  0.5073  1.3564
 4397TIP3    H213156   5.505   4.341   4.383 -0.3939  0.9739 -0.5334
 4398TIP3   OH213157   2.928   1.673   0.412 -0.2246  0.4894  0.4249
 4398TIP3    H113158   2.914   1.596   0.358 -0.7623  0.9574 -0.1120
 4398TIP3    H213159   2.844   1.688   0.456 -0.9754  2.2461 -1.4336
 4399TIP3   OH213160   3.552   6.522   0.612 -0.1364  0.1265 -0.2831
 4399TIP3    H113161   3.460   6.541   0.632 -0.4332  0.7233 -1.9850
 4399TIP3    H213162   3.556   6.426   0.608 -0.4894  0.0666  0.5762
 4400TIP3   OH213163   2.837   6.244   5.632 -0.2539  0.4379  0.1929
 4400TIP3    H113164   2.821   6.337   5.617  0.0191  0.3812 -0.4606
 4400TIP3    H213165   2.914   6.241   5.689 -0.5177  0.6193  0.5627
 4401TIP3   OH213166   4.588   5.386   4.350 -0.6301  0.0274 -0.0603
 4401TIP3    H113167   4.612   5.322   4.417  0.6104  0.8143  0.2855
 4401TIP3    H213168   4.629   5.353   4.270 -2.5763 -1.2071 -0.6012
 4402TIP3   OH213169   5.110   6.427   5.097 -0.4463  0.4571 -0.2239
 4402TIP3    H113170   5.028   6.427   5.146  0.2517 -0.6697  1.0039
 4402TIP3    H213171   5.162   6.498   5.135  0.5106 -1.0890  1.4554
 4403TIP3   OH213172   6.163   1.908   2.939 -0.0462  0.1964 -0.0335
 4403TIP3    H113173   6.095   1.926   2.874 -1.4070  2.3974  1.8802
 4403TIP3    H213174   6.211   1.990   2.947  0.5909 -0.2749  1.2278
 4404TIP3   OH213175   7.218   3.621   5.259  0.7671  0.1574 -0.2811
 4404TIP3    H113176   7.255   3.696   5.305  2.1354 -0.8637  0.3505
 4404TIP3    H213177   7.166   3.575   5.325  1.1026 -0.2289 -0.2854
 4405TIP3   OH213178   2.981   6.015   2.520 -0.1985 -0.7575  0.0405
 4405TIP3    H113179   2.897   6.013   2.566 -0.3998 -1.7195 -0.3468
 4405TIP3    H213180   2.976   5.942   2.458  0.1082  0.4109 -1.4203
 4406TIP3   OH213181   1.644   1.217   0.565 -0.9125  0.7251 -0.4738
 4406TIP3    H113182   1.682   1.157   0.629  0.2682  1.3031 -0.6143
 4406TIP3    H213183   1.619   1.160   0.492 -2.6567 -0.0016  0.6202
 4407TIP3   OH213184   0.722   5.279   4.674  0.6440  0.0135  0.1044
 4407TIP3    H113185   0.694   5.218   4.606  0.5531 -1.3608  1.3279
 4407TIP3    H213186   0.713   5.365   4.634 -1.0426 -0.6463 -1.0514
 4408TIP3   OH213187   1.289   3.480   3.684  0.0213 -0.3840 -0.3634
 4408TIP3    H113188   1.300   3.517   3.771 -0.3281 -1.9052  0.3629
 4408TIP3    H213189   1.213   3.527   3.648 -0.5979 -0.5678  0.6451
 4409TIP3   OH213190   5.150   6.020   4.518 -0.3599  0.1948 -0.6184
 4409TIP3    H113191   5.211   6.039   4.446 -0.5282 -0.7862 -1.0329
 4409TIP3    H213192   5.105   5.941   4.490 -0.1157 -0.4581  0.7805
 4410TIP3   OH213193   0.671   3.241   5.593  0.1509 -0.0357 -0.1534
 4410TIP3    H113194   0.593   3.288   5.564 -0.0304 -0.1899  0.0753
 4410TIP3    H213195   0.670   3.159   5.543  0.2018 -0.0086 -0.1984
 4411TIP3   OH213196   5.005   6.030   5.817 -0.5592  0.0376 -0.2098
 4411TIP3    H113197   5.032   6.018   5.726 -0.4476  1.4165 -0.3790
 4411TIP3    H213198   5.086   6.042   5.865 -0.6906  0.7816 -0.1698
 4412TIP3   OH213199   0.293   2.651   2.677  0.3573  0.5170 -0.1934
 4412TIP3    H113200   0.274   2.562   2.704 -0.3041  0.6230 -0.3028
 4412TIP3    H213201   0.298   2.647   2.581 -0.5578  0.7569 -0.2602
 4413TIP3   OH213202   0.336   0.708   4.323  0.4407 -0.2454  0.4505
 4413TIP3    H113203   0.416   0.761   4.322  0.5609 -0.4265 -0.6163
 4413TIP3    H213204   0.298   0.721   4.236 -0.9689  0.2411  1.1023
 4414TIP3   OH213205   6.026   5.732   4.392  0.0280 -0.2797  0.4041
 4414TIP3    H113206   6.112   5.769   4.373  0.0285 -0.9655 -1.1249
 4414TIP3    H213207   6.042   5.663   4.456  0.7380 -0.8451 -0.3566
 4415TIP3   OH213208   3.313   0.940   4.287 -0.2090  0.0517 -0.0885
 4415TIP3    H113209   3.357   1.023   4.305  1.1089 -0.7678  0.6129
 4415TIP3    H213210   3.223   0.953   4.316 -0.2840  1.5446 -0.9074
 4416TIP3   OH213211   1.619   4.049   5.445  0.5925  0.2390 -0.4803
 4416TIP3    H113212   1.534   4.068   5.407 -0.1603  0.6914  1.3307
 4416TIP3    H213213   1.617   4.091   5.531  2.2307 -0.6593  0.0427
 4417TIP3   OH213214   0.632   0.814   0.637  0.7384  0.5507 -0.1520
 4417TIP3    H113215   0.617   0.900   0.597  1.3166  1.6194  1.7822
 4417TIP3    H213216   0.684   0.833   0.716  2.2626 -1.7392 -0.4863
 4418TIP3   OH213217   2.273   4.001   2.463 -0.2331  0.2938 -0.7017
 4418TIP3    H113218   2.351   3.970   2.417 -0.9484  0.9185 -2.4475
 4418TIP3    H213219   2.297   4.089   2.493  0.8224 -0.7301  1.7615
 4419TIP3   OH213220   0.844   0.799   3.935 -0.0360  0.1894  0.5716
 4419TIP3    H113221   0.892   0.716   3.928  0.4521  0.5354 -0.2849
 4419TIP3    H213222   0.870   0.848   3.857 -2.0707  0.2431 -0.1232
 4420TIP3   OH213223   5.560   1.520   1.603 -0.4951  0.3945  0.0695
 4420TIP3    H113224   5.473   1.498   1.568 -0.5989 -0.7328  1.0075
 4420TIP3    H213225   5.609   1.549   1.526 -1.6899  1.0851 -0.4816
 4421TIP3   OH213226   5.509   6.757   2.796 -0.2991  0.4365 -0.1979
 4421TIP3    H113227   5.531   6.811   2.873 -2.2526  0.2784  0.5324
 4421TIP3    H213228   5.484   6.821   2.729 -2.6249  0.5633  0.6718
 4422TIP3   OH213229   2.196   3.193   1.000 -0.4774  0.2044 -0.5687
 4422TIP3    H113230   2.285   3.230   0.999  0.6984 -2.3926  0.6213
 4422TIP3    H213231   2.164   3.207   0.911  2.2705 -1.2853 -1.9131
 4423TIP3   OH213232   4.969   6.607   5.755  0.7094  0.0133  0.3584
 4423TIP3    H113233   5.017   6.535   5.715 -1.2479 -1.2070  0.1035
 4423TIP3    H213234   4.989   6.683   5.699  0.1345 -1.0791 -1.4029
 4424TIP3   OH213235   0.877   6.202   4.698  0.2471  0.1218 -0.2594
 4424TIP3    H113236   0.833   6.241   4.622  1.6251  1.2098 -0.5231
 4424TIP3    H213237   0.938   6.268   4.727 -0.4737 -0.1483  2.0388
 4425TIP3   OH213238   4.099   6.099   1.438 -0.0433  0.1221 -0.0960
 4425TIP3    H113239   4.129   6.190   1.436 -0.5204  0.2947  0.5323
 4425TIP3    H213240   4.173   6.050   1.473 -0.5059  0.5667  1.5952
 4426TIP3   OH213241   3.714   3.002   3.377 -0.3377 -0.4216  0.1658
 4426TIP3    H113242   3.645   2.964   3.322  0.2697 -2.0063  0.4350
 4426TIP3    H213243   3.743   3.080   3.329 -0.3208 -1.3569 -1.4166
 4427TIP3   OH213244   4.004   4.207   4.478  0.0982 -0.1572 -0.5180
 4427TIP3    H113245   4.006   4.113   4.456 -0.8741 -0.0467 -1.0991
 4427TIP3    H213246   4.055   4.213   4.559 -0.1714 -1.2536 -0.2506
 4428TIP3   OH213247   1.725   3.641   1.447  0.1042 -0.1693 -0.7487
 4428TIP3    H113248   1.814   3.608   1.432  0.4306  1.1005 -1.7875
 4428TIP3    H213249   1.722   3.657   1.541  1.3207  0.6501 -0.8234
 4429TIP3   OH213250   3.064   1.327   3.699 -0.8391 -0.2292  0.6147
 4429TIP3    H113251   3.022   1.311   3.615  0.7380 -0.4036 -0.1647
 4429TIP3    H213252   3.132   1.260   3.706  1.8368  2.2435  0.0722
 4430TIP3   OH213253   0.234   0.012   2.624 -0.1965  0.2228 -0.0504
 4430TIP3    H113254   0.224   0.105   2.606 -0.1127  0.5170  1.3166
 4430TIP3    H213255   0.145  -0.018   2.644 -0.2131  0.0184 -0.4201
 4431TIP3   OH213256   5.210   1.691   0.433 -0.0064 -0.3615 -0.1681
 4431TIP3    H113257   5.258   1.615   0.465  2.0302  1.3254  1.0534
 4431TIP3    H213258   5.132   1.696   0.488 -0.3349 -1.7096 -0.4842
 4432TIP3   OH213259   5.398   6.106   4.386  0.0518 -0.0504 -0.0010
 4432TIP3    H113260   5.397   6.070   4.474  0.9792 -0.4464 -0.1507
 4432TIP3    H213261   5.371   6.197   4.397 -0.4078 -0.2587  0.6127
 4433TIP3   OH213262   1.204   4.465   4.795  0.0985  0.0362 -0.0402
 4433TIP3    H113263   1.251   4.445   4.714 -0.7108  1.0523 -0.7957
 4433TIP3    H213264   1.118   4.425   4.784  0.4763 -1.1089  0.9825
 4434TIP3   OH213265   3.811   0.348   3.008  0.3082  0.2678 -0.1734
 4434TIP3    H113266   3.758   0.281   2.966  1.2973 -0.9708  0.4897
 4434TIP3    H213267   3.888   0.356   2.952  0.7391 -0.0055  0.3732
 4435TIP3   OH213268   1.316   6.406   0.789  0.2660 -0.5107 -0.3990
 4435TIP3    H113269   1.344   6.339   0.852 -0.9006  1.3102  2.2630
 4435TIP3    H213270   1.221   6.411   0.800  0.4160  2.2803  0.3997
 4436TIP3   OH213271   1.996   1.375   4.615 -0.2710 -0.1711 -0.3391
 4436TIP3    H113272   1.906   1.347   4.629 -0.6890  0.9472 -0.7032
 4436TIP3    H213273   1.989   1.463   4.580  0.9101 -0.6705 -1.9760
 4437TIP3   OH213274   0.808   6.559   0.397  0.4257  0.5275 -0.1847
 4437TIP3    H113275   0.799   6.651   0.423  1.2697  0.7753 -0.7172
 4437TIP3    H213276   0.746   6.512   0.453  0.6663  1.2995  0.7616
 4438TIP3   OH213277   2.023   5.977   4.375 -0.1751 -0.0501  0.7576
 4438TIP3    H113278   1.998   6.068   4.360  0.6207  0.3372  1.6877
 4438TIP3    H213279   1.975   5.951   4.453 -0.0038 -0.2607  0.7944
 4439TIP3   OH213280   1.881   0.506   4.706  0.0428 -0.0326 -0.1078
 4439TIP3    H113281   1.889   0.473   4.796 -1.2614  0.5840  0.2569
 4439TIP3    H213282   1.946   0.456   4.657 -0.6121 -1.8565  0.7742
 4440TIP3   OH213283   1.596   5.350   5.222 -0.0822  0.1881 -0.1794
 4440TIP3    H113284   1.557   5.265   5.203  0.6941  0.0606 -1.3297
 4440TIP3    H213285   1.635   5.340   5.309  2.2725 -1.5140 -1.3188
 4441TIP3   OH213286   6.169   4.053   3.155  0.3751 -0.5581  0.1053
 4441TIP3    H113287   6.259   4.079   3.171  0.1689  0.8661 -0.8773
 4441TIP3    H213288   6.122   4.079   3.234  0.3721  1.1908 -0.4270
 4442TIP3   OH213289   3.777   6.468   4.977 -0.2013  0.2272 -0.5043
 4442TIP3    H113290   3.870   6.466   4.996 -0.4137  0.5640  0.6986
 4442TIP3    H213291   3.765   6.548   4.926  0.0724  0.5776 -0.0308
 4443TIP3   OH213292   3.810   6.449   4.555  0.2695 -0.7471 -0.0557
 4443TIP3    H113293   3.890   6.476   4.599  0.1505  0.3259 -0.4537
 4443TIP3    H213294   3.788   6.365   4.593  0.7712 -0.3612  1.1233
 4444TIP3   OH213295   2.135   4.889   3.467  0.1493  0.3732  0.0214
 4444TIP3    H113296   2.177   4.839   3.396  0.5462 -0.8928  1.1110
 4444TIP3    H213297   2.041   4.879   3.452  0.2292 -0.4266  0.0288
 4445TIP3   OH213298   1.273   6.537   2.744 -0.5138  0.1941 -0.2170
 4445TIP3    H113299   1.362   6.509   2.765 -0.8942 -1.4060 -0.6084
 4445TIP3    H213300   1.274   6.556   2.650 -0.8809 -1.1145 -0.5011
 4446TIP3   OH213301   5.207   4.610   3.277 -0.0731  0.4021  0.0683
 4446TIP3    H113302   5.253   4.540   3.230 -0.3198  0.7914 -0.7872
 4446TIP3    H213303   5.215   4.686   3.219 -1.6057  0.5267 -0.0213
 4447TIP3   OH213304   5.094   1.110   0.153 -0.1475  0.0400  0.5502
 4447TIP3    H113305   5.035   1.149   0.217  0.1283 -2.4045  2.4235
 4447TIP3    H213306   5.158   1.062   0.205  0.4086 -1.6285 -1.5410
 4448TIP3   OH213307   1.134   1.028   5.617 -0.1645 -0.0933 -0.2237
 4448TIP3    H113308   1.085   0.953   5.584  0.8712 -0.6806 -0.4755
 4448TIP3    H213309   1.220   1.020   5.575  0.0918  1.0016  0.0689
 4449TIP3   OH213310   4.173   2.061   2.206 -0.4290 -0.4503  0.5574
 4449TIP3    H113311   4.124   2.140   2.183 -2.4128 -2.2713 -2.0697
 4449TIP3    H213312   4.115   2.010   2.262 -0.1946 -1.1610  0.1725
 4450TIP3   OH213313   3.415   4.718   3.379  0.3321  0.5559  0.3742
 4450TIP3    H113314   3.510   4.721   3.392  0.5637  1.1540 -1.2605
 4450TIP3    H213315   3.392   4.805   3.348 -0.4997 -0.0658 -0.8208
 4451TIP3   OH213316   7.068   3.055   5.570  0.2697  0.1333 -0.3066
 4451TIP3    H113317   7.012   3.129   5.593 -0.3583 -0.1228 -0.9677
 4451TIP3    H213318   7.135   3.093   5.513  0.6459  0.4024  0.3145
 4452TIP3   OH213319   3.319   1.780   2.975  0.1277  0.6950  0.2767
 4452TIP3    H113320   3.247   1.799   3.035  0.0541  0.5005  0.2505
 4452TIP3    H213321   3.369   1.711   3.019 -0.4871 -0.1725 -0.3226
 4453TIP3   OH213322   0.751   3.712   1.489 -0.0854  0.2041 -0.1600
 4453TIP3    H113323   0.690   3.729   1.561 -0.9999  1.6854 -1.2484
 4453TIP3    H213324   0.752   3.793   1.439  1.3606 -0.4429 -1.2374
 4454TIP3   OH213325   2.492   0.617   2.917  0.4107 -0.4546  0.0324
 4454TIP3    H113326   2.493   0.555   2.845 -0.1489  0.9246 -1.2179
 4454TIP3    H213327   2.400   0.628   2.939  0.5162 -0.2068  0.3686
 4455TIP3   OH213328   3.623   4.223   1.446 -0.3097 -0.1475  0.3350
 4455TIP3    H113329   3.534   4.219   1.481  0.2783  0.4275  1.9781
 4455TIP3    H213330   3.629   4.310   1.405 -0.3398  0.0283  0.7005
 4456TIP3   OH213331   0.138   1.604   5.582  0.6854  0.3271 -0.0100
 4456TIP3    H113332   0.144   1.580   5.675  2.1203  1.3891  0.1970
 4456TIP3    H213333   0.091   1.531   5.542  0.8705 -0.5999  1.3810
 4457TIP3   OH213334   6.673   2.170   2.650 -0.3514 -0.3521 -0.4498
 4457TIP3    H113335   6.604   2.236   2.656  0.4661  0.5777 -0.9027
 4457TIP3    H213336   6.663   2.133   2.562 -0.7717 -0.8097 -0.2175
 4458TIP3   OH213337   7.097   4.122   4.576 -0.2000 -0.4075 -0.2126
 4458TIP3    H113338   7.171   4.129   4.516 -0.1144 -3.1658 -0.5548
 4458TIP3    H213339   7.034   4.068   4.529 -1.1713 -0.5897  1.2437
 4459TIP3   OH213340   4.698   1.996   2.693  0.2677  0.1362 -0.0658
 4459TIP3    H113341   4.604   1.998   2.674 -0.0632 -1.6509  1.1017
 4459TIP3    H213342   4.730   1.919   2.646  0.7239 -0.4419  1.1458
 4460TIP3   OH213343   5.639   0.272   3.191  0.4787  0.6869 -0.3964
 4460TIP3    H113344   5.691   0.200   3.155  2.1005 -0.2201  3.2850
 4460TIP3    H213345   5.548   0.246   3.177  0.8748 -3.4887  2.7941
 4461TIP3   OH213346   5.429   3.328   5.254 -0.0661  1.0184  0.1621
 4461TIP3    H113347   5.453   3.314   5.163 -0.5225 -1.5275  0.3612
 4461TIP3    H213348   5.513   3.332   5.300  0.1367  0.3626 -0.1405
 4462TIP3   OH213349   2.113   1.800   3.479 -0.3033  0.2986 -0.0564
 4462TIP3    H113350   2.061   1.724   3.451  2.3872 -1.4729 -0.5759
 4462TIP3    H213351   2.111   1.796   3.575  0.2433 -0.7948 -0.0741
 4463TIP3   OH213352   1.026   1.562   0.644  0.3591  0.4535 -0.0506
 4463TIP3    H113353   1.121   1.550   0.650  0.4361  0.5866 -0.8955
 4463TIP3    H213354   1.014   1.657   0.643  0.5499  0.6082 -3.7845
 4464TIP3   OH213355   6.288   5.663   1.111  0.8290 -0.9052 -0.7506
 4464TIP3    H113356   6.335   5.583   1.136  0.4138 -0.7667  0.5339
 4464TIP3    H213357   6.204   5.632   1.079 -0.1889 -0.9439  1.7298
 4465TIP3   OH213358   3.404   0.192   4.339  0.3657  0.2399 -0.1905
 4465TIP3    H113359   3.391   0.282   4.311 -0.3594 -0.2464 -1.4819
 4465TIP3    H213360   3.455   0.199   4.420  2.4969  1.6925 -1.5591
 4466TIP3   OH213361   2.274   1.466   0.870  0.7133 -0.3647 -0.3338
 4466TIP3    H113362   2.260   1.381   0.912  0.2449 -0.0796  0.0969
 4466TIP3    H213363   2.269   1.529   0.942 -0.6080  0.1778 -0.8726
 4467TIP3   OH213364   1.297   0.576   1.315  0.0059  0.1957  0.3922
 4467TIP3    H113365   1.298   0.598   1.408 -1.2601 -0.2530  0.5232
 4467TIP3    H213366   1.239   0.641   1.276 -2.1413 -1.5826  0.4667
 4468TIP3   OH213367   5.584   0.965   0.068 -0.0313  0.4370  0.6409
 4468TIP3    H113368   5.498   0.991   0.035  0.8537  0.1437 -2.1458
 4468TIP3    H213369   5.633   1.048   0.075  0.8980  0.3042 -2.5147
 4469TIP3   OH213370   5.809   5.976   5.904  0.0125 -0.2487 -0.0289
 4469TIP3    H113371   5.805   5.931   5.819  0.2021 -0.6966  0.1937
 4469TIP3    H213372   5.780   6.065   5.885  0.4976 -0.2146 -0.6519
 4470TIP3   OH213373   2.185   4.528   1.677  0.6458  0.2619 -0.3342
 4470TIP3    H113374   2.151   4.593   1.738  1.3535 -0.0909  0.4616
 4470TIP3    H213375   2.270   4.504   1.713  0.1225 -1.5812 -0.2334
 4471TIP3   OH213376   2.400   4.760   1.770  0.1514 -0.0337  0.4369
 4471TIP3    H113377   2.333   4.794   1.711 -0.8228 -1.3891  0.6847
 4471TIP3    H213378   2.482   4.796   1.738 -0.6282  1.1956 -0.2483
 4472TIP3   OH213379   2.798   2.138   2.758 -0.1015 -0.0821 -0.4398
 4472TIP3    H113380   2.744   2.064   2.788  1.5210 -0.8285  0.8020
 4472TIP3    H213381   2.849   2.102   2.685  0.0400  0.0863 -0.4240
 4473TIP3   OH213382   1.895   1.096   3.941 -0.2334  0.3648  0.0266
 4473TIP3    H113383   1.832   1.085   3.870  0.7179  0.3844 -0.8349
 4473TIP3    H213384   1.960   1.027   3.927  0.5165  1.0053  0.2761
 4474TIP3   OH213385   0.035   6.151   5.258  0.3219  0.1073  0.3471
 4474TIP3    H113386  -0.007   6.223   5.211  0.5536  0.6171  0.8958
 4474TIP3    H213387   0.093   6.195   5.321 -0.8453 -0.5153  1.9023
 4475TIP3   OH213388   5.270   4.131   1.925 -0.4433 -0.4953  0.0955
 4475TIP3    H113389   5.257   4.184   1.846  1.4054  2.6659  1.6894
 4475TIP3    H213390   5.186   4.133   1.970 -0.5481  0.8606 -0.1108
 4476TIP3   OH213391   3.335   5.710   1.727  0.1022  0.0146 -0.4232
 4476TIP3    H113392   3.250   5.683   1.692  0.4474  0.9571 -2.0886
 4476TIP3    H213393   3.313   5.766   1.802 -0.7259 -0.2711 -0.4459
 4477TIP3   OH213394   5.488   1.597   2.473 -0.2367  0.0773  0.4487
 4477TIP3    H113395   5.457   1.681   2.505 -0.0223  1.6378 -2.9961
 4477TIP3    H213396   5.447   1.587   2.387  0.2330 -3.0894  0.4495
 4478TIP3   OH213397   2.304   3.073   2.219 -0.1594  0.0292 -0.7352
 4478TIP3    H113398   2.280   3.145   2.161  1.8878  1.8165  0.5158
 4478TIP3    H213399   2.257   3.091   2.300  0.0030 -0.3006 -0.5664
 4479TIP3   OH213400   4.842   3.761   0.573 -0.0917 -0.3778 -0.2990
 4479TIP3    H113401   4.930   3.761   0.537 -0.4687 -1.1905 -1.2743
 4479TIP3    H213402   4.854   3.780   0.666  0.8691  2.3932 -0.8920
 4480TIP3   OH213403   1.742   5.058   3.641 -0.1898 -0.4508 -0.5783
 4480TIP3    H113404   1.714   5.012   3.562 -2.4036 -1.7702  0.8639
 4480TIP3    H213405   1.665   5.109   3.668  0.7848  0.6183  0.2937
 4481TIP3   OH213406   4.754   4.065   0.338 -0.0397 -0.2067  0.2747
 4481TIP3    H113407   4.720   4.154   0.326  0.7555  0.0528 -0.1752
 4481TIP3    H213408   4.812   4.052   0.263  1.9646 -0.0783  1.6996
 4482TIP3   OH213409   0.945   0.245   0.407  0.0533  0.1116  0.2367
 4482TIP3    H113410   0.922   0.211   0.493  2.1157 -1.9813  0.0421
 4482TIP3    H213411   0.873   0.216   0.350 -0.8751  0.7479  1.0530
 4483TIP3   OH213412   3.258   0.777   5.518 -0.0798  0.1662 -0.0413
 4483TIP3    H113413   3.305   0.743   5.442 -0.9592 -1.4191  0.0705
 4483TIP3    H213414   3.167   0.749   5.505 -0.2677 -0.0630  1.5304
 4484TIP3   OH213415   1.806   3.777   0.567  0.0367 -0.0606 -0.5355
 4484TIP3    H113416   1.762   3.730   0.496 -0.2880 -0.3194 -0.1678
 4484TIP3    H213417   1.755   3.755   0.645  0.3613  0.2625 -0.2307
 4485TIP3   OH213418   1.461   4.184   0.009  0.5921 -0.2559 -0.0166
 4485TIP3    H113419   1.452   4.092   0.034  1.7793 -0.5499 -0.5781
 4485TIP3    H213420   1.541   4.213   0.053  0.0923  0.5866  0.3572
 4486TIP3   OH213421   2.955   3.074   0.074 -0.2123 -0.1903  0.2671
 4486TIP3    H113422   3.029   3.013   0.084  0.2230 -0.0127 -1.5777
 4486TIP3    H213423   2.928   3.093   0.164  1.1511 -1.2750  0.9492
 4487TIP3   OH213424   5.823   2.642   0.732  0.0015 -0.4611  0.2158
 4487TIP3    H113425   5.853   2.570   0.788  1.7954  0.6121  0.7191
 4487TIP3    H213426   5.739   2.668   0.771  0.2757 -1.0066  1.2276
 4488TIP3   OH213427   1.435   5.569   5.380 -0.2296 -0.3065 -0.2082
 4488TIP3    H113428   1.455   5.643   5.438 -2.4893 -0.2302  0.5732
 4488TIP3    H213429   1.462   5.598   5.293 -0.3328  1.1172  0.2084
 4489TIP3   OH213430   5.729   3.627   4.782  0.4382 -0.2912 -0.1072
 4489TIP3    H113431   5.823   3.643   4.769  0.0194  1.6317 -1.1710
 4489TIP3    H213432   5.702   3.579   4.703  0.5121 -0.8259  0.1891
 4490TIP3   OH213433   3.610   4.140   4.528  0.2203 -0.1347 -0.1473
 4490TIP3    H113434   3.525   4.184   4.518  0.3423  0.2974  0.6189
 4490TIP3    H213435   3.621   4.131   4.623  0.5775 -1.0956 -0.2758
 4491TIP3   OH213436   5.457   5.250   4.083  0.1401 -0.8686 -0.5807
 4491TIP3    H113437   5.493   5.325   4.130 -0.0971 -0.0235 -1.6873
 4491TIP3    H213438   5.515   5.239   4.007 -2.8043  1.8153 -3.5589
 4492TIP3   OH213439   0.668   0.409   5.054  0.0078  0.4755  0.4893
 4492TIP3    H113440   0.671   0.505   5.059 -1.3615  0.5177  1.0323
 4492TIP3    H213441   0.686   0.380   5.144 -2.2518  0.3647  0.9761
 4493TIP3   OH213442   7.182   4.964   0.991 -0.2309  0.0334  0.7010
 4493TIP3    H113443   7.186   4.901   1.063 -3.0848 -1.0692 -0.0049
 4493TIP3    H213444   7.255   4.939   0.934  0.0081 -1.2218  1.5112
 4494TIP3   OH213445   0.418   4.992   2.184 -0.3166 -0.3754  0.0377
 4494TIP3    H113446   0.472   4.922   2.222  0.9976  1.0857  1.0035
 4494TIP3    H213447   0.389   5.044   2.259 -0.3740  0.7248 -0.7089
 4495TIP3   OH213448   2.493   0.523   4.421  0.0911 -0.7735 -0.5240
 4495TIP3    H113449   2.422   0.462   4.438  0.2362 -0.9740 -0.6279
 4495TIP3    H213450   2.565   0.468   4.390 -0.5601 -0.3227 -3.0761
 4496TIP3   OH213451   2.659   4.097   4.862  0.6538  0.3779  0.0279
 4496TIP3    H113452   2.616   4.023   4.905  0.3833  0.6367  0.2064
 4496TIP3    H213453   2.601   4.171   4.878 -0.4250  0.1524 -2.3424
 4497TIP3   OH213454   1.297   1.872   2.831 -0.1095 -0.0218 -0.0350
 4497TIP3    H113455   1.280   1.882   2.924  1.6649  0.7844  0.2521
 4497TIP3    H213456   1.334   1.784   2.822 -3.4694 -1.5542 -0.5811
 4498TIP3   OH213457   0.792   5.947   0.925 -0.0613 -0.7994  0.2664
 4498TIP3    H113458   0.854   5.882   0.958  0.5502 -0.9610 -1.1242
 4498TIP3    H213459   0.725   5.896   0.879 -1.6101 -0.6702  2.2400
 4499TIP3   OH213460   6.595   0.924   5.636 -0.0972 -0.7286  0.2500
 4499TIP3    H113461   6.619   0.896   5.548  1.5395 -2.9440  1.2864
 4499TIP3    H213462   6.615   0.848   5.691  1.2236  1.3488  2.8544
 4500TIP3   OH213463   2.361   0.454   4.751  0.1817  0.4124 -0.2006
 4500TIP3    H113464   2.445   0.494   4.773 -0.2554  1.5011 -0.4500
 4500TIP3    H213465   2.375   0.360   4.764  1.0243  0.6924  1.0911
 4501TIP3   OH213466   4.041   2.911   2.593 -0.6224 -0.5602 -0.2680
 4501TIP3    H113467   4.003   2.824   2.587 -0.6265 -0.5018 -1.2680
 4501TIP3    H213468   4.135   2.896   2.603 -0.6618 -0.6800 -0.0732
 4502TIP3   OH213469   2.565   5.377   4.104 -0.1781  0.2211  0.0286
 4502TIP3    H113470   2.649   5.411   4.135  0.5613 -0.5918 -1.0364
 4502TIP3    H213471   2.519   5.351   4.184  1.4638 -1.3691  0.5163
 4503TIP3   OH213472   2.150   3.264   1.430 -0.2347 -0.1238  0.0107
 4503TIP3    H113473   2.063   3.279   1.395 -1.1137 -0.4901  1.9101
 4503TIP3    H213474   2.186   3.194   1.376 -2.2758 -2.0037  0.9126
 4504TIP3   OH213475   5.358   3.428   4.545 -0.3216 -0.3891 -0.0055
 4504TIP3    H113476   5.445   3.461   4.527 -0.0424 -0.5677  0.9692
 4504TIP3    H213477   5.305   3.458   4.471  0.3752  0.4379 -0.1785
 4505TIP3   OH213478   3.008   1.711   2.071  0.0780  0.0480  0.0542
 4505TIP3    H113479   3.099   1.680   2.064 -0.1591 -0.9962  1.1677
 4505TIP3    H213480   2.964   1.674   1.994  0.4988  0.2097 -0.2665
 4506TIP3   OH213481   6.958   1.572   1.044  0.1320 -0.3998  0.5538
 4506TIP3    H113482   6.887   1.627   1.075  0.0413 -0.1683 -0.0594
 4506TIP3    H213483   7.037   1.610   1.082 -0.0218 -0.3880  0.8636
 4507TIP3   OH213484   4.520   6.398   3.617  0.2504 -0.4010  0.4343
 4507TIP3    H113485   4.466   6.378   3.694  0.8308  0.4482  1.0804
 4507TIP3    H213486   4.552   6.487   3.633  1.0062 -0.5106 -0.4268
 4508TIP3   OH213487   0.329   4.928   0.534 -0.3933 -0.2175 -0.1156
 4508TIP3    H113488   0.405   4.918   0.476  1.6215 -1.1349  2.4404
 4508TIP3    H213489   0.340   4.858   0.600 -0.8468  2.4230  3.0380
 4509TIP3   OH213490   0.933   6.444   1.511 -0.4821 -0.6600 -0.0600
 4509TIP3    H113491   1.025   6.470   1.521 -0.4848  0.3477 -2.2340
 4509TIP3    H213492   0.890   6.522   1.477 -1.5079 -2.0006 -1.9917
 4510TIP3   OH213493   2.817   5.582   4.036 -0.6537  0.7316 -0.1271
 4510TIP3    H113494   2.818   5.626   4.121 -2.7950 -0.7529  0.7688
 4510TIP3    H213495   2.845   5.493   4.054 -2.5382 -0.0135 -0.6651
 4511TIP3   OH213496   2.617   6.486   2.545  0.0480 -0.2259  0.7878
 4511TIP3    H113497   2.701   6.441   2.554  0.7706  0.4512 -1.6700
 4511TIP3    H213498   2.553   6.417   2.530  0.0206 -0.7824  3.1392
 4512TIP3   OH213499   1.051   3.622   4.316  0.3725 -0.2190  0.1741
 4512TIP3    H113500   1.114   3.567   4.363 -1.2495 -0.5748  2.1307
 4512TIP3    H213501   0.984   3.560   4.286  0.2494  0.3057 -0.6631
 4513TIP3   OH213502   2.090   4.064   3.344  0.0208  0.1528  0.2729
 4513TIP3    H113503   2.152   3.996   3.320 -0.1964 -0.3834  1.2030
 4513TIP3    H213504   2.018   4.055   3.281 -1.5081 -2.5537  2.2123
 4514TIP3   OH213505   2.177   2.214   2.497  0.2150  0.1269  0.2854
 4514TIP3    H113506   2.203   2.130   2.534 -0.4600 -0.3260 -0.2326
 4514TIP3    H213507   2.218   2.216   2.410  0.4677  0.4606  0.4117
 4515TIP3   OH213508   3.167   0.259   3.198 -0.1197  0.2193  0.2509
 4515TIP3    H113509   3.094   0.313   3.168 -1.0184 -0.6840  0.7204
 4515TIP3    H213510   3.199   0.216   3.119  0.1155  0.8527 -0.0048
 4516TIP3   OH213511   1.083   0.079   0.152  0.1350  0.5031 -0.5050
 4516TIP3    H113512   1.053   0.169   0.144  1.1685  0.9351  0.2791
 4516TIP3    H213513   1.052   0.036   0.072 -0.3495  1.5573 -0.8940
 4517TIP3   OH213514   5.418   6.210   0.289  0.0242  0.0668  0.3342
 4517TIP3    H113515   5.351   6.232   0.225  0.3602 -0.1198 -0.0850
 4517TIP3    H213516   5.394   6.124   0.322 -1.0856  0.8369  1.7048
 4518TIP3   OH213517   6.947   2.748   2.486 -0.6411  0.1877  0.1248
 4518TIP3    H113518   6.924   2.741   2.394 -1.1309  0.0422  0.2563
 4518TIP3    H213519   6.923   2.837   2.511  0.8578  0.7348 -0.2501
 4519TIP3   OH213520   0.054   2.794   2.441  0.4739 -0.2716 -0.2889
 4519TIP3    H113521  -0.001   2.760   2.512  0.4686  0.3421  0.0062
 4519TIP3    H213522   0.132   2.739   2.442  0.1448 -0.7552 -0.3105
 4520TIP3   OH213523   2.174   0.752   0.645 -0.4094 -0.1952  0.4803
 4520TIP3    H113524   2.121   0.689   0.597 -0.0198  1.6694 -2.6016
 4520TIP3    H213525   2.261   0.711   0.649 -0.6563 -0.7442  0.4116
 4521TIP3   OH213526   2.913   3.160   3.955 -0.3308  0.3179  0.0093
 4521TIP3    H113527   2.884   3.227   4.016  0.0827  0.7989 -0.3128
 4521TIP3    H213528   2.953   3.093   4.010  0.6823  1.0777  0.2294
 4522TIP3   OH213529   3.152   2.926   2.190 -0.7915  0.0183 -0.1172
 4522TIP3    H113530   3.096   3.004   2.184 -1.1722 -0.2338  0.1133
 4522TIP3    H213531   3.175   2.907   2.099 -1.2288  0.0234 -0.2340
 4523TIP3   OH213532   2.423   1.831   5.794  0.1116 -0.4500  0.2813
 4523TIP3    H113533   2.512   1.812   5.765  0.4882  1.5257 -0.0029
 4523TIP3    H213534   2.368   1.808   5.719  0.8219  2.0219 -1.1148
 4524TIP3   OH213535   1.732   5.778   5.907  0.2559 -0.5556 -0.3350
 4524TIP3    H113536   1.723   5.748   5.817  1.0002 -2.2862  0.1299
 4524TIP3    H213537   1.826   5.793   5.919  0.2317 -0.8380  0.2859
 4525TIP3   OH213538   4.247   0.612   4.999  0.5760 -0.7195  0.6248
 4525TIP3    H113539   4.159   0.578   4.981  0.8301 -0.9307 -0.2701
 4525TIP3    H213540   4.236   0.707   4.998  0.1138 -0.7332  1.8495
 4526TIP3   OH213541   2.633   3.613   4.596  0.7292  0.0652 -0.1001
 4526TIP3    H113542   2.585   3.540   4.635  0.5476 -0.1176 -0.6587
 4526TIP3    H213543   2.724   3.599   4.623  0.5570  0.1182  0.5185
 4527TIP3   OH213544   6.943   4.643   1.592  0.1537  0.8756  0.0970
 4527TIP3    H113545   6.932   4.564   1.645  0.3809 -0.3154 -1.5447
 4527TIP3    H213546   6.927   4.614   1.502 -0.8037  2.9482 -0.4520
 4528TIP3   OH213547   0.815   2.027   5.089  0.0801  0.5353 -0.2375
 4528TIP3    H113548   0.820   1.976   5.008 -0.8305  0.9125 -0.5419
 4528TIP3    H213549   0.725   2.013   5.121  1.1266 -1.6522  2.0641
 4529TIP3   OH213550   1.773   6.638   2.360  0.2425  0.2324 -0.0600
 4529TIP3    H113551   1.733   6.700   2.299 -1.7299 -1.3362 -0.4746
 4529TIP3    H213552   1.792   6.690   2.438 -1.5250  1.3424 -0.3104
 4530TIP3   OH213553   7.161   6.654   1.110 -0.2480  0.6344 -0.1002
 4530TIP3    H113554   7.227   6.722   1.122  0.2867  0.6182 -2.4824
 4530TIP3    H213555   7.142   6.622   1.198  1.4905  1.9873  0.8016
 4531TIP3   OH213556   4.662   5.815   0.499 -0.6892  0.6156  0.0669
 4531TIP3    H113557   4.730   5.752   0.476 -1.2311  0.0592 -0.0224
 4531TIP3    H213558   4.674   5.887   0.437 -2.0082 -0.7731 -1.8747
 4532TIP3   OH213559   3.696   6.041   3.261  0.5101  0.2448  0.3535
 4532TIP3    H113560   3.618   6.055   3.208  0.4125 -0.6998  0.2177
 4532TIP3    H213561   3.667   6.051   3.351  0.3996  0.6492  0.2710
 4533TIP3   OH213562   0.254   1.782   3.599  0.3827  0.7590 -0.4718
 4533TIP3    H113563   0.293   1.695   3.596 -0.8238  0.0786  1.6390
 4533TIP3    H213564   0.328   1.840   3.616  1.0756  0.0318 -0.9463
 4534TIP3   OH213565   3.539   4.428   2.665 -0.2615  0.2135  0.4293
 4534TIP3    H113566   3.620   4.458   2.705 -0.8413 -0.5700  2.2784
 4534TIP3    H213567   3.504   4.363   2.726 -1.3217 -0.8758 -1.2492
 4535TIP3   OH213568   6.242   4.460   1.132  0.1067 -0.0635 -0.2494
 4535TIP3    H113569   6.151   4.490   1.132  0.1501  0.0713 -0.6944
 4535TIP3    H213570   6.236   4.365   1.127 -0.0297 -0.1446  1.0504
 4536TIP3   OH213571   3.679   4.442   5.004  1.0265  0.4369  0.0845
 4536TIP3    H113572   3.589   4.468   5.023  1.1299  0.2166  0.9644
 4536TIP3    H213573   3.722   4.443   5.090  1.1120 -2.2787  0.1718
 4537TIP3   OH213574   7.053   2.160   0.838 -0.1549 -0.2014 -0.4303
 4537TIP3    H113575   7.047   2.099   0.912 -1.3332  0.6437  0.1986
 4537TIP3    H213576   6.986   2.130   0.776 -0.9481  0.5932  0.0143
 4538TIP3   OH213577   0.731   6.598   2.417  0.0041 -0.5201  0.2230
 4538TIP3    H113578   0.684   6.629   2.494 -0.2010  1.1019 -0.5092
 4538TIP3    H213579   0.813   6.562   2.450  0.6119  1.5726  1.0889
 4539TIP3   OH213580   1.670   2.313   1.891 -0.2878  0.3111 -0.4717
 4539TIP3    H113581   1.734   2.317   1.820 -0.9495 -1.1369 -1.1842
 4539TIP3    H213582   1.722   2.285   1.967 -0.1137 -1.4820 -1.1839
 4540TIP3   OH213583   6.653   1.039   2.135 -0.0514  0.3711 -0.4677
 4540TIP3    H113584   6.679   0.980   2.064 -1.5965 -0.8922 -0.0519
 4540TIP3    H213585   6.714   1.112   2.130  1.8442 -1.1931 -1.1212
 4541TIP3   OH213586   0.914   1.416   4.896 -0.3708  0.2572  0.4113
 4541TIP3    H113587   0.908   1.493   4.952 -0.6776 -0.3014  1.1617
 4541TIP3    H213588   0.912   1.451   4.807 -0.3951  1.1202  0.7428
 4542TIP3   OH213589   3.504   0.929   2.735  0.4758 -0.0630  0.0179
 4542TIP3    H113590   3.533   0.888   2.654  1.2699  2.3064 -0.9970
 4542TIP3    H213591   3.408   0.932   2.728  0.5915  2.1510 -2.0128
 4543TIP3   OH213592   3.970   1.265   5.881  0.1847  0.4279 -0.0615
 4543TIP3    H113593   3.892   1.296   5.926  0.5485  0.2008  0.7495
 4543TIP3    H213594   3.938   1.218   5.804 -0.5637 -1.2628  1.2359
 4544TIP3   OH213595   0.159   2.841   3.036 -0.5265  0.1582  0.2975
 4544TIP3    H113596   0.218   2.776   2.997 -1.6986 -0.2713 -0.8128
 4544TIP3    H213597   0.076   2.828   2.991 -0.8307  2.3613  0.1420
 4545TIP3   OH213598   6.907   0.796   3.714  0.5243 -0.1510  1.0290
 4545TIP3    H113599   6.953   0.747   3.646  0.4444  0.8741  0.1998
 4545TIP3    H213600   6.824   0.751   3.725  1.1740 -1.2497  1.5982
 4546TIP3   OH213601   2.370   5.125   5.544 -0.1592  0.1648  0.6801
 4546TIP3    H113602   2.284   5.084   5.548 -0.9754  1.8372  1.4847
 4546TIP3    H213603   2.385   5.157   5.633  1.5044 -0.4815  0.6585
 4547TIP3   OH213604   7.229   3.758   4.796  0.5848  0.7331  0.0217
 4547TIP3    H113605   7.206   3.849   4.811 -0.1143  0.5966 -0.2177
 4547TIP3    H213606   7.158   3.708   4.835  0.4926  0.3101 -0.6822
 4548TIP3   OH213607   1.769   6.444   1.816  0.2896 -0.2176  0.3019
 4548TIP3    H113608   1.826   6.383   1.863  0.8892  0.2119  0.1394
 4548TIP3    H213609   1.793   6.530   1.850 -0.7696 -0.0802  0.7625
 4549TIP3   OH213610   6.715   6.671   0.963 -0.7909  0.0835 -0.2198
 4549TIP3    H113611   6.734   6.620   1.042  1.1143  1.5696  0.3596
 4549TIP3    H213612   6.659   6.742   0.992  0.9317  1.3647  0.1305
 4550TIP3   OH213613   3.506   5.799   0.419 -0.5784 -0.3174  0.2524
 4550TIP3    H113614   3.414   5.819   0.401 -0.4610 -1.2290 -1.5825
 4550TIP3    H213615   3.548   5.885   0.423 -1.3242  0.0734 -0.0134
 4551TIP3   OH213616   1.049   5.187   3.824 -0.3797 -0.0637 -0.2639
 4551TIP3    H113617   1.031   5.232   3.906  0.0260 -0.6584  0.1557
 4551TIP3    H213618   0.972   5.205   3.770 -0.2095  1.1695 -0.1365
 4552TIP3   OH213619   0.617   0.506   0.345 -0.2094 -0.3815  0.1997
 4552TIP3    H113620   0.567   0.428   0.369 -0.3745 -0.1261  0.6950
 4552TIP3    H213621   0.689   0.509   0.407  0.1247 -0.4492 -0.1785
 4553TIP3   OH213622   6.700   1.782   2.650 -0.0217  0.8077  0.0875
 4553TIP3    H113623   6.778   1.838   2.645  0.0671  0.6577 -0.2060
 4553TIP3    H213624   6.627   1.842   2.640 -0.0032  1.1335  1.6025
 4554TIP3   OH213625   3.518   6.276   3.089 -0.3078 -0.3572  0.1454
 4554TIP3    H113626   3.551   6.360   3.120 -2.3001  0.2079  0.9265
 4554TIP3    H213627   3.432   6.268   3.131  0.1991 -3.2126  0.8114
 4555TIP3   OH213628   0.325   1.728   4.917  0.5905 -0.1036 -0.2209
 4555TIP3    H113629   0.265   1.796   4.888  0.5875 -0.1315 -0.2799
 4555TIP3    H213630   0.377   1.770   4.986 -0.2871 -0.4193  0.6662
 4556TIP3   OH213631   0.053   1.836   3.796  0.0912 -0.5950  0.2892
 4556TIP3    H113632  -0.003   1.899   3.751  0.3641 -0.4499  0.1458
 4556TIP3    H213633   0.125   1.821   3.735 -0.4673 -1.8093 -0.1045
 4557TIP3   OH213634   2.454   0.029   0.735  0.5109  0.0674  0.5202
 4557TIP3    H113635   2.414   0.100   0.784 -1.7393 -1.1568  0.5835
 4557TIP3    H213636   2.430   0.046   0.644  0.5057 -0.2644  0.4565
 4558TIP3   OH213637   0.555   1.138   1.231 -0.5437 -0.3943 -0.4058
 4558TIP3    H113638   0.608   1.070   1.191 -2.3398 -1.7049 -0.6746
 4558TIP3    H213639   0.573   1.131   1.325 -0.3941 -0.9551 -0.4738
 4559TIP3   OH213640   4.740   4.165   3.053  0.3055  0.1297  0.5395
 4559TIP3    H113641   4.659   4.216   3.047 -0.0178 -0.3522  0.7608
 4559TIP3    H213642   4.717   4.080   3.016  0.7028 -0.0205  0.6419
 4560TIP3   OH213643   2.549   5.579   2.566 -0.5147 -0.1074  0.2207
 4560TIP3    H113644   2.479   5.633   2.603 -0.9388  0.0035 -0.7300
 4560TIP3    H213645   2.628   5.632   2.575 -0.6489  0.0144  0.7381
 4561TIP3   OH213646   3.939   5.438   4.825 -0.2457  1.0417 -0.0881
 4561TIP3    H113647   3.969   5.348   4.842  0.6308  1.0819 -1.2908
 4561TIP3    H213648   3.909   5.470   4.910  1.0521  0.1997  0.7155
 4562TIP3   OH213649   3.927   3.624   1.094 -0.4972 -0.0521 -0.1702
 4562TIP3    H113650   4.003   3.604   1.040  0.6109  0.1070  1.2500
 4562TIP3    H213651   3.963   3.634   1.182 -2.1256  0.3927  0.4798
 4563TIP3   OH213652   5.433   0.703   0.791 -0.1568 -0.5737 -0.5399
 4563TIP3    H113653   5.407   0.708   0.699  0.1072 -1.0566 -0.6436
 4563TIP3    H213654   5.360   0.659   0.835  0.8557 -2.8514 -1.0043
 4564TIP3   OH213655   0.711   1.875   3.998  0.6465 -0.6087 -0.5078
 4564TIP3    H113656   0.700   1.859   4.092  0.0184  2.4861  0.0579
 4564TIP3    H213657   0.805   1.889   3.988  0.5099  0.9096  0.0707
 4565TIP3   OH213658   6.141   3.015   0.716 -0.3461  0.6007  0.3522
 4565TIP3    H113659   6.082   2.944   0.691  0.3968  0.1530 -0.1656
 4565TIP3    H213660   6.097   3.057   0.790 -1.5609  0.6172 -0.3472
 4566TIP3   OH213661   0.859   3.509   2.612 -0.4577 -0.5638 -0.2019
 4566TIP3    H113662   0.890   3.419   2.615 -0.1302 -0.4182  1.3686
 4566TIP3    H213663   0.829   3.528   2.701 -2.0616  0.3556 -0.8949
 4567TIP3   OH213664   1.837   0.676   2.041 -0.2817 -0.3197 -0.6643
 4567TIP3    H113665   1.741   0.676   2.038 -0.3697  2.7903 -1.4228
 4567TIP3    H213666   1.858   0.691   2.134 -0.4829 -1.6254 -0.3964
 4568TIP3   OH213667   4.782   2.674   5.436 -0.0342 -0.4306  0.2984
 4568TIP3    H113668   4.724   2.674   5.512 -0.2569 -1.0382  0.1425
 4568TIP3    H213669   4.870   2.676   5.472 -0.1480  0.9275  0.5331
 4569TIP3   OH213670   3.347   5.987   1.857  0.0164 -0.4418 -0.1332
 4569TIP3    H113671   3.304   6.022   1.779 -0.0341 -1.2817 -0.4916
 4569TIP3    H213672   3.318   6.044   1.928  0.1833  0.4280 -0.7516
 4570TIP3   OH213673   5.074   3.160   5.196 -0.1468  0.2660 -0.7936
 4570TIP3    H113674   5.107   3.246   5.170  1.7076 -0.8134 -2.2610
 4570TIP3    H213675   5.130   3.098   5.149  0.3620 -1.8173  2.2649
 4571TIP3   OH213676   1.544   0.626   2.423  0.0455  0.0774  0.1243
 4571TIP3    H113677   1.477   0.639   2.490 -1.6305 -1.7376 -1.0933
 4571TIP3    H213678   1.556   0.531   2.419  1.5200  0.2651 -0.8361
 4572TIP3   OH213679   2.300   0.901   3.989 -0.0154 -0.0329 -0.1144
 4572TIP3    H113680   2.353   0.862   4.058  0.2104 -0.3680 -0.4752
 4572TIP3    H213681   2.211   0.871   4.007  0.0739 -0.2767 -0.0790
 4573TIP3   OH213682   0.914   0.457   0.216 -0.2201 -0.0501  0.1874
 4573TIP3    H113683   0.939   0.399   0.289  0.4141 -0.6335 -0.4682
 4573TIP3    H213684   0.863   0.401   0.158 -1.9931  0.7980  0.8654
 4574TIP3   OH213685   0.540   5.840   5.726 -0.1010  0.3805 -0.2413
 4574TIP3    H113686   0.488   5.780   5.672  0.1714 -0.3710  0.3233
 4574TIP3    H213687   0.629   5.829   5.694 -0.2103  1.3472 -0.9122
 4575TIP3   OH213688   0.146   3.372   1.955  0.1921  0.2472 -0.4450
 4575TIP3    H113689   0.189   3.429   1.892  0.8715  0.6912  0.3917
 4575TIP3    H213690   0.078   3.426   1.995  0.2897  0.2192 -0.2363
 4576TIP3   OH213691   3.210   5.304   4.227  0.3037 -0.2207 -1.2857
 4576TIP3    H113692   3.305   5.306   4.239  0.1726 -1.6905  0.3224
 4576TIP3    H213693   3.188   5.212   4.219 -1.0710  0.0309 -0.7566
 4577TIP3   OH213694   0.516   5.843   0.803  0.0295 -0.6863  0.4299
 4577TIP3    H113695   0.460   5.822   0.729 -2.1185 -0.3078  1.8537
 4577TIP3    H213696   0.508   5.938   0.813  0.8893 -0.6348  0.7115
 4578TIP3   OH213697   2.718   2.663   1.259  0.2398 -0.0224  0.3418
 4578TIP3    H113698   2.642   2.610   1.281  0.7055 -1.6379 -1.6129
 4578TIP3    H213699   2.687   2.725   1.193  0.0940  1.0434  1.3715
 4579TIP3   OH213700   4.262   3.851   3.741  0.1813 -0.6334 -0.0905
 4579TIP3    H113701   4.328   3.907   3.781 -0.2192 -0.7505  0.7746
 4579TIP3    H213702   4.182   3.870   3.790  0.1709 -2.4086  0.6737
 4580TIP3   OH213703   5.315   4.196   3.593  0.3077 -0.1430  0.0650
 4580TIP3    H113704   5.258   4.212   3.517  0.3863  1.2817  0.2779
 4580TIP3    H213705   5.325   4.101   3.596 -0.3465 -0.2740 -1.2344
 4581TIP3   OH213706   7.029   2.758   4.799 -0.6691  0.2076  0.1886
 4581TIP3    H113707   7.003   2.850   4.792 -0.3124  0.1586 -3.4395
 4581TIP3    H213708   6.955   2.709   4.764  0.6209 -0.5670 -1.5986
 4582TIP3   OH213709   6.533   5.762   1.493  0.4256  0.0931 -0.1383
 4582TIP3    H113710   6.607   5.713   1.456  0.2708  0.6398 -1.2227
 4582TIP3    H213711   6.490   5.701   1.552 -0.2248 -1.3739 -2.0481
 4583TIP3   OH213712   7.119   3.179   2.653  0.2749 -0.5419 -0.6146
 4583TIP3    H113713   7.194   3.235   2.631  0.4943 -0.4167  0.3989
 4583TIP3    H213714   7.150   3.125   2.725 -1.3317  1.2307  1.5610
 4584TIP3   OH213715   4.976   2.941   1.376  0.4015 -0.2936 -0.3357
 4584TIP3    H113716   4.917   2.881   1.331 -0.0163 -0.0347 -0.1432
 4584TIP3    H213717   5.024   2.985   1.306  0.3785 -0.5180 -0.4943
 4585TIP3   OH213718   6.560   2.210   4.741 -0.2414  0.0590 -0.0558
 4585TIP3    H113719   6.573   2.120   4.770 -0.6069 -0.9631 -2.7122
 4585TIP3    H213720   6.648   2.243   4.723 -0.0586  0.5058  1.5473
 4586TIP3   OH213721   0.585   0.267   5.723  0.2197 -0.3317  0.0256
 4586TIP3    H113722   0.493   0.271   5.752 -0.1620 -0.3450 -1.1248
 4586TIP3    H213723   0.634   0.308   5.793 -0.7056 -0.0743  0.5432
 4587TIP3   OH213724   1.604   0.122   5.382  0.3869 -0.3378 -0.1993
 4587TIP3    H113725   1.636   0.175   5.309 -1.3311  1.9984  0.6037
 4587TIP3    H213726   1.540   0.178   5.426 -2.0405 -3.3190  0.4269
 4588TIP3   OH213727   6.153   2.025   0.453  0.6193 -0.0462 -0.3017
 4588TIP3    H113728   6.116   2.034   0.366 -0.2614 -1.7372 -0.1212
 4588TIP3    H213729   6.083   2.054   0.512  0.3715 -1.1210 -0.0603
 4589TIP3   OH213730   4.002   4.733   2.891 -0.8249 -0.8498 -0.9443
 4589TIP3    H113731   3.988   4.686   2.973 -2.3520 -0.5957 -1.0291
 4589TIP3    H213732   3.918   4.777   2.875  0.5936  2.2536 -0.6350
 4590TIP3   OH213733   4.294   1.051   3.142 -1.3152  0.2921 -0.0355
 4590TIP3    H113734   4.221   1.103   3.173 -0.5275  0.6945  1.2280
 4590TIP3    H213735   4.355   1.047   3.217  0.0987  0.2396 -1.1370
 4591TIP3   OH213736   3.198   2.091   4.708  0.1522 -0.5106 -0.2862
 4591TIP3    H113737   3.211   1.997   4.719 -0.2871 -0.7591 -1.6504
 4591TIP3    H213738   3.224   2.108   4.617  1.8409  1.0043  0.4265
 4592TIP3   OH213739   6.363   4.515   0.624 -0.1883  0.2334 -0.5235
 4592TIP3    H113740   6.394   4.568   0.550 -0.3556  1.1232  0.0260
 4592TIP3    H213741   6.324   4.579   0.684  1.3673 -0.2562  1.0820
 4593TIP3   OH213742   0.529   5.369   2.093  0.0764  0.4083 -0.4297
 4593TIP3    H113743   0.611   5.360   2.142 -0.5443 -0.8658  0.4534
 4593TIP3    H213744   0.461   5.353   2.158 -0.9158  1.9854 -1.0379
 4594TIP3   OH213745   1.289   6.037   0.150 -0.0782 -0.0084  0.8741
 4594TIP3    H113746   1.313   6.121   0.190  2.2262  0.2969 -0.9566
 4594TIP3    H213747   1.297   5.974   0.222 -0.2729  1.0850  1.8971
 4595TIP3   OH213748   2.603   5.003   1.872 -0.1296 -0.1351 -0.0079
 4595TIP3    H113749   2.590   4.969   1.784 -1.0304 -0.4355  0.2293
 4595TIP3    H213750   2.693   5.036   1.872  0.0113 -0.4887 -0.9150
 4596TIP3   OH213751   7.029   5.017   2.979  0.0264 -0.2506 -0.1355
 4596TIP3    H113752   7.050   4.988   3.067  1.9336  0.8224 -0.1786
 4596TIP3    H213753   7.087   5.091   2.963 -2.5832  1.7638 -1.0828
 4597TIP3   OH213754   3.242   3.938   2.683 -0.5544 -0.3137  0.2141
 4597TIP3    H113755   3.268   3.846   2.691 -1.7559 -1.0376 -2.6756
 4597TIP3    H213756   3.297   3.984   2.745  1.4825 -2.7526  0.3950
 4598TIP3   OH213757   1.224   2.277   3.851 -0.3645 -0.0891  0.2663
 4598TIP3    H113758   1.247   2.235   3.934  0.0664  0.3083  0.3518
 4598TIP3    H213759   1.295   2.254   3.792 -1.0550 -1.0264 -0.2352
 4599TIP3   OH213760   7.003   5.936   2.873  0.3491  0.8141 -0.0408
 4599TIP3    H113761   7.069   5.900   2.933  0.1294 -1.0648 -0.8586
 4599TIP3    H213762   7.044   5.932   2.787  0.5174  3.1382 -0.1248
 4600TIP3   OH213763   5.432   4.541   1.806  0.5498  0.2119  0.5508
 4600TIP3    H113764   5.391   4.517   1.723 -2.6585  2.1524  1.3857
 4600TIP3    H213765   5.526   4.535   1.790  0.0483 -2.2022 -2.3005
 4601TIP3   OH213766   3.227   3.517   0.085 -0.7860 -0.1713 -0.6019
 4601TIP3    H113767   3.273   3.473   0.014 -1.3111 -0.1381 -0.9712
 4601TIP3    H213768   3.227   3.453   0.157 -1.2677 -0.6669 -1.0289
 4602TIP3   OH213769   2.694   5.316   5.239  0.1141  0.3807 -1.0430
 4602TIP3    H113770   2.664   5.241   5.290  0.8454 -0.0274 -1.2183
 4602TIP3    H213771   2.755   5.281   5.176  0.0739  1.0538 -1.4711
 4603TIP3   OH213772   1.034   1.863   5.841  0.2366  0.5867 -0.2289
 4603TIP3    H113773   1.118   1.819   5.828 -0.2130 -0.1308 -0.8036
 4603TIP3    H213774   0.974   1.818   5.782 -0.4293  1.4598 -0.2414
 4604TIP3   OH213775   6.111   3.959   2.636 -0.2236  0.0378  0.1348
 4604TIP3    H113776   6.189   3.985   2.686 -1.8162  1.6945  1.9229
 4604TIP3    H213777   6.076   4.042   2.603 -1.5854 -0.6143 -0.1094
 4605TIP3   OH213778   4.870   5.230   1.381  0.6362  0.8640  0.6129
 4605TIP3    H113779   4.776   5.237   1.367  0.4628 -0.6272  0.8515
 4605TIP3    H213780   4.908   5.239   1.293  0.1706  0.2011  0.3334
 4606TIP3   OH213781   4.231   5.800   3.334  0.7280 -0.3787 -0.0735
 4606TIP3    H113782   4.288   5.863   3.289 -0.7222 -0.0726 -1.5637
 4606TIP3    H213783   4.290   5.753   3.393  2.1316  1.3334 -0.0219
 4607TIP3   OH213784   4.627   3.904   0.076  0.0479  0.0536  0.3401
 4607TIP3    H113785   4.604   3.903  -0.017 -0.7513  0.9911  0.5000
 4607TIP3    H213786   4.707   3.956   0.080 -0.2879  0.5920  0.2357
 4608TIP3   OH213787   1.697   1.081   3.740  0.3027 -0.3097 -0.4325
 4608TIP3    H113788   1.642   1.070   3.662  0.0893  1.7693 -0.6305
 4608TIP3    H213789   1.635   1.078   3.813  0.2296 -0.3275 -0.4944
 4609TIP3   OH213790   1.753   1.542   3.694 -0.4755 -0.2547 -0.3408
 4609TIP3    H113791   1.757   1.468   3.754 -0.7883 -0.2411 -0.3013
 4609TIP3    H213792   1.774   1.618   3.748 -0.9313 -0.2198 -0.2028
 4610TIP3   OH213793   6.634   1.009   3.504 -0.3432  0.2842  0.2908
 4610TIP3    H113794   6.704   1.074   3.513  0.9179 -0.8386 -0.9077
 4610TIP3    H213795   6.611   1.012   3.411  0.7877 -1.9556 -0.1274
 4611TIP3   OH213796   5.101   0.932   0.514  0.3789  0.1984 -0.2036
 4611TIP3    H113797   5.112   0.910   0.421  0.0716 -1.4700  0.1165
 4611TIP3    H213798   5.009   0.957   0.522  0.5620  0.9772 -0.4507
 4612TIP3   OH213799   5.968   3.487   5.229  0.1675 -0.1624 -0.0886
 4612TIP3    H113800   5.886   3.529   5.202 -0.6860 -2.5617 -1.5917
 4612TIP3    H213801   6.024   3.559   5.256 -2.1941  1.6406  0.3757
 4613TIP3   OH213802   5.677   6.326   1.785 -0.6494  0.1932  0.0507
 4613TIP3    H113803   5.702   6.387   1.855 -0.1046  0.1103 -0.0628
 4613TIP3    H213804   5.743   6.341   1.716  0.1703 -1.2968  0.4628
 4614TIP3   OH213805   6.601   5.660   2.819  0.2066  0.0260  0.1756
 4614TIP3    H113806   6.600   5.714   2.740  0.9757  0.3657  0.3908
 4614TIP3    H213807   6.510   5.658   2.847 -0.4251 -1.5631 -1.6888
 4615TIP3   OH213808   6.931   5.602   5.708  0.5462  0.0403 -0.3642
 4615TIP3    H113809   7.008   5.656   5.722  0.1747  0.4945 -0.0714
 4615TIP3    H213810   6.891   5.636   5.627  0.3391  0.1768 -0.2060
 4616TIP3   OH213811   0.089   0.383   4.671  0.1313  0.2641 -0.3800
 4616TIP3    H113812   0.067   0.419   4.585  1.7631 -1.3549 -1.5358
 4616TIP3    H213813   0.081   0.289   4.661  0.2877  0.0321  1.3032
 4617TIP3   OH213814   1.871   5.327   5.126 -0.3224  0.3168  1.0695
 4617TIP3    H113815   1.902   5.264   5.190 -2.6988 -0.1523  1.8603
 4617TIP3    H213816   1.775   5.323   5.132 -0.6008  1.7439 -1.0715
 4618TIP3   OH213817   2.919   4.740   1.378  0.6588  0.0713 -0.1979
 4618TIP3    H113818   2.831   4.745   1.342  0.7577  1.1400 -0.3386
 4618TIP3    H213819   2.962   4.671   1.327  0.1175  0.0258 -0.6027
 4619TIP3   OH213820   6.295   5.691   4.717  0.0907  0.2007  0.1568
 4619TIP3    H113821   6.319   5.613   4.768  1.9897  0.6752  0.0347
 4619TIP3    H213822   6.353   5.689   4.641  0.6426  2.0863  0.4853
 4620TIP3   OH213823   5.946   2.436   5.077 -0.1378  0.5556  0.2144
 4620TIP3    H113824   5.894   2.356   5.087 -1.8173  1.8469  2.5794
 4620TIP3    H213825   6.037   2.407   5.087 -0.5122 -1.3306 -1.1883
 4621TIP3   OH213826   3.675   6.050   0.385  0.0403 -0.3332  0.3385
 4621TIP3    H113827   3.718   6.117   0.438  1.6835  0.2616 -1.6095
 4621TIP3    H213828   3.629   6.100   0.317 -0.5149 -1.1156  0.1340
 4622TIP3   OH213829   7.129   5.427   0.214  0.2969 -0.5555 -0.3225
 4622TIP3    H113830   7.204   5.447   0.158 -0.0329  0.2237 -0.4934
 4622TIP3    H213831   7.052   5.451   0.161 -0.0277 -0.1169  0.3302
 4623TIP3   OH213832   4.582   3.268   4.400  0.0376 -0.0548 -0.5179
 4623TIP3    H113833   4.645   3.196   4.404  0.5211  0.3919  0.3090
 4623TIP3    H213834   4.515   3.238   4.339  0.0485 -1.3539  0.0659
 4624TIP3   OH213835   0.754   3.606   4.133 -0.3503 -0.2996 -0.3311
 4624TIP3    H113836   0.742   3.582   4.225 -1.1331  0.4162 -0.2354
 4624TIP3    H213837   0.746   3.701   4.131 -0.3089 -0.3028 -1.1360
 4625TIP3   OH213838   4.274   3.884   1.089 -0.3330 -0.2163  0.8130
 4625TIP3    H113839   4.253   3.790   1.095  0.1310 -0.3313  0.6381
 4625TIP3    H213840   4.201   3.927   1.133 -0.5324 -0.6634  0.9277
 4626TIP3   OH213841   1.835   5.563   3.331 -0.1976  0.2517  0.3185
 4626TIP3    H113842   1.930   5.557   3.335 -0.1631 -1.5685 -1.4259
 4626TIP3    H213843   1.818   5.643   3.282  0.5503 -0.3636 -1.0012
 4627TIP3   OH213844   6.519   4.586   2.307  0.1995  0.5806  0.1494
 4627TIP3    H113845   6.436   4.623   2.277  0.2072  0.9549  0.5740
 4627TIP3    H213846   6.559   4.550   2.228 -1.0897 -1.0562  0.1933
 4628TIP3   OH213847   1.797   4.351   2.599 -0.2281 -0.0729  0.4940
 4628TIP3    H113848   1.839   4.422   2.647 -0.3582  0.9460 -0.8186
 4628TIP3    H213849   1.869   4.299   2.564 -0.0221  1.1362 -0.9778
 4629TIP3   OH213850   5.816   2.086   4.442 -0.3709 -0.7745 -0.4582
 4629TIP3    H113851   5.768   2.078   4.524 -1.0342 -0.9510 -0.8515
 4629TIP3    H213852   5.837   2.179   4.434  1.4286 -1.0109  0.8500
 4630TIP3   OH213853   5.163   6.209   5.409  0.3458  0.1892 -0.1199
 4630TIP3    H113854   5.245   6.234   5.366  0.3602 -0.4768 -0.4911
 4630TIP3    H213855   5.132   6.134   5.360 -1.2473  1.3043 -0.8955
 4631TIP3   OH213856   1.655   5.662   4.888 -0.6943  0.8425 -0.1649
 4631TIP3    H113857   1.750   5.659   4.904 -0.5753 -1.4934 -0.9810
 4631TIP3    H213858   1.644   5.729   4.821  0.4809  0.6687 -0.5573
 4632TIP3   OH213859   4.478   2.781   2.392  0.2590 -0.2387 -0.0543
 4632TIP3    H113860   4.568   2.757   2.415  1.2351  2.3988 -0.6983
 4632TIP3    H213861   4.427   2.760   2.469  1.6420 -0.6734  0.7892
 4633TIP3   OH213862   3.263   6.545   4.248  0.1148 -0.0275  0.3580
 4633TIP3    H113863   3.358   6.558   4.254  0.1778  0.8275 -1.5958
 4633TIP3    H213864   3.230   6.626   4.210 -1.0962 -1.1296 -1.0610
 4634TIP3   OH213865   1.429   1.117   4.943  0.1476 -0.2047  0.0091
 4634TIP3    H113866   1.409   1.201   4.984 -1.6138  0.5979 -2.2920
 4634TIP3    H213867   1.366   1.056   4.981 -0.4119  0.1603 -0.3290
 4635TIP3   OH213868   2.388   2.647   5.588 -0.0402 -0.0463  0.1489
 4635TIP3    H113869   2.410   2.740   5.584 -0.1265 -0.0467 -0.4469
 4635TIP3    H213870   2.335   2.631   5.510  0.0153 -0.6051  0.2182
 4636TIP3   OH213871   2.952   4.779   0.705 -0.3206 -0.1711 -0.2412
 4636TIP3    H113872   2.935   4.746   0.793  1.8473 -1.4832 -0.2566
 4636TIP3    H213873   2.898   4.724   0.648 -1.0165  0.0670  0.1773
 4637TIP3   OH213874   0.776   2.867   4.268 -0.0147 -0.9342 -0.4188
 4637TIP3    H113875   0.755   2.832   4.354 -2.1542 -2.4094 -1.4476
 4637TIP3    H213876   0.827   2.798   4.226  1.9456  0.2176 -0.0124
 4638TIP3   OH213877   4.300   2.668   5.014  0.2110 -0.4181 -0.0006
 4638TIP3    H113878   4.331   2.757   5.000 -0.2474  0.0408  1.6483
 4638TIP3    H213879   4.208   2.678   5.039  0.2284 -1.3083  0.4758
 4639TIP3   OH213880   1.482   4.201   0.571  0.1156  0.5244 -0.6609
 4639TIP3    H113881   1.575   4.186   0.552  0.1153  0.8744 -0.9589
 4639TIP3    H213882   1.480   4.229   0.662  0.1979 -0.4466 -0.3484
 4640TIP3   OH213883   0.773   4.875   1.781 -0.1133 -0.3252  0.6143
 4640TIP3    H113884   0.785   4.894   1.688  1.4300  0.6468  0.9767
 4640TIP3    H213885   0.807   4.952   1.826  0.4538 -1.3524  2.0310
 4641TIP3   OH213886   6.330   2.972   2.517  0.4226  0.2420 -0.4737
 4641TIP3    H113887   6.269   3.031   2.474 -0.6633 -0.8103 -0.4257
 4641TIP3    H213888   6.334   3.003   2.607  1.0424  1.1509 -0.8069
 4642TIP3   OH213889   2.174   2.551   4.123 -0.1793  0.0909  0.3792
 4642TIP3    H113890   2.167   2.591   4.036  0.0307 -0.7460 -0.0307
 4642TIP3    H213891   2.088   2.512   4.138 -0.6246  1.2982  1.0943
 4643TIP3   OH213892   5.190   0.156   4.322 -0.1149  0.2942  0.3625
 4643TIP3    H113893   5.268   0.127   4.369  0.1180  0.8075  0.2914
 4643TIP3    H213894   5.223   0.215   4.254 -0.5458  0.3440  0.1916
 4644TIP3   OH213895   6.108   4.014   1.426  0.3362  0.0583  0.0855
 4644TIP3    H113896   6.046   4.086   1.439 -0.4773 -0.4969 -0.6018
 4644TIP3    H213897   6.074   3.943   1.481  1.0346  0.1281  0.6213
 4645TIP3   OH213898   0.371   3.062   5.509  0.0545  0.5348 -0.0718
 4645TIP3    H113899   0.311   3.010   5.455 -1.1412  2.0220 -0.2495
 4645TIP3    H213900   0.450   3.007   5.516 -0.7143 -0.8034 -1.1622
 4646TIP3   OH213901   4.046   5.478   4.348  0.0133 -0.1776 -0.5175
 4646TIP3    H113902   4.129   5.438   4.372  0.9918  1.3981 -1.0934
 4646TIP3    H213903   3.997   5.483   4.430  0.6430 -0.7764 -0.0984
 4647TIP3   OH213904   6.032   1.900   1.204  0.1286  0.3547  0.4492
 4647TIP3    H113905   6.102   1.958   1.173  0.3737  0.2937  0.8767
 4647TIP3    H213906   6.064   1.812   1.185 -1.3289  0.3250 -2.5874
 4648TIP3   OH213907   6.889   5.146   0.413  0.0204 -0.3629  0.3472
 4648TIP3    H113908   6.800   5.114   0.429  0.0484  0.1353  1.6073
 4648TIP3    H213909   6.944   5.090   0.467  0.5420 -0.9593 -0.7707
 4649TIP3   OH213910   2.781   5.691   3.243  0.1871 -0.2124 -0.2603
 4649TIP3    H113911   2.859   5.746   3.252  0.5596 -0.9151  1.1616
 4649TIP3    H213912   2.816   5.605   3.221 -0.2940 -0.2135 -1.0313
 4650TIP3   OH213913   4.883   4.034   0.066  0.6334 -0.1926  0.0657
 4650TIP3    H113914   4.969   4.066   0.093  0.2771  0.2520  0.7256
 4650TIP3    H213915   4.875   4.061  -0.026  0.3950  1.5666  0.5678
 4651TIP3   OH213916   1.872   0.356   0.303 -0.3424  0.4865  0.2072
 4651TIP3    H113917   1.883   0.286   0.368 -1.2547 -0.9843 -1.1493
 4651TIP3    H213918   1.785   0.391   0.320 -0.0977  0.9491  0.5387
 4652TIP3   OH213919   5.226   6.810   3.466  0.1147 -0.0567 -0.0103
 4652TIP3    H113920   5.307   6.760   3.479  0.5361  0.5535 -0.2827
 4652TIP3    H213921   5.190   6.821   3.554  0.3931 -0.2177  0.1235
 4653TIP3   OH213922   4.692   0.140   4.491  0.2702 -0.0868 -0.3058
 4653TIP3    H113923   4.645   0.201   4.434 -1.2864 -0.3132  0.6831
 4653TIP3    H213924   4.713   0.191   4.569 -2.4861 -1.1280  1.2442
 4654TIP3   OH213925   4.376   0.702   2.887 -0.0214  0.4798  0.1317
 4654TIP3    H113926   4.399   0.609   2.896  0.0543  0.5766  1.0604
 4654TIP3    H213927   4.387   0.721   2.794 -2.1946 -1.0068 -0.5032
 4655TIP3   OH213928   3.335   4.363   2.377  0.0959 -0.7797 -0.0755
 4655TIP3    H113929   3.320   4.301   2.449 -1.9312  1.2174  1.3516
 4655TIP3    H213930   3.247   4.387   2.348  0.8574  0.2065 -1.6983
 4656TIP3   OH213931   2.626   1.955   2.107 -0.0000 -0.3791 -0.2925
 4656TIP3    H113932   2.634   2.045   2.138  1.3019 -0.5357 -0.0958
 4656TIP3    H213933   2.690   1.948   2.036 -0.8319 -0.8634 -1.0061
 4657TIP3   OH213934   3.389   4.151   3.701  0.3218 -0.0594 -0.5749
 4657TIP3    H113935   3.427   4.230   3.739  0.2104 -0.1768 -0.2098
 4657TIP3    H213936   3.295   4.164   3.707  0.2812 -0.8457  0.8603
 4658TIP3   OH213937   2.930   3.694   2.721  0.5769 -0.1426 -0.0880
 4658TIP3    H113938   3.004   3.698   2.781 -0.0462 -1.3762  0.8265
 4658TIP3    H213939   2.953   3.625   2.659  1.2653  1.2005 -1.3884
 4659TIP3   OH213940   5.128   3.970   4.353  0.1103 -0.6385  0.1055
 4659TIP3    H113941   5.089   3.955   4.439 -0.0708  1.3867  0.4136
 4659TIP3    H213942   5.208   3.918   4.354  0.3363 -0.3158  1.6795
 4660TIP3   OH213943   1.099   4.921   4.733  0.0420  0.3680 -0.7556
 4660TIP3    H113944   1.074   4.829   4.736  0.0161  0.3897  0.0615
 4660TIP3    H213945   1.194   4.920   4.742  0.0625  0.4106 -0.9701
 4661TIP3   OH213946   3.647   4.585   1.077 -0.0167 -0.0678  0.7031
 4661TIP3    H113947   3.693   4.665   1.054 -1.9336  1.3076  1.3283
 4661TIP3    H213948   3.579   4.576   1.010 -1.5330  0.3903  2.1048
 4662TIP3   OH213949   5.959   0.248   5.923 -0.6550 -0.1665 -0.1216
 4662TIP3    H113950   5.911   0.324   5.891  2.6023  1.6848 -1.2047
 4662TIP3    H213951   6.020   0.228   5.852  0.3881 -2.0908  1.2344
 4663TIP3   OH213952   4.132   6.652   0.435  0.0776 -0.6440  0.1195
 4663TIP3    H113953   4.173   6.577   0.392  0.1024 -0.3563 -0.3728
 4663TIP3    H213954   4.195   6.680   0.500 -0.9117 -2.5207  2.0273
 4664TIP3   OH213955   5.166   2.572   2.856  0.1902  0.1634 -0.2237
 4664TIP3    H113956   5.223   2.615   2.793 -0.2454  0.0661 -0.6940
 4664TIP3    H213957   5.097   2.532   2.803 -0.5051  0.5710  0.3465
 4665TIP3   OH213958   3.869   5.471   5.756 -0.1380  0.3094  0.6450
 4665TIP3    H113959   3.791   5.426   5.724  0.4712 -0.3862  0.0912
 4665TIP3    H213960   3.835   5.540   5.813 -1.1803  0.3552  0.0089
 4666TIP3   OH213961   5.641   1.145   3.395  0.1379 -0.3901 -0.1281
 4666TIP3    H113962   5.577   1.211   3.370  0.2345 -0.3507 -0.2731
 4666TIP3    H213963   5.725   1.181   3.367  0.4616  0.4101  1.7568
 4667TIP3   OH213964   0.616   6.454   0.610  0.2635 -0.0684 -0.7172
 4667TIP3    H113965   0.523   6.432   0.616  1.0222 -3.7313 -0.1039
 4667TIP3    H213966   0.631   6.515   0.683 -1.2744 -1.0394  0.4795
 4668TIP3   OH213967   1.207   4.300   3.560 -0.3006  0.2996  0.0964
 4668TIP3    H113968   1.159   4.218   3.556  1.6138 -0.9568  1.4718
 4668TIP3    H213969   1.242   4.311   3.471 -1.0093 -0.0439 -0.2387
 4669TIP3   OH213970   0.867   2.550   1.935  0.4835 -0.5084  0.8176
 4669TIP3    H113971   0.847   2.579   1.846  2.5697 -1.5197 -0.0403
 4669TIP3    H213972   0.830   2.619   1.991 -0.2171  0.5392 -0.8441
 4670TIP3   OH213973   4.111   0.218   5.671  0.1049 -0.5587 -0.5505
 4670TIP3    H113974   4.093   0.279   5.742 -0.2000 -2.5548  1.1880
 4670TIP3    H213975   4.100   0.131   5.711 -0.2429 -1.7670 -3.0851
 4671TIP3   OH213976   1.756   5.920   2.854  0.6847  0.6908  0.5793
 4671TIP3    H113977   1.716   6.004   2.829  0.4621  0.4678  0.1845
 4671TIP3    H213978   1.843   5.923   2.815  0.6918  0.7596  0.6007
 4672TIP3   OH213979   0.706   4.705   0.630 -0.1349 -0.0910 -0.7274
 4672TIP3    H113980   0.719   4.649   0.707  1.0693 -0.3255 -1.0803
 4672TIP3    H213981   0.622   4.677   0.594 -0.7311  0.0294  0.4876
 4673TIP3   OH213982   0.319   3.740   5.643  0.1220  0.0473  0.2950
 4673TIP3    H113983   0.296   3.700   5.726 -0.1568 -0.2842  0.0627
 4673TIP3    H213984   0.404   3.780   5.658 -0.0472  0.2245  0.8153
 4674TIP3   OH213985   6.226   4.355   5.809  0.3444  0.1970 -0.1585
 4674TIP3    H113986   6.250   4.388   5.896 -0.2244  0.4390 -0.0905
 4674TIP3    H213987   6.131   4.358   5.807  0.3667  1.7707 -1.3752
 4675TIP3   OH213988   6.721   4.790   1.162 -0.0536  0.6753  0.0016
 4675TIP3    H113989   6.702   4.788   1.256 -0.8234  0.6906 -0.1493
 4675TIP3    H213990   6.635   4.799   1.120 -0.3004 -3.9092 -0.9380
 4676TIP3   OH213991   0.160   1.416   3.789 -0.0056  0.0221 -0.3984
 4676TIP3    H113992   0.092   1.476   3.820 -0.7872 -1.7506  1.5740
 4676TIP3    H213993   0.227   1.418   3.858  0.4753 -0.5256 -0.8377
 4677TIP3   OH213994   5.973   2.126   1.010  0.6203  0.0888  0.4252
 4677TIP3    H113995   5.998   2.053   0.953 -1.1781 -1.1820  1.1692
 4677TIP3    H213996   6.013   2.105   1.094  0.0013 -0.1231  0.6729
 4678TIP3   OH213997   2.761   4.309   5.783 -0.2001  0.3970 -0.2981
 4678TIP3    H113998   2.721   4.253   5.848 -0.8693 -1.1747 -1.9829
 4678TIP3    H213999   2.716   4.288   5.701  2.9194 -0.3164 -2.0200
 4679TIP3   OH214000   5.689   0.756   1.459  0.0189 -0.6186  0.2193
 4679TIP3    H114001   5.630   0.809   1.512  1.0680 -1.5042  2.3989
 4679TIP3    H214002   5.659   0.769   1.369 -1.6989  1.1429  0.9757
 4680TIP3   OH214003   0.920   3.582   1.082  0.1819  0.2871 -0.4034
 4680TIP3    H114004   0.842   3.631   1.057 -0.3302 -0.6051 -0.6028
 4680TIP3    H214005   0.992   3.629   1.039 -0.4988 -0.2072 -2.1730
 4681TIP3   OH214006   7.104   5.729   3.513 -0.2672  0.0711 -0.4789
 4681TIP3    H114007   7.013   5.734   3.483 -0.5710 -2.2441 -0.1206
 4681TIP3    H214008   7.139   5.651   3.469  1.1921  0.2346  0.3377
 4682TIP3   OH214009   5.641   3.862   0.801  0.1743  0.0188  0.1948
 4682TIP3    H114010   5.690   3.879   0.882  0.8319 -0.5753 -0.0674
 4682TIP3    H214011   5.669   3.775   0.774 -2.2517 -1.0411  0.8895
 4683TIP3   OH214012   2.146   4.167   0.506  0.3575 -0.4335 -0.4191
 4683TIP3    H114013   2.228   4.216   0.516 -0.2500  0.4627  0.3489
 4683TIP3    H214014   2.158   4.116   0.426  0.2438  2.6058 -2.5628
 4684TIP3   OH214015   6.287   3.968   3.646 -0.0118  0.3376 -0.3543
 4684TIP3    H114016   6.253   3.966   3.557 -0.0377  0.9700 -0.3582
 4684TIP3    H214017   6.378   3.995   3.636 -0.3353  1.5490 -0.0914
 4685TIP3   OH214018   0.657   3.842   5.302 -0.2457  0.0388  0.1584
 4685TIP3    H114019   0.575   3.839   5.252 -0.6428 -2.0282  0.8685
 4685TIP3    H214020   0.654   3.766   5.359  2.2054 -0.1198  0.1937
 4686TIP3   OH214021   3.529   3.807   3.175  0.2444  0.0257  0.4517
 4686TIP3    H114022   3.434   3.815   3.183  0.0950 -2.1707  1.7602
 4686TIP3    H214023   3.544   3.790   3.082 -0.3268  2.7561 -0.2547
 4687TIP3   OH214024   3.598   4.845   2.712 -0.0435  0.0132  0.5210
 4687TIP3    H114025   3.507   4.822   2.691  0.1049  0.6494 -0.9558
 4687TIP3    H214026   3.609   4.933   2.677  1.4468 -0.4741 -0.3305
 4688TIP3   OH214027   2.569   5.646   4.354  0.1083  0.3330  0.1262
 4688TIP3    H114028   2.489   5.649   4.301  0.3541 -0.6282 -0.3306
 4688TIP3    H214029   2.539   5.649   4.444 -0.5140 -0.7669 -0.0233
 4689TIP3   OH214030   0.130   6.546   3.271  0.6218 -0.4565 -0.6335
 4689TIP3    H114031   0.119   6.560   3.365  0.4043 -1.4918 -0.4922
 4689TIP3    H214032   0.206   6.488   3.264  1.2789  0.4307 -1.1691
 4690TIP3   OH214033   1.733   0.953   3.120 -0.0317 -0.3025 -0.1795
 4690TIP3    H114034   1.688   1.019   3.174  0.1131  0.3219 -0.7977
 4690TIP3    H214035   1.711   0.978   3.030  1.0974 -0.3064 -0.4722
 4691TIP3   OH214036   6.809   1.630   5.658  0.3149  0.5474 -0.7886
 4691TIP3    H114037   6.878   1.590   5.710 -0.1562 -0.6489 -1.0561
 4691TIP3    H214038   6.772   1.697   5.716  0.6234  0.0932 -0.0418
 4692TIP3   OH214039   2.746   0.638   3.173 -0.0350  0.1045 -0.1495
 4692TIP3    H114040   2.739   0.570   3.105 -1.5286  0.6890 -0.6119
 4692TIP3    H214041   2.833   0.625   3.210  0.2278 -1.2087 -1.1418
 4693TIP3   OH214042   5.029   1.085   3.833 -0.1242  0.6914 -0.4824
 4693TIP3    H114043   5.108   1.109   3.881 -0.6617  0.0390  0.7795
 4693TIP3    H214044   4.976   1.037   3.896 -0.6944 -0.5751 -1.8529
 4694TIP3   OH214045   5.718   4.147   4.578  0.1029  0.6798 -0.5024
 4694TIP3    H114046   5.696   4.150   4.671 -0.3427 -3.4043 -0.2767
 4694TIP3    H214047   5.633   4.155   4.534 -0.1445 -0.6563 -0.3238
 4695TIP3   OH214048   3.533   1.464   2.268  0.2457  0.5207  0.9878
 4695TIP3    H114049   3.503   1.547   2.304  0.7734  0.6115  1.2307
 4695TIP3    H214050   3.616   1.485   2.224  0.2995  0.1558  0.9069
 4696TIP3   OH214051   0.447   5.381   0.652 -0.0348  0.6306 -0.3585
 4696TIP3    H114052   0.355   5.356   0.665 -0.1813  1.4251  0.1704
 4696TIP3    H214053   0.489   5.362   0.736  0.0553  1.2594 -0.2568
 4697TIP3   OH214054   1.932   5.572   5.004 -0.6229 -0.3635  0.4409
 4697TIP3    H114055   2.012   5.602   5.048 -1.1462  0.2708  0.9781
 4697TIP3    H214056   1.905   5.494   5.051 -1.6027  0.7341  1.7765
 4698TIP3   OH214057   5.827   1.503   5.684  0.0675 -0.0658  0.0841
 4698TIP3    H114058   5.776   1.508   5.603 -0.9991  0.3137  0.7691
 4698TIP3    H214059   5.803   1.419   5.723 -0.4928  0.3778  0.7022
 4699TIP3   OH214060   5.224   0.198   3.893 -0.5151 -0.7666 -0.6871
 4699TIP3    H114061   5.276   0.267   3.852 -0.9451 -0.4384 -0.6850
 4699TIP3    H214062   5.133   0.228   3.885 -0.5733 -0.4031  1.0187
 4700TIP3   OH214063   1.146   5.329   1.709  0.0852  0.4393 -0.0056
 4700TIP3    H114064   1.084   5.326   1.636  1.8606 -0.2080 -1.5975
 4700TIP3    H214065   1.167   5.421   1.719  0.3351  0.4830 -0.8131
 4701TIP3   OH214066   4.102   0.600   3.805 -0.0443  0.2160  0.1725
 4701TIP3    H114067   4.049   0.604   3.726 -0.9951  0.3578  0.8021
 4701TIP3    H214068   4.191   0.623   3.776 -0.5322  1.0508 -0.7057
 4702TIP3   OH214069   5.187   3.688   2.863 -0.2274 -0.4070 -0.1712
 4702TIP3    H114070   5.267   3.724   2.901  0.2630  0.2377 -1.7699
 4702TIP3    H214071   5.197   3.593   2.872  1.3558 -0.4063 -1.5693
 4703TIP3   OH214072   7.172   0.811   0.776 -0.2250  0.0800 -0.8536
 4703TIP3    H114073   7.084   0.793   0.809 -0.0766  1.0537  0.1564
 4703TIP3    H214074   7.231   0.766   0.837 -0.0098 -1.2905 -2.0129
 4704TIP3   OH214075   5.379   5.481   0.073 -0.5531  0.9426  0.4445
 4704TIP3    H114076   5.449   5.535   0.036  0.6168 -1.7449 -1.5649
 4704TIP3    H214077   5.306   5.492   0.013 -0.1117 -0.0872 -0.3107
 4705TIP3   OH214078   2.358   1.742   3.378 -0.1867 -0.8229  0.0757
 4705TIP3    H114079   2.399   1.711   3.459  0.0100  1.7119  1.0316
 4705TIP3    H214080   2.268   1.762   3.404 -0.2348 -0.3800 -0.4447
 4706TIP3   OH214081   5.975   4.155   1.756 -0.2408 -0.0170  0.6822
 4706TIP3    H114082   5.927   4.130   1.677  0.7889 -0.6697  0.2427
 4706TIP3    H214083   6.062   4.117   1.744 -0.3209 -0.9222  2.5350
 4707TIP3   OH214084   2.623   5.977   4.219  0.3028 -0.3887 -0.5064
 4707TIP3    H114085   2.542   6.026   4.229  1.1997  1.1412 -0.4176
 4707TIP3    H214086   2.600   5.903   4.164 -1.4997 -0.8970  0.8250
 4708TIP3   OH214087   2.611   5.913   0.568  0.1916 -0.6582 -0.2082
 4708TIP3    H114088   2.545   5.877   0.628  0.3569 -0.3941  0.1335
 4708TIP3    H214089   2.691   5.919   0.620  0.8618 -2.2288 -0.9798
 4709TIP3   OH214090   5.463   4.044   1.199 -0.3912  0.6407 -0.3621
 4709TIP3    H114091   5.527   3.973   1.202 -1.0342  0.0343 -0.5976
 4709TIP3    H214092   5.379   4.000   1.186 -0.9803  1.3484  0.8641
 4710TIP3   OH214093   6.616   3.819   0.111 -1.2685 -0.2693  0.2618
 4710TIP3    H114094   6.654   3.838   0.197 -1.6775 -1.0753  0.6342
 4710TIP3    H214095   6.576   3.902   0.084  1.2575  0.8138 -0.4555
 4711TIP3   OH214096   4.231   5.486   0.384  0.2931  0.1693  0.3659
 4711TIP3    H114097   4.282   5.542   0.441  1.9915 -1.0754  0.1402
 4711TIP3    H214098   4.142   5.521   0.389  1.2943  2.9871  0.0400
 4712TIP3   OH214099   5.015   1.176   5.451 -0.0821 -0.2694  0.1309
 4712TIP3    H114100   5.018   1.271   5.451  0.2511 -0.2759  0.4366
 4712TIP3    H214101   4.984   1.153   5.539  2.7893 -0.4970  1.2040
 4713TIP3   OH214102   6.775   4.889   3.572  0.0462 -0.4403 -0.3574
 4713TIP3    H114103   6.787   4.884   3.666 -2.9266  1.6258  0.3156
 4713TIP3    H214104   6.755   4.800   3.545 -0.3362 -0.8689  1.2378
 4714TIP3   OH214105   3.798   6.590   3.697 -0.1957 -0.8168 -0.2903
 4714TIP3    H114106   3.835   6.668   3.657  0.3248 -1.1868 -0.5325
 4714TIP3    H214107   3.724   6.623   3.749 -0.8695 -0.3257 -1.5198
 4715TIP3   OH214108   5.436   5.222   1.302  0.2415  0.5245 -0.1174
 4715TIP3    H114109   5.455   5.301   1.250  1.9632  0.6276  0.6028
 4715TIP3    H214110   5.505   5.219   1.367 -1.0030 -0.4522  1.2245
 4716TIP3   OH214111   1.549   4.572   3.347  0.3517  0.1682 -0.4587
 4716TIP3    H114112   1.591   4.569   3.261  1.5042 -0.5422  0.1059
 4716TIP3    H214113   1.456   4.581   3.328  0.6932  1.1965 -1.7624
 4717TIP3   OH214114   3.554   0.557   5.596 -0.3513  0.0647  0.3555
 4717TIP3    H114115   3.470   0.548   5.641 -1.0964  0.0576 -0.9998
 4717TIP3    H214116   3.601   0.624   5.647 -0.7927 -0.5929  1.6653
 4718TIP3   OH214117   1.736   3.597   4.215  0.4800 -0.0383  0.3605
 4718TIP3    H114118   1.766   3.570   4.302 -0.7642  0.1992  0.8931
 4718TIP3    H214119   1.674   3.668   4.232 -0.2709 -0.4111 -0.6648
 4719TIP3   OH214120   1.100   6.057   0.917  0.2004 -0.3247 -0.2387
 4719TIP3    H114121   1.064   6.143   0.899  2.4235  0.6687 -0.2087
 4719TIP3    H214122   1.189   6.073   0.948  0.4860 -2.6003  0.3662
 4720TIP3   OH214123   7.196   0.845   0.077  0.3833  0.3707  0.1948
 4720TIP3    H114124   7.160   0.883  -0.003 -0.8494 -0.9062  0.0965
 4720TIP3    H214125   7.131   0.866   0.145  2.2952  3.0919  1.3639
 4721TIP3   OH214126   2.053   1.412   3.047  0.0816  0.6795  0.3085
 4721TIP3    H114127   1.960   1.433   3.038  0.0775  0.3306 -0.5416
 4721TIP3    H214128   2.055   1.319   3.070  0.2533  0.0668 -1.9316
 4722TIP3   OH214129   2.457   2.146   3.445 -0.8473  0.4300 -0.0110
 4722TIP3    H114130   2.471   2.239   3.462 -3.3121  0.8692 -0.0294
 4722TIP3    H214131   2.400   2.116   3.516  0.4204 -1.2877  0.3793
 4723TIP3   OH214132   3.977   6.505   0.906 -0.0625 -0.0296 -0.2507
 4723TIP3    H114133   3.977   6.416   0.871 -3.5376  0.6948 -2.5385
 4723TIP3    H214134   3.903   6.548   0.864 -0.5420  3.0449  3.1950
 4724TIP3   OH214135   2.539   4.548   1.139 -0.1433  0.0309  0.2793
 4724TIP3    H114136   2.608   4.533   1.203  1.9972  4.0851 -0.7445
 4724TIP3    H214137   2.565   4.495   1.063  3.0131  2.7061 -0.6997
 4725TIP3   OH214138   5.675   4.141   2.176 -0.3113  0.5405  0.7106
 4725TIP3    H114139   5.714   4.140   2.089 -0.4653  0.0710  0.6413
 4725TIP3    H214140   5.593   4.189   2.166 -1.0335 -0.7323  0.2729
 4726TIP3   OH214141   2.768   1.077   2.208  0.4000  0.3884  0.2202
 4726TIP3    H114142   2.786   1.144   2.141 -1.5862 -0.1724 -0.9500
 4726TIP3    H214143   2.717   1.123   2.274  0.5751  0.4368  0.3243
 4727TIP3   OH214144   3.768   1.066   2.306 -0.2072  0.2883  0.5800
 4727TIP3    H114145   3.683   1.026   2.289  0.0233  0.1279 -0.2422
 4727TIP3    H214146   3.812   1.006   2.366 -0.4181  0.0410  0.4866
 4728TIP3   OH214147   0.899   4.614   5.286 -0.0712  0.0857 -0.1846
 4728TIP3    H114148   0.915   4.707   5.305  0.6447  0.1341 -0.9680
 4728TIP3    H214149   0.805   4.603   5.299 -0.1541  0.9132 -0.0321
 4729TIP3   OH214150   0.647   3.787   3.425  0.0214  0.0023  0.1645
 4729TIP3    H114151   0.687   3.715   3.474 -0.3025  0.0296  0.4694
 4729TIP3    H214152   0.646   3.757   3.334  2.5342  0.7708 -0.1972
 4730TIP3   OH214153   4.463   0.278   4.396 -0.6154 -0.0223  0.2139
 4730TIP3    H114154   4.446   0.349   4.458 -1.8785  0.4562 -0.6225
 4730TIP3    H214155   4.480   0.323   4.313  0.0862 -0.6707 -0.0015
 4731TIP3   OH214156   6.291   5.162   4.002  0.2979 -0.3539  0.7992
 4731TIP3    H114157   6.243   5.180   4.082  0.6783  1.8435  0.5839
 4731TIP3    H214158   6.371   5.119   4.031 -0.4791 -1.4652  1.3873
 4732TIP3   OH214159   6.980   3.724   2.879 -0.1340  0.4321 -0.1037
 4732TIP3    H114160   7.023   3.798   2.837  0.2674  0.3114  0.0901
 4732TIP3    H214161   6.928   3.762   2.950 -1.0027  0.6629 -0.8413
 4733TIP3   OH214162   6.877   4.673   2.957 -0.3976 -0.5970  0.2630
 4733TIP3    H114163   6.870   4.584   2.923  1.8286 -0.0358 -1.9290
 4733TIP3    H214164   6.875   4.728   2.879 -0.8645  1.2476  1.5176
 4734TIP3   OH214165   1.826   0.378   2.604 -0.0707 -0.0154  0.1042
 4734TIP3    H114166   1.732   0.392   2.610 -0.0045  0.2472  0.6328
 4734TIP3    H214167   1.864   0.444   2.663  0.4446 -0.0675 -0.1612
 4735TIP3   OH214168   0.565   4.888   2.416 -0.2596 -0.0366  0.1559
 4735TIP3    H114169   0.607   4.957   2.467 -0.9503  1.7601 -1.5890
 4735TIP3    H214170   0.525   4.831   2.481  1.5946  0.3262  1.7149
 4736TIP3   OH214171   1.574   2.560   1.604 -0.0522 -0.0783 -0.6619
 4736TIP3    H114172   1.570   2.472   1.566  0.0849  0.1413 -1.1915
 4736TIP3    H214173   1.593   2.617   1.530 -0.5687  0.4513 -0.3904
 4737TIP3   OH214174   4.725   0.342   0.274 -0.3728  0.0555 -0.2820
 4737TIP3    H114175   4.717   0.247   0.285 -0.9080  0.0317 -0.8891
 4737TIP3    H214176   4.802   0.353   0.217  0.8102  0.0771  1.2375
 4738TIP3   OH214177   3.127   3.867   5.374  0.0867 -0.2140  0.2673
 4738TIP3    H114178   3.085   3.888   5.457  0.3477 -0.3366  0.4315
 4738TIP3    H214179   3.173   3.784   5.390 -0.7233 -0.7860 -0.2957
 4739TIP3   OH214180   6.993   0.181   2.661 -0.0393  0.1400  0.2183
 4739TIP3    H114181   6.930   0.204   2.729 -0.5229 -1.1791  0.2475
 4739TIP3    H214182   7.067   0.240   2.675 -1.0064  1.2875  0.5710
 4740TIP3   OH214183   7.012   0.882   1.314  0.3625  0.3199 -0.0974
 4740TIP3    H114184   7.007   0.946   1.243  0.7586  0.6826  0.1952
 4740TIP3    H214185   6.921   0.858   1.332  0.0114  2.4202  1.2396
 4741TIP3   OH214186   3.973   1.702   2.190 -0.5770  0.0053 -0.0905
 4741TIP3    H114187   4.038   1.698   2.261 -2.2381  1.9402  1.6968
 4741TIP3    H214188   4.004   1.772   2.133 -0.0657 -0.4520 -0.3772
 4742TIP3   OH214189   5.946   5.709   3.150 -0.0599 -0.3456 -0.7732
 4742TIP3    H114190   5.890   5.634   3.128  0.7552 -1.2649  0.1530
 4742TIP3    H214191   5.886   5.782   3.160 -1.0088 -1.1250 -0.6478
 4743TIP3   OH214192   0.049   6.670   4.729 -0.3709 -0.1391 -0.2362
 4743TIP3    H114193   0.091   6.695   4.811  1.0125 -0.4924 -0.8116
 4743TIP3    H214194  -0.015   6.740   4.713  0.2036  0.5845  0.5084
 4744TIP3   OH214195   2.161   3.460   2.799  0.1187 -0.1176  0.0408
 4744TIP3    H114196   2.224   3.451   2.727 -2.1678 -0.2079 -2.1068
 4744TIP3    H214197   2.099   3.389   2.785 -0.5436  0.0184  2.0102
 4745TIP3   OH214198   5.407   5.484   2.065 -0.0356  0.0744 -0.2236
 4745TIP3    H114199   5.458   5.437   2.130 -0.2929  0.2134  0.0822
 4745TIP3    H214200   5.468   5.547   2.026  0.4615 -0.8851 -1.0317
 4746TIP3   OH214201   4.481   6.293   1.469  0.0295  0.5193 -0.1489
 4746TIP3    H114202   4.533   6.247   1.403 -1.4093  1.8224 -2.3334
 4746TIP3    H214203   4.539   6.362   1.501  1.1465 -0.8424  0.8830
 4747TIP3   OH214204   2.854   4.585   2.057  0.0713  0.6406 -0.3523
 4747TIP3    H114205   2.835   4.619   2.144 -0.9193  2.9384 -1.3673
 4747TIP3    H214206   2.949   4.575   2.055  0.3072  2.2874  0.4756
 4748TIP3   OH214207   4.110   6.179   5.403 -0.0438  0.2576 -0.0305
 4748TIP3    H114208   4.034   6.224   5.439 -0.2101  0.9513 -1.1898
 4748TIP3    H214209   4.077   6.136   5.324 -0.1777 -2.9499  1.5777
 4749TIP3   OH214210   2.544   4.139   1.436  0.0651  0.4562  0.3439
 4749TIP3    H114211   2.583   4.096   1.512  0.1142  0.7993  0.5143
 4749TIP3    H214212   2.615   4.148   1.373 -0.2632 -1.0137 -0.2770
 4750TIP3   OH214213   6.790   4.266   4.937 -0.3770  0.3196  0.1490
 4750TIP3    H114214   6.876   4.253   4.976 -0.1887  0.4348 -0.2194
 4750TIP3    H214215   6.805   4.256   4.843 -1.0313 -1.0820  0.1760
 4751TIP3   OH214216   1.820   6.314   5.196  0.3034 -0.5995  0.7859
 4751TIP3    H114217   1.901   6.339   5.151 -1.0509  1.1742 -0.8249
 4751TIP3    H214218   1.795   6.231   5.155  0.6883 -0.5611  0.4653
 4752TIP3   OH214219   5.050   0.147   4.960 -0.1105 -0.8101  0.1676
 4752TIP3    H114220   5.138   0.180   4.942 -0.1621 -0.7803 -0.0391
 4752TIP3    H214221   5.012   0.134   4.873 -0.5561 -0.1520  0.2545
 4753TIP3   OH214222   6.099   3.261   0.480 -0.0249  0.8143 -0.5534
 4753TIP3    H114223   6.132   3.261   0.570 -2.1140  3.8759  0.3671
 4753TIP3    H214224   6.027   3.197   0.481  1.0204 -0.4144 -0.5913
 4754TIP3   OH214225   2.598   1.721   1.829  0.5039 -0.2519 -0.2041
 4754TIP3    H114226   2.607   1.699   1.737  0.6401 -0.9136 -0.0335
 4754TIP3    H214227   2.506   1.748   1.838  0.6325  0.3725 -0.6388
 4755TIP3   OH214228   1.677   5.713   1.292 -0.3227 -0.0902 -0.6528
 4755TIP3    H114229   1.770   5.736   1.294 -0.5401  0.7879 -0.5324
 4755TIP3    H214230   1.676   5.618   1.307  0.4351  0.1590  1.1877
 4756TIP3   OH214231   7.176   3.659   1.684  0.1334  0.0555  0.2314
 4756TIP3    H114232   7.180   3.752   1.662 -1.2849  0.1780  0.3575
 4756TIP3    H214233   7.246   3.646   1.748  0.3493  1.0463  0.2053
 4757TIP3   OH214234   7.090   2.449   5.214 -0.1976  0.1279  0.0516
 4757TIP3    H114235   7.170   2.481   5.175 -0.3850 -0.5290 -0.9084
 4757TIP3    H214236   7.020   2.488   5.162 -0.4284 -1.7486 -1.1201
 4758TIP3   OH214237   1.817   5.080   0.646  0.8040 -0.0776 -0.2474
 4758TIP3    H114238   1.815   5.175   0.658 -0.9460 -0.1512  0.3644
 4758TIP3    H214239   1.909   5.060   0.628  1.5306  1.5167  1.3740
 4759TIP3   OH214240  -0.017   0.241   1.415  0.5233  0.9221 -0.1874
 4759TIP3    H114241   0.030   0.324   1.428  0.7798  0.8201 -0.4771
 4759TIP3    H214242   0.050   0.179   1.389  0.4649  0.4172  0.8162
 4760TIP3   OH214243   7.086   4.953   4.753 -0.0464  0.0149 -0.3051
 4760TIP3    H114244   7.127   4.985   4.833  0.3487 -1.3892  0.0744
 4760TIP3    H214245   7.149   4.891   4.716 -1.4008 -1.4627 -0.2118
 4761TIP3   OH214246   1.578   3.215   3.038  0.0438 -0.4612  0.8332
 4761TIP3    H114247   1.588   3.310   3.043  0.5483 -0.4920  0.5032
 4761TIP3    H214248   1.583   3.185   3.129  0.0964 -0.1920  0.9197
 4762TIP3   OH214249   2.034   6.273   2.595  0.1111  0.3206  0.3883
 4762TIP3    H114250   1.972   6.344   2.579 -1.5121 -1.6941 -3.5855
 4762TIP3    H214251   2.030   6.258   2.690 -1.8533  3.3682  0.9112
 4763TIP3   OH214252   4.238   1.682   4.784  0.2697 -0.0617  0.3724
 4763TIP3    H114253   4.170   1.675   4.851  0.3102 -0.2307  0.3950
 4763TIP3    H214254   4.230   1.772   4.752 -1.7995 -0.8489 -1.5857
 4764TIP3   OH214255   0.653   1.248   2.334 -0.3685  0.1848  0.1867
 4764TIP3    H114256   0.708   1.209   2.265 -0.8430  0.6830 -0.4889
 4764TIP3    H214257   0.681   1.339   2.338  0.5556 -0.1306  1.5852
 4765TIP3   OH214258   4.746   2.909   3.131  0.0926 -0.4152 -0.4621
 4765TIP3    H114259   4.785   2.966   3.065 -1.3054  0.5626 -0.4965
 4765TIP3    H214260   4.728   2.966   3.205  0.3795 -1.2193  0.2482
 4766TIP3   OH214261   5.591   2.613   1.604 -0.1804  0.4821  0.0970
 4766TIP3    H114262   5.525   2.681   1.620 -0.9031 -0.7279  2.8303
 4766TIP3    H214263   5.555   2.562   1.532 -1.2188  1.0777  0.1725
 4767TIP3   OH214264   5.952   5.975   2.736 -0.0950  0.2755 -0.1487
 4767TIP3    H114265   5.880   5.960   2.674 -1.0150  1.5050  0.5706
 4767TIP3    H214266   5.985   5.888   2.756 -2.1645 -0.4615  0.3804
 4768TIP3   OH214267   3.896   0.606   3.558 -0.0243 -0.6019  0.1221
 4768TIP3    H114268   3.837   0.678   3.582  1.0263  0.1714  0.4515
 4768TIP3    H214269   3.959   0.645   3.498 -0.1351 -1.5441 -0.6363
 4769TIP3   OH214270   0.024   2.982   4.365 -0.3502  0.0502 -0.1474
 4769TIP3    H114271   0.100   3.025   4.406 -0.0255 -0.0545 -0.6282
 4769TIP3    H214272   0.045   2.889   4.368 -0.3801  0.0339 -0.4416
 4770TIP3   OH214273   0.626   1.652   5.087  0.2767  0.3500 -0.4788
 4770TIP3    H114274   0.605   1.579   5.146  0.5604  1.7619  1.4879
 4770TIP3    H214275   0.553   1.714   5.100  0.3598  0.7065 -1.6244
 4771TIP3   OH214276   5.113   2.216   0.228  0.1495 -0.3023 -0.0490
 4771TIP3    H114277   5.027   2.189   0.196  0.5087 -1.6922  0.0711
 4771TIP3    H214278   5.106   2.311   0.240 -1.4587 -0.4266  0.2590
 4772TIP3   OH214279   0.736   4.415   0.699 -0.2319 -0.5522 -0.2352
 4772TIP3    H114280   0.656   4.422   0.647 -0.2611 -0.2723 -0.1541
 4772TIP3    H214281   0.806   4.400   0.635 -0.1684  0.4603 -0.4180
 4773TIP3   OH214282   2.877   3.755   3.926  0.2834  0.0163 -0.3211
 4773TIP3    H114283   2.844   3.673   3.963 -1.2443 -0.3473 -2.3314
 4773TIP3    H214284   2.972   3.749   3.936  0.0787 -0.9071  1.6662
 4774TIP3   OH214285   5.400   5.551   4.411 -0.2683  0.1021 -0.0182
 4774TIP3    H114286   5.328   5.540   4.349 -1.2875  2.2691  0.6971
 4774TIP3    H214287   5.428   5.461   4.430 -0.7471 -0.6954 -2.5791
 4775TIP3   OH214288   3.703   0.157   2.633  0.5549  0.5315  0.0520
 4775TIP3    H114289   3.742   0.237   2.598  1.8610  1.2093  2.8177
 4775TIP3    H214290   3.776   0.096   2.642 -0.1933 -0.5366 -0.7107
 4776TIP3   OH214291   4.958   5.512   1.419  0.2365  0.3968  0.1632
 4776TIP3    H114292   4.893   5.554   1.475 -1.4565  0.0423 -1.4587
 4776TIP3    H214293   4.938   5.418   1.424  1.9815  0.0306  1.2628
 4777TIP3   OH214294   3.042   2.711   2.803  0.2792  0.6339 -0.1400
 4777TIP3    H114295   3.134   2.698   2.784  0.0038 -0.3433 -0.8957
 4777TIP3    H214296   3.024   2.652   2.877 -0.1135 -0.5255 -1.1229
 4778TIP3   OH214297   3.877   1.181   2.891 -0.4526  0.1421 -0.2099
 4778TIP3    H114298   3.812   1.112   2.881 -1.1280  1.0102 -2.3280
 4778TIP3    H214299   3.954   1.149   2.843 -0.1476  0.1397  0.2707
 4779TIP3   OH214300   3.174   5.105   0.190  0.4263 -0.0003 -0.8072
 4779TIP3    H114301   3.176   5.050   0.112 -0.0000 -1.1322 -0.0443
 4779TIP3    H214302   3.082   5.132   0.199  0.4062 -0.1551 -0.5179
 4780TIP3   OH214303   1.036   0.441   5.842 -0.5280  0.3851 -0.2131
 4780TIP3    H114304   1.109   0.459   5.782  1.7779  0.9777  2.5577
 4780TIP3    H214305   0.989   0.524   5.847  0.1814  0.7918 -0.0610
 4781TIP3   OH214306   7.139   4.606   4.439 -0.0273 -0.2674  0.7585
 4781TIP3    H114307   7.053   4.565   4.449 -0.2108 -0.0955 -0.0691
 4781TIP3    H214308   7.186   4.549   4.379  0.9267 -1.0778  2.2214
 4782TIP3   OH214309   4.089   3.541   4.041 -0.4134 -0.2728 -0.0133
 4782TIP3    H114310   4.040   3.551   3.959 -1.6379 -3.0132  0.2639
 4782TIP3    H214311   4.027   3.502   4.102  1.2475 -0.8958  1.3748
 4783TIP3   OH214312   3.861   3.715   0.683  0.0774 -0.2656  0.3885
 4783TIP3    H114313   3.839   3.768   0.760  2.1376 -0.8431  1.4401
 4783TIP3    H214314   3.953   3.735   0.665 -0.7077  1.0175 -2.9442
 4784TIP3   OH214315   2.483   1.414   5.057  0.0839 -0.3279 -0.3340
 4784TIP3    H114316   2.507   1.322   5.054 -1.2328 -0.7722  1.2319
 4784TIP3    H214317   2.481   1.435   5.151  0.3304  1.2931 -0.6614
 4785TIP3   OH214318   7.106   4.335   5.527  0.4550 -0.2957  0.3382
 4785TIP3    H114319   7.053   4.256   5.521 -0.2238  0.1756 -0.0219
 4785TIP3    H214320   7.065   4.387   5.597  0.4689  0.0450  0.0980
 4786TIP3   OH214321   0.645   0.021   5.003 -0.5064  0.0943 -0.0583
 4786TIP3    H114322   0.603   0.085   4.946 -1.6429 -0.7180 -0.1699
 4786TIP3    H214323   0.714   0.070   5.048 -0.0862  0.9217 -1.5494
 4787TIP3   OH214324   0.974   5.775   4.373  0.1742  0.3935  0.2133
 4787TIP3    H114325   0.945   5.684   4.375  0.0951  0.4254  1.6615
 4787TIP3    H214326   1.012   5.790   4.459 -0.6632  2.0001  0.3477
 4788TIP3   OH214327   5.347   2.942   5.292 -0.1503  0.1117  0.3283
 4788TIP3    H114328   5.433   2.910   5.319 -1.6203 -1.9094  3.2439
 4788TIP3    H214329   5.332   3.019   5.346  0.0196  0.7808 -0.5660
 4789TIP3   OH214330   1.298   3.319   2.258  0.2215  0.1271  0.2287
 4789TIP3    H114331   1.312   3.224   2.250  2.0127  0.4365 -0.9777
 4789TIP3    H214332   1.243   3.342   2.184  0.8081  0.1817 -0.2015
 4790TIP3   OH214333   5.590   1.093   0.691 -0.1289 -0.2577 -0.1989
 4790TIP3    H114334   5.625   1.136   0.613  1.3862 -2.0107 -0.5540
 4790TIP3    H214335   5.496   1.110   0.687  0.1557  1.2151 -1.4267
 4791TIP3   OH214336   3.657   4.417   4.146 -0.0268 -0.3447  0.2331
 4791TIP3    H114337   3.695   4.493   4.103  0.9772 -1.3936 -0.7945
 4791TIP3    H214338   3.722   4.392   4.212 -0.5580 -0.0705  0.8773
 4792TIP3   OH214339   0.763   1.867   0.393 -0.3087 -1.0962  0.0923
 4792TIP3    H114340   0.704   1.849   0.466  0.3270  1.2690  1.3012
 4792TIP3    H214341   0.710   1.920   0.333  0.8237  2.5993  2.0118
 4793TIP3   OH214342   6.688   6.641   0.099 -0.3368 -0.2088 -0.1702
 4793TIP3    H114343   6.601   6.680   0.098  0.0353  0.6478 -0.0905
 4793TIP3    H214344   6.742   6.701   0.150  0.6385  0.0413 -1.4283
 4794TIP3   OH214345   5.388   1.691   0.212 -0.6572 -0.6909 -0.6846
 4794TIP3    H114346   5.321   1.679   0.280 -0.4174  0.9029 -0.1270
 4794TIP3    H214347   5.467   1.715   0.260  0.1083 -1.6739 -1.4044
 4795TIP3   OH214348   0.504   3.466   1.797 -0.4072  0.1070 -0.3433
 4795TIP3    H114349   0.474   3.440   1.884 -0.0955 -0.3216 -0.3584
 4795TIP3    H214350   0.580   3.410   1.780  1.3382  2.1427  0.3022
 4796TIP3   OH214351   1.330   5.272   2.374  0.2455  0.2341  0.3831
 4796TIP3    H114352   1.314   5.177   2.376  0.2418  0.2353  0.4173
 4796TIP3    H214353   1.274   5.306   2.443  1.6369  0.0478  1.6625
 4797TIP3   OH214354   2.795   2.627   5.508 -0.0290  0.7211 -0.0317
 4797TIP3    H114355   2.750   2.708   5.533  0.4738  1.3802 -1.2049
 4797TIP3    H214356   2.802   2.632   5.413  0.8227 -0.2769 -0.0307
 4798TIP3   OH214357   3.776   3.359   4.018 -0.1993 -0.4069 -0.0455
 4798TIP3    H114358   3.812   3.277   3.983 -2.4779 -1.2549 -0.5519
 4798TIP3    H214359   3.733   3.334   4.099 -0.1264  0.4915  0.2867
 4799TIP3   OH214360   1.319   2.833   3.506  0.0471 -0.0430 -0.4959
 4799TIP3    H114361   1.271   2.819   3.425 -1.1443 -0.4427  0.2574
 4799TIP3    H214362   1.256   2.815   3.575  1.2057 -0.3158  0.5343
 4800TIP3   OH214363   0.085   1.150   4.520  0.5984 -0.7142  0.5395
 4800TIP3    H114364   0.096   1.234   4.564  0.7367 -0.7258  0.5265
 4800TIP3    H214365  -0.009   1.132   4.527  0.3713  0.0099 -0.5087
 4801TIP3   OH214366   1.516   6.459   4.037  0.2500 -0.1606  0.1922
 4801TIP3    H114367   1.534   6.548   4.067  2.9894 -0.7070  0.4403
 4801TIP3    H214368   1.602   6.424   4.013 -0.8631 -2.4491 -0.7712
 4802TIP3   OH214369   6.930   6.416   5.830 -0.0960 -0.2902 -0.1216
 4802TIP3    H114370   6.906   6.486   5.890  2.5309 -0.7127  1.5647
 4802TIP3    H214371   6.980   6.354   5.883  2.0881 -0.8629 -2.6197
 4803TIP3   OH214372   1.669   5.895   1.967  0.3986  0.4577 -0.1334
 4803TIP3    H114373   1.689   5.970   2.024  0.1852  0.4972 -0.1093
 4803TIP3    H214374   1.675   5.819   2.024  0.1158  0.5035 -0.0391
 4804TIP3   OH214375   0.418   4.325   1.597  0.5246  0.1332  0.8201
 4804TIP3    H114376   0.464   4.386   1.654  0.2832  0.8332  0.2955
 4804TIP3    H214377   0.487   4.278   1.550  0.7148  0.4985  0.7312
 4805TIP3   OH214378   0.309   3.492   0.651 -0.4740  0.5736 -0.0594
 4805TIP3    H114379   0.383   3.504   0.593  0.3402 -0.0066  0.8336
 4805TIP3    H214380   0.243   3.447   0.598  0.1626  0.2718 -0.5959
 4806TIP3   OH214381   2.144   5.094   3.230 -0.3339 -0.6836 -0.1873
 4806TIP3    H114382   2.094   5.130   3.157  2.3891  1.3394 -1.2297
 4806TIP3    H214383   2.116   5.145   3.306  0.8121  1.1780 -0.9603
 4807TIP3   OH214384   5.175   1.699   5.442 -0.3904  0.0299  0.0359
 4807TIP3    H114385   5.123   1.761   5.391  0.7485 -0.0289 -1.2569
 4807TIP3    H214386   5.112   1.654   5.498 -1.5762  0.6162 -0.8043
 4808TIP3   OH214387   6.667   6.296   0.792 -0.5960 -0.1238  0.2973
 4808TIP3    H114388   6.688   6.288   0.885 -1.9884 -1.0547  0.5603
 4808TIP3    H214389   6.749   6.324   0.751  0.9625 -2.7180  1.3634
 4809TIP3   OH214390   1.198   3.904   4.709 -0.0664  0.6640 -0.3470
 4809TIP3    H114391   1.270   3.925   4.768 -0.0248  0.3733 -0.2919
 4809TIP3    H214392   1.190   3.980   4.651  1.3443  0.0346 -1.4103
 4810TIP3   OH214393   4.001   5.567   4.086  0.4269  0.3176 -0.3586
 4810TIP3    H114394   3.911   5.588   4.108  0.0908 -1.2796 -0.0990
 4810TIP3    H214395   4.037   5.527   4.165  0.8083 -0.6583 -1.0034
 4811TIP3   OH214396   2.068   0.367   0.082  0.3887 -0.6733  0.2687
 4811TIP3    H114397   2.078   0.460   0.062  1.3203 -0.8315 -0.0512
 4811TIP3    H214398   2.006   0.365   0.155 -0.3651  0.1311 -0.3222
 4812TIP3   OH214399   5.290   4.002   3.326 -0.1311 -0.1053  0.1175
 4812TIP3    H114400   5.286   3.966   3.415  0.1371  0.1054  0.2168
 4812TIP3    H214401   5.229   3.948   3.275  1.1504 -1.5017 -0.0058
 4813TIP3   OH214402   5.384   0.851   5.372 -0.8038  0.1310 -0.0351
 4813TIP3    H114403   5.294   0.822   5.389 -0.9289  0.3735 -0.2725
 4813TIP3    H214404   5.389   0.938   5.411 -0.4730 -0.1515  0.5487
 4814TIP3   OH214405   0.226   5.873   2.414 -0.0662  0.2971  0.6720
 4814TIP3    H114406   0.229   5.901   2.505  2.9721  2.5864  0.0110
 4814TIP3    H214407   0.307   5.824   2.401  1.1410  2.6051 -1.4133
 4815TIP3   OH214408   2.518   2.671   2.473 -0.1762  0.2440 -0.1993
 4815TIP3    H114409   2.601   2.625   2.479 -0.3436 -0.0033  0.2118
 4815TIP3    H214410   2.516   2.704   2.383  1.5088  2.4068  0.4422
 4816TIP3   OH214411   5.761   5.151   4.957 -0.1899 -0.3501 -0.1658
 4816TIP3    H114412   5.816   5.074   4.944 -0.5300 -0.5242 -0.5758
 4816TIP3    H214413   5.810   5.204   5.021 -0.3483 -1.2845  0.7590
 4817TIP3   OH214414   6.467   5.307   1.655 -0.4602 -0.1947  0.0847
 4817TIP3    H114415   6.485   5.213   1.647  1.7318 -0.0879  2.3315
 4817TIP3    H214416   6.491   5.328   1.745  1.2550  2.9122 -0.9372
 4818TIP3   OH214417   6.753   5.665   3.618 -0.3012  0.1984  0.3210
 4818TIP3    H114418   6.773   5.625   3.702 -1.6877 -2.7611 -0.6493
 4818TIP3    H214419   6.667   5.705   3.630  1.0679  3.1457  1.2791
 4819TIP3   OH214420   7.194   2.367   0.177  0.0443  0.0547  0.8851
 4819TIP3    H114421   7.104   2.362   0.209 -0.3792 -1.3672 -0.3871
 4819TIP3    H214422   7.188   2.421   0.098 -0.4483 -2.7898 -1.2308
 4820TIP3   OH214423   2.009   5.144   5.283 -0.6226  0.5896  0.2376
 4820TIP3    H114424   1.969   5.057   5.291 -2.6105  1.4079 -0.2638
 4820TIP3    H214425   2.076   5.133   5.215 -0.9314 -0.5284  0.0924
 4821TIP3   OH214426   2.243   5.139   4.579  0.1881 -0.6633 -0.2086
 4821TIP3    H114427   2.237   5.053   4.538 -2.2367 -0.1412 -1.0574
 4821TIP3    H214428   2.337   5.159   4.579  0.5904 -2.3299 -2.0126
 4822TIP3   OH214429   3.156   3.869   4.007  0.4483 -0.2769 -0.3508
 4822TIP3    H114430   3.102   3.937   3.967 -0.2159 -1.2966 -1.2522
 4822TIP3    H214431   3.240   3.874   3.961 -0.1692 -1.1636 -1.6508
 4823TIP3   OH214432   0.226   4.970   2.787  0.2476 -0.5634  0.0204
 4823TIP3    H114433   0.220   4.876   2.769  1.5818 -0.6205 -0.1970
 4823TIP3    H214434   0.192   4.979   2.876  1.9191 -1.5531  0.7996
 4824TIP3   OH214435   1.146   2.914   0.622 -0.0298 -0.5297  0.1582
 4824TIP3    H114436   1.157   2.859   0.545 -2.0340  0.2271 -0.7243
 4824TIP3    H214437   1.180   3.000   0.595 -0.7462 -0.2609  0.0804
 4825TIP3   OH214438   5.637   5.030   4.744 -0.3032  0.8963  0.4442
 4825TIP3    H114439   5.548   5.007   4.770 -0.2121  0.1521  0.1043
 4825TIP3    H214440   5.678   5.062   4.825 -0.2727 -0.6199  1.0646
 4826TIP3   OH214441   3.170   1.354   5.130 -0.2233  0.6366 -0.0054
 4826TIP3    H114442   3.242   1.343   5.067  0.4337 -0.3557  0.8715
 4826TIP3    H214443   3.123   1.271   5.127 -0.7914  0.9507  0.0945
 4827TIP3   OH214444   0.272   5.083   4.248  0.1946 -0.0500  0.3792
 4827TIP3    H114445   0.264   5.125   4.162 -0.2048  1.5714  1.1640
 4827TIP3    H214446   0.317   5.001   4.230  0.1927  0.2858 -1.3740
 4828TIP3   OH214447   2.185   5.321   1.183 -0.3457 -0.1353 -0.2529
 4828TIP3    H114448   2.273   5.286   1.193 -0.2479 -0.5794 -2.2082
 4828TIP3    H214449   2.193   5.414   1.201  0.3516 -0.3120  0.3853
 4829TIP3   OH214450   7.138   3.447   2.137 -0.1286 -0.2826 -0.1382
 4829TIP3    H114451   7.171   3.497   2.211  0.0304 -0.2169 -0.2514
 4829TIP3    H214452   7.088   3.375   2.175 -0.2745 -0.0932  0.0278
 4830TIP3   OH214453   2.441   4.223   0.234  0.0380 -0.0516  0.8810
 4830TIP3    H114454   2.355   4.206   0.195  0.1162  2.0664 -0.3729
 4830TIP3    H214455   2.421   4.273   0.313  0.1062  1.4896 -0.0359
 4831TIP3   OH214456   3.932   6.767   0.569 -0.0387  0.2214  0.0621
 4831TIP3    H114457   3.912   6.859   0.551  0.0420  0.1794 -0.2476
 4831TIP3    H214458   4.010   6.749   0.517  1.6901  0.7794  2.3122
 4832TIP3   OH214459   0.565   1.452   4.578 -0.2745 -0.2220 -0.4592
 4832TIP3    H114460   0.573   1.517   4.648 -0.2584 -0.4845 -0.2180
 4832TIP3    H214461   0.635   1.389   4.596 -1.2390 -1.1440  0.1961
 4833TIP3   OH214462   7.035   0.006   2.958  0.2584 -0.1733 -0.3834
 4833TIP3    H114463   7.043  -0.055   2.884  1.5093  0.6448 -0.9663
 4833TIP3    H214464   6.978   0.075   2.926 -0.9379 -0.8717  0.1834
 4834TIP3   OH214465   5.127   4.830   1.265  0.3853 -0.1291 -0.2332
 4834TIP3    H114466   5.132   4.910   1.317  2.2444  0.5935 -1.4123
 4834TIP3    H214467   5.069   4.853   1.192 -0.2677 -0.3676  0.1953
 4835TIP3   OH214468   0.837   4.579   3.481 -0.9102 -0.1308  0.2064
 4835TIP3    H114469   0.905   4.610   3.421  0.2303 -3.9357 -0.7746
 4835TIP3    H214470   0.866   4.606   3.567  2.5298 -2.3823 -0.0715
 4836TIP3   OH214471   4.904   0.952   4.055  0.0923  0.7277  0.2569
 4836TIP3    H114472   4.980   0.900   4.080 -1.4977 -1.5978  0.5882
 4836TIP3    H214473   4.829   0.907   4.095 -1.6349  2.0275 -1.2983
 4837TIP3   OH214474   7.064   6.061   0.907 -1.0641 -0.3266 -0.1693
 4837TIP3    H114475   7.143   6.029   0.862 -0.4837 -0.6337  1.0094
 4837TIP3    H214476   7.024   6.121   0.845 -0.8258 -1.4587 -1.4646
 4838TIP3   OH214477   3.321   5.831   5.180 -0.7800  0.3790  0.2475
 4838TIP3    H114478   3.266   5.859   5.107 -2.0064 -0.4243  0.8377
 4838TIP3    H214479   3.272   5.856   5.258  1.5185  3.2962  0.9240
 4839TIP3   OH214480   1.415   4.108   2.201  0.6562  0.2550  0.1899
 4839TIP3    H114481   1.468   4.042   2.156 -1.3376 -1.6241  0.4719
 4839TIP3    H214482   1.427   4.088   2.294 -1.8131 -1.3432  0.2417
 4840TIP3   OH214483   6.026   0.723   0.268 -0.2191  0.2573 -0.0918
 4840TIP3    H114484   6.119   0.730   0.291 -0.2554 -0.5753  0.3243
 4840TIP3    H214485   5.995   0.814   0.268  0.5856  0.5412 -0.2065
 4841TIP3   OH214486   1.463   2.980   3.693 -0.0464  0.4418  0.2527
 4841TIP3    H114487   1.420   2.936   3.620  1.2824 -0.4974 -0.0075
 4841TIP3    H214488   1.479   3.069   3.662  1.2224 -0.1692 -0.9479
 4842TIP3   OH214489   5.673   6.507   5.331  0.4245  0.0531 -0.1988
 4842TIP3    H114490   5.746   6.502   5.391 -0.3911 -1.2523  0.7440
 4842TIP3    H214491   5.707   6.553   5.254  2.0923 -0.1737  0.3804
 4843TIP3   OH214492   1.897   5.326   2.020  0.0923 -0.2919  0.3491
 4843TIP3    H114493   1.807   5.333   2.052 -0.8543 -2.7204 -1.4801
 4843TIP3    H214494   1.897   5.375   1.938  0.3360 -0.6234  0.1505
 4844TIP3   OH214495   0.874   3.369   1.258 -0.1748 -0.4431  0.1365
 4844TIP3    H114496   0.899   3.425   1.184 -0.2999 -0.2988  0.2016
 4844TIP3    H214497   0.949   3.310   1.270  0.6108  0.6707  0.9981
 4845TIP3   OH214498   2.666   4.143   4.581  0.2040 -0.3509 -0.1859
 4845TIP3    H114499   2.663   4.066   4.526 -1.0728 -0.0402 -0.5756
 4845TIP3    H214500   2.671   4.109   4.670  1.8158 -0.8529 -0.4329
 4846TIP3   OH214501   0.272   3.326   5.842  0.1756 -0.3999 -0.5091
 4846TIP3    H114502   0.311   3.335   5.755 -0.8693  0.1411 -0.9463
 4846TIP3    H214503   0.332   3.269   5.890 -0.3815 -2.7109 -2.3305
 4847TIP3   OH214504   3.388   2.831   5.502  0.2182  0.6229  0.4155
 4847TIP3    H114505   3.424   2.752   5.542 -0.1100  0.1730 -0.1495
 4847TIP3    H214506   3.423   2.903   5.554  0.7741  0.1225  0.7494
 4848TIP3   OH214507   5.072   4.267   5.466 -0.1482  0.1004 -0.2541
 4848TIP3    H114508   4.987   4.261   5.510  0.0976  0.9887  0.3712
 4848TIP3    H214509   5.118   4.187   5.493  0.2520  0.9217  1.7213
 4849TIP3   OH214510   2.470   1.559   3.926  0.4238  0.4213 -0.2921
 4849TIP3    H114511   2.474   1.491   3.858 -0.7248  0.6594 -0.6322
 4849TIP3    H214512   2.553   1.606   3.919  0.8278 -0.3402 -0.7045
 4850TIP3   OH214513   6.099   1.829   4.530  0.4760  0.0011  0.1796
 4850TIP3    H114514   6.083   1.766   4.460  0.9706 -1.0706  0.9910
 4850TIP3    H214515   6.097   1.914   4.487  1.1244 -0.6508 -1.2068
 4851TIP3   OH214516   5.410   5.032   4.271 -0.7437 -0.6585 -0.3758
 4851TIP3    H114517   5.425   5.111   4.219  0.3700  1.2260  2.5935
 4851TIP3    H214518   5.495   4.988   4.274 -0.2948  0.2463  1.2936
 4852TIP3   OH214519   2.367   1.924   4.329 -0.1893 -0.0442  0.0390
 4852TIP3    H114520   2.454   1.947   4.361 -1.4246  3.2805  1.4949
 4852TIP3    H214521   2.362   1.966   4.243  0.0720 -1.4115 -0.6639
 4853TIP3   OH214522   2.844   2.027   1.503  0.0903 -0.1814 -0.5242
 4853TIP3    H114523   2.891   1.971   1.565 -0.4909 -0.4067 -0.2868
 4853TIP3    H214524   2.906   2.038   1.430  0.9366  0.4229  0.2628
 4854TIP3   OH214525   3.709   6.308   0.297  0.0567 -0.0858 -0.3292
 4854TIP3    H114526   3.616   6.330   0.301 -0.1754 -1.0286 -0.5770
 4854TIP3    H214527   3.750   6.374   0.354 -0.8819 -0.3253  0.6744
 4855TIP3   OH214528   3.271   0.155   2.381 -0.0498  0.5058 -0.4021
 4855TIP3    H114529   3.180   0.167   2.355 -0.0884  0.9592 -0.0705
 4855TIP3    H214530   3.267   0.149   2.477  0.1852 -0.2479 -0.4308
 4856TIP3   OH214531   2.208   5.938   4.962 -0.0407 -0.3751  0.4441
 4856TIP3    H114532   2.250   5.861   4.923  1.9184  0.5865  0.5354
 4856TIP3    H214533   2.224   6.008   4.899  0.6564  0.5657  1.6443
 4857TIP3   OH214534   1.909   1.509   4.214 -0.1803  0.1800 -0.2369
 4857TIP3    H114535   1.962   1.429   4.220  0.6902  0.8060  0.7722
 4857TIP3    H214536   1.929   1.557   4.295 -0.6810  1.4135 -0.8239
 4858TIP3   OH214537   6.141   1.541   3.252  0.1900 -0.0182  0.4273
 4858TIP3    H114538   6.144   1.453   3.216 -0.3675  0.6834 -1.4603
 4858TIP3    H214539   6.067   1.539   3.314  0.3215 -0.9170  0.5631
 4859TIP3   OH214540   6.686   5.930   1.871 -0.0185 -0.1226  0.3824
 4859TIP3    H114541   6.603   5.968   1.841  0.5492 -0.3137 -1.6335
 4859TIP3    H214542   6.737   6.006   1.901 -0.2363  0.2566 -0.1825
 4860TIP3   OH214543   4.018   2.982   1.817 -0.2773 -0.5105 -0.1011
 4860TIP3    H114544   4.077   2.995   1.743 -0.9646 -0.3235 -0.6315
 4860TIP3    H214545   3.931   2.992   1.779 -0.7396 -2.7484  0.2611
 4861TIP3   OH214546   3.446   5.334   3.475 -0.1854 -0.0122 -0.0975
 4861TIP3    H114547   3.459   5.243   3.500  4.3263  0.5225  0.3315
 4861TIP3    H214548   3.415   5.376   3.556 -0.5462 -0.8761  0.2214
 4862TIP3   OH214549   2.054   3.688   4.804 -0.2001  0.0390 -0.2552
 4862TIP3    H114550   2.128   3.670   4.745 -1.0966 -0.7942 -1.1532
 4862TIP3    H214551   1.977   3.688   4.747 -1.0474 -0.3817  0.8558
 4863TIP3   OH214552   2.241   5.213   0.869 -0.6642 -0.0255  0.6601
 4863TIP3    H114553   2.187   5.260   0.806  0.6496  0.0771 -0.4443
 4863TIP3    H214554   2.179   5.169   0.926 -1.9153 -0.5371 -1.0213
 4864TIP3   OH214555   3.721   5.173   4.468  0.4110  0.4654 -0.2024
 4864TIP3    H114556   3.629   5.148   4.462  0.3434  0.6910 -0.0833
 4864TIP3    H214557   3.728   5.224   4.548  0.9895 -1.0412  0.7591
 4865TIP3   OH214558   5.094   3.701   1.198  0.5350 -0.8288 -0.4809
 4865TIP3    H114559   5.096   3.617   1.153 -3.5519 -0.1976 -2.2175
 4865TIP3    H214560   5.058   3.681   1.285  1.8632 -1.1061  0.0360
 4866TIP3   OH214561   0.683   6.789   4.116  0.7014  0.1279 -0.0764
 4866TIP3    H114562   0.757   6.772   4.058  0.4981  0.3289 -0.4037
 4866TIP3    H214563   0.704   6.744   4.197  1.2910  0.3845 -0.0842
 4867TIP3   OH214564   0.047   6.260   3.982  0.2632 -0.4704 -0.3120
 4867TIP3    H114565  -0.016   6.207   3.933 -1.4193  1.6619 -0.5978
 4867TIP3    H214566   0.123   6.267   3.924 -0.7365  0.0228 -1.6031
 4868TIP3   OH214567   5.475   2.841   2.942 -0.3262  0.3526 -0.2811
 4868TIP3    H114568   5.482   2.931   2.909  0.8153  0.4719  0.2216
 4868TIP3    H214569   5.531   2.790   2.883  0.7490  0.3604  0.6828
 4869TIP3   OH214570   1.568   6.705   3.868 -0.4218  0.3224  0.4137
 4869TIP3    H114571   1.541   6.784   3.821 -0.1791 -0.3016 -0.8002
 4869TIP3    H214572   1.609   6.650   3.802  0.6301 -0.2644  1.5096
 4870TIP3   OH214573   4.772   2.422   3.862 -0.0481 -0.1491  0.0832
 4870TIP3    H114574   4.802   2.333   3.844 -0.4732 -0.3492  0.3564
 4870TIP3    H214575   4.728   2.416   3.947  0.8190  0.5188  0.6002
 4871TIP3   OH214576   2.695   0.651   2.575  0.2350  0.0789  0.2230
 4871TIP3    H114577   2.694   0.718   2.507 -1.3764  0.0949  0.2211
 4871TIP3    H214578   2.762   0.681   2.637  0.0957  1.2769 -0.1848
 4872TIP3   OH214579   4.374   4.151   4.091 -0.3177 -0.3174 -0.6320
 4872TIP3    H114580   4.317   4.228   4.099 -0.9267 -0.8886  1.1483
 4872TIP3    H214581   4.461   4.183   4.115 -0.4410 -0.0501 -0.5363
 4873TIP3   OH214582   0.096   3.581   1.169  0.4573  0.5285 -0.0004
 4873TIP3    H114583   0.119   3.669   1.142  1.0550  0.3838  0.0294
 4873TIP3    H214584   0.063   3.591   1.259  0.2717  0.7498 -0.0921
 4874TIP3   OH214585   5.617   2.504   2.229  0.0068 -0.1840  0.1134
 4874TIP3    H114586   5.613   2.419   2.184  1.1765  0.7779 -1.9900
 4874TIP3    H214587   5.631   2.567   2.158 -1.1472  1.8223  1.5877
 4875TIP3   OH214588   5.279   4.345   2.630  0.6138 -0.2581 -0.0458
 4875TIP3    H114589   5.285   4.250   2.643  0.2085 -0.1744  0.7896
 4875TIP3    H214590   5.301   4.357   2.537  2.8073 -0.9504  0.3152
 4876TIP3   OH214591   3.148   2.347   1.895 -0.1165  0.9165  0.0670
 4876TIP3    H114592   3.067   2.396   1.907 -0.6689 -0.3335  1.5633
 4876TIP3    H214593   3.125   2.275   1.836 -0.0976  0.5352  0.5265
 4877TIP3   OH214594   0.945   0.045   2.245  0.1172  0.7111 -0.2224
 4877TIP3    H114595   0.989   0.129   2.236  0.3326  0.5648 -0.5509
 4877TIP3    H214596   1.015  -0.020   2.236  0.3020  0.5166  2.0177
 4878TIP3   OH214597   3.016   0.233   5.097 -0.2240 -0.5777  0.0666
 4878TIP3    H114598   2.921   0.236   5.105 -0.2024 -0.9199  0.4923
 4878TIP3    H214599   3.043   0.161   5.154  0.3677  0.0533  0.6069
 4879TIP3   OH214600   4.852   5.121   4.147 -0.3682  0.7453  0.0716
 4879TIP3    H114601   4.787   5.060   4.183  1.6779 -0.6870  1.5553
 4879TIP3    H214602   4.907   5.065   4.092  1.5915  1.1853  1.5010
 4880TIP3   OH214603   0.290   0.362   1.951  0.3400  0.3712 -0.9480
 4880TIP3    H114604   0.357   0.429   1.963  0.9878 -0.2523 -1.0001
 4880TIP3    H214605   0.322   0.286   2.000  0.4237 -0.4401 -2.2099
 4881TIP3   OH214606   7.073   6.098   4.550  0.0481  0.1087 -0.1058
 4881TIP3    H114607   7.086   6.015   4.595 -0.1601  0.0200 -0.2092
 4881TIP3    H214608   7.162   6.129   4.530  0.0933 -0.9286 -1.6187
 4882TIP3   OH214609   3.828   4.625   4.053 -0.0396  0.1866 -0.1165
 4882TIP3    H114610   3.885   4.650   3.981  0.1982 -0.3557 -0.1233
 4882TIP3    H214611   3.775   4.703   4.070  1.2961  1.0195  0.4695
 4883TIP3   OH214612   4.647   4.366   4.843  0.1080  0.2879 -0.2597
 4883TIP3    H114613   4.697   4.357   4.925  1.5828 -0.3880 -1.1972
 4883TIP3    H214614   4.711   4.349   4.774 -1.8372 -2.8608 -1.4984
 4884TIP3   OH214615   2.367   4.842   5.535 -0.2488  0.8393 -0.1916
 4884TIP3    H114616   2.399   4.759   5.571 -2.2103  0.9962  2.1899
 4884TIP3    H214617   2.443   4.900   5.535  0.5637 -0.1821  0.6363
 4885TIP3   OH214618   3.749   3.425   3.177 -0.6596 -0.0433 -0.1732
 4885TIP3    H114619   3.738   3.361   3.106 -0.2822 -0.5861  0.2481
 4885TIP3    H214620   3.660   3.443   3.207 -0.7617 -0.4762 -0.2077
 4886TIP3   OH214621   1.640   2.213   1.543  0.1328  0.1125  0.1055
 4886TIP3    H114622   1.569   2.171   1.592 -0.2861  1.6098  0.8447
 4886TIP3    H214623   1.645   2.163   1.461 -0.0053 -1.6475  1.1117
 4887TIP3   OH214624   4.752   4.708   4.908 -0.0445  0.1175 -0.5379
 4887TIP3    H114625   4.770   4.708   4.814 -0.8406  0.8772 -0.7077
 4887TIP3    H214626   4.681   4.771   4.918  0.8054  0.9261  0.7210
 4888TIP3   OH214627   6.274   0.525   5.418  0.3006  0.0936  0.5683
 4888TIP3    H114628   6.224   0.606   5.426  0.0941 -0.0245  0.4747
 4888TIP3    H214629   6.211   0.455   5.435 -0.0153 -0.1537 -1.3731
 4889TIP3   OH214630   1.372   5.553   3.525  0.0228  0.0237  0.4747
 4889TIP3    H114631   1.389   5.542   3.619 -3.2369 -0.6804  1.1158
 4889TIP3    H214632   1.344   5.644   3.516  2.4574  0.7697 -0.3035
 4890TIP3   OH214633   2.989   0.408   0.621  0.0410 -0.1422 -0.2002
 4890TIP3    H114634   2.969   0.347   0.551 -3.5944  0.9182 -0.3231
 4890TIP3    H214635   2.967   0.360   0.701 -0.0418  0.0642 -0.0986
 4891TIP3   OH214636   1.363   4.292   0.332 -0.7583 -0.3307  0.0891
 4891TIP3    H114637   1.384   4.275   0.424 -2.1720  0.5683  0.6273
 4891TIP3    H214638   1.447   4.293   0.287 -0.2349 -4.2292  0.6935
 4892TIP3   OH214639   1.992   6.786   5.610 -0.4852 -0.4995 -0.0470
 4892TIP3    H114640   1.934   6.804   5.537 -0.3116 -0.2022 -0.1168
 4892TIP3    H214641   2.025   6.697   5.594 -1.1879 -0.8014  0.1805
 4893TIP3   OH214642   3.754   1.812   3.781 -0.4058 -0.0645  0.3290
 4893TIP3    H114643   3.706   1.748   3.832 -0.6695 -0.7765 -0.7898
 4893TIP3    H214644   3.845   1.780   3.781 -0.5558 -0.5161 -0.3156
 4894TIP3   OH214645   3.507   2.895   1.070 -0.0851 -0.6283  0.2601
 4894TIP3    H114646   3.526   2.986   1.094  0.1334 -0.2980 -1.0614
 4894TIP3    H214647   3.524   2.845   1.150 -0.1156  0.4761  0.9854
 4895TIP3   OH214648   3.232   4.469   3.158  0.0222 -0.1030 -0.0555
 4895TIP3    H114649   3.199   4.474   3.069  2.7827 -0.6966 -1.1979
 4895TIP3    H214650   3.229   4.376   3.180 -0.4382  0.0151  0.3971
 4896TIP3   OH214651   3.578   6.324   5.690  0.2267 -0.3883  0.2429
 4896TIP3    H114652   3.495   6.370   5.702  0.9384  1.4291 -1.2687
 4896TIP3    H214653   3.633   6.357   5.761  0.1709 -0.3172  0.2534
 4897TIP3   OH214654   6.925   3.761   1.047 -0.0369 -0.0131  0.0249
 4897TIP3    H114655   6.925   3.841   1.099 -0.5067  0.4854 -0.7282
 4897TIP3    H214656   7.012   3.759   1.006  0.2176 -0.2413  0.5646
 4898TIP3   OH214657   2.054   4.248   2.039  0.0317  0.7851  0.4165
 4898TIP3    H114658   2.004   4.329   2.030 -0.7998  0.1034 -1.5574
 4898TIP3    H214659   2.016   4.205   2.116 -1.2749  1.0804 -0.0367
 4899TIP3   OH214660   3.421   4.938   3.012 -0.0243 -0.3600  0.4760
 4899TIP3    H114661   3.448   4.848   3.030  0.2028 -0.2512  0.6753
 4899TIP3    H214662   3.337   4.928   2.967  0.0869 -0.6791  0.3256
 4900TIP3   OH214663   1.703   5.574   0.613  0.0608  0.1465 -0.6552
 4900TIP3    H114664   1.674   5.665   0.605 -1.6306 -0.3193 -0.2087
 4900TIP3    H214665   1.698   5.539   0.525 -0.6946  0.0986 -0.5989
 4901TIP3   OH214666   4.698   5.297   1.115  0.0655  0.2754 -0.1207
 4901TIP3    H114667   4.695   5.392   1.105 -2.2306  0.2533  0.0036
 4901TIP3    H214668   4.626   5.276   1.174  0.3348 -1.5891 -0.3921
 4902TIP3   OH214669   4.485   1.627   5.481  0.8820 -0.0330 -0.3231
 4902TIP3    H114670   4.507   1.580   5.561  3.0272  0.1321 -0.7630
 4902TIP3    H214671   4.476   1.718   5.508  1.4197 -0.0054 -0.2198
 4903TIP3   OH214672   5.882   6.214   0.703 -0.0104  0.0901 -0.8629
 4903TIP3    H114673   5.934   6.293   0.718  2.5623 -1.5557 -0.5154
 4903TIP3    H214674   5.853   6.221   0.612 -0.0161  1.4960 -0.7739
 4904TIP3   OH214675   3.093   4.597   1.704 -0.1440 -0.2362  0.2324
 4904TIP3    H114676   3.142   4.674   1.733  0.3523 -0.1372 -0.7996
 4904TIP3    H214677   3.003   4.629   1.695 -0.1247 -0.0307  0.7238
 4905TIP3   OH214678   5.294   4.730   1.997 -0.2342  0.1076 -0.1183
 4905TIP3    H114679   5.300   4.638   1.971 -2.0490  0.0805 -0.5848
 4905TIP3    H214680   5.208   4.738   2.036  1.1055  0.9512  2.9076
 4906TIP3   OH214681   2.584   0.636   4.873  0.1771  0.3723 -0.5041
 4906TIP3    H114682   2.655   0.615   4.933  0.1627 -1.0522 -0.9538
 4906TIP3    H214683   2.600   0.727   4.847  0.1452  1.0467  1.6845
 4907TIP3   OH214684   0.914   6.145   1.787  0.2409  0.2036  0.0167
 4907TIP3    H114685   1.002   6.180   1.803  0.1671  0.0753  0.7782
 4907TIP3    H214686   0.929   6.061   1.744  0.4133  1.2608 -2.1037
 4908TIP3   OH214687   0.273   1.206   3.642  0.1805 -0.0997 -0.4598
 4908TIP3    H114688   0.236   1.277   3.694  0.7319  0.8193 -1.2911
 4908TIP3    H214689   0.238   1.220   3.554  0.5243 -0.6889 -0.6958
 4909TIP3   OH214690   5.931   0.555   2.499 -0.1661 -0.0059  0.3429
 4909TIP3    H114691   5.854   0.613   2.504 -1.3700 -1.5700  0.6226
 4909TIP3    H214692   6.002   0.607   2.537 -1.0817  1.4550  0.1662
 4910TIP3   OH214693   1.174   2.783   4.174 -0.6077  0.0222  0.2353
 4910TIP3    H114694   1.227   2.719   4.127 -0.1652  1.2357 -0.9770
 4910TIP3    H214695   1.234   2.823   4.237 -0.8372 -0.6019  0.8634
 4911TIP3   OH214696   0.142   5.358   0.711 -0.0104 -0.4548  1.1209
 4911TIP3    H114697   0.105   5.380   0.625  1.3411  1.5348  0.9663
 4911TIP3    H214698   0.068   5.329   0.763 -1.2844  0.6540 -0.0011
 4912TIP3   OH214699   0.073   4.510   4.872 -0.2569 -0.4108 -0.4235
 4912TIP3    H114700   0.129   4.432   4.870 -0.8344 -0.9476  1.6112
 4912TIP3    H214701  -0.001   4.485   4.927 -0.8989  1.3100 -0.4438
 4913TIP3   OH214702   5.713   3.497   2.281 -0.6022  0.4378  0.6275
 4913TIP3    H114703   5.625   3.512   2.314 -0.4921  2.3736  0.1979
 4913TIP3    H214704   5.764   3.571   2.314  0.6041 -0.0528 -0.0445
 4914TIP3   OH214705   0.621   2.691   2.413  0.5359 -0.2311  0.5158
 4914TIP3    H114706   0.571   2.773   2.419  0.1102 -0.4033 -0.5967
 4914TIP3    H214707   0.712   2.720   2.405  0.4162  0.1286  0.4220
 4915TIP3   OH214708   0.472   5.854   1.534 -0.4671 -0.2306 -0.0002
 4915TIP3    H114709   0.448   5.763   1.554  0.3962 -0.8762 -1.7320
 4915TIP3    H214710   0.564   5.850   1.509 -0.6081  1.0060 -0.8216
 4916TIP3   OH214711   1.789   3.832   5.547  0.6738 -0.2334 -0.4102
 4916TIP3    H114712   1.697   3.815   5.566  0.4539  1.1289 -0.1456
 4916TIP3    H214713   1.790   3.921   5.511  1.8195 -0.4532 -0.9858
 4917TIP3   OH214714   2.156   0.428   1.803 -0.2186 -0.4635 -0.2859
 4917TIP3    H114715   2.170   0.441   1.897 -0.2863 -1.9889 -0.0388
 4917TIP3    H214716   2.241   0.399   1.770 -1.0816 -3.8465  0.1008
 4918TIP3   OH214717   1.553   2.570   0.390 -0.4383  0.0255 -0.5254
 4918TIP3    H114718   1.645   2.568   0.362 -0.2921  1.1244 -0.2024
 4918TIP3    H214719   1.534   2.481   0.419  0.3751 -0.3356 -1.0746
 4919TIP3   OH214720   5.558   0.804   0.279 -0.6572 -0.8452 -0.4090
 4919TIP3    H114721   5.556   0.847   0.193  2.9339 -0.2588 -0.3606
 4919TIP3    H214722   5.552   0.710   0.259 -0.1655 -0.6974 -1.2830
 4920TIP3   OH214723   3.070   5.101   3.461 -0.6039  0.1301  0.1933
 4920TIP3    H114724   3.149   5.087   3.512 -0.2645 -1.3466 -0.6586
 4920TIP3    H214725   3.057   5.196   3.461  1.7013  0.5104 -0.4158
 4921TIP3   OH214726   1.330   0.479   5.261  0.4546  0.8015  0.8714
 4921TIP3    H114727   1.262   0.428   5.304  0.6527  1.6152  2.1861
 4921TIP3    H214728   1.292   0.567   5.252  0.6265  0.7875 -0.1236
 4922TIP3   OH214729   1.140   4.377   0.748  0.1642 -0.3112  0.0131
 4922TIP3    H114730   1.209   4.317   0.777  1.6752  0.4661 -1.7404
 4922TIP3    H214731   1.186   4.459   0.731 -1.1364  0.1316 -1.5717
 4923TIP3   OH214732   2.684   4.949   2.717  0.1189 -0.6984 -0.4922
 4923TIP3    H114733   2.713   5.040   2.704 -1.9555  0.0811 -0.1029
 4923TIP3    H214734   2.690   4.936   2.811 -1.8485 -0.0748 -0.2304
 4924TIP3   OH214735   1.186   1.937   2.305 -0.0503  0.1441  0.2597
 4924TIP3    H114736   1.162   1.874   2.236  0.3515  0.0722  0.1854
 4924TIP3    H214737   1.250   1.994   2.263 -0.3795  0.5757  0.3429
 4925TIP3   OH214738   4.887   5.476   3.985 -0.4526 -0.2293 -0.6760
 4925TIP3    H114739   4.934   5.559   3.978  1.3891 -1.3258 -2.4275
 4925TIP3    H214740   4.923   5.435   4.063  1.9736 -1.2347 -2.2186
 4926TIP3   OH214741   2.574   3.001   5.374  0.0182 -0.0712  0.0051
 4926TIP3    H114742   2.575   2.921   5.323 -0.3652 -0.6626  0.9037
 4926TIP3    H214743   2.639   3.058   5.331 -0.3731 -0.4936 -1.1876
 4927TIP3   OH214744   5.197   3.805   4.995  0.1824  0.0962  0.2574
 4927TIP3    H114745   5.131   3.775   4.931 -0.0349  0.3613  0.3562
 4927TIP3    H214746   5.149   3.865   5.052  0.8641  1.5350 -0.6229
 4928TIP3   OH214747   1.211   3.746   0.715  0.1258  0.2017 -0.2236
 4928TIP3    H114748   1.281   3.709   0.770 -0.0546 -0.6574 -0.5600
 4928TIP3    H214749   1.253   3.760   0.630  0.1528  0.6260 -0.1391
 4929TIP3   OH214750   1.333   2.723   0.355  0.6946  0.2791 -0.1607
 4929TIP3    H114751   1.285   2.640   0.365  0.4228  0.4370 -0.1337
 4929TIP3    H214752   1.424   2.700   0.369  0.5540  0.0922  0.4646
 4930TIP3   OH214753   2.908   0.830   0.918  0.7843 -0.0839  0.0238
 4930TIP3    H114754   2.896   0.737   0.898  1.6350 -0.3297  0.6146
 4930TIP3    H214755   2.978   0.832   0.983 -0.7033  0.8221  1.6548
 4931TIP3   OH214756   3.595   4.241   3.345 -0.5513 -0.5789  0.0284
 4931TIP3    H114757   3.682   4.267   3.376 -0.3060 -1.0522 -0.2571
 4931TIP3    H214758   3.604   4.149   3.322 -1.2064 -0.7128  0.2724
 4932TIP3   OH214759   1.175   6.359   5.173  0.1976 -0.6106  0.1745
 4932TIP3    H114760   1.103   6.394   5.225  0.0165  0.9005 -1.0442
 4932TIP3    H214761   1.133   6.302   5.108 -0.2160  1.9314 -1.9331
 4933TIP3   OH214762   6.044   6.242   2.296 -0.2776  0.4730 -0.1372
 4933TIP3    H114763   6.011   6.313   2.351  0.0120  0.1968  0.3999
 4933TIP3    H214764   6.035   6.164   2.349  0.7309  0.3157 -0.1752
 4934TIP3   OH214765   5.432   2.445   1.382 -0.4469  0.1654  0.5270
 4934TIP3    H114766   5.403   2.497   1.307  0.2638  3.1014  2.1294
 4934TIP3    H214767   5.448   2.358   1.346  0.3513  1.5393 -2.8310
 4935TIP3   OH214768   0.866   4.160   5.157  0.3611 -0.4838  0.0502
 4935TIP3    H114769   0.776   4.162   5.190  0.1066 -1.6754 -0.5084
 4935TIP3    H214770   0.919   4.186   5.233 -0.4190 -0.1314  0.4930
 4936TIP3   OH214771   5.676   5.125   3.432  0.1880 -0.1579 -0.3599
 4936TIP3    H114772   5.691   5.072   3.354  1.6148 -1.8399  0.9833
 4936TIP3    H214773   5.626   5.070   3.491 -0.1935  0.7996  0.2451
 4937TIP3   OH214774   2.116   5.753   4.271 -0.4924 -0.2738 -0.2818
 4937TIP3    H114775   2.184   5.710   4.323  0.1379  0.7461 -0.2295
 4937TIP3    H214776   2.078   5.818   4.331 -2.2247 -1.4876  0.0134
 4938TIP3   OH214777   6.575   3.247   4.807  0.4699  0.4936  0.1317
 4938TIP3    H114778   6.539   3.168   4.847  1.1451  0.8569  1.5259
 4938TIP3    H214779   6.591   3.223   4.716 -2.2957  0.0025 -0.3289
 4939TIP3   OH214780   2.788   3.110   2.996 -0.8099  0.2263 -0.6116
 4939TIP3    H114781   2.803   3.180   2.932 -0.9191 -0.0473 -0.9385
 4939TIP3    H214782   2.841   3.037   2.963 -0.6696  0.1652 -0.2526
 4940TIP3   OH214783   2.410   2.829   4.414  0.1633 -0.1580  0.4960
 4940TIP3    H114784   2.348   2.877   4.468 -2.5403 -0.1275 -2.3761
 4940TIP3    H214785   2.410   2.741   4.450 -0.0758  0.3015  1.6668
 4941TIP3   OH214786   6.359   4.565   4.731 -0.1928  0.1552 -0.7468
 4941TIP3    H114787   6.313   4.514   4.663 -2.8142  1.8319 -0.3581
 4941TIP3    H214788   6.379   4.648   4.688 -0.9365  0.8365  0.2007
 4942TIP3   OH214789   6.562   0.695   4.120  0.2725 -0.0828  0.0724
 4942TIP3    H114790   6.640   0.651   4.086 -0.8523 -2.3880  0.2444
 4942TIP3    H214791   6.509   0.713   4.043 -0.0869 -0.7515  0.1593
 4943TIP3   OH214792   5.363   1.712   3.629 -0.4941  0.5531  0.5205
 4943TIP3    H114793   5.458   1.702   3.621 -0.5225  0.0061  0.8049
 4943TIP3    H214794   5.329   1.685   3.545 -0.4313  0.2431  0.5942
 4944TIP3   OH214795   7.138   0.828   5.120  0.6503 -0.0959  0.2075
 4944TIP3    H114796   7.204   0.759   5.111  0.1151 -0.5478 -0.2926
 4944TIP3    H214797   7.143   0.877   5.038  1.0361  0.4803  0.5645
 4945TIP3   OH214798   6.623   3.700   1.771 -0.2299 -0.3565  0.3646
 4945TIP3    H114799   6.667   3.640   1.831  1.2158  0.0787 -0.2237
 4945TIP3    H214800   6.532   3.704   1.803  1.0845  2.3492  4.5730
 4946TIP3   OH214801   3.912  -0.015   0.351  0.9323 -0.2268  0.2422
 4946TIP3    H114802   3.972   0.050   0.387 -1.6955  2.2159  0.5632
 4946TIP3    H214803   3.848  -0.030   0.420 -2.1489  1.8374 -1.8591
 4947TIP3   OH214804   2.671   5.101   0.069 -0.1873  0.2471  0.5180
 4947TIP3    H114805   2.612   5.030   0.044 -0.2829  0.1141  1.1109
 4947TIP3    H214806   2.728   5.063   0.136 -1.9014  1.3825  2.7628
 4948TIP3   OH214807   1.163   5.087   4.240  0.3609 -0.1853  0.3665
 4948TIP3    H114808   1.246   5.064   4.198 -0.7865 -0.7199 -1.7162
 4948TIP3    H214809   1.157   5.182   4.231 -0.7538 -0.4431 -2.5925
 4949TIP3   OH214810   6.013   1.813   4.040 -0.0589 -0.3447 -0.1001
 4949TIP3    H114811   6.012   1.740   4.102  0.5646 -0.9753 -0.8185
 4949TIP3    H214812   5.932   1.801   3.989  0.8423 -1.5298 -1.3219
 4950TIP3   OH214813   0.127   1.809   0.960  0.0955 -0.1255  0.1121
 4950TIP3    H114814   0.210   1.768   0.937  0.7565  0.8525  0.7137
 4950TIP3    H214815   0.081   1.742   1.012  0.0256 -1.0676 -1.1234
 4951TIP3   OH214816   2.595   2.118   3.916  0.3722  0.1641  0.3723
 4951TIP3    H114817   2.536   2.085   3.848 -0.7224 -0.3572  1.5478
 4951TIP3    H214818   2.537   2.154   3.983  1.4219  0.4446  1.1572
 4952TIP3   OH214819   1.251   0.528   0.299 -0.2586  0.3463  0.1331
 4952TIP3    H114820   1.295   0.443   0.300 -0.1294  0.4030  1.4575
 4952TIP3    H214821   1.296   0.578   0.368 -2.1865  0.5079  1.3394
 4953TIP3   OH214822   0.632   1.875   3.243  0.4495  0.1548  0.4008
 4953TIP3    H114823   0.621   1.851   3.151  1.7648  2.3796 -0.4180
 4953TIP3    H214824   0.623   1.793   3.290 -1.0322 -0.9307 -1.6336
 4954TIP3   OH214825   2.933   5.444   0.546  0.2238 -0.2023  0.2739
 4954TIP3    H114826   3.015   5.487   0.571  0.1921 -0.0675  0.1440
 4954TIP3    H214827   2.867   5.512   0.553  0.2374 -0.1221 -0.3236
 4955TIP3   OH214828   0.367   1.534   3.604  0.2907 -0.1464  0.0015
 4955TIP3    H114829   0.309   1.496   3.671  2.5778  0.7724  2.6722
 4955TIP3    H214830   0.453   1.497   3.623  1.3290  1.4194 -1.4124
 4956TIP3   OH214831   1.686   3.204   2.323 -0.2917 -0.6993  0.5226
 4956TIP3    H114832   1.695   3.196   2.228  0.8984 -2.0228  0.7103
 4956TIP3    H214833   1.661   3.117   2.352 -1.5393 -0.0942  1.3742
 4957TIP3   OH214834   6.332   3.609   5.762 -0.4976 -0.1250  0.6530
 4957TIP3    H114835   6.407   3.559   5.730  0.7202  0.7819  1.9850
 4957TIP3    H214836   6.328   3.685   5.705 -0.7676 -0.4477  0.2332
 4958TIP3   OH214837   7.172   6.327   3.500  0.0751 -0.2169  0.5674
 4958TIP3    H114838   7.256   6.318   3.455 -0.2896  2.1909 -0.7170
 4958TIP3    H214839   7.118   6.258   3.463  0.0115  1.2268 -2.2916
 4959TIP3   OH214840   5.107   5.132   5.484 -0.1004 -0.4962  0.0176
 4959TIP3    H114841   5.180   5.111   5.541  1.2201  1.3746 -0.8760
 4959TIP3    H214842   5.103   5.060   5.422  1.2651 -0.4544 -0.1457
 4960TIP3   OH214843   2.098   3.175   3.618 -0.2971 -0.4247 -0.2318
 4960TIP3    H114844   2.109   3.259   3.574  2.3177 -0.7200 -0.2984
 4960TIP3    H214845   2.177   3.166   3.671 -0.9236 -2.4759  0.4272
 4961TIP3   OH214846   2.115   0.872   3.147  0.2289 -0.3515 -0.3628
 4961TIP3    H114847   2.058   0.947   3.134  1.8655  1.0526  0.1064
 4961TIP3    H214848   2.132   0.839   3.059 -1.4292 -0.9348 -0.4916
 4962TIP3   OH214849   6.716   1.433   0.648 -0.0826 -0.3727  0.4582
 4962TIP3    H114850   6.804   1.455   0.679 -0.5168 -1.5806  2.7687
 4962TIP3    H214851   6.661   1.442   0.726 -1.5148 -2.3049 -0.2690
 4963TIP3   OH214852   5.246   1.320   1.610 -0.3568 -0.5420  0.0417
 4963TIP3    H114853   5.223   1.392   1.552  0.1022 -0.6863 -0.3184
 4963TIP3    H214854   5.251   1.360   1.697 -1.9741 -0.4963  0.1488
 4964TIP3   OH214855   4.133   3.149   2.024  0.9360  0.1494  0.3689
 4964TIP3    H114856   4.181   3.090   2.082  1.3453  0.5708  0.4731
 4964TIP3    H214857   4.090   3.092   1.961  2.6531 -0.1978 -0.5452
 4965TIP3   OH214858   6.403   3.116   5.674 -0.3196  0.1750 -0.3630
 4965TIP3    H114859   6.466   3.046   5.687  0.5827  0.7080 -1.6950
 4965TIP3    H214860   6.327   3.089   5.725  0.5153 -1.0878  0.2625
 4966TIP3   OH214861   0.144   1.217   5.026 -0.0765  0.5697  0.2399
 4966TIP3    H114862   0.166   1.146   5.086  2.5622  1.0381 -0.0393
 4966TIP3    H214863   0.152   1.296   5.078 -1.4990  0.7889  0.1642
 4967TIP3   OH214864   2.082   1.613   4.781 -0.6929 -0.2645  0.0049
 4967TIP3    H114865   2.094   1.703   4.812 -0.5026  0.1053 -1.0979
 4967TIP3    H214866   2.130   1.560   4.845  0.0789  0.5108  0.0895
 4968TIP3   OH214867   0.159   4.480   3.115 -0.6744  0.0052 -0.0756
 4968TIP3    H114868   0.160   4.568   3.076  3.4374 -0.5506 -1.7774
 4968TIP3    H214869   0.126   4.424   3.046  2.7957 -0.4447 -1.5802
 4969TIP3   OH214870   2.765   5.501   0.932 -0.5171  0.3973  0.2960
 4969TIP3    H114871   2.789   5.422   0.883  0.3046  1.2729 -0.7640
 4969TIP3    H214872   2.848   5.532   0.969 -0.3558  2.0525 -1.2888
 4970TIP3   OH214873   4.021   1.038   1.882 -0.1366 -0.4971  1.1996
 4970TIP3    H114874   3.942   1.065   1.927 -0.6288  0.5159 -0.1818
 4970TIP3    H214875   4.076   0.999   1.949 -1.7929 -1.1946  2.1908
 4971TIP3   OH214876   4.154   2.394   1.804  0.3109 -0.4945 -0.7078
 4971TIP3    H114877   4.216   2.370   1.873 -0.1975 -1.0207 -0.4220
 4971TIP3    H214878   4.207   2.441   1.740  1.7277 -3.5930 -2.0222
 4972TIP3   OH214879   4.461   6.132   4.880 -0.2035 -0.7441  0.2714
 4972TIP3    H114880   4.484   6.185   4.804 -0.7097  0.8215  1.1674
 4972TIP3    H214881   4.366   6.119   4.872 -0.6114  1.0622  1.5713
 4973TIP3   OH214882   3.154   4.394   1.037  0.0411 -0.1976  0.0672
 4973TIP3    H114883   3.085   4.329   1.048  0.2428 -0.2654  1.0297
 4973TIP3    H214884   3.159   4.408   0.942 -0.2489 -1.3060 -0.1216
 4974TIP3   OH214885   4.999   1.590   1.035 -0.5505  0.1734 -0.2819
 4974TIP3    H114886   5.003   1.685   1.024 -0.4998  0.1061 -0.8715
 4974TIP3    H214887   5.088   1.565   1.061 -1.0226  0.5125  1.8800
 4975TIP3   OH214888   5.701   6.050   4.915  0.8743 -0.5051 -0.1876
 4975TIP3    H114889   5.759   5.980   4.884  1.3462 -0.3295  0.2899
 4975TIP3    H214890   5.628   6.004   4.956 -0.5516 -0.8108 -2.8054
 4976TIP3   OH214891   3.967   4.194   1.748 -0.0532  0.2324  0.4665
 4976TIP3    H114892   4.045   4.212   1.799  0.8996 -0.0778 -0.8433
 4976TIP3    H214893   3.900   4.251   1.786  0.1515 -1.1832  3.1228
 4977TIP3   OH214894   1.776   2.426   0.626  0.0805  0.7995 -0.1251
 4977TIP3    H114895   1.770   2.333   0.648  1.3399  1.2698  2.5336
 4977TIP3    H214896   1.809   2.426   0.536  0.9443 -1.3498  0.1107
 4978TIP3   OH214897   2.539   0.141   3.271  0.0624 -0.0096  0.7271
 4978TIP3    H114898   2.601   0.068   3.270  0.0304 -0.0370  0.7753
 4978TIP3    H214899   2.460   0.106   3.311 -0.0481 -0.0258  0.4965
 4979TIP3   OH214900   5.876   5.769   3.630 -0.4235 -0.0589  0.1617
 4979TIP3    H114901   5.813   5.728   3.690  0.3356 -1.0874  0.2804
 4979TIP3    H214902   5.869   5.718   3.550 -0.4174  0.4257 -0.1504
 4980TIP3   OH214903   1.664   2.535   5.440 -0.9053  0.2165 -0.0659
 4980TIP3    H114904   1.699   2.613   5.483 -0.9778  0.0357  0.3238
 4980TIP3    H214905   1.572   2.533   5.465 -1.1233  0.5044 -0.8157
 4981TIP3   OH214906   2.208   5.643   3.965  0.0087  0.1948 -0.6043
 4981TIP3    H114907   2.251   5.563   3.935 -1.8434 -2.0506  2.2098
 4981TIP3    H214908   2.116   5.631   3.938 -0.7375  0.2466  1.7105
 4982TIP3   OH214909   4.919   4.102   3.821 -0.0535 -0.2231  0.4531
 4982TIP3    H114910   4.894   4.124   3.911 -2.0258 -0.2091 -0.0538
 4982TIP3    H214911   4.970   4.022   3.830 -0.6164 -0.4908  1.5714
 4983TIP3   OH214912   1.401   5.947   4.500  0.4849  0.0464 -0.5207
 4983TIP3    H114913   1.399   5.904   4.585  0.6505 -2.8369 -1.8606
 4983TIP3    H214914   1.391   6.041   4.520 -1.3170 -0.6687  2.5034
 4984TIP3   OH214915   6.178   3.267   1.012 -0.0015  0.0745  0.0246
 4984TIP3    H114916   6.121   3.284   0.937  1.2168  1.0547 -0.7328
 4984TIP3    H214917   6.212   3.353   1.036 -0.4448 -0.2050  1.8117
 4985TIP3   OH214918   4.727   0.917   2.511 -0.4842  0.2898  0.5203
 4985TIP3    H114919   4.637   0.949   2.519 -0.1562  1.5233 -0.3760
 4985TIP3    H214920   4.728   0.865   2.431 -0.9332 -1.7922  1.7983
 4986TIP3   OH214921   1.608   5.072   3.381 -0.0132 -0.5670  0.4816
 4986TIP3    H114922   1.556   5.121   3.318  1.3657 -2.1533 -2.0396
 4986TIP3    H214923   1.604   4.982   3.351  1.7251 -1.1931  1.9450
 4987TIP3   OH214924   4.008   5.165   4.806 -0.5632  0.1488 -0.1414
 4987TIP3    H114925   3.995   5.181   4.712 -1.3712  0.0253 -0.0627
 4987TIP3    H214926   3.957   5.086   4.824 -0.9864  0.5704  0.5369
 4988TIP3   OH214927   1.464   3.714   2.239 -0.4874 -0.0474  0.0321
 4988TIP3    H114928   1.540   3.748   2.286 -0.2723  1.1010 -1.0978
 4988TIP3    H214929   1.464   3.621   2.259  2.2481 -0.4297 -1.3053
 4989TIP3   OH214930   0.499   3.126   4.352  0.1658  0.4317 -0.1367
 4989TIP3    H114931   0.510   3.050   4.410  1.3553  1.4671  1.0572
 4989TIP3    H214932   0.498   3.089   4.264  1.9240 -0.8900  0.3463
 4990TIP3   OH214933   7.124   6.212   0.247 -0.2038  0.8877  0.3018
 4990TIP3    H114934   7.085   6.167   0.322  2.7544 -1.2580  0.7439
 4990TIP3    H214935   7.067   6.189   0.173 -2.2522  1.6868  1.5498
 4991TIP3   OH214936   2.315   4.841   0.565  0.1240 -0.5109  0.0872
 4991TIP3    H114937   2.325   4.822   0.472  1.7131  0.4200  0.0421
 4991TIP3    H214938   2.379   4.910   0.583 -2.0762  1.3903  1.2626
 4992TIP3   OH214939   1.829   1.981   3.247  0.2958 -0.4102  0.1069
 4992TIP3    H114940   1.884   2.048   3.287  0.0193 -0.8055  1.1688
 4992TIP3    H214941   1.881   1.901   3.252  0.0488 -0.5690  0.1299
 4993TIP3   OH214942   2.800   4.468   4.968 -0.5646  0.3034 -0.2140
 4993TIP3    H114943   2.836   4.386   4.935  0.5263  1.0472 -0.9535
 4993TIP3    H214944   2.808   4.529   4.895  0.9896  1.7243  1.0584
 4994TIP3   OH214945   3.484   0.224   5.366  0.3193  0.3899 -0.0145
 4994TIP3    H114946   3.541   0.300   5.357 -0.4045  0.7707 -1.6370
 4994TIP3    H214947   3.401   0.260   5.398 -0.1413  0.3497 -1.1419
 4995TIP3   OH214948   2.347   1.763   4.946 -0.7579  0.2027 -0.2458
 4995TIP3    H114949   2.256   1.767   4.918 -1.9754 -1.8580  2.9452
 4995TIP3    H214950   2.385   1.692   4.894 -1.6251 -0.4141 -0.0552
 4996TIP3   OH214951   6.002   0.309   3.000 -0.8971 -0.0221 -0.3834
 4996TIP3    H114952   6.003   0.405   2.998 -0.3079 -0.0347 -1.0159
 4996TIP3    H214953   5.922   0.284   2.954 -0.4136  0.1527 -1.3394
 4997TIP3   OH214954   1.272   4.044   0.481 -0.2973 -0.0288  0.3078
 4997TIP3    H114955   1.213   4.059   0.554  0.1166 -0.4639  0.7361
 4997TIP3    H214956   1.349   4.097   0.500 -1.5021  2.5634 -1.4787
 4998TIP3   OH214957   4.228   6.272   0.040  0.2877  0.4747  0.0073
 4998TIP3    H114958   4.262   6.187   0.011  1.2332  0.9337 -0.2752
 4998TIP3    H214959   4.188   6.310  -0.038 -0.2829  0.2301  0.1733
 4999TIP3   OH214960   5.207   5.550   4.160 -0.4112 -0.5331  0.0737
 4999TIP3    H114961   5.227   5.513   4.074  1.5623  1.9396 -0.6624
 4999TIP3    H214962   5.124   5.508   4.186 -0.0017 -2.8830 -2.0447
 5000TIP3   OH214963   2.740   1.750   0.646 -0.5590 -0.2374 -0.1326
 5000TIP3    H114964   2.658   1.768   0.600 -0.5044  0.2876 -0.0288
 5000TIP3    H214965   2.742   1.814   0.718 -1.2610 -1.8362  1.3937
 5001TIP3   OH214966   5.267   2.867   0.327  0.3005 -0.7244  0.4412
 5001TIP3    H114967   5.236   2.956   0.307  1.8970 -0.4172 -0.8132
 5001TIP3    H214968   5.213   2.810   0.273 -0.2210 -0.4804  0.6896
 5002TIP3   OH214969   5.381   3.595   0.532  0.2460  0.4888  0.6549
 5002TIP3    H114970   5.367   3.682   0.495 -1.7127  0.4972  1.3511
 5002TIP3    H214971   5.319   3.589   0.604  0.1634 -1.5809  0.4565
 5003TIP3   OH214972   4.856   0.603   0.316 -0.2710  0.0212  0.3620
 5003TIP3    H114973   4.873   0.661   0.242 -0.6637  0.9016  0.9340
 5003TIP3    H214974   4.810   0.528   0.279 -1.0375  0.7522 -0.1926
 5004TIP3   OH214975   3.983   0.612   4.909 -0.1968 -0.2076  0.0742
 5004TIP3    H114976   3.935   0.671   4.968  1.3080 -0.2755  1.4569
 5004TIP3    H214977   3.931   0.532   4.908 -1.3710  0.5292 -0.4457
 5005TIP3   OH214978   2.222   0.511   5.000  0.5719  0.4261 -0.2104
 5005TIP3    H114979   2.223   0.482   4.909 -0.2754  0.7055 -0.3104
 5005TIP3    H214980   2.152   0.575   5.005  1.9482  1.9871  0.1646
 5006TIP3   OH214981   5.624   0.251   0.911 -0.5943  0.0083 -0.6307
 5006TIP3    H114982   5.698   0.311   0.913  1.4764 -2.4059  0.6558
 5006TIP3    H214983   5.641   0.194   0.836 -1.1098 -0.6263 -0.2827
 5007TIP3   OH214984   0.040   4.070   5.752 -0.3144 -0.4499  0.5779
 5007TIP3    H114985   0.118   4.016   5.768  0.9183 -0.2011 -3.4142
 5007TIP3    H214986   0.052   4.146   5.809  1.5548 -1.1410  1.1999
 5008TIP3   OH214987   1.545   3.448   1.682  0.4446  0.0949  0.1389
 5008TIP3    H114988   1.485   3.471   1.610 -0.0702 -0.1068  0.5008
 5008TIP3    H214989   1.533   3.519   1.746  0.1484 -0.2615  0.4785
 5009TIP3   OH214990   0.889   6.215   2.785  0.3142 -0.6547 -0.0720
 5009TIP3    H114991   0.904   6.184   2.875  0.6994 -1.7181 -0.4879
 5009TIP3    H214992   0.954   6.284   2.773 -2.4732  2.5992  1.8849
 5010TIP3   OH214993   2.937   5.714   5.125 -0.0679  1.0519 -0.2261
 5010TIP3    H114994   2.911   5.644   5.065 -0.0292 -0.1541  1.1053
 5010TIP3    H214995   2.951   5.790   5.069 -1.2136  0.3033 -1.5956
 5011TIP3   OH214996   6.817   2.190   0.692  0.5154 -0.1366 -0.0099
 5011TIP3    H114997   6.784   2.270   0.651 -1.7496 -0.4075  1.1384
 5011TIP3    H214998   6.774   2.186   0.777  1.1984 -2.1597  0.3098
 5012TIP3   OH214999   4.829   4.616   0.318 -0.4484 -0.0864 -0.0533
 5012TIP3    H115000   4.784   4.577   0.243 -1.8413 -0.1052  0.7576
 5012TIP3    H215001   4.819   4.711   0.305  0.6525 -0.0492 -0.6749
 5013TIP3   OH215002   5.563   6.267   2.716  0.0103  0.4383 -0.1032
 5013TIP3    H115003   5.480   6.240   2.754 -0.2372  1.2171 -0.0813
 5013TIP3    H215004   5.624   6.270   2.790 -0.0163  0.1727 -0.0700
 5014TIP3   OH215005   5.371   0.133   0.092  0.5655  0.4465  0.5492
 5014TIP3    H115006   5.448   0.141   0.148  0.9706  0.2139  0.0373
 5014TIP3    H215007   5.405   0.143   0.003 -0.1434  1.3493  0.3663
 5015TIP3   OH215008   4.544   4.706   0.439  0.1901  0.1536 -0.0795
 5015TIP3    H115009   4.565   4.788   0.483  1.7121  0.9616 -2.1399
 5015TIP3    H215010   4.478   4.730   0.374 -0.0768 -0.4472 -0.0303
 5016TIP3   OH215011   3.814   4.283   3.887 -0.0401  0.3596 -0.1661
 5016TIP3    H115012   3.860   4.279   3.971 -1.3803 -0.7254  0.5378
 5016TIP3    H215013   3.882   4.263   3.823  0.4990 -1.2436  0.8421
 5017TIP3   OH215014   2.014   1.424   0.584 -0.0831 -1.1642 -0.1862
 5017TIP3    H115015   1.974   1.511   0.580  1.1222 -0.3505  2.6319
 5017TIP3    H215016   2.086   1.428   0.522 -1.2795 -0.9062 -1.6019
 5018TIP3   OH215017   1.907   5.742   3.896  0.2306 -0.2370  0.0689
 5018TIP3    H115018   1.902   5.837   3.907 -1.7169 -0.2147 -0.6034
 5018TIP3    H215019   1.826   5.709   3.935  1.5703 -1.8303  1.7358
 5019TIP3   OH215020   0.062   0.983   4.260  0.9887  0.0948 -0.3343
 5019TIP3    H115021   0.018   0.910   4.304  0.5801 -0.1654 -1.1543
 5019TIP3    H215022   0.141   0.998   4.311  0.6532 -0.3725  0.3318
 5020TIP3   OH215023   3.060   1.339   1.724  0.1003 -0.9129  0.1429
 5020TIP3    H115024   3.128   1.390   1.679 -0.1414  1.1308  1.9487
 5020TIP3    H215025   2.994   1.322   1.656  0.3131  0.9962 -0.5970
 5021TIP3   OH215026   6.581   5.277   5.613  0.9215  0.3528  0.3457
 5021TIP3    H115027   6.496   5.302   5.648  1.3304  0.3651  1.3687
 5021TIP3    H215028   6.578   5.303   5.521 -0.1028  0.5302  0.4230
 5022TIP3   OH215029   1.557   2.266   3.985 -0.0548  0.3644 -0.4225
 5022TIP3    H115030   1.623   2.272   4.055 -1.4170 -1.5417  1.1101
 5022TIP3    H215031   1.476   2.296   4.026 -0.5698  0.7551 -1.6896
 5023TIP3   OH215032   4.638   1.144   4.834  0.4375 -0.1799  0.4654
 5023TIP3    H115033   4.694   1.219   4.812  2.1073 -1.1431  1.1859
 5023TIP3    H215034   4.666   1.075   4.773  1.4450 -1.2628  2.0783
 5024TIP3   OH215035   5.758   2.919   4.335  0.1549  0.3066  0.0603
 5024TIP3    H115036   5.737   2.921   4.429  0.1941 -1.7298  0.1553
 5024TIP3    H215037   5.672   2.922   4.292  0.0860  0.1559  0.1863
 5025TIP3   OH215038   3.715   1.670   5.018 -0.5268  0.4201  0.1737
 5025TIP3    H115039   3.732   1.749   5.069 -0.5314  0.0503  0.7587
 5025TIP3    H215040   3.631   1.638   5.051 -0.4960  0.1378 -0.0180
 5026TIP3   OH215041   1.777   1.889   5.472  0.1768 -0.1020  0.0836
 5026TIP3    H115042   1.724   1.936   5.407  0.2875  0.0917  0.1310
 5026TIP3    H215043   1.801   1.807   5.429 -0.3693 -0.2998  0.1551
 5027TIP3   OH215044   2.847   4.722   2.328  0.4108  0.2125  0.1596
 5027TIP3    H115045   2.855   4.804   2.280  0.9202  1.1286  1.7219
 5027TIP3    H215046   2.752   4.709   2.336  0.3140  0.8801  0.2305
 5028TIP3   OH215047   6.043   2.623   2.168  0.2734 -0.0656  0.4367
 5028TIP3    H115048   6.093   2.605   2.088  0.2694  0.1631  0.3810
 5028TIP3    H215049   6.092   2.692   2.212  0.7574 -0.8069  1.0817
 5029TIP3   OH215050   4.999   1.268   3.623 -1.1727  0.4871 -0.0279
 5029TIP3    H115051   4.980   1.189   3.674 -0.3435 -0.5256 -1.2367
 5029TIP3    H215052   5.051   1.323   3.683 -0.0408 -0.7573  0.1826
 5030TIP3   OH215053   1.827   6.468   5.730 -0.0298  0.4060 -0.1542
 5030TIP3    H115054   1.889   6.446   5.800  0.6808  1.3586 -0.4684
 5030TIP3    H215055   1.882   6.493   5.656 -0.7757  1.2616 -0.4394
 5031TIP3   OH215056   4.315   1.387   0.718  0.6604 -0.1370 -0.0020
 5031TIP3    H115057   4.227   1.362   0.743  0.2130  0.2493 -1.1245
 5031TIP3    H215058   4.369   1.312   0.742  0.2020 -0.0064  1.5626
 5032TIP3   OH215059   3.448   6.723   3.238  0.5822 -0.2603  0.2429
 5032TIP3    H115060   3.501   6.748   3.163 -0.3905  0.1083 -0.3373
 5032TIP3    H215061   3.375   6.674   3.201 -0.4050  0.7104  0.8438
 5033TIP3   OH215062   2.464   5.381   3.579  0.0116 -0.0345  0.7216
 5033TIP3    H115063   2.369   5.371   3.581  0.0373 -0.3478  0.4429
 5033TIP3    H215064   2.488   5.400   3.670 -0.2996 -0.1136  0.8215
 5034TIP3   OH215065   3.495   3.863   2.687 -0.4636 -0.1511 -0.1629
 5034TIP3    H115066   3.523   3.955   2.691 -0.8602 -0.0174 -0.3792
 5034TIP3    H215067   3.540   3.821   2.760  1.5820 -0.3044 -1.4491
 5035TIP3   OH215068   4.998   3.715   4.782 -0.6324 -0.2520  0.2467
 5035TIP3    H115069   4.943   3.639   4.762  1.5769 -2.0984  0.7687
 5035TIP3    H215070   4.997   3.767   4.702 -0.8721 -1.6881 -0.7230
 5036TIP3   OH215071   4.037   2.057   0.836  0.0046 -0.5715 -0.0021
 5036TIP3    H115072   4.102   2.117   0.799  1.0896  0.1246  2.8007
 5036TIP3    H215073   4.053   1.974   0.791  2.3586 -0.2262  0.0879
 5037TIP3   OH215074   0.078   1.854   3.373  0.3723 -0.0198 -0.7171
 5037TIP3    H115075  -0.003   1.876   3.420 -0.4420 -0.8861 -1.6565
 5037TIP3    H215076   0.146   1.857   3.440 -0.7455 -1.1370  0.5314
 5038TIP3   OH215077   1.210   6.327   1.118  0.0200  0.4491  0.2533
 5038TIP3    H115078   1.210   6.238   1.155  4.2187  0.0622 -0.1470
 5038TIP3    H215079   1.250   6.381   1.187  0.6859  1.2936 -0.7640
 5039TIP3   OH215080   6.494   5.415   3.913  0.5584  0.4039  0.1064
 5039TIP3    H115081   6.411   5.385   3.876 -1.2676 -1.2960  4.7948
 5039TIP3    H215082   6.555   5.344   3.894  0.6435  0.9919 -2.0894
 5040TIP3   OH215083   2.135   2.006   3.264 -0.0896  0.1172  0.2862
 5040TIP3    H115084   2.094   1.956   3.334  0.0229 -1.6591 -0.8446
 5040TIP3    H215085   2.165   1.940   3.202 -0.6036  1.6176 -1.6656
 5041TIP3   OH215086   4.818   4.985   2.794 -0.1827  0.7279  0.1282
 5041TIP3    H115087   4.822   4.902   2.746 -1.2364  1.2218 -0.8506
 5041TIP3    H215088   4.892   4.980   2.854 -0.0365 -0.7913 -0.1166
 5042TIP3   OH215089   0.775   5.625   0.446 -0.4590 -0.2715  0.1812
 5042TIP3    H115090   0.730   5.691   0.392  0.7536 -1.8125 -2.9957
 5042TIP3    H215091   0.806   5.674   0.522 -2.0464  2.1645 -0.5934
 5043TIP3   OH215092   1.791   1.874   3.735  0.2162  0.8079  0.1261
 5043TIP3    H115093   1.749   1.959   3.750  0.0149  1.0112 -1.4426
 5043TIP3    H215094   1.763   1.848   3.647  1.7115 -0.0253 -0.1469
 5044TIP3   OH215095   1.634   0.858   4.749  0.2484  0.7946  0.0158
 5044TIP3    H115096   1.646   0.792   4.681 -1.7104  0.0576  0.3141
 5044TIP3    H215097   1.677   0.821   4.826  1.1807  0.9634 -0.4052
 5045TIP3   OH215098   5.836   3.391   0.349  0.0662  0.3098  0.6609
 5045TIP3    H115099   5.919   3.357   0.315 -0.5059  0.8813 -1.4985
 5045TIP3    H215100   5.852   3.484   0.366 -0.3351  0.6424 -0.6556
 5046TIP3   OH215101   6.373   2.056   4.440  0.3869 -0.3390  0.1790
 5046TIP3    H115102   6.295   2.040   4.388  0.5817  0.2566 -0.3180
 5046TIP3    H215103   6.341   2.095   4.521  0.2611  1.7929 -0.8268
 5047TIP3   OH215104   5.824   5.897   0.578  0.5057 -0.6442  0.0764
 5047TIP3    H115105   5.873   5.875   0.657  2.2049 -2.6021 -1.4264
 5047TIP3    H215106   5.889   5.935   0.519 -0.2186 -1.3198 -1.2025
 5048TIP3   OH215107   5.558   0.067   3.670  0.2637 -0.0655 -0.5416
 5048TIP3    H115108   5.622   0.068   3.599  0.3335  1.6427 -0.4857
 5048TIP3    H215109   5.603   0.108   3.744 -0.3354 -0.3946  0.0156
 5049TIP3   OH215110   3.248   2.194   5.290  0.5569  0.2494 -0.3074
 5049TIP3    H115111   3.269   2.181   5.382  0.2465 -0.1643 -0.2896
 5049TIP3    H215112   3.332   2.188   5.244  0.7164  0.4999 -0.0479
 5050TIP3   OH215113   1.206   6.086   3.456 -0.1782 -0.7078  0.1270
 5050TIP3    H115114   1.207   6.154   3.388  0.0886 -0.3862  0.4423
 5050TIP3    H215115   1.130   6.107   3.510 -0.3377 -0.9085 -0.0220
 5051TIP3   OH215116   5.462   5.579   2.676 -0.1004 -0.4593  0.4233
 5051TIP3    H115117   5.397   5.644   2.704  1.2177  0.5274  1.3216
 5051TIP3    H215118   5.486   5.607   2.587 -0.2464 -0.3026  0.4324
 5052TIP3   OH215119   1.533   6.361   3.247 -0.5593  1.1772  0.4347
 5052TIP3    H115120   1.502   6.442   3.207 -1.4676  1.1433  1.0593
 5052TIP3    H215121   1.485   6.292   3.202  1.2284  0.8525 -1.0828
 5053TIP3   OH215122   2.976   0.416   1.181  0.1235  0.5932 -0.3959
 5053TIP3    H115123   3.061   0.372   1.181 -0.3242 -0.2800  0.1018
 5053TIP3    H215124   2.987   0.491   1.240 -0.1871 -0.9830  1.7573
 5054TIP3   OH215125   2.048   5.960   4.035 -0.1482  0.4424  0.2505
 5054TIP3    H115126   2.136   5.938   4.005 -0.3588 -0.2790  0.1632
 5054TIP3    H215127   2.043   5.922   4.123 -0.1299  1.0898  0.5388
 5055TIP3   OH215128   5.874   5.093   1.558  0.3100 -0.3979  0.1667
 5055TIP3    H115129   5.795   5.088   1.504  0.5875 -1.1301 -0.1960
 5055TIP3    H215130   5.892   5.186   1.567 -0.1069 -0.2528 -0.4739
 5056TIP3   OH215131   2.906   3.349   4.781  0.2854 -0.4767  0.0898
 5056TIP3    H115132   2.843   3.382   4.845 -0.0902  2.6317 -1.6922
 5056TIP3    H215133   2.960   3.287   4.831  0.5791  2.3155  3.6874
 5057TIP3   OH215134   5.059   4.488   5.667  0.0967  0.4754  0.0252
 5057TIP3    H115135   5.006   4.542   5.726  3.0476  2.6973  0.8667
 5057TIP3    H215136   5.019   4.401   5.671 -2.4326  1.6065  1.8275
 5058TIP3   OH215137   1.109   6.518   3.576  0.5712 -0.4048  0.1943
 5058TIP3    H115138   1.107   6.612   3.562 -1.6695 -0.4064  0.1732
 5058TIP3    H215139   1.200   6.493   3.558  0.4728  1.1960 -3.4816
 5059TIP3   OH215140   0.483   4.472   2.982  0.4659  0.4183 -0.1779
 5059TIP3    H115141   0.444   4.405   3.039  3.7997 -1.7461 -0.1801
 5059TIP3    H215142   0.489   4.430   2.896  0.6087  1.5622 -0.7407
 5060TIP3   OH215143   4.672   6.104   2.563  0.2242  0.0830  0.1562
 5060TIP3    H115144   4.714   6.122   2.647  0.4306 -1.0772  0.3137
 5060TIP3    H215145   4.736   6.051   2.516 -1.9148 -3.9351  1.3462
 5061TIP3   OH215146   1.065   5.024   1.649  0.1919 -0.7421 -0.1789
 5061TIP3    H115147   1.086   5.110   1.612  2.0579 -0.0641  2.1919
 5061TIP3    H215148   1.003   5.042   1.719  0.2434 -1.3963  0.0469
 5062TIP3   OH215149   2.036   2.566   1.541  0.4608  0.5922 -0.4045
 5062TIP3    H115150   2.074   2.616   1.468 -1.6507  2.0333 -0.5958
 5062TIP3    H215151   1.967   2.623   1.576 -0.0396 -0.9868  1.3285
 5063TIP3   OH215152   3.080   3.353   3.247 -0.2618 -0.2847 -0.1751
 5063TIP3    H115153   3.151   3.288   3.250 -0.2220 -0.2123  0.7594
 5063TIP3    H215154   3.122   3.435   3.271 -0.0740  0.3507 -2.4238
 5064TIP3   OH215155   3.892   6.722   0.286 -0.2433  0.3057 -0.4577
 5064TIP3    H115156   3.813   6.727   0.339 -1.8283 -1.6563 -2.4355
 5064TIP3    H215157   3.959   6.687   0.345 -1.2883  0.3391  0.7857
 5065TIP3   OH215158   1.979   0.405   2.360  0.0297 -0.0523 -0.3581
 5065TIP3    H115159   1.909   0.358   2.314 -0.7316 -0.3780  1.0485
 5065TIP3    H215160   1.953   0.401   2.452  0.3724  2.4203 -0.0945
 5066TIP3   OH215161   4.846   6.334   4.857 -0.1900  0.5754 -0.3920
 5066TIP3    H115162   4.839   6.320   4.763  0.2618  0.0683 -0.3593
 5066TIP3    H215163   4.888   6.254   4.890 -2.5100 -0.3335  0.5625
 5067TIP3   OH215164   3.395   5.997   3.171 -0.0777  0.0962 -0.0951
 5067TIP3    H115165   3.348   6.026   3.249 -1.4575 -0.4935 -0.6662
 5067TIP3    H215166   3.330   6.001   3.101  0.7452 -0.7076 -0.9446
 5068TIP3   OH215167   6.114   3.016   5.099 -0.9080  0.3244 -0.4941
 5068TIP3    H115168   6.139   3.002   5.190  0.2525  0.3002 -0.8051
 5068TIP3    H215169   6.033   3.067   5.104 -0.9215  0.2184  0.5479
 5069TIP3   OH215170   3.469   0.758   2.970  0.3477  0.3624  0.4934
 5069TIP3    H115171   3.433   0.718   2.891  0.0620  0.8437  0.3746
 5069TIP3    H215172   3.562   0.740   2.967  0.2784  0.0509  0.2381
 5070TIP3   OH215173   5.227   2.569   0.384  0.2200 -0.0616 -0.9742
 5070TIP3    H115174   5.276   2.487   0.382  1.5871  0.7473 -2.5076
 5070TIP3    H215175   5.272   2.622   0.449 -1.6381 -1.0024  1.2582
 5071TIP3   OH215176   3.727   2.073   3.666 -0.2702  0.3075  0.6559
 5071TIP3    H115177   3.644   2.119   3.674 -0.9064 -0.8855  1.1497
 5071TIP3    H215178   3.720   2.000   3.728  0.2418 -1.1203 -0.9015
 5072TIP3   OH215179   4.467   2.645   1.272  0.3304  0.6748  0.3726
 5072TIP3    H115180   4.495   2.692   1.193 -2.9750  1.9489 -0.1960
 5072TIP3    H215181   4.475   2.552   1.248  1.8989  0.9775 -0.4426
 5073TIP3   OH215182   3.377   6.722   1.957  0.3026 -0.1736 -0.1816
 5073TIP3    H115183   3.455   6.714   1.901  0.3544  0.1651 -0.1601
 5073TIP3    H215184   3.356   6.815   1.955 -0.7246 -0.3928 -1.0306
 5074TIP3   OH215185   4.916   2.097   2.863 -0.1748 -0.3811 -0.2884
 5074TIP3    H115186   4.836   2.103   2.914 -1.4738 -2.0456 -1.9783
 5074TIP3    H215187   4.887   2.101   2.772  1.7397 -0.3766 -0.9509
 5075TIP3   OH215188   5.766   2.153   5.408  0.2814 -0.2138 -0.2256
 5075TIP3    H115189   5.847   2.200   5.426 -0.9371  1.8311  0.1766
 5075TIP3    H215190   5.747   2.106   5.490  1.2759 -1.1014 -0.4827
 5076TIP3   OH215191   3.500   1.286   1.230  0.0041 -0.3229  0.3109
 5076TIP3    H115192   3.512   1.192   1.214 -0.7525 -0.4497  0.4221
 5076TIP3    H215193   3.556   1.329   1.166 -1.5778 -0.8356 -1.5140
 5077TIP3   OH215194   2.500   1.963   4.851  0.1109  0.3762 -0.6824
 5077TIP3    H115195   2.514   1.999   4.939  0.8466 -1.0288 -0.1884
 5077TIP3    H215196   2.427   1.902   4.861  0.4890 -0.1283 -0.9351
 5078TIP3   OH215197   5.720   2.431   4.603  0.6705  0.1741  0.0443
 5078TIP3    H115198   5.637   2.452   4.646  1.1624 -1.9655  2.2934
 5078TIP3    H215199   5.708   2.456   4.512 -1.6348  1.9545  0.7519
 5079TIP3   OH215200   3.094   5.082   1.757  0.0102  0.2454  0.2927
 5079TIP3    H115201   3.146   5.003   1.742  0.9822  0.9478 -0.1556
 5079TIP3    H215202   3.142   5.129   1.825  1.0140  1.7725 -1.3700
 5080TIP3   OH215203   3.444   5.311   4.430  0.0917 -0.2822 -0.2271
 5080TIP3    H115204   3.366   5.342   4.475 -0.0768 -2.0050  0.7659
 5080TIP3    H215205   3.512   5.373   4.455 -0.8583  1.0433 -0.8322
 5081TIP3   OH215206   2.246   6.670   4.542 -0.1654  0.0302  0.3597
 5081TIP3    H115207   2.242   6.630   4.455  3.0805  0.1792  0.0221
 5081TIP3    H215208   2.258   6.764   4.524  0.3294  0.0845  0.9774
 5082TIP3   OH215209   3.582   2.796   1.331  0.2582 -0.1149  0.4537
 5082TIP3    H115210   3.668   2.836   1.320  0.4527 -0.7092 -0.2972
 5082TIP3    H215211   3.600   2.705   1.353 -0.1825 -0.0409  1.1711
 5083TIP3   OH215212   2.035   4.282   5.345  0.5583  0.3081  0.6562
 5083TIP3    H115213   1.978   4.279   5.422  0.1874  2.3382  0.5150
 5083TIP3    H215214   2.105   4.220   5.365  0.4637  0.7835  2.6392
 5084TIP3   OH215215   1.561   6.413   5.534 -1.0834  0.0284 -0.0573
 5084TIP3    H115216   1.584   6.383   5.446  0.0986  1.7122 -0.3704
 5084TIP3    H215217   1.512   6.493   5.520 -0.9251  0.2850  0.8105
 5085TIP3   OH215218   5.265   2.772   4.191 -0.0415  0.3067 -0.2671
 5085TIP3    H115219   5.173   2.790   4.172  0.7043  2.4197 -2.3140
 5085TIP3    H215220   5.284   2.825   4.268 -0.4325  0.1320 -0.0463
 5086TIP3   OH215221   2.020   4.593   2.408 -0.3552 -0.1887  0.1629
 5086TIP3    H115222   2.100   4.644   2.416 -0.9865  0.8474  0.1605
 5086TIP3    H215223   1.962   4.647   2.354 -0.5196 -1.6001 -1.1384
 5087TIP3   OH215224   3.145   0.832   4.628  0.2124 -0.3687 -0.4420
 5087TIP3    H115225   3.126   0.755   4.681  1.7012 -0.5185 -0.0678
 5087TIP3    H215226   3.105   0.904   4.675  0.2790 -0.6959  0.1306
 5088TIP3   OH215227   6.535   1.466   2.373  0.1253 -0.2266 -0.2285
 5088TIP3    H115228   6.508   1.415   2.449 -1.6785  3.0000  1.5582
 5088TIP3    H215229   6.625   1.491   2.391  0.0010 -0.2385  0.4244
 5089TIP3   OH215230   3.820   1.330   3.503  0.2001  0.0914 -0.8321
 5089TIP3    H115231   3.825   1.310   3.597  0.2126  2.5815 -0.2260
 5089TIP3    H215232   3.793   1.248   3.463 -2.4075 -0.4575  1.6567
 5090TIP3   OH215233   5.992   6.208   2.868  0.3963  0.1949  0.0808
 5090TIP3    H115234   5.989   6.121   2.828  1.6203  1.1801 -2.4122
 5090TIP3    H215235   6.050   6.198   2.943  1.2661 -0.9577 -0.7133
 5091TIP3   OH215236   1.684   3.179   5.847 -0.2910  0.6478 -0.1154
 5091TIP3    H115237   1.663   3.121   5.921 -1.1565  1.1102  0.0125
 5091TIP3    H215238   1.677   3.122   5.770 -0.9984  0.5381  0.0207
 5092TIP3   OH215239   4.207   5.242   2.269 -0.1839  0.5809 -0.6632
 5092TIP3    H115240   4.196   5.271   2.178 -0.1669  0.1639 -0.7997
 5092TIP3    H215241   4.301   5.247   2.284 -0.2437  1.2737 -0.4542
 5093TIP3   OH215242   0.734   2.031   2.859 -0.0391  0.6169 -0.3469
 5093TIP3    H115243   0.754   2.074   2.942  1.0546 -1.1647  0.3937
 5093TIP3    H215244   0.804   2.059   2.800  0.1574  0.5719 -0.1388
 5094TIP3   OH215245   4.172   0.350   3.418  0.0234 -0.7503 -0.6014
 5094TIP3    H115246   4.178   0.326   3.326 -1.5485 -2.1553 -0.3870
 5094TIP3    H215247   4.078   0.355   3.436  0.2767  1.3091  0.5146
 5095TIP3   OH215248   3.506   5.191   3.068  0.1795  0.3914 -0.9791
 5095TIP3    H115249   3.491   5.105   3.028  0.4602  0.0958 -0.4610
 5095TIP3    H215250   3.421   5.234   3.066 -0.0467 -0.0472 -0.8980
 5096TIP3   OH215251   3.272   0.895   4.002 -0.1205  0.1911  0.9098
 5096TIP3    H115252   3.294   0.988   4.010 -0.8061  0.3953  0.5876
 5096TIP3    H215253   3.296   0.857   4.086  3.5058 -0.0869 -0.0993
 5097TIP3   OH215254   6.303   4.246   5.580  0.2238 -0.0916 -0.3245
 5097TIP3    H115255   6.287   4.278   5.669 -1.7098 -1.0195 -0.2815
 5097TIP3    H215256   6.255   4.307   5.523  1.5375  0.5575 -0.7658
 5098TIP3   OH215257   4.048   6.587   2.198 -0.1573 -0.0800  0.2828
 5098TIP3    H115258   3.990   6.544   2.261  1.4599 -0.5447  1.5296
 5098TIP3    H215259   4.092   6.515   2.152  0.7217  0.2302  0.6086
 5099TIP3   OH215260   0.099   2.609   3.206  0.2123 -0.4027 -0.2518
 5099TIP3    H115261   0.122   2.664   3.131  0.6236 -1.8742 -1.2633
 5099TIP3    H215262   0.041   2.663   3.260  1.3112  1.2989 -0.7244
 5100TIP3   OH215263   3.079   4.968   1.141 -0.1369  0.4690  0.2519
 5100TIP3    H115264   3.009   5.027   1.112  1.0975  1.1884 -1.4521
 5100TIP3    H215265   3.158   5.005   1.102  0.7915 -1.9435 -0.2950
 5101TIP3   OH215266   3.218   3.441   5.622 -0.3640  0.9302 -0.2473
 5101TIP3    H115267   3.189   3.351   5.608  0.4585  0.8524 -1.6188
 5101TIP3    H215268   3.151   3.480   5.678 -0.6955 -0.5443  0.4118
 5102TIP3   OH215269   1.465   4.619   5.384 -0.6811  0.1582  0.3654
 5102TIP3    H115270   1.529   4.611   5.314 -2.0647 -1.1006 -0.8228
 5102TIP3    H215271   1.513   4.660   5.456  1.4609 -0.7964 -0.4416
 5103TIP3   OH215272   6.133   4.373   5.429  0.5037 -0.6022  0.1120
 5103TIP3    H115273   6.101   4.383   5.340 -0.8854 -0.7372  0.5854
 5103TIP3    H215274   6.066   4.323   5.474  1.2223 -0.6087  1.2270
 5104TIP3   OH215275   5.321   5.053   0.875 -0.7336  0.2991 -0.0235
 5104TIP3    H115276   5.354   5.025   0.961  1.1853  2.3907  0.0069
 5104TIP3    H215277   5.267   5.129   0.895  0.8426  1.6471 -0.7404
 5105TIP3   OH215278   4.491   5.945   0.669 -0.0965  0.5028 -0.2342
 5105TIP3    H115279   4.534   5.932   0.754 -0.4409 -1.4081 -0.3096
 5105TIP3    H215280   4.551   5.907   0.605 -0.8445 -0.0927 -0.5929
 5106TIP3   OH215281   4.137   5.620   1.332  0.6235  0.2879  0.1875
 5106TIP3    H115282   4.155   5.531   1.362 -0.5510 -0.1099 -0.2361
 5106TIP3    H215283   4.124   5.612   1.238 -3.2606  0.1748  0.5590
 5107TIP3   OH215284   7.231   6.741   4.431 -0.1089  0.1543  0.3432
 5107TIP3    H115285   7.260   6.660   4.473 -0.2178 -0.4066 -0.6219
 5107TIP3    H215286   7.150   6.764   4.475 -0.3495 -0.5580  0.2841
 5108TIP3   OH215287   3.772   2.689   4.299  0.2971 -0.1449  0.4840
 5108TIP3    H115288   3.752   2.625   4.230  0.6205  1.1982 -0.9073
 5108TIP3    H215289   3.693   2.690   4.354 -1.3966  1.1645 -1.8139
 5109TIP3   OH215290   0.775   4.506   4.588  0.3244  0.0595  0.7878
 5109TIP3    H115291   0.816   4.473   4.508 -1.6960 -0.0503 -0.2672
 5109TIP3    H215292   0.754   4.597   4.570 -0.2629  0.0016  1.1459
 5110TIP3   OH215293   6.458   4.429   1.671 -0.1989  0.1555  0.1959
 5110TIP3    H115294   6.546   4.409   1.703 -0.2053  0.8402  0.6661
 5110TIP3    H215295   6.464   4.417   1.576  0.7735  1.4730  0.0567
 5111TIP3   OH215296   4.993   2.060   4.448 -0.0966 -0.0308 -0.3901
 5111TIP3    H115297   5.049   2.014   4.385  0.7982 -1.4263  1.3311
 5111TIP3    H215298   5.054   2.097   4.512 -1.0346  0.4001  0.2865
 5112TIP3   OH215299   2.970   4.762   0.975  0.2249 -0.3836 -0.3632
 5112TIP3    H115300   2.915   4.701   1.024 -0.7486 -0.8176 -1.8892
 5112TIP3    H215301   3.008   4.820   1.041  2.3606 -3.4513  1.3549
 5113TIP3   OH215302   1.201   6.136   5.416  0.5083  0.3439  0.3466
 5113TIP3    H115303   1.235   6.218   5.452 -0.0565  0.9001 -0.3340
 5113TIP3    H215304   1.119   6.161   5.374  0.1686 -0.6382  0.4034
 5114TIP3   OH215305   6.775   2.291   5.042  0.3778 -0.4350 -0.2908
 5114TIP3    H115306   6.823   2.239   4.978  0.5455  0.3500 -0.8023
 5114TIP3    H215307   6.834   2.362   5.065 -0.1789  0.0126 -0.2286
 5115TIP3   OH215308   6.599   5.205   0.766 -1.2304 -0.1936 -0.0689
 5115TIP3    H115309   6.634   5.293   0.774 -1.5761 -0.0791  0.1833
 5115TIP3    H215310   6.609   5.166   0.853  1.0823 -1.2349 -0.7092
 5116TIP3   OH215311   4.896   5.385   5.174 -0.2985  0.8854  0.7570
 5116TIP3    H115312   4.871   5.407   5.264 -1.4341  2.9500  0.0273
 5116TIP3    H215313   4.840   5.442   5.120  0.7126  0.0698 -1.2363
 5117TIP3   OH215314   3.163   1.615   4.906 -0.1394 -0.0689 -0.5725
 5117TIP3    H115315   3.151   1.629   5.000  1.5427  1.6889 -0.5658
 5117TIP3    H215316   3.178   1.520   4.898  0.6004 -0.1255  1.0426
 5118TIP3   OH215317   4.246   3.258   4.491 -0.0879  0.3616 -0.3031
 5118TIP3    H115318   4.207   3.252   4.578  0.9677 -0.9978  0.1161
 5118TIP3    H215319   4.277   3.348   4.484  2.9334 -0.3414  2.1746
 5119TIP3   OH215320   1.828   6.419   0.101  0.1096 -0.2711  0.4455
 5119TIP3    H115321   1.831   6.389   0.010 -2.9438 -0.2574  0.2277
 5119TIP3    H215322   1.915   6.399   0.137  0.4467 -2.9666 -1.6218
 5120TIP3   OH215323   0.452   2.054   2.077 -0.3233  0.2494  0.3576
 5120TIP3    H115324   0.492   2.102   2.005  0.4812 -0.1582  0.5173
 5120TIP3    H215325   0.488   2.094   2.156 -0.7405  0.3079  0.5215
 5121TIP3   OH215326   2.064   0.562   3.915  0.0843  0.0758  0.4123
 5121TIP3    H115327   2.149   0.537   3.951 -0.2148 -2.2463 -0.3167
 5121TIP3    H215328   2.084   0.603   3.831  0.4911  0.0436  0.4947
 5122TIP3   OH215329   6.449   5.831   3.633  0.2439 -0.1777  0.6091
 5122TIP3    H115330   6.436   5.768   3.562  3.3127 -0.0972 -0.2039
 5122TIP3    H215331   6.488   5.780   3.703  2.5498  0.6558  0.0275
 5123TIP3   OH215332   5.734   3.845   2.138 -0.3296  0.3767  0.2972
 5123TIP3    H115333   5.797   3.890   2.082 -0.8637 -2.2061 -2.6543
 5123TIP3    H215334   5.786   3.811   2.210  1.0545  1.0083 -0.3647
 5124TIP3   OH215335   5.797   4.426   3.721 -0.3503 -0.3360 -0.1991
 5124TIP3    H115336   5.848   4.347   3.699  1.2308  0.4232  0.5494
 5124TIP3    H215337   5.707   4.395   3.731  0.4950 -2.4183  1.8832
 5125TIP3   OH215338   6.011   2.705   4.730 -0.3137 -0.1249 -0.4624
 5125TIP3    H115339   6.050   2.784   4.690 -0.1970 -0.2846 -0.6677
 5125TIP3    H215340   6.056   2.696   4.813 -0.3619  0.0540 -0.4152
 5126TIP3   OH215341   2.220   4.230   4.801 -0.3484 -0.2615 -0.4022
 5126TIP3    H115342   2.128   4.208   4.817  0.1274 -1.2295  1.2600
 5126TIP3    H215343   2.233   4.211   4.708 -1.3005 -2.2191 -0.1887
 5127TIP3   OH215344   4.845   6.660   0.977  0.8455  0.8662 -0.1058
 5127TIP3    H115345   4.846   6.566   0.996  0.3049  0.9113  0.1613
 5127TIP3    H215346   4.786   6.669   0.902  1.6332  0.8911 -0.7401
 5128TIP3   OH215347   3.629   3.536   4.992  0.1718 -0.0017  0.2389
 5128TIP3    H115348   3.646   3.533   5.086 -0.1374 -1.8189  0.2718
 5128TIP3    H215349   3.538   3.508   4.983  0.3433 -0.3001 -0.6335
 5129TIP3   OH215350   4.046   3.996   1.980 -0.4989 -0.1736 -0.6361
 5129TIP3    H115351   4.096   4.074   1.956  0.6835 -1.0362 -1.0787
 5129TIP3    H215352   3.995   4.023   2.056 -1.3203  1.4764 -1.7239
 5130TIP3   OH215353   6.012   5.913   3.353  0.0988  0.8302 -0.6952
 5130TIP3    H115354   6.002   5.831   3.306  0.9944  2.5572 -4.2500
 5130TIP3    H215355   6.082   5.897   3.416 -1.2477 -1.6461  0.3027
 5131TIP3   OH215356   0.566   2.763   1.943 -0.5364 -0.0110  0.0542
 5131TIP3    H115357   0.640   2.775   2.003  0.5320  1.1339 -1.4390
 5131TIP3    H215358   0.559   2.846   1.897 -3.0580  0.0588  0.4309
 5132TIP3   OH215359   6.097   3.263   5.382  0.4234  0.0403 -0.0599
 5132TIP3    H115360   6.065   3.286   5.295  1.1594 -0.3651 -0.4427
 5132TIP3    H215361   6.179   3.311   5.392  0.3911  0.0129  0.3762
 5133TIP3   OH215362   2.266   4.141   3.592  0.4163  0.3034 -0.6898
 5133TIP3    H115363   2.325   4.073   3.625  1.8807  1.1425 -1.4813
 5133TIP3    H215364   2.186   4.094   3.571 -0.2786 -0.4522  2.9972
 5134TIP3   OH215365   6.463   1.841   0.686 -0.0260  0.3243 -0.5766
 5134TIP3    H115366   6.481   1.754   0.651 -0.5008 -0.0866  0.1584
 5134TIP3    H215367   6.528   1.854   0.754 -1.4089 -0.4876  0.9722
 5135TIP3   OH215368   4.283   1.021   0.904 -0.4520 -0.7314 -0.1041
 5135TIP3    H115369   4.277   1.115   0.918 -1.3204 -0.8600  0.5004
 5135TIP3    H215370   4.235   0.983   0.978 -1.1616 -1.6028 -0.9943
 5136TIP3   OH215371   5.801   0.483   5.391  0.0316 -0.2895 -0.3317
 5136TIP3    H115372   5.820   0.515   5.303 -0.1723  2.1382  0.4447
 5136TIP3    H215373   5.811   0.559   5.448 -2.1430 -1.1979  1.4425
 5137TIP3   OH215374   3.669   3.324   1.793 -0.3653 -0.2482  0.2663
 5137TIP3    H115375   3.692   3.319   1.886 -1.0860 -0.1623  0.4504
 5137TIP3    H215376   3.722   3.256   1.752 -1.5716 -1.6962  1.0467
 5138TIP3   OH215377   0.768   6.714   3.160  0.2720  0.5800  0.1881
 5138TIP3    H115378   0.736   6.667   3.083  0.5360 -1.5748  1.3088
 5138TIP3    H215379   0.695   6.769   3.187 -0.6566 -0.4070 -0.2503
 5139TIP3   OH215380   4.578   3.562   5.000 -0.3572 -0.4925  0.0900
 5139TIP3    H115381   4.527   3.604   4.931  0.2704 -0.6419 -0.4732
 5139TIP3    H215382   4.598   3.475   4.966 -0.1672 -0.6210  0.5222
 5140TIP3   OH215383   3.283   4.851   4.467  0.0556  0.0340 -0.0152
 5140TIP3    H115384   3.325   4.929   4.502 -0.9468  0.2487  0.7627
 5140TIP3    H215385   3.305   4.851   4.374 -0.4381  1.5834 -0.1591
 5141TIP3   OH215386   1.528   3.003   2.874  0.6609  0.2008  0.0993
 5141TIP3    H115387   1.544   3.052   2.955  1.3288  0.8830 -0.4356
 5141TIP3    H215388   1.600   3.026   2.816 -0.6518  1.0088 -1.2950
 5142TIP3   OH215389   5.489   2.059   5.881  0.6441 -0.0210  0.2130
 5142TIP3    H115390   5.582   2.076   5.865  0.4467  0.4143 -0.4998
 5142TIP3    H215391   5.456   2.023   5.799  0.0223  0.5285  0.2086
 5143TIP3   OH215392   0.694   1.790   2.970  0.4613 -0.2385  0.4995
 5143TIP3    H115393   0.769   1.733   2.988  0.8415  0.3560  0.8427
 5143TIP3    H215394   0.730   1.858   2.912 -0.5805 -1.7617 -2.1331
 5144TIP3   OH215395   3.330   4.962   3.300  0.3239  0.2319  0.2013
 5144TIP3    H115396   3.241   4.997   3.296  0.1749  0.1485  1.8398
 5144TIP3    H215397   3.361   4.963   3.210 -0.9056  1.3938 -0.2402
 5145TIP3   OH215398   0.646   3.214   5.227  0.0687 -0.1944 -0.4169
 5145TIP3    H115399   0.604   3.131   5.203  0.2576 -0.2559 -0.5364
 5145TIP3    H215400   0.719   3.223   5.166 -0.2852  0.3395 -0.7665
 5146TIP3   OH215401   0.237   5.474   5.738  0.6548 -0.0944  0.1313
 5146TIP3    H115402   0.184   5.405   5.698  1.3011 -1.0413  0.8781
 5146TIP3    H215403   0.228   5.460   5.832  2.0612 -0.1483  0.2729
 5147TIP3   OH215404   1.645   1.721   4.507 -0.1803 -0.1367 -0.4560
 5147TIP3    H115405   1.738   1.741   4.521  0.1123 -1.3005 -0.6130
 5147TIP3    H215406   1.627   1.754   4.419  0.2235 -0.3691 -0.6289
 5148TIP3   OH215407   0.234   3.380   4.777 -0.1437  0.1863  0.7182
 5148TIP3    H115408   0.303   3.439   4.747 -0.8768  0.7423  0.0795
 5148TIP3    H215409   0.203   3.419   4.858  0.6292 -0.3428  1.2773
 5149TIP3   OH215410   0.534   5.592   3.616 -0.0764  0.2571 -0.1407
 5149TIP3    H115411   0.489   5.656   3.561  0.4589  3.5899  2.9528
 5149TIP3    H215412   0.623   5.625   3.625  0.4362 -1.2773  1.0766
 5150TIP3   OH215413   7.021   2.946   4.502  0.6012 -0.2328  0.0017
 5150TIP3    H115414   7.106   2.957   4.462  0.2468  0.4342 -0.6014
 5150TIP3    H215415   7.012   3.023   4.559  0.3429 -0.2252 -0.0482
 5151TIP3   OH215416   2.625   5.469   1.218 -0.2107  0.2069  0.7220
 5151TIP3    H115417   2.683   5.516   1.277 -2.0738 -0.4615  3.2739
 5151TIP3    H215418   2.673   5.390   1.194  1.7412  1.8664 -1.1740
 5152TIP3   OH215419   1.562   4.591   2.217  0.2302 -0.1393 -0.0599
 5152TIP3    H115420   1.567   4.611   2.310  1.4127  1.9740 -0.5096
 5152TIP3    H215421   1.525   4.671   2.178 -0.5496 -1.1050 -1.3772
 5153TIP3   OH215422   6.760   2.642   2.655  0.6655  0.4738 -0.1570
 5153TIP3    H115423   6.832   2.622   2.596 -0.3051 -0.4000 -1.0791
 5153TIP3    H215424   6.692   2.680   2.599 -0.6807 -1.3266  0.1636
 5154TIP3   OH215425   2.294   5.516   0.989 -0.5274  0.3576  0.0190
 5154TIP3    H115426   2.246   5.510   1.072  0.3620 -0.2092  0.5032
 5154TIP3    H215427   2.273   5.435   0.943 -1.6276  1.0074 -0.6611
 5155TIP3   OH215428   0.141   2.538   5.102 -0.0910  0.8026 -0.4422
 5155TIP3    H115429   0.225   2.582   5.090  0.6650 -0.1749  1.0567
 5155TIP3    H215430   0.101   2.540   5.015  1.5861  1.0548 -1.2532
 5156TIP3   OH215431   3.423   1.454   4.597  0.8140 -0.7325 -0.0266
 5156TIP3    H115432   3.500   1.428   4.647  0.0613 -0.8083  1.1452
 5156TIP3    H215433   3.436   1.546   4.577  0.9436 -0.5813  0.7128
 5157TIP3   OH215434   6.895   3.466   4.536 -0.2421 -0.1078  0.1029
 5157TIP3    H115435   6.902   3.501   4.447  0.0415 -1.8831 -0.6155
 5157TIP3    H215436   6.975   3.494   4.580  0.6092 -0.9318 -0.8735
 5158TIP3   OH215437   6.137   6.672   5.634  0.0246 -0.1944  0.0792
 5158TIP3    H115438   6.085   6.738   5.589 -0.7991 -0.8121  0.1090
 5158TIP3    H215439   6.145   6.601   5.571 -1.0859 -1.0414  0.8572
 5159TIP3   OH215440   5.803   4.384   5.476 -0.0032  0.3594 -0.2209
 5159TIP3    H115441   5.842   4.430   5.402 -0.6184  0.7836 -0.2856
 5159TIP3    H215442   5.736   4.443   5.509 -0.0754 -0.0381  0.3673
 5160TIP3   OH215443   7.035   3.973   4.850  0.1542 -0.1750 -0.3204
 5160TIP3    H115444   7.045   4.067   4.836  1.2746  0.0537  1.6070
 5160TIP3    H215445   6.945   3.954   4.824 -0.5201  1.7020  0.4559
 5161TIP3   OH215446   1.798   1.828   0.103  0.6172  0.2548  0.4251
 5161TIP3    H115447   1.870   1.768   0.082 -1.2171 -1.8512 -0.1568
 5161TIP3    H215448   1.793   1.887   0.028  1.2633 -0.0544  0.1310
 5162TIP3   OH215449   6.059   5.840   3.947 -0.2019  0.0227  0.2671
 5162TIP3    H115450   6.094   5.874   4.030 -0.6276 -1.5330  1.1100
 5162TIP3    H215451   6.097   5.898   3.881 -1.0736  2.2824  1.6267
 5163TIP3   OH215452   5.527   3.083   0.904  0.3824 -0.1753 -0.2034
 5163TIP3    H115453   5.525   3.116   0.814  0.2409 -1.6842 -0.7774
 5163TIP3    H215454   5.620   3.087   0.929  0.1661  2.5494  0.5259
 5164TIP3   OH215455   6.518   4.035   2.566 -0.3255 -0.0383  0.2663
 5164TIP3    H115456   6.453   4.075   2.625 -1.4642 -3.0859  1.2814
 5164TIP3    H215457   6.575   3.985   2.624 -1.4806 -3.1541 -1.0514
 5165TIP3   OH215458   0.756   1.433   5.463 -0.0641  0.5398  0.4674
 5165TIP3    H115459   0.686   1.471   5.410  0.6257 -0.5828 -1.3476
 5165TIP3    H215460   0.791   1.506   5.513 -1.3802  1.4626  0.0857
 5166TIP3   OH215461   5.521   3.681   4.253  0.5966 -0.0679  0.4408
 5166TIP3    H115462   5.524   3.758   4.196 -0.7074 -1.6883 -1.9737
 5166TIP3    H215463   5.534   3.607   4.195 -1.3672 -1.8879  2.1510
 5167TIP3   OH215464   0.427   0.478   4.472  0.5338  0.2207 -0.1436
 5167TIP3    H115465   0.459   0.426   4.398 -1.8570  0.1873 -1.2457
 5167TIP3    H215466   0.378   0.550   4.431 -3.1857 -1.2613  1.2644
 5168TIP3   OH215467   4.937   3.882   5.858 -0.4634  0.1711 -0.3539
 5168TIP3    H115468   4.879   3.865   5.784 -0.6811  1.1636 -0.4258
 5168TIP3    H215469   5.023   3.852   5.829 -0.2956  1.6586 -1.4933
 5169TIP3   OH215470   1.580   1.077   0.350  0.1213 -0.2939 -0.1454
 5169TIP3    H115471   1.548   1.132   0.279  0.5864 -0.4710 -0.4955
 5169TIP3    H215472   1.625   1.004   0.306  3.5133  1.3392  0.2760
 5170TIP3   OH215473   6.884   4.133   5.282  0.3770  0.2056  0.1109
 5170TIP3    H115474   6.971   4.118   5.319  0.0361  1.5940  1.5864
 5170TIP3    H215475   6.824   4.122   5.355 -0.5606  0.6414 -0.5676
 5171TIP3   OH215476   6.918   4.881   5.086 -0.2312  0.1602 -0.4194
 5171TIP3    H115477   6.977   4.943   5.043  1.3270 -0.5367  0.6218
 5171TIP3    H215478   6.870   4.935   5.149  3.4590  0.0249  2.9139
 5172TIP3   OH215479   1.924   1.236   1.120 -0.0812  0.4074  0.3271
 5172TIP3    H115480   1.935   1.262   1.028  3.3023  0.5171  0.6440
 5172TIP3    H215481   1.910   1.319   1.166 -1.5374  0.3759 -0.0063
 5173TIP3   OH215482   0.690   0.529   5.615 -0.1802  0.5576 -0.5466
 5173TIP3    H115483   0.596   0.531   5.633  0.1634  2.7662  1.5361
 5173TIP3    H215484   0.717   0.440   5.638 -1.4980  0.3739  0.3913
 5174TIP3   OH215485   4.332   6.373   4.064 -1.0762  0.1951 -0.1877
 5174TIP3    H115486   4.294   6.460   4.056 -1.5255  0.1161  0.9121
 5174TIP3    H215487   4.386   6.377   4.142 -0.3077 -0.2402 -0.6823
 5175TIP3   OH215488   1.846   4.883   1.734 -0.4457 -0.4057  0.4101
 5175TIP3    H115489   1.839   4.788   1.736  1.3375 -0.6050 -0.5160
 5175TIP3    H215490   1.874   4.903   1.644  0.0188  0.9125  0.8214
 5176TIP3   OH215491   3.388   6.164   3.679 -0.3463  0.3087 -0.4628
 5176TIP3    H115492   3.404   6.228   3.748  1.0757  0.2100 -0.6708
 5176TIP3    H215493   3.293   6.160   3.671 -0.4841  1.4335  0.4438
 5177TIP3   OH215494   3.439   4.871   1.030  0.4754 -0.0360  0.4310
 5177TIP3    H115495   3.383   4.947   1.018 -0.6057 -0.9040 -0.2798
 5177TIP3    H215496   3.378   4.798   1.045  1.4818 -0.7328  1.3521
 5178TIP3   OH215497   6.457   0.112   1.066  0.5462  0.5907 -0.3349
 5178TIP3    H115498   6.542   0.140   1.101  0.3727  2.7374 -1.4879
 5178TIP3    H215499   6.395   0.131   1.136  0.6836  1.4818 -0.4404
 5179TIP3   OH215500   2.395   4.616   0.690 -0.1546 -0.5168  0.1778
 5179TIP3    H115501   2.460   4.637   0.757 -2.2607 -0.7814  2.4683
 5179TIP3    H215502   2.375   4.699   0.648  0.8767 -0.2573  0.1852
 5180TIP3   OH215503   0.611   4.968   1.014 -0.0060  0.7009  0.4149
 5180TIP3    H115504   0.647   4.889   0.974  2.1940  2.4655 -1.3535
 5180TIP3    H215505   0.624   4.955   1.108  2.0319 -0.3015  0.0496
 5181TIP3   OH215506   4.980   2.473   0.545 -0.6374  0.4779  0.0167
 5181TIP3    H115507   5.056   2.513   0.502 -1.2217  1.7851  0.1441
 5181TIP3    H215508   4.924   2.444   0.473 -0.6867  0.8393 -0.0939
 5182TIP3   OH215509   4.021   6.042   4.780  0.0014  0.3232  0.4514
 5182TIP3    H115510   4.094   6.099   4.801  0.3688 -0.2764  0.8318
 5182TIP3    H215511   4.047   5.998   4.699  0.1027  0.0351  0.6413
 5183TIP3   OH215512   2.630   3.781   0.276 -0.2487  0.0785 -0.7383
 5183TIP3    H115513   2.649   3.790   0.183  1.1137  3.0230 -0.3072
 5183TIP3    H215514   2.715   3.792   0.319 -0.6714 -2.3226  0.8748
 5184TIP3   OH215515   2.997   0.755   3.929  0.0688 -0.2986 -0.1420
 5184TIP3    H115516   2.942   0.795   3.861  2.7061  1.9448 -1.1143
 5184TIP3    H215517   3.021   0.827   3.986  0.9737 -1.4556  1.0051
 5185TIP3   OH215518   3.634   0.181   1.666 -0.2557 -0.2400  0.1505
 5185TIP3    H115519   3.585   0.103   1.693  0.0986 -0.8568 -0.8959
 5185TIP3    H215520   3.633   0.178   1.571  2.2867 -0.6275  0.0484
 5186TIP3   OH215521   5.871   0.418   3.737  0.0033  0.3380  0.1273
 5186TIP3    H115522   5.843   0.340   3.688  0.4216 -0.3598  0.9678
 5186TIP3    H215523   5.818   0.489   3.701 -1.0113 -0.4877 -0.0562
 5187TIP3   OH215524   7.227   5.757   3.762  0.7173  0.0309  0.0656
 5187TIP3    H115525   7.161   5.710   3.812 -0.4561 -0.1127 -1.5227
 5187TIP3    H215526   7.192   5.760   3.673  1.5008  2.4915 -0.2523
 5188TIP3   OH215527   4.381   1.336   4.203  0.3224  0.1298  0.4894
 5188TIP3    H115528   4.378   1.311   4.296  0.8262  0.3058  0.5568
 5188TIP3    H215529   4.325   1.413   4.198 -1.9303 -1.4102  0.1269
 5189TIP3   OH215530   5.981   6.401   1.597 -0.3889 -0.0740  0.3186
 5189TIP3    H115531   5.898   6.354   1.585  0.4973 -1.3877 -1.1408
 5189TIP3    H215532   6.005   6.430   1.509  2.0218 -2.1769  0.1495
 5190TIP3   OH215533   6.589   3.245   5.346 -0.1256  0.2920  0.0940
 5190TIP3    H115534   6.553   3.326   5.383  0.3167 -0.0258  1.2647
 5190TIP3    H215535   6.638   3.274   5.269 -0.5977  1.0519  0.0678
 5191TIP3   OH215536   6.906   5.753   5.281 -0.1584 -0.0988 -0.3838
 5191TIP3    H115537   6.992   5.770   5.320 -0.2415 -1.1229  0.2786
 5191TIP3    H215538   6.917   5.772   5.188  1.1943 -1.6446 -0.5695
 5192TIP3   OH215539   0.137   3.837   1.083 -0.2422  0.1629  0.2645
 5192TIP3    H115540   0.220   3.881   1.099 -0.9965  1.7523  0.0891
 5192TIP3    H215541   0.071   3.898   1.118 -1.3571 -0.8026 -0.0924
 5193TIP3   OH215542   4.185   2.697   3.743 -0.3235  0.4535 -0.5743
 5193TIP3    H115543   4.187   2.774   3.800 -1.5305 -0.0094  0.1228
 5193TIP3    H215544   4.093   2.686   3.720 -0.4519 -1.7465  0.7100
 5194TIP3   OH215545   5.385   2.400   1.886  0.2831 -0.1208 -0.1137
 5194TIP3    H115546   5.294   2.428   1.878  0.6829  1.1271 -0.5803
 5194TIP3    H215547   5.432   2.479   1.913  1.3684 -0.4842 -0.8755
 5195TIP3   OH215548   5.349   0.127   2.453  0.3175  0.2642 -0.8123
 5195TIP3    H115549   5.421   0.131   2.390  0.6205 -0.0743 -0.4954
 5195TIP3    H215550   5.281   0.183   2.416  0.8261  0.7568 -1.0084
 5196TIP3   OH215551   1.885   6.383   1.033 -0.2509 -0.2293 -0.4027
 5196TIP3    H115552   1.850   6.356   0.948 -0.5169 -0.1213 -0.3289
 5196TIP3    H215553   1.812   6.428   1.075  0.7922  2.7312 -1.4573
 5197TIP3   OH215554   6.160   5.039   0.575 -0.8496 -0.2567 -0.0273
 5197TIP3    H115555   6.138   5.005   0.662 -0.0475  1.5780  0.9670
 5197TIP3    H215556   6.251   5.068   0.583 -0.2370 -1.4865 -1.9874
 5198TIP3   OH215557   6.291   3.679   4.657  0.1577  0.4972  0.5210
 5198TIP3    H115558   6.357   3.615   4.631 -1.3323 -1.3660  1.0605
 5198TIP3    H215559   6.298   3.683   4.753 -0.1451  0.6886  0.5350
 5199TIP3   OH215560   1.300   2.986   0.830 -0.1669  0.0240  0.1644
 5199TIP3    H115561   1.308   2.923   0.902  1.2951 -0.4951 -0.4112
 5199TIP3    H215562   1.243   2.944   0.766 -0.6459  0.0588  0.5639
 5200TIP3   OH215563   0.676   1.859   2.036 -0.4557 -0.0045  0.0942
 5200TIP3    H115564   0.724   1.914   1.974  0.4860 -0.8056  0.0969
 5200TIP3    H215565   0.585   1.889   2.029 -0.0572  1.1557 -0.3165
 5201TIP3   OH215566   1.815   6.090   5.466 -0.2424  0.4497 -0.1257
 5201TIP3    H115567   1.891   6.054   5.419 -1.4993 -2.5605 -0.1059
 5201TIP3    H215568   1.756   6.118   5.396  0.5683  2.2929 -0.1432
 5202TIP3   OH215569   6.092   3.822   0.716 -0.2589  0.2635 -0.3498
 5202TIP3    H115570   6.089   3.915   0.691 -0.3927 -0.3983 -3.0840
 5202TIP3    H215571   6.155   3.783   0.656  1.4215 -1.1046  2.1331
 5203TIP3   OH215572   1.629   0.402   2.276 -0.1313 -0.2143  0.2978
 5203TIP3    H115573   1.640   0.319   2.322 -1.1215 -1.5604 -1.7776
 5203TIP3    H215574   1.688   0.396   2.201 -0.5059  0.8018 -0.0973
 5204TIP3   OH215575   5.508   1.275   5.781  0.1940  0.1054 -0.2080
 5204TIP3    H115576   5.447   1.207   5.810 -0.0098 -0.3414 -1.6344
 5204TIP3    H215577   5.569   1.285   5.854 -1.4139  0.4003  1.1797
 5205TIP3   OH215578   4.426   5.896   3.909  0.0072  0.3485 -0.2230
 5205TIP3    H115579   4.340   5.863   3.882 -1.1525  2.0221  1.2225
 5205TIP3    H215580   4.451   5.957   3.840 -0.4303  0.5911 -0.1690
 5206TIP3   OH215581   1.136   4.438   0.381  0.0419  0.4561 -0.3805
 5206TIP3    H115582   1.203   4.377   0.349 -1.3213 -0.7512 -1.0672
 5206TIP3    H215583   1.076   4.384   0.433 -0.1674  1.5940  0.6118
 5207TIP3   OH215584   6.641   0.403   0.211 -0.1659  0.6025 -0.0898
 5207TIP3    H115585   6.570   0.339   0.217  0.6331 -0.2257  0.8276
 5207TIP3    H215586   6.612   0.475   0.268  0.0502 -0.0694  0.9021
 5208TIP3   OH215587   3.490   6.164   1.135  0.6017 -0.3271  0.3547
 5208TIP3    H115588   3.463   6.245   1.177  0.3084 -0.6533  0.7941
 5208TIP3    H215589   3.586   6.169   1.133  0.6600 -0.6074  1.6771
 5209TIP3   OH215590   3.732   0.247   0.165  0.0496 -0.2331 -0.5938
 5209TIP3    H115591   3.661   0.216   0.109 -0.1415 -2.3869  0.7389
 5209TIP3    H215592   3.798   0.281   0.104 -1.1665 -0.2244 -1.9583
 5210TIP3   OH215593   4.187   1.454   5.810  0.1646 -0.2526 -0.0164
 5210TIP3    H115594   4.113   1.410   5.853  0.4494 -2.3535 -1.5225
 5210TIP3    H215595   4.256   1.455   5.877 -0.1474 -1.3395  0.3386
 5211TIP3   OH215596   0.206   3.185   4.109 -0.1275 -0.0881 -0.2602
 5211TIP3    H115597   0.285   3.136   4.135 -0.7100  0.1042  2.0743
 5211TIP3    H215598   0.240   3.270   4.079  0.6279 -0.4650 -0.5071
 5212TIP3   OH215599   1.253   3.757   2.063  0.2730 -0.0347 -0.7131
 5212TIP3    H115600   1.336   3.737   2.106  0.3151  1.1786 -0.1957
 5212TIP3    H215601   1.279   3.792   1.977  0.3175  0.6387 -0.4299
 5213TIP3   OH215602   1.879   5.680   4.186  0.5191  0.3674  0.3649
 5213TIP3    H115603   1.842   5.763   4.156  0.5876 -0.1358 -1.1679
 5213TIP3    H215604   1.970   5.699   4.206  0.4768  0.7015  0.2336
 5214TIP3   OH215605   5.783   2.762   5.154  0.1851  0.4205 -0.5780
 5214TIP3    H115606   5.725   2.692   5.124  0.0913  0.1960  0.1069
 5214TIP3    H215607   5.862   2.717   5.184  1.2494  0.7936 -2.6081
 5215TIP3   OH215608   3.344   0.723   4.903  0.0765  0.1714 -0.0949
 5215TIP3    H115609   3.386   0.792   4.851  0.3242 -1.6317 -2.4134
 5215TIP3    H215610   3.251   0.745   4.901  0.3261  1.4215  0.7910
 5216TIP3   OH215611   6.652   2.439   4.019 -0.4618  0.0748  0.4538
 5216TIP3    H115612   6.695   2.429   3.934 -1.3991  0.8514 -0.1338
 5216TIP3    H215613   6.665   2.355   4.063  0.8003 -0.0294 -0.0881
 5217TIP3   OH215614   3.396   0.203   1.026  0.2930 -0.2689 -0.5085
 5217TIP3    H115615   3.321   0.235   1.075  0.2847  0.5764 -1.0448
 5217TIP3    H215616   3.462   0.183   1.092  0.3003  0.8863 -0.1495
 5218TIP3   OH215617   4.184   4.581   4.002  0.3367  0.0228  0.2144
 5218TIP3    H115618   4.203   4.656   3.945  0.8076  0.4527  0.9330
 5218TIP3    H215619   4.129   4.617   4.071  0.8025 -0.2335  0.7239
 5219TIP3   OH215620   6.560   5.903   4.012 -0.3915 -0.3346  0.2353
 5219TIP3    H115621   6.614   5.975   3.979  1.2091 -1.6825 -0.1733
 5219TIP3    H215622   6.473   5.922   3.977  0.3035  0.6597 -1.0442
 5220TIP3   OH215623   6.218   4.348   4.606  0.4516 -0.5432  0.2393
 5220TIP3    H115624   6.178   4.432   4.583  1.1244 -0.4430 -0.6007
 5220TIP3    H215625   6.199   4.291   4.532 -0.9686 -1.4942  1.2895
 5221TIP3   OH215626   1.945   6.258   1.921 -0.4644 -0.6785  0.2136
 5221TIP3    H115627   1.969   6.246   2.013 -0.4529 -3.1424 -0.0419
 5221TIP3    H215628   2.003   6.197   1.873  0.6585  1.6621 -1.6435
 5222TIP3   OH215629   6.819   0.226   4.703 -0.6326 -0.1660 -0.1453
 5222TIP3    H115630   6.773   0.177   4.635  0.0226 -0.5622 -0.3039
 5222TIP3    H215631   6.879   0.163   4.743  0.2509  0.5101 -0.3852
 5223TIP3   OH215632   6.434   1.873   1.339 -0.2160  0.6899 -0.0257
 5223TIP3    H115633   6.496   1.867   1.412 -0.9458 -0.9490  0.5038
 5223TIP3    H215634   6.354   1.832   1.372 -0.9325  0.9468 -1.3789
 5224TIP3   OH215635   3.810   5.211   3.935  0.2079 -0.0427 -0.5598
 5224TIP3    H115636   3.831   5.276   4.001  0.3311  1.4210 -1.9757
 5224TIP3    H215637   3.882   5.216   3.872  0.2568 -1.6175 -0.6630
 5225TIP3   OH215638   5.943   0.774   0.708  0.2241  0.9493  0.0951
 5225TIP3    H115639   5.973   0.786   0.799 -0.2556 -0.9751  0.5352
 5225TIP3    H215640   5.850   0.793   0.711  0.4137  2.0407 -0.2710
 5226TIP3   OH215641   6.255   4.685   0.810  0.2067  0.6008 -0.3545
 5226TIP3    H115642   6.173   4.733   0.825  0.4134  0.1359  3.3325
 5226TIP3    H215643   6.323   4.752   0.819  0.3183  0.4052  0.3679
 5227TIP3   OH215644   5.304   2.047   2.498 -0.4238  0.6551  0.1505
 5227TIP3    H115645   5.259   2.124   2.463 -1.0410  0.2865  0.1146
 5227TIP3    H215646   5.258   2.029   2.580  0.7104  1.2330  0.9322
 5228TIP3   OH215647   5.648   3.051   3.319  0.0909 -0.2147  0.7588
 5228TIP3    H115648   5.618   2.961   3.328 -0.5618 -0.1436 -0.4560
 5228TIP3    H215649   5.674   3.058   3.227  4.1536 -0.3272  1.6781
 5229TIP3   OH215650   0.560   1.134   2.628 -0.4241  0.4219  0.4037
 5229TIP3    H115651   0.569   1.175   2.542  0.7730 -0.9374 -0.1443
 5229TIP3    H215652   0.510   1.198   2.679  0.8334  2.2789 -0.5911
 5230TIP3   OH215653   3.471   4.467   2.166 -0.0692 -0.1547  0.2138
 5230TIP3    H115654   3.441   4.433   2.082  0.3064  1.6242 -0.6919
 5230TIP3    H215655   3.416   4.423   2.231 -0.8774 -1.0074 -1.0078
 5231TIP3   OH215656   5.452   6.683   3.552 -0.5878 -0.4820 -0.3376
 5231TIP3    H115657   5.465   6.682   3.646 -1.6713  0.8824 -0.1309
 5231TIP3    H215658   5.540   6.684   3.515 -0.1517 -0.4221  0.6758
 5232TIP3   OH215659   0.832   3.852   1.172 -0.0700  0.3977 -0.5565
 5232TIP3    H115660   0.770   3.912   1.211 -0.7205  1.1589 -2.6141
 5232TIP3    H215661   0.917   3.896   1.179  0.0760 -0.0950  1.1447
 5233TIP3   OH215662   4.305   5.368   4.427 -0.2303  0.2734 -0.4331
 5233TIP3    H115663   4.307   5.414   4.511 -1.9604 -0.5354  0.1166
 5233TIP3    H215664   4.395   5.338   4.413 -0.0951 -0.5278  1.7103
 5234TIP3   OH215665   4.054   6.472   5.004 -0.1177 -0.1920 -0.1392
 5234TIP3    H115666   4.082   6.530   4.933  1.1756 -0.4651  0.1200
 5234TIP3    H215667   4.101   6.505   5.081 -0.1990 -0.9302  0.2315
 5235TIP3   OH215668   1.547   5.322   2.564 -0.2312  0.5261 -0.5222
 5235TIP3    H115669   1.459   5.310   2.527 -0.0425 -3.9247 -0.0963
 5235TIP3    H215670   1.603   5.339   2.489 -1.0664  0.5745 -1.1507
 5236TIP3   OH215671   0.029   6.493   0.523 -0.3828  0.2793  0.1650
 5236TIP3    H115672   0.048   6.532   0.608 -1.1574  1.4830 -0.1843
 5236TIP3    H215673   0.107   6.443   0.501  0.1389  0.6093  1.2286
 5237TIP3   OH215674   1.435   2.306   3.673  0.4495  0.0785 -0.2142
 5237TIP3    H115675   1.434   2.384   3.729  1.0349 -0.5137  0.6438
 5237TIP3    H215676   1.463   2.339   3.588  1.6788  0.6702  0.3911
 5238TIP3   OH215677   5.096   3.550   4.070 -0.0037  0.3593 -0.2205
 5238TIP3    H115678   5.151   3.629   4.074  0.3832  0.0387  1.3929
 5238TIP3    H215679   5.007   3.583   4.058  0.0835  1.0804  1.0055
 5239TIP3   OH215680   0.849   5.143   4.148 -0.3081  0.1496  0.1205
 5239TIP3    H115681   0.845   5.183   4.235 -1.2192 -0.8259  0.5418
 5239TIP3    H215682   0.913   5.197   4.101 -1.3700  2.0012  0.6939
 5240TIP3   OH215683   5.015   1.095   5.185  0.5467  0.0159 -0.3139
 5240TIP3    H115684   5.064   1.169   5.148  0.7947 -0.0727 -0.1619
 5240TIP3    H215685   5.014   1.112   5.279 -0.3537  0.4061 -0.3798
 5241TIP3   OH215686   1.527   6.285   5.257 -0.5138 -0.0315  0.1103
 5241TIP3    H115687   1.502   6.197   5.230  2.8015 -0.5948 -1.6670
 5241TIP3    H215688   1.616   6.296   5.223 -0.6828  3.9123  0.5127
 5242TIP3   OH215689   0.290   1.250   1.333  0.0307  0.3625 -0.1808
 5242TIP3    H115690   0.361   1.211   1.282 -0.2564 -0.0895 -0.2389
 5242TIP3    H215691   0.298   1.209   1.419  0.1099  0.6387 -0.0560
 5243TIP3   OH215692   1.402   2.635   4.377 -0.5120 -0.2983  0.2242
 5243TIP3    H115693   1.466   2.693   4.336 -0.7297 -0.0538  0.2252
 5243TIP3    H215694   1.454   2.563   4.413 -0.3141 -0.5172 -0.4755
 5244TIP3   OH215695   5.229   2.113   3.559  0.0055  0.0753 -0.0150
 5244TIP3    H115696   5.243   2.018   3.549  1.1945  0.4043 -2.1625
 5244TIP3    H215697   5.246   2.149   3.472  0.1679  2.3409  0.8795
 5245TIP3   OH215698   7.117   4.840   5.822  0.1974 -0.0738  0.6000
 5245TIP3    H115699   7.158   4.897   5.888 -1.7255 -1.0090  2.7207
 5245TIP3    H215700   7.026   4.868   5.819 -0.3916 -1.8813  0.4319
 5246TIP3   OH215701   1.610   1.642   1.827 -0.6209  0.1043 -0.4225
 5246TIP3    H115702   1.671   1.710   1.799  1.5374 -1.7692 -0.5531
 5246TIP3    H215703   1.629   1.629   1.920 -0.9204 -0.4045 -0.4268
 5247TIP3   OH215704   5.080   5.181   1.148 -0.5230 -0.3644  0.1285
 5247TIP3    H115705   5.147   5.235   1.107 -1.2020 -0.3786 -1.0518
 5247TIP3    H215706   5.125   5.138   1.221  0.9532 -0.9023 -1.0323
 5248TIP3   OH215707   4.420   5.567   2.073  0.1384  0.0539 -0.5187
 5248TIP3    H115708   4.445   5.475   2.072 -0.2942 -0.0639 -1.0321
 5248TIP3    H215709   4.501   5.614   2.054  0.1634 -0.2741 -1.2493
 5249TIP3   OH215710   3.109   5.525   2.120  0.0799  0.4415  0.8993
 5249TIP3    H115711   3.154   5.535   2.204  2.2088  2.6048 -0.3670
 5249TIP3    H215712   3.158   5.581   2.060 -1.8612 -0.3803 -1.6241
 5250TIP3   OH215713   0.859   2.469   0.600 -0.3902  0.3314 -0.2357
 5250TIP3    H115714   0.951   2.451   0.579 -0.7523  0.0001 -1.6846
 5250TIP3    H215715   0.811   2.399   0.556 -1.4841  1.8691 -1.6227
 5251TIP3   OH215716   3.084   3.265   2.630 -0.4884 -0.8605  0.1351
 5251TIP3    H115717   3.174   3.278   2.601 -0.1564  3.9959  2.2973
 5251TIP3    H215718   3.092   3.231   2.719 -0.7404  0.0379  0.5067
 5252TIP3   OH215719   3.378   0.963   5.189  0.3993 -0.2298 -0.3407
 5252TIP3    H115720   3.445   1.012   5.142 -0.6959  0.7781 -0.9100
 5252TIP3    H215721   3.391   0.872   5.161  0.8600  0.1002 -1.2583
 5253TIP3   OH215722   5.350   6.743   2.153  0.5574 -0.0665  0.2528
 5253TIP3    H115723   5.364   6.766   2.245  1.5074 -0.4049  0.1992
 5253TIP3    H215724   5.317   6.653   2.156  1.8056 -0.5387  0.2101
 5254TIP3   OH215725   0.817   3.429   1.514 -0.2923  0.3719 -0.3301
 5254TIP3    H115726   0.829   3.523   1.527 -1.6072  0.7090 -1.2746
 5254TIP3    H215727   0.833   3.415   1.421 -0.4355 -0.2731 -0.2660
 5255TIP3   OH215728   5.964   6.559   5.233  0.1525 -0.6012  0.0242
 5255TIP3    H115729   5.965   6.540   5.327  1.0442  2.0747  0.6690
 5255TIP3    H215730   6.055   6.544   5.205 -0.1108 -1.3889 -0.4379
 5256TIP3   OH215731   5.251   0.541   1.178  0.6588 -0.5841 -0.1063
 5256TIP3    H115732   5.293   0.527   1.093  0.6274  0.1368 -0.2482
 5256TIP3    H215733   5.181   0.476   1.182  1.0042 -0.9700 -0.4040
 5257TIP3   OH215734   0.861   0.935   3.702  0.0075 -0.2721 -0.2568
 5257TIP3    H115735   0.773   0.923   3.666 -0.6616  1.9996  0.4043
 5257TIP3    H215736   0.897   1.009   3.653  0.0227  1.2731  1.9279
 5258TIP3   OH215737   4.398   3.875   5.321 -0.2568 -0.8910  0.0716
 5258TIP3    H115738   4.443   3.935   5.381  1.9256 -0.6127 -1.7103
 5258TIP3    H215739   4.317   3.921   5.299  0.5741  0.6417  0.0574
 5259TIP3   OH215740   4.177   5.134   0.316  0.0215  0.4097 -0.0615
 5259TIP3    H115741   4.184   5.073   0.242 -2.3831  1.4362 -1.2093
 5259TIP3    H215742   4.256   5.188   0.308  0.8093 -0.7522 -0.6575
 5260TIP3   OH215743   2.851   0.352   4.404  0.1330 -0.4806 -0.5331
 5260TIP3    H115744   2.896   0.432   4.430 -0.4507 -0.2506 -0.2077
 5260TIP3    H215745   2.887   0.332   4.318  1.6874 -0.9474  0.1859
 5261TIP3   OH215746   5.825   2.516   2.730  1.0199 -0.3197 -0.4437
 5261TIP3    H115747   5.834   2.446   2.795 -0.5631 -0.6750 -0.5772
 5261TIP3    H215748   5.772   2.477   2.661  1.6178  0.4620 -1.3649
 5262TIP3   OH215749   5.012   4.596   2.356  0.7939 -0.6345  0.2084
 5262TIP3    H115750   4.948   4.555   2.298 -0.3446 -0.0940  1.0297
 5262TIP3    H215751   4.993   4.558   2.442 -0.5002  1.7340  1.0572
 5263TIP3   OH215752   5.266   3.854   0.835 -0.2313 -0.1915 -0.3321
 5263TIP3    H115753   5.289   3.861   0.928 -0.9465  1.3202 -0.2312
 5263TIP3    H215754   5.311   3.928   0.794  0.6988 -1.2836 -1.3504
 5264TIP3   OH215755   7.038   0.910   5.796 -0.3579 -0.2206 -0.1160
 5264TIP3    H115756   6.977   0.939   5.864  1.0717 -0.5433  1.3798
 5264TIP3    H215757   7.120   0.953   5.819 -0.1881  0.8759 -2.5619
 5265TIP3   OH215758   4.804   3.771   1.309  0.3952 -0.1500  1.0893
 5265TIP3    H115759   4.835   3.818   1.386  1.4341  1.6444 -0.3469
 5265TIP3    H215760   4.740   3.829   1.269  1.4256 -0.0467 -0.5258
 5266TIP3   OH215761   0.969   4.562   5.715 -0.1581 -0.4443  0.0270
 5266TIP3    H115762   1.062   4.559   5.693 -0.0496  0.7233  0.2485
 5266TIP3    H215763   0.927   4.508   5.649  0.6888 -1.1097  0.0134
 5267TIP3   OH215764   0.894   3.126   5.727 -0.0809 -0.3501 -0.3801
 5267TIP3    H115765   0.835   3.167   5.664  0.1096 -0.4114 -0.5952
 5267TIP3    H215766   0.982   3.151   5.698  0.0194 -0.6326 -0.3158
 5268TIP3   OH215767   2.705   1.762   3.456  0.2850 -0.1021  0.0216
 5268TIP3    H115768   2.639   1.768   3.387  0.4401 -1.6806 -0.2923
 5268TIP3    H215769   2.719   1.668   3.468  0.5961  0.1380  1.8889
 5269TIP3   OH215770   3.236   1.470   5.371 -0.3619  0.6312 -0.2209
 5269TIP3    H115771   3.329   1.469   5.393 -0.0103 -2.2891 -1.3375
 5269TIP3    H215772   3.229   1.412   5.295 -3.2458 -0.3022  0.6193
 5270TIP3   OH215773   0.618   3.174   5.857 -0.1977  0.6138 -0.6029
 5270TIP3    H115774   0.621   3.085   5.822 -0.2234  0.6508 -0.6997
 5270TIP3    H215775   0.644   3.229   5.783  2.9922  0.4678  0.2708
 5271TIP3   OH215776   2.837   3.025   4.893 -0.1773 -0.2462  0.9566
 5271TIP3    H115777   2.908   3.027   4.958  0.3874 -0.4789  0.3514
 5271TIP3    H215778   2.790   2.944   4.912  0.5767 -0.8120  0.4605
 5272TIP3   OH215779   1.197   5.844   3.378 -0.4629 -0.0898  0.5995
 5272TIP3    H115780   1.200   5.936   3.349 -1.6083  0.1184  1.0892
 5272TIP3    H215781   1.237   5.845   3.464  0.1806 -0.1803  0.3046
 5273TIP3   OH215782   7.138   4.833   2.278 -0.2766 -0.2682 -0.0716
 5273TIP3    H115783   7.119   4.896   2.209 -0.8976  1.2160  1.3964
 5273TIP3    H215784   7.229   4.847   2.300 -0.8382  1.3473  1.3952
 5274TIP3   OH215785   1.881   3.106   0.985 -0.5686  0.0288 -0.0979
 5274TIP3    H115786   1.897   3.092   0.892 -0.2027  0.9471 -0.1901
 5274TIP3    H215787   1.921   3.191   1.003 -1.2926  0.2052  0.7320
 5275TIP3   OH215788   4.340   3.793   4.588 -0.3670 -0.3541  0.4726
 5275TIP3    H115789   4.305   3.880   4.573  0.6549  0.1442  0.9088
 5275TIP3    H215790   4.433   3.806   4.605 -0.1091 -1.5720  0.1284
 5276TIP3   OH215791   1.233   3.624   3.930 -1.0401 -0.5870  0.7896
 5276TIP3    H115792   1.147   3.583   3.928 -1.4639  0.3022 -0.0560
 5276TIP3    H215793   1.216   3.716   3.949 -0.7082  0.4760 -3.2319
 5277TIP3   OH215794   6.037   5.143   1.315  0.0436 -0.7077  0.6944
 5277TIP3    H115795   6.105   5.076   1.319 -0.5921 -1.4953 -0.7784
 5277TIP3    H215796   5.987   5.131   1.396 -0.0108 -1.9905  0.4999
 5278TIP3   OH215797   0.805   1.457   1.236 -0.1832 -0.4832  0.6284
 5278TIP3    H115798   0.882   1.514   1.226  1.3724 -2.3965  1.1069
 5278TIP3    H215799   0.790   1.421   1.149 -0.4555 -0.2524  0.5760
 5279TIP3   OH215800   6.930   3.345   2.760  0.1408 -0.6726 -0.2586
 5279TIP3    H115801   6.875   3.341   2.682  0.1311 -0.3619 -0.2683
 5279TIP3    H215802   7.005   3.290   2.740  0.2227 -0.4510 -0.5536
 5280TIP3   OH215803   6.348   2.450   5.648 -0.2442 -0.4437  0.0463
 5280TIP3    H115804   6.428   2.494   5.676  0.8849 -2.2466 -0.1905
 5280TIP3    H215805   6.303   2.428   5.730  0.3970 -0.9621  0.2753
 5281TIP3   OH215806   6.729   2.296   5.621 -0.2370 -0.1602  0.3235
 5281TIP3    H115807   6.808   2.256   5.655 -0.7571 -1.5631 -0.0454
 5281TIP3    H215808   6.675   2.312   5.699  0.6921  1.5352  0.6616
 5282TIP3   OH215809   3.157   3.405   4.515 -0.0193 -0.2443 -0.0359
 5282TIP3    H115810   3.232   3.353   4.485 -0.1796 -0.4329 -0.1114
 5282TIP3    H215811   3.166   3.488   4.468  3.6805  2.3487  4.3747
 5283TIP3   OH215812   2.072   0.361   4.587  0.3060 -0.1948  0.0781
 5283TIP3    H115813   2.089   0.269   4.568  0.8204 -0.2949  0.9444
 5283TIP3    H215814   2.158   0.399   4.602  0.1671  0.6334 -1.0702
 5284TIP3   OH215815   5.858   0.780   5.478 -0.1314  0.2547  0.2993
 5284TIP3    H115816   5.852   0.871   5.509 -0.5004 -0.1048  1.3069
 5284TIP3    H215817   5.947   0.773   5.443 -0.0845  0.9893  0.2476
 5285TIP3   OH215818   4.929   6.384   4.161 -0.5517  0.2192 -0.4849
 5285TIP3    H115819   4.928   6.348   4.250 -0.8560 -0.0480 -0.5950
 5285TIP3    H215820   4.955   6.310   4.106 -1.9168 -0.0452 -0.8017
 5286TIP3   OH215821   5.075   1.852   1.012  0.2801 -0.3861 -0.2933
 5286TIP3    H115822   5.143   1.859   0.945 -0.2928 -2.7742 -1.2387
 5286TIP3    H215823   5.050   1.943   1.031  2.5369  0.4648 -1.1147
 5287TIP3   OH215824   2.397   0.370   2.197  0.4736  0.4279 -0.1052
 5287TIP3    H115825   2.331   0.303   2.178  2.2885 -2.3710  2.4677
 5287TIP3    H215826   2.351   0.453   2.187 -4.0356 -1.2753  3.1297
 5288TIP3   OH215827   4.595   5.214   1.348 -0.2381  0.6794  0.1313
 5288TIP3    H115828   4.540   5.285   1.382 -0.5175  1.8072 -2.4982
 5288TIP3    H215829   4.535   5.140   1.337 -0.5817  0.9633  0.0971
 5289TIP3   OH215830   0.812   3.294   4.771 -0.3975 -0.1004 -0.4083
 5289TIP3    H115831   0.826   3.272   4.679 -0.3737  0.5060 -0.5496
 5289TIP3    H215832   0.717   3.309   4.777 -0.4442 -0.4313 -0.2653
 5290TIP3   OH215833   3.452   3.663   2.494  0.6092 -0.3531  0.1025
 5290TIP3    H115834   3.504   3.733   2.533  0.7268 -0.7242  0.6191
 5290TIP3    H215835   3.401   3.706   2.426  0.8729  0.1885  0.2438
 5291TIP3   OH215836   0.698   6.814   5.246 -0.0965  0.4909  0.1060
 5291TIP3    H115837   0.619   6.763   5.265 -0.9349  0.7051 -2.3965
 5291TIP3    H215838   0.758   6.792   5.316 -1.6465 -1.3236  0.9532
 5292TIP3   OH215839   3.181   4.809   2.194  0.1410 -0.0753 -0.1923
 5292TIP3    H115840   3.141   4.893   2.173 -0.1522 -0.6695 -2.1778
 5292TIP3    H215841   3.274   4.828   2.202 -0.0894  0.6780  0.8499
 5293TIP3   OH215842   4.437   4.257   1.272 -0.2303 -0.3162  0.3884
 5293TIP3    H115843   4.358   4.219   1.309 -0.7108  0.0525 -0.2297
 5293TIP3    H215844   4.421   4.351   1.273  1.1666 -0.0387  2.4160
 5294TIP3   OH215845   1.061   3.404   4.812 -0.0083 -0.1815 -0.4768
 5294TIP3    H115846   1.062   3.428   4.720 -0.3074  1.7497 -0.0324
 5294TIP3    H215847   0.974   3.366   4.826 -0.3178  0.4071 -0.7899
 5295TIP3   OH215848   1.678   3.979   0.985  0.8547 -0.1799 -0.0305
 5295TIP3    H115849   1.681   4.032   1.064  0.7258 -1.5853  0.9507
 5295TIP3    H215850   1.740   3.908   1.001  0.0258 -1.0930 -0.7198
 5296TIP3   OH215851   6.635   5.606   5.788  0.1619 -0.4236 -0.7368
 5296TIP3    H115852   6.723   5.602   5.751  0.4143  0.4270 -0.2624
 5296TIP3    H215853   6.578   5.577   5.717  0.7410  0.0106 -1.3961
 5297TIP3   OH215854   1.736   3.257   3.588  0.5593  0.2215 -0.3632
 5297TIP3    H115855   1.795   3.326   3.618  1.1264 -0.3195 -0.1989
 5297TIP3    H215856   1.673   3.247   3.659 -0.3034  1.4342 -0.9295
 5298TIP3   OH215857   1.565   3.822   4.230  0.2209 -0.2460 -0.4225
 5298TIP3    H115858   1.569   3.843   4.137  1.1166 -2.9557 -1.0789
 5298TIP3    H215859   1.483   3.774   4.240 -0.3841  0.9034  0.4480
 5299TIP3   OH215860   7.238   1.867   5.589 -0.6175  0.4713 -0.0973
 5299TIP3    H115861   7.263   1.775   5.583 -0.0400  0.7168 -2.0596
 5299TIP3    H215862   7.147   1.870   5.559 -1.5393  0.2591  2.3873
 5300TIP3   OH215863   0.305   0.553   3.482 -0.0447  0.5757 -0.1255
 5300TIP3    H115864   0.305   0.645   3.508  0.7429  0.7505 -0.7109
 5300TIP3    H215865   0.385   0.542   3.431 -0.6831 -0.1667 -1.0134
 5301TIP3   OH215866   1.033   2.598   1.574 -0.1621  0.0153  0.9341
 5301TIP3    H115867   1.036   2.573   1.481  1.1512  1.6761  0.4677
 5301TIP3    H215868   1.120   2.635   1.591 -0.0752 -1.0084  3.0788
 5302TIP3   OH215869   2.770   1.818   4.889 -0.0345 -0.1468 -0.7628
 5302TIP3    H115870   2.720   1.900   4.886 -0.3201 -0.3154 -0.6953
 5302TIP3    H215871   2.716   1.760   4.942  0.2015 -0.3580 -0.7530
 5303TIP3   OH215872   1.163   2.499   3.352 -0.0670 -0.0507 -0.5088
 5303TIP3    H115873   1.151   2.589   3.383 -2.0666 -0.8985  1.5118
 5303TIP3    H215874   1.256   2.494   3.329  0.4163  2.1482  0.6290
 5304TIP3   OH215875   5.864   2.936   2.171  0.0413  0.3395 -0.1634
 5304TIP3    H115876   5.959   2.937   2.184 -0.2675  0.5579  3.0932
 5304TIP3    H215877   5.843   2.844   2.157  0.7049  0.2860 -0.8951
 5305TIP3   OH215878   5.488   2.367   0.788  0.2485 -0.2332 -0.7173
 5305TIP3    H115879   5.519   2.289   0.834  0.6065  0.1675 -0.2476
 5305TIP3    H215880   5.403   2.343   0.753  0.6790 -1.0756 -1.2324
 5306TIP3   OH215881   2.908   1.161   4.521  0.0640 -0.1503 -0.4233
 5306TIP3    H115882   2.901   1.136   4.429 -2.8544  2.7439 -1.1566
 5306TIP3    H215883   2.820   1.145   4.557  0.6298  0.5240  1.3915
 5307TIP3   OH215884   5.070   6.539   1.678 -0.0495  0.5924 -0.6541
 5307TIP3    H115885   5.022   6.622   1.677  1.6281  1.6820  1.4299
 5307TIP3    H215886   5.139   6.552   1.743  0.7198 -2.2148 -0.7901
 5308TIP3   OH215887   2.855   1.491   5.766 -0.0871  0.0467  0.0719
 5308TIP3    H115888   2.879   1.526   5.680  0.5993 -0.9016 -0.1478
 5308TIP3    H215889   2.929   1.435   5.790 -0.8861 -0.7938  0.6511
 5309TIP3   OH215890   1.005   6.328   2.417 -0.6247  0.0113  0.2159
 5309TIP3    H115891   1.022   6.373   2.334  0.2271  1.6547  1.2014
 5309TIP3    H215892   0.980   6.398   2.477 -0.0151 -0.9450  1.6493
 5310TIP3   OH215893   3.174   6.061   2.989 -0.3200 -0.1063 -0.6688
 5310TIP3    H115894   3.184   6.140   3.043 -2.9447 -0.8953  1.1998
 5310TIP3    H215895   3.142   6.094   2.905 -0.0824  0.9259 -0.3661
 5311TIP3   OH215896   5.551   2.325   5.395 -0.0054 -0.1336 -1.0364
 5311TIP3    H115897   5.615   2.254   5.387 -0.6068 -0.6623 -1.2260
 5311TIP3    H215898   5.576   2.370   5.475  1.3608  0.4329 -1.7373
 5312TIP3   OH215899   3.262   5.158   2.687 -0.1665 -0.2989  0.2778
 5312TIP3    H115900   3.316   5.234   2.665 -1.7795  0.4842 -1.2842
 5312TIP3    H215901   3.297   5.087   2.633 -0.4988  0.1398 -0.5411
 5313TIP3   OH215902   2.942   5.357   4.188 -0.1760 -0.0318 -0.0415
 5313TIP3    H115903   3.033   5.340   4.213  0.0267  1.0021 -0.0409
 5313TIP3    H215904   2.891   5.324   4.262  0.3623  2.0638  1.3707
 5314TIP3   OH215905   4.952   5.117   0.232  0.5894 -0.1793  0.1193
 5314TIP3    H115906   4.880   5.063   0.264 -0.4994  0.7146 -0.7436
 5314TIP3    H215907   4.926   5.141   0.143  1.8767  0.3128 -0.1414
 5315TIP3   OH215908   5.210   5.713   0.188 -0.4500 -0.1056 -0.4783
 5315TIP3    H115909   5.241   5.656   0.118  0.0910  0.8308 -1.0220
 5315TIP3    H215910   5.129   5.751   0.155 -0.3299  0.1356 -0.5044
 5316TIP3   OH215911   4.199   4.398   4.410  0.1743 -0.0298  0.2739
 5316TIP3    H115912   4.160   4.417   4.496  1.0002  0.1749  0.6136
 5316TIP3    H215913   4.293   4.393   4.427  0.2376 -1.4153 -0.3645
 5317TIP3   OH215914   3.374   3.867   4.366  0.0165 -0.6304 -0.4876
 5317TIP3    H115915   3.405   3.954   4.390 -0.0405 -1.1454  1.6117
 5317TIP3    H215916   3.315   3.882   4.291  1.2907  0.9132 -1.2283
 5318TIP3   OH215917   5.668   4.180   1.082 -0.3049  0.6253 -0.1743
 5318TIP3    H115918   5.666   4.273   1.061 -2.1275  0.7922  0.5986
 5318TIP3    H215919   5.579   4.159   1.108 -0.2859 -1.6957 -1.7307
 5319TIP3   OH215920   4.335   5.792   2.852 -0.3131 -0.0880  0.2884
 5319TIP3    H115921   4.270   5.813   2.919  0.2564  0.2134  0.7625
 5319TIP3    H215922   4.412   5.842   2.877  0.1272 -0.4926 -0.2225
 5320TIP3   OH215923   6.434   2.450   1.244  0.9491 -0.6057 -0.5115
 5320TIP3    H115924   6.340   2.435   1.243  0.5043  0.8476  3.4743
 5320TIP3    H215925   6.445   2.543   1.224  1.1925 -0.0766  1.8265
 5321TIP3   OH215926   4.341   2.290   4.220  0.2677  0.4247  0.1854
 5321TIP3    H115927   4.282   2.316   4.290 -0.4959  1.1564 -0.6971
 5321TIP3    H215928   4.286   2.243   4.158  0.2906  2.1142 -1.2173
 5322TIP3   OH215929   5.631   5.185   2.040  0.1133 -0.6841  1.1620
 5322TIP3    H115930   5.677   5.242   1.978  1.0540 -2.7360 -0.1240
 5322TIP3    H215931   5.539   5.191   2.014  0.6364 -2.7445 -1.6823
 5323TIP3   OH215932   4.321   3.576   3.920 -0.2125  0.0861 -0.0462
 5323TIP3    H115933   4.246   3.593   3.976 -0.5769  1.8016 -0.9827
 5323TIP3    H215934   4.285   3.525   3.847 -0.4568  0.8063 -0.4354
 5324TIP3   OH215935   3.982   3.313   2.215 -0.1453 -0.4956  0.0914
 5324TIP3    H115936   4.034   3.243   2.177  0.4942 -0.8724  1.5778
 5324TIP3    H215937   3.982   3.295   2.309 -0.5127  1.1324  0.4463
 5325TIP3   OH215938   4.294  -0.006   0.822 -0.7397 -0.6510 -0.4310
 5325TIP3    H115939   4.236  -0.051   0.761  1.2334 -0.9155 -2.2012
 5325TIP3    H215940   4.329   0.068   0.772 -1.2060  0.8241  1.3053
 5326TIP3   OH215941   6.340   2.329   5.398 -0.3994 -0.7384  0.3796
 5326TIP3    H115942   6.331   2.354   5.490 -1.9583  0.0572  0.0476
 5326TIP3    H215943   6.359   2.411   5.353 -1.4027 -0.8081 -0.2049
 5327TIP3   OH215944   3.734   2.297   4.421 -0.3647 -0.2477 -0.0818
 5327TIP3    H115945   3.678   2.221   4.406  1.2927 -1.4623 -0.4467
 5327TIP3    H215946   3.795   2.297   4.347  0.3299  0.8287  0.4608
 5328TIP3   OH215947   0.722   5.277   1.466 -0.5821 -0.2262  0.0078
 5328TIP3    H115948   0.664   5.308   1.396 -1.5051  0.4196  1.0276
 5328TIP3    H215949   0.685   5.193   1.491  0.5073 -1.0791 -1.1187
 5329TIP3   OH215950   1.318   4.293   4.290  0.4968 -0.4725  0.0860
 5329TIP3    H115951   1.405   4.273   4.253 -0.2236 -1.0323 -1.3987
 5329TIP3    H215952   1.262   4.304   4.213 -0.3224  2.0706  0.9527
 5330TIP3   OH215953   5.318   6.127   0.776 -0.4406  0.2623  0.4299
 5330TIP3    H115954   5.302   6.142   0.869 -0.8006 -0.6721  0.5335
 5330TIP3    H215955   5.409   6.097   0.772 -0.7912 -0.8882  0.6437
 5331TIP3   OH215956   0.449   2.770   3.601 -0.1225 -0.1858  0.4749
 5331TIP3    H115957   0.539   2.785   3.628  0.7455  1.9454 -2.9925
 5331TIP3    H215958   0.396   2.819   3.664  1.3660  0.9212  0.8993
 5332TIP3   OH215959   6.124   5.641   2.950 -0.2458 -0.2448 -0.2435
 5332TIP3    H115960   6.048   5.648   3.007 -0.7255  0.0623 -0.9088
 5332TIP3    H215961   6.188   5.703   2.986 -0.7626  0.3672 -0.3747
 5333TIP3   OH215962   6.797   4.172   4.216  0.4157  0.1172 -0.2166
 5333TIP3    H115963   6.797   4.139   4.126  0.4339  1.1200 -0.5927
 5333TIP3    H215964   6.708   4.157   4.247  0.7600 -1.5061  0.0996
 5334TIP3   OH215965   1.178   4.063   2.066  0.2288  0.0406  0.7468
 5334TIP3    H115966   1.260   4.055   2.115  0.6166 -2.0056 -0.1581
 5334TIP3    H215967   1.206   4.082   1.977 -0.3137 -0.1494  0.5350
 5335TIP3   OH215968   7.239   5.163   5.813 -0.0176 -0.7130 -0.4486
 5335TIP3    H115969   7.183   5.119   5.877  0.1086 -0.0409  0.1472
 5335TIP3    H215970   7.185   5.236   5.781  0.3305 -0.3560 -0.2333
 5336TIP3   OH215971   0.165   6.389   4.950 -0.6615 -0.7796 -0.1212
 5336TIP3    H115972   0.174   6.481   4.925  0.5861 -1.2327 -1.4920
 5336TIP3    H215973   0.254   6.360   4.967 -1.0333 -1.7723  0.2126
 5337TIP3   OH215974   4.847   1.490   5.137  0.4648  0.5471 -0.2632
 5337TIP3    H115975   4.824   1.400   5.114  1.7028  0.0973  0.1764
 5337TIP3    H215976   4.763   1.532   5.157 -0.1134 -0.5639 -0.2792
 5338TIP3   OH215977   3.028   1.523   0.891 -0.2584 -0.5074  0.3366
 5338TIP3    H115978   3.123   1.513   0.904 -0.4365 -0.6913  1.5583
 5338TIP3    H215979   3.021   1.585   0.818  0.7975  1.7854  2.0609
 5339TIP3   OH215980   6.761   6.534   5.435 -0.3405  0.1581 -0.4847
 5339TIP3    H115981   6.794   6.617   5.470  0.5853 -0.8018  1.0207
 5339TIP3    H215982   6.835   6.474   5.443 -1.1847 -0.9762 -0.9863
 5340TIP3   OH215983   2.596   4.392   0.903 -0.7432 -0.4383  0.1608
 5340TIP3    H115984   2.674   4.353   0.941 -0.4001 -0.3139 -0.4161
 5340TIP3    H215985   2.616   4.404   0.811 -1.9208 -1.6178 -0.2827
 5341TIP3   OH215986   4.422   4.623   0.742 -0.0007 -0.3945 -0.1223
 5341TIP3    H115987   4.511   4.657   0.737  0.5727 -1.6687  0.9742
 5341TIP3    H215988   4.424   4.541   0.691 -0.4024 -0.6999  0.3445
 5342TIP3   OH215989   6.655   4.378   3.205 -0.4648  0.5872  0.0844
 5342TIP3    H115990   6.701   4.394   3.288 -1.0532  0.3010  0.4699
 5342TIP3    H215991   6.667   4.459   3.155  0.8024  0.3701  0.0094
 5343TIP3   OH215992   4.511   2.960   1.569  0.0810 -0.3085 -0.2268
 5343TIP3    H115993   4.533   3.019   1.641  1.0983 -0.7852 -0.1266
 5343TIP3    H215994   4.475   3.018   1.501 -2.3515 -0.0408  1.1879
 5344TIP3   OH215995   4.817   3.346   4.145  0.4032 -0.3828 -0.5090
 5344TIP3    H115996   4.737   3.321   4.099  0.7278 -0.3803 -1.0933
 5344TIP3    H215997   4.824   3.441   4.131  0.0741 -0.2440  0.2461
 5345TIP3   OH215998   5.377   5.834   2.086  0.3867 -0.6903  0.1488
 5345TIP3    H115999   5.407   5.923   2.105 -1.1171 -0.0410 -0.4145
 5345TIP3    H216000   5.455   5.790   2.051  0.9718  0.6108 -0.2484
 5346TIP3   OH216001   7.101   6.570   2.866  0.4151 -0.5145  0.0254
 5346TIP3    H116002   7.068   6.499   2.811 -0.2142  0.5317 -0.9881
 5346TIP3    H216003   7.147   6.525   2.938 -0.3193 -1.9446 -0.3525
 5347TIP3   OH216004   1.397   6.691   0.111  0.4003 -0.1306 -0.0799
 5347TIP3    H116005   1.468   6.706   0.049 -0.1196 -1.0490 -0.9280
 5347TIP3    H216006   1.419   6.745   0.187  1.4687  0.3804 -0.7364
 5348TIP3   OH216007   5.444   5.070   2.388  0.1179  0.2369  0.0835
 5348TIP3    H116008   5.441   4.997   2.450 -0.9512  1.6019  1.7454
 5348TIP3    H216009   5.380   5.048   2.321 -0.3533 -0.2625  0.6878
 5349TIP3   OH216010   1.429   0.752   0.982 -0.0539 -0.0505 -0.3907
 5349TIP3    H116011   1.442   0.845   1.000  1.3222 -0.5175  1.3544
 5349TIP3    H216012   1.470   0.707   1.057 -2.1178 -2.0329 -0.3536
 5350TIP3   OH216013   0.929   1.632   4.338  0.7042  0.6975  0.5345
 5350TIP3    H116014   0.891   1.546   4.320  0.2981  0.6884  1.4383
 5350TIP3    H216015   0.866   1.694   4.302  1.2317  0.6296 -0.5716
 5351TIP3   OH216016   3.297   2.800   2.982  0.1289  0.1011  0.1973
 5351TIP3    H116017   3.352   2.726   3.006  0.6078  0.3147 -0.2386
 5351TIP3    H216018   3.317   2.817   2.890  0.2871  0.9960  0.3845
 5352TIP3   OH216019   3.478   5.652   0.946  0.2495 -0.6937 -0.3246
 5352TIP3    H116020   3.458   5.740   0.978 -0.5551 -1.0189  0.1023
 5352TIP3    H216021   3.460   5.656   0.853 -0.2652 -0.5332 -0.2235
 5353TIP3   OH216022   4.632   6.151   1.300 -0.1563 -0.6463 -0.0625
 5353TIP3    H116023   4.646   6.072   1.248  0.1878 -1.0592  0.6437
 5353TIP3    H216024   4.720   6.178   1.326 -0.2525  0.1010 -0.4785
 5354TIP3   OH216025   3.224   2.694   4.022  0.6086  0.4534 -0.4104
 5354TIP3    H116026   3.162   2.669   3.953  0.1495 -0.5333  0.3243
 5354TIP3    H216027   3.258   2.779   3.994  0.4387  0.0867 -1.8431
 5355TIP3   OH216028   5.212   1.558   1.481 -0.0870  0.0365  0.0451
 5355TIP3    H116029   5.252   1.644   1.495  0.9735 -0.5355  0.6605
 5355TIP3    H216030   5.241   1.533   1.393  0.6643 -0.2397  0.3669
 5356TIP3   OH216031   4.357   0.813   4.730  0.9231  0.3876  0.1240
 5356TIP3    H116032   4.318   0.774   4.809 -0.2605 -0.2086 -0.7115
 5356TIP3    H216033   4.358   0.907   4.748 -2.3927  0.6333 -0.3535
 5357TIP3   OH216034   6.064   4.632   5.517 -0.5079  0.0727 -0.0127
 5357TIP3    H116035   5.986   4.652   5.466 -0.6077  1.7221  0.7258
 5357TIP3    H216036   6.097   4.551   5.479 -0.7791  1.0258 -2.4685
 5358TIP3   OH216037   1.864   0.110   2.830  0.0524  0.2788  0.1243
 5358TIP3    H116038   1.876   0.205   2.826  0.9810  0.1518 -0.2095
 5358TIP3    H216039   1.950   0.074   2.813 -0.4450 -0.6481 -0.5144
 5359TIP3   OH216040   2.416   5.196   2.015 -0.3921 -0.1584 -0.0175
 5359TIP3    H116041   2.498   5.227   2.052 -0.1185 -1.7370  0.7695
 5359TIP3    H216042   2.442   5.139   1.943 -0.8849  1.4083 -1.5131
 5360TIP3   OH216043   6.896   4.483   4.481  0.0707  0.4973 -0.0485
 5360TIP3    H116044   6.816   4.449   4.439  1.9546 -0.8395 -2.9117
 5360TIP3    H216045   6.898   4.440   4.566 -1.3106 -1.0018 -0.6966
 5361TIP3   OH216046   4.123   2.638   5.386 -0.3593  0.0039 -0.0257
 5361TIP3    H116047   4.055   2.660   5.449 -0.1368 -1.0734  0.6107
 5361TIP3    H216048   4.091   2.560   5.342 -0.0274  0.1327 -0.5089
 5362TIP3   OH216049   4.490   4.239   2.958 -0.3493  0.0223 -0.3061
 5362TIP3    H116050   4.482   4.215   2.866 -1.4450 -0.2353 -0.1549
 5362TIP3    H216051   4.402   4.228   2.994 -0.3742  1.9272  0.3378
 5363TIP3   OH216052   2.492   4.758   1.391  0.3460 -0.1610 -0.5902
 5363TIP3    H116053   2.440   4.835   1.368 -1.6558 -0.9369  0.9758
 5363TIP3    H216054   2.470   4.694   1.322  0.7992  0.1547 -1.0324
 5364TIP3   OH216055   5.497   3.265   3.403  0.2834 -0.4242  0.1634
 5364TIP3    H116056   5.526   3.184   3.363  0.9333  0.2479 -0.7725
 5364TIP3    H216057   5.404   3.251   3.421  0.5091 -1.5458  0.4876
 5365TIP3   OH216058   2.111   2.365   2.890  0.4447 -0.1584  0.2094
 5365TIP3    H116059   2.082   2.330   2.975 -0.3078 -1.7895 -0.6771
 5365TIP3    H216060   2.203   2.384   2.903  0.1659  0.3884  1.6276
 5366TIP3   OH216061   4.933   3.832   5.071 -0.2976 -0.5137  0.2427
 5366TIP3    H116062   4.905   3.877   4.991  1.6203 -0.6502 -0.5407
 5366TIP3    H216063   4.854   3.785   5.100 -0.6449 -1.9004 -2.5524
 5367TIP3   OH216064   6.707   5.972   5.788  0.2998  0.5854  0.3753
 5367TIP3    H116065   6.677   5.901   5.731  0.7873  0.4300  0.3083
 5367TIP3    H216066   6.784   6.007   5.745  1.1603 -0.0616  1.3124
 5368TIP3   OH216067   4.615   1.763   3.647 -0.0613  0.3548  0.4048
 5368TIP3    H116068   4.598   1.684   3.595 -0.1480  0.6443 -0.0141
 5368TIP3    H216069   4.654   1.731   3.728  2.9632  0.0083 -1.0202
 5369TIP3   OH216070   6.612   6.143   3.177 -0.7210  0.1622 -0.3523
 5369TIP3    H116071   6.697   6.188   3.178 -1.0821  1.0622  3.0226
 5369TIP3    H216072   6.626   6.065   3.230 -2.0414  0.5053  0.5466
 5370TIP3   OH216073   5.272   6.146   1.740 -0.4484  0.2823  0.0985
 5370TIP3    H116074   5.253   6.147   1.647  1.2785 -0.4119 -0.3056
 5370TIP3    H216075   5.204   6.091   1.778 -1.0699  0.4388 -0.7709
 5371TIP3   OH216076   3.657   4.236   0.320 -0.5268 -0.0016  0.0559
 5371TIP3    H116077   3.609   4.168   0.273  1.3173 -1.1051 -0.3238
 5371TIP3    H216078   3.612   4.244   0.404 -0.8059 -1.6542  0.0916
 5372TIP3   OH216079   4.651   0.569   3.441  0.0357 -0.2306 -0.6344
 5372TIP3    H116080   4.558   0.577   3.418  0.4974  0.7199 -2.4292
 5372TIP3    H216081   4.697   0.613   3.369  1.9238 -1.3500 -0.1854
 5373TIP3   OH216082   1.815   1.066   2.541 -0.0062  0.4356  0.3782
 5373TIP3    H116083   1.777   1.017   2.469  1.3438  0.4338 -0.3793
 5373TIP3    H216084   1.827   1.002   2.611  2.1699 -0.4976 -0.7627
 5374TIP3   OH216085   3.830   5.397   3.314 -0.3933 -0.1309 -0.6411
 5374TIP3    H116086   3.866   5.416   3.401 -0.4052 -1.2479 -0.3738
 5374TIP3    H216087   3.907   5.386   3.258 -0.3829  0.4117 -0.7380
 5375TIP3   OH216088   2.146   4.296   0.977 -0.0555 -0.0978  0.4833
 5375TIP3    H116089   2.091   4.233   0.930  0.3956  0.1107 -0.3347
 5375TIP3    H216090   2.198   4.338   0.909  0.2811  0.5391  1.1241
 5376TIP3   OH216091   1.524   0.337   1.240  0.0076  0.0661  0.5711
 5376TIP3    H116092   1.481   0.318   1.157 -0.6115 -1.1824  1.1612
 5376TIP3    H216093   1.566   0.422   1.226 -1.8673  0.9059 -0.3292
 5377TIP3   OH216094   4.834   3.148   5.327 -0.3276 -0.1863 -0.1840
 5377TIP3    H116095   4.919   3.154   5.283  0.3776 -3.7078  0.4645
 5377TIP3    H216096   4.856   3.130   5.418 -1.7639 -1.6186 -0.0965
 5378TIP3   OH216097   6.191   2.302   0.302 -0.4905  0.1752 -0.8459
 5378TIP3    H116098   6.196   2.207   0.311 -0.8167  0.0253 -2.0920
 5378TIP3    H216099   6.099   2.323   0.315 -0.0713  0.6306  1.8719
 5379TIP3   OH216100   1.090   0.745   0.551 -0.3326  0.3357 -0.1812
 5379TIP3    H116101   1.064   0.722   0.462 -0.1577  0.7547 -0.3453
 5379TIP3    H216102   1.180   0.713   0.560  0.0469  1.2415 -0.5370
 5380TIP3   OH216103   1.638   6.168   2.459 -0.1625  0.5023  0.1246
 5380TIP3    H116104   1.622   6.207   2.374 -0.6316 -2.5939 -1.3611
 5380TIP3    H216105   1.725   6.128   2.452 -0.3064  0.0062  0.9765
 5381TIP3   OH216106   1.853   4.057   1.993 -0.0283  1.0219  0.0802
 5381TIP3    H116107   1.816   4.134   1.950  1.0402  0.6356 -1.6252
 5381TIP3    H216108   1.947   4.073   1.995  0.0433  0.5990  1.4962
 5382TIP3   OH216109   3.547   0.809   4.144 -0.2511  0.2012  0.1718
 5382TIP3    H116110   3.533   0.723   4.184  1.0566 -0.2090 -0.2240
 5382TIP3    H216111   3.458   0.843   4.130 -0.7954 -1.1375  0.2125
 5383TIP3   OH216112   5.863   1.742   3.194  0.3903 -0.2060  0.2135
 5383TIP3    H116113   5.882   1.818   3.139 -0.3802  0.2338  0.5435
 5383TIP3    H216114   5.925   1.748   3.266  1.3202 -0.7135 -0.5218
 5384TIP3   OH216115   6.193   2.253   3.337 -0.0020  0.2264  0.8970
 5384TIP3    H116116   6.287   2.259   3.354  0.1376 -0.4487  0.4169
 5384TIP3    H216117   6.153   2.316   3.397  0.7616  0.5540  1.0650
 5385TIP3   OH216118   6.481   5.525   4.148  0.3591 -0.3423 -0.0628
 5385TIP3    H116119   6.520   5.457   4.202  1.5333  0.8685  0.6747
 5385TIP3    H216120   6.481   5.489   4.059 -1.3332 -2.2581  0.6225
 5386TIP3   OH216121   1.723   1.473   0.825  0.1921 -0.0196  0.4138
 5386TIP3    H116122   1.807   1.427   0.825  0.6174  0.7471  0.8350
 5386TIP3    H216123   1.739   1.551   0.771 -0.0027  0.5583  1.1796
 5387TIP3   OH216124   3.698   2.002   1.272  0.2161 -0.1374 -0.7006
 5387TIP3    H116125   3.767   1.988   1.207 -0.2724 -0.2137 -1.2062
 5387TIP3    H216126   3.733   2.070   1.330  0.0685  0.9690 -1.8805
 5388TIP3   OH216127   6.904   0.397   3.341  0.1244  0.0155 -0.0582
 5388TIP3    H116128   6.953   0.432   3.266  1.7725  0.0466  0.9858
 5388TIP3    H216129   6.956   0.422   3.417 -0.6205 -1.4826  0.9863
 5389TIP3   OH216130   3.214   0.740   2.596  0.2352 -0.3443 -0.1123
 5389TIP3    H116131   3.213   0.829   2.630  0.0637 -1.1935  2.2591
 5389TIP3    H216132   3.253   0.688   2.665 -0.4918 -2.2603 -1.0707
 5390TIP3   OH216133   6.996   6.184   0.668  0.2192  0.3573 -0.3201
 5390TIP3    H116134   6.967   6.273   0.648  0.8029  0.5148 -0.4963
 5390TIP3    H216135   6.988   6.137   0.585 -1.3342 -0.1134  0.0779
 5391TIP3   OH216136   3.399   4.297   0.109 -0.4941 -0.0738  0.3429
 5391TIP3    H116137   3.408   4.273   0.201  2.6584 -0.7881 -0.0650
 5391TIP3    H216138   3.382   4.215   0.064 -0.9176  0.1205  0.1392
 5392TIP3   OH216139   0.283   1.948   3.037  0.1740 -0.6097 -0.4689
 5392TIP3    H116140   0.204   1.986   2.999 -1.2333 -2.9939 -0.0969
 5392TIP3    H216141   0.314   2.014   3.100 -0.5339  1.0631 -1.7996
 5393TIP3   OH216142   0.796   2.023   1.844 -0.3712 -0.0153  0.0912
 5393TIP3    H116143   0.864   2.018   1.777 -0.6059 -0.4208 -0.1175
 5393TIP3    H216144   0.715   2.036   1.794 -0.5585 -0.4105  0.2927
 5394TIP3   OH216145   5.702   4.150   4.850  1.0407 -0.2029 -0.3285
 5394TIP3    H116146   5.743   4.064   4.860  1.2445 -0.1056 -0.3223
 5394TIP3    H216147   5.613   4.138   4.884  1.6525  0.0759  1.5327
 5395TIP3   OH216148   3.298   2.777   2.707 -0.2837  0.3383  0.3110
 5395TIP3    H116149   3.376   2.722   2.719 -0.4591  0.2407  1.0319
 5395TIP3    H216150   3.294   2.791   2.612 -0.5484 -1.3625  0.0271
 5396TIP3   OH216151   3.921   3.639   2.075  0.2938  0.2183 -0.5377
 5396TIP3    H116152   3.936   3.549   2.044 -0.6003 -0.1986  0.1853
 5396TIP3    H216153   3.840   3.666   2.032  0.0708  0.3309 -0.0533
 5397TIP3   OH216154   2.481   2.543   1.626  0.2027  0.6416  0.6180
 5397TIP3    H116155   2.457   2.561   1.535  0.4819  0.2251  0.4603
 5397TIP3    H216156   2.469   2.626   1.670  0.2677  0.9028  0.1550
 5398TIP3   OH216157   7.019   2.555   3.252  0.5686 -0.8988  0.1750
 5398TIP3    H116158   6.981   2.476   3.212 -0.1680 -0.4969  0.0649
 5398TIP3    H216159   7.074   2.592   3.184  2.3172 -2.2285  0.7767
 5399TIP3   OH216160   5.063   4.428   1.118 -0.3543 -0.2841 -0.4609
 5399TIP3    H116161   5.107   4.484   1.054  0.5077 -0.4065  0.0061
 5399TIP3    H216162   4.974   4.416   1.083 -0.3149  0.7479 -0.9476
 5400TIP3   OH216163   7.189   1.012   4.903 -0.6734 -0.1966  0.2783
 5400TIP3    H116164   7.233   1.093   4.933 -2.2408  0.8101 -0.0375
 5400TIP3    H216165   7.104   1.042   4.871 -0.5227 -1.7250 -1.7369
 5401TIP3   OH216166   6.830   0.021   5.592  0.0255  0.0037 -0.2075
 5401TIP3    H116167   6.773   0.033   5.667  0.5655 -1.3612  0.4533
 5401TIP3    H216168   6.912   0.063   5.617  0.8750 -2.1748  0.8235
 5402TIP3   OH216169   3.449   4.794   2.268  0.0927  0.0122  0.4801
 5402TIP3    H116170   3.421   4.730   2.333 -0.0923 -0.9454 -0.5148
 5402TIP3    H216171   3.518   4.844   2.311  0.6884 -1.2856  1.0577
 5403TIP3   OH216172   5.209   3.230   3.218 -0.6008  0.3652 -0.4547
 5403TIP3    H116173   5.238   3.161   3.277 -1.6100  1.7395  1.7858
 5403TIP3    H216174   5.128   3.196   3.179 -1.1746  0.2946  0.7469
 5404TIP3   OH216175   3.675   1.712   1.201  0.0098  0.0017 -0.4423
 5404TIP3    H116176   3.616   1.659   1.254  0.8323  0.3060  0.8031
 5404TIP3    H216177   3.628   1.795   1.189 -0.7573 -0.5445 -1.3797
 5405TIP3   OH216178   6.166   5.840   1.673 -0.2315  0.1843  0.1060
 5405TIP3    H116179   6.233   5.773   1.657 -1.5279 -1.4478  1.1602
 5405TIP3    H216180   6.099   5.824   1.607 -0.6928  0.2097  0.5563
 5406TIP3   OH216181   4.467   3.033   2.288  0.3276  0.0513 -0.2075
 5406TIP3    H116182   4.491   2.944   2.314  0.0334  0.2768  0.8891
 5406TIP3    H216183   4.455   3.080   2.371 -3.8062 -0.0193 -0.5514
 5407TIP3   OH216184   3.617   6.249   4.994 -0.1175 -0.0156 -0.2971
 5407TIP3    H116185   3.669   6.330   4.998  0.1996 -0.2398  0.1863
 5407TIP3    H216186   3.559   6.262   4.919 -0.3049  0.8041 -0.0268
 5408TIP3   OH216187   4.907   2.474   2.700 -0.1920  0.5671 -0.0949
 5408TIP3    H116188   4.934   2.407   2.762 -3.0784 -1.1086 -0.4989
 5408TIP3    H216189   4.957   2.454   2.620  1.4478  1.0281  0.7729
 5409TIP3   OH216190   3.341   1.944   5.587  0.7371 -0.1711 -0.0236
 5409TIP3    H116191   3.331   1.876   5.520  0.6221  0.0354 -0.2165
 5409TIP3    H216192   3.434   1.966   5.585  0.6452  0.1946 -0.4715
 5410TIP3   OH216193   5.413   1.046   3.663  0.2149  0.0803 -0.4981
 5410TIP3    H116194   5.369   1.015   3.583  1.3588  0.5300 -1.3405
 5410TIP3    H216195   5.388   1.138   3.670  0.5019  0.1734 -0.6384
 5411TIP3   OH216196   4.799   3.552   2.525  0.2913  0.2466  0.0589
 5411TIP3    H116197   4.706   3.528   2.533  0.6598 -1.2622  0.1587
 5411TIP3    H216198   4.831   3.556   2.615  0.5698 -0.3719 -0.0020
 5412TIP3   OH216199   5.838   0.964   3.689  0.3534  0.1898 -0.4290
 5412TIP3    H116200   5.781   0.942   3.615 -0.2435 -0.6808  0.2681
 5412TIP3    H216201   5.862   1.055   3.674 -3.3513  1.5140  0.5341
 5413TIP3   OH216202   1.673   4.134   3.823  0.5748  0.4429  0.0076
 5413TIP3    H116203   1.615   4.158   3.895  1.1291  0.1100  0.5834
 5413TIP3    H216204   1.615   4.101   3.755 -0.1372  2.5558 -0.4796
 5414TIP3   OH216205   2.114   0.661   0.104 -0.0018  0.3002  0.2523
 5414TIP3    H116206   2.028   0.666   0.062 -0.0001 -0.0610  0.2054
 5414TIP3    H216207   2.098   0.691   0.194 -0.4498 -1.0338  0.6377
 5415TIP3   OH216208   1.183   3.232   0.856 -0.1199 -0.3608  0.2231
 5415TIP3    H116209   1.096   3.194   0.851  0.1158 -0.8427 -0.4769
 5415TIP3    H216210   1.242   3.158   0.842  0.3617  0.1772 -0.7544
 5416TIP3   OH216211   1.620   1.679   1.068  0.6816 -0.1208 -0.3145
 5416TIP3    H116212   1.601   1.635   0.985  0.0775  0.2282 -0.3728
 5416TIP3    H216213   1.661   1.762   1.043 -0.8520  0.6707 -0.3630
 5417TIP3   OH216214   4.166   1.985   3.624 -0.0607  0.6266  0.6342
 5417TIP3    H116215   4.104   1.913   3.630  0.3142  0.3599  1.3595
 5417TIP3    H216216   4.159   2.015   3.533 -1.1125  0.4854  0.6526
 5418TIP3   OH216217   6.281   2.492   2.836  0.8599 -0.3244 -0.3179
 5418TIP3    H116218   6.220   2.563   2.859  1.0032  0.8257 -3.0740
 5418TIP3    H216219   6.225   2.420   2.808  0.7354 -0.8688  1.2748
 5419TIP3   OH216220   3.729   4.718   2.921  0.0489 -0.1189  1.2820
 5419TIP3    H116221   3.716   4.624   2.905 -1.1051 -0.1294  2.1705
 5419TIP3    H216222   3.675   4.761   2.855  0.3420 -0.0784  1.0669
 5420TIP3   OH216223   5.808   6.263   4.766  0.8848  0.1206  0.5825
 5420TIP3    H116224   5.853   6.321   4.828  1.1363 -0.8783  1.3494
 5420TIP3    H216225   5.760   6.201   4.821 -0.1703  0.1830 -0.2287
 5421TIP3   OH216226   5.107   3.897   1.612 -0.0832  0.3679  0.0447
 5421TIP3    H116227   5.123   3.914   1.705  2.3588  0.5059 -0.3370
 5421TIP3    H216228   5.110   3.983   1.570  1.9053  0.0561 -0.5266
 5422TIP3   OH216229   6.624   5.841   2.604  0.1928 -0.0742  0.0330
 5422TIP3    H116230   6.707   5.859   2.558  1.0448 -0.5832  1.3146
 5422TIP3    H216231   6.567   5.803   2.538  0.5787  1.3260 -1.1599
 5423TIP3   OH216232   1.808   1.586   4.746  0.8096 -0.5331  0.2986
 5423TIP3    H116233   1.903   1.576   4.742  0.9664  0.2653  1.3951
 5423TIP3    H216234   1.794   1.681   4.740 -0.1158 -0.7525 -2.4583
 5424TIP3   OH216235   3.579   1.154   0.551 -0.1834 -0.3889  0.0311
 5424TIP3    H116236   3.648   1.109   0.599  0.7509 -0.5630 -1.4272
 5424TIP3    H216237   3.498   1.112   0.581  0.6072 -2.6109 -0.7907
 5425TIP3   OH216238   3.736   2.751   5.376 -0.2869  0.4922  0.4860
 5425TIP3    H116239   3.684   2.671   5.384 -0.0994  0.5053  2.2324
 5425TIP3    H216240   3.787   2.755   5.457  0.2854  1.9869  0.0904
 5426TIP3   OH216241   5.131   3.342   1.822 -0.3406  0.5156  0.0323
 5426TIP3    H116242   5.120   3.354   1.727 -3.2527 -0.0792  0.2053
 5426TIP3    H216243   5.139   3.431   1.856  1.4135  0.7109 -0.7852
 5427TIP3   OH216244   6.333   5.467   2.844  0.3954  0.2374 -0.0579
 5427TIP3    H116245   6.381   5.450   2.924  0.3616 -0.6324 -0.2139
 5427TIP3    H216246   6.255   5.514   2.872  1.5076  2.0918  0.1547
 5428TIP3   OH216247   6.253   3.009   2.974  0.1037 -0.4523 -0.1813
 5428TIP3    H116248   6.231   2.953   3.048  0.5016  0.7594  0.9028
 5428TIP3    H216249   6.266   2.949   2.900 -2.2551 -1.5468  0.2192
 5429TIP3   OH216250   6.791   2.104   1.170 -0.1368  0.6081  0.1684
 5429TIP3    H116251   6.881   2.072   1.174 -0.6921 -1.5564 -1.8611
 5429TIP3    H216252   6.763   2.108   1.261  1.3128 -0.9816  0.7400
 5430TIP3   OH216253   0.318   0.155   3.019  0.4854 -0.2487 -0.3420
 5430TIP3    H116254   0.355   0.109   3.094 -0.9020  0.8868  1.1200
 5430TIP3    H216255   0.273   0.086   2.969 -0.8248 -0.7016  1.3332
 5431TIP3   OH216256   2.642   4.461   2.445  0.3262  0.2446 -0.2917
 5431TIP3    H116257   2.623   4.554   2.458 -1.4450 -0.1956  0.5964
 5431TIP3    H216258   2.595   4.438   2.365  1.2646  0.2420 -0.8464
 5432TIP3   OH216259   6.484   2.384   2.220  0.0278  0.5112  0.0348
 5432TIP3    H116260   6.402   2.371   2.268 -1.2693  0.1766 -2.1007
 5432TIP3    H216261   6.498   2.300   2.174  2.2758  0.1225  1.2908
 5433TIP3   OH216262   2.060   4.900   5.117 -0.1268 -0.4063  0.5176
 5433TIP3    H116263   2.007   4.836   5.164  0.7235 -0.2266  1.7662
 5433TIP3    H216264   2.139   4.852   5.092 -0.7446 -0.6249 -1.1767
 5434TIP3   OH216265   3.802   4.325   2.130 -0.3093  0.0362 -0.2036
 5434TIP3    H116266   3.842   4.287   2.208 -3.3184  0.3141  1.6207
 5434TIP3    H216267   3.757   4.252   2.088 -1.1682  0.4378  0.0029
 5435TIP3   OH216268   2.362   2.036   1.752  0.1612 -0.2555  0.0768
 5435TIP3    H116269   2.438   1.993   1.712  0.5793  1.0824 -0.6365
 5435TIP3    H216270   2.358   2.122   1.709 -0.3581  0.6052  1.7837
 5436TIP3   OH216271   6.931   4.380   5.161  0.2321  0.1725  0.6134
 5436TIP3    H116272   6.888   4.313   5.214  0.3163 -1.2925 -1.0742
 5436TIP3    H216273   6.922   4.461   5.212  1.3269 -1.3070  3.3948
 5437TIP3   OH216274   2.453   4.293   3.464  0.6232  0.1195  0.6531
 5437TIP3    H116275   2.397   4.368   3.444  2.1696  1.3920  0.9124
 5437TIP3    H216276   2.400   4.239   3.523 -1.3159 -0.1165 -1.2225
 5438TIP3   OH216277   0.415   5.805   3.879  0.0884 -0.1065  0.4625
 5438TIP3    H116278   0.336   5.856   3.897  1.1327  2.1748 -0.8866
 5438TIP3    H216279   0.438   5.765   3.963 -0.7823  1.7226  1.6316
 5439TIP3   OH216280   0.871   2.101   4.309  0.0478 -0.0478 -0.0828
 5439TIP3    H116281   0.860   2.152   4.228  2.1595  1.5902  0.5716
 5439TIP3    H216282   0.876   2.167   4.378 -2.1017 -1.4238  1.5258
 5440TIP3   OH216283   1.549   5.615   5.142  0.1743  0.5826 -0.1584
 5440TIP3    H116284   1.569   5.521   5.137  0.7832  0.6994  0.0738
 5440TIP3    H216285   1.555   5.645   5.051  0.6438  0.5275 -0.1490
 5441TIP3   OH216286   6.205   1.197   0.836 -0.4173  0.4681 -0.4117
 5441TIP3    H116287   6.148   1.125   0.861 -0.0380  0.3793  0.2110
 5441TIP3    H216288   6.293   1.163   0.848 -0.2358  1.0879  0.0412
 5442TIP3   OH216289   4.159   5.153   2.521  0.2343  0.1555  0.6506
 5442TIP3    H116290   4.164   5.186   2.431  1.0697  0.9920  0.9841
 5442TIP3    H216291   4.238   5.100   2.531 -0.0859 -0.3067  0.7565
 5443TIP3   OH216292   2.546   5.529   1.804  0.6540  0.3268  0.1140
 5443TIP3    H116293   2.630   5.574   1.813 -0.0387  1.5532  0.5677
 5443TIP3    H216294   2.514   5.520   1.894 -0.4244  1.2919 -0.1502
 5444TIP3   OH216295   2.808   6.640   2.352  0.6203 -0.5769 -0.9373
 5444TIP3    H116296   2.769   6.727   2.341  0.2124 -0.4964  0.8320
 5444TIP3    H216297   2.748   6.594   2.411  2.1005 -1.1743  0.1735
 5445TIP3   OH216298   0.369   1.683   1.366  0.2278  0.2742 -0.2834
 5445TIP3    H116299   0.302   1.625   1.330  2.8950 -1.6022 -2.7360
 5445TIP3    H216300   0.348   1.689   1.459 -1.6078 -2.6734 -0.3645
 5446TIP3   OH216301   6.437   0.844   1.896  0.1610  0.4065  0.1265
 5446TIP3    H116302   6.383   0.790   1.838  3.0003 -1.4021 -1.0375
 5446TIP3    H216303   6.500   0.783   1.934  2.1507  2.5285  0.4866
 5447TIP3   OH216304   0.834   5.948   0.287 -0.3527  0.2574  0.9613
 5447TIP3    H116305   0.767   5.882   0.271  2.1072 -2.1469 -0.4150
 5447TIP3    H216306   0.839   5.955   0.383 -0.6282 -1.7258  1.1634
 5448TIP3   OH216307   2.470   6.267   3.789 -0.0924  0.2961 -0.3605
 5448TIP3    H116308   2.501   6.330   3.724  0.0156  0.2784 -0.3275
 5448TIP3    H216309   2.378   6.255   3.769 -0.8425  2.5747  1.3460
 5449TIP3   OH216310   0.794   3.892   5.072 -0.1470  0.3318  0.1784
 5449TIP3    H116311   0.725   3.871   5.134 -0.6658  2.2076  0.2980
 5449TIP3    H216312   0.812   3.986   5.086 -0.1320  0.7786 -2.3342
 5450TIP3   OH216313   6.998   5.534   2.156  0.1099  0.2099 -0.2843
 5450TIP3    H116314   6.981   5.569   2.068  1.7432  3.2105  0.4440
 5450TIP3    H216315   6.919   5.486   2.179 -2.1623  2.9857 -1.7485
 5451TIP3   OH216316   1.435   5.873   3.970 -0.0018 -0.0081  0.0913
 5451TIP3    H116317   1.435   5.934   4.043 -0.8111 -0.5485  0.5538
 5451TIP3    H216318   1.425   5.786   4.010 -0.2432 -0.3272 -0.6365
 5452TIP3   OH216319   1.415   4.888   5.061 -0.4973  0.4618  0.0182
 5452TIP3    H116320   1.450   4.975   5.081  1.3081 -0.5075  1.2968
 5452TIP3    H216321   1.403   4.847   5.146  3.7901 -2.4285 -0.4872
 5453TIP3   OH216322   6.724   0.557   4.646 -0.0749 -0.1554 -0.7801
 5453TIP3    H116323   6.746   0.543   4.554  1.3175 -0.5253 -0.4145
 5453TIP3    H216324   6.757   0.480   4.691  2.1974  1.4096  0.4526
 5454TIP3   OH216325   3.015   5.354   3.397 -0.1023 -0.6540  0.0069
 5454TIP3    H116326   2.939   5.352   3.339 -0.5393  1.5229  0.4278
 5454TIP3    H216327   3.090   5.352   3.338 -0.4921 -1.0289 -0.4896
 5455TIP3   OH216328   1.127   3.460   5.082  0.4037  0.1867 -0.0026
 5455TIP3    H116329   1.216   3.427   5.070 -0.0919 -1.4781  0.6405
 5455TIP3    H216330   1.081   3.434   5.002  0.2198  0.0181  0.1551
 5456TIP3   OH216331   3.957   6.262   0.771  0.6587  0.9562  0.2348
 5456TIP3    H116332   3.956   6.182   0.823 -0.9740  0.7516 -0.0648
 5456TIP3    H216333   4.044   6.262   0.730  1.4990  0.4694  1.9031
 5457TIP3   OH216334   2.104   3.713   3.401 -0.3834 -0.4701  0.0763
 5457TIP3    H116335   2.084   3.732   3.493 -0.2475  0.6234 -0.1091
 5457TIP3    H216336   2.046   3.641   3.378  1.0070 -2.1790  1.5969
 5458TIP3   OH216337   1.537   0.539   3.765 -0.1868 -0.1963  0.0538
 5458TIP3    H116338   1.598   0.563   3.834  0.4044 -2.0330  0.2415
 5458TIP3    H216339   1.534   0.615   3.707  1.2227  0.4327  0.7672
 5459TIP3   OH216340   2.969   3.484   3.872  0.0500  0.3220 -0.5344
 5459TIP3    H116341   2.998   3.470   3.962 -1.6576 -0.9687 -0.1373
 5459TIP3    H216342   2.941   3.397   3.842 -0.4870  0.9401 -1.9271
 5460TIP3   OH216343   3.619   4.128   2.666  0.2342  0.4570  0.4708
 5460TIP3    H116344   3.549   4.158   2.725 -0.9692  2.1255 -1.6487
 5460TIP3    H216345   3.643   4.207   2.617  0.3596 -1.0557 -2.0240
 5461TIP3   OH216346   7.002   4.948   0.562 -0.0853  0.3519 -0.0149
 5461TIP3    H116347   6.969   4.960   0.651  0.0529 -0.4190  0.1537
 5461TIP3    H216348   7.082   4.897   0.574 -0.9301 -1.1997 -0.6759
 5462TIP3   OH216349   5.657   3.514   0.959 -0.3565  0.2633 -0.3091
 5462TIP3    H116350   5.741   3.555   0.936  0.0650 -0.7539 -0.6329
 5462TIP3    H216351   5.674   3.469   1.041 -0.8438  0.7954  0.0897
 5463TIP3   OH216352   3.772   5.729   0.641  0.2201  0.2535  0.4756
 5463TIP3    H116353   3.684   5.707   0.671  0.2600  0.9269  1.1307
 5463TIP3    H216354   3.760   5.763   0.553 -0.3189  1.3511  0.9563
 5464TIP3   OH216355   1.330   1.945   1.911 -0.0678 -0.4625  0.6440
 5464TIP3    H116356   1.330   1.896   1.993 -0.7660 -2.4321 -0.4728
 5464TIP3    H216357   1.340   1.879   1.843 -1.6911  0.8540 -0.9913
 5465TIP3   OH216358   5.574   0.743   5.561 -0.4310  0.6746  0.4575
 5465TIP3    H116359   5.648   0.769   5.506  0.7802 -0.3102  1.5731
 5465TIP3    H216360   5.498   0.780   5.517  0.5900  0.7005 -1.3717
 5466TIP3   OH216361   4.133   3.412   5.343  0.1781  0.1723  0.1005
 5466TIP3    H116362   4.040   3.413   5.319  0.4779  1.8414 -1.1276
 5466TIP3    H216363   4.147   3.495   5.388  0.4698 -1.3308  3.0705
 5467TIP3   OH216364   5.245   3.306   4.989 -0.0164  0.5769 -0.3121
 5467TIP3    H116365   5.264   3.304   4.895  1.1048  0.3286 -0.0863
 5467TIP3    H216366   5.316   3.256   5.029 -0.1227  1.2522  0.7376
 5468TIP3   OH216367   2.520   0.772   3.192  0.3553  0.1984 -0.1765
 5468TIP3    H116368   2.602   0.723   3.183  1.3655  2.0646 -2.2971
 5468TIP3    H216369   2.481   0.770   3.104 -0.9654  0.8709  0.3636
 5469TIP3   OH216370   4.475   6.040   2.714  0.1854 -0.7241 -0.4469
 5469TIP3    H116371   4.496   5.950   2.691  1.6721 -0.3120 -0.8300
 5469TIP3    H216372   4.537   6.093   2.663 -1.2379  0.5656 -0.9242
 5470TIP3   OH216373   3.377   2.637   2.235 -0.1949  0.1758  0.2584
 5470TIP3    H116374   3.386   2.558   2.289 -1.9662 -0.1832  0.0980
 5470TIP3    H216375   3.344   2.605   2.151 -1.4839  1.0981  0.3765
 5471TIP3   OH216376   4.935   4.920   1.102  0.1858 -0.2215  0.5375
 5471TIP3    H116377   4.898   4.915   1.014 -1.0535 -0.3070  1.0462
 5471TIP3    H216378   4.983   5.003   1.103 -0.7231  0.3209  0.1203
 5472TIP3   OH216379   1.789   3.685   3.811 -0.3909  0.1056 -0.0697
 5472TIP3    H116380   1.726   3.685   3.739 -0.8742  1.3510  0.3284
 5472TIP3    H216381   1.739   3.656   3.887 -0.2535  0.2463  0.0732
 5473TIP3   OH216382   3.718   1.684   0.559 -0.5146  0.3197  0.4095
 5473TIP3    H116383   3.737   1.621   0.628  0.4459 -1.4574 -1.3838
 5473TIP3    H216384   3.624   1.672   0.541 -0.3733 -0.5187  0.1902
 5474TIP3   OH216385   2.851   4.392   1.632 -0.5212  0.2707 -0.6110
 5474TIP3    H116386   2.841   4.486   1.613 -2.0392 -0.0856 -1.8100
 5474TIP3    H216387   2.786   4.374   1.699  1.7440  0.5791  1.8759
 5475TIP3   OH216388   6.933   6.235   4.995  0.2535 -0.5109  0.6748
 5475TIP3    H116389   7.018   6.278   5.004 -1.0943  2.1489  1.6392
 5475TIP3    H216390   6.918   6.231   4.901  1.3456 -0.9368  0.4897
 5476TIP3   OH216391   5.096   5.749   5.872  0.3072  0.1462 -0.3216
 5476TIP3    H116392   5.034   5.820   5.856 -2.8352 -2.1535  0.4706
 5476TIP3    H216393   5.142   5.737   5.789 -0.3979  1.8656 -0.9994
 5477TIP3   OH216394   6.986   3.031   4.809 -0.3519  0.3942  0.5333
 5477TIP3    H116395   7.055   3.070   4.864 -0.8351  1.1009  0.6582
 5477TIP3    H216396   6.965   3.099   4.745  0.5093 -0.5806 -0.8387
 5478TIP3   OH216397   2.696   2.217   5.085  0.3235 -0.5747  0.1509
 5478TIP3    H116398   2.790   2.207   5.102  1.2818  2.6509 -2.1040
 5478TIP3    H216399   2.661   2.254   5.166  2.1960  2.9293 -0.4055
 5479TIP3   OH216400   0.199   3.605   0.330 -0.0202  0.1491 -0.9208
 5479TIP3    H116401   0.170   3.530   0.383  1.8639 -0.7987 -1.1507
 5479TIP3    H216402   0.117   3.645   0.300 -1.1031 -1.0213  0.2919
 5480TIP3   OH216403   0.414   2.959   2.972 -0.0933 -0.2056  0.5554
 5480TIP3    H116404   0.400   2.880   3.024  1.9547 -0.4270  0.8558
 5480TIP3    H216405   0.368   3.028   3.021  0.9524 -0.5991  2.1664
 5481TIP3   OH216406   1.721   3.264   5.462  0.0781 -0.2299 -0.2956
 5481TIP3    H116407   1.787   3.326   5.493  0.6660 -1.0412  0.0983
 5481TIP3    H216408   1.643   3.286   5.512  0.8364 -1.0960  1.3107
 5482TIP3   OH216409   5.906   5.666   5.621 -0.0893 -0.0156  0.0855
 5482TIP3    H116410   5.989   5.631   5.656 -0.8046  0.0974  2.0455
 5482TIP3    H216411   5.845   5.593   5.627 -0.7816  0.6220  1.1990
 5483TIP3   OH216412   0.948   6.555   2.137  0.5590 -0.5674  0.4166
 5483TIP3    H116413   0.857   6.576   2.158  0.8615  0.0581  1.1450
 5483TIP3    H216414   0.943   6.511   2.053 -0.5708 -1.9647  1.1730
 5484TIP3   OH216415   3.051   0.050   1.131 -1.0988  0.1307 -0.0887
 5484TIP3    H116416   3.013   0.063   1.218 -1.0463 -0.4974  0.0302
 5484TIP3    H216417   2.982   0.006   1.082 -1.1350  0.5014 -0.3767
 5485TIP3   OH216418   6.181   4.066   0.915 -0.6170 -0.2923 -0.4863
 5485TIP3    H116419   6.123   4.069   0.839  0.0215  2.4819 -0.9889
 5485TIP3    H216420   6.265   4.036   0.881  0.2407  2.7978 -1.4689
 5486TIP3   OH216421   2.965   1.613   0.016 -0.2976  0.0156  0.1747
 5486TIP3    H116422   2.993   1.701  -0.010 -1.8280  0.3912 -0.2934
 5486TIP3    H216423   3.043   1.559   0.006  0.4304  1.1464 -0.4264
 5487TIP3   OH216424   0.569   0.972   4.589  0.0876  0.5721 -0.1501
 5487TIP3    H116425   0.497   1.032   4.610 -0.9250 -0.5344 -0.3294
 5487TIP3    H216426   0.550   0.941   4.500 -0.5516 -1.5152  0.6440
 5488TIP3   OH216427   2.769   4.219   2.270 -0.0722  0.3436  0.4254
 5488TIP3    H116428   2.739   4.308   2.254 -1.7782 -0.0637  1.1623
 5488TIP3    H216429   2.737   4.169   2.195 -0.8995 -0.0256  1.0210
 5489TIP3   OH216430   2.339   4.844   4.539 -0.3010 -0.6019  0.4875
 5489TIP3    H116431   2.410   4.846   4.474 -0.7593 -1.8762 -0.0723
 5489TIP3    H216432   2.380   4.809   4.618 -0.1720 -0.7778  0.3437
 5490TIP3   OH216433   2.530   4.572   5.354  0.0698  0.3481 -0.1799
 5490TIP3    H116434   2.436   4.564   5.338 -0.3399  1.2815  1.4924
 5490TIP3    H216435   2.569   4.499   5.306 -1.6430 -0.8973  0.2224
 5491TIP3   OH216436   4.227   5.823   1.505 -0.4130  0.0414 -0.2211
 5491TIP3    H116437   4.308   5.868   1.482  0.6088 -2.2190 -1.4101
 5491TIP3    H216438   4.215   5.758   1.435 -1.6444 -1.6605  1.4500
 5492TIP3   OH216439   0.231   2.061   1.044  0.1572  0.7652 -0.1457
 5492TIP3    H116440   0.209   2.124   0.976  1.0896  0.8843 -0.3602
 5492TIP3    H216441   0.179   1.983   1.023 -0.6654  1.3052 -0.1338
 5493TIP3   OH216442   3.236   3.412   1.890  0.0357  0.7499  0.2128
 5493TIP3    H116443   3.188   3.493   1.869  1.0408  0.9685 -1.4155
 5493TIP3    H216444   3.302   3.405   1.821  0.6757 -0.9048  0.9494
 5494TIP3   OH216445   4.083   4.479   5.236  0.2837 -0.0108  0.0947
 5494TIP3    H116446   4.035   4.553   5.200  0.6744  0.5114  0.6200
 5494TIP3    H216447   4.121   4.513   5.318  3.1513  0.2244 -1.1977
 5495TIP3   OH216448   1.941   4.781   3.208  0.3674 -0.3436  0.2632
 5495TIP3    H116449   2.002   4.708   3.214 -0.9188 -1.4020  0.8977
 5495TIP3    H216450   1.882   4.770   3.282 -0.6984  0.5385 -0.4132
 5496TIP3   OH216451   5.689   2.554   1.851 -0.0067 -0.0697 -0.2072
 5496TIP3    H116452   5.768   2.608   1.847 -1.1476  1.6609 -0.5140
 5496TIP3    H216453   5.646   2.567   1.766 -0.9073 -0.5146  0.1602
 5497TIP3   OH216454   2.637   0.474   2.263 -0.4900 -0.4149 -0.3837
 5497TIP3    H116455   2.706   0.407   2.258  0.2397  0.2179  0.7406
 5497TIP3    H216456   2.555   0.425   2.259  0.0112 -1.5280  1.4934
 5498TIP3   OH216457   0.697   5.480   3.324 -0.0898 -0.1556  0.0076
 5498TIP3    H116458   0.662   5.565   3.349  0.1802  0.2637 -0.9910
 5498TIP3    H216459   0.620   5.424   3.316 -0.2133 -0.1924  1.3036
 5499TIP3   OH216460   4.715   3.305   4.993  0.1670  0.6114 -0.1572
 5499TIP3    H116461   4.652   3.248   5.036 -0.9479  0.7062 -1.5880
 5499TIP3    H216462   4.778   3.328   5.062 -0.1236 -1.2147  0.7813
 5500TIP3   OH216463   6.018   2.940   3.393  0.0047 -1.0505 -0.6459
 5500TIP3    H116464   5.968   2.973   3.467 -1.2492 -2.5546 -0.7704
 5500TIP3    H216465   6.062   3.017   3.357 -1.8984  0.2746 -0.2687
 5501TIP3   OH216466   2.057   2.709   5.881  0.0702  0.0561 -0.1310
 5501TIP3    H116467   2.039   2.702   5.787  1.8376  0.0819 -0.4993
 5501TIP3    H216468   2.018   2.630   5.919 -0.3507 -0.1298 -0.9206
 5502TIP3   OH216469   1.245   2.239   2.449  0.4943  0.1281 -0.3933
 5502TIP3    H116470   1.316   2.205   2.395  1.1876 -0.6839  0.9702
 5502TIP3    H216471   1.181   2.168   2.452  0.0679  0.4861 -0.8073
 5503TIP3   OH216472   0.623   5.448   2.388 -0.3434 -0.1218  0.2901
 5503TIP3    H116473   0.707   5.490   2.373 -1.1544  1.1236 -1.0345
 5503TIP3    H216474   0.567   5.517   2.423 -1.1687 -0.5829 -0.0814
 5504TIP3   OH216475   3.768   5.717   5.867 -0.0862 -0.7608  0.1939
 5504TIP3    H116476   3.826   5.793   5.871 -0.9135 -0.1367  0.6441
 5504TIP3    H216477   3.697   5.745   5.808 -2.0922  0.0625  2.7923
 5505TIP3   OH216478   4.618   0.146   4.995  0.2961  0.0828 -0.0258
 5505TIP3    H116479   4.638   0.180   5.082  2.8962 -0.1707 -0.4537
 5505TIP3    H216480   4.587   0.223   4.947  0.0573  0.4897  0.7552
 5506TIP3   OH216481   0.279   2.997   5.785  0.1629  0.1678  0.2309
 5506TIP3    H116482   0.278   3.092   5.781  0.9352  0.2256  1.0822
 5506TIP3    H216483   0.306   2.969   5.697  1.4399  0.7908  0.4013
 5507TIP3   OH216484   5.208   0.025   3.147  0.2888 -0.2529 -0.3610
 5507TIP3    H116485   5.244   0.092   3.206 -0.6821  1.0527 -1.2016
 5507TIP3    H216486   5.133   0.068   3.105  0.0227 -1.6712 -1.3971
 5508TIP3   OH216487   2.110   3.977   4.960  0.1349  0.3850  0.7116
 5508TIP3    H116488   2.188   3.964   5.014 -0.2682  0.0183  1.2055
 5508TIP3    H216489   2.129   3.928   4.880  0.5507  0.5738  0.6896
 5509TIP3   OH216490   1.984   3.854   4.406  0.3666  0.3353  0.3069
 5509TIP3    H116491   1.911   3.914   4.387  0.7804  1.2879  1.5651
 5509TIP3    H216492   2.042   3.905   4.463  1.1208 -1.0230  0.7927
 5510TIP3   OH216493   3.879   4.384   1.054 -0.4245 -0.3689 -0.2976
 5510TIP3    H116494   3.954   4.396   0.995 -0.0555 -0.2849  0.1888
 5510TIP3    H216495   3.822   4.459   1.036  0.6870  0.8361  0.9436
 5511TIP3   OH216496   1.009   4.661   4.751  0.1538  0.5281 -0.1656
 5511TIP3    H116497   0.955   4.636   4.827  0.8035  0.4501  0.2790
 5511TIP3    H216498   1.087   4.606   4.759  1.1340  1.9279  0.2267
 5512TIP3   OH216499   6.103   3.112   2.427 -0.0646  0.4106  0.3350
 5512TIP3    H116500   6.049   3.188   2.405 -1.4715  0.1160  2.4199
 5512TIP3    H216501   6.144   3.086   2.345 -1.4307  1.9830 -0.9032
 5513TIP3   OH216502   5.669   1.995   5.150 -0.2363  0.3274  0.3343
 5513TIP3    H116503   5.616   2.003   5.230 -1.3641 -1.9316 -0.1267
 5513TIP3    H216504   5.758   1.986   5.182 -0.4344  1.2466  1.2384
 5514TIP3   OH216505   1.890   0.495   5.448 -0.0925 -0.1229 -0.0649
 5514TIP3    H116506   1.844   0.472   5.528 -0.7062 -1.5228 -0.7946
 5514TIP3    H216507   1.915   0.587   5.461 -3.7217  1.0033  0.1015
 5515TIP3   OH216508   6.804   6.775   0.472 -0.4628 -0.3208  0.2892
 5515TIP3    H116509   6.751   6.854   0.483 -0.2294 -0.1200  0.0033
 5515TIP3    H216510   6.807   6.762   0.377  0.9787  0.3475  0.2101
 5516TIP3   OH216511   1.429   5.996   2.494 -0.2256  0.4207  0.1798
 5516TIP3    H116512   1.499   6.059   2.478  0.2239  0.1844  1.1232
 5516TIP3    H216513   1.464   5.912   2.464 -0.3182  0.4024  0.1244
 5517TIP3   OH216514   3.796   2.605   2.886  0.6130  0.4226  0.3950
 5517TIP3    H116515   3.863   2.536   2.888  1.5512  1.3004 -0.1616
 5517TIP3    H216516   3.764   2.604   2.796  1.8958  1.8797 -0.1097
 5518TIP3   OH216517   3.940   6.406   1.575 -0.0840  0.1861 -0.1660
 5518TIP3    H116518   4.027   6.390   1.537 -0.1238 -0.9266  0.1813
 5518TIP3    H216519   3.958   6.441   1.662  0.0089  2.7609 -1.1183
 5519TIP3   OH216520   5.337   4.973   4.530  0.1383  0.1886  0.3506
 5519TIP3    H116521   5.392   5.016   4.596 -0.6590  0.9782  0.5321
 5519TIP3    H216522   5.382   4.988   4.447  1.6406 -1.6275  0.7821
 5520TIP3   OH216523   5.536   6.717   1.917 -0.5993  0.5159 -0.0577
 5520TIP3    H116524   5.535   6.725   2.013  1.3375  0.9014 -0.0120
 5520TIP3    H216525   5.530   6.807   1.885 -3.9829  0.2728 -0.4670
 5521TIP3   OH216526   6.876   5.898   2.505  0.3435 -0.7268 -0.5017
 5521TIP3    H116527   6.883   5.811   2.467 -1.5375 -1.4435  0.6322
 5521TIP3    H216528   6.960   5.913   2.548  0.0596 -2.8233  0.9222
 5522TIP3   OH216529   7.048   2.237   1.711  0.0245 -0.2969  0.1059
 5522TIP3    H116530   7.049   2.267   1.802  0.8191  0.2094 -0.0645
 5522TIP3    H216531   7.094   2.153   1.713  0.0333 -0.2909  0.1678
 5523TIP3   OH216532   2.064   2.704   4.414 -0.4372 -0.0594  0.2226
 5523TIP3    H116533   1.977   2.704   4.373 -0.5528  2.3354  0.3212
 5523TIP3    H216534   2.116   2.764   4.360  1.3962 -1.9013 -0.1850
 5524TIP3   OH216535   6.090   5.181   2.360  0.4737 -0.1031  0.2136
 5524TIP3    H116536   6.105   5.096   2.320  0.9385  0.3139 -0.5388
 5524TIP3    H216537   5.999   5.203   2.337  1.0469  0.5909 -1.5639
 5525TIP3   OH216538   1.943   1.765   1.992 -0.0876 -0.1096  0.2685
 5525TIP3    H116539   1.985   1.692   1.946  0.6989  0.7814 -0.4969
 5525TIP3    H216540   1.995   1.841   1.966 -0.5411  0.6370  1.4971
 5526TIP3   OH216541   7.087   5.379   5.164 -0.2161  0.5736 -0.2786
 5526TIP3    H116542   7.147   5.348   5.232 -0.6360  1.7308  0.6689
 5526TIP3    H216543   7.138   5.375   5.083  0.7497  0.4219  0.3219
 5527TIP3   OH216544   1.335   0.327   0.629 -0.0468  0.0760  0.0566
 5527TIP3    H116545   1.306   0.282   0.550  0.1080  1.3818 -0.7597
 5527TIP3    H216546   1.367   0.412   0.599  0.4082  0.4363  1.4724
 5528TIP3   OH216547   6.020   0.574   2.189 -0.2941 -0.2029  0.8662
 5528TIP3    H116548   6.073   0.585   2.267  0.6666 -0.2084  0.2372
 5528TIP3    H216549   5.937   0.618   2.209 -1.6569 -3.4775  3.3411
 5529TIP3   OH216550   5.309   1.446   2.949 -0.5454  0.2296 -0.5553
 5529TIP3    H116551   5.393   1.471   2.909 -0.3667 -0.1127 -0.3984
 5529TIP3    H216552   5.284   1.522   3.002 -0.2671  0.2782 -0.4918
 5530TIP3   OH216553   2.153   3.525   0.942  0.3080  0.1781 -0.0750
 5530TIP3    H116554   2.227   3.560   0.892 -1.4532  0.6288 -2.5565
 5530TIP3    H216555   2.120   3.453   0.888 -0.7815 -0.3191  1.2061
 5531TIP3   OH216556   3.085   1.887   3.081  0.2557 -0.2768  0.1631
 5531TIP3    H116557   3.001   1.845   3.101  0.0939  0.7420  1.8116
 5531TIP3    H216558   3.073   1.979   3.104  1.9095 -0.1600  0.7465
 5532TIP3   OH216559   5.286   4.119   0.166  0.4835  0.5143 -0.1546
 5532TIP3    H116560   5.372   4.097   0.131  0.5445  1.3161 -0.5291
 5532TIP3    H216561   5.246   4.174   0.099  0.7253  2.3353  1.1182
 5533TIP3   OH216562   3.136   3.330   1.475  0.2467 -0.3565 -0.3085
 5533TIP3    H116563   3.119   3.400   1.412 -3.3179  0.8584  1.7451
 5533TIP3    H216564   3.069   3.340   1.543  3.9986 -1.2087  4.0790
 5534TIP3   OH216565   6.813   1.246   5.504 -0.0864  0.4264 -0.4684
 5534TIP3    H116566   6.748   1.306   5.466 -1.5063 -1.1972 -0.7691
 5534TIP3    H216567   6.803   1.166   5.452  2.8273  0.3828 -1.1015
 5535TIP3   OH216568   2.240   0.650   2.115 -0.8341  0.1065  0.1369
 5535TIP3    H116569   2.320   0.656   2.064 -0.5143  1.3148  0.7466
 5535TIP3    H216570   2.171   0.681   2.056 -1.5068 -3.8665 -1.5413
 5536TIP3   OH216571   2.104   2.778   1.367  0.0168 -0.2398 -0.0468
 5536TIP3    H116572   2.041   2.848   1.384 -0.1461 -0.9784  2.8828
 5536TIP3    H216573   2.184   2.807   1.410  0.1092 -1.5365  0.7258
 5537TIP3   OH216574   5.104   1.802   2.045  0.7746 -0.5453 -0.6998
 5537TIP3    H116575   5.071   1.815   2.134 -1.4909  1.9875 -1.7565
 5537TIP3    H216576   5.049   1.733   2.008 -0.6485  0.7541 -1.1212
 5538TIP3   OH216577   6.960   4.455   2.086 -0.1618 -0.1265  0.3006
 5538TIP3    H116578   6.895   4.408   2.139 -0.9979  0.3817 -0.2670
 5538TIP3    H216579   6.918   4.537   2.063  0.0675 -0.4464 -1.4076
 5539TIP3   OH216580   4.642   4.658   2.506  0.2177 -0.5796 -0.1490
 5539TIP3    H116581   4.682   4.673   2.592 -1.2388 -0.2059  0.4975
 5539TIP3    H216582   4.581   4.585   2.519 -0.0197 -0.5240 -0.8550
 5540TIP3   OH216583   4.588   2.510   5.336 -0.0661  0.1425  0.6392
 5540TIP3    H116584   4.660   2.552   5.384 -0.5031 -0.4667  1.8704
 5540TIP3    H216585   4.521   2.577   5.329  0.3539  0.5112  0.0671
 5541TIP3   OH216586   5.508   4.386   3.697 -0.8010  0.1198 -0.2484
 5541TIP3    H116587   5.418   4.356   3.683 -0.4819 -0.3345 -1.4465
 5541TIP3    H216588   5.498   4.468   3.747 -1.8479 -0.1333 -0.0117
 5542TIP3   OH216589   2.298   2.911   3.057 -0.0919 -0.0459  0.0593
 5542TIP3    H116590   2.340   2.846   3.001  0.7728  0.3601  0.2303
 5542TIP3    H216591   2.352   2.989   3.048  0.9988 -0.3958  2.6342
 5543TIP3   OH216592   3.191   3.648   4.404  0.1557  0.1511  0.3188
 5543TIP3    H116593   3.104   3.687   4.416  0.1043 -0.1088  0.8327
 5543TIP3    H216594   3.251   3.721   4.417  0.0391  0.1791  0.7231
 5544TIP3   OH216595   1.921   3.456   5.478 -0.0896  0.0174 -0.0673
 5544TIP3    H116596   1.936   3.503   5.396  0.7103 -0.6205 -0.2971
 5544TIP3    H216597   1.970   3.507   5.543 -1.5869  1.1254  0.2292
 5545TIP3   OH216598   0.214   6.558   1.038 -0.1536 -0.4194 -0.0359
 5545TIP3    H116599   0.212   6.579   0.945 -1.2333  0.2118  0.1118
 5545TIP3    H216600   0.128   6.519   1.055  0.1947 -0.9248  0.6159
 5546TIP3   OH216601   4.102   1.214   2.494 -0.3475  0.0701 -0.1719
 5546TIP3    H116602   4.047   1.287   2.464 -2.5355 -0.9527  1.1694
 5546TIP3    H216603   4.105   1.154   2.419 -0.1217  0.6311 -0.6231
 5547TIP3   OH216604   5.822   2.731   1.337 -0.3319  0.2553  0.8508
 5547TIP3    H116605   5.837   2.683   1.418  1.3233 -1.4113 -0.3481
 5547TIP3    H216606   5.868   2.679   1.270  1.8503  3.6230 -0.5304
 5548TIP3   OH216607   4.184   2.089   3.382 -0.3859  0.2093  0.2376
 5548TIP3    H116608   4.108   2.077   3.326 -1.3409  0.1894  1.4847
 5548TIP3    H216609   4.231   2.164   3.345  0.5086 -1.4098 -2.1412
 5549TIP3   OH216610   4.959   1.083   2.437  0.0111  0.1861 -0.0503
 5549TIP3    H116611   4.932   1.081   2.345  1.1228 -1.3698 -0.3746
 5549TIP3    H216612   4.901   1.021   2.480  1.1797 -1.0842 -0.2352
 5550TIP3   OH216613   6.474   4.896   2.592 -0.4561 -0.1592  0.6403
 5550TIP3    H116614   6.544   4.961   2.585 -1.4304  0.7450 -2.7441
 5550TIP3    H216615   6.393   4.947   2.587 -1.3784 -1.3649  2.2065
 5551TIP3   OH216616   6.600   0.174   2.808  0.1775  0.1173 -0.5647
 5551TIP3    H116617   6.570   0.226   2.883  1.4522  2.0704 -1.3444
 5551TIP3    H216618   6.688   0.145   2.832 -0.0582 -0.6835 -0.6378
 5552TIP3   OH216619   3.282   0.601   2.349  0.7430  0.2337  0.1699
 5552TIP3    H116620   3.290   0.658   2.426 -1.0533  0.7750  0.0019
 5552TIP3    H216621   3.229   0.652   2.288  0.3545 -1.0387 -0.5842
 5553TIP3   OH216622   2.419   2.973   1.083 -0.2407 -0.5471 -0.2370
 5553TIP3    H116623   2.356   2.953   1.013 -1.2591 -1.0371  0.7882
 5553TIP3    H216624   2.404   3.065   1.103 -0.4275 -0.5817 -0.2109
 5554TIP3   OH216625   3.585   3.601   1.700  0.0051  0.0770 -0.2252
 5554TIP3    H116626   3.630   3.612   1.616  0.6901  0.5622  0.1982
 5554TIP3    H216627   3.568   3.507   1.706  0.6903 -0.0748 -0.5379
 5555TIP3   OH216628   3.990   0.635   0.218  0.0771 -0.4242 -0.1206
 5555TIP3    H116629   3.944   0.648   0.301  0.7148 -1.9633  0.5224
 5555TIP3    H216630   4.055   0.706   0.215  0.4196 -0.6733  0.9822
 5556TIP3   OH216631   7.146   3.208   3.513  0.2858  0.0467 -0.4420
 5556TIP3    H116632   7.121   3.176   3.427 -0.8943 -1.8228  0.5209
 5556TIP3    H216633   7.171   3.129   3.562 -1.2206  0.7324  1.5882
 5557TIP3   OH216634   3.810   5.174   0.947 -1.3399 -0.0400  0.1647
 5557TIP3    H116635   3.739   5.239   0.947 -1.8005 -0.5355  0.8231
 5557TIP3    H216636   3.808   5.136   1.035  0.5488  0.8082  0.6317
 5558TIP3   OH216637   1.012   2.981   1.149  0.1851  0.5059 -0.5479
 5558TIP3    H116638   1.008   3.041   1.074 -1.6567 -0.2646 -1.1058
 5558TIP3    H216639   1.006   2.894   1.110  1.1217 -0.0004  0.3917
 5559TIP3   OH216640   5.784   2.931   4.637  0.0910  0.4072 -0.4026
 5559TIP3    H116641   5.736   2.856   4.673  0.9508  0.7226  1.5635
 5559TIP3    H216642   5.875   2.901   4.635  0.9179  2.1388  3.0241
 5560TIP3   OH216643   3.183   4.870   2.872 -0.4694 -0.2658  0.1261
 5560TIP3    H116644   3.113   4.830   2.925  0.0424  0.9489  1.8242
 5560TIP3    H216645   3.224   4.797   2.827 -2.7626 -1.0408 -0.8887
 5561TIP3   OH216646   3.952   6.493   3.307 -0.1473 -0.6088 -0.3656
 5561TIP3    H116647   4.020   6.546   3.350  0.8968 -1.1833 -1.2543
 5561TIP3    H216648   3.910   6.446   3.379 -0.2147  0.4240  0.2989
 5562TIP3   OH216649   6.882   0.160   3.195 -0.1939 -0.1131 -0.3794
 5562TIP3    H116650   6.973   0.138   3.175 -0.3074 -0.7963 -0.1744
 5562TIP3    H216651   6.887   0.246   3.235  0.4137 -0.3264  0.0235
 5563TIP3   OH216652   1.405   1.772   0.661  0.3651  0.5530  1.0758
 5563TIP3    H116653   1.408   1.688   0.614 -0.8490  0.5042  1.0734
 5563TIP3    H216654   1.426   1.837   0.594  0.4512  0.3263  0.8801
 5564TIP3   OH216655   0.529   0.245   4.889  0.1917 -0.2793  0.3515
 5564TIP3    H116656   0.568   0.305   4.953 -0.0669 -1.0931  1.2896
 5564TIP3    H216657   0.435   0.249   4.906  0.1450 -0.7008  0.1978
 5565TIP3   OH216658   3.086   3.031   1.308 -0.1504 -1.2130 -0.9802
 5565TIP3    H116659   3.045   2.945   1.310  1.0415 -1.8485  2.1863
 5565TIP3    H216660   3.177   3.015   1.330 -0.0636  0.8666  0.5198
 5566TIP3   OH216661   2.590   1.338   3.072 -0.3068 -0.1221 -0.6470
 5566TIP3    H116662   2.556   1.251   3.094 -0.4486  0.0839 -0.0301
 5566TIP3    H216663   2.520   1.398   3.098  0.7294  0.3660  1.2513
 5567TIP3   OH216664   2.105   1.833   1.598 -0.2392 -0.5810 -0.0956
 5567TIP3    H116665   2.124   1.868   1.685 -1.5367 -0.9111  0.3380
 5567TIP3    H216666   2.053   1.901   1.556 -0.3979 -0.8093 -0.2724
 5568TIP3   OH216667   4.889   4.027   1.089  0.5695  0.6768  0.2781
 5568TIP3    H116668   4.899   4.076   1.008 -0.0588 -0.5332 -0.5650
 5568TIP3    H216669   4.800   3.992   1.084  0.8436 -0.1552  1.0672
 5569TIP3   OH216670   3.810   3.164   1.620 -0.0040 -0.8249  0.0194
 5569TIP3    H116671   3.838   3.072   1.617  0.0975 -0.7811 -0.5040
 5569TIP3    H216672   3.770   3.179   1.535 -1.2120 -0.7460  0.5858
 5570TIP3   OH216673   5.737   2.033   2.519  0.1911 -0.3817 -0.3700
 5570TIP3    H116674   5.764   2.098   2.454  0.4821 -0.9053 -0.7832
 5570TIP3    H216675   5.768   1.949   2.483 -1.1715 -0.8899 -0.4194
 5571TIP3   OH216676   3.984   6.038   0.512  0.5406  0.0446 -0.4844
 5571TIP3    H116677   3.983   6.134   0.520  1.1320  0.1325 -1.3448
 5571TIP3    H216678   4.077   6.015   0.515  0.4268 -0.4585 -0.8203
 5572TIP3   OH216679   4.819   2.075   1.387  0.1161 -0.8602 -0.1078
 5572TIP3    H116680   4.879   2.001   1.389  0.1519 -0.8302 -0.0608
 5572TIP3    H216681   4.733   2.036   1.371  0.0651 -0.9560  0.3899
 5573TIP3   OH216682   0.154   6.071   5.541  0.4118 -0.3565  0.1609
 5573TIP3    H116683   0.221   6.086   5.608 -1.8279  0.9639  2.2264
 5573TIP3    H216684   0.142   5.976   5.541  2.1664 -0.6174 -0.2030
 5574TIP3   OH216685   6.407   6.410   2.789  0.0223 -0.1654 -0.1939
 5574TIP3    H116686   6.462   6.368   2.856 -0.5459 -0.4852  0.0792
 5574TIP3    H216687   6.399   6.344   2.720  0.4106  0.0769 -0.4758
 5575TIP3   OH216688   7.078   0.394   5.703  0.0807 -0.0845 -0.1082
 5575TIP3    H116689   7.115   0.474   5.740 -0.3522 -0.4810  1.2723
 5575TIP3    H216690   7.127   0.323   5.744 -1.4642 -0.5843  0.9980
 5576TIP3   OH216691   6.245   1.067   4.314 -0.0746 -0.5374  0.1964
 5576TIP3    H116692   6.258   1.031   4.226 -0.4236 -0.5982  0.1701
 5576TIP3    H216693   6.333   1.093   4.342  0.0416 -0.5342 -0.1625
 5577TIP3   OH216694   4.343   5.655   1.785 -0.4515  0.1874  0.1421
 5577TIP3    H116695   4.265   5.710   1.787 -0.1156  0.7074  2.9307
 5577TIP3    H216696   4.357   5.629   1.876  2.5652  0.0141 -0.2559
 5578TIP3   OH216697   0.849   0.150   2.922  0.3750  0.0633  0.1648
 5578TIP3    H116698   0.929   0.167   2.871  0.5439 -2.0645 -0.3809
 5578TIP3    H216699   0.881   0.122   3.008  0.1355  1.0437  0.5952
 5579TIP3   OH216700   3.560   4.359   3.796 -0.3557 -0.3515  0.1506
 5579TIP3    H116701   3.583   4.447   3.766 -0.5273 -1.1317 -2.5218
 5579TIP3    H216702   3.634   4.332   3.850  0.8794  0.4983 -1.0529
 5580TIP3   OH216703   3.120   6.280   0.817 -0.3439  0.1906 -0.7526
 5580TIP3    H116704   3.114   6.362   0.769  2.9038  1.7048  1.0644
 5580TIP3    H216705   3.063   6.291   0.892  0.9268  1.3676  0.0904
 5581TIP3   OH216706   3.665   2.362   3.243  0.2981 -0.2344  0.1729
 5581TIP3    H116707   3.663   2.269   3.265  1.7135 -0.2463  0.3282
 5581TIP3    H216708   3.596   2.400   3.297  1.1485 -0.8643  1.7805
 5582TIP3   OH216709   5.637   4.803   0.540  0.1663 -0.4265 -0.1402
 5582TIP3    H116710   5.557   4.776   0.494  0.6035 -0.6438 -0.7809
 5582TIP3    H216711   5.606   4.862   0.609 -0.5070 -0.1310 -0.6825
 5583TIP3   OH216712   3.136   2.302   0.521  0.0348  0.7201  0.0247
 5583TIP3    H116713   3.181   2.223   0.492  1.4576  1.2778  0.6165
 5583TIP3    H216714   3.124   2.354   0.442  1.7346  1.1824  0.0445
 5584TIP3   OH216715   4.445   1.013   3.391 -0.2891  0.3621 -0.2047
 5584TIP3    H116716   4.529   0.967   3.388 -1.4895 -2.3870  2.5499
 5584TIP3    H216717   4.457   1.081   3.458  0.4488  1.8794 -1.7923
 5585TIP3   OH216718   3.537   4.150   5.172  0.5229  0.4387 -0.0916
 5585TIP3    H116719   3.448   4.123   5.195  0.3167  1.2236  0.0681
 5585TIP3    H216720   3.526   4.201   5.091  0.7670  0.9096  0.1667
 5586TIP3   OH216721   6.091   3.531   5.812  0.4339 -0.4176 -0.0652
 5586TIP3    H116722   6.187   3.540   5.816  0.4081 -0.4530  1.2560
 5586TIP3    H216723   6.064   3.593   5.744  1.4739 -1.1665 -1.1888
 5587TIP3   OH216724   4.629   4.164   1.105 -0.0203  0.3878  0.2255
 5587TIP3    H116725   4.568   4.211   1.161  0.6392 -0.6651  1.8957
 5587TIP3    H216726   4.594   4.076   1.099  0.6618  0.1135  0.1465
 5588TIP3   OH216727   5.688   1.464   3.410  0.1096 -0.1573  0.5027
 5588TIP3    H116728   5.756   1.425   3.356 -0.0565  1.0198 -0.5987
 5588TIP3    H216729   5.606   1.436   3.370 -0.0131  0.9331 -0.0409
 5589TIP3   OH216730   7.061   3.488   5.434 -0.0677  0.2388 -0.1063
 5589TIP3    H116731   7.054   3.561   5.495  0.7106  1.6173 -1.5908
 5589TIP3    H216732   6.971   3.456   5.424 -0.6150  1.7965 -0.3582
 5590TIP3   OH216733   1.964   1.985   1.389  0.6704 -0.6956  0.0953
 5590TIP3    H116734   1.926   2.035   1.461  0.4364 -0.1970 -0.3641
 5590TIP3    H216735   1.973   2.048   1.318 -0.0063 -1.3906 -0.6341
 5591TIP3   OH216736   3.290   3.287   2.104 -0.6718 -0.3686 -0.2687
 5591TIP3    H116737   3.267   3.307   2.013  0.1939 -0.6211 -0.5524
 5591TIP3    H216738   3.272   3.368   2.151 -0.9505 -0.1776 -0.6916
 5592TIP3   OH216739   2.646   0.782   0.034 -0.0035  0.2784 -0.2009
 5592TIP3    H116740   2.643   0.701  -0.017  3.0264  0.3440 -0.6613
 5592TIP3    H216741   2.653   0.753   0.125  0.4939  0.0025 -0.3201
 5593TIP3   OH216742   5.553   1.529   5.209 -0.5429 -0.2473 -0.3871
 5593TIP3    H116743   5.491   1.459   5.189 -1.0598  0.1481 -0.1888
 5593TIP3    H216744   5.500   1.609   5.210  0.1767  0.2525 -1.3487
 5594TIP3   OH216745   0.630   4.828   2.833  0.9356 -0.3718  0.5510
 5594TIP3    H116746   0.535   4.824   2.848  1.0652 -1.9593  1.1128
 5594TIP3    H216747   0.642   4.797   2.743  0.7587  2.2062 -0.4331
 5595TIP3   OH216748   1.264   4.284   3.301 -0.8176  0.1362 -0.2370
 5595TIP3    H116749   1.296   4.351   3.241  0.1606 -0.8516 -0.8638
 5595TIP3    H216750   1.281   4.202   3.256 -0.4274 -0.6118  1.2142
 5596TIP3   OH216751   5.887   0.852   5.170  0.0192  0.5057  0.3027
 5596TIP3    H116752   5.975   0.890   5.171  0.7130 -0.9055  3.4032
 5596TIP3    H216753   5.838   0.906   5.232 -0.1409 -1.0853  1.6003
 5597TIP3   OH216754   7.128   4.080   2.618 -0.0913 -0.4649  0.4740
 5597TIP3    H116755   7.091   4.050   2.535  1.1133 -2.4548  0.5863
 5597TIP3    H216756   7.160   4.168   2.598 -0.9289 -0.4179 -0.8219
 5598TIP3   OH216757   5.787   5.919   5.623 -0.3603  0.4326  0.2632
 5598TIP3    H116758   5.705   5.943   5.581  0.1082  0.6817 -0.5348
 5598TIP3    H216759   5.806   5.831   5.591  0.9231  1.2973 -1.5855
 5599TIP3   OH216760   1.041   4.857   2.172 -0.3983 -0.1410  0.1484
 5599TIP3    H116761   1.029   4.821   2.084 -0.7694  1.6587 -0.5855
 5599TIP3    H216762   0.954   4.853   2.211 -0.5677  0.4901 -0.1550
 5600TIP3   OH216763   1.323   6.007   4.956 -0.2600 -0.3825  0.3645
 5600TIP3    H116764   1.348   5.986   5.046 -0.8387  1.3866  0.9899
 5600TIP3    H216765   1.237   6.049   4.965 -0.1685  0.1300 -0.9823
 5601TIP3   OH216766   1.402   0.057   1.417  0.2857 -0.5560  0.5493
 5601TIP3    H116767   1.373  -0.002   1.487 -3.1592 -1.1407 -1.1710
 5601TIP3    H216768   1.395   0.145   1.455  1.1519 -0.9888  1.7582
 5602TIP3   OH216769   3.493   2.666   4.892 -0.7055 -0.4133 -0.4739
 5602TIP3    H116770   3.534   2.745   4.928  1.2734 -2.0386  1.1285
 5602TIP3    H216771   3.550   2.595   4.921 -2.4518 -2.4642 -1.7832
 5603TIP3   OH216772   6.353   1.704   1.980 -1.3689  0.0192  0.2440
 5603TIP3    H116773   6.398   1.716   2.064 -0.3780 -0.4169 -0.2193
 5603TIP3    H216774   6.342   1.610   1.971 -1.0312  0.0330 -0.3470
 5604TIP3   OH216775   0.663   1.483   3.486  0.2488 -0.3442  0.7521
 5604TIP3    H116776   0.629   1.451   3.569  0.2724 -0.0617  0.8739
 5604TIP3    H216777   0.736   1.540   3.511 -1.0991  1.5079  0.6743
 5605TIP3   OH216778   0.424   5.126   1.947 -0.2139  0.4777  0.1086
 5605TIP3    H116779   0.419   5.075   2.028 -0.5422  0.4499  0.0697
 5605TIP3    H216780   0.486   5.196   1.968  1.7568 -0.9951 -0.4241
 5606TIP3   OH216781   3.706   5.192   3.529  0.2941  0.3705 -0.4655
 5606TIP3    H116782   3.798   5.219   3.533  0.1215  0.8519  0.5004
 5606TIP3    H216783   3.682   5.202   3.437  0.9832  1.0084 -0.5848
 5607TIP3   OH216784   4.729   6.431   2.241 -0.0338 -0.3599  0.2234
 5607TIP3    H116785   4.713   6.343   2.205 -0.1545 -0.1591 -0.2140
 5607TIP3    H216786   4.793   6.470   2.181  2.2273 -1.1574  1.9483
 5608TIP3   OH216787   3.035   1.105   4.120 -0.5144  0.5057 -0.0524
 5608TIP3    H116788   2.967   1.157   4.165  0.7792  1.4598  0.8938
 5608TIP3    H216789   3.071   1.049   4.189 -0.6813 -0.3877 -0.6738
 5609TIP3   OH216790   3.929   4.686   2.626  0.0351 -0.0841  0.5539
 5609TIP3    H116791   3.969   4.601   2.611  1.3739  0.7397 -0.8516
 5609TIP3    H216792   3.962   4.713   2.711  1.0996 -0.1830  0.1858
 5610TIP3   OH216793   4.795   2.175   3.450 -0.5981  0.4372 -0.3147
 5610TIP3    H116794   4.750   2.096   3.419 -0.3054 -0.2301  0.9260
 5610TIP3    H216795   4.754   2.195   3.533  0.5753  0.5107  0.2606
 5611TIP3   OH216796   3.241   1.787   0.981  0.4657 -0.0208  0.2730
 5611TIP3    H116797   3.158   1.797   1.028 -0.3730 -1.9806 -0.6954
 5611TIP3    H216798   3.263   1.875   0.952 -2.0960  0.3489 -0.7758
 5612TIP3   OH216799   2.048   2.717   0.313  0.5670  0.2843  0.5492
 5612TIP3    H116800   2.095   2.725   0.396  0.3399 -0.7522  0.7817
 5612TIP3    H216801   2.088   2.784   0.256  0.1551  1.5909  1.7377
 5613TIP3   OH216802   3.631   2.451   4.945 -0.0156  0.2863 -0.3121
 5613TIP3    H116803   3.642   2.423   4.854 -0.3728  1.1047 -0.6135
 5613TIP3    H216804   3.701   2.406   4.992 -0.0289 -0.3947 -0.9370
 5614TIP3   OH216805   0.756   1.228   3.838  0.4430  0.2277  0.0031
 5614TIP3    H116806   0.771   1.237   3.932 -0.6441  0.2210  0.1899
 5614TIP3    H216807   0.784   1.139   3.817 -0.5220 -0.2356  0.5893
 5615TIP3   OH216808   3.952   2.256   1.680 -0.1647 -0.4632 -0.2447
 5615TIP3    H116809   4.019   2.198   1.645  0.9982  1.2911 -1.0355
 5615TIP3    H216810   3.999   2.315   1.738 -1.2833 -0.1516  0.3793
 5616TIP3   OH216811   6.412   0.244   2.583 -0.1763 -0.1841  0.0129
 5616TIP3    H116812   6.479   0.247   2.651 -1.3826  0.8322  1.2274
 5616TIP3    H216813   6.455   0.204   2.508  1.0541 -1.8741  1.5357
 5617TIP3   OH216814   6.750   0.638   3.515  0.3370 -0.4205 -0.1169
 5617TIP3    H116815   6.696   0.628   3.593  3.1888  0.0927  2.0901
 5617TIP3    H216816   6.830   0.590   3.535  0.6794 -1.4047 -3.3299
 5618TIP3   OH216817   1.243   0.324   1.379  0.0733 -1.0540 -0.3600
 5618TIP3    H116818   1.175   0.378   1.420  2.1674  0.6011  1.1917
 5618TIP3    H216819   1.307   0.387   1.345  2.3237 -2.4506  0.9547
 5619TIP3   OH216820   4.995   6.755   4.784  0.4741  0.0493 -0.0028
 5619TIP3    H116821   4.943   6.674   4.788  0.2416  0.1439 -0.8441
 5619TIP3    H216822   5.086   6.725   4.776  0.4180 -0.1230  0.0028
 5620TIP3   OH216823   6.414   0.745   4.360 -0.2178  0.1461 -0.2907
 5620TIP3    H116824   6.329   0.726   4.322 -0.4945 -0.0261  0.3972
 5620TIP3    H216825   6.477   0.728   4.290 -0.6139 -1.3552 -0.3045
 5621TIP3   OH216826   3.719   3.243   2.992 -0.3919  0.5304 -0.4580
 5621TIP3    H116827   3.718   3.153   3.025  0.9652  0.8989  0.7201
 5621TIP3    H216828   3.642   3.249   2.935 -1.9063 -0.6513  1.3541
 5622TIP3   OH216829   6.016   0.729   5.863 -0.2702  0.6966  0.0607
 5622TIP3    H116830   6.103   0.761   5.840 -0.1536  0.9769  0.8552
 5622TIP3    H216831   6.027   0.692   5.951 -0.7879  0.0566 -0.1440
 5623TIP3   OH216832   0.590   2.375   1.337 -0.2799 -0.3092  0.3029
 5623TIP3    H116833   0.565   2.342   1.250  0.4515 -1.0660  0.3676
 5623TIP3    H216834   0.540   2.321   1.398 -1.2456  0.6110  0.3645
 5624TIP3   OH216835   6.274   1.125   4.731 -0.0394 -0.2245 -0.0491
 5624TIP3    H116836   6.303   1.051   4.677  2.7740 -0.0214  0.9918
 5624TIP3    H216837   6.246   1.085   4.813 -3.7654 -0.4846 -1.3043
 5625TIP3   OH216838   2.306   4.848   0.303  0.4495 -0.4047  0.1554
 5625TIP3    H116839   2.273   4.873   0.217 -0.8422  1.3282  1.0749
 5625TIP3    H216840   2.393   4.887   0.308 -0.5182  1.8399  0.5777
 5626TIP3   OH216841   0.815   2.608   0.843  0.5009 -0.3639  0.9838
 5626TIP3    H116842   0.761   2.546   0.891  0.4008 -0.5741  0.5967
 5626TIP3    H216843   0.838   2.563   0.762 -0.7860  0.6317  0.0197
 5627TIP3   OH216844   1.672   0.428   0.062  0.0318 -0.3251  0.2939
 5627TIP3    H116845   1.724   0.381   0.127  0.0742 -2.9110 -1.4598
 5627TIP3    H216846   1.716   0.412  -0.021 -1.5055  0.5697 -0.7467
 5628TIP3   OH216847   1.097   4.556   2.035  0.1767  0.1436  0.0492
 5628TIP3    H116848   1.047   4.620   1.983 -0.7299 -0.3076  0.3441
 5628TIP3    H216849   1.108   4.598   2.120 -0.7043 -0.2020  0.3496
 5629TIP3   OH216850   1.325   1.790   0.912  0.0290  0.0722 -0.6097
 5629TIP3    H116851   1.232   1.801   0.930  0.0121 -1.9372  0.7965
 5629TIP3    H216852   1.329   1.755   0.823 -0.6642 -1.0048 -0.2308
 5630TIP3   OH216853   3.652   3.758   2.891 -0.1355 -0.5764 -0.4760
 5630TIP3    H116854   3.661   3.665   2.868 -0.4333 -0.8668  0.4952
 5630TIP3    H216855   3.742   3.789   2.898 -0.0372 -0.5540 -1.6663
 5631TIP3   OH216856   2.379   1.492   5.303  0.0298 -0.0263 -0.0916
 5631TIP3    H116857   2.374   1.583   5.275 -1.8673  0.2068  0.9089
 5631TIP3    H216858   2.357   1.493   5.396  0.0956 -1.4973 -0.0251
 5632TIP3   OH216859   1.141   5.844   5.481  0.8990 -0.4868 -0.8205
 5632TIP3    H116860   1.235   5.826   5.489  1.2201  1.3228  0.0689
 5632TIP3    H216861   1.137   5.931   5.441 -0.2900  0.4818  1.2267
 5633TIP3   OH216862   5.309   4.049   2.340 -0.5137  0.2718 -0.1634
 5633TIP3    H116863   5.323   3.990   2.414 -2.2970  0.8495  0.7091
 5633TIP3    H216864   5.224   4.024   2.305 -0.9036  1.7245 -0.3339
 5634TIP3   OH216865   4.094   1.338   1.838 -0.0522 -0.8477  0.2174
 5634TIP3    H116866   4.052   1.379   1.762 -2.3929 -1.0359  1.3269
 5634TIP3    H216867   4.114   1.249   1.809  1.2161 -0.2397 -0.8756
 5635TIP3   OH216868   5.802   3.442   5.705  0.1258 -0.1851  0.0666
 5635TIP3    H116869   5.869   3.503   5.677  0.1927 -0.0123  0.5851
 5635TIP3    H216870   5.840   3.397   5.781  0.3117 -1.2946 -0.6566
 5636TIP3   OH216871   2.753   5.524   0.031  0.1381  0.2269 -0.1473
 5636TIP3    H116872   2.817   5.511  -0.039  1.5894 -0.1507  1.2091
 5636TIP3    H216873   2.797   5.582   0.093 -0.9383  0.1650  0.6927
 5637TIP3   OH216874   4.313   3.250   3.242 -0.4295  0.4864  0.2778
 5637TIP3    H116875   4.279   3.217   3.325  0.8072 -0.2552  0.5021
 5637TIP3    H216876   4.236   3.255   3.186 -1.1707  0.3295  1.2501
 5638TIP3   OH216877   1.364   5.247   5.882 -0.4870 -0.5353  0.5472
 5638TIP3    H116878   1.364   5.322   5.822 -0.8490  0.7199  2.0428
 5638TIP3    H216879   1.456   5.235   5.904 -0.5558  0.5788  1.5664
 5639TIP3   OH216880   5.286   0.367   4.117 -0.4034 -0.5711 -0.0908
 5639TIP3    H116881   5.324   0.299   4.061 -0.4628 -0.2538 -0.5183
 5639TIP3    H216882   5.357   0.430   4.128 -0.0436 -1.1563  1.0752
 5640TIP3   OH216883   1.117   6.255   3.743  0.8859 -0.2421  0.1163
 5640TIP3    H116884   1.157   6.172   3.769  0.7216 -0.1702  0.6216
 5640TIP3    H216885   1.184   6.320   3.764  1.2999 -0.3114 -0.9633
 5641TIP3   OH216886   0.816   4.011   3.412 -0.3538 -0.3216  0.5315
 5641TIP3    H116887   0.891   3.952   3.417 -0.5598 -0.5124  1.8141
 5641TIP3    H216888   0.741   3.955   3.434 -0.9704 -0.2490 -1.1781
 5642TIP3   OH216889   1.963   2.014   4.079  0.2680  0.0788 -0.1387
 5642TIP3    H116890   1.957   2.056   4.164  1.0426 -0.2944  0.1096
 5642TIP3    H216891   1.932   1.925   4.093  1.3349 -0.2876 -0.0053
 5643TIP3   OH216892   0.219   4.647   4.335  0.0525 -0.3160 -0.0710
 5643TIP3    H116893   0.159   4.573   4.348  1.1192 -0.9983  1.2724
 5643TIP3    H216894   0.280   4.616   4.268 -0.5474  0.0468 -0.8019
 5644TIP3   OH216895   4.348   2.964   5.282 -0.0674  0.0613 -0.0483
 5644TIP3    H116896   4.304   2.981   5.198 -1.3846  0.7380  0.7456
 5644TIP3    H216897   4.433   3.008   5.273 -0.0743 -0.1040 -1.1130
 5645TIP3   OH216898   5.637   1.067   3.058  0.2886 -0.6815 -0.3153
 5645TIP3    H116899   5.724   1.034   3.035 -0.3956 -1.8134 -1.4265
 5645TIP3    H216900   5.591   0.991   3.094 -0.6314 -0.4335 -0.9158
 5646TIP3   OH216901   2.316   6.190   4.590 -0.2577  0.0713 -0.7303
 5646TIP3    H116902   2.387   6.237   4.545 -0.8270  1.2066 -0.4726
 5646TIP3    H216903   2.328   6.098   4.563  3.5511 -0.5276  2.1220
 5647TIP3   OH216904   1.376   1.833   0.111  0.4253 -0.2000  0.2022
 5647TIP3    H116905   1.397   1.799   0.023 -0.5254  2.2222 -1.0533
 5647TIP3    H216906   1.451   1.889   0.133  0.4681 -0.4744  0.7740
 5648TIP3   OH216907   3.405   1.398   2.038  0.0112  0.6574  0.2748
 5648TIP3    H116908   3.449   1.416   2.121  0.6243 -0.8605  0.3103
 5648TIP3    H216909   3.473   1.409   1.972 -0.3120  1.2098  0.0245
 5649TIP3   OH216910   3.854   2.911   5.045  0.1120  0.3069 -0.0637
 5649TIP3    H116911   3.870   3.004   5.063 -2.3193  0.8633 -0.4858
 5649TIP3    H216912   3.845   2.906   4.950 -0.2615 -0.2800 -0.0030
 5650TIP3   OH216913   0.165   0.457   1.425  0.9073  0.1326 -0.1601
 5650TIP3    H116914   0.176   0.546   1.394  2.0607 -0.3953 -1.3278
 5650TIP3    H216915   0.211   0.455   1.510  1.3436  0.5062 -0.3859
 5651TIP3   OH216916   4.140   2.522   0.444  0.2866  0.3890 -0.2522
 5651TIP3    H116917   4.098   2.442   0.413 -1.8336  1.4514 -0.3159
 5651TIP3    H216918   4.171   2.564   0.364 -1.9247  1.3537 -0.6966
 5652TIP3   OH216919   3.145   1.423   5.830 -0.1423 -0.7086  0.8754
 5652TIP3    H116920   3.121   1.502   5.879 -0.4450 -0.6701  0.6659
 5652TIP3    H216921   3.207   1.453   5.764 -2.1963 -0.1495 -0.9257
 5653TIP3   OH216922   6.744   4.916   4.867  0.8096 -0.0391 -0.2446
 5653TIP3    H116923   6.772   4.893   4.956  1.0327 -1.0956 -0.5736
 5653TIP3    H216924   6.816   4.890   4.811  0.4529  0.1255 -0.7902
 5654TIP3   OH216925   3.193   4.521   0.527 -0.7078  0.1465 -0.1490
 5654TIP3    H116926   3.169   4.491   0.439  0.9481  1.1177 -0.9765
 5654TIP3    H216927   3.110   4.525   0.575 -1.5584 -1.0265 -1.4548
 5655TIP3   OH216928   5.918   3.908   3.658  0.4087  0.0493 -0.1692
 5655TIP3    H116929   5.995   3.857   3.682 -0.4189 -0.8362  0.6771
 5655TIP3    H216930   5.855   3.843   3.627 -0.1959  0.6971 -0.3213
 5656TIP3   OH216931   0.042   5.194   5.381 -0.3326  0.2062 -0.5536
 5656TIP3    H116932   0.089   5.236   5.452  1.0191 -0.2243 -1.1713
 5656TIP3    H216933   0.098   5.205   5.304 -1.5050  0.1822 -1.4388
 5657TIP3   OH216934   1.377   4.853   0.943  0.0019  0.3253 -0.0110
 5657TIP3    H116935   1.345   4.786   0.883  0.3869 -0.7880  0.9892
 5657TIP3    H216936   1.413   4.804   1.017  0.3259  1.6378  0.7341
 5658TIP3   OH216937   0.444   2.184   0.731 -0.2086 -0.2844  0.1165
 5658TIP3    H116938   0.420   2.257   0.788 -3.2410 -1.5032  0.6196
 5658TIP3    H216939   0.400   2.203   0.648  1.3378 -0.2048 -0.7249
 5659TIP3   OH216940   0.541   2.897   1.007 -0.2719 -0.0806 -0.3889
 5659TIP3    H116941   0.459   2.912   0.961 -0.9095  1.0061  1.0018
 5659TIP3    H216942   0.609   2.911   0.941 -1.1786  0.0768 -1.3118
 5660TIP3   OH216943   5.466   4.622   5.897 -0.4559  0.0858  0.0507
 5660TIP3    H116944   5.410   4.626   5.819 -3.1034  0.8852  1.8464
 5660TIP3    H216945   5.440   4.541   5.940  0.9914 -0.3521  0.1229
 5661TIP3   OH216946   0.460   5.986   4.124 -0.4143 -0.1193 -0.1847
 5661TIP3    H116947   0.492   6.036   4.199 -0.7954  1.7456 -1.2307
 5661TIP3    H216948   0.366   5.981   4.136 -0.5388  0.6781 -0.8376
 5662TIP3   OH216949   4.941   0.248   3.866  0.1331  0.5798 -0.3546
 5662TIP3    H116950   4.918   0.339   3.886  2.6067  1.5153 -1.4035
 5662TIP3    H216951   4.890   0.227   3.787 -0.3391  1.1074 -0.1954
 5663TIP3   OH216952   6.903   2.013   2.344 -0.1424 -0.2726 -0.1215
 5663TIP3    H116953   6.890   1.943   2.280 -0.5084 -1.1441  0.8701
 5663TIP3    H216954   6.939   1.969   2.421 -1.3833  0.4322  0.9052
 5664TIP3   OH216955   1.049   2.726   0.966  0.2758  0.0586  0.0981
 5664TIP3    H116956   1.067   2.636   0.993 -1.7953  0.1412  2.0499
 5664TIP3    H216957   0.966   2.721   0.920  1.0384  0.7608 -1.4159
 5665TIP3   OH216958   4.577   6.456   3.948 -0.2926  0.0548  0.7514
 5665TIP3    H116959   4.542   6.369   3.967  1.4459 -0.5599  1.3968
 5665TIP3    H216960   4.664   6.439   3.911 -0.5393  1.4860 -0.5915
 5666TIP3   OH216961   6.448   3.016   4.880 -0.2054 -0.1635 -0.1768
 5666TIP3    H116962   6.356   2.997   4.898  0.1254 -2.0136 -0.2635
 5666TIP3    H216963   6.496   2.951   4.933  1.1890  2.5907  2.2359
 5667TIP3   OH216964   3.802   2.568   0.460 -0.3336  0.0608 -0.1998
 5667TIP3    H116965   3.749   2.620   0.400 -1.0942  0.0880  0.4686
 5667TIP3    H216966   3.758   2.482   0.463  0.4795 -0.3811 -0.7199
 5668TIP3   OH216967   2.558   5.504   5.393 -0.8721  0.0872  0.4468
 5668TIP3    H116968   2.608   5.585   5.384  0.6709 -0.8270  0.4589
 5668TIP3    H216969   2.596   5.445   5.329 -0.6019 -1.2680  1.7984
 5669TIP3   OH216970   3.907   4.577   1.907  0.1376  0.0101  0.4862
 5669TIP3    H116971   3.983   4.549   1.856  0.1997  0.0572  0.5540
 5669TIP3    H216972   3.865   4.644   1.852 -0.0765 -0.2934  0.2704
 5670TIP3   OH216973   2.599   4.424   2.159  0.1842  0.4557  0.4096
 5670TIP3    H116974   2.513   4.454   2.129  0.2039  1.1296  1.0149
 5670TIP3    H216975   2.660   4.458   2.094  0.1219  1.0568  0.6608
 5671TIP3   OH216976   3.581   2.984   4.641  0.0308  0.1608  0.3316
 5671TIP3    H116977   3.561   2.891   4.627  0.9094  0.0086  0.0246
 5671TIP3    H216978   3.572   3.024   4.554 -0.4609  0.3924  0.4843
 5672TIP3   OH216979   0.040   1.043   1.384 -0.1992  0.2379 -0.4633
 5672TIP3    H116980   0.053   1.079   1.296  0.6601  0.8345 -0.1018
 5672TIP3    H216981  -0.028   0.976   1.372  0.0665  0.1461 -1.6234
 5673TIP3   OH216982   4.104   2.963   5.505 -0.5664 -0.3475 -0.3090
 5673TIP3    H116983   4.144   2.953   5.419 -0.7204  1.6115 -0.6523
 5673TIP3    H216984   4.170   3.008   5.557 -0.7663 -0.8340  0.3792
 5674TIP3   OH216985   2.756   1.436   3.642  0.2073  0.3443 -0.9414
 5674TIP3    H116986   2.814   1.365   3.615  1.3045  0.6599  0.4608
 5674TIP3    H216987   2.683   1.433   3.579  1.9477  0.2284 -3.0890
 5675TIP3   OH216988   0.126   1.420   4.288 -0.1864  0.6795 -0.0168
 5675TIP3    H116989   0.216   1.388   4.283 -0.4837 -0.4744  1.2666
 5675TIP3    H216990   0.127   1.483   4.360 -0.1847  1.5252 -0.7416
 5676TIP3   OH216991   0.177   3.858   1.623 -0.3667 -0.1107 -0.5123
 5676TIP3    H116992   0.113   3.875   1.554 -0.6611  0.8227 -0.0278
 5676TIP3    H216993   0.246   3.923   1.608  0.5518 -1.1847 -1.1027
 5677TIP3   OH216994   1.186   3.827   2.797  0.7591 -0.3524 -0.1275
 5677TIP3    H116995   1.114   3.813   2.735  0.1347 -1.0070  0.7100
 5677TIP3    H216996   1.239   3.896   2.758 -0.3960  0.2278 -0.7158
 5678TIP3   OH216997   6.251   0.266   3.797  0.5913  0.1166 -0.1225
 5678TIP3    H116998   6.313   0.193   3.790  0.4246  0.0957 -2.2735
 5678TIP3    H216999   6.266   0.318   3.717 -0.5670  1.4021  0.4508
 5679TIP3   OH217000   0.621   4.471   1.783 -0.0996  0.4143 -0.4464
 5679TIP3    H117001   0.629   4.411   1.857 -0.9716  0.5845 -0.1991
 5679TIP3    H217002   0.700   4.457   1.731 -0.4377 -1.1851 -0.5772
 5680TIP3   OH217003   6.743   0.169   1.459  0.3026 -0.0363  0.4316
 5680TIP3    H117004   6.682   0.162   1.532 -0.0594 -0.9168  0.0684
 5680TIP3    H217005   6.741   0.082   1.418 -0.5587  0.7987 -1.4324
 5681TIP3   OH217006   1.773   1.962   4.930 -0.1059 -0.1603 -0.4431
 5681TIP3    H117007   1.707   1.893   4.933 -0.2772  0.0049 -0.4121
 5681TIP3    H217008   1.723   2.043   4.920  0.0209  0.0963  0.8675
 5682TIP3   OH217009   5.358   6.573   2.938  0.0508  0.2951 -0.4755
 5682TIP3    H117010   5.406   6.636   2.884 -0.1180  1.0189  0.2025
 5682TIP3    H217011   5.270   6.572   2.901  0.4729 -0.8278 -1.5469
 5683TIP3   OH217012   5.587   1.355   2.292  0.0435 -0.1521  0.4888
 5683TIP3    H117013   5.627   1.317   2.370  1.0057  0.8477  0.5075
 5683TIP3    H217014   5.653   1.416   2.258 -0.7275  0.1287 -0.5699
 5684TIP3   OH217015   1.269   2.772   5.716 -0.2024 -0.0361 -0.1566
 5684TIP3    H117016   1.283   2.843   5.654 -1.1465  0.2059 -0.1029
 5684TIP3    H217017   1.335   2.785   5.784  1.6366 -0.9665 -1.6571
 5685TIP3   OH217018   1.772   1.713   3.962 -0.4454 -0.0985  0.0261
 5685TIP3    H117019   1.792   1.773   3.890 -0.3693 -0.6387 -0.4121
 5685TIP3    H217020   1.853   1.663   3.974 -0.3130  0.2871  0.7874
 5686TIP3   OH217021   2.786   5.204   2.851  0.6408  0.0175  0.1645
 5686TIP3    H117022   2.736   5.205   2.933 -0.7402  1.6842 -0.6290
 5686TIP3    H217023   2.876   5.221   2.877  0.1649  0.8841  1.3246
 5687TIP3   OH217024   2.301   4.215   5.689 -0.0785 -0.4425  0.2126
 5687TIP3    H117025   2.245   4.281   5.649 -0.1063 -0.4415  0.2527
 5687TIP3    H217026   2.364   4.191   5.620 -0.5308 -0.9123 -0.0493
 5688TIP3   OH217027   1.849   0.903   0.620 -0.1829  0.0016 -0.0826
 5688TIP3    H117028   1.867   0.994   0.645 -3.5664  0.6868  0.3781
 5688TIP3    H217029   1.763   0.885   0.657 -0.3235 -2.8973 -1.5460
 5689TIP3   OH217030   5.007   2.712   2.999  0.3481 -0.1578 -0.2370
 5689TIP3    H117031   5.079   2.760   3.038  0.6000 -0.3530 -0.4606
 5689TIP3    H217032   5.047   2.633   2.962 -0.0778 -0.6171  0.2553
 5690TIP3   OH217033   5.459   2.296   1.633 -0.3224  0.2554  0.0822
 5690TIP3    H117034   5.474   2.355   1.707 -0.2698 -0.3131  0.5311
 5690TIP3    H217035   5.369   2.315   1.605 -2.0807 -2.6267  3.1730
 5691TIP3   OH217036   7.032   2.740   5.327  0.1728 -0.3343 -0.3674
 5691TIP3    H117037   7.080   2.748   5.409 -1.8253  3.2273  0.6754
 5691TIP3    H217038   6.940   2.733   5.353 -0.3741 -1.3359 -2.3381
 5692TIP3   OH217039   5.570   0.425   3.663  0.0957 -0.3848 -0.2013
 5692TIP3    H117040   5.608   0.368   3.730  0.5722 -0.5553 -0.6082
 5692TIP3    H217041   5.569   0.512   3.703  2.5636 -0.0167 -0.7711
 5693TIP3   OH217042   0.972   2.495   0.268  0.2298 -0.7478 -0.2530
 5693TIP3    H117043   0.931   2.409   0.280  1.7076 -1.4760 -0.2727
 5693TIP3    H217044   0.950   2.520   0.179  2.7360 -2.7762 -1.5559
 5694TIP3   OH217045   3.594   5.091   3.763  0.1869 -0.2143 -0.3020
 5694TIP3    H117046   3.624   5.127   3.679  0.7964  1.6847  0.6674
 5694TIP3    H217047   3.654   5.128   3.827 -1.3794 -0.1550  1.1905
 5695TIP3   OH217048   0.877   4.085   4.726  0.6015  0.2132  0.0871
 5695TIP3    H117049   0.920   4.073   4.641 -1.1455 -0.4051 -0.7541
 5695TIP3    H217050   0.784   4.077   4.707  0.1982 -0.8297  2.2119
 5696TIP3   OH217051   2.189   2.608   1.783 -0.5268  0.8441  0.5250
 5696TIP3    H117052   2.145   2.589   1.700 -0.1125  2.8725 -0.2124
 5696TIP3    H217053   2.263   2.664   1.760  0.1324  0.7283  2.1761
 5697TIP3   OH217054   7.093   4.929   3.582  0.5248  0.2623  0.0858
 5697TIP3    H117055   7.062   4.845   3.548  1.2827 -0.5994  1.4313
 5697TIP3    H217056   7.033   4.993   3.544  0.0921 -0.8365 -1.2033
 5698TIP3   OH217057   3.780   2.045   1.832  0.1755 -0.0782 -0.0975
 5698TIP3    H117058   3.724   1.982   1.878  0.3379 -0.9043 -0.9908
 5698TIP3    H217059   3.771   2.126   1.881 -2.2233 -0.0379 -0.5104
 5699TIP3   OH217060   1.325   1.060   3.325  0.1405  0.2756 -0.1373
 5699TIP3    H117061   1.359   1.008   3.252  0.7964  0.6491 -0.1007
 5699TIP3    H217062   1.267   1.000   3.372  0.8720 -0.4285 -0.1104
 5700TIP3   OH217063   6.748   0.796   5.140 -0.0979 -0.6512  0.5949
 5700TIP3    H117064   6.788   0.774   5.056 -0.7239  0.0936  0.0895
 5700TIP3    H217065   6.772   0.887   5.155 -1.3798 -0.2599  0.3990
 5701TIP3   OH217066   4.150   3.183   2.773  1.0539  0.5294  0.3557
 5701TIP3    H117067   4.232   3.152   2.810  0.5202  1.2494  2.2491
 5701TIP3    H217068   4.130   3.264   2.821 -1.6781 -0.5790  1.3231
 5702TIP3   OH217069   3.589   0.333   3.670 -0.1432 -1.1406 -0.6855
 5702TIP3    H117070   3.510   0.363   3.624 -0.7343  0.0635  1.0343
 5702TIP3    H217071   3.583   0.372   3.757  2.8345 -0.1942 -0.7988
 5703TIP3   OH217072   1.012   4.777   2.831 -0.7873 -0.0319  0.6865
 5703TIP3    H117073   1.047   4.791   2.920  0.7290 -0.4649  0.1978
 5703TIP3    H217074   1.052   4.694   2.803 -2.3025 -0.5847  0.0856
 5704TIP3   OH217075   7.129   5.956   2.635 -0.0131  0.0631  0.4300
 5704TIP3    H117076   7.213   5.935   2.676  0.4645 -0.3416 -0.7256
 5704TIP3    H217077   7.151   6.022   2.569 -0.4961 -0.5360 -0.3402
 5705TIP3   OH217078   3.971   5.886   4.553  0.0717 -0.1251 -0.3705
 5705TIP3    H117079   3.880   5.915   4.556 -0.5603 -2.0051  0.1899
 5705TIP3    H217080   3.972   5.818   4.486  1.5814  1.3616 -1.9528
 5706TIP3   OH217081   0.530   2.259   1.900 -0.7771  0.0661 -0.0530
 5706TIP3    H117082   0.465   2.274   1.831 -1.8933  0.4275  1.0267
 5706TIP3    H217083   0.537   2.344   1.945 -1.1178 -0.4973  1.1211
 5707TIP3   OH217084   4.123   2.337   0.659  0.0403  0.7249  0.3542
 5707TIP3    H117085   4.151   2.406   0.599  2.6544 -0.8434 -0.3960
 5707TIP3    H217086   4.144   2.256   0.613  0.3923 -0.5501  2.6367
 5708TIP3   OH217087   3.429   4.438   3.467 -0.1154 -0.4541 -0.4745
 5708TIP3    H117088   3.478   4.366   3.429 -0.0277 -0.7310  0.1456
 5708TIP3    H217089   3.450   4.513   3.411  0.2337 -0.7843 -0.7972
 5709TIP3   OH217090   1.070   4.153   4.945  0.3339 -0.0564  0.5492
 5709TIP3    H117091   0.996   4.157   5.005  0.1702  0.4367  0.3175
 5709TIP3    H217092   1.032   4.123   4.862  0.2467  0.9408  0.2146
 5710TIP3   OH217093   1.458   3.496   3.381  0.7966  0.2252 -0.4192
 5710TIP3    H117094   1.520   3.494   3.308 -0.2502  0.7677 -1.3452
 5710TIP3    H217095   1.428   3.405   3.389  1.7579 -0.0559  0.0867
 5711TIP3   OH217096   2.746   6.287   1.621 -0.1166  0.0556 -0.1035
 5711TIP3    H117097   2.750   6.201   1.580 -2.6768 -0.7603  1.1479
 5711TIP3    H217098   2.801   6.279   1.699 -0.5048 -0.5335  0.1166
 5712TIP3   OH217099   0.316   6.291   4.237 -0.1455 -0.2309  0.3381
 5712TIP3    H117100   0.383   6.344   4.195 -1.4161 -1.5514 -3.8717
 5712TIP3    H217101   0.364   6.219   4.277  1.1097  0.0342 -0.6207
 5713TIP3   OH217102   4.148   4.288   1.991  0.1752 -0.0856  0.1253
 5713TIP3    H117103   4.232   4.291   2.037 -0.0038  0.5969  0.4188
 5713TIP3    H217104   4.110   4.374   2.005 -0.4055 -0.2611 -0.3336
 5714TIP3   OH217105   0.495   6.781   0.051  0.8637 -0.2748 -0.0693
 5714TIP3    H117106   0.530   6.692   0.044  3.7003  0.5422  1.9180
 5714TIP3    H217107   0.571   6.838   0.037 -1.1580  2.0021 -2.9394
 5715TIP3   OH217108   6.563   3.993   5.768 -0.0326  0.3220  0.0304
 5715TIP3    H117109   6.547   4.080   5.804  0.1602  0.3582  0.0277
 5715TIP3    H217110   6.479   3.947   5.778 -1.2443  1.5935 -3.0936
 5716TIP3   OH217111   7.019   1.875   1.427  0.0328 -0.0822  0.1488
 5716TIP3    H117112   7.003   1.782   1.439  0.7735 -0.5030 -1.7608
 5716TIP3    H217113   7.040   1.908   1.515 -2.3199 -1.2359  1.2331
 5717TIP3   OH217114   1.289   6.785   4.334  0.5087 -0.5771  0.1752
 5717TIP3    H117115   1.383   6.780   4.351  0.4260  0.0671  0.9001
 5717TIP3    H217116   1.271   6.711   4.277  1.2442 -1.4187  1.0003
 5718TIP3   OH217117   3.849   4.520   1.562 -0.6162 -0.4318  0.6654
 5718TIP3    H117118   3.797   4.455   1.608 -1.4330  0.0928  0.5093
 5718TIP3    H217119   3.835   4.501   1.469  0.2649 -0.8957  0.6131
 5719TIP3   OH217120   2.350   1.451   4.183 -0.3598 -0.2119  0.1714
 5719TIP3    H117121   2.397   1.486   4.107 -2.0628  0.3550 -0.6802
 5719TIP3    H217122   2.393   1.368   4.203  0.0526 -0.4257 -1.5027
 5720TIP3   OH217123   2.132   5.696   1.971  0.1653  0.3565  0.3637
 5720TIP3    H117124   2.079   5.627   1.930 -1.0260  1.6838 -0.4332
 5720TIP3    H217125   2.157   5.753   1.899  0.0465  1.4539  1.1722
 5721TIP3   OH217126   2.759   3.440   2.449  0.3779 -0.0586  0.3097
 5721TIP3    H117127   2.750   3.521   2.400  2.8420  0.9905  1.4171
 5721TIP3    H217128   2.846   3.446   2.489  1.8107 -4.3560 -1.5638
 5722TIP3   OH217129   4.815   0.733   3.279  0.1673 -0.3879  0.1498
 5722TIP3    H117130   4.886   0.716   3.341  1.5208 -0.5969 -1.3911
 5722TIP3    H217131   4.856   0.725   3.193 -1.6439 -0.0703 -0.7872
 5723TIP3   OH217132   5.178   1.376   0.794  0.6012  0.4531  0.2131
 5723TIP3    H117133   5.209   1.417   0.713  1.5246 -1.9862 -0.7492
 5723TIP3    H217134   5.087   1.354   0.776  1.4383 -2.2510 -1.1805
 5724TIP3   OH217135   5.734   4.810   4.601 -0.2036 -0.0668 -0.0313
 5724TIP3    H117136   5.755   4.886   4.656  0.8843 -1.1772  1.1530
 5724TIP3    H217137   5.698   4.746   4.662 -2.4135 -0.0716 -1.2249
 5725TIP3   OH217138   1.093   0.548   2.392  0.2266 -0.1796  0.7367
 5725TIP3    H117139   1.095   0.643   2.400 -0.5848 -0.0860 -0.0389
 5725TIP3    H217140   1.003   0.527   2.367  0.8061 -0.9844 -0.8349
 5726TIP3   OH217141   3.220   6.337   5.247  0.4284 -0.5723  0.9224
 5726TIP3    H117142   3.259   6.260   5.205  2.2256  0.8307 -0.1300
 5726TIP3    H217143   3.239   6.409   5.187 -0.6291  0.8209  2.1840
 5727TIP3   OH217144   1.802   2.908   4.836 -0.1828 -0.3771 -0.1145
 5727TIP3    H117145   1.852   2.850   4.779 -1.5312  0.5444 -2.3293
 5727TIP3    H217146   1.826   2.996   4.808 -1.7551  0.0825 -0.0807
 5728TIP3   OH217147   2.296   6.743   4.863  0.2083  0.0277 -0.1842
 5728TIP3    H117148   2.229   6.759   4.797 -0.9442  0.5572  1.0738
 5728TIP3    H217149   2.285   6.813   4.927  1.0924 -0.6336  0.7291
 5729TIP3   OH217150   0.758   0.797   1.533 -0.7557  0.2472 -0.2035
 5729TIP3    H117151   0.844   0.827   1.565 -0.9888  0.2418  0.4563
 5729TIP3    H217152   0.767   0.796   1.438  0.2212 -0.4975 -0.1224
 5730TIP3   OH217153   0.208   2.129   4.830  0.3985  0.3878  0.3205
 5730TIP3    H117154   0.173   2.049   4.792  0.0796  1.8026 -2.7045
 5730TIP3    H217155   0.136   2.164   4.883 -0.4598  0.0384 -0.5837
 5731TIP3   OH217156   6.884   0.377   0.091 -0.6360  0.1976  0.1677
 5731TIP3    H117157   6.798   0.378   0.132 -0.9652  2.2876 -0.4234
 5731TIP3    H217158   6.867   0.389  -0.003  0.2824  1.1620  0.0964
 5732TIP3   OH217159   5.127   2.794   0.075  0.3369  0.1439  0.3639
 5732TIP3    H117160   5.194   2.859   0.053 -0.7410  0.9073 -0.8107
 5732TIP3    H217161   5.122   2.737  -0.001  0.3862 -0.5575  0.8777
 5733TIP3   OH217162   1.255   4.989   2.145 -0.6107  0.1141 -0.0579
 5733TIP3    H117163   1.183   4.936   2.180 -0.2659 -1.3167 -1.4245
 5733TIP3    H217164   1.213   5.051   2.086 -0.9662  1.1152  1.1949
 5734TIP3   OH217165   3.978   5.844   5.161  0.4324  0.2684 -0.0090
 5734TIP3    H117166   4.035   5.911   5.122 -0.6687  0.1477 -2.0083
 5734TIP3    H217167   3.894   5.888   5.172  0.1612 -0.3106  0.2625
 5735TIP3   OH217168   0.410   2.327   0.039 -0.7272  0.0251 -0.1836
 5735TIP3    H117169   0.344   2.265   0.069  0.5151 -0.5973  1.3830
 5735TIP3    H217170   0.414   2.314  -0.056  0.1845 -3.0396  0.1820
 5736TIP3   OH217171   6.803   1.206   3.584 -0.3545 -0.0355  0.1317
 5736TIP3    H117172   6.833   1.169   3.667 -0.4686 -1.7996 -0.5772
 5736TIP3    H217173   6.779   1.297   3.605  2.2480  0.4470  1.4263
 5737TIP3   OH217174   4.351   2.315   3.836 -0.3412  0.2817  0.9208
 5737TIP3    H117175   4.413   2.325   3.908  1.3274 -0.8207 -0.2923
 5737TIP3    H217176   4.384   2.374   3.768 -0.5097 -0.4281  0.2042
 5738TIP3   OH217177   3.659   5.425   5.347  0.3696 -0.2826 -0.1416
 5738TIP3    H117178   3.571   5.456   5.325 -0.2118 -0.9824  1.1376
 5738TIP3    H217179   3.717   5.492   5.310 -0.8278  3.1041  3.3355
 5739TIP3   OH217180   1.064   3.565   0.258 -0.2390 -0.1128  0.1663
 5739TIP3    H117181   0.995   3.626   0.286 -0.6547  0.0263 -1.1000
 5739TIP3    H217182   1.108   3.610   0.186  0.4526 -0.6760  0.2307
 5740TIP3   OH217183   2.513   5.129   0.828 -0.1892  0.0750  0.7647
 5740TIP3    H117184   2.417   5.128   0.838 -0.4655  1.0534 -1.2779
 5740TIP3    H217185   2.537   5.221   0.845  0.5527 -0.3409  2.1782
 5741TIP3   OH217186   4.673   5.097   0.937 -0.2992  0.1733 -0.2647
 5741TIP3    H117187   4.604   5.053   0.987  0.9956 -0.5188  0.9830
 5741TIP3    H217188   4.673   5.187   0.970  0.0990 -0.1057  0.5087
 5742TIP3   OH217189   3.718   1.979   2.306 -0.4267 -0.3245 -0.3656
 5742TIP3    H117190   3.637   1.948   2.265 -0.6905 -1.7705  1.1657
 5742TIP3    H217191   3.785   1.967   2.238 -1.3657  0.3823 -1.4598
 5743TIP3   OH217192   1.893   4.699   5.260 -0.3760 -0.0918  0.0597
 5743TIP3    H117193   1.860   4.660   5.341 -2.6510  0.6175 -0.4321
 5743TIP3    H217194   1.916   4.624   5.205  0.6222 -0.5876  1.1252
 5744TIP3   OH217195   4.697   5.014   3.620  0.1040  0.5024 -0.3806
 5744TIP3    H117196   4.746   4.998   3.539  1.1544  1.1587  0.1145
 5744TIP3    H217197   4.753   4.980   3.690  0.9144  3.2330  0.4024
 5745TIP3   OH217198   6.797   5.904   0.589 -0.3803 -0.1262 -0.2408
 5745TIP3    H117199   6.794   5.843   0.514 -3.2223  1.3465 -1.5003
 5745TIP3    H217200   6.825   5.987   0.550 -0.3227  0.2843  0.6736
 5746TIP3   OH217201   6.003   6.546   3.465 -0.0547  0.4293 -0.3686
 5746TIP3    H117202   5.996   6.509   3.377  1.5341  0.9082 -0.7293
 5746TIP3    H217203   6.084   6.508   3.500 -1.1351 -0.4714  1.2645
 5747TIP3   OH217204   6.554   4.276   5.422  0.3304  0.1160  0.1602
 5747TIP3    H117205   6.462   4.257   5.441  0.5340  0.3171  1.4767
 5747TIP3    H217206   6.565   4.254   5.330 -0.3631 -2.5975  0.6127
 5748TIP3   OH217207   1.681   4.162   1.197  0.0037 -0.2209  0.1259
 5748TIP3    H117208   1.753   4.167   1.260  2.1500  0.5016 -2.1690
 5748TIP3    H217209   1.617   4.225   1.228  1.6603  1.1928  0.8449
 5749TIP3   OH217210   5.791   3.394   4.370 -0.0733  0.5365  0.6700
 5749TIP3    H117211   5.768   3.346   4.290 -0.6363 -0.6597  1.5342
 5749TIP3    H217212   5.847   3.466   4.338 -0.0627 -0.0622 -0.7682
 5750TIP3   OH217213   5.199   5.746   1.880 -0.0588  0.1074 -0.6357
 5750TIP3    H117214   5.246   5.700   1.811 -2.2399 -3.6317  0.0539
 5750TIP3    H217215   5.261   5.750   1.953  1.0162  0.5704 -1.5579
 5751TIP3   OH217216   2.076   5.129   4.929  0.0360 -0.5885 -0.7357
 5751TIP3    H117217   1.988   5.133   4.892 -1.1165 -0.3910  1.8160
 5751TIP3    H217218   2.072   5.059   4.993  1.6389 -0.3250 -0.3039
 5752TIP3   OH217219   5.848   0.805   1.817  0.6547 -0.0764 -0.3866
 5752TIP3    H117220   5.890   0.836   1.737 -1.1590  1.1234 -0.9400
 5752TIP3    H217221   5.780   0.744   1.787 -0.7311  1.1558  0.0886
 5753TIP3   OH217222   4.125   5.046   3.870 -0.5010  0.1540 -0.5522
 5753TIP3    H117223   4.135   5.070   3.778  1.4086 -1.7437 -0.9057
 5753TIP3    H217224   4.178   4.967   3.881 -1.6684 -0.4092  1.9013
 5754TIP3   OH217225   6.523   4.370   2.532  0.5064  0.6684  0.3573
 5754TIP3    H117226   6.442   4.375   2.584  0.3843  0.0192  0.2401
 5754TIP3    H217227   6.514   4.290   2.482  2.2363 -0.7090  2.0790
 5755TIP3   OH217228   5.184   2.717   5.226 -0.1924 -0.1492 -0.3590
 5755TIP3    H117229   5.231   2.779   5.282 -0.8133 -0.0930  0.1159
 5755TIP3    H217230   5.103   2.763   5.203  1.1267  0.9209 -3.4812
 5756TIP3   OH217231   4.047   4.134   5.049 -0.3773  0.3160  0.7404
 5756TIP3    H117232   4.013   4.045   5.057  0.0270  0.0686 -0.2575
 5756TIP3    H217233   4.119   4.138   5.113 -0.3626 -0.0824  0.7477
 5757TIP3   OH217234   3.200   6.030   0.821  0.0466 -0.1719  0.2155
 5757TIP3    H117235   3.292   6.053   0.839  0.6580  0.6862 -3.3070
 5757TIP3    H217236   3.158   6.114   0.801 -1.6861 -0.5048  2.1548
 5758TIP3   OH217237   0.652   1.768   4.528  0.4797  0.3634  0.3298
 5758TIP3    H117238   0.725   1.741   4.584 -0.1180 -0.1196  0.9043
 5758TIP3    H217239   0.586   1.799   4.590 -0.2948 -0.4120 -0.0834
 5759TIP3   OH217240   3.690   1.269   2.472  0.3722  0.1981 -0.4297
 5759TIP3    H117241   3.712   1.224   2.390  0.5861  1.1913 -0.9330
 5759TIP3    H217242   3.710   1.361   2.455  0.1497  0.4596  0.6511
 5760TIP3   OH217243   0.140   6.578   3.737  0.1156  0.4968 -0.8754
 5760TIP3    H117244   0.120   6.502   3.791  0.7061  1.7684  1.2800
 5760TIP3    H217245   0.056   6.625   3.730  0.1376  0.5745 -0.6335
 5761TIP3   OH217246   5.522   3.442   4.138  0.3126 -0.6702 -0.0173
 5761TIP3    H117247   5.596   3.384   4.157  1.1956  0.0849 -0.9869
 5761TIP3    H217248   5.498   3.421   4.048 -0.3047 -0.5451  0.1177
 5762TIP3   OH217249   6.917   0.539   2.875  0.0783  0.1918 -0.2277
 5762TIP3    H117250   6.974   0.467   2.900 -0.8721 -0.8244 -0.8684
 5762TIP3    H217251   6.916   0.537   2.779 -0.2297  0.8439 -0.2470
 5763TIP3   OH217252   2.060   3.419   1.642  0.0763  0.0422 -0.4258
 5763TIP3    H117253   1.986   3.362   1.661  0.6687 -0.3380  0.8417
 5763TIP3    H217254   2.043   3.499   1.693 -0.0846  0.4731 -1.1382
 5764TIP3   OH217255   1.579   4.212   4.216  0.3936  0.0928  0.0209
 5764TIP3    H117256   1.598   4.304   4.196  0.0455  0.1042 -0.2607
 5764TIP3    H217257   1.520   4.184   4.146 -2.7608  0.7794  2.1987
 5765TIP3   OH217258   2.537   4.584   2.722  0.4060 -0.6289  0.3002
 5765TIP3    H117259   2.576   4.619   2.641  0.2625 -0.7397  0.1825
 5765TIP3    H217260   2.573   4.495   2.729 -0.2630 -0.9427 -0.1150
 5766TIP3   OH217261   4.894   6.076   3.046 -0.1699 -0.2107  0.1506
 5766TIP3    H117262   4.882   6.159   3.094  1.0102 -1.1256  2.1535
 5766TIP3    H217263   4.874   6.008   3.110  1.1214 -1.5174 -0.7638
 5767TIP3   OH217264   4.472   0.688   0.403 -0.3060 -0.0655  0.0729
 5767TIP3    H117265   4.498   0.734   0.483  1.4405 -2.2555  0.8571
 5767TIP3    H217266   4.391   0.644   0.427  0.6225 -1.3510  0.9378
 5768TIP3   OH217267   1.595   4.250   5.159  0.1440 -0.2602 -0.5268
 5768TIP3    H117268   1.512   4.215   5.127 -0.4016  1.3180 -0.9240
 5768TIP3    H217269   1.572   4.302   5.236  0.7363  0.2820 -0.6987
 5769TIP3   OH217270   2.803   3.457   0.408  0.0974 -0.2036  0.0573
 5769TIP3    H117271   2.739   3.481   0.341  0.9438  0.7891 -0.4318
 5769TIP3    H217272   2.854   3.537   0.421  2.8406 -1.6000 -1.3615
 5770TIP3   OH217273   6.717   6.127   2.384 -0.3389  0.5026  0.6927
 5770TIP3    H117274   6.729   6.222   2.384 -0.9587  0.5960 -0.1912
 5770TIP3    H217275   6.787   6.093   2.440  1.6319  1.2736 -1.1712
 5771TIP3   OH217276   2.631   3.720   1.147 -0.8136  0.1802  0.4399
 5771TIP3    H117277   2.670   3.750   1.229 -0.1643 -0.8181  0.5070
 5771TIP3    H217278   2.676   3.771   1.079  1.7970 -1.9771  0.3820
 5772TIP3   OH217279   4.672   0.956   1.001 -0.2393  0.6361  0.4039
 5772TIP3    H117280   4.593   0.970   1.053  0.3385  0.9902  1.2083
 5772TIP3    H217281   4.640   0.917   0.919 -1.0500 -1.1723  1.5132
 5773TIP3   OH217282   1.361   1.014   2.782 -0.5426 -0.8747 -0.3928
 5773TIP3    H117283   1.288   1.076   2.772  0.8486  1.0996  0.8985
 5773TIP3    H217284   1.341   0.943   2.721 -3.6698 -0.5627  0.0998
 5774TIP3   OH217285   4.658   6.061   3.401 -0.5074 -0.0376 -1.1153
 5774TIP3    H117286   4.609   6.134   3.365  2.2770  1.8062 -1.5280
 5774TIP3    H217287   4.664   6.080   3.495 -1.9059 -1.1523 -0.7669
 5775TIP3   OH217288   6.278   6.326   4.831 -0.0500 -0.3183 -0.1281
 5775TIP3    H117289   6.237   6.292   4.911 -1.0511 -0.9894 -0.9036
 5775TIP3    H217290   6.365   6.288   4.831  0.1693  0.1576  0.9404
 5776TIP3   OH217291   1.733   6.794   3.492 -0.0419 -0.4022 -0.0423
 5776TIP3    H117292   1.653   6.785   3.440  0.2312  2.2932 -1.0660
 5776TIP3    H217293   1.803   6.805   3.427  0.6729  0.5592  0.8524
 5777TIP3   OH217294   3.903   2.516   3.211  0.9905 -0.0492 -0.2824
 5777TIP3    H117295   3.823   2.464   3.217  0.3394  1.1045  2.6540
 5777TIP3    H217296   3.955   2.490   3.288  1.6015  2.0488  0.0808
 5778TIP3   OH217297   3.360   4.948   2.541  0.4778 -0.0678  0.5275
 5778TIP3    H117298   3.328   4.861   2.517 -0.2671  0.2669  0.2653
 5778TIP3    H217299   3.443   4.957   2.494 -0.1165 -0.0984 -0.5632
 5779TIP3   OH217300   2.685   4.384   3.004  0.0274 -0.2423  0.5368
 5779TIP3    H117301   2.663   4.370   2.912 -1.0488 -0.5538  0.8212
 5779TIP3    H217302   2.730   4.304   3.031  2.2581  0.6734 -0.2344
 5780TIP3   OH217303   2.167   3.070   2.756  0.3334  0.0489  0.2289
 5780TIP3    H117304   2.205   3.100   2.673 -0.0444 -0.1821 -0.0340
 5780TIP3    H217305   2.242   3.050   2.811  0.6411 -1.7522 -0.7655
 5781TIP3   OH217306   5.543   2.395   4.966 -0.6133  0.6940  0.2068
 5781TIP3    H117307   5.457   2.358   4.983  0.2008 -0.8980  1.1573
 5781TIP3    H217308   5.556   2.460   5.036 -0.4321 -0.2203  1.0545
 5782TIP3   OH217309   2.731   5.209   2.561  0.0404  0.0892  0.2196
 5782TIP3    H117310   2.715   5.241   2.649 -0.3421  0.4719  0.0117
 5782TIP3    H217311   2.821   5.176   2.563  0.4467  1.1848  0.4313
 5783TIP3   OH217312   2.156   4.905   2.192 -0.6772  0.1596  0.1541
 5783TIP3    H117313   2.103   4.974   2.233 -0.2030  0.5965  0.0389
 5783TIP3    H217314   2.140   4.915   2.098  0.1923  0.7893  0.0613
 5784TIP3   OH217315   6.868   4.990   5.829 -0.4687  0.5081  0.1327
 5784TIP3    H117316   6.787   5.019   5.872 -0.2766  1.0334  0.1503
 5784TIP3    H217317   6.874   5.044   5.751 -0.1070  0.5068  0.1602
 5785TIP3   OH217318   0.441   3.512   5.047 -0.7876 -0.5668 -0.2448
 5785TIP3    H117319   0.354   3.552   5.056 -0.3360  0.7144 -1.2552
 5785TIP3    H217320   0.460   3.476   5.133 -1.5481  0.7563  0.5129
 5786TIP3   OH217321   3.988   6.595   2.785 -0.0963 -0.4934 -0.0397
 5786TIP3    H117322   3.939   6.514   2.769  1.7777 -1.8056  0.4281
 5786TIP3    H217323   4.001   6.597   2.880  1.2808 -0.5481 -0.2084
 5787TIP3   OH217324   1.871   2.218   2.411  0.4726  0.2699 -0.1250
 5787TIP3    H117325   1.961   2.233   2.439  0.6657  2.6197 -1.7176
 5787TIP3    H217326   1.833   2.305   2.403 -1.6863 -0.6174 -0.3596
 5788TIP3   OH217327   4.077   1.014   4.321 -0.0269 -0.7431 -0.6916
 5788TIP3    H117328   4.145   1.022   4.388 -0.6512 -1.0702 -0.0154
 5788TIP3    H217329   4.121   1.043   4.240  0.4985  0.4221 -0.0165
 5789TIP3   OH217330   4.537   4.928   2.764 -0.3335 -0.1830 -0.0446
 5789TIP3    H117331   4.628   4.956   2.775 -0.2984 -0.3174  0.0145
 5789TIP3    H217332   4.521   4.869   2.838 -0.2863 -0.6197 -0.3734
 5790TIP3   OH217333   1.700   4.330   2.272 -0.2196 -0.1086 -0.6533
 5790TIP3    H117334   1.652   4.413   2.270 -0.7587 -0.3621  0.7183
 5790TIP3    H217335   1.791   4.356   2.284  0.2288  0.4235 -4.2669
 5791TIP3   OH217336   5.821   1.802   1.933  0.7768  0.0354 -0.0516
 5791TIP3    H117337   5.911   1.783   1.906  0.5721  2.2070 -2.5979
 5791TIP3    H217338   5.770   1.729   1.897  1.5153 -2.0224  2.6535
 5792TIP3   OH217339   6.108   5.715   5.142  0.1322 -0.4644  0.0941
 5792TIP3    H117340   6.065   5.681   5.220  0.5508 -0.6962  0.2274
 5792TIP3    H217341   6.188   5.757   5.175 -0.2585  0.4412 -0.0911
 5793TIP3   OH217342   6.590   0.037   5.030  0.5855  0.1624  0.5655
 5793TIP3    H117343   6.577   0.131   5.041  1.1353  0.1915  1.0614
 5793TIP3    H217344   6.577   0.001   5.118  0.2314 -0.2466  0.3497
 5794TIP3   OH217345   3.485   5.025   1.939  0.0811  0.3911  0.1167
 5794TIP3    H117346   3.496   4.936   1.973 -0.1101  0.1362 -0.4679
 5794TIP3    H217347   3.450   5.012   1.851  0.3352  1.0430 -0.0839
 5795TIP3   OH217348   6.234   6.036   2.495  0.0677 -0.5109 -0.4101
 5795TIP3    H117349   6.297   6.101   2.528  0.2431 -0.8741 -0.0322
 5795TIP3    H217350   6.244   5.961   2.553 -1.4814 -0.1815  0.3132
 5796TIP3   OH217351   5.717   3.544   2.748 -0.1501 -0.4116  0.1980
 5796TIP3    H117352   5.629   3.518   2.777 -0.9744  0.5050 -1.3477
 5796TIP3    H217353   5.720   3.639   2.760  0.4023 -0.3546 -0.3340
 5797TIP3   OH217354   4.693   0.411   3.953  0.2893  0.2809  0.1095
 5797TIP3    H117355   4.644   0.337   3.919  0.0401  0.2666  0.4935
 5797TIP3    H217356   4.706   0.469   3.877  0.2830 -0.0430 -0.1383
 5798TIP3   OH217357   6.473   0.876   2.555  0.5271 -0.2985 -0.5925
 5798TIP3    H117358   6.404   0.889   2.620  1.2074 -0.4040  0.1704
 5798TIP3    H217359   6.476   0.959   2.507 -0.9915 -0.7410 -1.5009
 5799TIP3   OH217360   6.841   4.786   2.721 -0.1126 -0.1094  0.2970
 5799TIP3    H117361   6.909   4.825   2.666  0.0225 -0.5568  0.1406
 5799TIP3    H217362   6.788   4.860   2.751  0.5725  0.2748  0.5960
 5800TIP3   OH217363   0.059   2.232   4.107 -0.5119  0.0003 -0.1830
 5800TIP3    H117364   0.130   2.183   4.064 -0.4360 -0.6021  0.6031
 5800TIP3    H217365   0.093   2.320   4.118  0.7411 -0.6595  1.5870
 5801TIP3   OH217366   5.331   6.549   1.539  0.1271  0.3979 -0.3926
 5801TIP3    H117367   5.275   6.558   1.462 -0.7446 -1.5285 -0.0502
 5801TIP3    H217368   5.279   6.582   1.611 -0.1427 -0.3043 -0.2526
 5802TIP3   OH217369   1.763   6.354   4.409 -0.2393 -0.3010  0.2982
 5802TIP3    H117370   1.670   6.372   4.417 -0.3358  1.7313 -3.1853
 5802TIP3    H217371   1.806   6.430   4.449 -0.2138  0.2859 -0.8063
 5803TIP3   OH217372   3.978   4.580   3.142 -0.0868  0.0235  0.6508
 5803TIP3    H117373   4.031   4.642   3.193  0.2431 -1.1357  1.7693
 5803TIP3    H217374   4.006   4.494   3.174 -0.3577 -0.7189 -1.0458
 5804TIP3   OH217375   5.325   1.227   2.251  0.4044 -0.3129  0.2494
 5804TIP3    H117376   5.419   1.234   2.267  0.6662  0.9965 -1.5372
 5804TIP3    H217377   5.318   1.163   2.180  0.2655  1.7643 -1.7075
 5805TIP3   OH217378   4.505   6.384   4.266  0.0937  0.0153  0.0984
 5805TIP3    H117379   4.512   6.474   4.236  0.5905 -0.2280 -0.5558
 5805TIP3    H217380   4.500   6.390   4.361 -3.6836  0.9510 -0.0288
 5806TIP3   OH217381   5.873   1.254   5.776 -0.3882 -0.5168  0.4201
 5806TIP3    H117382   5.952   1.307   5.768 -0.9505  0.6961  2.2651
 5806TIP3    H217383   5.905   1.168   5.803  0.3106  0.0455  1.4549
 5807TIP3   OH217384   0.618   4.790   3.433  0.2317  0.1161 -0.6615
 5807TIP3    H117385   0.657   4.707   3.459 -0.7330 -0.5501 -1.3020
 5807TIP3    H217386   0.672   4.856   3.477  1.8382 -0.7779 -1.2198
 5808TIP3   OH217387   4.165   0.087   4.500 -0.5655 -0.3662  0.5905
 5808TIP3    H117388   4.158   0.129   4.415 -1.6536  0.3428  0.9960
 5808TIP3    H217389   4.142   0.157   4.563 -1.4809 -1.3071  1.3419
 5809TIP3   OH217390   3.259   3.540   3.631  0.2672 -0.5121  0.3547
 5809TIP3    H117391   3.190   3.601   3.604 -0.9657 -0.5120  3.2179
 5809TIP3    H217392   3.327   3.596   3.669  1.0701 -0.6628 -0.7989
 5810TIP3   OH217393   5.692   4.298   3.451  0.8108  0.2333 -0.5589
 5810TIP3    H117394   5.752   4.249   3.506  0.1140  1.2156  1.1395
 5810TIP3    H217395   5.675   4.379   3.499  0.4286  1.3007 -2.3764
 5811TIP3   OH217396   5.394   5.134   1.914  0.4920  0.2634 -0.5191
 5811TIP3    H117397   5.339   5.056   1.907  0.4953 -0.2874  3.3625
 5811TIP3    H217398   5.343   5.204   1.874 -2.2730 -0.6157  1.2422
 5812TIP3   OH217399   1.881   3.018   3.553  0.0071 -0.5193  0.2212
 5812TIP3    H117400   1.806   3.069   3.584 -0.3419 -1.6160  1.2220
 5812TIP3    H217401   1.957   3.069   3.580 -0.3361 -0.5412  1.2777
 5813TIP3   OH217402   4.886   2.189   3.790  0.5753 -0.0657 -0.5648
 5813TIP3    H117403   4.863   2.097   3.798  1.7557 -0.2578  1.2811
 5813TIP3    H217404   4.980   2.192   3.805  1.0683  1.1807 -3.3685
 5814TIP3   OH217405   1.852   0.317   5.242 -0.4203  0.1391 -0.6707
 5814TIP3    H117406   1.868   0.379   5.313 -0.1523 -0.9654  0.2686
 5814TIP3    H217407   1.763   0.336   5.213  0.4558  2.5886 -2.1117
 5815TIP3   OH217408   2.012   5.303   0.715 -0.3478  0.2704 -0.1354
 5815TIP3    H117409   2.033   5.393   0.739  0.2048  0.8097 -2.3938
 5815TIP3    H217410   1.932   5.283   0.765  0.5548  1.3050  1.8316
 5816TIP3   OH217411   2.426   3.944   1.982 -0.2303  0.3415  0.0110
 5816TIP3    H117412   2.423   4.036   1.954  0.1269 -0.2083 -1.9842
 5816TIP3    H217413   2.335   3.923   2.004 -0.3251  1.1378  0.4310
 5817TIP3   OH217414   2.451   2.854   2.231 -0.3679  0.5251 -0.2007
 5817TIP3    H117415   2.535   2.875   2.189  0.2313 -2.1056 -0.5024
 5817TIP3    H217416   2.404   2.937   2.235  1.4405  1.6990 -1.8723
 5818TIP3   OH217417   4.792   4.911   1.319 -0.2881 -1.0067  0.1671
 5818TIP3    H117418   4.708   4.940   1.282  0.5656  1.1725 -0.2156
 5818TIP3    H217419   4.856   4.930   1.252  0.8067 -0.5503  1.2992
 5819TIP3   OH217420   4.430   4.138   5.137  0.1205 -0.1899  0.1408
 5819TIP3    H117421   4.348   4.143   5.186  0.1348 -0.4477  0.1931
 5819TIP3    H217422   4.439   4.224   5.095  0.5291  0.3407  1.2660
 5820TIP3   OH217423   5.409   1.145   1.462  0.2382 -0.6477  0.0644
 5820TIP3    H117424   5.495   1.185   1.448 -0.3175  0.9890  1.0840
 5820TIP3    H217425   5.357   1.213   1.505 -1.6722 -1.4897 -0.7761
 5821TIP3   OH217426   1.962   0.740   4.575  0.0607 -0.1915  0.2627
 5821TIP3    H117427   1.931   0.672   4.635 -4.1270  0.9667 -0.2817
 5821TIP3    H217428   2.007   0.692   4.506 -1.3851 -2.3102  0.6863
 5822TIP3   OH217429   6.284   1.525   5.058 -0.2828 -0.4340 -0.1809
 5822TIP3    H117430   6.306   1.605   5.011 -0.3927  0.5869  1.4289
 5822TIP3    H217431   6.192   1.509   5.036 -1.2570  1.7022  1.8866
 5823TIP3   OH217432   5.556   2.762   3.334 -0.1924 -0.1772 -0.2176
 5823TIP3    H117433   5.552   2.734   3.425  0.6706 -0.7292 -0.3464
 5823TIP3    H217434   5.465   2.760   3.304 -0.4796  0.0100  0.6253
 5824TIP3   OH217435   4.965   4.071   2.663  0.7473 -0.3998 -0.2035
 5824TIP3    H117436   4.906   4.071   2.587  3.6531  0.6598 -2.6845
 5824TIP3    H217437   4.940   4.148   2.713 -0.6525 -0.6145 -0.5185
 5825TIP3   OH217438   6.266   5.829   4.255  0.4784  0.0713 -0.4857
 5825TIP3    H117439   6.337   5.803   4.315  1.4511  1.6174 -0.8999
 5825TIP3    H217440   6.254   5.752   4.199  3.4068  0.4327 -1.8343
 5826TIP3   OH217441   4.776   4.131   1.956 -0.1915  0.4732  0.2026
 5826TIP3    H117442   4.854   4.154   2.007  0.1393  0.1247 -0.1378
 5826TIP3    H217443   4.726   4.074   2.013  1.1629 -1.5969 -0.5510
 5827TIP3   OH217444   6.873   3.589   5.743 -0.3033 -0.2059 -0.6035
 5827TIP3    H117445   6.828   3.657   5.793 -1.3322 -1.3216  0.0339
 5827TIP3    H217446   6.966   3.612   5.752 -0.5132  0.1113  1.1162
 5828TIP3   OH217447   5.838   1.784   1.002 -0.5849  0.2225  0.2776
 5828TIP3    H117448   5.873   1.795   1.091  0.2821  2.1439 -0.2515
 5828TIP3    H217449   5.915   1.787   0.946 -1.0745 -1.5221 -0.5448
 5829TIP3   OH217450   3.358   4.774   4.214 -0.1132 -0.5684 -1.0596
 5829TIP3    H117451   3.390   4.691   4.249 -0.2257 -0.5467 -0.9021
 5829TIP3    H217452   3.330   4.754   4.125  3.7010  0.1222 -2.6358
 5830TIP3   OH217453   5.748   4.025   5.729  0.0335 -0.3656 -0.3665
 5830TIP3    H117454   5.830   4.074   5.725  0.1035 -0.5234 -0.9387
 5830TIP3    H217455   5.717   4.024   5.639 -0.5098 -0.4594 -0.1797
 5831TIP3   OH217456   5.909   5.577   0.234 -0.7139  0.3137  0.6020
 5831TIP3    H117457   5.977   5.556   0.298  1.0014  3.8287  0.1853
 5831TIP3    H217458   5.832   5.596   0.287  0.0403  0.9508  1.5235
 5832TIP3   OH217459   6.784   4.789   0.109  0.6127 -0.2202 -0.6317
 5832TIP3    H117460   6.711   4.733   0.136 -0.9665  0.9192 -2.3009
 5832TIP3    H217461   6.800   4.845   0.185  1.0302 -1.6648  0.4114
 5833TIP3   OH217462   3.435   1.189   2.640 -0.3797  0.1732  0.5355
 5833TIP3    H117463   3.514   1.194   2.586  0.5757 -0.9554  1.7334
 5833TIP3    H217464   3.436   1.099   2.675 -2.6722 -0.1768 -0.0816
 5834TIP3   OH217465   1.191   4.221   1.499  0.0862  0.1334  0.0213
 5834TIP3    H117466   1.142   4.242   1.420 -1.4652  1.1728  1.1912
 5834TIP3    H217467   1.254   4.155   1.472 -2.5887 -2.0372 -1.4285
 5835TIP3   OH217468   0.568   3.842   5.605 -0.0515  0.0966  0.1308
 5835TIP3    H117469   0.614   3.801   5.532  0.3262  0.3535  0.2292
 5835TIP3    H217470   0.581   3.936   5.593 -0.2191  0.1521  0.3769
 5836TIP3   OH217471   1.032   3.150   3.217 -0.2425  0.1954 -0.2969
 5836TIP3    H117472   0.996   3.078   3.268 -0.8002 -0.1441 -1.1427
 5836TIP3    H217473   0.968   3.164   3.147  1.1704 -0.3268 -1.7702
 5837TIP3   OH217474   4.329   0.594   2.262  0.2738  0.0249  0.3165
 5837TIP3    H117475   4.254   0.555   2.306 -1.5940 -0.2806 -2.8248
 5837TIP3    H217476   4.335   0.548   2.178  3.7243  0.3810  0.1932
 5838TIP3   OH217477   0.898   2.070   1.393  0.3376  0.0568  0.1881
 5838TIP3    H117478   0.802   2.071   1.385  0.3983 -0.7919 -0.7394
 5838TIP3    H217479   0.914   2.038   1.482 -0.2261 -1.3105 -0.1858
 5839TIP3   OH217480   0.045   3.818   2.514  0.2816 -0.4921 -0.1748
 5839TIP3    H117481   0.046   3.727   2.484 -1.6285 -0.6883  0.2030
 5839TIP3    H217482  -0.019   3.818   2.585 -1.4384  1.5254 -1.6022
 5840TIP3   OH217483   3.314   4.419   1.438 -0.2198  0.4647 -0.1600
 5840TIP3    H117484   3.344   4.390   1.352 -1.5970 -0.4405 -0.3485
 5840TIP3    H217485   3.307   4.514   1.430 -1.6114  0.2852 -1.4896
 5841TIP3   OH217486   4.219   6.336   2.943 -0.2762 -0.3522 -0.6277
 5841TIP3    H117487   4.270   6.349   3.024  1.6535 -0.1124 -1.8019
 5841TIP3    H217488   4.143   6.392   2.953  0.6991  0.8482  0.4082
 5842TIP3   OH217489   4.288   4.731   2.821 -0.2022  0.0747  0.0315
 5842TIP3    H117490   4.198   4.749   2.850  0.0113  0.5481  0.4139
 5842TIP3    H217491   4.342   4.793   2.871  0.5042 -1.2350  0.9733
 5843TIP3   OH217492   1.103   2.353   4.107  0.0409  0.0327  0.6927
 5843TIP3    H117493   1.107   2.403   4.188  0.0607 -1.4615  1.6596
 5843TIP3    H217494   1.016   2.313   4.107  0.5272 -1.0597  0.6627
 5844TIP3   OH217495   0.742   4.234   2.717  0.2992 -0.4815 -0.2742
 5844TIP3    H117496   0.712   4.158   2.767 -1.0679  0.3338  0.1867
 5844TIP3    H217497   0.811   4.272   2.771 -0.9686  0.2257  0.9010
 5845TIP3   OH217498   5.843   2.315   0.452 -0.0997  0.2840  0.2664
 5845TIP3    H117499   5.784   2.308   0.376 -1.7226  0.7479  1.4323
 5845TIP3    H217500   5.867   2.408   0.455 -0.4991  0.3766  0.6483
 5846TIP3   OH217501   3.391   1.384   3.530  0.5838  0.0016  0.2051
 5846TIP3    H117502   3.316   1.443   3.541  0.6177  0.0801  0.0148
 5846TIP3    H217503   3.381   1.320   3.600  1.2357  0.9481  1.1929
 5847TIP3   OH217504   5.285   0.190   2.031  0.2742 -0.0563 -0.1751
 5847TIP3    H117505   5.196   0.221   2.045  0.2312 -0.6342  0.8945
 5847TIP3    H217506   5.341   0.260   2.066  0.1821 -0.9130  1.8262
 5848TIP3   OH217507   1.626   0.201   5.879 -0.1851  0.1317 -0.7824
 5848TIP3    H117508   1.573   0.123   5.867 -1.6582  0.3950  2.7152
 5848TIP3    H217509   1.567   0.263   5.922  1.7761  2.0929 -0.7516
 5849TIP3   OH217510   0.533   3.363   4.845 -0.4367 -0.0279 -0.0287
 5849TIP3    H117511   0.492   3.400   4.923 -1.6876 -0.3767 -0.4868
 5849TIP3    H217512   0.500   3.416   4.772 -1.3660 -1.2888 -0.5705
 5850TIP3   OH217513   4.988   4.824   2.956  0.0809 -0.4815 -0.1745
 5850TIP3    H117514   4.920   4.771   2.998 -1.7520 -1.2057 -3.6548
 5850TIP3    H217515   5.041   4.857   3.028 -2.4124 -2.0101  2.5728
 5851TIP3   OH217516   4.195   2.016   4.346 -0.3731 -0.2864  0.1771
 5851TIP3    H117517   4.111   1.970   4.340 -0.6460  0.2145  0.0831
 5851TIP3    H217518   4.213   2.043   4.256  0.2641 -1.0340  0.0623
 5852TIP3   OH217519   4.941   1.817   0.485 -0.7749 -0.2836  0.1592
 5852TIP3    H117520   4.930   1.725   0.459 -0.5482 -0.2693  0.0015
 5852TIP3    H217521   4.941   1.865   0.402 -0.4649 -0.1897  0.2120
 5853TIP3   OH217522   1.683   6.121   2.151  0.1860  0.1404 -1.0883
 5853TIP3    H117523   1.614   6.184   2.172 -0.0755 -0.4877  0.0453
 5853TIP3    H217524   1.765   6.169   2.162  0.0413  0.0397  0.8685
 5854TIP3   OH217525   2.539   4.463   4.211 -0.3259  0.6823  0.0414
 5854TIP3    H117526   2.447   4.462   4.187 -0.3322  0.9336  0.0484
 5854TIP3    H217527   2.572   4.378   4.184 -0.9459 -0.0853  1.5657
 5855TIP3   OH217528   3.024   1.163   5.705 -0.9216  0.3392  0.2183
 5855TIP3    H117529   3.011   1.254   5.729 -0.7572  0.1799  0.9510
 5855TIP3    H217530   3.118   1.148   5.717 -0.5914  0.5718 -1.7431
 5856TIP3   OH217531   1.977   5.011   3.030  0.3201  0.0385  0.0094
 5856TIP3    H117532   1.972   4.933   3.085 -0.0080 -1.0452 -1.4842
 5856TIP3    H217533   1.888   5.047   3.031  0.1788 -0.3000 -0.2549
 5857TIP3   OH217534   2.064   4.870   2.653  0.2759 -0.1087  0.2906
 5857TIP3    H117535   2.099   4.904   2.735 -0.7899  0.1728  0.6426
 5857TIP3    H217536   2.067   4.775   2.663 -1.1185 -0.0835  1.2374
 5858TIP3   OH217537   6.943   0.347   0.928  0.1738  0.2391 -0.8114
 5858TIP3    H117538   6.888   0.302   0.864  1.4045 -0.3292 -1.5191
 5858TIP3    H217539   7.002   0.401   0.875  2.2544 -1.4125 -0.2931
 5859TIP3   OH217540   4.784   1.020   4.623  0.0257  0.1315  0.5462
 5859TIP3    H117541   4.728   0.977   4.558  2.5525 -0.0900 -1.6958
 5859TIP3    H217542   4.831   1.087   4.573  2.0969 -0.0486  2.1146
 5860TIP3   OH217543   1.711   1.121   1.378  0.2185  0.1736  0.3517
 5860TIP3    H117544   1.724   1.030   1.352  0.4639 -0.2235  1.7716
 5860TIP3    H217545   1.784   1.140   1.436 -0.5656  0.8356  1.1599
 5861TIP3   OH217546   2.313   2.076   3.682 -0.0044  0.1142  0.1856
 5861TIP3    H117547   2.242   2.043   3.737  1.5281  0.2061  2.3013
 5861TIP3    H217548   2.387   2.019   3.700  1.4343  2.0107  0.5916
 5862TIP3   OH217549   6.000   2.304   4.383 -0.2290 -0.0806 -0.1970
 5862TIP3    H117550   6.051   2.366   4.331  0.3388  0.0187  0.4597
 5862TIP3    H217551   5.964   2.357   4.454 -1.2219 -0.1588 -0.6267
 5863TIP3   OH217552   2.508   6.386   1.752 -0.0473 -0.2061  1.0522
 5863TIP3    H117553   2.558   6.339   1.685 -1.3992 -2.5333  1.5539
 5863TIP3    H217554   2.550   6.360   1.835 -2.1903 -2.5876  1.5219
 5864TIP3   OH217555   2.536   2.294   1.099  0.0206  0.2188 -0.5438
 5864TIP3    H117556   2.442   2.305   1.085  0.3457  0.0083 -3.4934
 5864TIP3    H217557   2.576   2.349   1.031  2.1259  2.1075  2.0295
 5865TIP3   OH217558   6.341   4.850   1.129 -0.4650  0.8416  0.0321
 5865TIP3    H117559   6.389   4.770   1.149  1.1772  1.7558  0.0180
 5865TIP3    H217560   6.314   4.884   1.214  2.3697  2.2800  0.4891
 5866TIP3   OH217561   4.430   6.264   2.118  0.1341  0.1416  0.3448
 5866TIP3    H117562   4.358   6.204   2.100  0.9573 -1.7948  2.8543
 5866TIP3    H217563   4.451   6.250   2.211  3.5518  0.8019 -0.1755
 5867TIP3   OH217564   2.065   3.886   1.068 -0.1402 -0.0458 -0.2364
 5867TIP3    H117565   2.084   3.890   0.974 -0.2695 -0.7105 -0.2986
 5867TIP3    H217566   1.972   3.865   1.073 -0.4609  1.3927  0.0608
 5868TIP3   OH217567   1.449   5.124   0.912  0.5206 -0.1815 -0.4470
 5868TIP3    H117568   1.453   5.039   0.867 -1.4216 -1.5826  1.7898
 5868TIP3    H217569   1.360   5.155   0.894  0.0852 -0.2552  1.4429
 5869TIP3   OH217570   3.240   1.600   3.565  0.2405  0.2344 -0.0805
 5869TIP3    H117571   3.185   1.640   3.498 -0.0850  0.9511  0.5967
 5869TIP3    H217572   3.262   1.672   3.624  2.7383  0.2095 -0.8586
 5870TIP3   OH217573   2.251   5.615   4.468  0.3198  0.1755 -0.4889
 5870TIP3    H117574   2.313   5.620   4.540  0.0996 -0.9186 -0.2064
 5870TIP3    H217575   2.171   5.579   4.507  0.6273 -1.7476 -1.5079
 5871TIP3   OH217576   4.186   0.015   4.107 -0.1004  0.5751  0.1971
 5871TIP3    H117577   4.163   0.021   4.015  0.8476 -1.3436 -0.2154
 5871TIP3    H217578   4.177   0.105   4.140 -2.3006  0.9710 -1.2656
 5872TIP3   OH217579   2.714   0.843   5.877  0.4014 -0.0452  1.0045
 5872TIP3    H117580   2.670   0.847   5.792 -0.3994 -0.4772  1.3837
 5872TIP3    H217581   2.716   0.934   5.907 -1.3939 -0.1277  1.5261
 5873TIP3   OH217582   3.197   0.428   2.541  0.2675  0.3030 -0.4702
 5873TIP3    H117583   3.117   0.480   2.548 -1.6529 -2.0653 -2.9011
 5873TIP3    H217584   3.248   0.473   2.473  0.7564  1.4531  0.6227
 5874TIP3   OH217585   4.415   5.650   0.505  0.6401  0.6159 -0.3059
 5874TIP3    H117586   4.495   5.702   0.494  0.5036  1.0866  0.7623
 5874TIP3    H217587   4.412   5.631   0.599  0.3774 -0.8435 -0.5801
 5875TIP3   OH217588   3.162   6.475   2.261 -1.1698  0.3290  1.2215
 5875TIP3    H117589   3.235   6.537   2.258 -1.5321  0.7185 -0.4378
 5875TIP3    H217590   3.190   6.409   2.324  0.1523  1.0257  1.4151
 5876TIP3   OH217591   1.228   0.725   4.477  0.3116 -0.4183  0.4900
 5876TIP3    H117592   1.268   0.809   4.457 -2.2534  0.5368 -1.0962
 5876TIP3    H217593   1.168   0.744   4.549  0.7123 -1.2280  1.0546
 5877TIP3   OH217594   2.115   4.712   4.589  0.1000 -0.7177 -0.6547
 5877TIP3    H117595   2.112   4.650   4.516 -0.2045  1.2635 -2.4179
 5877TIP3    H217596   2.188   4.770   4.567 -0.5517  0.4374  0.1844
 5878TIP3   OH217597   5.116   5.939   4.781 -0.1325 -0.0577 -0.4236
 5878TIP3    H117598   5.137   5.960   4.690  0.5477 -1.5967 -0.6458
 5878TIP3    H217599   5.020   5.931   4.782 -0.0892 -0.7932 -1.1900
 5879TIP3   OH217600   3.023   3.779   2.271  0.1143 -0.0152 -0.5623
 5879TIP3    H117601   2.958   3.844   2.299  1.6887  0.6968  1.6709
 5879TIP3    H217602   3.091   3.832   2.229 -0.4366 -0.7126 -2.4510
 5880TIP3   OH217603   0.578   5.253   0.201  0.1064  0.0440 -0.2677
 5880TIP3    H117604   0.630   5.315   0.150  0.0467  0.2410 -0.0941
 5880TIP3    H217605   0.559   5.300   0.282 -1.1306  0.3397 -0.7048
 5881TIP3   OH217606   0.697   5.980   5.486 -0.2393 -0.0684  0.3047
 5881TIP3    H117607   0.626   6.033   5.522 -0.2056  0.0514  0.1924
 5881TIP3    H217608   0.776   6.033   5.500  0.3010 -1.4239  3.1957
 5882TIP3   OH217609   3.008   0.704   3.279 -0.1377  0.1508  0.9903
 5882TIP3    H117610   3.076   0.771   3.283 -1.1939  1.3409 -0.2954
 5882TIP3    H217611   3.045   0.629   3.326  2.3954  0.4391 -0.4168
 5883TIP3   OH217612   0.372   2.887   4.940 -0.6310  0.2346  0.4226
 5883TIP3    H117613   0.377   2.948   4.866 -2.2186 -0.5706 -0.3924
 5883TIP3    H217614   0.345   2.804   4.901  1.0815 -0.9391  1.5652
 5884TIP3   OH217615   0.315   0.179   4.258 -0.0563 -0.0834 -0.1496
 5884TIP3    H117616   0.304   0.087   4.280  1.8938 -0.3240  0.0735
 5884TIP3    H217617   0.405   0.199   4.284 -0.1133  1.6347 -1.0775
 5885TIP3   OH217618   2.839   3.177   3.294  0.0551  0.7158 -0.3920
 5885TIP3    H117619   2.926   3.219   3.292  0.4388  0.0009  0.5744
 5885TIP3    H217620   2.833   3.131   3.211  0.0361  1.8610 -1.0493
 5886TIP3   OH217621   4.460   5.974   1.933  0.2854 -0.3395  0.1554
 5886TIP3    H117622   4.447   5.933   2.019 -1.6234 -0.2149 -0.0271
 5886TIP3    H217623   4.388   5.941   1.880  0.3134  1.0925 -0.8262
 5887TIP3   OH217624   5.139   1.201   4.518  0.4821  0.1820  0.3218
 5887TIP3    H117625   5.145   1.109   4.546  2.9151 -0.7982 -2.7920
 5887TIP3    H217626   5.229   1.230   4.512 -0.0867  1.7963 -1.5627
 5888TIP3   OH217627   6.035   5.731   4.700  0.6462  0.0044  0.1216
 5888TIP3    H117628   6.117   5.683   4.701  1.6133  1.4935 -1.3686
 5888TIP3    H217629   6.061   5.823   4.712 -0.5070  0.7618 -2.3732
 5889TIP3   OH217630   1.618   1.764   5.052 -0.5415  0.1778 -0.0598
 5889TIP3    H117631   1.578   1.776   5.138 -0.3603 -0.4216  0.1121
 5889TIP3    H217632   1.662   1.679   5.057  1.2002  1.0210 -0.0569
 5890TIP3   OH217633   1.214   2.970   3.025  0.0390 -0.5901 -0.5446
 5890TIP3    H117634   1.239   2.976   2.933  1.0542 -2.3687 -0.4246
 5890TIP3    H217635   1.229   3.058   3.059  1.2748 -0.3166 -1.6980
 5891TIP3   OH217636   1.281   4.661   0.618  0.4688 -0.4866  0.0965
 5891TIP3    H117637   1.318   4.682   0.532  1.5937 -1.4714  0.3221
 5891TIP3    H217638   1.202   4.714   0.623  1.1923  0.7519 -0.9145
 5892TIP3   OH217639   5.952   5.287   2.031  0.0105  0.4128  0.2989
 5892TIP3    H117640   5.894   5.316   1.960  0.3409  0.8377  0.2027
 5892TIP3    H217641   5.995   5.367   2.062  0.4434  0.1200  0.4625
 5893TIP3   OH217642   5.960   1.765   5.834  0.1829 -0.1728  0.0200
 5893TIP3    H117643   5.915   1.688   5.799  0.0772 -0.1586  0.1222
 5893TIP3    H217644   5.897   1.803   5.896 -0.2781  0.7509 -0.9922
 5894TIP3   OH217645   2.807   0.817   3.749  0.1188 -0.1261 -0.3223
 5894TIP3    H117646   2.864   0.856   3.683  0.3089 -2.8310 -1.9053
 5894TIP3    H217647   2.764   0.744   3.704  0.5593 -2.3860  2.5718
 5895TIP3   OH217648   5.667   2.209   3.904 -0.2459 -0.0899 -0.1770
 5895TIP3    H117649   5.761   2.194   3.917 -0.1602  0.6619  0.1096
 5895TIP3    H217650   5.647   2.286   3.956 -1.0281 -0.2285 -0.2519
 5896TIP3   OH217651   3.687   2.066   2.978 -0.9704 -0.5706 -0.1308
 5896TIP3    H117652   3.638   2.011   2.917 -2.3220  0.4416 -0.0207
 5896TIP3    H217653   3.658   2.155   2.957  1.7587  0.2300 -0.8591
 5897TIP3   OH217654   7.192   6.355   2.569 -1.2678 -0.4890 -0.2923
 5897TIP3    H117655   7.177   6.284   2.507 -1.3124 -1.4281  0.7630
 5897TIP3    H217656   7.257   6.320   2.631  0.3508  1.1470 -0.9630
 5898TIP3   OH217657   2.685   4.955   4.590 -0.4254  0.3422 -0.6062
 5898TIP3    H117658   2.651   4.880   4.542 -0.6074 -0.5665  0.8877
 5898TIP3    H217659   2.779   4.955   4.573 -0.3858 -0.3856 -0.3930
 5899TIP3   OH217660   2.515   5.197   0.307 -0.0252  0.0170 -0.5412
 5899TIP3    H117661   2.532   5.178   0.215 -0.1777  0.4785 -0.6631
 5899TIP3    H217662   2.552   5.284   0.322 -0.2161  0.0492 -0.2265
 5900TIP3   OH217663   1.651   2.095   3.730 -0.3859  0.5498  0.0558
 5900TIP3    H117664   1.595   2.087   3.653 -2.7406  0.9395  1.6283
 5900TIP3    H217665   1.595   2.133   3.797  1.4331 -0.2204  2.1389
 5901TIP3   OH217666   3.650   4.936   5.146  0.8627  0.5135 -0.0366
 5901TIP3    H117667   3.689   4.935   5.233  1.8005 -1.5088 -0.4297
 5901TIP3    H217668   3.687   5.014   5.104  0.5996  1.3649  1.2495
 5902TIP3   OH217669   6.946   2.088   3.837 -0.6553  0.9181 -0.8167
 5902TIP3    H117670   6.946   2.163   3.898 -2.3676  0.8615 -0.7003
 5902TIP3    H217671   6.892   2.023   3.880 -0.4781  0.2089 -1.6554
 5903TIP3   OH217672   1.759   1.928   1.023 -0.1485 -0.5979  0.4810
 5903TIP3    H117673   1.815   1.985   0.969 -0.2474 -1.9774 -1.1570
 5903TIP3    H217674   1.670   1.956   1.001 -0.1779 -0.8968  0.2107
 5904TIP3   OH217675   6.443   5.601   5.512  0.4533 -0.2609 -0.1944
 5904TIP3    H117676   6.371   5.665   5.511  0.2799 -0.4457  0.2311
 5904TIP3    H217677   6.399   5.516   5.514  0.6858 -0.3990 -0.7505
 5905TIP3   OH217678   5.800   3.014   0.971 -0.8047  0.0071 -0.2662
 5905TIP3    H117679   5.832   3.063   1.046 -1.4865  0.5536 -0.3270
 5905TIP3    H217680   5.853   2.934   0.970 -0.6364  0.1041  0.6481
 5906TIP3   OH217681   4.860   3.641   5.674 -0.6055 -0.0472  0.0947
 5906TIP3    H117682   4.885   3.550   5.662 -0.6798 -0.1831  0.8864
 5906TIP3    H217683   4.776   3.637   5.721  0.0807  0.4245  1.4147
 5907TIP3   OH217684   6.604   0.483   1.712 -0.4346  0.2479 -0.0036
 5907TIP3    H117685   6.644   0.569   1.723  0.6769 -0.2095 -0.3101
 5907TIP3    H217686   6.536   0.479   1.779 -1.2905  1.7902 -0.7156
 5908TIP3   OH217687   6.483   3.593   3.716  0.0498 -0.0420 -0.1090
 5908TIP3    H117688   6.483   3.506   3.755  0.9775 -1.0191 -2.1244
 5908TIP3    H217689   6.404   3.595   3.662 -0.1378  0.4948  0.1805
 5909TIP3   OH217690   0.441   5.309   4.738 -0.3032 -0.5923 -0.3431
 5909TIP3    H117691   0.416   5.279   4.651  1.8661 -0.0692 -1.1971
 5909TIP3    H217692   0.533   5.284   4.747  0.2331  1.5992  0.7814
 5910TIP3   OH217693   6.025   4.120   4.568  0.3496  0.9486 -0.2145
 5910TIP3    H117694   6.039   4.102   4.661 -0.8690 -0.9073 -0.3351
 5910TIP3    H217695   5.932   4.142   4.561  1.1039  4.6805 -0.5634
 5911TIP3   OH217696   4.143   5.927   5.529  0.2050 -0.9132  0.5134
 5911TIP3    H117697   4.151   6.019   5.505  1.6208 -0.6389  1.9156
 5911TIP3    H217698   4.208   5.914   5.598 -0.5186 -2.7778  0.8988
 5912TIP3   OH217699   2.147   2.965   0.241 -0.0518 -0.0516  0.0290
 5912TIP3    H117700   2.213   3.033   0.253 -0.6013  0.6165 -0.6411
 5912TIP3    H217701   2.152   2.941   0.148 -1.0653  0.3549 -0.1426
 5913TIP3   OH217702   0.739   0.217   2.180  0.0809 -0.0975 -0.3739
 5913TIP3    H117703   0.821   0.169   2.168  0.4267  0.4441 -0.2223
 5913TIP3    H217704   0.700   0.219   2.092 -1.5063 -3.3416  0.1238
 5914TIP3   OH217705   5.852   3.709   0.458 -0.5107  0.5577  0.1641
 5914TIP3    H117706   5.853   3.803   0.479 -0.0778  1.0601 -1.9226
 5914TIP3    H217707   5.944   3.684   0.456 -0.6423 -0.0886  1.2876
 5915TIP3   OH217708   5.973   1.902   5.151  0.2396  0.3480 -0.2337
 5915TIP3    H117709   6.000   1.894   5.059  0.8868  0.1326 -0.0284
 5915TIP3    H217710   6.044   1.951   5.193  0.8908 -1.1917  0.5506
 5916TIP3   OH217711   2.951   4.852   3.528 -0.2302 -0.3622 -0.3011
 5916TIP3    H117712   3.000   4.915   3.477  0.4119 -0.0511  0.6690
 5916TIP3    H217713   2.859   4.879   3.520  0.0396  0.6848  0.1013
 5917TIP3   OH217714   6.915   0.925   2.486  0.2674 -0.7699  0.1465
 5917TIP3    H117715   6.973   0.899   2.415  0.1850  0.9659 -0.5853
 5917TIP3    H217716   6.968   0.915   2.565  1.4276  0.3359 -0.4684
 5918TIP3   OH217717   5.812   2.876   3.016 -0.1202 -0.1421 -0.0118
 5918TIP3    H117718   5.906   2.890   3.030  0.1577 -1.5029 -0.3433
 5918TIP3    H217719   5.790   2.933   2.943  0.2185  0.9217  0.6917
 5919TIP3   OH217720   1.886   2.175   3.844 -0.1910  0.1475  0.3748
 5919TIP3    H117721   1.801   2.169   3.802  0.1051 -0.2824 -0.1739
 5919TIP3    H217722   1.899   2.091   3.888  0.2630 -0.0662 -0.1577
 5920TIP3   OH217723   2.847   1.563   3.232 -0.0731  0.0575  0.0049
 5920TIP3    H117724   2.755   1.538   3.242 -0.1663  0.9950  1.6362
 5920TIP3    H217725   2.844   1.651   3.194  0.0413  1.2206  2.5237
 5921TIP3   OH217726   6.083   2.798   5.726  0.2671 -0.4469  0.3189
 5921TIP3    H117727   5.989   2.779   5.729  0.2337 -0.2245  0.9187
 5921TIP3    H217728   6.092   2.882   5.773  0.7694 -0.4917  0.3118
 5922TIP3   OH217729   1.972   5.529   3.752 -0.3387  0.1958  0.6164
 5922TIP3    H117730   2.012   5.470   3.816 -0.0465 -2.0345 -1.4472
 5922TIP3    H217731   1.964   5.613   3.797  1.0096 -0.9136  3.0999
 5923TIP3   OH217732   2.409   5.328   0.627 -0.0554 -0.1450  0.2261
 5923TIP3    H117733   2.338   5.392   0.628  0.1775  0.1347 -0.4645
 5923TIP3    H217734   2.451   5.339   0.712 -1.0071 -0.5173  0.7552
 5924TIP3   OH217735   0.766   0.661   2.020  0.5658  0.0901 -0.3361
 5924TIP3    H117736   0.812   0.722   1.962  0.2059  0.4438 -0.2615
 5924TIP3    H217737   0.732   0.717   2.091 -0.2571 -0.1000 -0.5659
 5925TIP3   OH217738   1.372   0.312   4.347  0.0991  0.2924 -0.5503
 5925TIP3    H117739   1.401   0.299   4.257  0.7661 -1.8222 -0.0855
 5925TIP3    H217740   1.408   0.238   4.395  0.9798  2.0942  1.7764
 5926TIP3   OH217741   1.871   5.316   1.502  0.2499  0.3999 -0.1688
 5926TIP3    H117742   1.823   5.312   1.585  0.3329  2.1073  0.0017
 5926TIP3    H217743   1.830   5.250   1.447  1.1391 -1.8341  1.6919
 5927TIP3   OH217744   4.705   3.004   1.298 -0.5823  0.4031 -0.7951
 5927TIP3    H117745   4.701   2.909   1.298  0.4698  0.3349 -1.6791
 5927TIP3    H217746   4.742   3.027   1.383  2.0292 -0.1834 -1.6849
 5928TIP3   OH217747   4.758   1.232   1.133 -0.5089 -0.2109  0.2054
 5928TIP3    H117748   4.670   1.196   1.123 -1.8340  1.4752  3.9795
 5928TIP3    H217749   4.805   1.166   1.184  0.2134 -0.7364 -1.0949
 5929TIP3   OH217750   0.810   4.839   1.507 -0.5988 -0.2396 -0.2509
 5929TIP3    H117751   0.791   4.747   1.493  0.5041 -0.4265 -0.5802
 5929TIP3    H217752   0.887   4.857   1.454  0.0693  0.5190  0.9102
 5930TIP3   OH217753   3.096   4.506   0.021 -0.5090  0.1515  0.0983
 5930TIP3    H117754   3.013   4.532  -0.018 -1.6465  0.5951  2.6282
 5930TIP3    H217755   3.087   4.412   0.036 -0.6943  0.2503  0.6351
 5931TIP3   OH217756   2.120   3.688   4.087  0.6013 -0.2360  0.0575
 5931TIP3    H117757   2.160   3.636   4.018  0.7632 -0.4261  0.2928
 5931TIP3    H217758   2.191   3.744   4.120  0.3677  0.3254 -0.3672
 5932TIP3   OH217759   6.020   2.267   3.587 -0.4812 -0.5065 -0.0733
 5932TIP3    H117760   5.973   2.199   3.636 -0.2947 -0.7769 -0.2702
 5932TIP3    H217761   6.112   2.253   3.609 -0.4653 -0.1492  0.0948
 5933TIP3   OH217762   6.894   5.034   1.178  0.5147  0.3545 -0.5503
 5933TIP3    H117763   6.919   4.995   1.262 -0.0234  0.2097 -0.4567
 5933TIP3    H217764   6.834   4.971   1.139  0.0751  0.8251 -0.6488
 5934TIP3   OH217765   6.681   4.862   4.469 -0.1130 -0.4332 -0.4221
 5934TIP3    H117766   6.729   4.865   4.387 -1.2036  1.3207 -1.0416
 5934TIP3    H217767   6.740   4.817   4.530  0.6749 -1.8385 -2.1530
 5935TIP3   OH217768   3.147   2.965   4.663 -0.2483  0.0122 -0.1394
 5935TIP3    H117769   3.053   2.948   4.669 -0.4553  0.9820 -0.5085
 5935TIP3    H217770   3.187   2.879   4.655 -0.9784 -0.5446  1.6048
 5936TIP3   OH217771   0.509   3.949   3.593  0.7851 -0.3562  0.1107
 5936TIP3    H117772   0.581   3.930   3.653  1.7123  0.0116 -0.8506
 5936TIP3    H217773   0.533   3.906   3.512 -0.5264 -0.9685  0.0248
 5937TIP3   OH217774   6.809   1.082   5.066  0.1593  0.0580  0.1418
 5937TIP3    H117775   6.870   1.044   5.003 -0.1386 -0.8122  0.3603
 5937TIP3    H217776   6.779   1.163   5.025 -0.2396 -0.6382 -0.9640
 5938TIP3   OH217777   2.652   3.218   4.940 -0.3802 -0.0342 -0.3648
 5938TIP3    H117778   2.716   3.149   4.924  0.7388  1.0224 -0.5498
 5938TIP3    H217779   2.631   3.251   4.852 -0.0632  0.6084 -0.2015
 5939TIP3   OH217780   5.103   3.694   3.466  0.4356 -0.3086  0.2769
 5939TIP3    H117781   5.013   3.713   3.440  0.9009 -0.5654 -1.6860
 5939TIP3    H217782   5.120   3.754   3.538 -0.7530  0.9742 -0.4476
 5940TIP3   OH217783   5.369   5.287   4.527  0.3513 -0.4096 -0.2121
 5940TIP3    H117784   5.357   5.267   4.619 -0.9628  0.8934 -0.0547
 5940TIP3    H217785   5.453   5.247   4.504  1.1494  0.0298  1.7618
 5941TIP3   OH217786   4.232   0.964   0.132 -0.1118  0.5312  0.1830
 5941TIP3    H117787   4.207   1.030   0.067 -0.4994  0.8287  0.6238
 5941TIP3    H217788   4.324   0.947   0.114 -0.8071 -1.2843 -2.0792
 5942TIP3   OH217789   4.206   5.773   4.953  1.0070 -0.5370  0.1948
 5942TIP3    H117790   4.263   5.776   5.029  0.6067 -0.0223  0.4852
 5942TIP3    H217791   4.118   5.783   4.988  0.8942  0.9248 -0.4194
 5943TIP3   OH217792   0.573   6.725   3.631  0.3820  0.0351  0.0566
 5943TIP3    H117793   0.657   6.693   3.664 -0.0430 -2.9502 -1.3984
 5943TIP3    H217794   0.530   6.763   3.707  2.3930  0.2209  1.1733
 5944TIP3   OH217795   2.055   2.917   5.074 -0.0097 -0.1267  0.0908
 5944TIP3    H117796   2.046   2.983   5.006 -0.4339  0.6363  0.8678
 5944TIP3    H217797   2.041   2.833   5.029  1.7275  0.1830 -1.1515
 5945TIP3   OH217798   5.712   3.629   5.152 -0.3821 -0.2059  0.1955
 5945TIP3    H117799   5.720   3.711   5.103 -1.2384 -1.1828 -1.6424
 5945TIP3    H217800   5.619   3.608   5.150 -0.4199 -0.4090  2.0904
 5946TIP3   OH217801   3.535   3.533   3.340  0.2339  0.3820  0.3383
 5946TIP3    H117802   3.578   3.618   3.330 -0.6570  0.7909 -0.0904
 5946TIP3    H217803   3.458   3.551   3.394  0.5310 -0.3318  1.0329
 5947TIP3   OH217804   6.339   3.772   5.535  0.2911  0.2419 -0.2485
 5947TIP3    H117805   6.281   3.843   5.508 -0.9342 -1.1261 -1.4270
 5947TIP3    H217806   6.422   3.791   5.492 -0.0206  0.9456 -0.5579
 5948TIP3   OH217807   2.655   1.106   1.476 -0.3791  0.4279 -0.3173
 5948TIP3    H117808   2.669   1.068   1.563  4.5142  0.5003 -0.8345
 5948TIP3    H217809   2.580   1.057   1.441 -0.4494 -1.8920  2.6837
 5949TIP3   OH217810   4.710   5.407   3.366  0.5317  0.0591  0.0118
 5949TIP3    H117811   4.690   5.490   3.409 -2.2737 -0.3783 -0.2445
 5949TIP3    H217812   4.683   5.340   3.429 -0.8026 -0.5997 -1.1888
 5950TIP3   OH217813   5.415   6.006   5.333  0.6328 -0.0037 -0.2142
 5950TIP3    H117814   5.375   5.925   5.303  0.0098  0.5923 -1.0320
 5950TIP3    H217815   5.440   5.989   5.424  0.4630 -1.0870 -0.3644
 5951TIP3   OH217816   1.330   3.114   1.241 -0.0274  0.6180 -0.2340
 5951TIP3    H117817   1.336   3.019   1.229  0.1225  0.5548  0.3094
 5951TIP3    H217818   1.266   3.142   1.176 -1.2729 -0.0777  0.6437
 5952TIP3   OH217819   1.048   5.800   5.725  0.5528  0.2196  0.3512
 5952TIP3    H117820   1.078   5.804   5.634  0.2949 -0.0463  0.2562
 5952TIP3    H217821   1.069   5.887   5.760  0.8917  0.2372  0.1158
 5953TIP3   OH217822   6.865   3.086   0.821 -0.0952 -0.5035 -0.0424
 5953TIP3    H117823   6.849   3.026   0.894 -0.7200 -2.1183 -1.4524
 5953TIP3    H217824   6.778   3.110   0.790  0.1450 -1.1554 -1.2847
 5954TIP3   OH217825   3.598   0.156   4.544 -0.0200 -0.0194 -0.3479
 5954TIP3    H117826   3.647   0.102   4.482  0.6643  0.3392 -0.1353
 5954TIP3    H217827   3.656   0.229   4.562 -0.9160  0.7730 -0.5961
 5955TIP3   OH217828   0.309   2.113   4.026  0.0027  0.3308  0.0852
 5955TIP3    H117829   0.364   2.046   3.984  0.3734 -0.6571  2.0149
 5955TIP3    H217830   0.369   2.162   4.081 -0.7132  0.5698  0.6667
 5956TIP3   OH217831   1.406   3.804   0.492 -0.2725  0.0666  0.2707
 5956TIP3    H117832   1.492   3.818   0.452 -0.2728 -1.8644 -0.5380
 5956TIP3    H217833   1.369   3.892   0.501  2.0814  1.0248  1.4070
 5957TIP3   OH217834   2.862   6.277   5.247  0.0332 -0.1552  0.1389
 5957TIP3    H117835   2.906   6.262   5.163  0.1018 -0.8779  0.2950
 5957TIP3    H217836   2.930   6.259   5.312 -0.1436 -0.0282  0.3582
 5958TIP3   OH217837   0.640   2.285   4.441 -0.2604  0.2326 -0.1605
 5958TIP3    H117838   0.591   2.213   4.479  1.1353 -1.1612 -0.8821
 5958TIP3    H217839   0.647   2.349   4.512 -0.8144 -0.7076  0.7685
 5959TIP3   OH217840   4.361   2.274   3.038  0.5564 -0.3069  0.0957
 5959TIP3    H117841   4.383   2.358   2.999 -0.3992 -0.2221 -0.2850
 5959TIP3    H217842   4.445   2.231   3.052  1.0174  0.4659 -0.2547
 5960TIP3   OH217843   2.497   1.103   5.847  0.2607  0.3545  0.5889
 5960TIP3    H117844   2.575   1.151   5.819 -0.4158  1.2029  0.0826
 5960TIP3    H217845   2.424   1.164   5.830 -0.7520 -1.2271 -1.1323
 5961TIP3   OH217846   1.108   5.047   2.423  0.3770 -0.1101  0.0101
 5961TIP3    H117847   1.037   5.042   2.487 -0.0512 -0.3345 -0.4851
 5961TIP3    H217848   1.074   5.101   2.353  0.0497 -1.6266 -1.0486
 5962TIP3   OH217849   1.641   6.766   1.336 -0.0251  0.5194  0.0015
 5962TIP3    H117850   1.714   6.782   1.276 -2.0397  2.6027 -2.1398
 5962TIP3    H217851   1.588   6.700   1.292 -0.0982 -0.0317  0.9041
 5963TIP3   OH217852   7.205   1.703   1.173 -0.2746 -0.4613 -0.2849
 5963TIP3    H117853   7.188   1.751   1.254 -2.3639 -1.9080  0.2244
 5963TIP3    H217854   7.252   1.625   1.201  1.2227  0.1885 -0.8481
 5964TIP3   OH217855   0.168   5.226   4.740  0.6383 -0.5461  0.4281
 5964TIP3    H117856   0.147   5.236   4.647 -1.3057 -0.0805  0.8643
 5964TIP3    H217857   0.203   5.311   4.765 -2.1602  0.5975  0.8463
 5965TIP3   OH217858   0.611   0.776   4.768 -0.7869 -0.6007 -0.2718
 5965TIP3    H117859   0.600   0.844   4.702 -0.7071  1.0150  1.3040
 5965TIP3    H217860   0.693   0.733   4.746  0.6454  1.7008  0.2541
 5966TIP3   OH217861   5.276   1.386   4.668  0.0659  0.2044  0.0383
 5966TIP3    H117862   5.315   1.337   4.740  0.5888 -0.0234 -0.3956
 5966TIP3    H217863   5.187   1.352   4.662  0.2369 -0.2630  0.1260
 5967TIP3   OH217864   1.177   2.950   2.427  0.3453 -0.4897  0.7404
 5967TIP3    H117865   1.245   3.010   2.459  0.3728 -1.3553  2.4189
 5967TIP3    H217866   1.195   2.867   2.471 -1.7800 -0.7588  1.2069
 5968TIP3   OH217867   3.316   1.543   3.204  0.4155  0.0770 -0.0338
 5968TIP3    H117868   3.372   1.601   3.256  1.8697 -0.7796 -0.5986
 5968TIP3    H217869   3.377   1.485   3.159 -0.9471 -0.9575 -0.5976
 5969TIP3   OH217870   2.495   6.425   0.105 -0.0936 -0.4944  0.0960
 5969TIP3    H117871   2.549   6.393   0.033  0.9250  0.5125  0.3838
 5969TIP3    H217872   2.458   6.346   0.144 -1.8098 -1.0403 -2.3420
 5970TIP3   OH217873   0.358   1.335   4.442 -0.2879 -0.4386  0.3718
 5970TIP3    H117874   0.319   1.301   4.522 -0.0876  0.1452  0.7233
 5970TIP3    H217875   0.428   1.393   4.472  0.3195 -0.8304 -0.2328
 5971TIP3   OH217876   2.478   3.625   5.558  0.5844  0.0981 -0.3060
 5971TIP3    H117877   2.450   3.595   5.471  0.2360  0.0115 -0.1646
 5971TIP3    H217878   2.563   3.582   5.572  0.3892 -0.3149 -0.3748
 5972TIP3   OH217879   1.313   2.109   4.055 -0.3739 -0.3281  0.2895
 5972TIP3    H117880   1.329   2.114   4.149  1.1538 -0.3942  0.0557
 5972TIP3    H217881   1.300   2.015   4.039 -1.5012 -0.2305  0.5436
 5973TIP3   OH217882   5.502   4.719   5.016 -0.2708 -0.0752  0.1189
 5973TIP3    H117883   5.554   4.771   5.077 -0.2925 -0.1914  0.2360
 5973TIP3    H217884   5.486   4.637   5.062  0.1499 -0.3633 -0.2401
 5974TIP3   OH217885   2.448   4.945   5.276  0.4511 -0.1722 -0.1905
 5974TIP3    H117886   2.399   4.916   5.353  0.2216  0.5423 -0.0664
 5974TIP3    H217887   2.381   4.958   5.209  0.2276  2.3736  0.4379
 5975TIP3   OH217888   5.851   5.293   0.375 -1.2564  0.1559  0.5261
 5975TIP3    H117889   5.929   5.242   0.352 -1.7472 -0.0690 -0.6691
 5975TIP3    H217890   5.866   5.318   0.467 -0.1796 -0.6055  0.5798
 5976TIP3   OH217891   6.709   4.270   0.347  0.6197  0.3463  0.0097
 5976TIP3    H117892   6.731   4.222   0.427  0.2256  0.5416  0.2440
 5976TIP3    H217893   6.704   4.362   0.375 -0.4964  0.3045 -0.0203
 5977TIP3   OH217894   4.374   2.532   3.645  0.6061 -0.3211 -0.1719
 5977TIP3    H117895   4.302   2.582   3.683  0.2335 -1.8096  1.2231
 5977TIP3    H217896   4.365   2.542   3.551  2.5683  5.0094 -0.1151
 5978TIP3   OH217897   4.363   2.742   1.493 -0.5108  0.8437  0.3015
 5978TIP3    H117898   4.372   2.713   1.403  1.2608 -1.2482  1.0683
 5978TIP3    H217899   4.432   2.808   1.504 -0.0106  0.3098  0.4031
 5979TIP3   OH217900   2.255   4.653   3.832  0.6146  0.5153 -0.0769
 5979TIP3    H117901   2.219   4.566   3.815  0.3558  0.3711  1.1020
 5979TIP3    H217902   2.341   4.635   3.871  0.0013  0.7343  1.4273
 5980TIP3   OH217903   6.283   5.162   2.582  0.0991 -0.0132  0.3812
 5980TIP3    H117904   6.240   5.087   2.621 -0.3912  0.9839  1.8335
 5980TIP3    H217905   6.212   5.215   2.545  0.5576 -1.0871 -2.3206
 5981TIP3   OH217906   3.947   3.215   3.471  0.2544 -0.8912 -0.0742
 5981TIP3    H117907   3.856   3.224   3.500  0.0674 -0.9054 -0.6435
 5981TIP3    H217908   3.957   3.282   3.404  0.2012 -1.8774 -1.1063
 5982TIP3   OH217909   2.528   6.263   4.072 -0.2516 -0.1663 -0.0856
 5982TIP3    H117910   2.520   6.239   3.980 -0.7580 -0.0278 -0.0851
 5982TIP3    H217911   2.555   6.355   4.071  0.1811 -0.2925 -0.0930
 5983TIP3   OH217912   0.995   3.977   1.408  0.9834  0.0663 -0.1085
 5983TIP3    H117913   1.043   3.926   1.342  0.7114  0.4395 -0.6054
 5983TIP3    H217914   1.043   3.962   1.489  0.6615 -1.3314 -0.1422
 5984TIP3   OH217915   6.747   4.020   2.044 -0.2142 -0.1332  0.0043
 5984TIP3    H117916   6.817   3.976   1.997  0.9649  1.1151  0.5366
 5984TIP3    H217917   6.754   3.988   2.134 -0.8595 -0.6204 -0.1123
 5985TIP3   OH217918   5.446   0.908   0.995  0.9606  0.0751 -0.7150
 5985TIP3    H117919   5.409   0.843   0.935 -0.5039 -0.3679  0.5953
 5985TIP3    H217920   5.408   0.991   0.966  1.0308  0.0108 -0.9968
 5986TIP3   OH217921   5.623   3.148   3.737  0.2464 -0.2372 -0.1774
 5986TIP3    H117922   5.691   3.127   3.673  1.1449 -0.5082  0.8486
 5986TIP3    H217923   5.652   3.229   3.779 -0.5217  0.1423 -0.3490
 5987TIP3   OH217924   4.413   3.055   4.009  0.8448  0.6712 -0.0206
 5987TIP3    H117925   4.357   2.979   3.996  3.0209 -0.8992 -0.9792
 5987TIP3    H217926   4.394   3.084   4.098  0.7270 -1.7324  0.8188
 5988TIP3   OH217927   6.771   0.300   3.567  0.0363  0.2036  0.2601
 5988TIP3    H117928   6.833   0.297   3.640  0.3102  0.3928  0.0357
 5988TIP3    H217929   6.826   0.308   3.489 -0.2686  0.2928  0.0531
 5989TIP3   OH217930   4.981   2.884   5.385  0.1434  0.4396 -0.2283
 5989TIP3    H117931   4.976   2.958   5.324 -3.1234  0.6114  0.0825
 5989TIP3    H217932   4.912   2.824   5.355  0.1889 -0.6851  1.7798
 5990TIP3   OH217933   5.527   2.773   0.297 -0.4668  0.1328 -0.4055
 5990TIP3    H117934   5.438   2.807   0.305 -1.3567 -2.0591 -0.3439
 5990TIP3    H217935   5.525   2.687   0.340  2.4711  1.2298  2.3124
 5991TIP3   OH217936   6.090   4.868   4.691 -0.5827 -0.0018 -0.0306
 5991TIP3    H117937   6.045   4.933   4.638 -0.2021  0.4325  0.1755
 5991TIP3    H217938   6.024   4.800   4.707 -0.9415  0.2698 -0.3476
 5992TIP3   OH217939   5.971   5.079   4.572 -0.1372  0.5923 -0.0455
 5992TIP3    H117940   5.981   5.172   4.591 -1.4601  0.8319 -0.3998
 5992TIP3    H217941   6.007   5.069   4.483  1.5131  0.4226  0.6098
 5993TIP3   OH217942   6.769   2.658   0.138  0.1314 -0.2057 -0.2215
 5993TIP3    H117943   6.858   2.683   0.161  0.2093 -0.7991  0.1393
 5993TIP3    H217944   6.779   2.576   0.088 -0.0909  0.6261 -1.6813
 5994TIP3   OH217945   3.263   1.304   2.814 -0.2095  0.1021 -0.0905
 5994TIP3    H117946   3.320   1.273   2.744 -0.5538  0.1314 -0.3859
 5994TIP3    H217947   3.308   1.278   2.895 -0.4461 -1.1149 -0.3266
 5995TIP3   OH217948   3.016   0.919   3.599 -0.1553  0.0599  0.1235
 5995TIP3    H117949   3.020   0.972   3.679  0.3566 -0.5905  0.5360
 5995TIP3    H217950   3.093   0.862   3.603 -2.1743 -2.8383  1.2122
 5996TIP3   OH217951   6.899   5.308   3.337  0.7480 -0.3838 -0.7992
 5996TIP3    H117952   6.991   5.326   3.358  0.7650 -1.5825  0.2732
 5996TIP3    H217953   6.878   5.230   3.387 -0.7976 -0.2815 -1.2406
 5997TIP3   OH217954   3.957   6.745   5.542 -0.0583  0.0427 -0.5160
 5997TIP3    H117955   3.988   6.762   5.631 -0.9348 -1.2147  0.0520
 5997TIP3    H217956   4.038   6.740   5.490  0.4292  1.6549  0.0040
 5998TIP3   OH217957   4.593   1.835   4.158  0.2769  0.8452  0.6915
 5998TIP3    H117958   4.568   1.915   4.205 -0.0542  0.0347  1.9408
 5998TIP3    H217959   4.682   1.817   4.189  0.9680  1.5694 -0.7825
 5999TIP3   OH217960   0.071   4.407   4.298 -0.2123  0.0819 -0.0270
 5999TIP3    H117961   0.018   4.388   4.220 -0.4374  0.3330  0.0614
 5999TIP3    H217962   0.107   4.323   4.323 -0.2574 -0.0276 -0.3194
 6000TIP3   OH217963   3.301   6.181   0.404  0.4561  0.2004  0.4143
 6000TIP3    H117964   3.235   6.131   0.451 -0.6951  0.4017 -0.9299
 6000TIP3    H217965   3.264   6.270   0.397  1.0015  0.3966 -0.0715
 6001TIP3   OH217966   2.534   3.620   1.445 -0.0290 -0.1080 -0.1872
 6001TIP3    H117967   2.558   3.684   1.379  0.6658 -0.6589 -0.4901
 6001TIP3    H217968   2.581   3.647   1.524  1.6018 -1.1086 -0.7425
 6002TIP3   OH217969   6.002   0.438   4.201 -0.3759  0.3684  0.1433
 6002TIP3    H117970   6.084   0.390   4.188 -0.7983 -0.4741  0.5483
 6002TIP3    H217971   6.004   0.465   4.293 -0.7693 -0.0534  0.2734
 6003TIP3   OH217972   5.795   5.319   3.985  0.1422  0.6794  0.5801
 6003TIP3    H117973   5.817   5.404   3.947  0.9378  0.3389  0.2483
 6003TIP3    H217974   5.718   5.290   3.937 -0.1968  1.2514  0.7634
 6004TIP3   OH217975   0.412   1.079   5.848  0.0978  0.2358  0.1507
 6004TIP3    H117976   0.411   0.988   5.818  0.1701  0.0577  0.6693
 6004TIP3    H217977   0.348   1.081   5.919 -0.1847  0.6826 -0.1132
 6005TIP3   OH217978   3.048   1.065   5.019 -0.5178  0.1420  0.1064
 6005TIP3    H117979   3.025   0.979   4.983 -2.0808  0.3086  0.6207
 6005TIP3    H217980   2.984   1.125   4.980 -0.2521  0.8473  0.7438
 6006TIP3   OH217981   3.942   4.991   5.598  0.1567  0.2244 -0.0716
 6006TIP3    H117982   4.026   5.005   5.641 -0.2010  1.9539  0.1009
 6006TIP3    H217983   3.928   4.896   5.605  1.9272 -0.0669  0.1620
 6007TIP3   OH217984   2.340   5.613   1.641  0.2674  0.0909  0.0964
 6007TIP3    H117985   2.412   5.565   1.682  0.0292 -0.9581 -0.6879
 6007TIP3    H217986   2.283   5.546   1.605  1.1757  0.9076 -3.2252
 6008TIP3   OH217987   4.090   2.281   0.335 -0.4477  0.4315  0.0478
 6008TIP3    H117988   4.052   2.194   0.348 -0.2748  0.4878  1.0040
 6008TIP3    H217989   4.164   2.266   0.277  1.4460 -0.5880  2.5428
 6009TIP3   OH217990   6.442   0.498   3.915  0.1095 -0.6617  0.5120
 6009TIP3    H117991   6.384   0.534   3.848  1.5033  0.9021  0.1035
 6009TIP3    H217992   6.382   0.462   3.981 -1.2924 -1.1937 -0.9730
 6010TIP3   OH217993   4.551   6.608   2.789 -0.5849  0.2175 -0.0998
 6010TIP3    H117994   4.519   6.610   2.698  0.5717 -1.4443 -0.5779
 6010TIP3    H217995   4.481   6.566   2.838 -0.2676 -1.0351 -0.6745
 6011TIP3   OH217996   4.999   0.831   0.955  0.1860  0.2813 -0.1751
 6011TIP3    H117997   5.046   0.832   1.038 -0.1543 -2.0322  0.1052
 6011TIP3    H217998   5.057   0.878   0.895  1.8369 -0.5454  0.6922
 6012TIP3   OH217999   0.898   0.269   4.012  0.6409  0.4764  0.1928
 6012TIP3    H118000   0.968   0.205   3.997 -0.1486 -0.8567  1.8155
 6012TIP3    H218001   0.833   0.250   3.945  0.4310 -0.4582  0.6383
 6013TIP3   OH218002   3.630   3.542   0.337 -0.4642  0.2257 -0.2666
 6013TIP3    H118003   3.706   3.566   0.390 -0.0407  0.0609 -0.7941
 6013TIP3    H218004   3.635   3.447   0.328 -0.3119  0.2927 -0.9307
 6014TIP3   OH218005   0.008   0.423   2.027 -0.6588 -0.4928  0.4837
 6014TIP3    H118006   0.097   0.389   2.021 -0.5456 -0.0338 -1.2985
 6014TIP3    H218007  -0.018   0.409   2.118  0.4932 -2.4526  0.5686
 6015TIP3   OH218008   0.377   4.825   5.729  0.1454 -0.1894 -0.6421
 6015TIP3    H118009   0.351   4.862   5.644 -0.0940  1.3921  0.0884
 6015TIP3    H218010   0.387   4.901   5.786 -0.4754 -1.2781  0.9771
 6016TIP3   OH218011   3.825   1.711   1.874  0.3500 -0.4305 -0.1396
 6016TIP3    H118012   3.790   1.793   1.910  0.5789 -0.5438  0.3402
 6016TIP3    H218013   3.772   1.642   1.914 -0.6049 -0.4729 -1.4120
 6017TIP3   OH218014   5.218   1.321   3.450  0.4125  0.6989 -0.1360
 6017TIP3    H118015   5.174   1.289   3.530 -0.6564 -0.4441 -1.1332
 6017TIP3    H218016   5.242   1.411   3.471 -2.2894  1.3668  0.5902
 6018TIP3   OH218017   6.948   5.340   2.907 -0.1330 -0.1882  0.5738
 6018TIP3    H118018   6.911   5.273   2.850  0.3437 -0.2324  0.3165
 6018TIP3    H218019   6.895   5.418   2.890  1.0811  0.3018 -1.2345
 6019TIP3   OH218020   1.359   3.632   1.039  0.5910  0.0522  0.0241
 6019TIP3    H118021   1.321   3.600   1.121  3.3377 -1.5593  0.7830
 6019TIP3    H218022   1.368   3.726   1.052  1.4879 -0.2467  1.8400
 6020TIP3   OH218023   5.882   1.290   3.343 -0.5618  0.3937 -0.4564
 6020TIP3    H118024   5.882   1.278   3.248 -2.1339 -0.2510 -0.4072
 6020TIP3    H218025   5.944   1.224   3.376 -1.1295 -0.4180 -0.9593
 6021TIP3   OH218026   3.876   6.265   5.538  0.3890  0.2910  0.3478
 6021TIP3    H118027   3.822   6.260   5.460  0.7206  0.8080  0.0786
 6021TIP3    H218028   3.875   6.358   5.562  0.6692  0.2093  0.6833
 6022TIP3   OH218029   6.188   0.264   4.052  0.0897  0.0914 -0.3593
 6022TIP3    H118030   6.207   0.293   3.963  0.1318  1.1017 -0.0344
 6022TIP3    H218031   6.270   0.226   4.083 -0.0672 -0.7300 -0.9162
 6023TIP3   OH218032   1.522   4.939   1.719 -0.6582  0.1355 -0.1935
 6023TIP3    H118033   1.545   5.023   1.678 -0.4953  1.2180  1.9841
 6023TIP3    H218034   1.585   4.877   1.681  0.1729  1.2801 -0.7810
 6024TIP3   OH218035   5.772   0.285   2.888 -0.4838 -0.0079 -0.2664
 6024TIP3    H118036   5.728   0.313   2.808 -2.5330  1.0511  1.1358
 6024TIP3    H218037   5.720   0.211   2.920  0.2603 -0.3716  0.1536
 6025TIP3   OH218038   6.376   3.593   1.294 -0.4369  0.0432  0.3346
 6025TIP3    H118039   6.434   3.644   1.352 -1.1490  0.9081  0.3080
 6025TIP3    H218040   6.419   3.508   1.287 -0.0608  0.0887  1.7157
 6026TIP3   OH218041   0.115   2.213   2.555  0.1494 -0.6164  0.7376
 6026TIP3    H118042   0.033   2.232   2.509 -0.0816 -1.2093  0.8955
 6026TIP3    H218043   0.183   2.222   2.488 -0.1840 -1.4739  0.2639
 6027TIP3   OH218044   1.647   6.220   5.751 -0.8059 -0.2398  0.0418
 6027TIP3    H118045   1.667   6.206   5.843  0.0253  0.3254 -0.0363
 6027TIP3    H218046   1.668   6.136   5.709  0.9451  0.1358  0.0624
 6028TIP3   OH218047   3.931   0.501  -0.010 -0.3271  0.3285  0.1048
 6028TIP3    H118048   3.863   0.561  -0.039  0.9784  1.0933 -1.4650
 6028TIP3    H218049   3.956   0.533   0.077 -1.0953  0.7418  0.1851
 6029TIP3   OH218050   7.124   1.348   2.137  0.3550 -0.3763  0.4040
 6029TIP3    H118051   7.160   1.316   2.053  1.5286  0.0691  0.7148
 6029TIP3    H218052   7.199   1.345   2.197 -0.9878 -3.0581  2.1634
 6030TIP3   OH218053   0.915   2.906   3.350  0.4117 -0.4271 -0.2998
 6030TIP3    H118054   0.870   2.874   3.272 -1.1012  2.5076 -0.7832
 6030TIP3    H218055   0.880   2.853   3.422  0.8875 -2.3212 -1.3997
 6031TIP3   OH218056   1.200   3.438   5.573  0.3405 -0.2675 -0.5500
 6031TIP3    H118057   1.145   3.480   5.507  1.0150  1.0041 -0.3473
 6031TIP3    H218058   1.141   3.424   5.648 -0.2270 -0.9698 -1.1159
 6032TIP3   OH218059   4.429   2.839   0.296 -0.4783 -0.0860 -0.7795
 6032TIP3    H118060   4.372   2.914   0.275 -1.8625 -0.7868  0.3384
 6032TIP3    H218061   4.422   2.828   0.390  0.2915 -1.1749 -0.8247
 6033TIP3   OH218062   1.627   3.692   0.740 -0.3762 -0.1678  0.7310
 6033TIP3    H118063   1.583   3.774   0.763 -0.2896  0.1847 -0.3021
 6033TIP3    H218064   1.556   3.632   0.717 -0.3625  0.4820 -1.1955
 6034TIP3   OH218065   2.157   6.404   3.025 -0.1576  0.0325 -0.3617
 6034TIP3    H118066   2.236   6.358   3.054  0.1928  1.1089  0.4566
 6034TIP3    H218067   2.113   6.431   3.105 -1.1712 -0.2182 -0.8125
 6035TIP3   OH218068   4.578   2.998   1.039  0.1843  0.0391 -0.5400
 6035TIP3    H118069   4.636   3.007   1.115  1.2178  0.0004 -1.3090
 6035TIP3    H218070   4.628   2.948   0.975 -1.3961 -1.6343 -0.5460
 6036TIP3   OH218071   4.034   2.984   4.176 -0.4809  0.8294 -0.1470
 6036TIP3    H118072   4.099   2.930   4.221 -0.0472  0.4814 -1.1548
 6036TIP3    H218073   3.963   2.993   4.239  0.1592  0.4789  0.6519
 6037TIP3   OH218074   5.001   3.687   2.367  0.1046 -0.1302  0.4620
 6037TIP3    H118075   4.921   3.657   2.410 -0.8447 -1.2731 -1.9301
 6037TIP3    H218076   5.051   3.607   2.352 -0.1413  0.0499 -1.5311
 6038TIP3   OH218077   1.905   0.034   5.774 -0.2990  0.4958  0.2648
 6038TIP3    H118078   1.894   0.010   5.866 -0.5755  0.4103  0.2099
 6038TIP3    H218079   1.816   0.044   5.741 -0.1976  0.7698  0.0701
 6039TIP3   OH218080   4.675   2.605   2.019  0.2239 -0.1846  0.7489
 6039TIP3    H118081   4.707   2.690   2.048  1.3079 -0.8480  1.5731
 6039TIP3    H218082   4.664   2.554   2.099  0.6944 -1.1776  0.2045
 6040TIP3   OH218083   2.563   6.500   4.701 -0.5624  0.3167  0.3969
 6040TIP3    H118084   2.518   6.520   4.618  0.6532 -0.4714 -0.4818
 6040TIP3    H218085   2.626   6.432   4.678 -1.3868 -1.1833  2.3405
 6041TIP3   OH218086   1.423   3.481   5.025 -0.8770  0.2274 -0.2430
 6041TIP3    H118087   1.441   3.575   5.015 -2.2993  0.4446 -1.1961
 6041TIP3    H218088   1.489   3.450   5.085  0.6183  1.5264 -1.1292
 6042TIP3   OH218089   0.798   2.262   5.858  0.3784  0.1935 -0.3909
 6042TIP3    H118090   0.870   2.218   5.902  0.6617  0.3989 -0.6473
 6042TIP3    H218091   0.797   2.225   5.770  2.6989  2.9398 -1.7312
 6043TIP3   OH218092   6.739   0.078   5.860 -0.7077 -0.3219 -0.0598
 6043TIP3    H118093   6.743   0.091   5.954 -0.2884 -0.3477 -0.0714
 6043TIP3    H218094   6.743   0.167   5.824 -0.3347 -0.3377 -0.0655
 6044TIP3   OH218095   3.694   4.123   3.681  0.4245  0.0076 -0.1406
 6044TIP3    H118096   3.599   4.118   3.670  0.3763  0.3876  0.1042
 6044TIP3    H218097   3.707   4.176   3.759  0.8153 -1.0274  0.5294
 6045TIP3   OH218098   1.881   2.338   1.447 -0.6453 -0.0320  0.0027
 6045TIP3    H118099   1.922   2.413   1.490 -1.4745 -0.1667  1.0728
 6045TIP3    H218100   1.801   2.323   1.497 -0.1974 -2.0150  0.2112
 6046TIP3   OH218101   0.071   0.728   3.260  0.0494  0.1764 -0.8106
 6046TIP3    H118102   0.055   0.633   3.255  3.0761 -0.6200  1.7435
 6046TIP3    H218103   0.010   0.759   3.327 -1.7644  0.3803 -2.4458
 6047TIP3   OH218104   5.494   2.503   4.726  0.1890 -0.3191 -0.2949
 6047TIP3    H118105   5.412   2.464   4.698  0.1556 -0.5539  0.1141
 6047TIP3    H218106   5.511   2.463   4.811  0.6046 -0.0938 -0.2706
 6048TIP3   OH218107   2.522   5.880   4.569  0.2436  0.0997 -0.0472
 6048TIP3    H118108   2.578   5.952   4.597  1.6528 -1.8281  2.5737
 6048TIP3    H218109   2.449   5.922   4.523  2.3828  2.9143 -1.1581
 6049TIP3   OH218110   5.423   0.055   5.850 -0.0794  0.1212  0.1528
 6049TIP3    H118111   5.364  -0.015   5.877  0.2108 -0.7668 -1.4343
 6049TIP3    H218112   5.503   0.039   5.901  0.4260 -1.4710 -1.0651
 6050TIP3   OH218113   5.293   6.731   0.207  0.1145 -0.1347  0.4022
 6050TIP3    H118114   5.223   6.734   0.272  0.0769  1.1080  0.3270
 6050TIP3    H218115   5.366   6.690   0.253 -1.0669 -2.8358  0.0398
 6051TIP3   OH218116   0.156   1.389   4.631  0.1336 -0.0379 -0.1703
 6051TIP3    H118117   0.189   1.400   4.720  2.5439 -0.0926 -0.9980
 6051TIP3    H218118   0.150   1.478   4.596  3.6047 -0.1161 -1.3620
 6052TIP3   OH218119   2.996   6.237   0.241  0.0172 -0.6225  0.2279
 6052TIP3    H118120   3.053   6.262   0.168 -1.0014  0.1507 -0.3365
 6052TIP3    H218121   2.909   6.270   0.215 -0.3014 -0.0441  1.9377
 6053TIP3   OH218122   3.835   6.616   5.839  0.3375  0.7113  0.1544
 6053TIP3    H118123   3.852   6.543   5.898 -0.3224 -1.7128 -2.4155
 6053TIP3    H218124   3.909   6.676   5.852  1.1787 -0.6563  1.9947
 6054TIP3   OH218125   0.261   5.428   2.269 -0.4975 -0.4301  0.3199
 6054TIP3    H118126   0.216   5.495   2.218 -2.3742 -0.0212  2.3773
 6054TIP3    H218127   0.192   5.365   2.292  0.2944 -0.7174  2.0987
 6055TIP3   OH218128   3.151   6.324   5.520  0.1409 -0.1951 -0.7353
 6055TIP3    H118129   3.158   6.318   5.425 -0.2586 -1.7524 -0.6946
 6055TIP3    H218130   3.207   6.253   5.552 -0.2527 -0.1083  0.1718
 6056TIP3   OH218131   0.649   1.961   1.075  0.0730  0.3859  0.3352
 6056TIP3    H118132   0.645   1.935   1.167  1.2874  0.0972  0.3232
 6056TIP3    H218133   0.662   1.879   1.028 -0.4430  0.5436 -0.0857
 6057TIP3   OH218134   4.580   3.894   4.700  0.0758  0.2663 -0.3171
 6057TIP3    H118135   4.642   3.875   4.629  0.3850  0.2258 -0.0401
 6057TIP3    H218136   4.634   3.933   4.769 -0.4696  1.7629 -0.7070
 6058TIP3   OH218137   4.013   4.224   3.698 -0.2431  0.5687 -0.6593
 6058TIP3    H118138   4.098   4.240   3.740  0.2621  1.1876 -1.8680
 6058TIP3    H218139   4.032   4.156   3.633 -0.5389  1.1314 -1.3420
 6059TIP3   OH218140   6.669   5.106   1.939  0.2143 -0.5162 -0.0120
 6059TIP3    H118141   6.736   5.072   1.880 -0.1370  0.7917 -1.2225
 6059TIP3    H218142   6.590   5.110   1.885 -0.3532 -0.1723  0.8210
 6060TIP3   OH218143   3.194   0.487   5.461 -0.6290  0.2956  0.2071
 6060TIP3    H118144   3.110   0.490   5.416  0.2094  1.5040 -1.3721
 6060TIP3    H218145   3.175   0.445   5.545 -2.8523  0.8383  0.0300
 6061TIP3   OH218146   0.818   2.880   0.522 -0.3712  0.0262 -0.3718
 6061TIP3    H118147   0.831   2.961   0.474 -0.8764 -0.5091 -1.4400
 6061TIP3    H218148   0.891   2.824   0.494  0.9037  0.6160  1.5537
 6062TIP3   OH218149   1.589   4.708   2.753 -0.5072 -0.0645  0.1172
 6062TIP3    H118150   1.511   4.765   2.751 -0.4844 -0.0076  0.6757
 6062TIP3    H218151   1.658   4.761   2.714 -1.0161 -0.5539 -1.5487
 6063TIP3   OH218152   2.170   2.228   3.478 -0.3189  0.3913 -0.9809
 6063TIP3    H118153   2.192   2.313   3.515 -2.2909  0.5803 -0.1805
 6063TIP3    H218154   2.208   2.164   3.539  1.6564  0.6335 -1.8783
 6064TIP3   OH218155   2.386   3.199   4.239  0.0398  0.0550  0.4327
 6064TIP3    H118156   2.373   3.266   4.172 -0.4339  0.6415  1.0890
 6064TIP3    H218157   2.394   3.117   4.190 -2.2136  0.1782 -0.2966
 6065TIP3   OH218158   4.026   1.938   1.769 -0.2171  0.1118  0.7750
 6065TIP3    H118159   4.072   1.987   1.701 -0.6011 -1.2063 -0.4710
 6065TIP3    H218160   3.936   1.971   1.764 -0.4999 -0.7500 -0.1360
 6066TIP3   OH218161   2.903   6.460   2.167 -0.2375  0.5844 -0.0002
 6066TIP3    H118162   2.991   6.469   2.204  0.2075  0.4476 -1.0063
 6066TIP3    H218163   2.853   6.531   2.207  0.5357  1.1488 -0.0249
 6067TIP3   OH218164   1.050   4.817   0.608 -0.0003 -0.5325 -0.1849
 6067TIP3    H118165   0.999   4.873   0.666  0.5076  0.6136 -0.7938
 6067TIP3    H218166   1.050   4.864   0.524  2.7098 -0.0142 -0.0020
 6068TIP3   OH218167   4.906   2.929   0.696 -0.4291 -0.0154 -0.1336
 6068TIP3    H118168   4.952   2.905   0.776 -1.9871 -0.4227  0.6878
 6068TIP3    H218169   4.945   2.875   0.628 -0.3808 -1.0978  0.7297
 6069TIP3   OH218170   2.798   2.036   3.555 -0.1055  0.0956 -0.6173
 6069TIP3    H118171   2.786   1.948   3.518  0.2839  0.1212 -0.8110
 6069TIP3    H218172   2.727   2.045   3.619 -0.3594 -0.2229 -0.8518
 6070TIP3   OH218173   4.347   5.329   3.425  0.4894 -0.3427 -0.0838
 6070TIP3    H118174   4.437   5.330   3.457  1.1845  0.6012 -1.9296
 6070TIP3    H218175   4.322   5.236   3.426  2.0043 -0.7882 -0.9022
 6071TIP3   OH218176   0.796   0.319   5.346 -0.7384  0.2729 -0.4431
 6071TIP3    H118177   0.735   0.343   5.416 -0.9318  3.1693 -1.4394
 6071TIP3    H218178   0.882   0.343   5.381 -0.4468 -1.1862 -0.0942
 6072TIP3   OH218179   7.128   1.746   2.200  0.4657 -0.3211 -0.0099
 6072TIP3    H118180   7.179   1.738   2.119 -1.2096 -0.0352 -1.1395
 6072TIP3    H218181   7.193   1.768   2.267  2.1674 -2.2762 -0.8883
 6073TIP3   OH218182   0.856   5.654   1.209  0.3184  0.1003  0.6882
 6073TIP3    H118183   0.789   5.693   1.154  1.7621 -0.3547 -1.5210
 6073TIP3    H218184   0.877   5.571   1.167  2.0505  0.0874  1.4725
 6074TIP3   OH218185   4.176   6.627   5.211  0.4545 -0.7050  0.5523
 6074TIP3    H118186   4.238   6.558   5.233  1.1483 -0.2423  0.0970
 6074TIP3    H218187   4.206   6.703   5.260  1.1927 -0.0484 -0.8511
 6075TIP3   OH218188   3.700   1.333   3.049  0.2173 -0.2608 -1.0531
 6075TIP3    H118189   3.771   1.396   3.065  0.2880 -0.2179 -1.5335
 6075TIP3    H218190   3.736   1.272   2.985 -0.0308 -0.5007 -0.9665
 6076TIP3   OH218191   3.142   5.294   0.939 -0.0874  0.6615 -0.2441
 6076TIP3    H118192   3.195   5.355   0.991  0.5714  0.4054 -0.6091
 6076TIP3    H218193   3.185   5.209   0.950 -1.1048  0.2146  0.4066
 6077TIP3   OH218194   1.609   1.135   1.701  0.0466  0.1051 -0.2689
 6077TIP3    H118195   1.535   1.175   1.746 -0.7738 -1.6418  0.0498
 6077TIP3    H218196   1.686   1.164   1.749 -0.6263  0.1748  0.7827
 6078TIP3   OH218197   2.246   1.314   2.745  0.6066 -0.1654  0.1301
 6078TIP3    H118198   2.222   1.233   2.701 -0.4861 -0.7778  1.7478
 6078TIP3    H218199   2.164   1.347   2.782  1.3917  0.4443  1.4379
 6079TIP3   OH218200   0.592   1.791   3.688  0.2442  0.1222 -0.2378
 6079TIP3    H118201   0.572   1.884   3.702  0.4036  0.2266 -0.6790
 6079TIP3    H218202   0.675   1.792   3.640 -0.0550 -0.2309 -0.7640
 6080TIP3   OH218203   0.129   0.979   1.828 -0.6004 -0.1953  0.1263
 6080TIP3    H118204   0.100   0.889   1.813 -0.9044  0.1243 -1.2857
 6080TIP3    H218205   0.224   0.976   1.820 -0.7394 -0.0485 -1.9883
 6081TIP3   OH218206   1.068   1.495   1.423 -0.0468  0.2875 -0.5744
 6081TIP3    H118207   1.136   1.541   1.470 -0.0179 -1.2203  0.9671
 6081TIP3    H218208   1.065   1.536   1.337 -0.0711  3.1285  0.6826
 6082TIP3   OH218209   3.747   5.384   2.978  0.0286  0.3363 -0.0265
 6082TIP3    H118210   3.739   5.448   2.907 -3.5277  0.4125  0.2899
 6082TIP3    H218211   3.659   5.348   2.988  1.1386 -2.0663  2.2026
 6083TIP3   OH218212   0.317   2.761   2.133 -0.1055  0.1727 -0.0584
 6083TIP3    H118213   0.403   2.775   2.094 -0.1020  0.1789 -0.0486
 6083TIP3    H218214   0.255   2.785   2.064 -0.1020 -0.5847 -0.3424
 6084TIP3   OH218215   6.164   2.174   4.629 -0.5463  0.0536 -0.0200
 6084TIP3    H118216   6.182   2.257   4.584  0.2614  0.4927  1.0764
 6084TIP3    H218217   6.075   2.182   4.661 -0.6944  0.2329 -0.4741
 6085TIP3   OH218218   1.287   0.658   0.060 -0.0237 -0.0412  0.4546
 6085TIP3    H118219   1.276   0.625   0.150  0.0999 -0.6498  0.2560
 6085TIP3    H218220   1.268   0.751   0.066  0.8626  0.1046  1.2842
 6086TIP3   OH218221   6.640   5.803   2.121 -0.6731  0.3048  0.4236
 6086TIP3    H118222   6.592   5.875   2.162  0.6870  0.8165  1.1954
 6086TIP3    H218223   6.671   5.839   2.038 -1.9241 -0.1548 -0.2614
 6087TIP3   OH218224   4.227   2.165   2.760  0.0258  0.1497 -0.2446
 6087TIP3    H118225   4.194   2.136   2.845  1.1779 -0.7695 -0.0841
 6087TIP3    H218226   4.307   2.213   2.780 -0.2247  0.7889 -0.7432
 6088TIP3   OH218227   2.653   5.790   4.836  0.3910  0.7527  0.2914
 6088TIP3    H118228   2.602   5.782   4.756  1.3830  0.8781 -0.3733
 6088TIP3    H218229   2.727   5.847   4.812  1.7769 -0.7860  0.7423
 6089TIP3   OH218230   2.008   3.001   1.637  0.1744 -0.1220 -0.2402
 6089TIP3    H118231   2.049   3.026   1.720 -0.3923  0.5760 -0.1711
 6089TIP3    H218232   2.062   3.043   1.570  1.2304 -1.4795 -0.3092
 6090TIP3   OH218233   3.950   2.832   3.320  0.0393 -0.0710  0.5765
 6090TIP3    H118234   3.908   2.906   3.362  2.6445  1.8445  0.0544
 6090TIP3    H218235   3.898   2.816   3.241 -0.4144  1.3959  0.5537
 6091TIP3   OH218236   1.714   1.663   3.081  0.2520 -0.9664  0.4664
 6091TIP3    H118237   1.766   1.740   3.057  1.7166 -1.2546  2.4426
 6091TIP3    H218238   1.657   1.694   3.152 -1.4268 -0.9796 -0.8218
 6092TIP3   OH218239   2.739   6.569   2.869 -0.0745 -0.3710 -0.2704
 6092TIP3    H118240   2.644   6.580   2.882  0.0265  2.7628 -1.4132
 6092TIP3    H218241   2.776   6.653   2.893  2.3693 -1.2472 -0.7242
 6093TIP3   OH218242   1.033   4.586   4.375 -0.4634  0.2137 -0.4613
 6093TIP3    H118243   1.121   4.573   4.411 -1.6404 -0.4973  2.4987
 6093TIP3    H218244   1.024   4.681   4.366  0.4868  0.3044 -0.5262
 6094TIP3   OH218245   0.762   3.779   5.793  0.0851 -0.1348  0.2297
 6094TIP3    H118246   0.676   3.784   5.753  0.3313  1.7664 -0.1480
 6094TIP3    H218247   0.806   3.706   5.748 -0.6323  0.1471 -0.9542
 6095TIP3   OH218248   0.552   3.159   0.542 -0.1804  0.0070 -0.6861
 6095TIP3    H118249   0.590   3.075   0.520  0.8497  0.9332 -2.6289
 6095TIP3    H218250   0.532   3.200   0.458  0.7917  2.3389  0.1242
 6096TIP3   OH218251   3.569   0.077   5.587  0.3535 -0.5987  0.2569
 6096TIP3    H118252   3.526   0.090   5.502  0.7103  0.5186  0.2273
 6096TIP3    H218253   3.592   0.165   5.616  0.8705 -1.0218  1.1965
 6097TIP3   OH218254   6.262   1.271   3.572 -0.0006  0.0589  0.3610
 6097TIP3    H118255   6.257   1.179   3.596 -0.4943  0.4910  2.0489
 6097TIP3    H218256   6.239   1.273   3.479 -1.3630 -1.3758  0.6237
 6098TIP3   OH218257   4.389   1.088   4.667  0.4526 -0.0983 -0.7572
 6098TIP3    H118258   4.376   1.125   4.580  0.6298  1.3240 -0.1970
 6098TIP3    H218259   4.476   1.118   4.693  0.4770 -0.6665 -0.1648
 6099TIP3   OH218260   6.797   5.634   5.495 -0.3247 -0.6218  0.1962
 6099TIP3    H118261   6.829   5.684   5.420 -0.8291  0.6369  0.7833
 6099TIP3    H218262   6.748   5.561   5.456 -1.6388  0.6905 -0.7492
 6100TIP3   OH218263   6.166   2.389   1.138 -0.3326 -0.0972  0.0571
 6100TIP3    H118264   6.127   2.443   1.069 -1.1202  0.4737  0.9297
 6100TIP3    H218265   6.094   2.370   1.197  0.7311  1.2917  1.9066
 6101TIP3   OH218266   1.505   2.984   5.063  0.4311  0.1373  0.5151
 6101TIP3    H118267   1.531   3.061   5.013  1.6616 -0.3769  0.3422
 6101TIP3    H218268   1.518   3.010   5.154 -0.1713  0.4846  0.5099
 6102TIP3   OH218269   4.584   1.832   5.114  0.0700  0.2206  0.2483
 6102TIP3    H118270   4.612   1.845   5.023  1.6992 -2.4779  0.2300
 6102TIP3    H218271   4.489   1.839   5.112  0.1992  2.3708 -1.2016
 6103TIP3   OH218272   2.492   1.127   3.927  0.1024  0.2884 -0.1839
 6103TIP3    H118273   2.427   1.061   3.950  0.3559 -0.6373 -1.9403
 6103TIP3    H218274   2.574   1.078   3.921  0.6173  1.0917  0.1442
 6104TIP3   OH218275   2.034   6.219   2.901  0.0495  0.0668  0.4847
 6104TIP3    H118276   2.091   6.285   2.940  0.9393 -1.2998  1.6134
 6104TIP3    H218277   1.945   6.247   2.924  0.3122  1.5950 -0.2684
 6105TIP3   OH218278   2.073   5.066   1.239  0.2213 -0.2516  0.0977
 6105TIP3    H118279   2.090   5.155   1.208  0.8230  0.2957  1.8993
 6105TIP3    H218280   2.099   5.010   1.166  1.3581  0.9913 -0.4883
 6106TIP3   OH218281   4.548   2.052   1.300 -0.4613 -1.1728  0.6170
 6106TIP3    H118282   4.462   2.093   1.291 -0.9047 -1.8830  1.4815
 6106TIP3    H218283   4.538   1.965   1.262  0.2406 -0.8226 -0.4214
 6107TIP3   OH218284   4.910   6.461   2.028  0.4901  0.0777 -0.5209
 6107TIP3    H118285   4.960   6.380   2.015  1.3928  0.4501  0.4819
 6107TIP3    H218286   4.977   6.529   2.038 -0.1311  0.4451  1.8326
 6108TIP3   OH218287   0.803   2.945   0.095  0.2631 -0.0050 -0.3386
 6108TIP3    H118288   0.844   2.971   0.178  0.2215 -1.2390  0.0952
 6108TIP3    H218289   0.717   2.985   0.097  0.6817  0.9195 -0.3161
 6109TIP3   OH218290   1.616   3.522   3.984  0.1022 -0.4429  0.1227
 6109TIP3    H118291   1.606   3.427   3.988 -1.8231 -0.3021 -0.0845
 6109TIP3    H218292   1.662   3.545   4.065 -0.4950 -1.4523  0.7773
 6110TIP3   OH218293   5.526   6.760   3.238 -0.3981  0.3372 -0.3406
 6110TIP3    H118294   5.616   6.789   3.222 -0.5745  0.3011 -1.4906
 6110TIP3    H218295   5.523   6.671   3.205 -0.7931  0.2412 -0.0527
 6111TIP3   OH218296   3.726   0.664   4.387 -0.0677 -0.2211  0.9043
 6111TIP3    H118297   3.822   0.658   4.391  0.2548  3.3738  2.5957
 6111TIP3    H218298   3.709   0.726   4.316 -1.1630 -0.7497  0.6849
 6112TIP3   OH218299   6.071   2.011   2.701 -0.3475  0.7316  0.8613
 6112TIP3    H118300   6.094   1.959   2.624 -2.6336 -0.2413  0.7441
 6112TIP3    H218301   6.098   2.100   2.679  1.7585 -0.0203  0.2064
 6113TIP3   OH218302   6.943   1.541   4.321  0.5957  0.0090  0.7441
 6113TIP3    H118303   7.020   1.558   4.268  0.0341 -0.1867 -0.1523
 6113TIP3    H218304   6.970   1.564   4.410  1.3707  0.8873  0.3007
 6114TIP3   OH218305   1.886   2.806   3.070  0.5240 -0.9388  0.2838
 6114TIP3    H118306   1.805   2.837   3.110 -2.2901 -1.9106 -3.9365
 6114TIP3    H218307   1.941   2.778   3.143 -1.9934  1.7757  3.4922
 6115TIP3   OH218308   6.964   4.378   1.196  0.0642 -0.1378  0.1155
 6115TIP3    H118309   6.929   4.446   1.138 -1.3984  0.0824  1.2041
 6115TIP3    H218310   7.056   4.400   1.206 -0.3149  1.5241  0.2202
 6116TIP3   OH218311   5.248   3.323   3.581 -0.2464 -0.6406  0.3451
 6116TIP3    H118312   5.208   3.390   3.635  1.0238  0.1743  0.3343
 6116TIP3    H218313   5.287   3.371   3.508  0.1307 -1.4641 -0.0169
 6117TIP3   OH218314   3.791   2.983   1.279  0.0709  0.0545  0.3487
 6117TIP3    H118315   3.838   2.938   1.208  0.6729  0.6770  0.3409
 6117TIP3    H218316   3.847   2.972   1.356  0.2007  0.7371  0.3583
 6118TIP3   OH218317   2.981   0.450   4.952 -0.4608  0.3489  0.0420
 6118TIP3    H118318   2.932   0.384   4.902  0.7486 -0.1861 -0.4584
 6118TIP3    H218319   3.036   0.399   5.011 -0.5954  0.9547  0.6984
 6119TIP3   OH218320   0.033   4.861   0.470  0.6755  0.2487  0.2377
 6119TIP3    H118321   0.015   4.890   0.381  2.5219 -2.3913 -1.1379
 6119TIP3    H218322   0.114   4.906   0.494 -0.2144  1.5343  0.9427
 6120TIP3   OH218323   4.461   1.845   5.642  0.1706  0.0089  0.8408
 6120TIP3    H118324   4.412   1.805   5.713 -2.6039 -1.3212 -1.6108
 6120TIP3    H218325   4.407   1.919   5.614  1.2599  0.5823  0.1639
 6121TIP3   OH218326   6.316   4.127   2.741  0.0221  0.1088  0.0326
 6121TIP3    H118327   6.348   4.090   2.823 -1.0351 -0.1691  0.3337
 6121TIP3    H218328   6.286   4.215   2.764 -0.9686 -0.2357  0.1226
 6122TIP3   OH218329   5.265   3.178   5.417  0.1585 -0.5163 -0.0060
 6122TIP3    H118330   5.177   3.191   5.383  0.6009 -2.3489 -2.0549
 6122TIP3    H218331   5.318   3.243   5.372  0.0363 -0.0132  0.5562
 6123TIP3   OH218332   6.939   5.084   0.826  0.9379  0.9578  0.4935
 6123TIP3    H118333   7.005   5.047   0.885  1.4960  0.8871 -0.1744
 6123TIP3    H218334   6.984   5.155   0.781  0.5324  0.9588  0.0877
 6124TIP3   OH218335   3.250   3.828   0.476 -0.3396  0.0279  0.4741
 6124TIP3    H118336   3.192   3.815   0.550  2.1055  0.0119  2.5391
 6124TIP3    H218337   3.275   3.739   0.449  0.6518  0.0445  1.2776
 6125TIP3   OH218338   2.338   4.587   3.560 -0.5192  0.2591 -0.1364
 6125TIP3    H118339   2.349   4.517   3.624 -0.3980  1.2105  0.9083
 6125TIP3    H218340   2.314   4.664   3.611 -1.3817  0.8263 -1.3304
 6126TIP3   OH218341   6.389   5.367   3.356 -0.0991  0.2319  0.5095
 6126TIP3    H118342   6.389   5.385   3.262 -0.1592  1.8375  0.7829
 6126TIP3    H218343   6.357   5.448   3.396  2.2033  0.5056  2.0450
 6127TIP3   OH218344   5.091   0.321   4.707 -0.1800  0.2656  0.2376
 6127TIP3    H118345   5.065   0.359   4.622  1.2601  1.2040  0.1780
 6127TIP3    H218346   5.081   0.227   4.695 -1.6559  0.4685 -0.3855
 6128TIP3   OH218347   6.903   5.457   0.049  0.1700 -0.6631 -0.4207
 6128TIP3    H118348   6.942   5.527  -0.003  0.2686  0.3770  1.0030
 6128TIP3    H218349   6.810   5.478   0.052  0.5543  1.1397  2.4185
 6129TIP3   OH218350   2.896   6.498   4.966 -0.1948  0.4941  0.3858
 6129TIP3    H118351   2.830   6.557   5.002 -0.7448  0.1561 -0.0570
 6129TIP3    H218352   2.940   6.550   4.899 -0.0167  0.7136  0.6672
 6130TIP3   OH218353   5.593   0.536   5.736 -0.6753 -0.2686  0.4728
 6130TIP3    H118354   5.575   0.593   5.660 -0.8056 -2.9690 -1.6816
 6130TIP3    H218355   5.550   0.580   5.809 -0.5801  2.4801 -0.9631
 6131TIP3   OH218356   0.128   0.763   2.532 -1.1712 -0.0478 -0.0050
 6131TIP3    H118357   0.072   0.839   2.549 -0.6105  0.5974 -0.9578
 6131TIP3    H218358   0.096   0.696   2.593 -0.3361  1.5765  2.3730
 6132TIP3   OH218359   2.139   6.038   0.789  0.1438  0.4747 -0.1084
 6132TIP3    H118360   2.143   6.070   0.879 -2.5271  0.8906 -0.0595
 6132TIP3    H218361   2.047   6.016   0.775  0.5497  0.0377 -2.6257
 6133TIP3   OH218362   2.482   3.403   1.923 -0.2168  0.0942  0.4522
 6133TIP3    H118363   2.416   3.451   1.974 -0.3199 -1.0655  1.4671
 6133TIP3    H218364   2.466   3.429   1.832 -2.0189 -0.0537  0.6836
 6134TIP3   OH218365   2.365   5.074   4.867  0.0449 -0.0896 -0.4122
 6134TIP3    H118366   2.295   5.072   4.801 -1.0419 -0.8851  0.7269
 6134TIP3    H218367   2.332   5.132   4.935  1.2783  0.9393 -0.6588
 6135TIP3   OH218368   5.417   4.859   2.617  0.1130 -0.3930  0.1055
 6135TIP3    H118369   5.443   4.767   2.605 -0.4353 -0.4899 -0.4158
 6135TIP3    H218370   5.476   4.892   2.685  0.5793 -1.0209  0.0197
 6136TIP3   OH218371   2.108   4.861   5.416 -0.3452 -0.2209 -0.8218
 6136TIP3    H118372   2.188   4.834   5.460  0.7339  0.7514 -2.1156
 6136TIP3    H218373   2.071   4.779   5.381  2.3812 -0.3432 -3.9059
 6137TIP3   OH218374   3.003   1.291   4.830 -0.6561  0.0846  0.9871
 6137TIP3    H118375   3.092   1.321   4.811 -1.0117  0.8126  0.4260
 6137TIP3    H218376   2.947   1.362   4.799 -1.5504 -1.2277 -0.5595
 6138TIP3   OH218377   4.208   3.451   1.954 -0.3014 -0.3242  0.1770
 6138TIP3    H118378   4.302   3.436   1.960 -0.3878 -1.2650 -0.6930
 6138TIP3    H218379   4.170   3.388   2.015 -0.3987 -0.2519  0.1915
 6139TIP3   OH218380   1.668   0.629   4.579  0.6708 -0.1637  0.3756
 6139TIP3    H118381   1.739   0.576   4.613  0.9786 -0.3321 -0.5135
 6139TIP3    H218382   1.591   0.573   4.585  0.7392 -0.2275  0.6835
 6140TIP3   OH218383   6.889   2.321   3.181  0.5055  0.0796 -0.0475
 6140TIP3    H118384   6.804   2.294   3.148  0.9486  1.7933 -2.9155
 6140TIP3    H218385   6.949   2.253   3.150  0.8893  1.5838 -2.8645
 6141TIP3   OH218386   1.128   2.509   1.921  0.3646 -0.3664  0.4190
 6141TIP3    H118387   1.168   2.507   2.007 -0.5121  0.9495  0.8821
 6141TIP3    H218388   1.041   2.545   1.935  0.1361 -0.2907 -0.9863
 6142TIP3   OH218389   1.185   2.656   3.633  0.0736 -0.4491  0.0802
 6142TIP3    H118390   1.264   2.624   3.677  0.8217  0.6778 -0.3828
 6142TIP3    H218391   1.114   2.639   3.694  1.2301  2.2860  2.4482
 6143TIP3   OH218392   5.286   1.003   2.114 -0.2045  0.0678 -0.4714
 6143TIP3    H118393   5.192   1.014   2.131 -0.4878 -2.1942 -0.2035
 6143TIP3    H218394   5.305   0.914   2.143  2.0022  0.3854 -0.7485
 6144TIP3   OH218395   1.689   1.185   5.555  0.9752  0.3254  0.3505
 6144TIP3    H118396   1.675   1.160   5.647  2.8255 -0.8829  0.3565
 6144TIP3    H218397   1.759   1.128   5.525 -0.9731 -0.7737 -2.4863
 6145TIP3   OH218398   7.062   4.086   4.275  0.4027  0.1988 -0.5854
 6145TIP3    H118399   7.040   3.996   4.299 -0.8533  0.0683 -2.0395
 6145TIP3    H218400   6.977   4.130   4.268  1.0242  1.9770  1.6505
 6146TIP3   OH218401   1.321   6.225   4.199  0.5345 -0.7017  0.2631
 6146TIP3    H118402   1.362   6.277   4.129 -0.9507 -0.8095 -0.7372
 6146TIP3    H218403   1.295   6.289   4.265  1.0154 -0.4748  0.2361
 6147TIP3   OH218404   6.745   4.039   3.660  0.0454 -0.0368 -0.5589
 6147TIP3    H118405   6.776   3.949   3.646  0.0782  0.0042 -0.7547
 6147TIP3    H218406   6.808   4.077   3.721 -1.3951 -0.9535  1.6197
 6148TIP3   OH218407   4.763   2.645   2.903  0.5797  0.0260  0.3439
 6148TIP3    H118408   4.814   2.581   2.854 -0.1232  0.2878 -0.7430
 6148TIP3    H218409   4.828   2.692   2.955  1.4955  0.5504 -1.2332
 6149TIP3   OH218410   7.067   0.071   4.725 -0.0188  0.4017  0.4850
 6149TIP3    H118411   7.142   0.037   4.675  0.2707 -0.5844  1.5624
 6149TIP3    H218412   7.044   0.000   4.785 -1.2912  1.0214  0.7440
 6150TIP3   OH218413   5.023   3.461   0.518 -0.6966 -0.0563  0.4139
 6150TIP3    H118414   4.950   3.477   0.578  1.4549 -0.4177  3.3392
 6150TIP3    H218415   5.094   3.515   0.552  0.9648 -1.1196 -1.1895
 6151TIP3   OH218416   6.116   6.083   5.344 -0.1482  0.1665 -0.5113
 6151TIP3    H118417   6.073   6.083   5.259  0.1423 -0.1709 -0.6577
 6151TIP3    H218418   6.207   6.109   5.325  0.1246 -0.7012 -0.4092
 6152TIP3   OH218419   2.342   6.063   1.605 -0.3658 -0.2678  0.3689
 6152TIP3    H118420   2.316   6.156   1.608  0.0164 -0.1090 -0.9916
 6152TIP3    H218421   2.421   6.061   1.552 -0.7297 -1.4613 -0.1551
 6153TIP3   OH218422   3.610   0.876   3.793 -0.2395 -0.2572 -0.5256
 6153TIP3    H118423   3.595   0.873   3.887 -0.1149 -0.0238 -0.4991
 6153TIP3    H218424   3.578   0.791   3.761 -0.3218 -0.3183 -0.2811
 6154TIP3   OH218425  -0.018   0.264   3.849 -0.0900 -0.5446  0.6544
 6154TIP3    H118426   0.017   0.329   3.911  2.4228 -0.2630 -0.9043
 6154TIP3    H218427   0.002   0.179   3.890 -0.1974 -0.3600  1.0969
 6155TIP3   OH218428   6.705   1.612   3.595  0.7129  0.6342 -0.1334
 6155TIP3    H118429   6.661   1.548   3.651 -0.7940  0.7846 -1.0878
 6155TIP3    H218430   6.677   1.590   3.507  2.7508  0.6391 -0.8439
 6156TIP3   OH218431   3.047   5.579   0.875  0.1245  0.3489  0.0015
 6156TIP3    H118432   3.112   5.622   0.932  0.8333 -1.8303  0.9480
 6156TIP3    H218433   3.083   5.492   0.860 -1.5902 -0.1825 -1.2362
 6157TIP3   OH218434   4.216   0.936   3.505  0.0414  0.0415  0.0870
 6157TIP3    H118435   4.303   0.965   3.477  0.1692 -0.7953 -0.4136
 6157TIP3    H218436   4.181   1.010   3.554  0.4366  0.9600 -0.9749
 6158TIP3   OH218437   5.663   3.130   5.797 -0.3746 -0.0075 -0.1316
 6158TIP3    H118438   5.736   3.103   5.851 -1.1169  0.1296  0.9650
 6158TIP3    H218439   5.590   3.141   5.858 -0.7350  2.0805 -0.8510
 6159TIP3   OH218440   2.021   3.134   4.577  0.0723 -0.1387 -0.1440
 6159TIP3    H118441   2.104   3.127   4.531  1.3727  1.0875  1.8624
 6159TIP3    H218442   2.030   3.074   4.652 -0.9351 -0.1283  0.0078
 6160TIP3   OH218443   6.048   6.722   2.283 -0.0303  0.0118  0.3455
 6160TIP3    H118444   6.075   6.682   2.366 -1.1521  0.1294  0.7810
 6160TIP3    H218445   6.053   6.816   2.299 -2.4660  0.1005  1.1092
 6161TIP3   OH218446   6.791   2.191   2.028  0.2403 -0.3159  0.6792
 6161TIP3    H118447   6.740   2.119   2.064  0.1781 -0.2644  0.6948
 6161TIP3    H218448   6.847   2.219   2.100  1.4813 -1.4513  0.1819
 6162TIP3   OH218449   5.903   1.175   4.287  0.2158 -0.6988  0.0682
 6162TIP3    H118450   5.906   1.239   4.358 -0.2085 -0.7535  0.1374
 6162TIP3    H218451   5.939   1.095   4.325 -2.9758 -1.7200  1.2777
 6163TIP3   OH218452   1.772   4.825   2.569  0.3501 -0.0535 -0.5935
 6163TIP3    H118453   1.763   4.911   2.612  1.1277  0.4482 -1.4039
 6163TIP3    H218454   1.866   4.814   2.556  0.1294  0.1557 -2.7901
 6164TIP3   OH218455   0.073   1.008   2.162 -0.3458  0.0238 -0.1034
 6164TIP3    H118456   0.097   1.066   2.090 -0.1674  0.3029  0.1809
 6164TIP3    H218457   0.063   1.066   2.238  0.7279 -0.4235  0.3935
 6165TIP3   OH218458   0.828   4.770   4.584  0.0011  0.0217 -0.1023
 6165TIP3    H118459   0.903   4.727   4.625 -0.5789  0.5349  1.5838
 6165TIP3    H218460   0.867   4.823   4.513  0.8332 -2.2349 -1.4290
 6166TIP3   OH218461   5.886   0.831   4.283  0.7152 -0.1013  0.0651
 6166TIP3    H118462   5.820   0.762   4.278  0.0275  0.3604  1.8686
 6166TIP3    H218463   5.840   0.904   4.324  0.6275  2.4604 -4.0437
 6167TIP3   OH218464   5.980   2.443   2.507 -0.3884 -0.2493  0.1623
 6167TIP3    H118465   5.923   2.478   2.576  0.0417  1.2987 -0.2449
 6167TIP3    H218466   5.929   2.452   2.427  0.2296  0.6996 -0.1349
 6168TIP3   OH218467   4.462   4.055   0.262 -0.2279 -0.1824  0.3260
 6168TIP3    H118468   4.518   3.993   0.216  0.6407  0.3416  0.6516
 6168TIP3    H218469   4.495   4.057   0.352 -2.8705 -2.3721  1.5109
 6169TIP3   OH218470   2.775   1.417   2.052 -0.4234 -0.5335 -0.1612
 6169TIP3    H118471   2.690   1.391   2.017 -0.9779 -0.5268  1.1467
 6169TIP3    H218472   2.760   1.430   2.145 -0.0415  3.6203 -0.4809
 6170TIP3   OH218473   5.019   5.067   4.615 -0.3852  0.3964  0.0313
 6170TIP3    H118474   5.060   5.074   4.701  2.4976  1.4215 -1.2942
 6170TIP3    H218475   5.052   4.984   4.579  2.8760  2.3362 -2.0046
 6171TIP3   OH218476   3.867   2.512   1.550  0.3715  0.4917  0.0192
 6171TIP3    H118477   3.890   2.428   1.588 -1.2194  0.2855  0.6192
 6171TIP3    H218478   3.944   2.539   1.500  1.4726 -0.5601  1.1151
 6172TIP3   OH218479   4.188   4.470   3.437 -0.5697  0.2028 -0.3894
 6172TIP3    H118480   4.180   4.403   3.369  2.7275 -0.3152 -0.4589
 6172TIP3    H218481   4.103   4.471   3.480 -1.7988 -1.6317 -2.5256
 6173TIP3   OH218482   2.687   4.365   1.873  0.4449 -0.7625 -0.0122
 6173TIP3    H118483   2.714   4.282   1.913 -0.0302 -0.5008  0.8751
 6173TIP3    H218484   2.743   4.431   1.913 -1.0644 -0.2894  1.4354
 6174TIP3   OH218485   1.511   1.098   4.684 -0.3410 -0.4270  0.0015
 6174TIP3    H118486   1.462   1.119   4.763 -0.8537 -1.0048 -0.1628
 6174TIP3    H218487   1.557   1.017   4.704  0.4111  0.0022  0.0848
 6175TIP3   OH218488   0.301   3.338   4.416  0.4983  1.0581 -0.7991
 6175TIP3    H118489   0.364   3.396   4.458  0.1749 -0.0575  1.3990
 6175TIP3    H218490   0.355   3.273   4.371  1.0428 -0.3016  1.6508
 6176TIP3   OH218491   4.007   0.186   2.779  0.2926 -0.5213 -0.0247
 6176TIP3    H118492   3.989   0.261   2.722 -0.2474 -2.1617 -2.0990
 6176TIP3    H218493   4.066   0.131   2.728  3.1490 -0.2103  2.6074
 6177TIP3   OH218494   7.232   5.392   3.942 -0.1612  0.6507  0.4031
 6177TIP3    H118495   7.246   5.472   3.993  0.9940  1.5011 -1.1414
 6177TIP3    H218496   7.150   5.356   3.975  0.5008  1.1760  2.7744
 6178TIP3   OH218497   5.676   1.225   3.683 -0.4104  0.0238 -0.2995
 6178TIP3    H118498   5.630   1.188   3.607  0.0233  0.7613 -0.9419
 6178TIP3    H218499   5.614   1.218   3.755 -2.6541  3.3237 -1.6576
 6179TIP3   OH218500   0.583   4.543   3.693 -0.2472  0.3831  0.2496
 6179TIP3    H118501   0.601   4.451   3.672 -1.5042 -0.1210  1.2356
 6179TIP3    H218502   0.666   4.576   3.728  0.5904  0.0167 -1.2999
 6180TIP3   OH218503   5.623   4.806   1.593  0.5253 -0.0116 -0.1142
 6180TIP3    H118504   5.534   4.784   1.619  0.3006 -0.7400 -1.4231
 6180TIP3    H218505   5.613   4.887   1.542  0.5262 -0.4370 -0.7948
 6181TIP3   OH218506   4.251   6.228   1.203  0.2292 -0.0392  0.5937
 6181TIP3    H118507   4.298   6.311   1.201 -0.4974  0.3876  0.8535
 6181TIP3    H218508   4.161   6.251   1.179  0.1752 -0.8608 -0.0229
 6182TIP3   OH218509   6.372   3.448   5.234 -0.9320  0.3650 -0.1918
 6182TIP3    H118510   6.348   3.418   5.322 -0.2132  1.7113  0.4941
 6182TIP3    H218511   6.454   3.495   5.247 -0.6642  0.3242 -1.6499
 6183TIP3   OH218512   0.022   6.452   5.873 -0.0282  0.8365  0.2058
 6183TIP3    H118513  -0.007   6.370   5.914  2.4908  0.6399  1.8096
 6183TIP3    H218514   0.049   6.426   5.784  0.8509 -0.1298  0.7327
 6184TIP3   OH218515   5.179   5.758   1.239 -0.6913  0.2517 -0.1023
 6184TIP3    H118516   5.159   5.670   1.206  0.9147 -0.4770  0.7287
 6184TIP3    H218517   5.153   5.756   1.331  0.0913  0.3535  0.1313
 6185TIP3   OH218518   0.094   5.580   0.077 -0.1257  0.3620 -0.7958
 6185TIP3    H118519   0.155   5.653   0.063 -0.5009  0.5396 -1.5644
 6185TIP3    H218520   0.148   5.510   0.112  0.2215  1.0453  0.0649
 6186TIP3   OH218521   3.702   4.351   1.743  0.0960 -0.0658  0.2160
 6186TIP3    H118522   3.706   4.257   1.731 -0.2291 -0.0986  0.3530
 6186TIP3    H218523   3.625   4.365   1.799 -0.9248  0.4255 -1.2654
 6187TIP3   OH218524   5.079   5.247   1.646 -0.1715 -0.0671 -0.3079
 6187TIP3    H118525   5.020   5.178   1.618  0.2465 -0.7579  0.4666
 6187TIP3    H218526   5.062   5.257   1.740 -0.1654  0.8198 -0.3907
 6188TIP3   OH218527   0.794   4.360   1.578  0.7182  0.0154  0.0166
 6188TIP3    H118528   0.865   4.313   1.621  2.4930  2.4609 -0.0697
 6188TIP3    H218529   0.755   4.295   1.518  2.7805 -1.4430  0.1574
 6189TIP3   OH218530   4.309   4.851   1.881  0.3057  0.3061 -0.5819
 6189TIP3    H118531   4.404   4.843   1.892  0.4052 -0.5372 -1.8212
 6189TIP3    H218532   4.273   4.777   1.930  0.3336  0.1991 -0.7234
 6190TIP3   OH218533   2.498   2.513   4.979  0.1068 -0.2007 -0.5274
 6190TIP3    H118534   2.443   2.585   5.010  2.1254  0.1911  2.5091
 6190TIP3    H218535   2.443   2.435   4.989 -0.8488  0.4884 -0.2828
 6191TIP3   OH218536   2.366   1.581   1.310 -0.1218 -0.3458  0.6064
 6191TIP3    H118537   2.282   1.538   1.326 -0.6828  0.6671  0.4006
 6191TIP3    H218538   2.395   1.545   1.226 -1.8652  1.5872 -0.9014
 6192TIP3   OH218539   4.381   2.843   0.573  0.0154 -0.2904 -0.4255
 6192TIP3    H118540   4.348   2.781   0.637 -1.2680  0.6772 -0.1144
 6192TIP3    H218541   4.442   2.899   0.623 -1.0484  0.5181  0.0098
 6193TIP3   OH218542   1.094   4.456   5.077  0.0853  0.4533  0.4375
 6193TIP3    H118543   1.166   4.477   5.018  0.0076  1.6236  0.7309
 6193TIP3    H218544   1.082   4.361   5.069 -0.7536  0.7032 -2.4043
 6194TIP3   OH218545   1.352   4.375   2.190 -0.4179  0.4101  0.2352
 6194TIP3    H118546   1.349   4.427   2.270 -1.6447  0.1440  0.3777
 6194TIP3    H218547   1.355   4.284   2.221 -2.2615  0.2316  0.0301
 6195TIP3   OH218548   3.074   6.650   4.812 -0.1588  0.0625 -0.2851
 6195TIP3    H118549   3.157   6.619   4.774  0.0304 -1.1665  1.0394
 6195TIP3    H218550   3.088   6.743   4.826  1.9041 -0.4679  1.9414
 6196TIP3   OH218551   5.635   2.776   1.124  0.0172 -0.1971 -0.2363
 6196TIP3    H118552   5.694   2.759   1.197 -0.0238  1.6107  0.2609
 6196TIP3    H218553   5.552   2.737   1.151 -0.1572  0.9643  0.9656
 6197TIP3   OH218554   1.382   0.335   0.997 -0.6376  0.1911  0.2695
 6197TIP3    H118555   1.434   0.397   0.946 -0.5189  0.4498  0.6990
 6197TIP3    H218556   1.293   0.347   0.965 -0.2562 -1.3296 -1.5500
 6198TIP3   OH218557   7.131   3.201   3.226  0.0801  0.5156 -0.3764
 6198TIP3    H118558   7.087   3.145   3.161  0.0147  1.6686 -1.3480
 6198TIP3    H218559   7.095   3.288   3.211  2.8654  1.5967 -1.4158
 6199TIP3   OH218560   1.215   1.323   5.743 -0.5189 -0.6270  0.0243
 6199TIP3    H118561   1.283   1.360   5.687 -0.0114 -0.6093  0.6449
 6199TIP3    H218562   1.261   1.296   5.822 -1.3284 -0.0546  0.7109
 6200TIP3   OH218563   1.889   5.513   1.807  0.1320 -0.4152  0.4185
 6200TIP3    H118564   1.889   5.581   1.739 -1.5476 -0.3678  0.4260
 6200TIP3    H218565   1.839   5.441   1.768  0.5866 -1.0494  0.9933
 6201TIP3   OH218566   5.626   6.512   2.536 -0.3119 -0.0511 -0.1017
 6201TIP3    H118567   5.631   6.464   2.453  2.9511 -2.0924  1.0722
 6201TIP3    H218568   5.589   6.450   2.598  0.6205  0.1757  0.7055
 6202TIP3   OH218569   2.715   2.086   1.046  0.2337 -0.0601  0.0959
 6202TIP3    H118570   2.660   2.151   1.091 -0.4228  0.5483 -1.5179
 6202TIP3    H218571   2.798   2.131   1.032  0.4035 -0.2142  0.5981
 6203TIP3   OH218572   2.301   1.303   1.336  0.5618  0.4956  0.2283
 6203TIP3    H118573   2.323   1.316   1.244  0.6806 -0.5149  0.1040
 6203TIP3    H218574   2.342   1.220   1.359  0.5198  0.7340  1.1954
 6204TIP3   OH218575   5.968   3.404   3.173 -0.3193  0.6648 -0.4332
 6204TIP3    H118576   5.893   3.355   3.138 -0.6583  0.2244  0.8528
 6204TIP3    H218577   6.014   3.435   3.095 -2.1835  1.5157 -1.2690
 6205TIP3   OH218578   1.423   5.145   1.203 -0.0773  0.0952 -0.2453
 6205TIP3    H118579   1.506   5.105   1.177 -0.4233 -0.7709 -0.0363
 6205TIP3    H218580   1.360   5.114   1.137 -0.0116  1.7318 -1.1312
 6206TIP3   OH218581   4.842   1.769   4.274  0.1127 -0.1711 -0.0367
 6206TIP3    H118582   4.885   1.688   4.299  1.5859  0.2101 -1.1830
 6206TIP3    H218583   4.895   1.838   4.315 -1.3582  0.2450  1.2816
 6207TIP3   OH218584   2.039   3.855   5.302 -0.4319 -0.0519 -0.2560
 6207TIP3    H118585   2.118   3.910   5.296 -0.7467  0.3076 -1.4850
 6207TIP3    H218586   1.968   3.917   5.319 -0.4578 -0.3807  0.8945
 6208TIP3   OH218587   4.132   2.520   1.474 -0.1177 -0.1015 -0.6628
 6208TIP3    H118588   4.200   2.454   1.460 -1.1600 -1.4764  0.3872
 6208TIP3    H218589   4.178   2.603   1.472  2.2138 -1.0738  2.9426
 6209TIP3   OH218590   3.738   1.817   2.527  0.5097  0.0974 -0.0397
 6209TIP3    H118591   3.675   1.881   2.560  0.5570 -1.1622  2.7206
 6209TIP3    H218592   3.762   1.850   2.441 -2.4254  1.6757 -0.3994
 6210TIP3   OH218593   4.704   6.202   3.635 -0.4082 -0.0375 -0.6737
 6210TIP3    H118594   4.661   6.278   3.595 -0.7737 -0.3058 -0.7963
 6210TIP3    H218595   4.653   6.186   3.715  0.6666  0.8531  0.2268
 6211TIP3   OH218596   4.878   0.589   1.464 -0.3706 -0.4688  0.5318
 6211TIP3    H118597   4.877   0.666   1.521 -0.1467  0.4208 -0.6029
 6211TIP3    H218598   4.814   0.610   1.396  1.1542 -0.3474 -0.9431
 6212TIP3   OH218599   0.743   6.315   1.661  0.8253  0.0422  0.6996
 6212TIP3    H118600   0.809   6.260   1.703  0.2410 -1.7635 -0.6291
 6212TIP3    H218601   0.793   6.366   1.596  0.9403 -1.5311 -0.5074
 6213TIP3   OH218602   2.958   3.413   2.194  0.1644  0.6135  0.2502
 6213TIP3    H118603   2.864   3.397   2.196  0.2873 -0.3718 -0.5596
 6213TIP3    H218604   2.978   3.425   2.101  0.9983 -0.3920  0.2749
 6214TIP3   OH218605   3.708   0.931   0.688  0.0325  0.1345 -0.3263
 6214TIP3    H118606   3.637   0.867   0.682  1.1565 -1.2759  0.5821
 6214TIP3    H218607   3.769   0.892   0.751 -0.1388  2.9999  1.8404
 6215TIP3   OH218608   0.176   5.959   4.156  0.3147 -0.3753  0.1282
 6215TIP3    H118609   0.109   6.026   4.168  1.5203  0.8042  0.4775
 6215TIP3    H218610   0.200   5.965   4.064  2.5826  1.8681  0.7590
 6216TIP3   OH218611   2.497   6.370   0.528  0.5780  0.0743  0.0243
 6216TIP3    H118612   2.458   6.289   0.494  2.1963 -0.6975 -0.1008
 6216TIP3    H218613   2.523   6.349   0.617 -0.4836  1.0041  0.5752
 6217TIP3   OH218614   1.370   3.643   4.224 -0.1892 -0.2608  0.2520
 6217TIP3    H118615   1.361   3.586   4.148  1.9745 -1.2222  0.6180
 6217TIP3    H218616   1.314   3.604   4.291 -0.2685 -0.7910 -0.1225
 6218TIP3   OH218617   4.601   5.399   5.797 -0.2539  0.0043  0.1574
 6218TIP3    H118618   4.687   5.357   5.797 -1.1385 -1.9543  0.9604
 6218TIP3    H218619   4.568   5.386   5.886 -1.3589  0.7277 -0.1268
 6219TIP3   OH218620   4.408   6.675   0.961 -0.2788  0.3825 -0.6653
 6219TIP3    H118621   4.462   6.754   0.955  1.9089 -0.9143  0.5104
 6219TIP3    H218622   4.417   6.634   0.875 -0.1275  0.6141 -0.7620
 6220TIP3   OH218623   4.258   1.877   1.440  0.2975 -0.0377 -0.3631
 6220TIP3    H118624   4.325   1.848   1.503 -1.2103 -0.6519  1.0323
 6220TIP3    H218625   4.221   1.796   1.405 -0.2291  0.2753 -0.5426
 6221TIP3   OH218626   5.790   6.313   5.113  0.2543 -0.1538  0.0690
 6221TIP3    H118627   5.818   6.392   5.159 -0.5258  0.0684  0.1728
 6221TIP3    H218628   5.698   6.301   5.138 -0.0817 -0.2399 -1.1312
 6222TIP3   OH218629   1.255   3.588   2.584  0.4057  0.4003  0.3175
 6222TIP3    H118630   1.193   3.658   2.563  0.1337  0.5013  1.4376
 6222TIP3    H218631   1.340   3.632   2.589  0.1020  0.8698  2.0305
 6223TIP3   OH218632   4.058   2.723   3.070  0.6614 -0.2798  0.1948
 6223TIP3    H118633   3.999   2.662   3.112  2.0797 -1.2055  0.9231
 6223TIP3    H218634   4.111   2.670   3.011  0.1497  0.6722 -1.1745
 6224TIP3   OH218635   1.139   2.235   1.441 -0.1527 -0.1506 -0.0133
 6224TIP3    H118636   1.105   2.267   1.525  0.4018 -0.0521  0.1818
 6224TIP3    H218637   1.118   2.141   1.441 -0.0007 -0.1883  0.3218
 6225TIP3   OH218638   3.174   6.526   1.441  0.9061  0.2302 -0.0394
 6225TIP3    H118639   3.108   6.493   1.501  0.6499 -0.7359 -0.8354
 6225TIP3    H218640   3.182   6.459   1.373  2.4062  0.5049 -0.1880
 6226TIP3   OH218641   0.700   0.373   2.879  0.1556  0.1170 -0.3294
 6226TIP3    H118642   0.748   0.313   2.936  0.7735  1.5521  0.7255
 6226TIP3    H218643   0.634   0.412   2.936 -0.8960 -0.2549 -1.2469
 6227TIP3   OH218644   5.888   0.974   3.049  0.4599  0.6703 -0.5250
 6227TIP3    H118645   5.867   0.920   3.125 -1.9851  2.8149  0.4856
 6227TIP3    H218646   5.895   0.912   2.977 -2.6231 -1.0806  0.4684
 6228TIP3   OH218647   2.608   0.430   4.067  0.7850 -0.2085 -0.4913
 6228TIP3    H118648   2.520   0.437   4.104  0.6555  0.8653 -0.9575
 6228TIP3    H218649   2.635   0.341   4.086 -1.0817 -1.1307 -1.8291
 6229TIP3   OH218650   1.223   5.342   3.140 -0.0535  0.0369  0.5120
 6229TIP3    H118651   1.226   5.436   3.158 -0.1862 -0.0971  1.2706
 6229TIP3    H218652   1.141   5.329   3.092 -0.0934  0.2878  0.5125
 6230TIP3   OH218653   1.080   4.732   0.995  0.9850  0.1881 -0.3134
 6230TIP3    H118654   1.044   4.788   1.064  1.1778  0.2564 -0.2682
 6230TIP3    H218655   1.020   4.745   0.921  0.4999 -0.2681 -0.0001
 6231TIP3   OH218656   0.157   1.118   4.040 -0.1477  0.0363 -0.2993
 6231TIP3    H118657   0.192   1.190   4.092 -2.1099 -0.2317  1.5571
 6231TIP3    H218658   0.119   1.058   4.104 -0.4640 -1.6123 -1.9229
 6232TIP3   OH218659   3.245   3.444   1.049  0.2790  0.1595  0.2543
 6232TIP3    H118660   3.283   3.368   1.005 -2.9537 -1.2983 -0.3261
 6232TIP3    H218661   3.236   3.510   0.980  0.0903 -0.1710 -0.0411
 6233TIP3   OH218662   2.185   0.905   2.351 -0.1322 -0.4566  0.1539
 6233TIP3    H118663   2.177   0.972   2.282  0.7309  0.6335  1.0781
 6233TIP3    H218664   2.239   0.837   2.311 -1.6427 -1.0055 -1.0677
 6234TIP3   OH218665   2.990   6.229   5.010 -0.0044  0.7991 -0.1526
 6234TIP3    H118666   2.983   6.323   4.996  1.3084  1.0506  0.7233
 6234TIP3    H218667   3.048   6.198   4.941  1.5591  1.0557  1.0067
 6235TIP3   OH218668   6.449   0.193   2.080 -0.1416  0.1113  0.1034
 6235TIP3    H118669   6.503   0.119   2.051 -0.4002 -0.2647  0.5710
 6235TIP3    H218670   6.364   0.177   2.038 -0.1958  0.1516  0.1990
 6236TIP3   OH218671   5.551   0.068   4.243 -0.0844 -0.6007  0.1195
 6236TIP3    H118672   5.476   0.061   4.184  0.0375  0.9413 -0.2512
 6236TIP3    H218673   5.623   0.028   4.194  0.3752  2.0064 -1.4943
 6237TIP3   OH218674   6.805   1.689   5.386 -0.4343 -0.6602  0.1797
 6237TIP3    H118675   6.855   1.767   5.362 -3.0612  1.2925  0.5378
 6237TIP3    H218676   6.814   1.684   5.481 -2.6176  1.1342  0.5815
 6238TIP3   OH218677   2.093   2.594   0.058 -0.2528 -0.3738  0.0758
 6238TIP3    H118678   2.070   2.615   0.148 -0.9086  1.2972 -0.4548
 6238TIP3    H218679   2.187   2.614   0.052 -0.3355  0.0720  0.2438
 6239TIP3   OH218680   4.894   4.465   4.166  0.1737 -0.2732  0.5376
 6239TIP3    H118681   4.816   4.494   4.213  1.1080  4.8276 -0.4240
 6239TIP3    H218682   4.967   4.487   4.224  1.0283 -1.1710 -0.1625
 6240TIP3   OH218683   0.367   3.875   2.159 -0.5324  0.4527 -0.5445
 6240TIP3    H118684   0.422   3.859   2.236  0.7954  0.6699 -1.4022
 6240TIP3    H218685   0.314   3.951   2.183 -0.9054 -0.1293  0.5342
 6241TIP3   OH218686   1.108   5.606   4.183  0.0833 -0.0129  0.6152
 6241TIP3    H118687   1.115   5.676   4.248 -1.3159  0.6710  0.0724
 6241TIP3    H218688   1.168   5.538   4.214  0.7769  1.0345  1.6556
 6242TIP3   OH218689   3.901   6.156   1.757  0.1045 -0.5544  0.2510
 6242TIP3    H118690   3.988   6.175   1.723 -0.0552  0.8029  0.5470
 6242TIP3    H218691   3.903   6.063   1.778  1.9159 -0.2968  1.4666
 6243TIP3   OH218692   2.463   5.488   4.987  0.2034  0.0353  0.8227
 6243TIP3    H118693   2.391   5.430   4.963 -1.1822  1.5161  1.2912
 6243TIP3    H218694   2.475   5.474   5.081  1.4440 -1.1414  0.5366
 6244TIP3   OH218695   2.978   2.396   3.271 -0.6600  0.0777  0.3319
 6244TIP3    H118696   2.990   2.393   3.176 -0.2584 -2.4875  0.3950
 6244TIP3    H218697   3.034   2.326   3.305 -0.1502  1.4559  2.5721
 6245TIP3   OH218698   6.466   3.653   0.325 -0.1854 -0.1546  0.2030
 6245TIP3    H118699   6.383   3.683   0.360 -0.7183  1.2423 -2.0614
 6245TIP3    H218700   6.526   3.727   0.337  0.0176 -0.1981 -0.5274
 6246TIP3   OH218701   4.421   4.541   1.168 -1.0353 -0.6809  0.4085
 6246TIP3    H118702   4.403   4.574   1.256  1.9026  0.5520  0.6734
 6246TIP3    H218703   4.349   4.574   1.114 -2.4261 -0.7252  2.1637
 6247TIP3   OH218704   0.316   3.682   3.627  0.7028 -0.6979  0.1769
 6247TIP3    H118705   0.343   3.702   3.537 -1.0084  2.5678  0.2395
 6247TIP3    H218706   0.220   3.686   3.623  0.6093  1.9730  2.5410
 6248TIP3   OH218707   2.546   1.510   0.092 -0.4327 -0.3018  0.0030
 6248TIP3    H118708   2.604   1.439   0.120 -0.6299 -0.8532 -0.9523
 6248TIP3    H218709   2.491   1.528   0.168 -0.8621 -1.6591  0.0265
 6249TIP3   OH218710   6.075   6.366   3.940  0.3471  0.2824 -0.2073
 6249TIP3    H118711   6.039   6.449   3.908  0.6763  0.6265  0.3032
 6249TIP3    H218712   6.121   6.389   4.020 -0.8570 -0.6572  0.7806
 6250TIP3   OH218713   1.747   2.653   2.691  0.4785  0.3582 -0.2114
 6250TIP3    H118714   1.709   2.568   2.711 -1.3439  0.9686 -0.9155
 6250TIP3    H218715   1.807   2.670   2.764  1.0828 -1.6169 -0.1965
 6251TIP3   OH218716   3.923   1.061   5.386  0.2282 -0.5894  0.1719
 6251TIP3    H118717   3.927   1.061   5.482  1.1226 -0.4153  0.1423
 6251TIP3    H218718   3.830   1.052   5.366 -0.2881  1.9601  1.0747
 6252TIP3   OH218719   6.118   3.679   5.375 -0.7942  0.1794 -0.0627
 6252TIP3    H118720   6.117   3.749   5.310  0.4035  0.6049  0.3553
 6252TIP3    H218721   6.205   3.684   5.415 -0.3584 -2.0604 -0.5787
 6253TIP3   OH218722   5.187   1.277   2.770  0.2606  0.3290  0.2409
 6253TIP3    H118723   5.237   1.323   2.837  1.3123  0.6715 -0.7368
 6253TIP3    H218724   5.236   1.292   2.689  0.6724 -2.5015 -0.1515
 6254TIP3   OH218725   5.536   5.947   2.846 -0.1901 -0.4632 -0.5633
 6254TIP3    H118726   5.472   5.927   2.914  0.8105  1.1248  0.9356
 6254TIP3    H218727   5.620   5.951   2.892  0.3633  1.9155 -1.5987
 6255TIP3   OH218728   4.930   1.078   1.919 -0.3738 -0.2319 -0.1952
 6255TIP3    H118729   4.951   1.092   1.827  1.3532 -0.1371  0.1752
 6255TIP3    H218730   4.959   0.989   1.937  0.1966  0.0713  0.4669
 6256TIP3   OH218731   1.073   0.770   5.531  0.8442 -0.3042 -0.1859
 6256TIP3    H118732   1.057   0.760   5.624  0.8357  3.2651  0.3351
 6256TIP3    H218733   0.986   0.765   5.491  0.5423  0.6355  0.3307
 6257TIP3   OH218734   5.996   3.612   1.289  0.6607  0.2091  0.3700
 6257TIP3    H118735   6.064   3.556   1.252  1.2676  0.7990  0.5683
 6257TIP3    H218736   5.921   3.553   1.304  0.8384 -0.2872 -0.5978
 6258TIP3   OH218737   1.085   5.262   1.980 -0.8589  0.3035 -0.2144
 6258TIP3    H118738   1.134   5.315   2.043 -0.5040 -0.8463  0.5031
 6258TIP3    H218739   1.134   5.271   1.898 -0.2263  0.2560  0.1552
 6259TIP3   OH218740   5.684   3.923   1.539  0.1433  0.4337  0.0184
 6259TIP3    H118741   5.677   3.850   1.601 -0.5435  0.3608 -0.1387
 6259TIP3    H218742   5.606   3.976   1.556  1.5937  2.2516  1.5244
 6260TIP3   OH218743   0.433   6.096   2.265  0.4430 -0.6651 -0.4892
 6260TIP3    H118744   0.431   6.159   2.194  0.2622 -0.4610 -0.3036
 6260TIP3    H218745   0.371   6.130   2.330  1.3778 -0.2872  0.2338
 6261TIP3   OH218746   3.580   5.737   3.430 -0.0215  0.0177 -0.0202
 6261TIP3    H118747   3.595   5.707   3.520 -0.7465 -1.7079 -0.4376
 6261TIP3    H218748   3.603   5.662   3.375 -0.9891  0.5428 -1.1954
 6262TIP3   OH218749   6.721   6.607   3.084 -0.8488  0.2591 -0.7784
 6262TIP3    H118750   6.670   6.644   3.156 -1.0562  0.3860 -0.9875
 6262TIP3    H218751   6.797   6.665   3.077 -0.9559  0.3954 -0.8256
 6263TIP3   OH218752   2.649   5.319   2.101 -0.0648 -0.1524  0.3633
 6263TIP3    H118753   2.638   5.359   2.187  0.3113 -1.3479  0.9866
 6263TIP3    H218754   2.744   5.320   2.086 -0.0384 -0.8572  0.4281
 6264TIP3   OH218755   1.249   0.032   5.422  0.1896 -0.0621  0.4288
 6264TIP3    H118756   1.317  -0.013   5.371 -0.2620 -1.5033  1.0387
 6264TIP3    H218757   1.234   0.114   5.375 -0.2421 -1.3273 -1.8309
 6265TIP3   OH218758   7.080   5.389   4.623 -0.0783 -0.0223  0.3325
 6265TIP3    H118759   6.990   5.393   4.657  0.0825 -1.5254  0.9917
 6265TIP3    H218760   7.101   5.296   4.622  0.6772  0.1157 -2.0425
 6266TIP3   OH218761   3.480   0.653   3.731 -0.3155  0.1105  0.3357
 6266TIP3    H118762   3.489   0.575   3.785 -1.3084 -0.0895  0.2260
 6266TIP3    H218763   3.452   0.621   3.646  0.0748  0.5248  0.0443
 6267TIP3   OH218764   4.330   5.947   1.167 -0.2273  0.4380 -0.6437
 6267TIP3    H118765   4.349   5.938   1.261 -1.4128 -0.5803 -0.4695
 6267TIP3    H218766   4.256   6.008   1.164 -0.4181  0.1944 -0.8876
 6268TIP3   OH218767   5.939   4.569   3.924  0.0766 -0.6441  0.3453
 6268TIP3    H118768   5.905   4.566   3.834  3.7391 -1.1438 -1.2004
 6268TIP3    H218769   5.870   4.614   3.974 -2.7597 -1.6539 -2.3325
 6269TIP3   OH218770   4.206   2.859   4.000  0.1862  0.2451 -0.7742
 6269TIP3    H118771   4.143   2.930   4.012  0.5643  0.4337  0.2679
 6269TIP3    H218772   4.165   2.784   4.041  0.6163  0.3643 -0.1051
 6270TIP3   OH218773   6.648   0.854   4.483 -0.3569  0.7476  0.3826
 6270TIP3    H118774   6.572   0.803   4.454  0.7085 -0.4329 -0.4382
 6270TIP3    H218775   6.681   0.896   4.404 -0.2092  1.3555  0.7548
 6271TIP3   OH218776   0.170   2.718   1.292 -0.3870  0.0518  0.1649
 6271TIP3    H118777   0.129   2.802   1.314 -1.2402 -0.3756  0.2349
 6271TIP3    H218778   0.264   2.735   1.300 -0.4948  1.2885 -0.8505
 6272TIP3   OH218779   5.612   2.158   0.925 -0.2281 -0.0525  0.1529
 6272TIP3    H118780   5.699   2.171   0.888 -0.7210  1.7326 -0.5260
 6272TIP3    H218781   5.627   2.146   1.019  0.6902  1.8594  0.3051
 6273TIP3   OH218782   0.729   5.766   1.433 -0.4298  0.1037 -0.5187
 6273TIP3    H118783   0.764   5.735   1.350  0.5496 -0.0591 -0.0637
 6273TIP3    H218784   0.799   5.818   1.471 -0.7996  0.0345  0.2832
 6274TIP3   OH218785   5.490   1.841   1.730  0.0335 -0.3535 -0.0908
 6274TIP3    H118786   5.456   1.824   1.643 -0.9486  3.2629 -0.5799
 6274TIP3    H218787   5.425   1.803   1.789  0.6421 -2.7186 -0.8365
 6275TIP3   OH218788   4.718   3.468   5.408  0.4964 -0.1271 -0.4392
 6275TIP3    H118789   4.775   3.483   5.484  0.5590 -0.2085 -0.4703
 6275TIP3    H218790   4.670   3.388   5.430  2.1539 -1.4758 -1.4567
 6276TIP3   OH218791   5.382   4.619   4.565 -0.3302 -0.0562  0.5212
 6276TIP3    H118792   5.318   4.552   4.543  1.3136 -1.6256  0.2403
 6276TIP3    H218793   5.378   4.627   4.660  0.8693 -2.1504  0.8149
 6277TIP3   OH218794   4.381   3.410   2.766 -0.4843 -0.0625  1.1722
 6277TIP3    H118795   4.307   3.433   2.709 -0.1508 -0.2210  0.6752
 6277TIP3    H218796   4.349   3.334   2.815  0.5945 -2.6163 -1.7244
 6278TIP3   OH218797   3.149   4.363   3.526 -0.4242 -0.2196  0.2976
 6278TIP3    H118798   3.094   4.440   3.536  0.2486  0.3937 -0.5057
 6278TIP3    H218799   3.236   4.398   3.508  0.1641 -1.1623  1.1825
 6279TIP3   OH218800   2.085   6.733   3.117 -0.0115  0.1307  0.0575
 6279TIP3    H118801   2.046   6.729   3.030  0.1664  0.2242 -0.0276
 6279TIP3    H218802   2.050   6.657   3.163 -2.7696  1.7930  1.0184
 6280TIP3   OH218803   4.607   3.260   5.551 -0.9328 -0.1740  0.4865
 6280TIP3    H118804   4.552   3.258   5.629 -0.3740  0.7463  0.9180
 6280TIP3    H218805   4.641   3.170   5.543  0.9551  0.2536  2.7347
 6281TIP3   OH218806   5.151   0.928   4.585 -0.4985 -0.6613  0.3925
 6281TIP3    H118807   5.173   0.911   4.677 -3.0010  2.7011  1.8134
 6281TIP3    H218808   5.101   0.851   4.559 -1.1487 -1.0079  2.4367
 6282TIP3   OH218809   1.334   2.344   0.983  0.3496 -0.7402  0.2770
 6282TIP3    H118810   1.407   2.315   1.038  0.3298 -2.9158 -0.7411
 6282TIP3    H218811   1.339   2.288   0.905 -1.2626  0.3779 -0.6825
 6283TIP3   OH218812   6.643   2.828   0.445 -0.0176 -0.2033  0.1315
 6283TIP3    H118813   6.638   2.846   0.539  1.8064 -2.1645  0.6853
 6283TIP3    H218814   6.735   2.838   0.423 -0.0943 -1.6031 -1.0084
 6284TIP3   OH218815   5.881   3.157   3.936 -0.7884 -0.2486 -0.3768
 6284TIP3    H118816   5.881   3.208   3.854  0.6537 -0.9247 -0.8219
 6284TIP3    H218817   5.965   3.177   3.977 -1.5419  0.1614  1.0167
 6285TIP3   OH218818   5.496   0.710   4.014 -0.1571  0.1019  0.0526
 6285TIP3    H118819   5.573   0.653   4.004  0.0456  0.3194  0.3343
 6285TIP3    H218820   5.528   0.798   3.991 -0.5550  0.0569 -0.7213
 6286TIP3   OH218821   5.814   5.891   4.036  0.5479 -0.2773 -0.3380
 6286TIP3    H118822   5.758   5.862   4.108 -0.2287 -0.7060 -1.1033
 6286TIP3    H218823   5.874   5.818   4.020  1.4654  0.2461  0.5928
 6287TIP3   OH218824   6.376   4.069   4.900 -0.6767 -0.1095 -0.0103
 6287TIP3    H118825   6.437   4.077   4.973  2.4012 -1.3397 -2.2146
 6287TIP3    H218826   6.337   3.982   4.910  1.0610 -1.0211 -0.6361
 6288TIP3   OH218827   6.442   6.754   1.397 -0.2125 -0.9855 -0.4506
 6288TIP3    H118828   6.499   6.818   1.438  0.3415 -0.3314 -2.1728
 6288TIP3    H218829   6.358   6.799   1.389  0.2439 -0.3319 -1.8915
 6289TIP3   OH218830   6.417   3.958   0.771 -0.2695 -0.0002  0.6241
 6289TIP3    H118831   6.456   3.946   0.857 -1.1226  1.1081  1.1839
 6289TIP3    H218832   6.437   4.049   0.748 -0.7621 -0.0376  0.0154
 6290TIP3   OH218833   2.103   1.007   2.081  0.0084  0.4612  0.3063
 6290TIP3    H118834   2.179   0.993   2.025 -0.1651 -0.4900  0.2848
 6290TIP3    H218835   2.028   0.983   2.027 -0.2545  0.7258  0.5485
 6291TIP3   OH218836   2.421   6.534   3.165  0.2797  0.1141  0.3921
 6291TIP3    H118837   2.419   6.565   3.074 -1.2483 -2.5530 -0.5996
 6291TIP3    H218838   2.476   6.456   3.162 -2.4526 -1.9501  0.9707
 6292TIP3   OH218839   1.312   1.635   5.367  0.2570  0.7278 -0.1535
 6292TIP3    H118840   1.240   1.614   5.308 -1.4660  1.0390  1.6961
 6292TIP3    H218841   1.293   1.724   5.397  1.1213  0.6214  0.7679
 6293TIP3   OH218842   4.116   6.548   4.546 -0.6927  0.1939 -0.0343
 6293TIP3    H118843   4.125   6.556   4.641  1.6418  1.3431 -0.2751
 6293TIP3    H218844   4.116   6.639   4.514 -0.3901 -0.1855 -1.1713
 6294TIP3   OH218845   0.370   1.812   2.266  0.0511  0.3071 -0.2800
 6294TIP3    H118846   0.461   1.781   2.269 -0.1861 -0.3144  1.4241
 6294TIP3    H218847   0.346   1.825   2.357 -1.8230 -0.2848 -0.6483
 6295TIP3   OH218848   6.776   2.860   5.442  0.2896 -0.8886  0.6750
 6295TIP3    H118849   6.739   2.921   5.506 -2.2893 -4.2105  2.7478
 6295TIP3    H218850   6.726   2.875   5.362 -2.4747 -2.0513  2.0381
 6296TIP3   OH218851   1.908   5.359   4.781  0.4696  0.0123 -0.5147
 6296TIP3    H118852   1.999   5.380   4.763  0.6761  0.6943  1.1036
 6296TIP3    H218853   1.904   5.352   4.877 -1.0429 -0.6386 -0.5954
 6297TIP3   OH218854   3.219   5.646   4.549  0.2713 -0.1369 -0.2279
 6297TIP3    H118855   3.287   5.640   4.482  1.0785 -0.7792  0.6299
 6297TIP3    H218856   3.203   5.555   4.575  0.3458  0.1382  0.8167
 6298TIP3   OH218857   4.596   5.265   3.569 -0.2221  0.1855  0.8011
 6298TIP3    H118858   4.626   5.178   3.594 -0.7602 -0.8718 -1.9150
 6298TIP3    H218859   4.624   5.322   3.641  0.3149 -2.1689  2.5569
 6299TIP3   OH218860   3.603   1.078   3.630  0.2870  0.3706  0.4789
 6299TIP3    H118861   3.535   1.079   3.563  2.0365  1.3702 -1.4299
 6299TIP3    H218862   3.581   1.004   3.686 -1.2689 -0.5532 -1.2341
 6300TIP3   OH218863   6.350   4.670   0.374  0.1321 -0.1209  0.0091
 6300TIP3    H118864   6.274   4.711   0.418  0.2790 -0.1680  0.3120
 6300TIP3    H218865   6.387   4.740   0.321 -0.2240 -0.1427 -0.2714
 6301TIP3   OH218866   2.049   4.873   0.720  0.2216  0.2192 -0.0482
 6301TIP3    H118867   2.125   4.853   0.666 -0.7408  0.2870 -1.4654
 6301TIP3    H218868   1.985   4.805   0.699 -0.4844  0.7331  0.3703
 6302TIP3   OH218869   4.924   4.674   5.814  0.1847  0.6230 -0.2080
 6302TIP3    H118870   4.881   4.697   5.896  0.4334  0.9755 -0.1748
 6302TIP3    H218871   4.854   4.675   5.749 -0.5354 -2.0965  0.3942
 6303TIP3   OH218872   3.070   6.815   2.223 -0.2400  0.4008  0.4420
 6303TIP3    H118873   2.979   6.825   2.196 -0.6388 -1.7426  0.7832
 6303TIP3    H218874   3.105   6.750   2.163  0.5251 -0.1416  1.4536
 6304TIP3   OH218875   6.265   1.055   5.848  0.2134  0.0151  0.5689
 6304TIP3    H118876   6.288   0.964   5.832 -0.8248 -0.1658 -0.0000
 6304TIP3    H218877   6.343   1.093   5.888  1.0915 -0.8142 -0.2997
 6305TIP3   OH218878   1.233   0.013   3.293 -0.4731 -0.0019 -0.5128
 6305TIP3    H118879   1.294   0.075   3.253 -0.8252  1.2773  0.8860
 6305TIP3    H218880   1.288  -0.062   3.317  0.3876  0.7209 -0.1618
 6306TIP3   OH218881   3.573   1.532   3.376  0.1183  0.1390 -0.6618
 6306TIP3    H118882   3.511   1.494   3.437  0.8313  0.8426  0.5469
 6306TIP3    H218883   3.654   1.482   3.389 -0.1297 -0.7157 -2.1586
 6307TIP3   OH218884   0.115   0.726   3.882 -0.4019  0.2560  0.7095
 6307TIP3    H118885   0.174   0.708   3.955 -0.5771 -0.6367  0.6398
 6307TIP3    H218886   0.122   0.821   3.868  1.8726  0.0447 -0.0227
 6308TIP3   OH218887   3.515   3.011   2.402 -0.3344 -0.4374  0.2746
 6308TIP3    H118888   3.479   2.924   2.419 -2.7283  0.7955  2.0471
 6308TIP3    H218889   3.439   3.064   2.377  0.7907  1.5542  0.8542
 6309TIP3   OH218890   3.842   2.103   4.856 -0.4112  0.4184  0.0580
 6309TIP3    H118891   3.836   2.111   4.761  0.2408 -0.7431 -0.1051
 6309TIP3    H218892   3.936   2.109   4.875 -0.6149  1.8455  0.7753
 6310TIP3   OH218893   1.468   1.415   0.594  0.6003  0.2227  0.3000
 6310TIP3    H118894   1.458   1.429   0.500 -1.0757 -3.1490 -0.1691
 6310TIP3    H218895   1.553   1.372   0.603  0.7444  0.5127  0.3444
 6311TIP3   OH218896   4.167   2.589   1.112 -0.6937  0.7782 -0.3349
 6311TIP3    H118897   4.134   2.610   1.025  0.4486  2.7246 -0.3658
 6311TIP3    H218898   4.231   2.520   1.098  2.0495  3.3461 -1.6585
 6312TIP3   OH218899   1.892   0.310   1.781 -0.2399 -0.0667 -0.8018
 6312TIP3    H118900   1.862   0.389   1.736 -1.3187 -0.4056 -0.7159
 6312TIP3    H218901   1.985   0.325   1.797 -0.6851  1.7464  0.3808
 6313TIP3   OH218902   1.222   4.519   1.137 -0.0689  0.3502 -0.1173
 6313TIP3    H118903   1.311   4.554   1.133  0.5187 -1.1787 -2.2599
 6313TIP3    H218904   1.170   4.577   1.081 -0.4925  1.3423  1.2684
 6314TIP3   OH218905   6.870   5.680   0.426  0.5113  0.0519 -0.5329
 6314TIP3    H118906   6.853   5.593   0.390 -1.8417  0.5540 -0.7898
 6314TIP3    H218907   6.958   5.701   0.397  1.5630 -2.6459  0.4102
 6315TIP3   OH218908   4.932   2.396   3.382 -0.7193  0.4675 -0.2320
 6315TIP3    H118909   4.906   2.306   3.402  0.8574 -0.0161 -0.2159
 6315TIP3    H218910   4.872   2.423   3.312 -0.8371 -0.8060 -0.6535
 6316TIP3   OH218911   5.494   0.060   3.080 -0.0169  0.6869  0.3269
 6316TIP3    H118912   5.437   0.040   3.006  0.2962 -3.3993  0.9540
 6316TIP3    H218913   5.439   0.113   3.138 -1.0901  1.8735 -1.6737
 6317TIP3   OH218914   5.322   6.720   4.091  0.0990 -0.0270 -0.5631
 6317TIP3    H118915   5.373   6.666   4.152  1.4115 -0.9857 -2.4329
 6317TIP3    H218916   5.233   6.721   4.128  1.4765  2.5219  3.3829
 6318TIP3   OH218917   6.333   3.595   4.974  0.1734  0.5105  0.0837
 6318TIP3    H118918   6.310   3.550   5.056 -0.1416 -0.0753 -0.3232
 6318TIP3    H218919   6.416   3.555   4.947  0.7510  1.3302  0.5750
 6319TIP3   OH218920   3.885   0.109   0.887 -0.2451  0.1089 -0.2463
 6319TIP3    H118921   3.819   0.057   0.931 -1.3229 -2.0978 -4.0519
 6319TIP3    H218922   3.935   0.150   0.958 -2.5479 -2.0573  2.8659
 6320TIP3   OH218923   2.555   0.264   1.939 -0.0251  0.3736 -0.1616
 6320TIP3    H118924   2.518   0.252   2.026 -0.5679 -0.1581 -0.4569
 6320TIP3    H218925   2.595   0.179   1.918  0.5044  0.6404 -0.2426
 6321TIP3   OH218926   4.685   6.771   3.779  0.1505 -0.2755 -0.0711
 6321TIP3    H118927   4.707   6.687   3.738 -0.6554 -0.4219 -0.2306
 6321TIP3    H218928   4.636   6.819   3.712  0.3231  0.1912  0.1323
 6322TIP3   OH218929   6.310   1.573   4.148  0.1765  0.1883  0.2527
 6322TIP3    H118930   6.262   1.519   4.085  1.0161  0.8113 -0.9406
 6322TIP3    H218931   6.357   1.637   4.095  3.2680 -1.0834  1.2165
 6323TIP3   OH218932   2.354   4.285   1.198  0.2571  0.2459  0.1044
 6323TIP3    H118933   2.405   4.264   1.276 -1.6062 -1.1135  1.0584
 6323TIP3    H218934   2.380   4.219   1.133 -0.0697 -0.2831  0.5001
 6324TIP3   OH218935   0.992   2.338   1.649 -0.1097  0.0273  0.5203
 6324TIP3    H118936   0.904   2.300   1.641  0.3186 -1.2869  1.7704
 6324TIP3    H218937   0.978   2.431   1.630 -1.5983 -0.3020 -0.2279
 6325TIP3   OH218938   3.174   2.669   1.731 -0.8616 -0.3195  0.0978
 6325TIP3    H118939   3.175   2.593   1.672 -1.0114 -1.1387  1.1249
 6325TIP3    H218940   3.159   2.632   1.818 -4.2587  1.1635  0.2676
 6326TIP3   OH218941   2.911   0.663   1.900  0.4662  0.7016  0.1729
 6326TIP3    H118942   2.956   0.722   1.962 -1.1937  2.3823 -0.1458
 6326TIP3    H218943   2.951   0.683   1.815  0.4984  0.7385  0.1964
 6327TIP3   OH218944   1.350   4.816   4.811 -0.2984  0.4882 -0.8399
 6327TIP3    H118945   1.390   4.728   4.811 -0.3214  0.4590  0.3912
 6327TIP3    H218946   1.349   4.841   4.903 -1.7106  1.1541 -1.0220
 6328TIP3   OH218947   1.042   3.114   1.433 -0.1631  0.5784  0.2861
 6328TIP3    H118948   1.086   3.107   1.348  0.9837  0.5359  0.8708
 6328TIP3    H218949   0.973   3.048   1.428 -1.0772  1.5799 -1.1572
 6329TIP3   OH218950   3.882   0.986   0.169 -0.3383 -0.3365  0.4567
 6329TIP3    H118951   3.890   1.081   0.166 -0.7909 -0.3032  0.0207
 6329TIP3    H218952   3.866   0.965   0.261  1.1047 -0.1204  0.7804
 6330TIP3   OH218953   1.871   5.563   2.435  0.3761 -0.6942 -0.0631
 6330TIP3    H118954   1.823   5.495   2.388  1.0023 -1.1112 -0.1022
 6330TIP3    H218955   1.868   5.536   2.527  0.1469 -0.4802 -0.0055
 6331TIP3   OH218956   6.655   0.932   4.232  0.0539  0.0038  0.0237
 6331TIP3    H118957   6.663   0.992   4.158 -0.3028  0.0842  0.0455
 6331TIP3    H218958   6.638   0.847   4.192  2.0135 -0.3829 -0.0672
 6332TIP3   OH218959   0.518   2.497   2.034 -0.0697 -0.4425 -0.3195
 6332TIP3    H118960   0.526   2.489   2.130  0.3755 -1.1702 -0.4095
 6332TIP3    H218961   0.582   2.566   2.012 -0.7579  0.3124 -0.0143
 6333TIP3   OH218962   5.219   6.794   3.204  0.1555  0.2749  0.2535
 6333TIP3    H118963   5.208   6.779   3.298 -0.7876  0.8242  0.2472
 6333TIP3    H218964   5.310   6.771   3.187 -0.1629 -1.7740  0.9206
 6334TIP3   OH218965   4.073   6.043   3.057 -0.1448  0.0420  0.2500
 6334TIP3    H118966   4.103   6.057   2.968  2.2587 -1.3705  0.7434
 6334TIP3    H218967   3.998   5.983   3.048 -0.0327  0.0455 -0.8287
 6335TIP3   OH218968   4.220   1.558   4.235  0.1541 -0.2649  0.5307
 6335TIP3    H118969   4.257   1.558   4.324 -0.2863 -1.0459  0.7177
 6335TIP3    H218970   4.177   1.643   4.227 -0.6786 -0.5809  1.4438
 6336TIP3   OH218971   0.649   2.914   2.156  0.2586  0.1734  0.0715
 6336TIP3    H118972   0.588   2.974   2.200 -0.1351  0.0406 -0.2914
 6336TIP3    H218973   0.712   2.972   2.112 -0.5997  0.3531 -0.9659
 6337TIP3   OH218974   6.529   6.192   4.732  0.4896  0.7105  0.7251
 6337TIP3    H118975   6.580   6.216   4.654  1.4409 -0.6320  0.9044
 6337TIP3    H218976   6.526   6.097   4.731  0.3767  0.6702  2.2569
 6338TIP3   OH218977   6.677   3.562   0.126  0.1543 -0.4244 -0.3366
 6338TIP3    H118978   6.636   3.545   0.210 -0.7520 -0.1158 -0.7051
 6338TIP3    H218979   6.662   3.654   0.109  0.7431 -0.3745 -0.6286
 6339TIP3   OH218980   5.014   0.714   1.226 -0.2606  0.0742  0.3761
 6339TIP3    H118981   5.071   0.677   1.294  1.1488 -0.0258 -0.8347
 6339TIP3    H218982   4.969   0.638   1.189 -1.9593  0.2360  1.9489
 6340TIP3   OH218983   5.248   5.547   0.927 -0.1616 -0.2865  0.4195
 6340TIP3    H118984   5.283   5.630   0.896 -0.3272  0.1368  1.3424
 6340TIP3    H218985   5.183   5.571   0.993  0.9728 -1.1834  1.9289
 6341TIP3   OH218986   0.984   2.364   2.299 -0.1995  0.1700 -0.5024
 6341TIP3    H118987   0.899   2.391   2.265 -0.2989  1.1238  0.4579
 6341TIP3    H218988   0.963   2.312   2.377  0.0731  3.0217  1.6401
 6342TIP3   OH218989   3.737   1.654   5.544 -0.1412  0.0897 -0.2998
 6342TIP3    H118990   3.832   1.643   5.549  0.0369  1.4485 -0.4176
 6342TIP3    H218991   3.704   1.613   5.624  0.3521 -1.9846 -1.0745
 6343TIP3   OH218992   5.446   4.050   1.597  0.2442 -0.0572  0.1873
 6343TIP3    H118993   5.413   4.032   1.509 -0.3014 -0.1571  0.4145
 6343TIP3    H218994   5.466   4.144   1.596 -0.7155  0.1592  0.2674
 6344TIP3   OH218995   4.839   3.020   4.692  0.5072 -0.1413 -0.0151
 6344TIP3    H118996   4.857   2.940   4.741 -1.0380 -0.9887 -0.7699
 6344TIP3    H218997   4.751   3.046   4.720  0.0131 -0.0625 -1.5622
 6345TIP3   OH218998   1.001   4.126   2.977 -0.2692 -0.2623  0.0833
 6345TIP3    H118999   0.935   4.169   3.030 -1.0592 -1.0991 -0.1889
 6345TIP3    H219000   0.952   4.085   2.906  0.4729 -1.3329  0.1540
 6346TIP3   OH219001   1.261   5.537   0.445  0.0498 -0.0600 -0.0336
 6346TIP3    H119002   1.308   5.497   0.372  1.2550  0.3971  0.4650
 6346TIP3    H219003   1.318   5.523   0.520 -0.1593  1.3669  0.4100
 6347TIP3   OH219004   3.532   0.502   0.524  0.4235 -0.4436  0.5829
 6347TIP3    H119005   3.624   0.478   0.518  0.6324  0.6797 -1.7551
 6347TIP3    H219006   3.493   0.470   0.443 -1.2367 -0.7761  1.4739
 6348TIP3   OH219007   4.351   3.828   2.629  0.2530 -0.1176  0.1413
 6348TIP3    H119008   4.417   3.834   2.559 -2.3715 -0.2071 -2.5429
 6348TIP3    H219009   4.386   3.763   2.689  4.0066  2.0091  0.6226
 6349TIP3   OH219010   0.146   3.940   5.059 -0.7543 -0.1809 -0.0923
 6349TIP3    H119011   0.184   3.928   5.147 -1.5239  0.8452  0.4090
 6349TIP3    H219012   0.052   3.930   5.073 -0.9395  0.6746 -0.6647
 6350TIP3   OH219013   1.757   5.904   4.123 -0.0073 -0.5439 -0.8150
 6350TIP3    H119014   1.664   5.920   4.139 -0.0289 -1.5182  0.1049
 6350TIP3    H219015   1.798   5.990   4.137 -0.6595 -0.2887 -0.4159
 6351TIP3   OH219016   1.475   1.836   1.264  0.9053  0.3954 -0.1696
 6351TIP3    H119017   1.533   1.764   1.238  1.5338  1.2213 -1.0876
 6351TIP3    H219018   1.421   1.852   1.186 -0.4438 -0.2165  0.5955
 6352TIP3   OH219019   5.294   0.579   0.185 -0.1472  0.7322  0.1164
 6352TIP3    H119020   5.387   0.570   0.163  0.0073  0.4000  0.8618
 6352TIP3    H219021   5.281   0.517   0.257 -1.1736  0.0634 -0.6134
 6353TIP3   OH219022   3.082   2.621   4.229  0.3544 -0.0090 -0.5725
 6353TIP3    H119023   3.123   2.658   4.151 -0.3216  1.0440 -0.4454
 6353TIP3    H219024   3.147   2.634   4.298  0.6491 -0.2535 -0.8016
 6354TIP3   OH219025   2.826   2.912   0.394  0.4892  0.2464  0.1490
 6354TIP3    H119026   2.830   2.818   0.413 -0.3212  0.2530  0.3967
 6354TIP3    H219027   2.903   2.949   0.435  0.0511 -0.1019  1.3115
 6355TIP3   OH219028   2.630   1.656   0.984 -0.2964 -0.0727  0.0768
 6355TIP3    H119029   2.659   1.729   1.038 -1.2699 -0.2338  0.8470
 6355TIP3    H219030   2.626   1.691   0.896  0.3531  0.4728  0.2512
 6356TIP3   OH219031   6.654   3.781   4.514  0.3905 -0.1516  0.2101
 6356TIP3    H119032   6.616   3.700   4.481  1.7700 -0.9201  0.4440
 6356TIP3    H219033   6.583   3.845   4.508 -0.4715 -1.1574 -0.7837
 6357TIP3   OH219034   5.069   6.752   5.546 -0.1027  0.5378  0.3032
 6357TIP3    H119035   5.050   6.790   5.461 -1.3267  1.3138  0.9028
 6357TIP3    H219036   5.161   6.724   5.540 -1.0932 -2.7049 -2.4839
 6358TIP3   OH219037   4.717   3.308   1.832  0.3484 -0.3479  0.0839
 6358TIP3    H119038   4.771   3.276   1.905 -0.2186  0.1350  0.7229
 6358TIP3    H219039   4.719   3.403   1.840  0.8815 -0.2533 -0.9817
 6359TIP3   OH219040   6.440   2.742   2.763  0.1649  0.0597 -0.3323
 6359TIP3    H119041   6.391   2.660   2.762  1.6178 -0.8474 -0.2251
 6359TIP3    H219042   6.494   2.737   2.842  0.6162  0.9176 -0.5670
 6360TIP3   OH219043   0.788   2.102   0.699  0.2966 -0.4400 -0.2220
 6360TIP3    H119044   0.693   2.097   0.709  0.2188 -1.3567 -1.2503
 6360TIP3    H219045   0.801   2.152   0.619  0.8062  2.8819  1.7292
 6361TIP3   OH219046   6.511   4.080   2.934 -0.2795 -0.2139  0.4150
 6361TIP3    H119047   6.549   4.155   2.889 -0.5823 -0.0078  0.4998
 6361TIP3    H219048   6.562   4.071   3.014 -0.1036 -0.2314  0.2999
 6362TIP3   OH219049   5.759   2.750   3.694  0.2718 -0.2547 -0.4663
 6362TIP3    H119050   5.786   2.733   3.784  2.3090 -0.7073 -1.1092
 6362TIP3    H219051   5.827   2.808   3.659  0.0839 -0.9193 -2.0119
 6363TIP3   OH219052   3.537   6.028   3.490 -0.3034  0.3265 -0.8874
 6363TIP3    H119053   3.492   5.948   3.463 -1.1219  0.7510 -0.7999
 6363TIP3    H219054   3.481   6.067   3.556  0.4915  0.5674 -0.3345
 6364TIP3   OH219055   1.121   0.272   2.249  0.0243 -0.2522  0.2483
 6364TIP3    H119056   1.144   0.309   2.334  0.2794 -1.0504  0.5386
 6364TIP3    H219057   1.158   0.332   2.185 -0.8110  0.7556  0.6900
 6365TIP3   OH219058   6.928   3.429   3.168  0.0734 -0.1715  0.0524
 6365TIP3    H119059   6.881   3.422   3.251 -0.4798  0.5574 -0.1896
 6365TIP3    H219060   6.861   3.412   3.101  0.7262 -1.8428 -0.2419
 6366TIP3   OH219061   6.095   3.918   0.292  0.5146 -0.4125 -0.0556
 6366TIP3    H119062   6.134   3.993   0.249 -1.1706  0.6140  0.1165
 6366TIP3    H219063   6.131   3.842   0.246  1.3979  0.5338 -0.9593
 6367TIP3   OH219064   3.981   3.581   3.793 -0.5119  0.5299  0.3683
 6367TIP3    H119065   3.897   3.577   3.747  0.4196  0.6911 -1.4586
 6367TIP3    H219066   4.001   3.675   3.797 -0.0897  0.4564  0.1026
 6368TIP3   OH219067   5.742   3.888   4.481 -0.1303 -0.1577 -0.4967
 6368TIP3    H119068   5.764   3.968   4.528 -0.8162 -0.9566  1.2786
 6368TIP3    H219069   5.765   3.818   4.542  0.5025 -1.3464 -2.0269
 6369TIP3   OH219070   7.142   5.292   1.919  0.1463  0.0683  0.1575
 6369TIP3    H119071   7.143   5.308   1.825  2.3186  1.5178  0.3450
 6369TIP3    H219072   7.103   5.370   1.958 -1.6581 -0.9290  0.4696
 6370TIP3   OH219073   1.808   4.612   4.944 -0.8325  0.0926 -0.1682
 6370TIP3    H119074   1.879   4.664   4.906 -0.4634 -0.1739  0.1521
 6370TIP3    H219075   1.851   4.554   5.006 -1.4496  0.7422  0.9035
 6371TIP3   OH219076   1.925   2.593   2.897  0.0006  0.6383 -0.0595
 6371TIP3    H119077   1.954   2.633   2.979  0.7528  1.7751 -0.8481
 6371TIP3    H219078   1.986   2.521   2.882 -0.2450  0.3185  0.4614
 6372TIP3   OH219079   6.538   1.081   3.758 -0.2531 -0.1310 -0.2999
 6372TIP3    H119080   6.606   1.077   3.692 -1.4092  2.5722 -1.8387
 6372TIP3    H219081   6.456   1.070   3.709 -1.0466 -0.1810  0.9863
 6373TIP3   OH219082   0.385   0.842   5.669  0.2228  0.2856 -0.1057
 6373TIP3    H119083   0.434   0.879   5.595  0.3419  1.9609  0.7414
 6373TIP3    H219084   0.373   0.750   5.647 -1.3373  1.0831 -3.0651
 6374TIP3   OH219085   2.605   4.291   2.697  0.3673 -0.7628  0.6003
 6374TIP3    H119086   2.630   4.202   2.722  1.1481 -0.7027  0.0784
 6374TIP3    H219087   2.627   4.297   2.604 -2.2022 -0.8992 -0.0957
 6375TIP3   OH219088   6.815   6.154   2.065 -0.5359  0.1108  0.7240
 6375TIP3    H119089   6.774   6.197   2.140 -0.5576  2.1469 -0.3637
 6375TIP3    H219090   6.866   6.083   2.102 -1.2879  0.4841  2.5637
 6376TIP3   OH219091   2.594   2.275   4.233  0.5119 -0.0130 -0.2755
 6376TIP3    H119092   2.662   2.297   4.169  1.7671  1.2877  1.3840
 6376TIP3    H219093   2.585   2.354   4.286 -1.0572 -0.7743  0.6604
 6377TIP3   OH219094   6.863   1.078   3.818  0.3959  0.4413 -0.2493
 6377TIP3    H119095   6.849   0.985   3.804  0.5680  0.7758 -3.0713
 6377TIP3    H219096   6.958   1.090   3.812  0.6563  0.5474  2.4967
 6378TIP3   OH219097   3.675   3.023   5.338 -0.3617  0.1283  0.4669
 6378TIP3    H119098   3.672   3.039   5.243  0.3168 -0.5243  0.3253
 6378TIP3    H219099   3.709   2.934   5.346  0.2657  0.4314  1.3513
 6379TIP3   OH219100   3.671   2.918   0.646 -0.0533 -0.1431 -0.4012
 6379TIP3    H119101   3.694   2.927   0.739  0.7443  0.2412 -0.6333
 6379TIP3    H219102   3.631   3.002   0.623 -0.9599 -0.5120 -0.2156
 6380TIP3   OH219103   4.742   0.292   1.225  0.9538  0.1645 -0.1652
 6380TIP3    H119104   4.738   0.229   1.152 -1.4248  0.4025 -0.3209
 6380TIP3    H219105   4.756   0.237   1.302  0.6423 -0.3842 -0.4877
 6381TIP3   OH219106   5.326   2.165   1.279  0.0331  0.2482  0.3089
 6381TIP3    H119107   5.329   2.085   1.226 -2.0366 -1.0093  1.9213
 6381TIP3    H219108   5.256   2.218   1.239  0.0261  0.3228  0.4186
 6382TIP3   OH219109   1.866   5.583   0.995  0.0657  0.0119  0.5246
 6382TIP3    H119110   1.914   5.568   0.914 -1.9497  1.7618 -1.1191
 6382TIP3    H219111   1.839   5.495   1.024 -0.0319 -0.5776 -1.2728
 6383TIP3   OH219112   0.971   5.635   5.478  0.3444 -0.8679  0.2723
 6383TIP3    H119113   1.013   5.554   5.507  1.2132 -1.7264 -2.9688
 6383TIP3    H219114   1.044   5.694   5.457 -0.0949 -0.9340 -1.6539
 6384TIP3   OH219115   5.018   5.742   2.941  0.1859 -0.1771 -0.6034
 6384TIP3    H119116   5.041   5.819   2.890  1.0682  0.1210  0.2069
 6384TIP3    H219117   4.922   5.738   2.937  0.2258  0.0191 -1.9804
 6385TIP3   OH219118   0.632   6.183   4.817  0.3294  0.2368  0.4027
 6385TIP3    H119119   0.597   6.138   4.894  0.3407 -1.8074 -0.7161
 6385TIP3    H219120   0.724   6.157   4.814 -0.0717 -1.1026 -1.2216
 6386TIP3   OH219121   3.777   3.706   5.573  0.0683 -0.2777 -0.8914
 6386TIP3    H119122   3.752   3.661   5.654 -1.4752  0.3130 -1.0027
 6386TIP3    H219123   3.828   3.781   5.603 -0.8403  0.1749 -0.3998
 6387TIP3   OH219124   3.193   3.997   2.191  0.8079 -0.1932  0.4674
 6387TIP3    H119125   3.204   4.070   2.130 -1.0182  0.4032  0.7984
 6387TIP3    H219126   3.227   4.030   2.275 -0.3155  0.4095  0.6950
 6388TIP3   OH219127   6.116   0.345   2.443  0.0449  0.9245 -0.2417
 6388TIP3    H119128   6.110   0.277   2.509  3.8532  0.8610  0.2528
 6388TIP3    H219129   6.063   0.417   2.478  1.6109  0.7704  2.7926
 6389TIP3   OH219130   2.263   6.108   2.077  0.2849 -0.0799 -0.5031
 6389TIP3    H119131   2.316   6.185   2.053  0.3739  0.1315  0.3465
 6389TIP3    H219132   2.297   6.081   2.162 -0.8786 -0.0366 -0.0101
 6390TIP3   OH219133   1.036   0.536   1.486  0.8936  0.4938 -0.3263
 6390TIP3    H119134   1.000   0.521   1.573  0.6620 -0.1025 -0.5217
 6390TIP3    H219135   1.090   0.614   1.496  0.8404  0.4513  0.3420
 6391TIP3   OH219136   6.782   5.560   0.792  0.0037 -0.0911 -0.4130
 6391TIP3    H119137   6.720   5.562   0.719  1.4753 -1.3718 -1.7470
 6391TIP3    H219138   6.816   5.650   0.796  1.2130 -0.3904 -2.5216
 6392TIP3   OH219139   3.615   2.528   1.430  0.3840 -0.1397  0.3913
 6392TIP3    H119140   3.607   2.449   1.375  1.2657 -1.0833  1.5695
 6392TIP3    H219141   3.710   2.539   1.441  0.2425 -0.6175  2.5639
 6393TIP3   OH219142   1.251   0.812   2.357  0.2927  0.2823 -0.8536
 6393TIP3    H119143   1.212   0.777   2.277 -0.2930  1.1467 -0.9681
 6393TIP3    H219144   1.262   0.906   2.339  0.7706  0.3650 -0.1623
 6394TIP3   OH219145   0.735   6.314   4.469 -0.3652  0.1407  0.1411
 6394TIP3    H119146   0.660   6.290   4.415 -0.9313  1.9252  0.0653
 6394TIP3    H219147   0.811   6.283   4.420 -0.9839 -0.7988 -0.2624
 6395TIP3   OH219148   2.609   4.073   2.864  0.5000 -0.4285  0.0052
 6395TIP3    H119149   2.682   4.016   2.886  0.1545 -1.3785 -1.2124
 6395TIP3    H219150   2.543   4.015   2.827 -0.6082  0.5073  0.4584
 6396TIP3   OH219151   0.781   3.131   4.173 -0.7361  0.1758  0.3636
 6396TIP3    H119152   0.830   3.053   4.199 -0.3273  0.0894 -0.6171
 6396TIP3    H219153   0.701   3.097   4.132 -0.0836  0.2132 -1.0080
 6397TIP3   OH219154   1.222   6.477   1.653  0.5494 -0.0477  0.1078
 6397TIP3    H119155   1.210   6.386   1.683  1.2039  0.6850  2.8336
 6397TIP3    H219156   1.308   6.502   1.687  0.1667  1.7645 -0.1894
 6398TIP3   OH219157   0.632   0.382   2.480 -0.3428 -0.6814  0.2076
 6398TIP3    H119158   0.708   0.418   2.434 -1.0740  1.2787  0.4638
 6398TIP3    H219159   0.596   0.456   2.529 -1.0296 -2.1375  2.0027
 6399TIP3   OH219160   0.417   6.698   5.698 -0.6130 -0.0552 -0.1355
 6399TIP3    H119161   0.394   6.637   5.769  0.3911 -1.4850 -0.9832
 6399TIP3    H219162   0.333   6.728   5.663 -1.1353 -1.0852  0.2045
 6400TIP3   OH219163   6.143   2.041   1.445 -0.1122 -0.4871 -0.6401
 6400TIP3    H119164   6.100   1.974   1.391  0.5016 -1.7713  0.3920
 6400TIP3    H219165   6.096   2.039   1.528 -0.3303  0.6624 -0.7269
 6401TIP3   OH219166   1.712   6.426   4.801  0.4723 -0.3893  0.7245
 6401TIP3    H119167   1.689   6.508   4.756  0.6570 -1.9279 -2.4924
 6401TIP3    H219168   1.662   6.428   4.883 -3.5628  0.7958 -1.4771
 6402TIP3   OH219169   0.662   0.922   1.040 -0.3822 -0.2515 -0.3211
 6402TIP3    H119170   0.727   0.875   0.987  0.6742  0.5579  0.2006
 6402TIP3    H219171   0.694   0.913   1.130  0.0359  1.6795 -0.2333
 6403TIP3   OH219172   3.804   1.112   2.039 -0.4354 -0.3020  0.0674
 6403TIP3    H119173   3.798   1.103   2.134 -0.8714 -1.0856 -0.0276
 6403TIP3    H219174   3.714   1.108   2.008 -0.1434 -3.5523 -0.6640
 6404TIP3   OH219175   5.047   0.506   5.217  0.0281  0.2127 -0.2780
 6404TIP3    H119176   4.959   0.473   5.197 -0.2999  1.4485 -0.9987
 6404TIP3    H219177   5.050   0.592   5.175  1.6428  0.1350 -0.3921
 6405TIP3   OH219178   6.772   2.664   0.778 -0.2959  0.0143 -0.2716
 6405TIP3    H119179   6.715   2.590   0.762 -1.4731  0.4234  1.7090
 6405TIP3    H219180   6.715   2.741   0.772  0.5045  0.6224 -0.3643
 6406TIP3   OH219181   0.150   1.198   3.408 -0.5494  0.2720  0.2402
 6406TIP3    H119182   0.143   1.256   3.332 -1.1074 -1.3771 -1.0028
 6406TIP3    H219183   0.060   1.171   3.426 -0.0698 -2.8695 -1.3941
 6407TIP3   OH219184   2.291   6.568   2.463  0.0050 -0.0521  0.7150
 6407TIP3    H119185   2.272   6.478   2.437  0.3593 -0.4478  1.7629
 6407TIP3    H219186   2.303   6.563   2.558 -0.5583  1.2056  0.8696
 6408TIP3   OH219187   4.352   5.572   2.401  0.0211 -0.2590  0.2828
 6408TIP3    H119188   4.392   5.486   2.395  1.5091  0.4297 -0.1865
 6408TIP3    H219189   4.337   5.586   2.494  0.8324 -0.5576  0.4594
 6409TIP3   OH219190   4.843   4.665   1.412 -0.8513 -0.5645  0.5767
 6409TIP3    H119191   4.820   4.746   1.365  0.6064  0.2752  1.2621
 6409TIP3    H219192   4.818   4.595   1.351  2.9108  0.4664 -2.6000
 6410TIP3   OH219193   4.489   1.190   0.111 -0.4714  0.2930  0.3021
 6410TIP3    H119194   4.551   1.150   0.050 -0.4520 -0.8835  1.0523
 6410TIP3    H219195   4.419   1.226   0.056  0.5049  0.9992 -0.5090
 6411TIP3   OH219196   4.691   3.535   4.396 -0.0401  0.4175  0.1980
 6411TIP3    H119197   4.608   3.496   4.367 -0.1012  1.2401 -0.8229
 6411TIP3    H219198   4.747   3.460   4.416 -0.2837 -0.2090 -1.3054
 6412TIP3   OH219199   7.030   3.630   1.352  0.5702  0.2244 -0.2893
 6412TIP3    H119200   6.965   3.615   1.421  1.1726  0.0039  0.2459
 6412TIP3    H219201   7.005   3.572   1.281  0.7934 -0.6557  0.3369
 6413TIP3   OH219202   0.374   1.166   1.577  0.2378  0.3004 -0.0762
 6413TIP3    H119203   0.372   1.079   1.615  2.1185  0.3417  0.1968
 6413TIP3    H219204   0.458   1.202   1.604 -1.2819  2.9994  1.5384
 6414TIP3   OH219205   1.613   0.862   1.775 -0.7142  0.3373  0.3565
 6414TIP3    H119206   1.600   0.952   1.746  0.3350  0.4169  0.1034
 6414TIP3    H219207   1.607   0.865   1.870  2.2887  1.2411  0.6188
 6415TIP3   OH219208   3.304   0.735   3.479  0.2139  0.0952  0.5091
 6415TIP3    H119209   3.319   0.775   3.394 -0.6279 -0.7198 -0.0408
 6415TIP3    H219210   3.324   0.804   3.542 -1.6182  1.5746 -0.4193
 6416TIP3   OH219211   4.378   5.815   5.159 -0.5954 -0.3067 -0.0461
 6416TIP3    H119212   4.398   5.908   5.144  0.0893 -0.8544 -3.0704
 6416TIP3    H219213   4.423   5.795   5.241  1.2680  1.4709 -0.5281
 6417TIP3   OH219214   0.061   1.891   5.864 -0.4775  0.1681  0.4817
 6417TIP3    H119215   0.134   1.830   5.874 -1.2716 -1.0327 -0.6978
 6417TIP3    H219216   0.066   1.919   5.772 -2.4647 -1.2667 -0.1296
 6418TIP3   OH219217   3.693   5.905   0.865 -0.1885 -0.7622 -0.5886
 6418TIP3    H119218   3.754   5.953   0.808  0.4081  0.5930  1.1153
 6418TIP3    H219219   3.743   5.828   0.893  0.2299 -0.4154 -0.3633
 6419TIP3   OH219220   3.479   0.026   3.524  0.0945  0.3570  0.5923
 6419TIP3    H119221   3.557   0.082   3.523  0.1130  0.3289 -0.4582
 6419TIP3    H219222   3.475  -0.011   3.436 -2.4831  2.2611 -0.1922
 6420TIP3   OH219223   3.291   1.979   1.672  0.4770 -0.8255 -0.0569
 6420TIP3    H119224   3.332   2.036   1.607 -2.2149  1.9097  0.4421
 6420TIP3    H219225   3.328   2.007   1.756 -0.1832 -0.3745  0.0967
 6421TIP3   OH219226   6.883   2.153   4.829  0.2051  0.8132 -0.2398
 6421TIP3    H119227   6.857   2.094   4.758  1.3061 -2.1115  1.6019
 6421TIP3    H219228   6.964   2.115   4.863 -0.0945  2.2825  2.3747
 6422TIP3   OH219229   6.016   0.897   2.795  0.1401  0.3384  0.3074
 6422TIP3    H119230   5.996   0.833   2.727  1.2867 -0.1750  0.4249
 6422TIP3    H219231   6.022   0.980   2.749 -2.3854  0.5945  0.2982
 6423TIP3   OH219232   1.095   0.112   5.042 -0.2351  0.7993  0.0058
 6423TIP3    H119233   1.152   0.105   5.119 -0.9733  1.3022  0.6131
 6423TIP3    H219234   1.068   0.021   5.025 -2.3826  0.9203  2.1660
 6424TIP3   OH219235   4.254   5.931   0.846  0.2317  0.0205 -0.1925
 6424TIP3    H119236   4.293   5.985   0.914  2.4157 -1.6289 -0.0281
 6424TIP3    H219237   4.291   5.965   0.764 -1.6823  1.4053 -0.5724
 6425TIP3   OH219238   4.358   6.293   3.801 -0.1659  0.2148  0.0832
 6425TIP3    H119239   4.337   6.343   3.879 -2.2877  0.0122 -0.2867
 6425TIP3    H219240   4.273   6.276   3.760  0.7025 -1.4850 -1.1512
 6426TIP3   OH219241   2.920   6.318   1.012  0.3114  0.0826  0.7783
 6426TIP3    H119242   2.923   6.351   1.101 -1.1416  1.5508  0.3359
 6426TIP3    H219243   2.848   6.366   0.971 -0.6080 -2.2278 -0.5225
 6427TIP3   OH219244   5.656   5.690   0.552 -0.0061 -0.2234 -0.2721
 6427TIP3    H119245   5.710   5.763   0.582  0.4351 -0.2965 -0.8643
 6427TIP3    H219246   5.647   5.705   0.458  1.4425 -1.7743 -0.7124
 6428TIP3   OH219247   2.786   6.212   0.539 -0.0697  0.8255  0.3428
 6428TIP3    H119248   2.721   6.234   0.606 -1.0406 -1.1930  0.1193
 6428TIP3    H219249   2.735   6.175   0.467  1.1232  1.4496 -0.8696
 6429TIP3   OH219250   4.356   6.234   3.473  0.2322  0.0830  0.0424
 6429TIP3    H119251   4.406   6.304   3.516  0.6502  0.7107 -1.3874
 6429TIP3    H219252   4.322   6.275   3.393 -0.3602 -1.0856 -0.3278
 6430TIP3   OH219253   2.881   2.975   4.630  0.0740 -0.4557 -0.0344
 6430TIP3    H119254   2.817   2.913   4.595 -1.6488  1.4689 -0.5029
 6430TIP3    H219255   2.857   2.985   4.722  0.1992 -0.2925 -0.0194
 6431TIP3   OH219256   5.729   6.663   4.079 -0.1392 -0.2621 -0.2916
 6431TIP3    H119257   5.699   6.582   4.121 -1.7917 -0.9342 -2.5573
 6431TIP3    H219258   5.648   6.712   4.060  0.5514  0.3297 -1.9318
 6432TIP3   OH219259   1.301   4.793   4.227 -0.2016 -0.6184 -0.2401
 6432TIP3    H119260   1.341   4.867   4.182 -0.0864 -0.4039  0.2069
 6432TIP3    H219261   1.326   4.716   4.175 -0.3324 -0.3454 -0.7103
 6433TIP3   OH219262   6.613   3.542   3.120 -0.7004  0.1242 -0.2750
 6433TIP3    H119263   6.524   3.557   3.090 -0.8914 -0.3044  0.0724
 6433TIP3    H219264   6.619   3.447   3.131  0.1026  0.0470 -1.2412
 6434TIP3   OH219265   6.490   0.176   0.253  0.0478  0.1617  0.8327
 6434TIP3    H119266   6.526   0.089   0.272 -0.9778 -0.2393  1.0071
 6434TIP3    H219267   6.415   0.159   0.197  0.0714  0.9745  0.5369
 6435TIP3   OH219268   6.324   1.418   1.909 -0.1738  0.8009 -0.5963
 6435TIP3    H119269   6.251   1.405   1.848  1.6861  1.5007 -3.1556
 6435TIP3    H219270   6.372   1.336   1.908 -0.3631  0.6743  0.2893
 6436TIP3   OH219271   2.097   4.017   2.243 -0.0735 -0.1733 -0.1608
 6436TIP3    H119272   2.174   3.998   2.295  1.8320  1.0644 -2.3355
 6436TIP3    H219273   2.033   4.052   2.305  1.3242 -0.6594  1.6007
 6437TIP3   OH219274   5.804   0.068   4.848  0.5546  0.0551  0.0452
 6437TIP3    H119275   5.713   0.063   4.819  0.4990  0.6144  0.1253
 6437TIP3    H219276   5.819   0.160   4.868  0.6677 -0.2529  1.5423
 6438TIP3   OH219277   2.752   1.416   0.723 -0.4506 -0.4931 -0.7158
 6438TIP3    H119278   2.767   1.378   0.809  2.8204 -0.8712 -1.3245
 6438TIP3    H219279   2.747   1.510   0.737  0.5333 -0.5230 -0.1589
 6439TIP3   OH219280   3.250   5.198   1.968  0.4125 -0.3107  0.1340
 6439TIP3    H119281   3.324   5.210   2.027 -0.6564 -0.7685  1.6562
 6439TIP3    H219282   3.261   5.264   1.900  1.8266  0.0870  0.7245
 6440TIP3   OH219283   3.056   6.782   1.538 -0.1308 -0.3409 -0.5134
 6440TIP3    H119284   2.993   6.710   1.542  0.9270 -1.2429  2.4462
 6440TIP3    H219285   3.002   6.861   1.544 -1.1150 -0.9975 -0.4698
 6441TIP3   OH219286   2.182   1.863   0.646  0.2701 -0.0118 -0.1110
 6441TIP3    H119287   2.145   1.951   0.646  0.0635 -0.0900 -0.9722
 6441TIP3    H219288   2.198   1.843   0.554 -0.6306 -1.2664 -0.0284
 6442TIP3   OH219289   3.734   6.027   4.551  0.3745 -0.4826 -0.4384
 6442TIP3    H119290   3.749   6.066   4.465  1.3998 -0.6390 -0.3501
 6442TIP3    H219291   3.764   6.095   4.613 -0.6580 -0.2424 -0.1890
 6443TIP3   OH219292   2.074   2.770   2.452  0.0357  1.1649  0.2827
 6443TIP3    H119293   2.050   2.859   2.424  1.7798  2.0251  1.3434
 6443TIP3    H219294   2.089   2.778   2.546 -1.5621 -0.7183  0.7640
 6444TIP3   OH219295   3.740   3.250   4.806  0.1017  0.4726 -0.0721
 6444TIP3    H119296   3.649   3.219   4.807  0.4498 -0.6411 -0.9234
 6444TIP3    H219297   3.737   3.332   4.756 -0.4077  0.3264 -0.2850
 6445TIP3   OH219298   6.260   4.095   1.745 -0.2725  0.2703  0.1554
 6445TIP3    H119299   6.288   4.076   1.655 -0.6923  0.9478 -0.1243
 6445TIP3    H219300   6.339   4.129   1.787  0.1122 -0.7038  0.2545
 6446TIP3   OH219301   6.487   1.936   2.599  0.2826  0.1059  0.2376
 6446TIP3    H119302   6.441   1.916   2.681  0.9967  1.1372  0.9143
 6446TIP3    H219303   6.418   1.946   2.534 -0.3123 -0.4986  0.7626
 6447TIP3   OH219304   6.383   2.551   3.942 -0.1539  0.6674 -0.2442
 6447TIP3    H119305   6.331   2.521   3.868 -0.0810 -0.1113  0.0086
 6447TIP3    H219306   6.457   2.490   3.946  0.1400  1.0401  0.1245
 6448TIP3   OH219307   2.021   6.029   1.447 -0.1717 -0.4725 -0.0091
 6448TIP3    H119308   1.983   6.089   1.383  0.9499  1.0389  0.6735
 6448TIP3    H219309   1.986   6.058   1.532  1.2011 -0.0526  0.4500
 6449TIP3   OH219310   6.222   6.423   0.856 -0.0544  0.2195 -0.6052
 6449TIP3    H119311   6.214   6.473   0.937 -1.4576 -1.3726  0.3029
 6449TIP3    H219312   6.315   6.427   0.835  0.2943  0.9329  0.8973
 6450TIP3   OH219313   4.563   4.517   2.894  0.8539  0.3329  0.1065
 6450TIP3    H119314   4.601   4.605   2.898 -0.6945  1.1097 -0.9607
 6450TIP3    H219315   4.523   4.505   2.980 -2.5516  2.5164 -0.9728
 6451TIP3   OH219316   2.533   1.272   5.583 -0.3163  0.0314  0.5738
 6451TIP3    H119317   2.602   1.286   5.518  2.2975 -1.7192  2.7507
 6451TIP3    H219318   2.515   1.359   5.619  0.4296  0.5889 -0.3617
 6452TIP3   OH219319   3.023   1.029   4.734  0.5032 -0.2265 -0.0679
 6452TIP3    H119320   2.961   1.078   4.681 -0.0662 -1.7538 -0.8296
 6452TIP3    H219321   3.060   1.095   4.794 -0.6402  1.0107 -0.6890
 6453TIP3   OH219322   1.424   6.162   0.924 -0.6872 -0.2183 -1.1406
 6453TIP3    H119323   1.373   6.137   1.001  0.6911  0.8884  0.1849
 6453TIP3    H219324   1.477   6.085   0.904  1.5417  0.5624  1.2449
 6454TIP3   OH219325   6.745   2.597   4.807 -0.1229 -0.2542 -0.1455
 6454TIP3    H119326   6.695   2.676   4.829  0.6480  0.5113 -1.0731
 6454TIP3    H219327   6.694   2.554   4.739 -1.6661 -1.7555  1.8533
 6455TIP3   OH219328   0.037   4.392   4.000 -0.0865  0.0735  0.2620
 6455TIP3    H119329   0.054   4.486   3.995 -2.6604  0.5644 -1.0578
 6455TIP3    H219330   0.049   4.360   3.911 -0.5292 -0.5912  0.4290
 6456TIP3   OH219331   4.938   2.863   3.723 -0.2050  0.5409  0.1156
 6456TIP3    H119332   4.916   2.795   3.786  0.6224  0.4220  0.2881
 6456TIP3    H219333   4.986   2.929   3.774  0.6292  0.3618 -0.4039
 6457TIP3   OH219334   2.455   5.163   2.879 -0.2613  0.1016  0.6390
 6457TIP3    H119335   2.441   5.143   2.972 -0.4594  1.5596  0.9576
 6457TIP3    H219336   2.506   5.245   2.880 -0.2839  0.1471 -0.5366
 6458TIP3   OH219337   2.660   4.860   3.549  0.3816  0.1531  0.0782
 6458TIP3    H119338   2.643   4.896   3.461 -0.2439  2.3298  1.0122
 6458TIP3    H219339   2.601   4.909   3.606  1.7117 -0.2907  1.9043
 6459TIP3   OH219340   4.237   2.579   4.088  0.2460  0.0848 -0.5516
 6459TIP3    H119341   4.299   2.566   4.160  0.2224 -0.5268 -0.6334
 6459TIP3    H219342   4.283   2.547   4.011 -1.0474 -2.8766 -0.2486
 6460TIP3   OH219343   1.659   0.979   4.329 -0.1244  0.0606  0.2104
 6460TIP3    H119344   1.566   0.995   4.314  0.0308 -0.1850 -1.0529
 6460TIP3    H219345   1.704   1.052   4.287  0.2309  1.1777  2.3391
 6461TIP3   OH219346   0.779   4.812   2.202 -0.4073 -0.1919 -0.5554
 6461TIP3    H119347   0.724   4.807   2.123 -0.7028  1.2302 -0.4780
 6461TIP3    H219348   0.717   4.830   2.273  0.0839  1.0701 -0.4113
 6462TIP3   OH219349   2.349   2.797   1.698 -0.1856 -0.5033 -0.1024
 6462TIP3    H119350   2.387   2.849   1.627  0.4886 -2.4898 -1.2978
 6462TIP3    H219351   2.368   2.847   1.778  3.2374 -0.3729 -0.8364
 6463TIP3   OH219352   0.087   0.173   4.119 -0.4267 -0.5463 -0.5216
 6463TIP3    H119353   0.134   0.176   4.202  1.3083 -1.7557 -1.3862
 6463TIP3    H219354   0.106   0.258   4.078 -1.2029  0.0098  0.2317
 6464TIP3   OH219355   0.659   1.628   4.783 -0.8996 -0.2311  0.3677
 6464TIP3    H119356   0.737   1.586   4.747  0.0511  0.5647  1.4147
 6464TIP3    H219357   0.658   1.602   4.876 -2.1070 -0.5490  0.2857
 6465TIP3   OH219358   0.016   5.806   3.025 -0.5260  0.4479  0.0417
 6465TIP3    H119359   0.019   5.861   3.103  0.8048 -0.3044  0.5488
 6465TIP3    H219360   0.099   5.759   3.025 -0.4255  0.5211 -1.9054
 6466TIP3   OH219361   6.416   6.523   5.510 -0.5854 -1.1436 -0.5179
 6466TIP3    H119362   6.425   6.567   5.595 -0.0397 -0.0335 -1.1270
 6466TIP3    H219363   6.505   6.524   5.474 -1.1583  0.3114 -2.0059
 6467TIP3   OH219364   5.508   0.854   3.181  0.6216  0.2693 -0.0959
 6467TIP3    H119365   5.569   0.818   3.246 -0.6953 -1.5765  0.2020
 6467TIP3    H219366   5.428   0.804   3.193 -0.1371  0.8556 -2.2082
 6468TIP3   OH219367   3.342   6.732   1.598  0.1632  0.5489 -0.6149
 6468TIP3    H119368   3.421   6.680   1.607 -1.4160 -1.8925  0.2427
 6468TIP3    H219369   3.361   6.814   1.642  2.0758 -0.1090 -0.1471
 6469TIP3   OH219370   6.874   4.346   1.466  0.2755  0.3972 -0.3339
 6469TIP3    H119371   6.943   4.293   1.506 -1.3458 -0.7655  1.0463
 6469TIP3    H219372   6.894   4.343   1.372  1.0429 -1.5005 -0.1707
 6470TIP3   OH219373   3.093   2.624   0.173 -0.1797 -0.3617 -0.2533
 6470TIP3    H119374   3.182   2.600   0.199 -0.8889 -1.6350  1.1970
 6470TIP3    H219375   3.044   2.542   0.179 -1.3987  0.2673 -1.2733
 6471TIP3   OH219376   0.659   6.319   2.723  0.2819  0.0119  0.1619
 6471TIP3    H119377   0.741   6.279   2.750 -1.5235 -2.6275  2.3628
 6471TIP3    H219378   0.651   6.398   2.775  2.5911  1.9300 -2.1413
 6472TIP3   OH219379   2.425   0.133   1.217  0.3646 -0.0844 -0.0268
 6472TIP3    H119380   2.355   0.195   1.194  0.2218 -0.3814 -0.3960
 6472TIP3    H219381   2.506   0.184   1.207  0.2366  0.0984 -0.1413
 6473TIP3   OH219382   1.145   0.883   4.694  0.5114  0.4603  1.0758
 6473TIP3    H119383   1.057   0.870   4.729  0.8251  0.0876  1.7619
 6473TIP3    H219384   1.153   0.977   4.682  0.1434  0.5299  1.3506
 6474TIP3   OH219385   1.967   1.138   0.619 -0.4594  0.2782  0.1935
 6474TIP3    H119386   2.034   1.088   0.573 -0.7066 -0.9694  1.1071
 6474TIP3    H219387   1.981   1.228   0.594  0.7808 -0.1185 -0.5881
 6475TIP3   OH219388   6.108   3.233   4.661  0.0579  0.4411 -0.6816
 6475TIP3    H119389   6.184   3.249   4.716  0.1482 -0.9429 -0.3655
 6475TIP3    H219390   6.141   3.237   4.571  0.1485  1.5191 -0.6097
 6476TIP3   OH219391   6.622   1.381   4.014 -0.3550 -0.3206 -0.3967
 6476TIP3    H119392   6.712   1.409   4.000 -0.3735 -0.5738 -1.0372
 6476TIP3    H219393   6.630   1.293   4.052 -0.2315  1.1398  3.4814
 6477TIP3   OH219394   5.217   2.098   4.610  0.2530 -0.0203 -0.3050
 6477TIP3    H119395   5.283   2.030   4.623 -0.7967 -0.8726  0.8882
 6477TIP3    H219396   5.148   2.076   4.673 -1.6055  0.2740 -2.1351
 6478TIP3   OH219397   6.663   1.849   5.784  0.6789 -0.0552  1.1259
 6478TIP3    H119398   6.593   1.786   5.799 -0.4060  0.8248 -0.0402
 6478TIP3    H219399   6.649   1.917   5.851  0.6823 -0.0805  1.1526
 6479TIP3   OH219400   6.387   0.500   4.496 -0.5250  0.4555  0.1518
 6479TIP3    H119401   6.378   0.594   4.476 -0.8790  0.3880 -0.0033
 6479TIP3    H219402   6.388   0.458   4.410 -1.0542  0.2560  0.2408
 6480TIP3   OH219403   3.344   4.789   5.836  0.2251  0.0909 -0.3629
 6480TIP3    H119404   3.342   4.871   5.885  2.1769  1.0178 -1.6783
 6480TIP3    H219405   3.290   4.806   5.758 -0.6466 -0.4412  0.1086
 6481TIP3   OH219406   4.205   2.597   0.168  0.0700  0.3999 -0.5104
 6481TIP3    H119407   4.267   2.542   0.121  0.3739 -0.8145  1.2364
 6481TIP3    H219408   4.255   2.675   0.192  0.4922  0.1098 -0.4413
 6482TIP3   OH219409   5.754   5.820   2.097  0.8273 -0.5928 -0.2104
 6482TIP3    H119410   5.822   5.882   2.069 -1.0195  1.2020 -0.9455
 6482TIP3    H219411   5.728   5.851   2.184  0.8021 -1.1591 -0.0120
 6483TIP3   OH219412   6.589   2.980   4.343  0.5745  0.9809 -0.8065
 6483TIP3    H119413   6.682   2.956   4.337 -0.1068 -3.2026  1.6064
 6483TIP3    H219414   6.554   2.962   4.256  1.6562  0.8823 -1.2367
 6484TIP3   OH219415   1.329   2.287   2.004 -0.2385  0.2221  0.1469
 6484TIP3    H119416   1.269   2.231   1.955  0.0019 -0.3753  0.5167
 6484TIP3    H219417   1.283   2.306   2.086  0.6369 -1.4543  1.0718
 6485TIP3   OH219418   5.625   5.578   0.861  0.4727 -0.4316  0.9331
 6485TIP3    H119419   5.708   5.565   0.815 -0.9061  0.2753 -1.9734
 6485TIP3    H219420   5.634   5.663   0.903  1.7257 -1.0456  2.0086
 6486TIP3   OH219421   1.169   3.180   4.551  0.4487 -0.6601  0.4589
 6486TIP3    H119422   1.187   3.256   4.496 -0.1864 -0.8521 -0.0280
 6486TIP3    H219423   1.211   3.200   4.635 -0.0807  0.4175  0.4840
 6487TIP3   OH219424   4.795   4.331   5.083  0.6918 -0.2660 -0.2777
 6487TIP3    H119425   4.888   4.354   5.083 -0.2790  4.9573 -1.1834
 6487TIP3    H219426   4.768   4.339   5.174  0.6676  1.2806 -0.3883
 6488TIP3   OH219427   3.047   6.058   0.450  0.4232 -0.1536  0.3965
 6488TIP3    H119428   3.019   6.110   0.526  0.7023 -1.4402  1.4189
 6488TIP3    H219429   3.046   6.120   0.377  1.3620  1.4390  1.6724
 6489TIP3   OH219430   4.680   3.531   1.458  0.1145 -0.5127 -0.2807
 6489TIP3    H119431   4.715   3.584   1.529 -0.2027 -0.4970 -0.1373
 6489TIP3    H219432   4.698   3.583   1.379 -1.9655  0.7696  0.0237
 6490TIP3   OH219433   4.959   4.732   2.031  0.0720  0.1368  0.5204
 6490TIP3    H119434   4.879   4.776   2.003  0.9303  1.2191 -0.3199
 6490TIP3    H219435   4.977   4.767   2.118 -0.0300  0.3625  0.4506
 6491TIP3   OH219436   4.726   1.343   0.571  0.4161  0.2225 -0.2582
 6491TIP3    H119437   4.775   1.379   0.645  0.7952  2.0791 -1.3569
 6491TIP3    H219438   4.642   1.390   0.572 -0.4630 -1.2679  0.2145
 6492TIP3   OH219439   2.245   0.426   0.338 -0.3817  0.5760  0.2944
 6492TIP3    H119440   2.181   0.391   0.276 -0.6147  1.7722 -0.1738
 6492TIP3    H219441   2.321   0.447   0.284  0.8729 -1.8446  1.0086
 6493TIP3   OH219442   0.697   2.490   4.646  0.0493 -0.1927 -0.4292
 6493TIP3    H119443   0.786   2.519   4.625 -0.3209 -0.2457 -2.2269
 6493TIP3    H219444   0.710   2.414   4.702  1.2040 -0.9625 -1.6603
 6494TIP3   OH219445   3.802   6.167   0.072  0.1050 -0.1591  0.1827
 6494TIP3    H119446   3.744   6.174   0.148  0.4296 -0.8252  0.5075
 6494TIP3    H219447   3.878   6.120   0.106 -0.9832 -3.1755 -1.1930
 6495TIP3   OH219448   5.486   5.976   1.398  0.0272 -0.3801  0.7962
 6495TIP3    H119449   5.399   6.016   1.394  0.1170 -0.2231  0.4209
 6495TIP3    H219450   5.471   5.885   1.372  0.3776  0.2740 -2.0044
 6496TIP3   OH219451   5.425   6.366   1.868  0.0861  0.1171  0.1627
 6496TIP3    H119452   5.369   6.289   1.857 -0.2079  0.4941 -1.2632
 6496TIP3    H219453   5.502   6.348   1.815  0.1381  0.6681  0.0396
 6497TIP3   OH219454   2.060   3.410   2.353 -0.4419 -0.5196 -0.2217
 6497TIP3    H119455   2.093   3.496   2.381 -1.0828 -0.4294  0.2854
 6497TIP3    H219456   2.055   3.416   2.258 -1.8252  0.5232 -0.1219
 6498TIP3   OH219457   6.288   5.895   5.746  0.2016  0.6297  0.1557
 6498TIP3    H119458   6.372   5.939   5.738  0.6039 -0.0922  0.2692
 6498TIP3    H219459   6.230   5.960   5.787  1.0184  0.7574  1.1534
 6499TIP3   OH219460   0.674   4.297   2.441  0.1857  0.0748  0.4394
 6499TIP3    H119461   0.713   4.294   2.529 -0.2557 -2.0026  0.6154
 6499TIP3    H219462   0.720   4.369   2.397 -1.4865  3.1319  3.1933
 6500TIP3   OH219463   4.532   4.852   1.097 -0.8434 -0.3511 -0.3193
 6500TIP3    H119464   4.553   4.773   1.147 -0.0679  0.6370  0.9830
 6500TIP3    H219465   4.439   4.844   1.075 -1.1311 -0.9609  1.0444
 6501TIP3   OH219466   6.120   0.481   1.910 -0.1091 -0.2125 -0.7572
 6501TIP3    H119467   6.211   0.457   1.929  0.7400  1.8385 -1.8461
 6501TIP3    H219468   6.105   0.559   1.964 -0.9534 -0.0861 -1.1692
 6502TIP3   OH219469   2.559   3.576   4.309 -0.4820 -0.1630 -0.0465
 6502TIP3    H119470   2.600   3.566   4.395 -1.4725  1.7672  0.7027
 6502TIP3    H219471   2.465   3.568   4.326 -0.7190  0.7210 -0.8728
 6503TIP3   OH219472   1.957   0.657   5.034  0.4906  0.0632  0.0723
 6503TIP3    H119473   1.933   0.567   5.056 -0.2486  0.2603  0.1017
 6503TIP3    H219474   1.875   0.706   5.039  1.1751  1.1303  2.0255
 6504TIP3   OH219475   5.224   0.130   2.712  0.0865 -0.5158  0.0059
 6504TIP3    H119476   5.243   0.119   2.619 -0.0700 -1.3894  0.0672
 6504TIP3    H219477   5.175   0.212   2.717 -0.3094 -0.6956 -0.7381
 6505TIP3   OH219478   2.628   0.206   5.644  0.2137  0.1440  0.1397
 6505TIP3    H119479   2.572   0.260   5.700 -0.0037  1.1941 -1.0431
 6505TIP3    H219480   2.708   0.193   5.696  0.1005  1.2704  0.6224
 6506TIP3   OH219481   1.012   2.830   5.838 -0.4750 -0.2726  0.3521
 6506TIP3    H119482   1.084   2.791   5.788 -1.4080  1.1034 -2.2529
 6506TIP3    H219483   1.045   2.917   5.863 -1.7914  1.2779 -2.7384
 6507TIP3   OH219484   6.327   0.410   0.357  0.2068  0.1506  0.4068
 6507TIP3    H119485   6.248   0.374   0.396  0.5283 -0.3075  0.6545
 6507TIP3    H219486   6.394   0.343   0.374  0.2173 -0.3802 -1.5144
 6508TIP3   OH219487   3.091   6.097   3.608 -0.1068  0.0946 -0.2649
 6508TIP3    H119488   3.030   6.161   3.645 -2.2643 -0.6592 -2.2794
 6508TIP3    H219489   3.058   6.012   3.639  0.3709 -0.2806 -0.7586
 6509TIP3   OH219490   4.143   0.706   0.493  0.8719 -0.3426 -0.2099
 6509TIP3    H119491   4.188   0.776   0.539  0.1653 -0.1476  0.1922
 6509TIP3    H219492   4.072   0.681   0.551  0.1690 -0.3192 -1.0477
 6510TIP3   OH219493   0.057   1.856   2.720  0.1764 -0.4370  0.3009
 6510TIP3    H119494   0.060   1.775   2.770 -1.0560 -0.8070 -0.1847
 6510TIP3    H219495   0.043   1.924   2.786  0.4665 -0.6977  0.6371
 6511TIP3   OH219496   2.618   2.436   2.104  0.7190 -0.4218  0.7824
 6511TIP3    H119497   2.611   2.416   2.011 -2.0359 -0.5680  0.9293
 6511TIP3    H219498   2.604   2.352   2.147 -0.8389  0.0863  1.3166
 6512TIP3   OH219499   6.635   3.082   3.553  0.5490  0.5120  0.1110
 6512TIP3    H119500   6.600   2.993   3.553  1.3282  0.2029 -0.1399
 6512TIP3    H219501   6.719   3.075   3.598  0.4703  1.1848  0.3793
 6513TIP3   OH219502   5.901   5.315   5.146  0.1166  0.1899  0.5893
 6513TIP3    H119503   5.853   5.351   5.221  0.7790  1.9591  0.2129
 6513TIP3    H219504   5.992   5.316   5.174  0.1605 -1.4511  0.6256
 6514TIP3   OH219505   5.711   3.543   3.194 -0.0087  0.1982 -0.3853
 6514TIP3    H119506   5.724   3.632   3.229 -0.2026 -0.5199  1.6447
 6514TIP3    H219507   5.618   3.539   3.173  0.2474  0.8787 -1.7967
 6515TIP3   OH219508   6.579   0.203   1.700  0.7705 -0.0511  0.3419
 6515TIP3    H119509   6.577   0.299   1.708  0.2139 -0.1694  2.2267
 6515TIP3    H219510   6.657   0.176   1.748  0.0630 -0.5989  1.2367
 6516TIP3   OH219511   0.768   2.291   5.093  0.7188 -0.3977 -0.6627
 6516TIP3    H119512   0.778   2.197   5.083 -0.1202 -0.6246  0.5041
 6516TIP3    H219513   0.747   2.304   5.185  0.4131  0.8973 -0.8918
 6517TIP3   OH219514   5.812   4.707   2.575 -0.1235 -0.6040  0.0538
 6517TIP3    H119515   5.861   4.632   2.542  1.9207  0.9679 -0.7287
 6517TIP3    H219516   5.795   4.760   2.497 -0.1736  0.4515  0.7632
 6518TIP3   OH219517   2.165   2.964   5.558 -0.1304 -0.7491  0.5369
 6518TIP3    H119518   2.197   2.981   5.470 -0.4533  2.9898  0.9650
 6518TIP3    H219519   2.128   2.876   5.554 -0.6846 -0.4974 -3.2174
 6519TIP3   OH219520   2.414   0.722   0.393  0.0281  0.3177 -0.1451
 6519TIP3    H119521   2.399   0.698   0.484 -0.2673  0.5600 -0.1304
 6519TIP3    H219522   2.466   0.650   0.358 -1.2551 -0.6096 -0.2317
 6520TIP3   OH219523   3.004   2.720   2.368  0.1041  0.5041 -0.3334
 6520TIP3    H119524   2.930   2.694   2.314 -1.8137  1.4597  1.6978
 6520TIP3    H219525   3.009   2.815   2.359  1.2369  0.4471 -0.5731
 6521TIP3   OH219526   3.553   3.932   2.402 -0.1790  0.0947  0.1318
 6521TIP3    H119527   3.536   4.026   2.408  1.7742  0.4604  0.5303
 6521TIP3    H219528   3.569   3.904   2.492 -0.0421 -0.4758 -0.0624
 6522TIP3   OH219529   3.646   1.724   3.101 -0.5982  0.5184 -0.2705
 6522TIP3    H119530   3.696   1.660   3.153 -1.4891  0.4440  0.5231
 6522TIP3    H219531   3.610   1.672   3.029  0.7336  0.6419 -1.0366
 6523TIP3   OH219532   2.053   5.912   2.151  0.0753  0.3509  0.4503
 6523TIP3    H119533   2.059   5.851   2.077  0.8488 -0.9104  1.5012
 6523TIP3    H219534   2.067   5.998   2.112  0.0327 -0.2421 -0.9329
 6524TIP3   OH219535   0.242   5.797   0.344  0.0999  0.0086 -0.1906
 6524TIP3    H119536   0.152   5.796   0.377 -1.2235 -0.0082 -3.4918
 6524TIP3    H219537   0.285   5.725   0.390 -1.4218  0.2560  1.7452
 6525TIP3   OH219538   0.719   2.428   2.933 -0.0811  0.4249  0.1110
 6525TIP3    H119539   0.708   2.501   2.871 -0.9884  0.1362 -0.0887
 6525TIP3    H219540   0.779   2.462   2.999 -0.4946  1.3591  0.0294
 6526TIP3   OH219541   4.164   0.832   4.542  0.4010 -0.6759 -0.1093
 6526TIP3    H119542   4.242   0.819   4.595  0.8408 -0.7660 -0.7594
 6526TIP3    H219543   4.102   0.765   4.572  0.5904 -0.6361  0.3715
 6527TIP3   OH219544   5.458   5.450   0.684 -0.0384  0.3802 -0.4117
 6527TIP3    H119545   5.494   5.527   0.639 -0.1972  0.6241 -0.1268
 6527TIP3    H219546   5.472   5.468   0.777  0.6302 -0.2912 -0.3735
 6528TIP3   OH219547   6.631   5.093   1.027  0.1265  0.0730  0.3396
 6528TIP3    H119548   6.702   5.155   1.039  0.1154  0.0802  0.3678
 6528TIP3    H219549   6.590   5.086   1.113 -0.6517  0.9741  0.0628
 6529TIP3   OH219550   0.379   2.381   5.623 -0.1496  0.1020 -0.5220
 6529TIP3    H119551   0.405   2.410   5.710 -2.4138 -3.3676  1.5349
 6529TIP3    H219552   0.305   2.436   5.600 -0.5390  0.0294  0.5142
 6530TIP3   OH219553   3.672   5.745   4.652  0.3067  0.5684  0.3082
 6530TIP3    H119554   3.675   5.841   4.655  0.7820  0.5817 -0.3170
 6530TIP3    H219555   3.679   5.718   4.744  0.8443  1.1242  0.4418
 6531TIP3   OH219556   3.520   1.852   3.309  0.4773 -0.3436  0.0668
 6531TIP3    H119557   3.561   1.811   3.386  0.1825 -1.7773 -0.5034
 6531TIP3    H219558   3.561   1.808   3.234 -0.9387 -0.6853 -0.5387
 6532TIP3   OH219559   6.897   5.116   5.584 -0.6404 -0.2526 -0.5381
 6532TIP3    H119560   6.945   5.199   5.578  3.2355 -2.2488 -0.5274
 6532TIP3    H219561   6.923   5.068   5.505 -2.9856 -1.4414 -0.6748
 6533TIP3   OH219562   0.235   1.256   0.564 -0.1485  0.3373  0.2274
 6533TIP3    H119563   0.301   1.272   0.497 -0.3911  1.1448  0.1761
 6533TIP3    H219564   0.155   1.295   0.529 -0.9601 -1.5571 -0.2052
 6534TIP3   OH219565   5.933   3.311   2.348 -0.4636 -0.6986 -0.3462
 6534TIP3    H119566   5.925   3.321   2.443 -0.9183 -1.3698 -0.3072
 6534TIP3    H219567   5.846   3.329   2.314  0.1713  1.6437 -0.8575
 6535TIP3   OH219568   6.536   3.494   5.619 -0.1865 -0.5159 -0.4748
 6535TIP3    H119569   6.611   3.521   5.566  0.6725  0.5120  1.1769
 6535TIP3    H219570   6.573   3.434   5.683 -0.8098 -0.1646  0.2247
 6536TIP3   OH219571   2.826   1.782   5.880 -0.3476 -0.2061 -0.1024
 6536TIP3    H119572   2.869   1.702   5.911  0.4451  0.2747  0.0570
 6536TIP3    H219573   2.765   1.751   5.813 -0.2281 -0.9739  0.1291
 6537TIP3   OH219574   4.424   1.939   3.817 -0.2119 -0.3398  0.2098
 6537TIP3    H119575   4.364   1.955   3.744 -0.9520  1.8886  1.1937
 6537TIP3    H219576   4.367   1.910   3.889  0.1891 -0.3833  0.5120
 6538TIP3   OH219577   4.221   3.596   3.651 -0.0214 -0.7143 -0.2389
 6538TIP3    H119578   4.128   3.580   3.667 -0.5731 -0.5131 -2.7412
 6538TIP3    H219579   4.238   3.681   3.691 -1.1813 -0.2991 -0.5954
 6539TIP3   OH219580   0.986   0.381   3.410  0.1557 -0.0815 -0.3547
 6539TIP3    H119581   0.979   0.373   3.315  1.1001 -1.2325 -0.3404
 6539TIP3    H219582   0.999   0.475   3.425 -1.5890  0.3541 -1.2251
 6540TIP3   OH219583   7.068   5.842   4.878  0.6519  0.1869  0.6265
 6540TIP3    H119584   7.019   5.814   4.801  0.6341 -0.7337  0.9598
 6540TIP3    H219585   7.122   5.915   4.847 -0.9393  1.2541  0.2550
 6541TIP3   OH219586   3.855   3.787   1.528 -0.0329  0.1092  0.1149
 6541TIP3    H119587   3.912   3.724   1.572  1.1054  1.0125 -0.0197
 6541TIP3    H219588   3.872   3.870   1.572 -1.6307  0.3216  0.3977
 6542TIP3   OH219589   4.809   5.042   3.336 -0.4475  0.2675 -0.1577
 6542TIP3    H119590   4.838   4.952   3.325  0.6593  0.5296  0.4773
 6542TIP3    H219591   4.721   5.044   3.297 -0.8038 -1.2580  0.5026
 6543TIP3   OH219592   4.240   0.478   0.754  0.2593 -0.4336  0.1155
 6543TIP3    H119593   4.278   0.393   0.734  2.0713  0.9073 -2.9087
 6543TIP3    H219594   4.150   0.459   0.779  0.6714 -3.2471 -0.2051
 6544TIP3   OH219595   5.511   5.315   2.972 -0.0272 -0.8241  0.1589
 6544TIP3    H119596   5.484   5.309   3.063  1.4121  1.4058  0.8341
 6544TIP3    H219597   5.527   5.409   2.958  0.8241 -1.2301 -2.0618
 6545TIP3   OH219598   5.269   2.644   2.210  0.4925 -0.7758 -0.1624
 6545TIP3    H119599   5.289   2.582   2.280 -0.0796 -0.9002 -0.1054
 6545TIP3    H219600   5.326   2.618   2.138  0.8122 -0.8825  0.1270
 6546TIP3   OH219601   5.353   1.316   3.730  0.1818  0.0361  0.2964
 6546TIP3    H119602   5.385   1.291   3.816 -1.7003 -0.2631  0.9464
 6546TIP3    H219603   5.313   1.402   3.743  1.5298  0.8563 -0.7087
 6547TIP3   OH219604   3.926   0.046   3.274 -0.2099 -1.2548  0.0546
 6547TIP3    H119605   3.935   0.045   3.179  0.6785  2.1000 -0.0399
 6547TIP3    H219606   3.867   0.120   3.292  0.6862 -0.9625  2.1277
 6548TIP3   OH219607   1.717   1.896   2.087 -0.3333 -0.2170  0.0767
 6548TIP3    H119608   1.797   1.843   2.087 -1.0052 -1.4388 -2.9324
 6548TIP3    H219609   1.663   1.856   2.156  1.1756 -0.0167  1.4564
 6549TIP3   OH219610   6.902   3.331   1.736 -0.1416  0.1294  0.0890
 6549TIP3    H119611   6.973   3.268   1.751 -0.0118  0.1528 -0.3809
 6549TIP3    H219612   6.938   3.393   1.673 -0.8153 -0.2789 -0.7257
 6550TIP3   OH219613   6.712   5.274   1.501  0.5336  0.8257 -0.4125
 6550TIP3    H119614   6.648   5.295   1.568  0.7697  0.9515 -0.2276
 6550TIP3    H219615   6.711   5.349   1.442  0.3699  0.7421 -0.5176
 6551TIP3   OH219616   6.013   1.057   3.310 -0.0970 -0.6344 -0.4685
 6551TIP3    H119617   5.963   1.056   3.228  2.5121 -0.1413 -2.1858
 6551TIP3    H219618   6.048   0.968   3.318  0.2137 -0.4962 -0.2623
 6552TIP3   OH219619   4.047   0.116   1.883 -0.4128 -0.3983  0.1503
 6552TIP3    H119620   4.102   0.195   1.883 -1.1419  0.1271 -0.2845
 6552TIP3    H219621   3.965   0.144   1.841 -1.7115 -0.6704  2.3712
 6553TIP3   OH219622   5.748   4.650   4.222 -0.0693 -0.3261  0.2202
 6553TIP3    H119623   5.667   4.602   4.240  0.1463 -0.3248  1.2687
 6553TIP3    H219624   5.730   4.697   4.140 -1.2550 -0.0606  0.6026
 6554TIP3   OH219625   2.575   4.178   3.857 -0.4137 -0.2817  0.3084
 6554TIP3    H119626   2.612   4.256   3.816 -2.1580  0.0694 -0.6994
 6554TIP3    H219627   2.621   4.105   3.816 -1.2023  0.1200 -1.3746
 6555TIP3   OH219628   4.302   5.408   1.654  0.0326  0.2235 -0.3195
 6555TIP3    H119629   4.325   5.480   1.713 -0.6345  0.3695 -0.2273
 6555TIP3    H219630   4.208   5.397   1.665 -0.0769  0.1434 -1.2412
 6556TIP3   OH219631   6.848   1.504   3.921 -0.2488  0.2320  0.4150
 6556TIP3    H119632   6.882   1.482   3.835 -2.8556  0.1253 -0.6768
 6556TIP3    H219633   6.924   1.535   3.970  1.6451 -1.4469 -1.2948
 6557TIP3   OH219634   4.283   3.804   2.958  0.1435  0.1445  0.4455
 6557TIP3    H119635   4.288   3.845   3.045 -1.5246  0.2809  0.4970
 6557TIP3    H219636   4.238   3.868   2.903  1.5624  0.2430 -0.6655
 6558TIP3   OH219637   2.747   4.165   1.262 -0.3912 -0.3498  0.5898
 6558TIP3    H119638   2.771   4.200   1.175 -1.2941  1.4924  1.0208
 6558TIP3    H219639   2.829   4.161   1.310 -0.2742  1.7147  0.6458
 6559TIP3   OH219640   3.099   3.174   3.648 -0.0127 -0.1772  0.1193
 6559TIP3    H119641   3.158   3.143   3.580 -0.9890 -0.0241 -0.8322
 6559TIP3    H219642   3.155   3.190   3.723  0.7705 -2.8519  0.2245
 6560TIP3   OH219643   2.361   3.000   4.983 -0.1270 -0.0745 -0.5715
 6560TIP3    H119644   2.383   3.025   4.893 -0.7950  0.3609 -0.6242
 6560TIP3    H219645   2.369   3.081   5.033  1.5728 -0.5953  0.0413
 6561TIP3   OH219646   6.674   5.715   4.189 -0.3018  0.3076 -0.3654
 6561TIP3    H119647   6.618   5.642   4.162 -0.2900 -0.1469  0.7815
 6561TIP3    H219648   6.634   5.792   4.148 -2.8908  0.2835  1.8199
 6562TIP3   OH219649   6.346   6.658   3.183 -0.3799  0.6488  0.2539
 6562TIP3    H119650   6.431   6.702   3.181  0.9370 -1.7051 -1.2819
 6562TIP3    H219651   6.365   6.568   3.155 -3.2336 -0.2755  0.9157
 6563TIP3   OH219652   0.099   0.446   0.457  0.3924  0.0429  0.2985
 6563TIP3    H119653   0.117   0.515   0.393 -0.6503  0.4584  0.4507
 6563TIP3    H219654   0.064   0.492   0.533 -0.3486 -0.6596  0.3848
 6564TIP3   OH219655   5.239   5.489   3.219  0.1960  0.7611  0.0707
 6564TIP3    H119656   5.260   5.531   3.136  0.7161 -1.7140 -1.1150
 6564TIP3    H219657   5.277   5.402   3.213  1.1409  0.8234  3.3434
 6565TIP3   OH219658   3.527   1.023   2.224  0.1065 -0.6169 -0.1556
 6565TIP3    H119659   3.493   0.972   2.150 -1.0788  0.3325 -0.2939
 6565TIP3    H219660   3.455   1.026   2.286  0.7337 -0.4971  0.5889
 6566TIP3   OH219661   3.902   0.927   5.804 -0.4483 -0.0280  0.6352
 6566TIP3    H119662   3.952   0.897   5.728 -0.9378 -0.2105  0.3769
 6566TIP3    H219663   3.967   0.964   5.863  0.0818 -0.9167  0.6306
 6567TIP3   OH219664   6.443   3.771   2.527 -0.3013 -0.2974  0.1794
 6567TIP3    H119665   6.531   3.780   2.564  0.3837  0.3901 -1.5565
 6567TIP3    H219666   6.415   3.861   2.509 -1.1081 -0.5554  0.1086
 6568TIP3   OH219667   1.757   5.455   0.056 -0.2958 -0.7484  0.0745
 6568TIP3    H119668   1.757   5.550   0.070  1.1002 -0.8623  1.2232
 6568TIP3    H219669   1.759   5.419   0.145  0.2929 -1.8175 -0.3617
 6569TIP3   OH219670   5.455   1.333   3.302  0.1224  0.1316  0.0818
 6569TIP3    H119671   5.440   1.417   3.258  0.2921 -0.7744 -1.8280
 6569TIP3    H219672   5.384   1.326   3.365 -0.6682  1.1371 -0.6637
 6570TIP3   OH219673   5.917   3.128   1.168 -0.7144  0.0562 -0.4353
 6570TIP3    H119674   5.975   3.202   1.149  0.1793 -0.4200  0.3323
 6570TIP3    H219675   5.874   3.152   1.250 -0.9691  0.0341 -0.5609
 6571TIP3   OH219676   0.192   4.618   2.052 -0.2418  0.1169 -0.1814
 6571TIP3    H119677   0.178   4.712   2.059  0.1673  0.2601 -1.0532
 6571TIP3    H219678   0.106   4.582   2.035 -0.2200  0.4870 -1.1316
 6572TIP3   OH219679   4.718   5.923   1.202  0.5201  0.1827 -0.3304
 6572TIP3    H119680   4.775   5.901   1.129  1.2785 -0.5540  0.4665
 6572TIP3    H219681   4.690   5.838   1.237 -0.8536  0.5279 -0.5328
 6573TIP3   OH219682   5.196   5.080   1.412 -0.1411  0.1206  0.3772
 6573TIP3    H119683   5.291   5.081   1.424 -0.2465 -0.1280  1.3763
 6573TIP3    H219684   5.163   5.143   1.476 -0.6806 -0.1730  0.3943
 6574TIP3   OH219685   0.098   3.539   4.376 -0.1370  0.2320 -0.1553
 6574TIP3    H119686   0.167   3.475   4.393 -0.9464 -0.5540  0.2654
 6574TIP3    H219687   0.088   3.538   4.280  0.4458  0.3685 -0.2185
 6575TIP3   OH219688   5.021   5.535   1.123 -0.2163  0.2680 -0.2630
 6575TIP3    H119689   4.975   5.492   1.051  1.7795 -0.2934 -1.2843
 6575TIP3    H219690   4.966   5.519   1.200 -0.5075 -2.5514 -0.9434
 6576TIP3   OH219691   0.310   5.829   5.071  0.5408  0.2304 -0.3779
 6576TIP3    H119692   0.362   5.751   5.051 -1.0096 -1.4116  1.5674
 6576TIP3    H219693   0.249   5.836   4.998 -0.7696 -1.7803  0.4334
 6577TIP3   OH219694   0.482   1.535   2.621  0.3960  0.1876  0.0642
 6577TIP3    H119695   0.397   1.494   2.642  0.7095 -1.0311 -0.9199
 6577TIP3    H219696   0.459   1.621   2.586 -0.5895 -0.7878 -1.8497
 6578TIP3   OH219697   3.593   1.062   2.966  0.4842  0.2112 -0.2430
 6578TIP3    H119698   3.571   0.983   2.918  2.0185 -0.7829  0.6019
 6578TIP3    H219699   3.511   1.111   2.971 -0.0151 -0.2822 -2.6418
 6579TIP3   OH219700   4.766   0.575   3.711 -0.3119  0.1696 -0.1174
 6579TIP3    H119701   4.857   0.598   3.730  0.0794 -1.9132  0.8664
 6579TIP3    H219702   4.762   0.564   3.616  0.2030  1.2203 -0.2663
 6580TIP3   OH219703   3.327   6.478   5.015  0.2807 -0.3147  0.4155
 6580TIP3    H119704   3.375   6.436   4.944  0.6760 -1.0842  1.1111
 6580TIP3    H219705   3.395   6.518   5.069 -0.0326  0.4475  0.2525
 6581TIP3   OH219706   1.070   6.399   0.896  0.0601  0.2504 -0.4786
 6581TIP3    H119707   1.009   6.327   0.884  2.1450 -1.5306 -1.0302
 6581TIP3    H219708   1.119   6.377   0.975  1.5482  0.4036 -1.3275
 6582TIP3   OH219709   3.455   4.777   5.235 -0.4167 -0.1391 -0.1223
 6582TIP3    H119710   3.393   4.846   5.256  0.0286  0.4739 -0.7588
 6582TIP3    H219711   3.530   4.823   5.196  0.0598 -0.9406 -0.1795
 6583TIP3   OH219712   3.944   3.201   0.361 -0.9910 -0.2044 -0.2524
 6583TIP3    H119713   4.019   3.213   0.303 -1.5212  0.5524 -0.7859
 6583TIP3    H219714   3.964   3.120   0.409  0.3054  0.1555 -0.1613
 6584TIP3   OH219715   3.091   4.684   5.183  0.1466  0.4663  0.0319
 6584TIP3    H119716   3.092   4.623   5.109 -0.4610  1.3863 -0.7752
 6584TIP3    H219717   3.018   4.655   5.238  0.5723 -0.1977  0.2551
 6585TIP3   OH219718   2.938   1.054   2.915 -0.3994  0.3844 -0.2111
 6585TIP3    H119719   2.915   1.084   2.828 -0.7046 -0.0845 -0.2952
 6585TIP3    H219720   2.871   1.092   2.972  0.6639  1.9404  0.0376
 6586TIP3   OH219721   5.591   6.444   0.065 -0.0487 -0.2458  0.0754
 6586TIP3    H119722   5.658   6.513   0.062 -0.2973  0.0695  1.4123
 6586TIP3    H219723   5.541   6.457  -0.016 -1.2839  2.3905  1.1328
 6587TIP3   OH219724   6.269   1.458   2.173  0.4605  0.9295  0.1635
 6587TIP3    H119725   6.349   1.434   2.218 -1.0878 -0.0641  2.5973
 6587TIP3    H219726   6.284   1.433   2.082  1.9697 -1.6826  1.0314
 6588TIP3   OH219727   1.578   3.979   2.019 -0.4972  0.3434 -0.3678
 6588TIP3    H119728   1.661   3.942   1.990 -0.1073  0.3437  0.6836
 6588TIP3    H219729   1.596   4.072   2.029  0.0455  0.0792  1.8731
 6589TIP3   OH219730   2.358   6.452   4.896 -0.3363  0.4143 -0.1931
 6589TIP3    H119731   2.319   6.539   4.898  1.3549  1.2280 -0.3926
 6589TIP3    H219732   2.433   6.461   4.837  0.6034 -0.8344  0.7519
 6590TIP3   OH219733   1.734   2.117   2.633 -0.1107 -0.9625 -0.0784
 6590TIP3    H119734   1.804   2.127   2.698  0.3654  0.7862 -0.8151
 6590TIP3    H219735   1.778   2.127   2.549 -1.2488  0.2709 -0.5524
 6591TIP3   OH219736   2.541   4.591   0.419 -0.5501 -0.5209 -0.4951
 6591TIP3    H119737   2.555   4.676   0.377  0.0966 -1.0302 -1.3378
 6591TIP3    H219738   2.537   4.611   0.512 -0.6679  0.4663 -0.6950
 6592TIP3   OH219739   3.156   5.554   2.824  0.5948 -0.0185  0.0943
 6592TIP3    H119740   3.147   5.649   2.834  1.7177 -0.1407  3.3786
 6592TIP3    H219741   3.066   5.521   2.819  0.1900  1.2120 -2.3045
 6593TIP3   OH219742   3.650   1.263   1.631 -0.1361 -0.2567 -0.0436
 6593TIP3    H119743   3.637   1.236   1.722  1.0251 -1.3992 -0.1905
 6593TIP3    H219744   3.645   1.359   1.634 -2.2971 -0.3344  0.8416
 6594TIP3   OH219745   4.587   0.701   4.371  0.5156 -0.3797  0.2389
 6594TIP3    H119746   4.645   0.729   4.299  1.3312 -0.6862  0.7616
 6594TIP3    H219747   4.503   0.742   4.351  1.6372  2.4891  0.9838
 6595TIP3   OH219748   7.215   2.794   0.492 -0.3676 -0.4957  0.5738
 6595TIP3    H119749   7.133   2.805   0.540  0.4886  0.2656  1.9531
 6595TIP3    H219750   7.262   2.727   0.541 -0.6534 -1.8564 -0.9385
 6596TIP3   OH219751   3.145   4.649   3.341 -0.2230 -0.3475  0.2230
 6596TIP3    H119752   3.235   4.679   3.357 -0.7372  2.1551 -0.9881
 6596TIP3    H219753   3.155   4.574   3.282  1.0760 -0.1732  0.1926
 6597TIP3   OH219754   4.964   3.415   1.162 -0.6524 -0.4694 -0.1259
 6597TIP3    H119755   5.002   3.345   1.109  0.9872 -0.2824  0.7338
 6597TIP3    H219756   4.873   3.420   1.133 -0.5097 -2.1635 -1.0169
 6598TIP3   OH219757   1.507   6.070   1.585  0.1090  0.9489 -0.1777
 6598TIP3    H119758   1.481   6.029   1.668  0.8672 -1.6626 -1.1141
 6598TIP3    H219759   1.588   6.116   1.605  0.9450 -0.6748  0.3420
 6599TIP3   OH219760   3.853   3.907   3.517  0.1149 -0.5324 -0.2137
 6599TIP3    H119761   3.945   3.929   3.531  0.1921 -1.6758  1.3937
 6599TIP3    H219762   3.805   3.977   3.560  0.3043 -1.2804  1.2857
 6600TIP3   OH219763   5.163   2.115   3.824 -0.5937 -0.2605  0.0463
 6600TIP3    H119764   5.175   2.104   3.730 -0.3468  1.2436 -0.1232
 6600TIP3    H219765   5.246   2.086   3.863 -0.2450  0.2696 -0.2999
 6601TIP3   OH219766   1.161   1.916   4.882  0.0410  0.0111  0.1141
 6601TIP3    H119767   1.230   1.966   4.837  0.1469 -1.4250 -1.3920
 6601TIP3    H219768   1.085   1.923   4.824 -0.3831 -0.3735  0.6178
 6602TIP3   OH219769   6.335   2.148   2.944  0.4699 -0.0149 -0.0977
 6602TIP3    H119770   6.387   2.211   2.894  0.6081  0.6270  0.8275
 6602TIP3    H219771   6.396   2.114   3.009 -0.2063  0.6609  0.9261
 6603TIP3   OH219772   0.605   0.798   1.771  0.5935  0.0233  0.1304
 6603TIP3    H119773   0.687   0.829   1.809  0.4183  0.2224  0.3503
 6603TIP3    H219774   0.628   0.770   1.683  1.2004 -1.3467  0.6908
 6604TIP3   OH219775   0.890   4.637   3.744 -0.2846 -0.1721 -0.4415
 6604TIP3    H119776   0.949   4.565   3.767  0.7841  1.0614  0.8476
 6604TIP3    H219777   0.948   4.709   3.718 -1.3584 -0.0115 -2.5430
 6605TIP3   OH219778   0.647   2.432   0.177  0.3144  0.0838  0.2639
 6605TIP3    H119779   0.616   2.399   0.093  1.0748  1.8039 -0.7482
 6605TIP3    H219780   0.585   2.398   0.241 -1.0757 -0.1467 -1.1585
 6606TIP3   OH219781   5.458   4.979   0.139  0.2692 -0.2538 -0.0582
 6606TIP3    H119782   5.518   5.007   0.208  0.0915 -0.1140  0.0433
 6606TIP3    H219783   5.381   4.946   0.186 -0.1280  0.4531 -0.1816
 6607TIP3   OH219784   7.219   0.182   0.401 -0.2980  0.2010 -0.0011
 6607TIP3    H119785   7.125   0.200   0.396 -0.2600  0.2731 -0.4932
 6607TIP3    H219786   7.259   0.267   0.412 -0.3782  0.0505  1.7365
 6608TIP3   OH219787   6.299   5.176   4.684  0.1223  0.0657 -0.5551
 6608TIP3    H119788   6.282   5.170   4.590  0.7996  0.6661 -0.7214
 6608TIP3    H219789   6.383   5.132   4.697  0.8027  1.3684 -0.4731
 6609TIP3   OH219790   4.634   5.743   1.979 -0.1218  0.0398  0.2965
 6609TIP3    H119791   4.602   5.832   1.963  0.1041  0.1010  0.1787
 6609TIP3    H219792   4.721   5.741   1.939  0.8307  0.4414  2.2153
 6610TIP3   OH219793   6.313   3.760   2.783  0.1293 -0.8318  0.4740
 6610TIP3    H119794   6.368   3.729   2.711  0.7744  0.1777  0.5206
 6610TIP3    H219795   6.238   3.700   2.783  0.1935 -0.9439 -0.9301
 6611TIP3   OH219796   7.114   2.852   5.052  0.0443  0.1679 -0.0259
 6611TIP3    H119797   7.067   2.805   5.121  0.5262  0.2855  0.3909
 6611TIP3    H219798   7.086   2.809   4.971 -0.5572  0.0514  0.2366
 6612TIP3   OH219799   1.859   3.919   5.067 -0.7293  0.3578  0.5505
 6612TIP3    H119800   1.878   3.981   5.138 -2.1221  2.2269 -0.5925
 6612TIP3    H219801   1.934   3.926   5.009 -1.3417  1.8994 -0.1217
 6613TIP3   OH219802   3.754   5.497   3.830 -0.3812 -0.0731 -0.5192
 6613TIP3    H119803   3.708   5.427   3.876 -0.6283  0.3992 -0.0482
 6613TIP3    H219804   3.836   5.456   3.800 -1.0269 -0.8741 -1.2438
 6614TIP3   OH219805   2.984   6.775   2.839  0.3268 -0.1116  0.4183
 6614TIP3    H119806   2.915   6.838   2.817  2.4286  1.8357 -1.0552
 6614TIP3    H219807   3.001   6.729   2.757 -0.1562 -1.6072  1.1323
 6615TIP3   OH219808   4.707   3.644   0.225 -0.2555  0.1530  0.1819
 6615TIP3    H119809   4.666   3.591   0.158  0.8724 -1.3106  0.6023
 6615TIP3    H219810   4.693   3.735   0.196 -2.4946 -0.3155 -0.3844
 6616TIP3   OH219811   5.572   1.752   5.812  0.1765  0.0019 -0.0452
 6616TIP3    H119812   5.533   1.692   5.876  0.9120  0.2493  0.6503
 6616TIP3    H219813   5.523   1.736   5.732  1.4165 -2.7907 -0.3772
 6617TIP3   OH219814   6.618   4.762   1.742  0.2791 -0.0906  0.2235
 6617TIP3    H119815   6.584   4.790   1.827 -0.0020 -1.3587  0.5542
 6617TIP3    H219816   6.697   4.712   1.764  0.1907 -0.4473 -0.2544
 6618TIP3   OH219817   4.943   5.263   3.425 -0.0447  0.7364  0.5678
 6618TIP3    H119818   4.867   5.306   3.385  0.5834  0.1789 -1.3484
 6618TIP3    H219819   4.938   5.173   3.392  1.4023  0.6797  0.4652
 6619TIP3   OH219820   5.162   0.414   3.092 -0.1763  0.4574  0.0447
 6619TIP3    H119821   5.108   0.372   3.025  1.2873 -2.0069  0.2951
 6619TIP3    H219822   5.106   0.414   3.170 -0.5601 -0.1685 -0.2177
 6620TIP3   OH219823   4.389   4.557   1.760  0.3198 -0.6465  0.0219
 6620TIP3    H119824   4.430   4.517   1.837  0.6129 -2.2403 -0.9132
 6620TIP3    H219825   4.457   4.613   1.722  1.2324 -2.1948 -0.7341
 6621TIP3   OH219826   0.543   3.431   3.374 -0.7805  0.3232  0.5052
 6621TIP3    H119827   0.552   3.430   3.470 -0.0305 -1.3571  0.4671
 6621TIP3    H219828   0.616   3.485   3.344 -0.9785  0.8021  0.8691
 6622TIP3   OH219829   4.326   1.037   5.857  0.3265  0.0624  0.0289
 6622TIP3    H119830   4.278   1.075   5.784 -1.1492 -1.0509  0.3633
 6622TIP3    H219831   4.398   0.989   5.816  1.1691  1.6929 -0.4865
 6623TIP3   OH219832   6.069   3.258   2.034 -0.5126  0.5898  0.1241
 6623TIP3    H119833   6.057   3.234   2.125  0.9874 -0.7258  0.0234
 6623TIP3    H219834   6.122   3.338   2.037  1.3091 -0.5582  0.4513
 6624TIP3   OH219835   5.604   4.907   5.194 -0.7139 -0.0469 -0.1278
 6624TIP3    H119836   5.698   4.924   5.199 -0.7696  0.3702 -0.4432
 6624TIP3    H219837   5.565   4.993   5.181 -1.1485 -0.2095  0.0807
 6625TIP3   OH219838   0.913   4.153   0.117  0.2838 -0.1985 -0.1337
 6625TIP3    H119839   0.970   4.079   0.137 -1.1147 -0.6329  2.7492
 6625TIP3    H219840   0.825   4.115   0.114 -0.1655  0.8083 -2.3172
 6626TIP3   OH219841   1.554   3.517   3.062  0.4107  0.3788 -0.2488
 6626TIP3    H119842   1.521   3.555   2.981  0.6318 -0.2391 -0.6456
 6626TIP3    H219843   1.634   3.566   3.081 -0.1190  1.1268  0.0988
 6627TIP3   OH219844   6.726   6.332   5.671 -0.0767 -0.1208 -0.5478
 6627TIP3    H119845   6.741   6.358   5.580  4.2563 -1.8108 -0.5109
 6627TIP3    H219846   6.795   6.375   5.721 -0.2302 -1.9250  1.3895
 6628TIP3   OH219847   2.136   1.034   1.653 -0.1798 -0.8271 -0.2621
 6628TIP3    H119848   2.121   1.066   1.564  2.9927 -2.1277 -1.4335
 6628TIP3    H219849   2.068   0.968   1.667 -0.8436 -0.4843 -1.6874
 6629TIP3   OH219850   6.844   1.307   4.249 -0.1596 -0.0981 -0.4992
 6629TIP3    H119851   6.924   1.256   4.243 -0.4030 -0.7462  1.1835
 6629TIP3    H219852   6.872   1.393   4.281 -0.0734 -0.1556 -0.4213
 6630TIP3   OH219853   6.641   5.683   1.160 -0.1768  0.3236 -0.2674
 6630TIP3    H119854   6.601   5.738   1.092 -1.3039  1.7996  1.4852
 6630TIP3    H219855   6.588   5.603   1.161 -1.3362  1.0639  0.0706
 6631TIP3   OH219856   0.853   5.817   2.818 -0.1813  0.5074 -0.2792
 6631TIP3    H119857   0.790   5.784   2.754 -1.1587  0.4808  0.6607
 6631TIP3    H219858   0.906   5.741   2.841  1.9185  1.0382 -2.9047
 6632TIP3   OH219859   2.671   5.890   1.118 -0.1092 -0.0473 -0.4645
 6632TIP3    H119860   2.629   5.810   1.086 -0.9202  0.0600  0.3111
 6632TIP3    H219861   2.610   5.926   1.182 -0.5867  2.1513 -2.0260
 6633TIP3   OH219862   1.359   2.388   1.439 -0.0021 -0.1140 -0.7031
 6633TIP3    H119863   1.348   2.420   1.529  0.1833  0.8903 -1.0298
 6633TIP3    H219864   1.272   2.356   1.414 -0.0079 -0.5902 -0.1038
 6634TIP3   OH219865   1.760   3.405   3.311 -0.3836 -0.2291 -0.6287
 6634TIP3    H119866   1.738   3.348   3.385  0.1498  0.2806 -0.0556
 6634TIP3    H219867   1.785   3.346   3.241  2.1082 -0.7482  0.5654
 6635TIP3   OH219868   1.414   5.880   3.601 -0.2033 -0.3739  0.5650
 6635TIP3    H119869   1.394   5.960   3.651 -0.7779 -0.3911  0.3604
 6635TIP3    H219870   1.499   5.851   3.636  0.2245  0.5662  0.3440
 6636TIP3   OH219871   1.458   6.241   3.755 -0.4945  0.1968 -0.2684
 6636TIP3    H119872   1.491   6.261   3.667  0.0311  0.9335  0.0876
 6636TIP3    H219873   1.442   6.326   3.795  1.4355 -0.0372  1.1589
 6637TIP3   OH219874   2.196   0.997   0.532 -0.3112  0.2355 -0.1072
 6637TIP3    H119875   2.289   1.017   0.546 -0.1030 -0.9852  0.4341
 6637TIP3    H219876   2.183   0.912   0.576 -1.4903 -0.0077 -0.8772
 6638TIP3   OH219877   5.151   2.002   2.719 -0.3269 -0.0038  0.4482
 6638TIP3    H119878   5.083   2.004   2.652 -0.2949  0.3418  0.4254
 6638TIP3    H219879   5.114   2.052   2.792 -0.0407  0.3063  0.3816
 6639TIP3   OH219880   6.572   3.785   0.621 -0.2171  0.5227 -1.0907
 6639TIP3    H119881   6.582   3.710   0.680  3.6406  1.4623 -0.2875
 6639TIP3    H219882   6.516   3.846   0.669  0.6274  0.1367  0.4816
 6640TIP3   OH219883   1.553   6.680   4.450 -0.4867  0.4671  0.3175
 6640TIP3    H119884   1.626   6.630   4.487 -1.9803 -1.4425  0.8453
 6640TIP3    H219885   1.574   6.689   4.357  0.9746  1.0562  0.6724
 6641TIP3   OH219886   4.925   2.013   2.057 -0.1602  0.0926 -0.1709
 6641TIP3    H119887   4.887   2.047   1.976  0.9591  1.1747 -0.2743
 6641TIP3    H219888   4.994   1.953   2.028 -0.1165  0.0638 -0.0069
 6642TIP3   OH219889   6.727   5.438   2.528 -0.4156  0.5152  0.8949
 6642TIP3    H119890   6.761   5.427   2.617 -0.5915 -2.0800  0.7167
 6642TIP3    H219891   6.632   5.443   2.540 -0.4167  0.4890  0.8994
 6643TIP3   OH219892   1.664   2.973   1.322 -0.2055  0.1145  0.2401
 6643TIP3    H119893   1.626   2.979   1.234  4.0836 -0.0934 -1.8875
 6643TIP3    H219894   1.631   2.890   1.357 -1.2254 -0.3117 -1.6011
 6644TIP3   OH219895   3.759   6.039   5.119  0.5819 -0.3545  0.1731
 6644TIP3    H119896   3.688   6.094   5.086  0.2888 -2.2261 -2.6580
 6644TIP3    H219897   3.764   6.060   5.212  1.1322  4.9961 -0.7825
 6645TIP3   OH219898   0.866   1.587   3.165  0.1429  0.7743 -0.0580
 6645TIP3    H119899   0.856   1.652   3.234 -0.2705 -0.3332  0.9600
 6645TIP3    H219900   0.935   1.529   3.196 -1.6052 -1.1037  0.6042
 6646TIP3   OH219901   5.930   4.481   1.666  0.7363  0.2074 -0.1519
 6646TIP3    H119902   5.919   4.453   1.575 -0.3233 -0.0696  0.0370
 6646TIP3    H219903   6.023   4.472   1.683  0.7667 -0.9847 -0.8210
 6647TIP3   OH219904   5.693   4.669   3.298  0.0946 -0.6418  0.4057
 6647TIP3    H119905   5.677   4.577   3.281 -0.8182 -0.5064  0.4656
 6647TIP3    H219906   5.687   4.677   3.393  2.0406 -0.8385  0.5851
 6648TIP3   OH219907   0.814   2.258   2.072 -0.4005 -0.1763  0.0212
 6648TIP3    H119908   0.840   2.333   2.019 -0.0286  0.9104  1.6668
 6648TIP3    H219909   0.761   2.205   2.013 -0.6871  1.3817 -1.2042
 6649TIP3   OH219910   3.364   0.577   2.787  0.0431  0.2477  0.0781
 6649TIP3    H119911   3.279   0.581   2.830  0.9235  1.9376  1.8499
 6649TIP3    H219912   3.386   0.484   2.785 -0.9310 -0.0471  1.5060
 6650TIP3   OH219913   6.160   2.968   1.286 -0.1164  0.2021 -0.0991
 6650TIP3    H119914   6.092   3.004   1.229 -1.4412  0.7070  1.7422
 6650TIP3    H219915   6.151   3.016   1.368  2.1893 -0.0420  0.3568
 6651TIP3   OH219916   0.743   5.940   3.632 -0.2682  0.4683  0.4204
 6651TIP3    H119917   0.798   5.874   3.591 -1.5401 -0.2657 -0.1462
 6651TIP3    H219918   0.704   5.988   3.558  0.9208  2.1407  0.8058
 6652TIP3   OH219919   4.754   1.783   0.795 -0.1192 -0.1429 -0.0723
 6652TIP3    H119920   4.662   1.777   0.768 -0.1153  1.0682 -0.4255
 6652TIP3    H219921   4.766   1.710   0.855 -0.7066 -1.6654 -1.7063
 6653TIP3   OH219922   2.983   2.402   1.629  0.3287  0.3148  0.1273
 6653TIP3    H119923   2.976   2.306   1.631 -2.1482  0.3247 -2.2499
 6653TIP3    H219924   2.900   2.432   1.664  1.1101  1.6658  0.9037
 6654TIP3   OH219925   2.628   2.032   4.372  0.0095 -0.6991 -0.2087
 6654TIP3    H119926   2.605   2.119   4.340 -1.9703 -1.2177 -0.3579
 6654TIP3    H219927   2.670   1.989   4.297  0.8791  0.0619 -0.1738
 6655TIP3   OH219928   0.134   4.890   1.501  0.5141  0.1806  0.0844
 6655TIP3    H119929   0.230   4.881   1.507  0.7047  1.1705 -1.0940
 6655TIP3    H219930   0.120   4.981   1.477 -0.7204 -0.0385 -0.0938
 6656TIP3   OH219931   1.477   0.607   5.478 -0.8943 -0.4299  0.1484
 6656TIP3    H119932   1.441   0.539   5.421 -0.8622  0.0523 -0.4560
 6656TIP3    H219933   1.471   0.570   5.566  0.0119 -1.6244 -0.2526
 6657TIP3   OH219934   4.072   5.225   3.254 -0.0843  0.1026  0.1605
 6657TIP3    H119935   4.077   5.135   3.224  0.1851  0.5688 -1.2624
 6657TIP3    H219936   4.063   5.277   3.174 -0.7036  1.3097  0.9742
 6658TIP3   OH219937   0.464   6.382   2.520  0.2743 -0.0933  0.4103
 6658TIP3    H119938   0.528   6.337   2.574  2.2916  1.7330 -0.2976
 6658TIP3    H219939   0.436   6.457   2.573 -1.0079 -0.6246  0.5334
 6659TIP3   OH219940   4.910   3.570   3.819 -0.3876 -0.2623 -0.2959
 6659TIP3    H119941   4.976   3.638   3.825  0.8404 -1.4076 -0.3039
 6659TIP3    H219942   4.842   3.596   3.880  1.7784 -0.8688  2.5834
 6660TIP3   OH219943   5.953   0.103   2.340 -0.5009 -0.1702 -0.3379
 6660TIP3    H119944   6.047   0.114   2.355 -0.5318 -1.4121  0.9571
 6660TIP3    H219945   5.922   0.190   2.313  0.5089  1.0391  2.1207
 6661TIP3   OH219946   1.019   0.528   4.379  0.7252 -0.1895  0.0237
 6661TIP3    H119947   0.984   0.468   4.445  1.1004  0.7964  1.1567
 6661TIP3    H219948   1.112   0.535   4.400  0.8599  0.1079 -0.6415
 6662TIP3   OH219949   4.439   5.940   0.224  0.0803 -0.5795 -0.4210
 6662TIP3    H119950   4.504   5.996   0.266  1.5848 -0.1828 -3.0566
 6662TIP3    H219951   4.361   5.948   0.278  1.0056  2.1472  0.6373
 6663TIP3   OH219952   3.203   6.648   5.317 -0.1458 -0.0298 -0.1242
 6663TIP3    H119953   3.249   6.690   5.244  2.4752  1.7016  2.3051
 6663TIP3    H219954   3.220   6.555   5.305  0.3011  0.2140 -1.6544
 6664TIP3   OH219955   6.033   6.486   1.350 -0.1868  0.1438  0.3775
 6664TIP3    H119956   5.946   6.524   1.333 -0.2616  0.2724  1.0422
 6664TIP3    H219957   6.048   6.427   1.276 -1.0035 -0.1645  0.4500
 6665TIP3   OH219958   5.170   5.039   3.302  0.0969  0.7116 -0.2268
 6665TIP3    H119959   5.176   5.009   3.393  0.7548  0.2723 -0.4116
 6665TIP3    H219960   5.084   5.082   3.297  0.0927  0.8243  0.6234
 6666TIP3   OH219961   5.445   1.702   5.579  0.2203  0.1612  0.3086
 6666TIP3    H119962   5.505   1.660   5.517  0.6513  0.4151  0.5499
 6666TIP3    H219963   5.359   1.666   5.557  0.2835  0.6444 -0.7833
 6667TIP3   OH219964   7.167   4.443   0.865 -0.2443 -0.6564 -0.3276
 6667TIP3    H119965   7.150   4.527   0.821  0.7293 -0.9361 -1.2845
 6667TIP3    H219966   7.081   4.402   0.870 -0.3761 -0.7572 -2.3416
 6668TIP3   OH219967   2.729   3.693   1.633  0.6403  0.3267  0.1284
 6668TIP3    H119968   2.740   3.683   1.728 -0.8182  0.4142  0.3430
 6668TIP3    H219969   2.814   3.672   1.596  0.4064 -3.0986  1.2185
 6669TIP3   OH219970   1.235   1.619   4.868  0.3265 -0.5043  0.2649
 6669TIP3    H119971   1.194   1.634   4.783  1.1063  0.7408  0.0688
 6669TIP3    H219972   1.231   1.705   4.911  2.6641 -0.2997  0.2208
 6670TIP3   OH219973   3.650   0.847   1.754 -0.3719  0.2503  0.2060
 6670TIP3    H119974   3.714   0.842   1.683  1.6717 -1.0790  2.0292
 6670TIP3    H219975   3.602   0.764   1.749 -0.6245  0.4072  0.0234
 6671TIP3   OH219976   6.412   2.859   3.290  0.1503 -0.4342  0.3940
 6671TIP3    H119977   6.329   2.814   3.273 -0.5015  1.2791 -1.3042
 6671TIP3    H219978   6.459   2.856   3.207  1.1418 -0.0898  0.9267
 6672TIP3   OH219979   1.016   2.190   4.853 -0.4844 -0.3878 -0.4990
 6672TIP3    H119980   1.035   2.190   4.947 -1.3036  0.1178 -0.3312
 6672TIP3    H219981   1.101   2.207   4.812 -0.3704  0.8168  0.2102
 6673TIP3   OH219982   2.708   3.637   3.610 -0.3893  0.2587 -0.2512
 6673TIP3    H119983   2.671   3.619   3.696 -0.4716  1.2859 -0.0539
 6673TIP3    H219984   2.705   3.554   3.564 -0.6516 -0.2271  0.6247
 6674TIP3   OH219985   6.090   1.888   0.902  0.3699  0.6641 -0.0910
 6674TIP3    H119986   6.161   1.905   0.964  0.2547 -0.8527  0.5064
 6674TIP3    H219987   6.133   1.846   0.828  0.3508  1.4960 -0.5850
 6675TIP3   OH219988   0.986   2.103   2.767 -0.2169  0.0167  0.4471
 6675TIP3    H119989   1.000   2.197   2.785 -1.0253  0.0659  0.8324
 6675TIP3    H219990   1.044   2.085   2.693  0.1220  0.7695  0.5129
 6676TIP3   OH219991   1.422   0.325   2.070  0.1099  0.1697 -0.2302
 6676TIP3    H119992   1.376   0.407   2.052 -1.3441 -0.5915 -0.1891
 6676TIP3    H219993   1.487   0.347   2.136 -0.9323  1.0935  0.5249
 6677TIP3   OH219994   6.711   6.689   4.035  0.3998 -0.0241 -0.4771
 6677TIP3    H119995   6.796   6.683   3.992  0.6005  0.1943 -0.1125
 6677TIP3    H219996   6.726   6.659   4.124  0.4670  1.5643  0.0728
 6678TIP3   OH219997   2.713   0.832   2.358 -0.3056 -0.1442 -0.0702
 6678TIP3    H119998   2.657   0.797   2.288  0.2811  0.4696 -0.8640
 6678TIP3    H219999   2.780   0.883   2.312 -0.4755  1.0819  0.9884
 6679TIP3   OH220000   6.536   5.519   0.574 -0.0810  0.5235 -0.2609
 6679TIP3    H120001   6.532   5.606   0.612  0.8518 -0.8034  3.3265
 6679TIP3    H220002   6.457   5.475   0.607  0.7531 -0.6892  0.2047
 6680TIP3   OH220003   2.518   2.322   0.296 -0.0620  0.0092 -0.3293
 6680TIP3    H120004   2.504   2.311   0.390 -2.2386 -1.6669 -0.7609
 6680TIP3    H220005   2.608   2.293   0.281  0.3380  0.3618  1.2171
 6681TIP3   OH220006   6.641   4.673   2.575  0.4405 -0.0303  0.3323
 6681TIP3    H120007   6.584   4.750   2.581 -1.5257 -1.4130  0.5081
 6681TIP3    H220008   6.714   4.693   2.633 -0.7632  1.1362  1.5336
 6682TIP3   OH220009   5.819   0.799   3.243  0.7890  0.5761 -0.5169
 6682TIP3    H120010   5.769   0.740   3.187  0.4044  0.0870  0.3142
 6682TIP3    H220011   5.860   0.741   3.308  2.1128  1.0128 -0.9310
 6683TIP3   OH220012   4.746   2.225   5.253  0.4327  0.1107 -0.3247
 6683TIP3    H120013   4.826   2.274   5.235  1.0826 -1.1215 -0.9174
 6683TIP3    H220014   4.771   2.160   5.319 -0.2987  0.2667  0.1234
 6684TIP3   OH220015   1.636   5.650   4.330 -0.0748 -0.4115  0.2225
 6684TIP3    H120016   1.702   5.660   4.262 -0.5160 -0.4604 -0.2152
 6684TIP3    H220017   1.683   5.611   4.404  0.1369 -1.5495 -0.4905
 6685TIP3   OH220018   0.900   5.673   0.843  0.1536  0.2704 -0.6438
 6685TIP3    H120019   0.918   5.727   0.766  1.1317  1.2679  0.2543
 6685TIP3    H220020   0.943   5.590   0.824 -0.8056  0.0011 -1.7539
 6686TIP3   OH220021   3.199   2.363   1.417 -0.2415  0.3881  0.2141
 6686TIP3    H120022   3.133   2.361   1.487 -0.6632  1.5585 -0.1232
 6686TIP3    H220023   3.233   2.453   1.419  1.7661 -0.3387  0.7451
 6687TIP3   OH220024   2.467   6.598   2.257 -0.3453 -0.0963  0.4587
 6687TIP3    H120025   2.548   6.650   2.261  0.2651 -0.9206 -0.5693
 6687TIP3    H220026   2.449   6.575   2.348  0.5855  0.1078  0.7078
 6688TIP3   OH220027   2.258   0.186   4.893 -0.2438  0.6408  0.1601
 6688TIP3    H120028   2.245   0.138   4.811 -0.9198 -1.8554  1.6046
 6688TIP3    H220029   2.331   0.140   4.936 -0.5004  1.2990  1.3382
 6689TIP3   OH220030   5.555   6.440   0.559 -0.1039 -0.2574  0.4354
 6689TIP3    H120031   5.583   6.492   0.634  0.3382 -0.3701  0.3543
 6689TIP3    H220032   5.637   6.404   0.524 -0.3117 -0.2538 -0.0589
 6690TIP3   OH220033   3.837   1.243   1.425  0.2505 -0.1429  0.3049
 6690TIP3    H120034   3.922   1.280   1.448  0.1080 -0.0686  0.7166
 6690TIP3    H220035   3.793   1.229   1.509 -0.2440  0.0592  0.0826
 6691TIP3   OH220036   4.942   0.802   0.105  0.2660  0.6698 -0.2661
 6691TIP3    H120037   5.009   0.838   0.047 -0.0324 -0.3736 -1.2927
 6691TIP3    H220038   4.909   0.878   0.154  0.7051  1.5248 -1.2641
 6692TIP3   OH220039   3.288   1.468   4.198  0.8590 -0.2290 -0.1243
 6692TIP3    H120040   3.318   1.380   4.220 -1.1898 -0.8639  0.3702
 6692TIP3    H220041   3.194   1.459   4.184  0.6939  1.7728 -0.7587
 6693TIP3   OH220042   0.396   1.972   4.506 -0.2094 -0.3522  0.1288
 6693TIP3    H120043   0.449   2.030   4.561 -0.1462 -0.1063 -0.1904
 6693TIP3    H220044   0.335   1.931   4.568 -0.7936  0.6583  0.2555
 6694TIP3   OH220045   6.702   1.413   3.028 -0.4704  0.0956  0.5929
 6694TIP3    H120046   6.710   1.494   2.978  1.8120 -0.6633 -0.3801
 6694TIP3    H220047   6.649   1.356   2.973  1.7908 -0.6364 -0.9292
 6695TIP3   OH220048   7.033   1.539   5.805 -0.2156  0.3360  0.0054
 6695TIP3    H120049   7.124   1.534   5.834 -0.2557 -0.9205 -0.0592
 6695TIP3    H220050   7.010   1.450   5.780 -1.3342  0.7173 -0.4006
 6696TIP3   OH220051   1.128   3.568   1.865 -0.8668  0.3941 -0.1717
 6696TIP3    H120052   1.037   3.596   1.853 -0.4601  0.9497 -2.3267
 6696TIP3    H220053   1.160   3.623   1.937 -1.9155  0.9356 -0.0902
 6697TIP3   OH220054   6.877   6.810   1.587  0.3068  0.0226  0.2395
 6697TIP3    H120055   6.968   6.825   1.560  0.1670 -0.7052 -0.7057
 6697TIP3    H220056   6.858   6.722   1.554  0.1193 -0.9560  2.7848
 6698TIP3   OH220057   1.718   4.742   0.462 -0.3906 -0.5689  0.1839
 6698TIP3    H120058   1.673   4.657   0.463 -0.9680 -0.2734 -0.0890
 6698TIP3    H220059   1.696   4.781   0.547 -2.8149  0.6598 -0.9003
 6699TIP3   OH220060   4.900   4.117   0.815  0.0821 -0.4311  0.0120
 6699TIP3    H120061   4.924   4.084   0.728 -0.8946 -3.2222  0.6928
 6699TIP3    H220062   4.839   4.188   0.798  0.9422 -0.0258 -1.5789
 6700TIP3   OH220063   0.998   5.321   4.046  0.0434  0.2823 -0.1092
 6700TIP3    H120064   0.930   5.388   4.042  0.4650  0.6708 -3.4346
 6700TIP3    H220065   1.066   5.360   4.101 -0.2987  2.0899 -0.8845
 6701TIP3   OH220066   4.388   0.670   2.614 -0.0029 -0.1795  0.9625
 6701TIP3    H120067   4.312   0.615   2.595 -0.4634  0.4957  0.8504
 6701TIP3    H220068   4.392   0.732   2.541  0.2610  0.2242  1.3145
 6702TIP3   OH220069   4.369   4.120   3.788 -0.1807  0.1008  0.0919
 6702TIP3    H120070   4.375   4.106   3.693 -1.7468 -1.4519  0.1746
 6702TIP3    H220071   4.339   4.210   3.797  3.5382  1.6362 -0.7054
 6703TIP3   OH220072   5.588   5.338   4.851 -0.1418 -0.4737  0.3074
 6703TIP3    H120073   5.509   5.295   4.818 -0.8863 -1.3200  2.9388
 6703TIP3    H220074   5.625   5.276   4.913  0.0097  1.7052  2.5421
 6704TIP3   OH220075   7.041   3.436   0.572 -0.5207  0.0212  0.0836
 6704TIP3    H120076   6.988   3.407   0.498 -0.8086 -1.3263  0.7910
 6704TIP3    H220077   6.988   3.415   0.649  0.9488 -1.2528  0.8062
 6705TIP3   OH220078   6.702   0.268   0.789 -0.8824 -0.2996  0.1196
 6705TIP3    H120079   6.712   0.232   0.701 -1.3538  0.4251 -0.2432
 6705TIP3    H220080   6.660   0.197   0.839 -3.7951  0.3736 -1.1242
 6706TIP3   OH220081   5.903   4.192   3.571  0.4497  0.3617  0.1269
 6706TIP3    H120082   5.907   4.098   3.590 -1.2245  0.0467 -0.8575
 6706TIP3    H220083   5.995   4.221   3.571  0.8707 -0.6981  3.0255
 6707TIP3   OH220084   1.053   1.602   2.421 -0.0481 -0.0597  0.1592
 6707TIP3    H120085   1.002   1.629   2.498  0.6589 -0.4695  0.7862
 6707TIP3    H220086   1.142   1.590   2.455  0.1432 -0.8240 -0.6037
 6708TIP3   OH220087   0.382   3.905   3.275  0.1301  0.5034  0.0549
 6708TIP3    H120088   0.315   3.973   3.276  0.2464  0.6387 -0.6553
 6708TIP3    H220089   0.342   3.830   3.319 -0.4167  0.6422 -0.2072
 6709TIP3   OH220090   5.412   3.307   5.672  0.2136  0.0604  0.1523
 6709TIP3    H120091   5.372   3.223   5.693 -1.3065  0.8855  0.6355
 6709TIP3    H220092   5.455   3.335   5.754  0.4077 -0.0628  0.0945
 6710TIP3   OH220093   4.991   0.491   4.888  0.4990  0.1067 -0.0469
 6710TIP3    H120094   5.019   0.430   4.820 -0.6180  0.5831 -0.9682
 6710TIP3    H220095   4.926   0.442   4.939 -0.4515  0.5260 -0.8314
 6711TIP3   OH220096   3.448   5.523   0.014 -0.1584 -0.2298  0.4003
 6711TIP3    H120097   3.506   5.538   0.088  0.8017  0.0039 -0.3787
 6711TIP3    H220098   3.442   5.427   0.007  1.0105 -0.2748 -0.1672
 6712TIP3   OH220099   2.879   5.507   2.772  0.5281  0.0494 -0.0605
 6712TIP3    H120100   2.858   5.415   2.756 -1.7032  0.4338  0.2954
 6712TIP3    H220101   2.834   5.528   2.854  1.1324  1.4141 -0.0565
 6713TIP3   OH220102   1.608   5.700   0.899 -0.5360  0.0845 -0.4734
 6713TIP3    H120103   1.682   5.656   0.940 -0.4179  0.8299  0.1141
 6713TIP3    H220104   1.534   5.684   0.958 -0.6790 -0.0110 -0.6744
 6714TIP3   OH220105   3.305   4.090   3.443 -0.0203 -0.3654 -0.1801
 6714TIP3    H120106   3.224   4.043   3.464 -0.5963  0.8507  0.4442
 6714TIP3    H220107   3.354   4.091   3.525  0.1251 -0.1412 -0.2685
 6715TIP3   OH220108   5.638   2.443   2.958 -0.2246  0.0532  0.0469
 6715TIP3    H120109   5.565   2.481   3.007 -0.9089 -2.3127  0.9863
 6715TIP3    H220110   5.715   2.460   3.011 -0.5393  0.0078  0.5188
 6716TIP3   OH220111   2.621   4.702   4.483 -0.0867  0.6893 -0.3758
 6716TIP3    H120112   2.611   4.713   4.389  1.8288 -0.1493 -0.7191
 6716TIP3    H220113   2.697   4.645   4.493  1.4327  2.8787  1.7291
 6717TIP3   OH220114   6.972   3.231   4.291  0.1558  0.0756 -0.3372
 6717TIP3    H120115   6.944   3.303   4.348 -2.1708 -1.5032  0.6422
 6717TIP3    H220116   7.053   3.200   4.329 -0.4099  0.2414  1.0506
 6718TIP3   OH220117   6.298   6.232   0.625 -0.2273 -0.3335  0.4287
 6718TIP3    H120118   6.348   6.304   0.664 -1.3287  0.6355  0.1290
 6718TIP3    H220119   6.347   6.210   0.546  0.2536 -0.0647  0.6451
 6719TIP3   OH220120   3.843   1.359   1.954 -0.1202 -0.1697 -0.2074
 6719TIP3    H120121   3.925   1.361   1.904 -0.1673 -0.1878 -0.2862
 6719TIP3    H220122   3.840   1.271   1.993 -0.0070 -0.1008 -0.0446
 6720TIP3   OH220123   3.373   0.385   2.208  0.4519 -0.5541 -0.2985
 6720TIP3    H120124   3.371   0.460   2.266 -0.8169  0.4732 -1.5818
 6720TIP3    H220125   3.354   0.310   2.264  2.4711 -0.0701  1.1343
 6721TIP3   OH220126   7.044   1.366   3.080 -0.2049 -0.5744  0.6128
 6721TIP3    H120127   7.058   1.364   2.985 -0.6371  1.4936  0.4645
 6721TIP3    H220128   6.951   1.347   3.091 -0.3088 -0.0989  0.5659
 6722TIP3   OH220129   1.223   3.157   4.164 -0.1631  0.6850  0.2071
 6722TIP3    H120130   1.227   3.087   4.229 -3.7951  0.6929  0.6875
 6722TIP3    H220131   1.288   3.221   4.193  0.2488 -0.5650  2.2328
 6723TIP3   OH220132   4.716   4.344   0.747 -0.0800  0.0309  0.3375
 6723TIP3    H120133   4.760   4.400   0.683 -1.6429  2.1427  0.9798
 6723TIP3    H220134   4.658   4.289   0.695  1.6770 -1.2453 -0.3312
 6724TIP3   OH220135   5.006   3.049   2.236  0.3506  0.0569 -0.1743
 6724TIP3    H120136   5.019   2.958   2.209  0.9406  0.0395  0.1525
 6724TIP3    H220137   4.912   3.056   2.253  0.1588 -0.2482 -1.0739
 6725TIP3   OH220138   7.046   0.633   0.356 -0.2038  0.0626  0.1411
 6725TIP3    H120139   7.109   0.694   0.395  1.5667  1.7487 -4.6425
 6725TIP3    H220140   6.961   0.662   0.388  0.9176  2.4310  1.1813
 6726TIP3   OH220141   3.474   2.962   3.944  0.2777 -0.0146  0.5115
 6726TIP3    H120142   3.502   2.886   3.995  1.4217  0.6082  0.8592
 6726TIP3    H220143   3.516   2.950   3.859  2.9797  1.6371  1.4809
 6727TIP3   OH220144   5.254   2.343   5.462 -0.6568  0.2496  0.5028
 6727TIP3    H120145   5.262   2.429   5.502 -1.9355  0.3300  0.6109
 6727TIP3    H220146   5.344   2.320   5.438 -0.3000  1.6262  0.4172
 6728TIP3   OH220147   5.430   3.676   1.253  0.6118 -0.1942 -0.3227
 6728TIP3    H120148   5.388   3.745   1.303  1.3120  0.5392 -0.7309
 6728TIP3    H220149   5.371   3.660   1.179 -0.1120 -0.8445  0.3737
 6729TIP3   OH220150   6.800   2.387   0.045 -0.1259  0.4418 -0.0381
 6729TIP3    H120151   6.841   2.353  -0.035 -0.0253  0.4292  0.0180
 6729TIP3    H220152   6.833   2.329   0.114  0.0730  0.6724  0.0627
 6730TIP3   OH220153   5.016   3.447   2.961 -0.2868 -0.4670 -0.0922
 6730TIP3    H120154   5.010   3.355   2.937 -1.4257 -0.5762  0.5064
 6730TIP3    H220155   5.036   3.446   3.055 -0.4703 -0.1141 -0.0470
 6731TIP3   OH220156   6.546   2.555   4.263 -0.1721 -0.0537 -0.0202
 6731TIP3    H120157   6.597   2.521   4.190  0.1993 -2.1764  1.1356
 6731TIP3    H220158   6.470   2.498   4.268  0.6897 -1.1250  2.2795
 6732TIP3   OH220159   5.970   4.998   2.003 -0.0313  0.5778  0.5672
 6732TIP3    H120160   5.970   5.093   2.013  2.1776  0.7682 -0.6397
 6732TIP3    H220161   5.973   4.964   2.092  0.7485  1.6810  0.9837
 6733TIP3   OH220162   5.466   2.031   1.454 -0.2209  0.2106  0.5314
 6733TIP3    H120163   5.413   2.027   1.533 -0.7554  1.7611  0.2979
 6733TIP3    H220164   5.420   2.094   1.398  1.6509  1.3236  0.1636
 6734TIP3   OH220165   0.426   5.930   4.795 -0.3794 -0.0585 -0.0709
 6734TIP3    H120166   0.344   5.881   4.805  0.0882 -0.7123  0.6879
 6734TIP3    H220167   0.461   5.935   4.884 -0.1565  1.2179 -0.2175
 6735TIP3   OH220168   5.544   4.990   0.736 -0.3347  0.3592  0.7081
 6735TIP3    H120169   5.469   5.017   0.789  0.8825  1.8033  1.8182
 6735TIP3    H220170   5.581   5.072   0.703  1.1679 -0.2455  0.7897
 6736TIP3   OH220171   0.312   4.265   5.124 -0.0190  0.5851  0.0603
 6736TIP3    H120172   0.235   4.219   5.092  0.8058 -0.9797  0.2546
 6736TIP3    H220173   0.367   4.278   5.047  0.0186  0.7255  0.1095
 6737TIP3   OH220174   7.099   4.085   2.909  0.3384  0.5827 -0.2256
 6737TIP3    H120175   7.101   4.073   2.814  1.0238 -0.4484 -0.1012
 6737TIP3    H220176   7.011   4.059   2.935  0.5539 -0.4070 -0.4445
 6738TIP3   OH220177   2.411   6.098   0.459 -0.4957  0.2294 -0.2888
 6738TIP3    H120178   2.427   6.104   0.365 -0.3583 -0.4910 -0.3159
 6738TIP3    H220179   2.495   6.071   0.496 -0.2466  1.5663  0.1750
 6739TIP3   OH220180   3.097   6.156   2.735 -0.2825  0.4760 -0.3114
 6739TIP3    H120181   3.046   6.089   2.688  0.6067 -0.2008 -0.3347
 6739TIP3    H220182   3.052   6.238   2.715 -0.0762  0.1961 -2.1804
 6740TIP3   OH220183   6.229   2.405   5.072 -0.0650  0.3391  0.6984
 6740TIP3    H120184   6.320   2.391   5.098 -0.3559 -2.1557  0.5477
 6740TIP3    H220185   6.178   2.350   5.131 -1.3783  0.6651 -0.0946
 6741TIP3   OH220186   4.468   0.971   2.555 -0.1587 -0.7588  0.0561
 6741TIP3    H120187   4.406   0.962   2.482  0.9010  0.1651 -1.0148
 6741TIP3    H220188   4.413   0.991   2.631 -1.3446 -2.3850 -0.3230
 6742TIP3   OH220189   0.193   2.377   3.552  0.3217  0.2180  0.1095
 6742TIP3    H120190   0.190   2.472   3.548 -0.5465  0.1539 -1.1198
 6742TIP3    H220191   0.107   2.348   3.523  0.4418 -0.9478  0.8092
 6743TIP3   OH220192   5.842   1.441   3.732 -0.3294  0.3338  0.3957
 6743TIP3    H120193   5.812   1.364   3.685 -0.9822  0.5623  0.4363
 6743TIP3    H220194   5.854   1.412   3.822 -0.6492  0.2989  0.4265
 6744TIP3   OH220195   3.225   0.977   2.751  0.1728  0.6329 -0.0771
 6744TIP3    H120196   3.154   1.034   2.722 -0.0972  0.6853  0.6695
 6744TIP3    H220197   3.235   0.996   2.844  0.3461 -0.2433  0.0956
 6745TIP3   OH220198   3.115   5.230   2.345  0.0830  0.5049 -0.1318
 6745TIP3    H120199   3.205   5.211   2.372 -0.3691 -1.8152  0.0259
 6745TIP3    H220200   3.068   5.244   2.428 -0.0833 -0.4622 -0.0399
 6746TIP3   OH220201   0.689   6.657   5.002  0.2810  0.5933 -0.1754
 6746TIP3    H120202   0.777   6.628   4.978 -0.1372  0.1191 -1.1902
 6746TIP3    H220203   0.703   6.717   5.075  1.3333 -0.6872  0.7434
 6747TIP3   OH220204   2.906   1.058   0.761  0.4345  0.3793  0.1062
 6747TIP3    H120205   3.001   1.070   0.755  0.2850  1.0425 -2.5140
 6747TIP3    H220206   2.894   0.963   0.764  1.1942  0.2294 -0.8935
 6748TIP3   OH220207   3.708   2.134   5.308  0.2175  0.1550 -0.3381
 6748TIP3    H120208   3.736   2.171   5.392  0.0210 -0.5423  0.0381
 6748TIP3    H220209   3.724   2.040   5.317  0.2473  0.0824 -1.1053
 6749TIP3   OH220210   6.051   2.711   2.793 -0.0769  0.1619  0.3903
 6749TIP3    H120211   6.057   2.792   2.743 -0.2490  0.9346  1.5826
 6749TIP3    H220212   5.970   2.671   2.762 -0.1068  0.5532 -0.0537
 6750TIP3   OH220213   2.990   0.735   5.462  0.0119 -0.4221 -0.4545
 6750TIP3    H120214   2.964   0.703   5.548 -0.7206 -0.1018 -0.5537
 6750TIP3    H220215   2.909   0.765   5.422  0.2014 -1.3808 -1.6088
 6751TIP3   OH220216   6.530   0.637   2.055 -0.7229  0.7513  0.0588
 6751TIP3    H120217   6.603   0.598   2.103 -1.9777 -1.4438  0.3535
 6751TIP3    H220218   6.505   0.714   2.107  1.0416  1.2719  0.1887
 6752TIP3   OH220219   6.633   3.560   5.263  0.0766  0.2311  0.5371
 6752TIP3    H120220   6.671   3.623   5.201  1.1996 -1.5552 -0.7005
 6752TIP3    H220221   6.676   3.580   5.346  1.4035  0.2693 -0.1302
 6753TIP3   OH220222   4.745   2.722   2.447 -0.1253  0.1699 -0.3888
 6753TIP3    H120223   4.830   2.752   2.480 -1.2242  1.1413  1.8149
 6753TIP3    H220224   4.749   2.627   2.452  1.2163  0.1414 -1.4530
 6754TIP3   OH220225   2.235   0.534   3.482  0.1954  0.1515 -0.2092
 6754TIP3    H120226   2.309   0.482   3.513  0.4557 -1.3812 -3.0658
 6754TIP3    H220227   2.249   0.541   3.388 -1.7334  2.4754 -0.4144
 6755TIP3   OH220228   2.262   0.372   4.255 -0.4338 -1.1007  0.3058
 6755TIP3    H120229   2.267   0.425   4.176 -0.3895 -0.3702  0.7937
 6755TIP3    H220230   2.352   0.344   4.271 -0.1892 -0.0040  0.9310
 6756TIP3   OH220231   1.677   4.547   3.108  0.6430 -0.2405  0.5132
 6756TIP3    H120232   1.617   4.494   3.055  2.4326 -1.0544 -0.7876
 6756TIP3    H220233   1.739   4.583   3.045 -0.6012  3.7379  1.2671
 6757TIP3   OH220234   0.433   4.327   2.301 -0.2571 -0.4404 -0.0649
 6757TIP3    H120235   0.459   4.385   2.230  0.8301 -0.5609  0.2011
 6757TIP3    H220236   0.515   4.310   2.348 -0.1820 -3.3958 -1.0261
 6758TIP3   OH220237   5.535   0.682   2.702 -0.3607  0.2792  0.0561
 6758TIP3    H120238   5.496   0.751   2.756 -0.4794  0.6450 -0.4870
 6758TIP3    H220239   5.483   0.604   2.721 -0.9032  0.5902 -0.1144
 6759TIP3   OH220240   0.482   3.478   3.038  0.2558 -0.0272 -0.2498
 6759TIP3    H120241   0.512   3.478   3.129  3.3777  1.1776 -1.1594
 6759TIP3    H220242   0.480   3.570   3.013  1.4112 -0.3977 -1.9293
 6760TIP3   OH220243   6.581   1.311  -0.023 -0.6630 -0.1700  0.0202
 6760TIP3    H120244   6.656   1.364   0.002 -0.4110 -0.2937 -0.4492
 6760TIP3    H220245   6.517   1.324   0.047  0.1626 -0.8221  0.9063
 6761TIP3   OH220246   5.186   5.448   5.077 -0.0587 -0.1336  0.5699
 6761TIP3    H120247   5.116   5.512   5.067  0.0194  0.2349  2.1169
 6761TIP3    H220248   5.141   5.364   5.090 -0.1936 -0.0313  0.7542
 6762TIP3   OH220249   4.847   1.502   1.252 -0.4463 -0.2383  0.1854
 6762TIP3    H120250   4.877   1.541   1.170 -2.2786  0.3458 -0.2614
 6762TIP3    H220251   4.824   1.412   1.230  0.5648 -0.5772  0.4485
 6763TIP3   OH220252   2.545   0.782   4.500 -0.1443 -0.4809 -0.2541
 6763TIP3    H120253   2.471   0.840   4.521  0.2396 -0.2714  0.5716
 6763TIP3    H220254   2.510   0.694   4.513  0.0910 -0.3632  1.4303
 6764TIP3   OH220255   4.853   5.089   1.620 -0.3136  0.3908  0.2527
 6764TIP3    H120256   4.766   5.082   1.658 -0.9734  0.3410 -1.2111
 6764TIP3    H220257   4.838   5.102   1.527  1.2504  0.4330 -0.0267
 6765TIP3   OH220258   6.562   5.905   3.326 -0.1719  0.0382  0.6333
 6765TIP3    H120259   6.488   5.926   3.384 -1.0868 -0.1028 -0.4443
 6765TIP3    H220260   6.567   5.809   3.328 -0.2982  0.0253  0.3767
 6766TIP3   OH220261   5.185   5.143   5.128  0.2670  0.3629  0.4215
 6766TIP3    H120262   5.143   5.091   5.197 -0.8666  2.3485  1.3137
 6766TIP3    H220263   5.278   5.122   5.136  0.2867  1.1350  3.1477
 6767TIP3   OH220264   6.361   5.976   3.842 -0.3473  0.4696 -0.6300
 6767TIP3    H120265   6.285   6.034   3.839  0.9890  2.3025 -1.0311
 6767TIP3    H220266   6.356   5.927   3.760 -1.7525 -0.3762 -0.0731
 6768TIP3   OH220267   1.156   0.887   3.406 -0.1721  0.7965 -0.0371
 6768TIP3    H120268   1.061   0.889   3.413 -0.2165 -0.6698  0.0459
 6768TIP3    H220269   1.178   0.794   3.402  1.3159  1.0787  0.7895
 6769TIP3   OH220270   5.399   3.161   2.564  0.2591 -0.4671  0.1000
 6769TIP3    H120271   5.396   3.254   2.540  1.5975  0.0581  1.7664
 6769TIP3    H220272   5.326   3.122   2.516 -1.8981  1.9060  1.1782
 6770TIP3   OH220273   3.580   6.563   5.162  0.0659 -0.6259 -0.2236
 6770TIP3    H120274   3.572   6.504   5.238  1.0682 -0.2700  0.1656
 6770TIP3    H220275   3.673   6.561   5.140 -0.0948 -0.1068 -0.9578
 6771TIP3   OH220276   6.947   3.944   1.296 -0.3469 -0.4672  0.3483
 6771TIP3    H120277   6.876   4.004   1.271 -0.4565 -0.2331  1.1760
 6771TIP3    H220278   6.908   3.887   1.362 -0.3339 -1.6855 -0.6756
 6772TIP3   OH220279   4.995   2.772   0.481 -0.0192  0.1050  0.4385
 6772TIP3    H120280   5.073   2.781   0.427 -0.0390 -0.4517  0.3130
 6772TIP3    H220281   4.928   2.824   0.436  0.2835  0.6085  0.5641
 6773TIP3   OH220282   1.545   0.353   5.174 -0.3280  0.0403 -0.7663
 6773TIP3    H120283   1.477   0.400   5.222  0.1394 -0.1928  0.1458
 6773TIP3    H220284   1.501   0.275   5.141 -0.4306 -0.2982  0.1326
 6774TIP3   OH220285   6.242   5.820   1.322  0.2920  0.2064 -0.0238
 6774TIP3    H120286   6.250   5.769   1.241 -0.0789  0.7983 -0.4392
 6774TIP3    H220287   6.290   5.768   1.387 -0.3490 -0.8491 -0.3531
 6775TIP3   OH220288   5.329   4.522   3.932  0.3276  0.5219  0.1940
 6775TIP3    H120289   5.395   4.461   3.965 -2.0617 -1.9983  0.7558
 6775TIP3    H220290   5.287   4.556   4.010 -3.0765 -2.8413  0.1368
 6776TIP3   OH220291   3.271   3.639   5.447 -0.3037  0.0878 -0.7260
 6776TIP3    H120292   3.332   3.700   5.488  1.5568 -0.9525 -1.7797
 6776TIP3    H220293   3.256   3.572   5.513 -1.3696  1.0029 -0.0077
 6777TIP3   OH220294   1.380   6.516   3.491  0.1430 -0.1028 -0.2653
 6777TIP3    H120295   1.386   6.534   3.397  0.8496 -1.0670 -0.4258
 6777TIP3    H220296   1.450   6.451   3.507 -0.8323 -0.9597  0.6716
 6778TIP3   OH220297   3.175   3.699   2.818 -0.2898  0.3183 -0.2455
 6778TIP3    H120298   3.201   3.683   2.909  0.3602  1.2548 -0.2466
 6778TIP3    H220299   3.220   3.630   2.768 -0.4940 -0.0824  0.1147
 6779TIP3   OH220300   6.701   5.694   0.092 -0.1116 -0.2380  0.3500
 6779TIP3    H120301   6.679   5.749   0.017  0.9687 -1.3021 -0.8193
 6779TIP3    H220302   6.654   5.612   0.077  0.4288 -0.6057  0.6049
 6780TIP3   OH220303   4.301   3.208   3.802  0.2607  0.5190 -0.1639
 6780TIP3    H120304   4.220   3.197   3.852  0.4511  1.3971  0.3627
 6780TIP3    H220305   4.368   3.166   3.855  0.4440  1.3530  0.2727
 6781TIP3   OH220306   7.132   5.917   5.178  0.4815 -0.0439 -0.0190
 6781TIP3    H120307   7.125   5.901   5.084 -0.0148 -0.7023  0.1196
 6781TIP3    H220308   7.186   5.996   5.185 -0.2680  0.5677 -0.8903
 6782TIP3   OH220309   6.183   4.164   1.184 -0.0327 -0.4577  0.5242
 6782TIP3    H120310   6.183   4.098   1.253  0.6510  0.3842  1.3560
 6782TIP3    H220311   6.147   4.119   1.108 -2.6913 -0.8856  1.9152
 6783TIP3   OH220312   6.089   3.159   1.446 -0.8451 -0.0805 -0.3821
 6783TIP3    H120313   6.173   3.200   1.429 -1.4759  0.6235 -2.0362
 6783TIP3    H220314   6.029   3.232   1.460 -1.0799 -0.5866  1.4977
 6784TIP3   OH220315   6.635   0.673   5.733  0.5994  0.9961 -0.4742
 6784TIP3    H120316   6.726   0.648   5.714 -0.1096 -2.6465  0.1014
 6784TIP3    H220317   6.584   0.629   5.666 -0.8983  0.1892  1.1005
 6785TIP3   OH220318   3.938   4.847   0.292  0.2914  0.7217  0.4771
 6785TIP3    H120319   3.986   4.847   0.376  1.0136 -0.1189  0.0752
 6785TIP3    H220320   3.982   4.780   0.240 -0.1418  1.2575 -0.5885
 6786TIP3   OH220321   2.901   0.272   4.722  0.2569  0.4221 -0.2835
 6786TIP3    H120322   2.847   0.194   4.735  1.7339 -0.5713  0.1145
 6786TIP3    H220323   2.893   0.291   4.629 -0.4672  0.0668 -0.3033
 6787TIP3   OH220324   5.854   5.507   2.990  0.2034 -0.2740  0.2724
 6787TIP3    H120325   5.778   5.482   3.043  0.3637 -0.3145  0.4812
 6787TIP3    H220326   5.907   5.428   2.985  0.2181 -0.2544  0.0975
 6788TIP3   OH220327   6.290   3.810   3.084 -0.2949  0.0229  0.1982
 6788TIP3    H120328   6.236   3.884   3.111  1.6950  1.4975  0.3401
 6788TIP3    H220329   6.286   3.811   2.988  0.8564  1.2260  0.1505
 6789TIP3   OH220330   1.639   2.870   3.175 -0.4990 -0.2899 -0.2299
 6789TIP3    H120331   1.626   2.813   3.251  0.7219 -0.6748 -0.2878
 6789TIP3    H220332   1.577   2.837   3.110 -1.8013  0.2586  0.6916
 6790TIP3   OH220333   1.001   5.231   5.106 -0.0589 -0.0013  0.2960
 6790TIP3    H120334   0.989   5.149   5.058  2.0127 -0.0445 -0.2204
 6790TIP3    H220335   0.949   5.295   5.057 -0.8289 -0.7541  0.0953
 6791TIP3   OH220336   6.701   3.295   5.115  0.3889 -0.0961 -0.2538
 6791TIP3    H120337   6.657   3.380   5.111 -1.7077 -1.1095 -0.3724
 6791TIP3    H220338   6.715   3.271   5.023 -0.0429 -0.3681 -0.2490
 6792TIP3   OH220339   1.091   4.828   3.638 -0.4598  0.1315 -0.0268
 6792TIP3    H120340   1.141   4.905   3.610  0.0082  0.0133  0.4610
 6792TIP3    H220341   1.074   4.843   3.731 -2.4086  0.7477 -0.4461
 6793TIP3   OH220342   0.401   0.998   1.801 -0.1780 -0.1508 -0.3396
 6793TIP3    H120343   0.409   0.969   1.892 -1.9672  1.0025  0.2326
 6793TIP3    H220344   0.471   0.951   1.755  1.1602 -0.3110  1.7170
 6794TIP3   OH220345   2.783   3.235   4.570 -0.6945  0.2730 -0.0553
 6794TIP3    H120346   2.800   3.292   4.645 -0.2836  0.8225 -0.5505
 6794TIP3    H220347   2.815   3.149   4.597  1.5397  0.9369 -0.3827
 6795TIP3   OH220348   5.388   3.654   3.164  0.2103 -0.0528 -0.5510
 6795TIP3    H120349   5.379   3.566   3.126  1.6461 -0.6235  0.3887
 6795TIP3    H220350   5.412   3.709   3.090  0.4040 -0.6577 -0.9455
 6796TIP3   OH220351   4.012   5.879   0.070 -0.5231 -0.6889 -0.1424
 6796TIP3    H120352   3.982   5.959   0.112  2.3901 -0.5260  2.0029
 6796TIP3    H220353   4.028   5.903  -0.021  1.0102  1.4800  0.6129
 6797TIP3   OH220354   2.293   1.748   4.611 -0.7879 -0.2084  0.1911
 6797TIP3    H120355   2.229   1.819   4.605 -0.2881  0.2320  0.0511
 6797TIP3    H220356   2.244   1.676   4.650 -1.1247  0.4348  1.0058
 6798TIP3   OH220357   4.178   3.004   5.074 -0.3470 -0.2147 -0.1405
 6798TIP3    H120358   4.103   3.054   5.042 -0.0316 -0.9587 -2.1992
 6798TIP3    H220359   4.147   2.914   5.078 -0.3946 -0.1522  1.8598
 6799TIP3   OH220360   7.015   5.135   0.141 -0.7305  0.2430  0.4101
 6799TIP3    H120361   6.979   5.139   0.230 -0.5634 -0.6433  0.5281
 6799TIP3    H220362   7.067   5.215   0.133 -1.6236  0.8813  0.7145
 6800TIP3   OH220363   5.337   5.785   5.190 -0.0564  0.6223 -0.0992
 6800TIP3    H120364   5.398   5.789   5.116  0.8325 -0.7868  0.5016
 6800TIP3    H220365   5.251   5.773   5.150  0.4743 -0.6783 -0.9177
 6801TIP3   OH220366   0.926   4.492   0.171  0.2740  0.2613 -0.0851
 6801TIP3    H120367   0.913   4.400   0.149  0.5646  0.1994 -0.0114
 6801TIP3    H220368   1.013   4.494   0.213 -0.2295  0.3879  0.9792
 6802TIP3   OH220369   7.103   0.238   3.498 -0.1633 -0.3705  0.1366
 6802TIP3    H120370   7.123   0.230   3.591  0.4366 -2.4894 -0.1341
 6802TIP3    H220371   7.188   0.242   3.454 -0.4238 -0.5592 -0.4051
 6803TIP3   OH220372   2.397   2.814   1.291 -0.7069  0.5556  0.1914
 6803TIP3    H120373   2.362   2.736   1.247 -1.5352  0.1805  1.4728
 6803TIP3    H220374   2.406   2.878   1.221 -1.7307 -0.1070 -0.5846
 6804TIP3   OH220375   6.660   6.232   5.370 -0.0147 -0.1136 -0.7599
 6804TIP3    H120376   6.697   6.189   5.293  2.8485  0.3931  0.1714
 6804TIP3    H220377   6.686   6.324   5.361  0.5230 -0.0697  0.8189
 6805TIP3   OH220378   2.741   2.620   3.819  0.2841  0.2812  0.5072
 6805TIP3    H120379   2.712   2.651   3.905 -0.4509 -1.4551  0.9188
 6805TIP3    H220380   2.831   2.651   3.812 -0.3256  2.3611  0.9160
 6806TIP3   OH220381   6.324   2.385   4.234 -0.3154 -0.1235  0.2723
 6806TIP3    H120382   6.268   2.442   4.181 -2.1107 -0.8013  1.3217
 6806TIP3    H220383   6.318   2.299   4.192  0.8051  0.0245 -0.2023
 6807TIP3   OH220384   1.250   4.586   3.467 -0.9579  0.4667 -0.6825
 6807TIP3    H120385   1.281   4.514   3.522 -0.2594  1.1800 -0.1204
 6807TIP3    H220386   1.256   4.664   3.522  0.7544  1.3924 -2.0466
 6808TIP3   OH220387   3.562   5.420   4.893 -0.1288 -0.2295  0.3659
 6808TIP3    H120388   3.498   5.355   4.922  0.3407  0.0804  2.1810
 6808TIP3    H220389   3.633   5.416   4.957  1.0915  0.3480 -0.8712
 6809TIP3   OH220390   4.937   1.343   2.731 -0.3752  0.0974  0.3729
 6809TIP3    H120391   5.032   1.328   2.735 -0.4041 -0.1092  0.3112
 6809TIP3    H220392   4.901   1.286   2.798 -0.6038 -1.1352 -0.7627
 6810TIP3   OH220393   0.173   4.841   2.397 -0.3587  0.4420 -0.0038
 6810TIP3    H120394   0.258   4.814   2.362  0.0542  1.3734  0.2441
 6810TIP3    H220395   0.178   4.823   2.491 -1.0889 -1.1044 -0.2348
 6811TIP3   OH220396   4.974   3.522   0.203  0.3580  0.6873 -0.1502
 6811TIP3    H120397   5.033   3.596   0.219  1.0358 -0.1861  1.7328
 6811TIP3    H220398   4.888   3.562   0.192  0.2007  1.7289  3.4580
 6812TIP3   OH220399   0.220   1.212   2.034  0.0139 -0.5488 -0.5646
 6812TIP3    H120400   0.241   1.179   1.947 -0.4515  1.3032 -1.4145
 6812TIP3    H220401   0.302   1.249   2.067 -0.0160 -0.4983 -0.5474
 6813TIP3   OH220402   0.338   4.688   3.632  0.4093  0.4334  0.3524
 6813TIP3    H120403   0.353   4.782   3.632  1.5088  0.3160 -1.6068
 6813TIP3    H220404   0.424   4.650   3.614 -0.3171 -0.8437 -0.6369
 6814TIP3   OH220405   5.347   5.697   1.631  0.0882  0.0168  0.4317
 6814TIP3    H120406   5.273   5.757   1.617 -0.1586 -0.4886 -0.5314
 6814TIP3    H220407   5.372   5.670   1.543  1.8284  0.6391  0.7017
 6815TIP3   OH220408   2.181   3.626   5.376  0.9363 -0.3082 -0.4034
 6815TIP3    H120409   2.141   3.702   5.334  1.2158  0.3680  0.5403
 6815TIP3    H220410   2.249   3.599   5.313  0.1067 -0.4728 -1.2529
 6816TIP3   OH220411   1.977   2.151   4.314  0.2893 -0.4446 -0.0809
 6816TIP3    H120412   1.927   2.176   4.391 -1.3222 -1.6905 -0.6656
 6816TIP3    H220413   2.050   2.212   4.312 -1.3327  1.6421  0.6798
 6817TIP3   OH220414   3.978   6.547   1.805  0.7309  0.1567  0.3700
 6817TIP3    H120415   4.059   6.508   1.839 -0.0921 -0.8000  1.2885
 6817TIP3    H220416   3.922   6.557   1.881 -0.4838 -0.3198 -0.4310
 6818TIP3   OH220417   4.382   3.152   2.926  0.7290 -0.5163 -0.4732
 6818TIP3    H120418   4.318   3.120   2.990 -0.2535  0.4432 -0.9332
 6818TIP3    H220419   4.454   3.187   2.978  0.5744 -1.0100  0.0746
 6819TIP3   OH220420   4.142   4.339   1.493 -0.0981  0.3683  0.4862
 6819TIP3    H120421   4.189   4.262   1.461  1.5572  1.1867  0.7983
 6819TIP3    H220422   4.057   4.336   1.450  0.6386 -0.6240 -0.9578
 6820TIP3   OH220423   6.874   2.764   3.847 -0.2113  0.7587 -0.0884
 6820TIP3    H120424   6.893   2.697   3.782  0.9872  2.0013 -1.0800
 6820TIP3    H220425   6.788   2.740   3.882  0.3122 -1.4491 -0.1525
 6821TIP3   OH220426   7.009   4.196   1.828 -0.2925  0.0243  0.5095
 6821TIP3    H120427   6.953   4.126   1.863 -1.8887  1.5286  1.1706
 6821TIP3    H220428   7.090   4.152   1.802 -0.2108 -1.6811  3.2597
 6822TIP3   OH220429   0.465   3.754   1.235  0.0298  0.4465 -0.2902
 6822TIP3    H120430   0.479   3.665   1.202 -1.0552  0.2471 -0.2482
 6822TIP3    H220431   0.393   3.746   1.296  0.9299  1.1141  0.8942
 6823TIP3   OH220432   4.995   5.340   4.581  0.6077 -0.1480  0.5788
 6823TIP3    H120433   5.004   5.264   4.638  2.3894 -0.3072  0.1575
 6823TIP3    H220434   5.042   5.316   4.501  1.5216  1.4968  0.5705
 6824TIP3   OH220435   5.464   5.946   4.174 -0.2593 -0.1020 -0.0126
 6824TIP3    H120436   5.382   5.901   4.156 -0.4336  0.5715 -1.0111
 6824TIP3    H220437   5.440   6.019   4.230 -0.0694 -0.8872  1.1069
 6825TIP3   OH220438   3.097   4.151   3.675 -0.2977 -0.1089 -0.0166
 6825TIP3    H120439   3.112   4.219   3.609  0.1266  0.0393  0.2226
 6825TIP3    H220440   3.051   4.081   3.628 -2.9995  1.3337  0.2965
 6826TIP3   OH220441   5.149   4.633   0.889  0.1082  0.0958  0.0821
 6826TIP3    H120442   5.179   4.619   0.799 -1.0187 -0.2667 -0.2582
 6826TIP3    H220443   5.059   4.664   0.879 -0.2166 -0.4861  1.1046
 6827TIP3   OH220444   5.179   4.444   4.645 -0.4419 -0.0717  0.0483
 6827TIP3    H120445   5.243   4.377   4.669  0.1777  1.0735  1.7787
 6827TIP3    H220446   5.094   4.405   4.668 -0.3665 -1.2671 -1.4789
 6828TIP3   OH220447   2.082   1.280   1.765 -0.2073 -0.1459  0.4463
 6828TIP3    H120448   2.086   1.190   1.733 -0.1882 -0.4672  1.3217
 6828TIP3    H220449   2.147   1.327   1.713  0.5272 -0.8708  0.6848
 6829TIP3   OH220450   1.785   1.401   5.414 -0.0170 -0.1510 -0.0193
 6829TIP3    H120451   1.737   1.319   5.427  0.3159 -0.2376  0.7566
 6829TIP3    H220452   1.739   1.445   5.343 -0.6400 -0.6833  0.0418
 6830TIP3   OH220453   2.204   5.498   2.918  0.1453  0.1409 -0.1138
 6830TIP3    H120454   2.270   5.469   2.981  1.2544 -0.6452 -1.6001
 6830TIP3    H220455   2.238   5.580   2.883 -0.6313  0.7507  0.5132
 6831TIP3   OH220456   1.960   3.677   2.871 -0.0186 -0.3326 -0.0811
 6831TIP3    H120457   2.029   3.621   2.836  0.4525  0.4183 -0.3780
 6831TIP3    H220458   1.952   3.748   2.807 -0.8746 -0.2652  0.0934
 6832TIP3   OH220459   7.159   3.434   4.683 -0.1524  0.3311 -0.2274
 6832TIP3    H120460   7.248   3.463   4.704 -0.1393 -1.7182  3.2811
 6832TIP3    H220461   7.170   3.368   4.615  0.9399  0.4824 -0.2083
 6833TIP3   OH220462   4.453   2.102   3.479  0.0403  0.2787  0.0001
 6833TIP3    H120463   4.361   2.094   3.505 -0.0601  1.5380  0.1021
 6833TIP3    H220464   4.493   2.150   3.551  0.2646  1.7936 -1.0911
 6834TIP3   OH220465   3.931   3.730   2.771 -0.0109  0.2863 -0.1122
 6834TIP3    H120466   3.924   3.686   2.686  0.2907  0.2099 -0.0966
 6834TIP3    H220467   3.943   3.822   2.749 -1.1893  0.4513 -0.1427
 6835TIP3   OH220468   0.139   5.320   3.691 -0.2435  0.0405 -0.0642
 6835TIP3    H120469   0.228   5.354   3.681 -0.2357 -0.3001 -1.2814
 6835TIP3    H220470   0.104   5.369   3.766  0.7288  0.6770  0.0021
 6836TIP3   OH220471   4.783   4.208   1.649 -0.4358  0.0350 -0.3941
 6836TIP3    H120472   4.838   4.187   1.725 -1.0479  3.0969  1.0742
 6836TIP3    H220473   4.842   4.254   1.589 -1.1511  3.3782  1.2096
 6837TIP3   OH220474   5.441   4.812   1.293 -0.0170 -0.0531 -0.4648
 6837TIP3    H120475   5.406   4.740   1.242 -1.7830  0.8738 -0.6522
 6837TIP3    H220476   5.384   4.817   1.370 -0.8214  1.9238 -1.1080
 6838TIP3   OH220477   6.094   6.282   0.049 -0.1017  0.6690 -0.2515
 6838TIP3    H120478   6.172   6.230   0.070 -0.7735  0.1400  1.1098
 6838TIP3    H220479   6.127   6.369   0.029  0.9280  0.1314 -0.9917
 6839TIP3   OH220480   6.002   5.342   1.621  0.3992 -0.2595 -0.4762
 6839TIP3    H120481   6.047   5.411   1.670  1.4915 -1.3022  0.0717
 6839TIP3    H220482   6.049   5.337   1.538 -0.4463  0.4472 -1.0095
 6840TIP3   OH220483   6.950   0.458   4.882 -0.8144 -0.5363 -0.2972
 6840TIP3    H120484   6.906   0.378   4.853 -1.0122  0.3156 -2.5752
 6840TIP3    H220485   7.040   0.431   4.900 -0.5054 -1.0569 -2.4231
 6841TIP3   OH220486   4.099   6.598   1.337 -0.1987  0.1081  0.5572
 6841TIP3    H120487   4.093   6.541   1.261  1.1430  1.0261 -0.2748
 6841TIP3    H220488   4.015   6.643   1.341 -0.4599 -0.3130 -0.0853
 6842TIP3   OH220489   3.894   1.810   5.220 -0.2964 -0.4993  0.3015
 6842TIP3    H120490   3.814   1.824   5.271  0.7505  0.8767  1.6901
 6842TIP3    H220491   3.961   1.789   5.286  1.1913  1.6743 -0.3942
 6843TIP3   OH220492   0.975   1.653   0.093  0.1055 -0.0485 -0.1949
 6843TIP3    H120493   0.999   1.625   0.182  0.2272  2.9603  0.8537
 6843TIP3    H220494   1.027   1.732   0.078 -3.7730  2.7140 -0.6701
 6844TIP3   OH220495   5.681   4.318   5.802  0.1510 -0.1254  0.5612
 6844TIP3    H120496   5.644   4.386   5.745  1.1480  0.5345  0.6758
 6844TIP3    H220497   5.606   4.263   5.825 -0.4241  0.0781 -0.7118
 6845TIP3   OH220498   2.709   1.683   3.853  0.7023  0.0828  0.2474
 6845TIP3    H120499   2.771   1.700   3.924  2.1583 -1.0601 -0.6926
 6845TIP3    H220500   2.761   1.640   3.786 -0.6607  1.0041 -1.4827
 6846TIP3   OH220501   3.015   3.882   0.650  0.2031 -0.4898  0.8481
 6846TIP3    H120502   2.939   3.928   0.687  0.7493  0.3531  0.9331
 6846TIP3    H220503   3.003   3.791   0.678 -1.4756 -0.6455 -0.2444
 6847TIP3   OH220504   5.603   1.847   3.233  0.7241  0.0740  0.1839
 6847TIP3    H120505   5.681   1.802   3.200  0.6076 -0.7217  0.9497
 6847TIP3    H220506   5.586   1.916   3.169  2.4156  0.6620  0.3370
 6848TIP3   OH220507   2.443   6.405   5.720  0.4470 -0.3320  0.2031
 6848TIP3    H120508   2.500   6.329   5.729 -0.1810 -0.8653 -0.2209
 6848TIP3    H220509   2.502   6.480   5.726  0.9666 -0.8087  1.6038
 6849TIP3   OH220510   1.119   3.056   5.893  0.4654 -0.5341  0.0797
 6849TIP3    H120511   1.074   3.091   5.816  0.1404  1.8801  1.2597
 6849TIP3    H220512   1.206   3.097   5.890  0.2826 -0.0130  1.2044
 6850TIP3   OH220513   0.882   3.971   0.898  0.5884 -0.5687  0.4009
 6850TIP3    H120514   0.813   4.034   0.877  0.6194 -0.7129 -0.1390
 6850TIP3    H220515   0.840   3.908   0.956  0.3507 -0.4742  0.3309
 6851TIP3   OH220516   4.356   2.592   3.366  0.9535  0.0475  0.3267
 6851TIP3    H120517   4.448   2.575   3.344  0.6189 -0.5630 -0.6961
 6851TIP3    H220518   4.350   2.687   3.375  1.9483  0.0189  1.7356
 6852TIP3   OH220519   4.085   3.732   2.531 -0.2343 -0.5082  0.2597
 6852TIP3    H120520   4.093   3.716   2.437 -2.2947 -0.2460 -0.0123
 6852TIP3    H220521   4.171   3.762   2.558  0.7019 -1.6276 -1.3194
 6853TIP3   OH220522   5.464   5.114   5.566  0.0360 -0.3821  0.2338
 6853TIP3    H120523   5.429   5.152   5.647  1.8826 -0.1041  0.9537
 6853TIP3    H220524   5.542   5.166   5.546 -0.5347 -0.2612 -1.9179
 6854TIP3   OH220525   2.250   5.844   1.253  0.2228 -0.2018  0.0849
 6854TIP3    H120526   2.252   5.883   1.166 -0.6958  0.0737  0.1820
 6854TIP3    H220527   2.200   5.906   1.306 -1.0744 -1.3706  0.2913
 6855TIP3   OH220528   2.647   1.932   5.114 -0.1681  0.0911  0.1161
 6855TIP3    H120529   2.706   1.924   5.189 -0.6707 -0.9113  0.4113
 6855TIP3    H220530   2.635   2.027   5.104 -0.6576  0.2279  1.7428
 6856TIP3   OH220531   6.981   5.266   1.410  0.7388  0.0358  0.0973
 6856TIP3    H120532   6.899   5.281   1.458  1.0948 -0.7428  0.9873
 6856TIP3    H220533   7.028   5.349   1.416  0.6643  0.0276  0.8862
 6857TIP3   OH220534   0.935   0.121   0.642  0.5043 -0.4728 -0.9031
 6857TIP3    H120535   0.867   0.130   0.709 -1.8696 -1.2749 -3.0486
 6857TIP3    H220536   0.982   0.041   0.665 -1.0369 -1.3796 -0.7753
 6858TIP3   OH220537   3.665   5.603   1.149 -0.3713  0.5843  0.8432
 6858TIP3    H120538   3.667   5.692   1.184 -0.4909  0.3627  1.4237
 6858TIP3    H220539   3.615   5.610   1.068  0.7122  1.2761  0.2183
 6859TIP3   OH220540   7.011   2.821   0.660 -0.4080  0.0309  0.1467
 6859TIP3    H120541   6.958   2.768   0.720  2.9676 -2.5192  1.2045
 6859TIP3    H220542   7.054   2.886   0.716 -0.3606  0.3206 -0.2234
 6860TIP3   OH220543   1.588   1.893   4.299  0.1373  0.1097 -0.6289
 6860TIP3    H120544   1.511   1.934   4.339  0.7537  1.3050 -0.6326
 6860TIP3    H220545   1.562   1.877   4.208 -0.5217 -0.6289 -0.3202
 6861TIP3   OH220546   4.801   0.918   5.044 -0.2060  0.0048  0.2902
 6861TIP3    H120547   4.745   0.895   4.971  1.2481 -0.2146 -0.7987
 6861TIP3    H220548   4.756   0.885   5.122 -1.2086 -0.7964 -0.6223
 6862TIP3   OH220549   0.174   1.614   0.067  0.2557  0.4173  0.0661
 6862TIP3    H120550   0.180   1.710   0.075  2.1089  0.2414  1.3933
 6862TIP3    H220551   0.264   1.584   0.067 -0.3085 -1.4092  0.6456
 6863TIP3   OH220552   3.243   5.069   4.787  0.1289 -0.3038  0.3032
 6863TIP3    H120553   3.148   5.072   4.796  0.0751 -3.0798  2.1126
 6863TIP3    H220554   3.270   4.996   4.844  3.3542  0.4224 -0.0801
 6864TIP3   OH220555   4.603   4.543   1.988 -0.2004  0.0670 -0.2511
 6864TIP3    H120556   4.640   4.536   2.076  2.2456 -0.9031 -1.2646
 6864TIP3    H220557   4.605   4.637   1.969 -0.9280  0.3107  0.7574
 6865TIP3   OH220558   1.988   2.217   1.210  0.5450 -0.0230 -0.3712
 6865TIP3    H120559   2.065   2.250   1.162 -0.1800  2.8102  0.2442
 6865TIP3    H220560   1.972   2.283   1.278 -0.7921 -1.9716  1.3121
 6866TIP3   OH220561   1.830   4.254   5.529 -0.0478 -0.1702 -0.2218
 6866TIP3    H120562   1.878   4.245   5.612  0.2605  2.2051 -0.0590
 6866TIP3    H220563   1.739   4.265   5.556 -0.0434 -0.0903 -0.2395
 6867TIP3   OH220564   6.141   4.010   3.900  0.0512 -0.1397  0.2107
 6867TIP3    H120565   6.095   4.093   3.889  0.8826  0.5600  1.7359
 6867TIP3    H220566   6.156   3.979   3.811 -0.3473  1.2926 -0.3786
 6868TIP3   OH220567   2.241   1.953   2.560  0.5048  0.5924 -0.3632
 6868TIP3    H120568   2.235   1.930   2.653 -1.4855 -0.3998 -0.6832
 6868TIP3    H220569   2.276   1.874   2.518  2.3004  1.3591 -0.3732
 6869TIP3   OH220570   5.105   6.386   4.646 -0.1836  0.0251 -0.4778
 6869TIP3    H120571   5.062   6.317   4.595 -2.0130  0.6499  0.1524
 6869TIP3    H220572   5.141   6.339   4.722 -0.5099 -0.3891 -0.5711
 6870TIP3   OH220573   2.717   1.936   4.128 -0.4186  0.1057 -0.2994
 6870TIP3    H120574   2.811   1.951   4.118 -0.1599 -1.5443 -0.6284
 6870TIP3    H220575   2.677   1.994   4.063  0.3602  0.7265 -0.2512
 6871TIP3   OH220576   5.560   0.174   1.916  0.4664 -0.7972  0.4318
 6871TIP3    H120577   5.512   0.091   1.909 -0.3884 -0.3255  0.4953
 6871TIP3    H220578   5.537   0.221   1.836  2.1071 -1.1859 -0.3164
 6872TIP3   OH220579   5.832   6.726   4.700  0.1277  0.1751 -0.6770
 6872TIP3    H120580   5.861   6.702   4.788  1.2133 -0.9407 -1.3111
 6872TIP3    H220581   5.784   6.649   4.669 -2.8463  1.6407 -0.0027
 6873TIP3   OH220582   6.251   5.332   3.756 -0.6337 -0.0984 -0.1025
 6873TIP3    H120583   6.262   5.260   3.819 -0.8622  0.2348  0.3243
 6873TIP3    H220584   6.158   5.353   3.759 -0.1468  2.2746  2.1181
 6874TIP3   OH220585   6.966   3.645   1.999 -0.0031  0.4897  0.1935
 6874TIP3    H120586   7.037   3.583   2.013  0.0485  0.2670 -0.9851
 6874TIP3    H220587   6.892   3.606   2.046  0.6971  0.8817  1.6950
 6875TIP3   OH220588   5.056   4.787   1.563  0.0249 -0.0244 -0.1596
 6875TIP3    H120589   5.045   4.874   1.525 -1.3358 -0.5827 -1.0997
 6875TIP3    H220590   4.977   4.739   1.539  0.0356 -1.0630  1.6486
 6876TIP3   OH220591   5.918   4.670   4.443 -0.4155  0.1432 -0.7553
 6876TIP3    H120592   5.875   4.734   4.498 -0.3101 -0.7483  0.3946
 6876TIP3    H220593   5.873   4.676   4.359 -2.3419 -0.2821  0.1995
 6877TIP3   OH220594   3.529   4.901   5.638  0.1848  0.5481  0.7251
 6877TIP3    H120595   3.530   4.863   5.725 -1.8904 -0.2491  0.4477
 6877TIP3    H220596   3.491   4.834   5.582 -0.2910  1.7371 -0.4377
 6878TIP3   OH220597   6.901   1.861   4.007  0.8380 -0.2636 -0.4985
 6878TIP3    H120598   6.870   1.811   4.083  1.9619 -1.5734 -0.8586
 6878TIP3    H220599   6.950   1.934   4.045 -1.7260  1.3080  0.0583
 6879TIP3   OH220600   6.789   0.961   1.888  0.5202 -0.0084  0.0457
 6879TIP3    H120601   6.813   1.008   1.809  0.0259  1.3222  0.6675
 6879TIP3    H220602   6.871   0.952   1.937  0.8424 -0.9188 -0.6456
 6880TIP3   OH220603   1.134   1.413   3.683  0.2940 -0.4568 -0.0469
 6880TIP3    H120604   1.204   1.370   3.732  0.6663 -1.1084 -1.1137
 6880TIP3    H220605   1.106   1.347   3.619 -1.0584 -0.0839  0.1367
 6881TIP3   OH220606   6.743   2.386   1.837  0.5903 -0.0366  0.0448
 6881TIP3    H120607   6.672   2.359   1.778  0.9081 -1.2005  0.1624
 6881TIP3    H220608   6.742   2.321   1.907  1.2912  0.3719  0.4437
 6882TIP3   OH220609   5.815   5.601   3.419 -0.2976 -0.2847  0.2858
 6882TIP3    H120610   5.815   5.524   3.363  0.0301  0.3111 -0.5483
 6882TIP3    H220611   5.754   5.661   3.377 -2.4884 -0.9730  2.2284
 6883TIP3   OH220612   7.093   6.579   2.454 -0.1590  0.3728  0.0730
 6883TIP3    H120613   7.122   6.502   2.502 -0.4722  0.5115  0.4906
 6883TIP3    H220614   6.997   6.576   2.459 -0.2779 -0.5373 -2.0155
 6884TIP3   OH220615   3.397   4.206   1.584 -0.3010  0.0594 -0.5675
 6884TIP3    H120616   3.345   4.285   1.600 -0.6637  0.1048 -1.8843
 6884TIP3    H220617   3.332   4.137   1.568  0.0085 -0.5665  0.7056
 6885TIP3   OH220618   7.072   3.156   3.923 -0.2264 -0.2599 -0.0546
 6885TIP3    H120619   7.010   3.085   3.905  1.0619 -1.1568 -1.2735
 6885TIP3    H220620   7.047   3.226   3.863  0.6172 -1.0850 -1.4267
 6886TIP3   OH220621   6.758   1.286   4.864 -0.3239 -0.0963  0.5713
 6886TIP3    H120622   6.703   1.362   4.882 -1.5830 -1.1556  1.3632
 6886TIP3    H220623   6.757   1.277   4.769  1.1050  1.7533  0.3279
 6887TIP3   OH220624   3.667   4.569   4.517 -0.0043 -0.0557 -0.0674
 6887TIP3    H120625   3.639   4.584   4.607  1.9936 -1.9888  0.9687
 6887TIP3    H220626   3.678   4.657   4.481  2.4876  0.9438  2.7233
 6888TIP3   OH220627   3.965   6.753   3.938 -0.0756 -0.0141  0.9098
 6888TIP3    H120628   3.870   6.741   3.945  0.0035 -0.0225  2.1758
 6888TIP3    H220629   3.988   6.809   4.012  0.6413  1.7255 -0.5576
 6889TIP3   OH220630   6.863   5.423   0.343 -0.2149 -0.3991  0.0381
 6889TIP3    H120631   6.870   5.344   0.397 -1.6263 -0.3586  0.3069
 6889TIP3    H220632   6.908   5.400   0.262 -0.4690 -1.4292  0.1723
 6890TIP3   OH220633   4.872   1.149   2.946 -0.0900  0.7268  0.8129
 6890TIP3    H120634   4.948   1.095   2.924 -0.5926  0.5005 -0.4538
 6890TIP3    H220635   4.840   1.113   3.028 -0.9205 -1.5245 -0.4097
 6891TIP3   OH220636   5.872   5.085   4.146  0.9089 -0.0477 -0.6368
 6891TIP3    H120637   5.884   5.054   4.056 -1.0049  0.6294 -1.1650
 6891TIP3    H220638   5.831   5.171   4.136  2.8964  1.1543  0.8579
 6892TIP3   OH220639   5.938   1.451   2.376 -0.0521 -0.0091  0.4277
 6892TIP3    H120640   5.933   1.490   2.289 -1.5658  0.5470  0.7311
 6892TIP3    H220641   5.863   1.488   2.423 -0.9902 -2.4946  1.0518
 6893TIP3   OH220642   2.981   3.984   1.128 -0.4665 -0.1183  0.6135
 6893TIP3    H120643   2.955   4.055   1.070  0.5806 -0.9252 -0.9476
 6893TIP3    H220644   3.070   4.007   1.156 -0.7011 -0.0773  1.3420
 6894TIP3   OH220645   3.831   1.364   3.978  0.4238  0.1511 -0.2253
 6894TIP3    H120646   3.804   1.320   4.059 -1.0713  1.6471  0.1589
 6894TIP3    H220647   3.927   1.357   3.977  0.6520  1.3720  2.5094
 6895TIP3   OH220648   0.005   1.841   4.096 -0.0244  0.0800 -0.4539
 6895TIP3    H120649   0.037   1.842   4.006 -0.0596 -1.7825 -0.5229
 6895TIP3    H220650  -0.031   1.753   4.108  2.3743 -0.6967  2.2052
 6896TIP3   OH220651   2.084   5.320   3.874  0.2787  0.2485 -0.0069
 6896TIP3    H120652   2.149   5.274   3.927 -0.1455 -0.7552 -0.3271
 6896TIP3    H220653   2.072   5.264   3.797 -0.6444  0.6250 -0.1518
 6897TIP3   OH220654   0.383   3.417   2.106  0.4235 -0.2489  0.1424
 6897TIP3    H120655   0.296   3.406   2.068 -0.7294  0.3310  2.4219
 6897TIP3    H220656   0.427   3.333   2.090 -1.2393 -1.2360  0.5175
 6898TIP3   OH220657   4.990   0.183   3.054 -0.4309  0.3572  0.5504
 6898TIP3    H120658   4.917   0.141   3.099  0.3296 -1.1332  0.4680
 6898TIP3    H220659   4.978   0.159   2.962 -1.2485  2.2902  0.1100
 6899TIP3   OH220660   6.812   4.693   2.006 -0.0234  0.0120  0.1915
 6899TIP3    H120661   6.835   4.786   2.005  0.9345 -0.2045 -1.3866
 6899TIP3    H220662   6.720   4.691   2.032 -0.6043  1.5686 -1.5314
 6900TIP3   OH220663   2.375   1.519   4.462  0.5329 -0.0198 -0.7416
 6900TIP3    H120664   2.329   1.601   4.443 -0.1046 -0.3549 -0.6410
 6900TIP3    H220665   2.412   1.492   4.378  1.1610  0.6162 -0.6821
 6901TIP3   OH220666   5.800   4.416   2.469 -0.5148 -0.1117 -0.2331
 6901TIP3    H120667   5.803   4.416   2.374 -2.0399  2.9191 -0.4015
 6901TIP3    H220668   5.742   4.343   2.491 -1.6354  0.2731 -1.7657
 6902TIP3   OH220669   2.117   4.114   0.224  0.3410 -0.1974 -1.1357
 6902TIP3    H120670   2.069   4.194   0.204 -0.0488 -0.7301 -2.4816
 6902TIP3    H220671   2.049   4.050   0.245  0.5610 -0.5404 -1.4653
 6903TIP3   OH220672   2.084   0.531   0.513 -0.4192  0.1864  0.4248
 6903TIP3    H120673   2.052   0.447   0.544  0.3558 -0.7480 -1.1879
 6903TIP3    H220674   2.152   0.509   0.448 -1.8339  1.9779 -1.8306
 6904TIP3   OH220675   2.598   3.598   3.846 -0.0948 -0.0362  0.7269
 6904TIP3    H120676   2.616   3.692   3.849  0.7449 -0.1977  1.0355
 6904TIP3    H220677   2.615   3.568   3.935 -2.0879 -0.1902  1.0872
 6905TIP3   OH220678   2.303   3.457   4.376  0.7325 -0.8262 -0.6766
 6905TIP3    H120679   2.215   3.487   4.355  0.2421 -1.0440  0.9312
 6905TIP3    H220680   2.318   3.382   4.319 -0.7697 -1.7754  0.1114
 6906TIP3   OH220681   7.110   1.514   1.805 -0.1422 -0.1110 -0.1227
 6906TIP3    H120682   7.091   1.588   1.861  1.6192  0.2224  0.0853
 6906TIP3    H220683   7.168   1.549   1.737  0.4304 -1.2067 -0.2255
 6907TIP3   OH220684   6.160   0.170   1.262 -0.1511  0.2888 -0.0685
 6907TIP3    H120685   6.188   0.235   1.326 -0.8562  1.2850 -0.7315
 6907TIP3    H220686   6.192   0.086   1.296 -0.3567  0.8152  1.4760
 6908TIP3   OH220687   6.208   2.194   0.685  0.0153  0.1151  0.0521
 6908TIP3    H120688   6.113   2.185   0.691 -0.0863  0.9721 -0.1024
 6908TIP3    H220689   6.235   2.133   0.617 -0.7056  1.4567 -1.4986
 6909TIP3   OH220690   4.296   4.617   2.035 -0.2333  0.1844  0.5687
 6909TIP3    H120691   4.367   4.558   2.058  0.1090  0.6368  0.6825
 6909TIP3    H220692   4.216   4.568   2.055 -0.0488 -1.5342 -2.4469
 6910TIP3   OH220693   6.856   5.923   0.166 -0.0828 -0.0005 -0.0572
 6910TIP3    H120694   6.938   5.875   0.174 -0.0738 -0.3244 -1.8065
 6910TIP3    H220695   6.790   5.856   0.148 -0.5556  0.3749  0.2433
 6911TIP3   OH220696   6.176   4.228   3.610 -0.3598  0.5469  0.1911
 6911TIP3    H120697   6.225   4.165   3.663  0.1144 -1.5159 -2.4903
 6911TIP3    H220698   6.221   4.311   3.624  1.2355 -0.4211  1.0732
 6912TIP3   OH220699   2.233   2.669   2.269  0.0588 -0.4340  0.5108
 6912TIP3    H120700   2.301   2.736   2.258  1.4096 -1.6629  0.9474
 6912TIP3    H220701   2.181   2.699   2.343  0.1462  0.5126  0.2027
 6913TIP3   OH220702   0.453   5.294   5.770 -0.3255  0.7670  0.8333
 6913TIP3    H120703   0.547   5.310   5.762 -0.2093  0.8531  2.1404
 6913TIP3    H220704   0.413   5.377   5.742 -0.0361  0.6955  0.1663
 6914TIP3   OH220705   0.533   3.196   1.065  0.3860 -0.2621  0.3363
 6914TIP3    H120706   0.526   3.104   1.038  1.3376 -0.3563  0.3843
 6914TIP3    H220707   0.611   3.229   1.021 -0.4882  0.8124 -0.4490
 6915TIP3   OH220708   5.685   0.301   2.603  0.1146  0.5189  0.3301
 6915TIP3    H120709   5.724   0.234   2.547 -0.8980 -0.4234  0.6928
 6915TIP3    H220710   5.643   0.362   2.543 -0.8793 -0.4293  0.0148
 6916TIP3   OH220711   5.649   1.648   3.598  0.1719 -0.4050  0.1164
 6916TIP3    H120712   5.691   1.609   3.675  0.7732 -1.6578 -0.8047
 6916TIP3    H220713   5.650   1.578   3.533 -3.0689 -0.4110 -0.0727
 6917TIP3   OH220714   1.656   6.559   3.625  0.0232  0.3504 -0.7721
 6917TIP3    H120715   1.652   6.464   3.614 -0.8677  0.4161 -1.0627
 6917TIP3    H220716   1.706   6.590   3.550 -0.1230  0.1607 -0.9482
 6918TIP3   OH220717   0.658   3.763   2.611  0.6764  0.1344  0.2882
 6918TIP3    H120718   0.619   3.680   2.638  1.8556 -0.1190  1.3048
 6918TIP3    H220719   0.699   3.744   2.527  0.8391 -0.2871  0.4612
 6919TIP3   OH220720   2.314   2.018   3.021 -0.4416 -0.0393 -0.0764
 6919TIP3    H120721   2.364   2.037   3.100 -0.1598  0.5433 -0.3907
 6919TIP3    H220722   2.370   1.959   2.971 -1.3679 -1.9164  0.9559
 6920TIP3   OH220723   1.693   3.992   2.858 -0.1787  0.2915  0.4667
 6920TIP3    H120724   1.702   4.083   2.886  0.3244  0.4442 -0.1591
 6920TIP3    H220725   1.617   3.992   2.800  0.9721  0.7318 -1.1205
 6921TIP3   OH220726   5.362   4.230   4.264  0.1972  0.6846  0.1773
 6921TIP3    H120727   5.404   4.155   4.307  0.0973 -0.0483 -0.9737
 6921TIP3    H220728   5.286   4.192   4.219 -0.3657  1.6288  0.3149
 6922TIP3   OH220729   0.044   2.613   2.207  0.8180 -0.0545 -0.0658
 6922TIP3    H120730   0.133   2.597   2.175  1.0498  0.4512  0.3048
 6922TIP3    H220731   0.055   2.682   2.273  0.4570 -1.5590  1.6209
 6923TIP3   OH220732   6.153   6.599   1.070 -0.0479  0.0271  0.4383
 6923TIP3    H120733   6.210   6.674   1.053  0.4045 -0.4046  0.0246
 6923TIP3    H220734   6.131   6.606   1.163 -0.2804  0.8543  0.3320
 6924TIP3   OH220735   3.045   0.647   1.316  0.1227 -0.1943 -0.2975
 6924TIP3    H120736   3.085   0.701   1.247  0.5492  0.9308  0.8011
 6924TIP3    H220737   2.977   0.703   1.353 -1.0045 -1.2890 -0.6612
 6925TIP3   OH220738   1.471   0.065   2.213 -0.0555 -0.0794  0.4265
 6925TIP3    H120739   1.463   0.001   2.142  1.1144  0.4880 -0.2416
 6925TIP3    H220740   1.450   0.149   2.172 -0.0501  0.1609  0.9167
 6926TIP3   OH220741   4.125   6.067   3.515 -0.4185 -0.0324 -0.0849
 6926TIP3    H120742   4.204   6.081   3.464 -1.7722 -1.1894 -2.7120
 6926TIP3    H220743   4.113   6.148   3.565  2.1043  0.3295  0.0220
 6927TIP3   OH220744   3.592   0.966   5.447  0.2887  0.4131 -0.0790
 6927TIP3    H120745   3.578   0.970   5.352  1.5736 -2.3650 -0.4737
 6927TIP3    H220746   3.504   0.968   5.484 -0.4629 -1.4961 -1.5608
 6928TIP3   OH220747   2.074   6.501   3.555  0.2708  0.1635 -0.0763
 6928TIP3    H120748   2.101   6.590   3.577  1.7699 -0.2670 -0.0684
 6928TIP3    H220749   2.060   6.459   3.640 -0.1524  0.3036 -0.0751
 6929TIP3   OH220750   4.798   0.713   0.578  0.2533  0.4517 -0.1931
 6929TIP3    H120751   4.813   0.683   0.489  0.8088 -0.0701  0.0669
 6929TIP3    H220752   4.882   0.747   0.606 -0.5171  2.9714 -0.7167
 6930TIP3   OH220753   6.452   6.762   0.137 -0.4943 -0.3790 -0.5599
 6930TIP3    H120754   6.419   6.767   0.047 -0.5504 -0.2385 -0.5318
 6930TIP3    H220755   6.421   6.843   0.178 -0.8973 -0.6742 -0.2713
 6931TIP3   OH220756   5.716   3.463   1.230  0.8754 -0.2394 -0.4817
 6931TIP3    H120757   5.673   3.548   1.243 -4.4978 -2.6253 -0.3488
 6931TIP3    H220758   5.748   3.439   1.317 -2.1983 -0.4029  0.7211
 6932TIP3   OH220759   3.583   0.921   3.278 -0.2398 -0.8817  0.4701
 6932TIP3    H120760   3.508   0.892   3.226  0.4026 -1.4632 -0.1450
 6932TIP3    H220761   3.650   0.855   3.262  1.5740  1.2816 -1.6321
 6933TIP3   OH220762   2.339   6.566   1.862  0.0698  0.3414  0.2248
 6933TIP3    H120763   2.412   6.513   1.829  0.8844 -0.0672  2.4907
 6933TIP3    H220764   2.379   6.626   1.925 -1.5640 -0.3217  2.0118
 6934TIP3   OH220765   2.547   2.598   5.285  0.4265  0.1281 -0.4910
 6934TIP3    H120766   2.461   2.635   5.302  0.0651 -0.3073 -1.3514
 6934TIP3    H220767   2.602   2.674   5.265  0.2632  0.4066  0.0835
 6935TIP3   OH220768   0.670   6.450   1.107  0.2604  0.0771  0.4099
 6935TIP3    H120769   0.693   6.510   1.178 -0.7995 -1.0158  1.7258
 6935TIP3    H220770   0.718   6.370   1.126  0.5366  0.0075 -0.5322
 6936TIP3   OH220771   6.302   5.443   0.368  0.0418  0.3572 -0.2942
 6936TIP3    H120772   6.374   5.387   0.339  0.2826 -0.0565  1.0405
 6936TIP3    H220773   6.308   5.520   0.312  1.1828  0.0902 -0.5699
 6937TIP3   OH220774   4.823   3.332   0.066 -0.1587  0.3523  0.0436
 6937TIP3    H120775   4.804   3.238   0.063  0.8041  0.1455 -2.7969
 6937TIP3    H220776   4.881   3.342   0.141  0.1103 -1.4231  0.1327
 6938TIP3   OH220777   3.798   4.791   0.594  0.1915  0.0691  0.7635
 6938TIP3    H120778   3.795   4.868   0.651  0.0776  0.4851  0.2069
 6938TIP3    H220779   3.728   4.734   0.626 -0.8130  0.9359  0.1481
 6939TIP3   OH220780   6.340   0.458   0.716 -0.2627  0.7361 -0.2435
 6939TIP3    H120781   6.339   0.518   0.641  0.4994 -0.6137 -1.3991
 6939TIP3    H220782   6.409   0.491   0.773  0.6238  0.5940 -1.2036
 6940TIP3   OH220783   5.267   6.010   4.993 -0.3805  0.2140  0.5923
 6940TIP3    H120784   5.222   5.956   4.928  0.1738 -1.2113  1.3362
 6940TIP3    H220785   5.358   6.013   4.962  0.1668 -1.5173  1.8801
 6941TIP3   OH220786   6.644   1.739   1.797  0.0527  0.1175  0.4857
 6941TIP3    H120787   6.648   1.667   1.860 -0.2862  0.5153  0.9657
 6941TIP3    H220788   6.627   1.817   1.850 -0.7878  0.3833 -0.1428
 6942TIP3   OH220789   6.220   6.415   3.579  0.2319 -0.2037 -0.3329
 6942TIP3    H120790   6.201   6.337   3.525  0.7071 -0.3434 -0.3074
 6942TIP3    H220791   6.314   6.430   3.565 -0.0964  1.0892 -1.2901
 6943TIP3   OH220792   7.190   3.797   4.219 -0.0622  0.1596  0.2835
 6943TIP3    H120793   7.186   3.735   4.147 -0.6632 -0.4887  0.8613
 6943TIP3    H220794   7.211   3.881   4.178 -0.7303 -0.1335 -0.6760
 6944TIP3   OH220795   0.446   4.595   2.170  0.3304 -0.5723 -0.4866
 6944TIP3    H120796   0.364   4.609   2.124  0.7791 -0.6495 -1.3347
 6944TIP3    H220797   0.512   4.639   2.116  0.9498 -1.1448 -0.2147
 6945TIP3   OH220798   3.120   5.664   1.537 -0.0326 -0.0524  0.8145
 6945TIP3    H120799   3.119   5.756   1.511  1.3891  0.3253  1.9799
 6945TIP3    H220800   3.128   5.617   1.454 -0.3137  0.8873  0.2342
 6946TIP3   OH220801   6.387   3.354   2.403  0.0416  0.4920  0.2060
 6946TIP3    H120802   6.327   3.419   2.438 -1.8514 -1.0192 -0.0122
 6946TIP3    H220803   6.375   3.277   2.458  0.7229 -0.3183 -0.7209
 6947TIP3   OH220804   3.541   1.545   4.254  0.6087 -0.2683 -0.0808
 6947TIP3    H120805   3.453   1.540   4.217  1.2694 -0.7212 -1.6752
 6947TIP3    H220806   3.561   1.638   4.255  0.3081 -0.2012 -0.2108
 6948TIP3   OH220807   0.091   0.424   3.343 -0.1072 -0.0036 -0.2959
 6948TIP3    H120808   0.164   0.477   3.374 -0.7685  0.1332  1.1459
 6948TIP3    H220809   0.124   0.334   3.345 -0.1463 -0.0077  0.9492
 6949TIP3   OH220810   3.353   3.771   2.245  0.3694  0.3077  0.1512
 6949TIP3    H120811   3.421   3.829   2.281  0.2945 -0.3162  1.3858
 6949TIP3    H220812   3.282   3.830   2.220  1.9266  1.1489 -2.6837
 6950TIP3   OH220813   1.944   4.569   0.674  0.1492  0.5563  0.0498
 6950TIP3    H120814   1.973   4.609   0.592  1.3157  0.3322  0.3339
 6950TIP3    H220815   1.932   4.477   0.653 -1.0748  0.7647 -0.2355
 6951TIP3   OH220816   5.058   3.469   3.280 -0.6999 -0.1941  0.2240
 6951TIP3    H120817   5.081   3.539   3.341 -0.4077 -0.1370  0.0499
 6951TIP3    H220818   5.122   3.400   3.299 -1.9854 -1.0994  1.5498
 6952TIP3   OH220819   1.011   1.280   5.529 -0.5233 -0.3189 -0.0484
 6952TIP3    H120820   1.079   1.292   5.463 -0.1478  1.6410  0.6249
 6952TIP3    H220821   0.935   1.325   5.492 -0.5638  0.0375  0.4603
 6953TIP3   OH220822   1.107   1.586   0.317  1.0087 -0.5793 -0.3772
 6953TIP3    H120823   1.202   1.584   0.328  1.0883 -0.3962 -1.0079
 6953TIP3    H220824   1.076   1.515   0.373  1.5473 -0.8977 -0.4702
 6954TIP3   OH220825   6.077   3.681   3.755 -0.0727 -0.2524 -0.9010
 6954TIP3    H120826   6.168   3.674   3.727  0.1911  2.8403 -1.1175
 6954TIP3    H220827   6.062   3.601   3.807  2.2858 -1.4996 -1.9887
 6955TIP3   OH220828   5.597   3.349   0.243 -0.0898 -0.7340 -0.1485
 6955TIP3    H120829   5.577   3.440   0.222  0.4934 -0.6056 -0.1889
 6955TIP3    H220830   5.688   3.351   0.273  0.6180 -1.5802 -2.0424
 6956TIP3   OH220831   4.720   6.392   0.763  0.4161 -0.3629 -0.5622
 6956TIP3    H120832   4.724   6.298   0.749  0.4705 -0.2367 -1.4747
 6956TIP3    H220833   4.753   6.405   0.852 -1.1389 -1.3451  0.1900
 6957TIP3   OH220834   0.612   2.258   3.175 -0.1440 -0.0677 -0.3155
 6957TIP3    H120835   0.686   2.273   3.117 -0.7249 -0.1880 -1.1024
 6957TIP3    H220836   0.576   2.346   3.190  0.5454  0.0726  0.6145
 6958TIP3   OH220837   2.843   1.284   1.575  0.0287  0.1309 -0.1600
 6958TIP3    H120838   2.754   1.311   1.552  0.4755  0.5853 -1.4517
 6958TIP3    H220839   2.838   1.189   1.584 -1.2043  0.3515  2.7836
 6959TIP3   OH220840   0.309   6.511   2.801  0.2516  0.4334  0.5006
 6959TIP3    H120841   0.401   6.538   2.801 -0.0918  1.7710 -1.1355
 6959TIP3    H220842   0.275   6.541   2.885  1.3807 -0.4957  1.3394
 6960TIP3   OH220843   0.899   2.610   4.501 -0.6512  0.7017  0.0159
 6960TIP3    H120844   0.835   2.679   4.483 -1.4876 -0.3825 -1.4219
 6960TIP3    H220845   0.983   2.656   4.505 -1.3705  2.0137  0.8558
 6961TIP3   OH220846   6.485   6.432   3.599 -0.1512 -0.6292 -0.1461
 6961TIP3    H120847   6.561   6.462   3.550 -0.4767 -2.4410 -1.8416
 6961TIP3    H220848   6.521   6.374   3.666  0.1163  0.2479  0.4877
 6962TIP3   OH220849   0.495   3.265   2.860  0.7252 -0.2380 -0.0029
 6962TIP3    H120850   0.465   3.203   2.926  0.3911 -1.3712 -1.1960
 6962TIP3    H220851   0.494   3.350   2.905 -0.7539 -0.7838  1.0690
 6963TIP3   OH220852   5.656   1.595   1.856  0.5069  0.8839 -0.2121
 6963TIP3    H120853   5.613   1.533   1.915  0.4866  0.4967 -0.6293
 6963TIP3    H220854   5.630   1.566   1.769 -0.3282  2.0938 -0.3760
 6964TIP3   OH220855   0.161   4.078   0.437 -0.0804  0.1241  0.3255
 6964TIP3    H120856   0.134   4.161   0.399 -2.2085 -2.1697 -3.8398
 6964TIP3    H220857   0.256   4.083   0.441 -0.1200  2.5526 -0.2540
 6965TIP3   OH220858   0.388   2.917   2.704 -0.1726 -0.0486  0.3661
 6965TIP3    H120859   0.441   2.916   2.784  2.1232 -0.3919 -1.0661
 6965TIP3    H220860   0.349   2.830   2.700  0.1800 -0.2316  0.8221
 6966TIP3   OH220861   0.456   3.034   1.554  0.2694  0.0065  0.4558
 6966TIP3    H120862   0.404   3.110   1.579 -0.2862 -0.3500  0.4132
 6966TIP3    H220863   0.510   3.064   1.482  0.4903  0.5225  0.8333
 6967TIP3   OH220864   7.171   0.299   5.448  0.3452 -0.0906 -0.7254
 6967TIP3    H120865   7.261   0.318   5.476  0.7588 -1.4634 -1.0307
 6967TIP3    H220866   7.117   0.322   5.523  1.2479 -1.9282  0.5693
 6968TIP3   OH220867   6.725   1.691   4.161  0.0389  0.7637  0.5381
 6968TIP3    H120868   6.788   1.659   4.226  0.0982  0.4226  0.3101
 6968TIP3    H220869   6.702   1.614   4.109  0.3842  1.1452 -0.1788
 6969TIP3   OH220870   1.815   6.236   3.187  0.5576  0.1193  0.0796
 6969TIP3    H120871   1.834   6.261   3.097 -0.0282 -0.5715 -0.2426
 6969TIP3    H220872   1.724   6.261   3.200  0.2997 -0.8003  0.1141
 6970TIP3   OH220873   6.007   0.558   1.630  0.2400 -0.0390  0.2206
 6970TIP3    H120874   5.979   0.640   1.671  1.9892  1.3360 -1.1618
 6970TIP3    H220875   6.011   0.495   1.702 -2.4100  0.6961  1.1040
 6971TIP3   OH220876   2.657   2.846   5.603 -0.5888  0.1142 -0.5811
 6971TIP3    H120877   2.613   2.838   5.688 -2.4488  1.7399 -1.3013
 6971TIP3    H220878   2.628   2.931   5.570 -0.7788 -0.9184 -3.2792
 6972TIP3   OH220879   0.968   3.539   3.949 -0.4473 -0.0334 -0.3778
 6972TIP3    H120880   0.936   3.581   4.029 -1.1298 -0.0368 -0.6411
 6972TIP3    H220881   0.962   3.445   3.968  1.4158 -0.0552  0.3444
 6973TIP3   OH220882   4.293   1.664   3.653 -0.0422 -0.5320  0.1501
 6973TIP3    H120883   4.360   1.690   3.589  0.6587 -0.1832  1.0060
 6973TIP3    H220884   4.217   1.718   3.631  0.2288 -0.3259 -0.3135
 6974TIP3   OH220885   4.136   0.255   5.406 -0.0981 -0.4964  0.5950
 6974TIP3    H120886   4.138   0.263   5.502 -2.4045  1.3521  0.5684
 6974TIP3    H220887   4.047   0.226   5.386  0.5497 -1.5167 -0.9785
 6975TIP3   OH220888   6.520   2.739   2.514  0.4674  0.1425  0.2501
 6975TIP3    H120889   6.482   2.747   2.601  0.3460  1.5591  0.0863
 6975TIP3    H220890   6.476   2.806   2.462  1.0395 -0.2109 -0.7272
 6976TIP3   OH220891   4.265   5.849   4.196  0.2154  0.8002 -0.0513
 6976TIP3    H120892   4.289   5.790   4.268 -3.0907 -2.2438 -1.1083
 6976TIP3    H220893   4.312   5.816   4.120 -0.0733  0.8104 -0.2383
 6977TIP3   OH220894   2.037   0.567   3.129  0.0108  0.2035  0.1116
 6977TIP3    H120895   2.067   0.606   3.047  0.4738 -0.6382 -0.1375
 6977TIP3    H220896   2.032   0.640   3.191 -0.0724  0.8025 -0.5842
 6978TIP3   OH220897   5.789   6.551   1.360  0.0450 -0.4854  0.4115
 6978TIP3    H120898   5.736   6.576   1.436  0.0398 -0.7246  0.4887
 6978TIP3    H220899   5.751   6.599   1.287  0.1747 -0.1029  0.5953
 6979TIP3   OH220900   3.571   5.496   3.276 -0.4478  0.5186 -0.6115
 6979TIP3    H120901   3.658   5.462   3.297  0.4464  3.1483  0.3874
 6979TIP3    H220902   3.513   5.453   3.339  0.8529  1.7750  1.5693
 6980TIP3   OH220903   1.272   0.740   4.896  0.4206  0.2009 -0.1805
 6980TIP3    H120904   1.345   0.681   4.877  0.2474 -0.4258  1.0214
 6980TIP3    H220905   1.247   0.776   4.811  0.0397 -2.0269 -1.0741
 6981TIP3   OH220906   0.124   0.387   2.974  0.4417  0.1541 -0.0122
 6981TIP3    H120907   0.186   0.338   3.028 -0.6228 -0.2860  0.8511
 6981TIP3    H220908   0.157   0.477   2.975  0.9111 -0.0158  0.6716
 6982TIP3   OH220909   4.446   3.129   1.324 -0.1014  0.3056 -0.5740
 6982TIP3    H120910   4.537   3.103   1.314 -0.3108 -0.5224 -0.4038
 6982TIP3    H220911   4.414   3.138   1.234  0.5825  2.2810 -0.6742
 6983TIP3   OH220912   3.109   5.264   5.072 -0.1621  0.3033  0.0186
 6983TIP3    H120913   3.109   5.339   5.013  0.3086  0.0287 -0.3333
 6983TIP3    H220914   3.019   5.232   5.070 -0.5026  1.1774  0.5918
 6984TIP3   OH220915   6.712   5.260   5.851 -0.6684  0.3106 -0.0196
 6984TIP3    H120916   6.629   5.243   5.896 -0.2825  1.3546  1.1388
 6984TIP3    H220917   6.686   5.278   5.761 -1.5906 -0.5120  0.0598
 6985TIP3   OH220918   2.716   2.382   4.015  0.1738 -0.6785 -0.5535
 6985TIP3    H120919   2.664   2.409   3.939  0.7331 -1.9779 -1.4316
 6985TIP3    H220920   2.807   2.395   3.989  0.3789  1.9574  1.1198
 6986TIP3   OH220921   3.144   4.892   1.399 -0.0598 -0.3395 -0.3155
 6986TIP3    H120922   3.071   4.840   1.432 -0.5752  0.7512  0.2763
 6986TIP3    H220923   3.123   4.909   1.307 -0.6901  0.2018 -0.0751
 6987TIP3   OH220924   3.819   5.953   2.502 -0.9063 -0.4022 -0.2015
 6987TIP3    H120925   3.897   5.947   2.558  0.2142 -0.5845 -1.7214
 6987TIP3    H220926   3.849   6.001   2.425 -2.2117 -0.7794 -0.9685
 6988TIP3   OH220927   6.246   5.446   2.068 -0.0295 -0.0426 -0.3005
 6988TIP3    H120928   6.249   5.542   2.069  0.7430 -0.0589 -0.1347
 6988TIP3    H220929   6.266   5.420   2.158 -0.1744 -0.3589 -0.3591
 6989TIP3   OH220930   0.833   3.594   5.622 -0.3490  0.0226 -0.2048
 6989TIP3    H120931   0.849   3.515   5.674 -0.3590  0.5728  0.6508
 6989TIP3    H220932   0.905   3.596   5.559  0.8382  0.4350  1.1309
 6990TIP3   OH220933   5.355   2.787   1.675 -0.6293  0.2199 -0.4644
 6990TIP3    H120934   5.380   2.879   1.676 -0.4319  0.1724  1.0297
 6990TIP3    H220935   5.263   2.787   1.647 -0.7169  0.8981 -0.1984
 6991TIP3   OH220936   7.028   3.325   0.931  0.4084 -0.0629  0.1582
 6991TIP3    H120937   7.091   3.361   0.869 -1.0078  2.0917 -0.1366
 6991TIP3    H220938   6.957   3.291   0.877 -0.2546  0.6919  0.5264
 6992TIP3   OH220939   5.052   2.425   5.891 -0.2140 -0.3840  0.2756
 6992TIP3    H120940   5.108   2.392   5.821  0.1216 -0.2811  0.4898
 6992TIP3    H220941   5.104   2.495   5.932 -0.4536 -0.3617  0.5474
 6993TIP3   OH220942   0.373   3.373   4.021  0.0009  0.2205  0.1094
 6993TIP3    H120943   0.371   3.343   3.930  0.2114  1.4116 -0.3060
 6993TIP3    H220944   0.465   3.367   4.047 -0.1843 -0.9013  0.5204
 6994TIP3   OH220945   4.823   2.962   2.857 -0.2016 -0.2677 -1.0155
 6994TIP3    H120946   4.906   2.964   2.808  0.1489 -0.1212 -0.4229
 6994TIP3    H220947   4.794   2.872   2.850  0.3821 -0.4944 -0.6212
 6995TIP3   OH220948   2.523   0.364   0.486 -0.0685  0.2467  0.2575
 6995TIP3    H120949   2.560   0.368   0.398  0.5870  1.0233  0.5529
 6995TIP3    H220950   2.456   0.296   0.482  0.0936  0.1462 -0.7882
 6996TIP3   OH220951   3.941   4.235   4.197 -0.1546  0.3860 -0.7012
 6996TIP3    H120952   3.914   4.146   4.221  0.9036  0.4112  0.6784
 6996TIP3    H220953   4.004   4.222   4.126  1.5805 -0.1562  0.8581
 6997TIP3   OH220954   7.136   1.311   2.525 -0.0441 -0.4433 -0.0888
 6997TIP3    H120955   7.068   1.245   2.507 -1.3229  1.1287 -1.3227
 6997TIP3    H220956   7.213   1.279   2.478  0.1890 -2.3512  1.4654
 6998TIP3   OH220957   4.604   0.029   2.374 -0.1543 -0.2533  0.0460
 6998TIP3    H120958   4.566   0.077   2.447 -1.1149  0.3606 -0.8350
 6998TIP3    H220959   4.625  -0.058   2.410 -3.8935 -1.2222  0.2375
 6999TIP3   OH220960   3.685   2.494   4.096 -0.9076  0.1681  0.6385
 6999TIP3    H120961   3.653   2.566   4.042 -0.8328  1.4036  2.1469
 6999TIP3    H220962   3.681   2.417   4.040 -1.5864  1.2403 -0.8347
 7000TIP3   OH220963   0.452   5.093   5.234  0.4392 -0.3193  0.0963
 7000TIP3    H120964   0.522   5.094   5.299  0.6646 -1.2835 -0.1043
 7000TIP3    H220965   0.488   5.042   5.161  0.2568  0.9079 -0.8730
 7001TIP3   OH220966   3.875   5.441   1.233  0.2628  0.7015  0.1465
 7001TIP3    H120967   3.948   5.502   1.222 -0.5775  1.8073  0.5400
 7001TIP3    H220968   3.802   5.483   1.187 -0.6920  0.6657  1.5625
 7002TIP3   OH220969   7.033   0.138   4.126 -0.0717  0.3197 -0.1241
 7002TIP3    H120970   7.023   0.048   4.156 -0.5271  0.3750 -0.0976
 7002TIP3    H220971   7.127   0.153   4.124  0.0348 -0.3674 -0.7579
 7003TIP3   OH220972   2.116   3.573   5.058 -0.8592 -0.6280 -0.4370
 7003TIP3    H120973   2.207   3.598   5.073 -1.1348  0.1894 -0.0916
 7003TIP3    H220974   2.089   3.625   4.983 -1.1842 -0.4966 -0.2330
 7004TIP3   OH220975   3.345   5.888   4.703 -0.4528 -0.1948 -0.2860
 7004TIP3    H120976   3.399   5.825   4.750 -0.4291 -1.1146 -1.5238
 7004TIP3    H220977   3.308   5.839   4.630 -0.8042  1.1083 -1.0097
 7005TIP3   OH220978   1.999   0.773   3.411  0.1899 -0.0281  0.0342
 7005TIP3    H120979   2.028   0.816   3.331  2.2417  0.0886  0.7717
 7005TIP3    H220980   1.944   0.837   3.455 -2.5536 -0.7435 -2.0586
 7006TIP3   OH220981   0.153   6.817   1.721  0.1189 -0.0902  0.4877
 7006TIP3    H120982   0.175   6.737   1.675  0.4056  1.1487 -1.6378
 7006TIP3    H220983   0.092   6.789   1.789 -0.2920 -2.0175 -0.6015
 7007TIP3   OH220984   1.954   5.804   1.280 -0.3438  0.0334 -0.2498
 7007TIP3    H120985   1.978   5.878   1.335  0.2024 -0.6384  0.4463
 7007TIP3    H220986   2.010   5.812   1.203 -1.0768  0.9512 -0.7075
 7008TIP3   OH220987   1.112   6.045   5.800 -0.5115 -0.3559  0.7399
 7008TIP3    H120988   1.186   6.102   5.782 -0.0504 -1.2473 -0.3071
 7008TIP3    H220989   1.098   6.053   5.895  1.6058 -0.9497  1.1593
 7009TIP3   OH220990   6.731   2.379   1.162 -0.2943 -0.4668  0.3229
 7009TIP3    H120991   6.649   2.377   1.212 -0.8378  0.0964 -0.5155
 7009TIP3    H220992   6.765   2.290   1.169 -1.5469 -1.0184 -0.2227
 7010TIP3   OH220993   2.470   2.851   0.473  0.2040 -0.1303  0.5770
 7010TIP3    H120994   2.521   2.928   0.447 -0.7200  0.3279  0.0463
 7010TIP3    H220995   2.504   2.780   0.419 -0.2950  0.3640 -0.4233
 7011TIP3   OH220996   3.366   5.342   0.259 -0.2130  0.5658  0.6872
 7011TIP3    H120997   3.355   5.300   0.173  1.0454 -0.1314  0.8372
 7011TIP3    H220998   3.374   5.269   0.320 -1.8710  1.0567  1.5337
 7012TIP3   OH220999   0.740   5.385   3.055  0.2868  0.1023  0.0886
 7012TIP3    H121000   0.793   5.419   2.984  1.0486 -0.3051  0.4529
 7012TIP3    H221001   0.771   5.430   3.133  1.4022 -1.4437  0.6018
 7013TIP3   OH221002   5.873   1.488   4.018  0.1000  0.7871  0.3216
 7013TIP3    H121003   5.959   1.449   4.001  0.0873  0.6617  0.5402
 7013TIP3    H221004   5.872   1.504   4.112  0.0282  1.1345  0.2655
 7014TIP3   OH221005   2.747   0.989   1.169 -0.1181 -0.4235 -0.0812
 7014TIP3    H121006   2.651   0.989   1.166 -0.1848  2.6293 -0.5456
 7014TIP3    H221007   2.773   0.965   1.080 -0.3955 -1.3378  0.0646
 7015TIP3   OH221008   0.441   5.047   4.823  0.2017  0.0864  0.3432
 7015TIP3    H121009   0.371   4.990   4.791  0.7633  0.6572 -2.1304
 7015TIP3    H221010   0.399   5.130   4.841  0.1694  0.4086 -1.0728
 7016TIP3   OH221011   0.056   3.879   3.596 -0.2011  0.4463  0.0587
 7016TIP3    H121012  -0.012   3.946   3.587 -0.0831  0.3624 -1.7587
 7016TIP3    H221013   0.138   3.928   3.601 -0.1756  0.4764 -0.5566
 7017TIP3   OH221014   0.383   0.492   5.313 -0.2742  0.7131  0.5251
 7017TIP3    H121015   0.422   0.411   5.346  1.0890  0.8646 -0.6046
 7017TIP3    H221016   0.307   0.463   5.262 -0.2620  0.2115  0.7847
 7018TIP3   OH221017   4.185   5.630   2.180  0.1870 -0.2011 -0.3916
 7018TIP3    H121018   4.259   5.616   2.121  1.5610 -1.7026  1.5399
 7018TIP3    H221019   4.222   5.619   2.268 -1.4329  3.2089  0.9167
 7019TIP3   OH221020   0.378   2.134   3.223 -0.0541 -0.2617  0.0803
 7019TIP3    H121021   0.363   2.147   3.317  1.4242 -2.1568  0.6619
 7019TIP3    H221022   0.456   2.186   3.204 -0.5969  0.4572 -0.2200
 7020TIP3   OH221023   0.714   1.900   2.593  0.5156  0.1618  0.2983
 7020TIP3    H121024   0.632   1.865   2.557  1.2941 -0.7978 -0.6149
 7020TIP3    H221025   0.687   1.951   2.669 -1.0725  1.0419 -0.7888
 7021TIP3   OH221026   4.138   3.473   2.642  0.4145 -0.2198 -0.0708
 7021TIP3    H121027   4.049   3.459   2.676  1.1891 -0.7651  1.8548
 7021TIP3    H221028   4.138   3.564   2.612 -0.9635 -0.4094 -0.7357
 7022TIP3   OH221029   5.743   1.076   1.186 -0.4450 -0.4959 -0.1299
 7022TIP3    H121030   5.712   0.987   1.206  0.7060 -0.5958  1.4177
 7022TIP3    H221031   5.833   1.077   1.217  0.2426  0.5994 -2.0576
 7023TIP3   OH221032   1.110   6.356   5.752 -0.1940 -0.5348 -0.0545
 7023TIP3    H121033   1.023   6.320   5.766 -1.1071  1.0204 -1.3771
 7023TIP3    H221034   1.119   6.427   5.816 -0.2680 -0.1284 -0.4858
 7024TIP3   OH221035   1.250   4.000   0.223  0.8887 -0.2828  0.1596
 7024TIP3    H121036   1.279   4.029   0.309 -0.3121  1.8074 -0.0578
 7024TIP3    H221037   1.166   3.956   0.239  0.8223 -0.1803  0.0973
 7025TIP3   OH221038   4.688   0.088   0.319 -0.0535  0.1787  0.0540
 7025TIP3    H121039   4.598   0.055   0.324 -0.0121  0.0888  0.2037
 7025TIP3    H221040   4.741   0.010   0.300 -0.0114  0.2355 -0.0559
 7026TIP3   OH221041   3.453   1.887   3.972  0.0376  0.3198  0.0366
 7026TIP3    H121042   3.383   1.827   3.997 -0.9169  0.7571 -1.4238
 7026TIP3    H221043   3.521   1.831   3.936 -0.4843  0.0241 -0.5175
 7027TIP3   OH221044   7.186   6.558   0.839  0.9092 -0.0768  0.3392
 7027TIP3    H121045   7.171   6.646   0.806  2.2281  0.5779  1.3776
 7027TIP3    H221046   7.159   6.562   0.931 -0.4106 -1.1856  0.0384
 7028TIP3   OH221047   5.707   1.613   0.035 -0.4916  0.2538  0.2372
 7028TIP3    H121048   5.663   1.648  -0.042  1.3425  1.2107 -0.4215
 7028TIP3    H221049   5.711   1.686   0.096  1.2350  0.5920 -0.2145
 7029TIP3   OH221050   6.013   6.498   3.198 -0.4575 -0.3064  0.1401
 7029TIP3    H121051   6.003   6.580   3.150  0.7384  0.7530  1.6383
 7029TIP3    H221052   5.923   6.467   3.210 -0.8437 -0.2098 -2.0143
 7030TIP3   OH221053   0.137   5.629   5.263 -0.4174 -0.2330  0.7630
 7030TIP3    H121054   0.201   5.698   5.249 -0.8240  0.3667  1.7560
 7030TIP3    H221055   0.086   5.626   5.181  1.5708 -1.5358 -0.5254
 7031TIP3   OH221056   5.767   5.343   1.812 -0.0082  0.4978 -0.3158
 7031TIP3    H121057   5.837   5.349   1.746  0.0543 -0.8143 -0.4068
 7031TIP3    H221058   5.687   5.363   1.763 -0.0498 -1.1853 -1.0131
 7032TIP3   OH221059   1.654   4.492   3.714  0.1149 -0.5678 -0.1524
 7032TIP3    H121060   1.584   4.441   3.754  0.5932  0.1564  1.7110
 7032TIP3    H221061   1.620   4.582   3.713  1.4680  0.0747  2.1654
 7033TIP3   OH221062   5.653   6.608   5.003  0.0904  0.3930  0.5291
 7033TIP3    H121063   5.593   6.540   5.032  0.1956  0.1582  0.2066
 7033TIP3    H221064   5.602   6.689   5.008  0.5716  0.6222  2.8620
 7034TIP3   OH221065   2.260   0.785   1.065  0.2559  0.0022 -0.2216
 7034TIP3    H121066   2.195   0.786   1.135  0.6727  1.1425  0.1851
 7034TIP3    H221067   2.261   0.695   1.033  0.6960 -0.7674  1.8378
 7035TIP3   OH221068   2.686   1.235   2.744 -0.0866 -0.2984 -0.0750
 7035TIP3    H121069   2.604   1.275   2.717  0.1688 -0.1703 -0.6539
 7035TIP3    H221070   2.745   1.308   2.761 -0.4822 -0.3328  1.6453
 7036TIP3   OH221071   2.938   3.583   4.635 -0.2198  0.4501 -0.7366
 7036TIP3    H121072   2.925   3.582   4.730 -0.1109  0.6617 -0.7201
 7036TIP3    H221073   2.962   3.493   4.613  0.0004  0.4604 -0.5309
 7037TIP3   OH221074   4.429   6.695   1.620  0.4770  0.4597 -0.2771
 7037TIP3    H121075   4.397   6.687   1.530 -0.9330 -0.5598  0.2837
 7037TIP3    H221076   4.487   6.771   1.618  0.1818  0.6830 -1.9547
 7038TIP3   OH221077   6.915   4.545   3.747 -0.1966  0.6311  0.4704
 7038TIP3    H121078   6.966   4.464   3.743  1.6566  1.6935  1.2214
 7038TIP3    H221079   6.932   4.588   3.664 -0.7908  0.4803  0.2686
 7039TIP3   OH221080   5.598   3.076   1.217  0.1444  0.0527  0.2663
 7039TIP3    H121081   5.621   3.026   1.295  0.0439  0.1544  0.3616
 7039TIP3    H221082   5.596   3.011   1.146  1.0109  0.0857  0.1966
 7040TIP3   OH221083   5.003   1.618   3.313  0.7496  0.5888  0.4557
 7040TIP3    H121084   4.965   1.541   3.269  2.4465  0.4243 -0.8493
 7040TIP3    H221085   4.961   1.693   3.271 -0.0058  0.3967  0.8562
 7041TIP3   OH221086   6.354   3.685   0.072  0.2916  0.3519  0.2058
 7041TIP3    H121087   6.366   3.778   0.055  0.3153  0.3305  0.1052
 7041TIP3    H221088   6.411   3.667   0.147 -1.5955  0.9493  1.8721
 7042TIP3   OH221089   2.602   6.760   1.489 -0.1016  0.0558 -0.1646
 7042TIP3    H121090   2.673   6.774   1.427  1.0556 -0.3688  1.0188
 7042TIP3    H221091   2.616   6.826   1.558  0.1944 -1.1351  0.9586
 7043TIP3   OH221092   5.299   6.598   1.831 -0.0242 -0.1562  0.1486
 7043TIP3    H121093   5.335   6.509   1.841  1.7557  0.4261 -0.5953
 7043TIP3    H221094   5.369   6.655   1.862  0.1129  1.0960 -2.2860
 7044TIP3   OH221095   4.850   2.075   5.473 -0.3919 -0.1224 -0.2665
 7044TIP3    H121096   4.816   2.015   5.539  0.1946 -0.8954 -0.6485
 7044TIP3    H221097   4.909   2.021   5.420  0.2131  0.8171 -0.5660
 7045TIP3   OH221098   2.137   4.483   5.599 -0.0015  0.0493 -0.3807
 7045TIP3    H121099   2.122   4.472   5.693 -1.4449 -2.0288 -0.7867
 7045TIP3    H221100   2.220   4.530   5.593 -0.2142  0.8059  1.9280
 7046TIP3   OH221101   3.560   5.557   0.290 -0.1685 -0.3143 -0.0103
 7046TIP3    H121102   3.497   5.491   0.319 -2.0316  1.6365  0.6926
 7046TIP3    H221103   3.534   5.637   0.336  1.8573  0.9793 -0.9583
 7047TIP3   OH221104   6.327   6.520   5.838 -0.0180  0.5052 -0.2632
 7047TIP3    H121105   6.299   6.477   5.918 -0.6344  2.4584  0.6328
 7047TIP3    H221106   6.273   6.481   5.769 -0.1638 -0.4951  0.4030
 7048TIP3   OH221107   3.187   1.101   3.021 -0.5249  0.4692  0.0648
 7048TIP3    H121108   3.190   1.170   3.088  0.2044  0.5183 -0.0117
 7048TIP3    H221109   3.094   1.094   2.999 -0.6079  1.4915  0.0174
 7049TIP3   OH221110   2.170   1.650   3.034 -0.0505 -0.3671 -0.4679
 7049TIP3    H121111   2.123   1.571   3.008  0.2390 -0.1237 -1.8508
 7049TIP3    H221112   2.157   1.710   2.960  1.7921 -0.0314 -0.5704
 7050TIP3   OH221113   0.162   2.574   1.820  0.0912 -0.4769  1.1033
 7050TIP3    H121114   0.082   2.610   1.780 -0.0785  0.1960  2.0071
 7050TIP3    H221115   0.229   2.640   1.803 -0.0413 -0.0667  2.1246
 7051TIP3   OH221116   0.314   5.176   3.452 -0.4225  0.1920 -0.3529
 7051TIP3    H121117   0.330   5.244   3.518 -0.4705  1.1720 -1.3094
 7051TIP3    H221118   0.337   5.094   3.496  0.4534  0.9008  0.5780
 7052TIP3   OH221119   0.463   1.290   4.154 -0.1890 -0.1605 -0.0247
 7052TIP3    H121120   0.538   1.261   4.102 -0.9315  1.5359 -2.2200
 7052TIP3    H221121   0.501   1.345   4.222  0.7035 -1.1351  0.2882
 7053TIP3   OH221122   5.955   4.253   0.061 -0.3338 -0.1403  0.0892
 7053TIP3    H121123   5.914   4.337   0.081 -0.6059 -0.0916 -0.6624
 7053TIP3    H221124   5.985   4.220   0.146 -2.0395 -0.2331  0.6796
 7054TIP3   OH221125   0.539   5.909   2.411  0.3842 -0.5971 -0.2560
 7054TIP3    H121126   0.491   5.984   2.377 -0.4395  0.1582  2.3693
 7054TIP3    H221127   0.588   5.876   2.336 -1.1488  1.0333 -2.0750
 7055TIP3   OH221128   5.327   0.242   4.997  0.6533 -0.3141 -0.0412
 7055TIP3    H121129   5.337   0.199   5.082  2.0979 -0.0459 -0.0540
 7055TIP3    H221130   5.386   0.317   5.001  1.6691 -0.9691 -1.7167
 7056TIP3   OH221131   7.159   2.780   5.594  0.4995 -0.4380  0.6579
 7056TIP3    H121132   7.227   2.752   5.655  0.4048  1.3444  1.6591
 7056TIP3    H221133   7.142   2.871   5.618 -2.3583 -0.8647  0.5457
 7057TIP3   OH221134   5.980   3.251   0.797 -0.4241 -0.2901 -0.1999
 7057TIP3    H121135   5.924   3.192   0.746  0.6211 -0.3188 -1.3955
 7057TIP3    H221136   5.940   3.337   0.787 -0.9386 -0.5009  0.0054
 7058TIP3   OH221137   1.050   2.217   0.159  0.5159  0.0592 -0.2533
 7058TIP3    H121138   1.108   2.285   0.195 -0.6094  0.7043  0.3980
 7058TIP3    H221139   1.000   2.263   0.092 -0.1623 -0.1600  0.0983
 7059TIP3   OH221140   2.328   3.515   1.591  0.0377  0.1225 -0.7232
 7059TIP3    H121141   2.352   3.584   1.654 -0.2136 -0.2551 -0.2116
 7059TIP3    H221142   2.366   3.545   1.508  0.5687  0.5137 -0.3472
 7060TIP3   OH221143   5.731   5.390   3.279 -0.1215  0.3455  0.5881
 7060TIP3    H121144   5.756   5.309   3.324 -0.8672 -1.4229 -1.9099
 7060TIP3    H221145   5.641   5.407   3.307 -0.7401 -0.9900 -0.4479
 7061TIP3   OH221146   3.591   0.107   1.191 -0.0797 -0.0795 -0.1809
 7061TIP3    H121147   3.644   0.053   1.133 -0.8041 -0.1234 -0.8140
 7061TIP3    H221148   3.655   0.155   1.244  0.5774 -0.7665 -0.3349
 7062TIP3   OH221149   5.052   4.279   4.937 -0.1966 -0.1413  0.0208
 7062TIP3    H121150   5.116   4.211   4.917 -0.3477 -0.7931  1.6414
 7062TIP3    H221151   4.983   4.267   4.872 -0.3708 -1.7578  0.4724
 7063TIP3   OH221152   2.123   1.939   1.868  0.2589  0.1134 -0.0469
 7063TIP3    H121153   2.213   1.959   1.840  1.1984 -1.5043  1.6157
 7063TIP3    H221154   2.082   2.024   1.878  2.0370  0.9652  0.4526
 7064TIP3   OH221155   1.679   3.494   5.158 -0.1543 -0.5693  0.1267
 7064TIP3    H121156   1.756   3.547   5.177 -0.6542  0.1965  0.0420
 7064TIP3    H221157   1.711   3.429   5.095  0.0688  0.7950 -1.2499
 7065TIP3   OH221158   6.401   0.227   0.584 -0.3431 -0.4202  0.0334
 7065TIP3    H121159   6.492   0.203   0.564 -0.1822  0.8657 -0.8568
 7065TIP3    H221160   6.408   0.310   0.632 -0.9720 -1.3246  1.8095
 7066TIP3   OH221161   5.930   1.412   4.442 -0.4659 -0.2812  0.7372
 7066TIP3    H121162   6.025   1.404   4.440 -0.2859  0.7382  2.8564
 7066TIP3    H221163   5.914   1.500   4.477 -2.2155  0.3363 -1.3919
 7067TIP3   OH221164   0.577   1.630   3.922 -0.5731  0.4337  0.1098
 7067TIP3    H121165   0.548   1.653   3.834  2.2517 -0.8218 -1.2796
 7067TIP3    H221166   0.643   1.696   3.944  4.3363 -3.0264 -2.1033
 7068TIP3   OH221167   6.238   6.627   5.328 -0.0850  0.3750  0.2769
 7068TIP3    H121168   6.309   6.650   5.269 -1.0363  1.8730 -0.3565
 7068TIP3    H221169   6.281   6.582   5.401  1.4253  0.7339 -0.3486
 7069TIP3   OH221170   0.949   5.048   2.685  0.1238 -0.5254 -0.3699
 7069TIP3    H121171   0.896   5.066   2.763 -3.1374 -0.4591 -2.4577
 7069TIP3    H221172   0.989   4.963   2.703 -2.4727 -1.6531  0.4630
 7070TIP3   OH221173   7.141   1.582   3.869  0.1249  1.0259  0.7095
 7070TIP3    H121174   7.079   1.568   3.798  1.8391 -0.6313 -0.5673
 7070TIP3    H221175   7.189   1.661   3.844 -0.0468  1.0971  0.6074
 7071TIP3   OH221176   5.616   2.037   3.049  0.1954  0.3250  0.1245
 7071TIP3    H121177   5.709   2.022   3.031  0.1890 -0.1685  0.4808
 7071TIP3    H221178   5.572   2.009   2.969  0.2546 -0.7873  0.4663
 7072TIP3   OH221179   2.494   3.034   3.451 -0.1335 -0.5469 -0.3371
 7072TIP3    H121180   2.403   3.019   3.424 -0.0387 -0.8344 -0.5096
 7072TIP3    H221181   2.540   2.954   3.424  0.5605  0.3453 -2.0060
 7073TIP3   OH221182   2.087   0.834   5.216  0.5507 -0.8128 -0.5104
 7073TIP3    H121183   2.042   0.784   5.148  1.8063 -0.6323 -1.5201
 7073TIP3    H221184   2.179   0.836   5.187  1.6405 -2.7434  2.3323
 7074TIP3   OH221185   3.791   4.430   5.257 -0.6351 -0.4303  0.4070
 7074TIP3    H121186   3.880   4.395   5.262 -1.0192 -1.2945  1.7039
 7074TIP3    H221187   3.742   4.380   5.322 -1.8823  0.6012  0.2980
 7075TIP3   OH221188   1.078   0.505   4.791  0.2127  0.4925 -0.1920
 7075TIP3    H121189   1.166   0.489   4.825 -0.8008 -0.6221  2.1187
 7075TIP3    H221190   1.036   0.420   4.791 -0.7263  0.9016 -1.8783
 7076TIP3   OH221191   0.989   4.778   1.921 -0.3339 -0.2341  0.2730
 7076TIP3    H121192   1.054   4.772   1.851  0.8730  0.6402  1.2699
 7076TIP3    H221193   0.906   4.788   1.876  0.5794  1.9001 -1.0740
 7077TIP3   OH221194   2.051   2.810   3.988 -0.4976  0.4131  0.5068
 7077TIP3    H121195   2.082   2.731   3.944 -1.2575  0.5181 -0.2288
 7077TIP3    H221196   1.956   2.808   3.978 -0.7817  0.1170  2.6933
 7078TIP3   OH221197   6.559   0.276   3.818 -0.3303  0.2987  0.1877
 7078TIP3    H121198   6.538   0.369   3.823 -0.5852  0.2177  0.7402
 7078TIP3    H221199   6.612   0.259   3.896  1.1987  0.3421 -0.8014
 7079TIP3   OH221200   4.993   2.517   0.244  0.0164 -0.0840  0.3669
 7079TIP3    H121201   4.945   2.592   0.209 -0.3987 -0.6156 -0.2195
 7079TIP3    H221202   5.074   2.554   0.278 -0.5494  0.7493  0.8522
 7080TIP3   OH221203   6.153   5.020   1.713 -1.0846 -0.1786 -0.0813
 7080TIP3    H121204   6.175   5.111   1.697 -0.2369 -0.2178  0.7599
 7080TIP3    H221205   6.168   4.976   1.630  1.0683 -0.0069  0.1589
 7081TIP3   OH221206   6.015   2.693   3.891  0.0078  0.2750  0.6290
 7081TIP3    H121207   6.019   2.788   3.879  2.7516  0.4224  1.8589
 7081TIP3    H221208   6.071   2.658   3.822 -2.4704 -0.7055 -1.0345
 7082TIP3   OH221209   1.483   3.701   3.841 -0.5775  0.0187  0.3164
 7082TIP3    H121210   1.407   3.693   3.898  0.0159 -1.0845  0.9785
 7082TIP3    H221211   1.540   3.629   3.866  0.3931  0.4261 -0.6302
 7083TIP3   OH221212   0.479   0.740   1.391  0.1435 -0.7755 -0.3633
 7083TIP3    H121213   0.444   0.829   1.403  1.2320 -0.2976 -0.6365
 7083TIP3    H221214   0.448   0.692   1.467  1.5680  0.4909  1.0850
 7084TIP3   OH221215   4.665   1.298   5.915 -0.0919  0.5995  0.1974
 7084TIP3    H121216   4.570   1.310   5.925 -0.1130 -0.2090  1.2076
 7084TIP3    H221217   4.679   1.295   5.820 -1.4328 -1.5587 -0.0091
 7085TIP3   OH221218   0.814   4.399   5.510 -0.1109 -0.2715 -0.2223
 7085TIP3    H121219   0.754   4.452   5.457  1.3850  0.8649 -0.8576
 7085TIP3    H221220   0.875   4.361   5.447 -0.6819 -2.2054  0.3086
 7086TIP3   OH221221   3.167   6.404   2.599 -1.0257 -0.0508 -0.5126
 7086TIP3    H121222   3.111   6.475   2.632  2.2809  3.5824 -1.9211
 7086TIP3    H221223   3.227   6.386   2.671  0.0938  0.9444 -1.1507
 7087TIP3   OH221224   3.955   4.505   3.631  0.0942 -0.6324 -0.2762
 7087TIP3    H121225   4.000   4.430   3.671  0.5371  0.7308  1.9926
 7087TIP3    H221226   3.866   4.500   3.666  0.5572  0.7272  1.2327
 7088TIP3   OH221227   6.562   2.770   3.516 -0.4366 -0.0679 -0.4328
 7088TIP3    H121228   6.499   2.812   3.458  0.1130  4.2150  1.7294
 7088TIP3    H221229   6.643   2.766   3.463 -1.1308 -0.7552 -1.4822
 7089TIP3   OH221230   3.675   2.821   2.706  0.1712  0.4637  0.0006
 7089TIP3    H121231   3.718   2.806   2.622  1.1310  1.6934  0.2521
 7089TIP3    H221232   3.701   2.910   2.731 -1.7432  0.9129  0.6233
 7090TIP3   OH221233   5.129   1.377   5.119  0.1584 -0.2039  0.0521
 7090TIP3    H121234   5.130   1.370   5.214 -0.0701  0.7808  0.1321
 7090TIP3    H221235   5.040   1.404   5.097 -0.4960 -2.6423 -0.6329
 7091TIP3   OH221236   4.780   3.660   1.061 -0.0711 -0.0431  0.2500
 7091TIP3    H121237   4.827   3.678   1.143  0.2249  0.7966 -0.0931
 7091TIP3    H221238   4.706   3.721   1.063 -0.5894 -0.6681  0.3205
 7092TIP3   OH221239   5.971   2.290   3.986 -0.2022  0.5058  0.0828
 7092TIP3    H121240   6.024   2.265   3.911 -1.1246 -1.3676 -0.0171
 7092TIP3    H221241   6.023   2.357   4.032  0.1881  2.0215 -2.4032
 7093TIP3   OH221242   3.022   6.383   1.692  0.5362 -0.0934 -0.0920
 7093TIP3    H121243   2.999   6.374   1.784 -0.6621 -0.4712 -0.4157
 7093TIP3    H221244   3.117   6.367   1.689  0.4167 -1.0699  0.9345
 7094TIP3   OH221245   5.121   4.286   3.791  0.3001 -0.4787 -0.2231
 7094TIP3    H121246   5.186   4.261   3.726 -0.7495 -1.1644 -1.0329
 7094TIP3    H221247   5.055   4.218   3.787 -1.4235  1.1337 -0.7570
 7095TIP3   OH221248   3.962   6.344   1.185 -0.3658 -0.0068  0.4028
 7095TIP3    H121249   3.971   6.387   1.100  1.1801 -0.7900  0.1364
 7095TIP3    H221250   3.968   6.251   1.166 -2.1839 -0.3150  1.1526
 7096TIP3   OH221251   3.634   2.268   3.934  0.0553  0.1718  0.2297
 7096TIP3    H121252   3.633   2.306   3.845  0.1218  0.5801  0.4005
 7096TIP3    H221253   3.545   2.236   3.947 -0.0198  0.3259  0.1028
 7097TIP3   OH221254   1.858   0.367   3.948  0.4511  0.0651 -0.1066
 7097TIP3    H121255   1.855   0.463   3.940  1.0757  0.1383  0.4729
 7097TIP3    H221256   1.945   0.343   3.917  0.1869 -0.3510 -0.5386
 7098TIP3   OH221257   5.428   0.260   4.542 -0.1349  0.2545  0.0870
 7098TIP3    H121258   5.356   0.309   4.581 -0.0131 -0.3062  1.0673
 7098TIP3    H221259   5.395   0.170   4.538  0.2824  0.1072 -0.0461
 7099TIP3   OH221260   6.495   0.041   0.800  0.0628  0.1177 -0.5564
 7099TIP3    H121261   6.470   0.065   0.889  1.4282  3.1365 -0.8608
 7099TIP3    H221262   6.414   0.007   0.760 -0.3446 -2.3672  2.0243
 7100TIP3   OH221263   1.596   3.992   1.697  0.5019 -0.0523 -0.0921
 7100TIP3    H121264   1.591   4.060   1.764  0.9782 -0.2680  0.1654
 7100TIP3    H221265   1.508   3.987   1.661  0.5733  1.0434 -0.4526
 7101TIP3   OH221266   4.163   4.110   2.548  0.3473  0.0592  0.4179
 7101TIP3    H121267   4.151   4.185   2.490 -0.6893 -0.1037  0.4053
 7101TIP3    H221268   4.077   4.068   2.552  1.3791 -2.5126 -1.4068
 7102TIP3   OH221269   4.686   0.883   1.740  0.2608  0.2678 -0.0562
 7102TIP3    H121270   4.630   0.816   1.700  1.1268  1.5401 -3.7998
 7102TIP3    H221271   4.772   0.841   1.746 -0.1103 -0.3077  1.7431
 7103TIP3   OH221272   6.799   6.666   2.520 -0.3063 -0.3329 -0.0050
 7103TIP3    H121273   6.771   6.618   2.597 -0.1343  1.6767  1.3787
 7103TIP3    H221274   6.717   6.691   2.476 -0.4504 -0.2244  0.3262
 7104TIP3   OH221275   0.760   3.793   4.542  0.4649  0.1037  0.2607
 7104TIP3    H121276   0.700   3.829   4.608  0.4908 -0.4233  0.5719
 7104TIP3    H221277   0.831   3.755   4.593 -0.1926 -1.5422 -0.0161
 7105TIP3   OH221278   0.169   2.325   3.024 -0.3529  0.3378  0.3632
 7105TIP3    H121279   0.189   2.371   3.106 -0.2275 -0.2905  0.6914
 7105TIP3    H221280   0.241   2.349   2.966  1.0812 -1.3765  1.3280
 7106TIP3   OH221281   7.037   1.176   4.487  0.0058  0.0519 -0.2205
 7106TIP3    H121282   7.017   1.082   4.488 -0.8718  0.2285  1.0756
 7106TIP3    H221283   7.051   1.196   4.395 -0.4482 -1.2147 -0.5935
 7107TIP3   OH221284   5.740   3.905   3.865  0.7190  0.1891 -0.5787
 7107TIP3    H121285   5.825   3.911   3.821  0.0133 -0.0953 -2.0209
 7107TIP3    H221286   5.692   3.982   3.834  0.1198 -0.1489 -0.4941
 7108TIP3   OH221287   2.367   1.025   1.372  0.7892 -0.2063  0.1059
 7108TIP3    H121288   2.401   1.009   1.284 -0.2393 -0.0854 -0.3363
 7108TIP3    H221289   2.309   0.951   1.388  1.1627 -0.3530  0.7885
 7109TIP3   OH221290   1.813   0.630   2.772  0.1988  0.3007  0.1884
 7109TIP3    H121291   1.861   0.641   2.854  0.6091  0.5508 -0.0812
 7109TIP3    H221292   1.735   0.579   2.796  0.7411 -0.3657  0.5882
 7110TIP3   OH221293   1.784   1.490   5.004 -0.4514 -0.0719 -0.0991
 7110TIP3    H121294   1.765   1.397   4.991 -0.7399  0.1419 -1.3711
 7110TIP3    H221295   1.800   1.524   4.915  1.5088  0.7126  0.5119
 7111TIP3   OH221296   2.593   2.459   5.641 -0.0724  0.2611  0.5595
 7111TIP3    H121297   2.653   2.499   5.579 -1.1560 -1.3463 -1.6529
 7111TIP3    H221298   2.508   2.499   5.621 -0.3893 -0.0612  1.2240
 7112TIP3   OH221299   2.759   5.112   4.271  0.1396 -0.8260 -0.4633
 7112TIP3    H121300   2.668   5.109   4.239 -0.5046  0.2172  1.1152
 7112TIP3    H221301   2.810   5.069   4.203 -1.5958 -1.8029 -1.2178
 7113TIP3   OH221302   2.088   6.388   0.128 -0.0908 -0.7481  0.0902
 7113TIP3    H121303   2.099   6.406   0.221 -0.8348 -0.2322  0.0945
 7113TIP3    H221304   2.167   6.423   0.087  0.2443 -0.9910  0.5260
 7114TIP3   OH221305   1.007   1.068   2.519 -0.1418  0.2704  0.6304
 7114TIP3    H121306   0.949   1.122   2.572 -0.7926  2.1768 -1.8489
 7114TIP3    H221307   1.036   1.126   2.448  1.6858 -1.7582 -0.4112
 7115TIP3   OH221308   5.515   5.531   3.899 -0.2827  0.0822 -0.5014
 7115TIP3    H121309   5.421   5.518   3.886 -0.1988 -0.1593 -0.8579
 7115TIP3    H221310   5.525   5.542   3.994 -0.7326  0.6228 -0.5132
 7116TIP3   OH221311   1.221   5.582   3.304 -0.3820  0.0245  0.4263
 7116TIP3    H121312   1.279   5.560   3.377 -0.6417  0.7764  0.8665
 7116TIP3    H221313   1.199   5.674   3.317 -0.2606  0.2366 -0.7240
 7117TIP3   OH221314   6.482   4.264   4.753  0.1061 -0.4482 -0.4302
 7117TIP3    H121315   6.405   4.283   4.700 -1.3296  1.5310  2.1657
 7117TIP3    H221316   6.450   4.210   4.825  0.7710  1.4647  1.4076
 7118TIP3   OH221317   6.090   3.459   3.940  0.7859 -0.2655 -0.1007
 7118TIP3    H121318   6.122   3.518   4.009  0.2652  0.1239 -0.1850
 7118TIP3    H221319   6.105   3.371   3.974 -0.9572 -0.0945  1.2392
 7119TIP3   OH221320   3.373   2.161   1.488 -0.4468  0.3439  0.1626
 7119TIP3    H121321   3.384   2.105   1.412  1.3917 -0.4792  0.9601
 7119TIP3    H221322   3.324   2.236   1.456 -0.0451 -0.1552 -1.7416
 7120TIP3   OH221323   6.556   4.491   2.050  0.0361 -0.1254 -0.1864
 7120TIP3    H121324   6.551   4.397   2.031 -0.0418 -0.3597  0.9446
 7120TIP3    H221325   6.470   4.526   2.026  0.2895 -0.1993 -1.2686
 7121TIP3   OH221326   0.726   3.921   4.078 -0.0142  0.1100 -0.8979
 7121TIP3    H121327   0.706   4.015   4.082  1.3722  0.4207 -0.8380
 7121TIP3    H221328   0.787   3.906   4.150 -1.1935 -1.1184 -0.0920
 7122TIP3   OH221329   6.795   4.872   2.349  0.1951  0.3673 -0.6230
 7122TIP3    H121330   6.806   4.911   2.263  0.5022 -1.2574 -1.3679
 7122TIP3    H221331   6.828   4.782   2.339  0.3479  0.1733  1.2166
 7123TIP3   OH221332   5.766   5.119   5.808  0.2715 -0.3283  0.1812
 7123TIP3    H121333   5.708   5.044   5.822 -1.2503  0.7551 -0.0554
 7123TIP3    H221334   5.811   5.100   5.726 -0.2807 -0.8784 -0.0017
 7124TIP3   OH221335   5.932   6.678   2.975 -0.0460 -0.3523 -0.0316
 7124TIP3    H121336   6.016   6.726   2.978 -1.0943  1.6411 -0.5730
 7124TIP3    H221337   5.900   6.692   2.886 -0.8404 -1.3416  0.0875
 7125TIP3   OH221338   0.843   6.222   0.892  0.5756 -0.0281  0.5194
 7125TIP3    H121339   0.774   6.288   0.899 -0.4922 -1.1779  1.1387
 7125TIP3    H221340   0.797   6.141   0.870  2.0046 -0.3113 -1.7833
 7126TIP3   OH221341   5.335   2.899   1.395  0.0100 -0.0489  1.0340
 7126TIP3    H121342   5.303   2.984   1.428 -0.4043  0.1180  0.2504
 7126TIP3    H221343   5.430   2.908   1.392 -0.0973  1.7910 -2.4579
 7127TIP3   OH221344   5.914   2.629   0.207  0.1063 -0.0194  0.3122
 7127TIP3    H121345   5.860   2.551   0.200 -0.7982  0.6219 -0.0779
 7127TIP3    H221346   5.952   2.625   0.295  0.1793 -0.9580  0.2425
 7128TIP3   OH221347   3.480   3.856   1.210  0.4050 -0.2702 -0.3057
 7128TIP3    H121348   3.540   3.855   1.285 -0.5816 -1.4469  0.5105
 7128TIP3    H221349   3.516   3.791   1.150  0.6120 -0.0992 -0.3667
 7129TIP3   OH221350   0.960   6.490   5.313  0.1712  0.3950  0.6710
 7129TIP3    H121351   0.950   6.585   5.323  2.1333  0.8747 -1.1265
 7129TIP3    H221352   0.871   6.455   5.319 -0.9486  2.6537 -1.2370
 7130TIP3   OH221353   3.557   3.974   0.317  0.2645 -0.5610  0.5738
 7130TIP3    H121354   3.628   3.978   0.382  2.9016 -1.5704 -2.0146
 7130TIP3    H221355   3.568   3.889   0.275 -1.2122  0.1166 -1.3190
 7131TIP3   OH221356   1.750   3.224   0.716  0.2273  0.2948  0.6612
 7131TIP3    H121357   1.730   3.266   0.799 -1.0391  2.1309 -0.5198
 7131TIP3    H221358   1.697   3.144   0.716 -1.3626  1.3252  0.7644
 7132TIP3   OH221359   0.695   0.442   1.856 -0.6499 -0.5962 -0.4680
 7132TIP3    H121360   0.620   0.475   1.806 -0.3489  0.8192 -0.0092
 7132TIP3    H221361   0.711   0.508   1.923  0.2902 -1.4447  0.1765
 7133TIP3   OH221362   2.011   3.372   4.712  0.1902 -0.0722 -0.2733
 7133TIP3    H121363   2.021   3.463   4.684  0.3026  0.3136  0.9354
 7133TIP3    H221364   2.019   3.321   4.632 -0.2985  1.0067 -1.0347
 7134TIP3   OH221365   5.090   6.717   0.404 -0.2712  0.1693 -0.5003
 7134TIP3    H121366   5.024   6.786   0.398  0.8049  1.4697  1.4389
 7134TIP3    H221367   5.136   6.735   0.486  1.2234 -1.8409 -0.8164
 7135TIP3   OH221368   2.690   0.657   3.554 -0.1054  0.0717 -0.1122
 7135TIP3    H121369   2.719   0.692   3.469 -1.5984  0.3579 -0.5204
 7135TIP3    H221370   2.600   0.630   3.540 -0.6079  0.7649  1.5669
 7136TIP3   OH221371   3.965   4.537   4.273 -0.0631  0.3561 -0.2359
 7136TIP3    H121372   3.998   4.614   4.319  0.3864 -0.0571  0.1445
 7136TIP3    H221373   3.915   4.572   4.199 -1.2070  1.0514  0.8306
 7137TIP3   OH221374   6.939   0.249   5.290 -0.1819  0.5047 -0.7738
 7137TIP3    H121375   7.027   0.276   5.316 -0.2718 -0.5100  0.7090
 7137TIP3    H221376   6.953   0.168   5.240 -0.3340 -0.4867  0.7367
 7138TIP3   OH221377   0.425   2.581   5.053  0.1488 -0.0654 -0.1476
 7138TIP3    H121378   0.441   2.546   5.141  1.5863 -1.7259 -0.9989
 7138TIP3    H221379   0.408   2.503   4.999  1.5578  0.6818 -1.7687
 7139TIP3   OH221380   7.081   2.980   0.038  0.3551 -0.0412 -0.0165
 7139TIP3    H121381   7.110   3.071   0.036 -0.1896  0.1238 -0.5793
 7139TIP3    H221382   7.119   2.940  -0.040 -1.2362  0.2887 -1.0138
 7140TIP3   OH221383   4.839   3.827   0.840  0.1635  0.5193  0.0207
 7140TIP3    H121384   4.888   3.905   0.868  2.4793 -0.3352 -1.3621
 7140TIP3    H221385   4.874   3.757   0.896  1.8102 -0.4076 -2.0486
 7141TIP3   OH221386   1.322   6.434   4.741 -0.0427 -0.3392 -0.5118
 7141TIP3    H121387   1.356   6.446   4.830 -2.7445  0.3414  0.5465
 7141TIP3    H221388   1.317   6.522   4.705  1.3878 -0.6461 -1.5424
 7142TIP3   OH221389   1.094   6.466   3.321 -0.0943  0.4939 -0.1797
 7142TIP3    H121390   1.101   6.462   3.417  0.1734  1.4086 -0.1473
 7142TIP3    H221391   1.057   6.552   3.304 -0.2555  0.2839 -0.9038
 7143TIP3   OH221392   1.787   0.094   3.101 -0.4508  0.3199  0.3320
 7143TIP3    H121393   1.815   0.185   3.098 -1.0209  0.5012  0.5399
 7143TIP3    H221394   1.825   0.054   3.023 -2.4201  1.3496 -1.2186
 7144TIP3   OH221395   3.981   0.745   4.300  0.0008 -0.3796 -0.4323
 7144TIP3    H121396   4.027   0.704   4.227  0.4304  1.1953 -1.0783
 7144TIP3    H221397   4.009   0.837   4.298 -0.6132 -0.1207  1.2125
 7145TIP3   OH221398   0.825   0.119   4.748  0.4586  0.0820 -0.3323
 7145TIP3    H121399   0.774   0.060   4.692  1.9213 -0.8394 -0.7371
 7145TIP3    H221400   0.904   0.070   4.771 -0.3203  0.1457  3.1176
 7146TIP3   OH221401   1.446   4.791   2.074 -0.1230  0.1756  0.3773
 7146TIP3    H121402   1.373   4.828   2.124 -0.5010  0.0588 -0.0899
 7146TIP3    H221403   1.444   4.838   1.990 -0.8082 -1.1217 -0.3577
 7147TIP3   OH221404   3.999   2.270   2.118 -0.3747 -0.3137 -0.8147
 7147TIP3    H121405   3.928   2.324   2.082  0.7469  0.8270 -1.3763
 7147TIP3    H221406   4.076   2.294   2.066  0.2476 -2.1840 -0.8191
 7148TIP3   OH221407   5.729   5.033   3.176 -0.2386  0.7301  0.0697
 7148TIP3    H121408   5.781   4.968   3.223 -1.1566 -0.0302  0.0421
 7148TIP3    H221409   5.646   4.990   3.157 -0.2099  1.3118 -1.5177
 7149TIP3   OH221410   2.422   4.224   5.177  0.7415 -0.1380  0.2503
 7149TIP3    H121411   2.511   4.222   5.141  0.3909  0.3131 -0.6972
 7149TIP3    H221412   2.375   4.284   5.119  0.3317  1.2737  1.9773
 7150TIP3   OH221413   6.656   6.310   1.098 -0.5136 -0.7586  0.0394
 7150TIP3    H121414   6.624   6.384   1.149  0.5394 -1.3544  1.6268
 7150TIP3    H221415   6.629   6.233   1.147 -1.5877 -1.4719 -1.5904
 7151TIP3   OH221416   3.281   1.732   5.365  0.0118  0.7535 -0.1280
 7151TIP3    H121417   3.246   1.646   5.341 -0.8617  0.8294  0.8296
 7151TIP3    H221418   3.278   1.782   5.284 -0.0870  0.0940 -0.5445
 7152TIP3   OH221419   6.653   4.414   4.377  0.4681 -0.2053  0.1122
 7152TIP3    H121420   6.620   4.327   4.357 -0.6330  0.2628 -0.1687
 7152TIP3    H221421   6.578   4.472   4.367  0.8682  0.6259  1.5499
 7153TIP3   OH221422   1.149   1.218   2.341 -0.2528  0.1919 -0.0577
 7153TIP3    H121423   1.207   1.242   2.413 -1.1144  1.0565  0.3778
 7153TIP3    H221424   1.139   1.299   2.291  1.3430 -0.6859 -1.9121
 7154TIP3   OH221425   1.818   6.286   0.732  0.2736  0.8671  0.1800
 7154TIP3    H121426   1.829   6.307   0.639  1.1113 -1.5678 -0.3433
 7154TIP3    H221427   1.785   6.367   0.771  0.7856  2.2454 -2.0515
 7155TIP3   OH221428   6.568   0.680   2.868 -0.0736  0.9665 -0.2516
 7155TIP3    H121429   6.493   0.737   2.851 -0.9940  0.6247  2.2845
 7155TIP3    H221430   6.645   0.736   2.857 -0.8899  2.3341  0.7654
 7156TIP3   OH221431   1.723   2.849   0.194 -0.2041  0.3917  0.2496
 7156TIP3    H121432   1.749   2.807   0.112 -1.2553  0.1086  0.0363
 7156TIP3    H221433   1.780   2.811   0.260  0.6025  0.5636 -0.3335
 7157TIP3   OH221434   1.661   1.185   3.292  0.5958 -0.0281  0.6278
 7157TIP3    H121435   1.743   1.233   3.300 -0.3835  1.6893  0.9870
 7157TIP3    H221436   1.606   1.240   3.235 -0.8056 -0.3859  1.5754
 7158TIP3   OH221437   0.778   2.726   3.503  1.0816  0.0148  0.4422
 7158TIP3    H121438   0.758   2.635   3.483 -0.6161  0.4579 -0.0391
 7158TIP3    H221439   0.762   2.733   3.597  0.2079  0.0343  0.3037
 7159TIP3   OH221440   6.069   3.903   5.782  0.6880  0.1019 -0.3072
 7159TIP3    H121441   6.016   3.882   5.705 -3.8906 -1.0375  2.7991
 7159TIP3    H221442   6.120   3.824   5.799 -0.5885 -0.7788 -0.4717
 7160TIP3   OH221443   0.193   0.303   2.601  0.1775 -0.3911  0.1752
 7160TIP3    H121444   0.281   0.299   2.639  0.6276  1.0202 -0.6257
 7160TIP3    H221445   0.209   0.311   2.507 -0.7329  1.4093  0.1339
 7161TIP3   OH221446   4.400   3.157   5.011 -0.0690  0.2842  0.1450
 7161TIP3    H121447   4.363   3.219   5.074  0.5812 -0.2760  1.1050
 7161TIP3    H221448   4.337   3.085   5.008  0.1498  0.0718  0.5593
 7162TIP3   OH221449   5.049   0.021   2.236 -0.4206 -0.2488 -0.6249
 7162TIP3    H121450   4.989   0.090   2.262 -0.7153 -0.2150 -1.3714
 7162TIP3    H221451   5.060   0.032   2.142  0.5357 -0.4314 -0.5516
 7163TIP3   OH221452   1.763   0.527   3.300 -0.3709  0.0448 -0.6045
 7163TIP3    H121453   1.731   0.573   3.223 -1.5651  1.7170  0.8093
 7163TIP3    H221454   1.813   0.592   3.348  0.5209 -1.0215 -0.0385
 7164TIP3   OH221455   4.322   2.327   2.444 -0.0272  0.1681 -0.2181
 7164TIP3    H121456   4.267   2.292   2.374 -0.0221 -2.9605  1.1965
 7164TIP3    H221457   4.411   2.303   2.420  0.2636  1.2569 -0.2947
 7165TIP3   OH221458   4.700   6.645   5.816 -0.6916 -0.4095  0.4997
 7165TIP3    H121459   4.787   6.614   5.790  0.0008  2.2514 -0.7136
 7165TIP3    H221460   4.695   6.626   5.910  2.1478  1.2518  1.0944
 7166TIP3   OH221461   6.671   3.238   2.028  0.0952 -0.4842  0.0470
 7166TIP3    H121462   6.733   3.183   2.076 -1.4448 -2.3730  0.0040
 7166TIP3    H221463   6.675   3.205   1.938  0.0330  0.3165 -0.2532
 7167TIP3   OH221464   6.061   0.932   2.418 -0.0385  0.1502  0.2706
 7167TIP3    H121465   6.056   1.017   2.374 -0.5459  0.4758  0.9485
 7167TIP3    H221466   6.121   0.881   2.364 -0.4400  0.6339 -0.6504
 7168TIP3   OH221467   3.728   6.187   3.619  0.1855 -0.1434  0.1423
 7168TIP3    H121468   3.658   6.135   3.580  0.8543 -0.5461 -0.5469
 7168TIP3    H221469   3.807   6.137   3.602  0.5304 -0.2634  1.8996
 7169TIP3   OH221470   7.022   1.331   3.379  0.4093  0.3714 -0.3452
 7169TIP3    H121471   6.933   1.317   3.346 -0.4562 -0.8155  2.2650
 7169TIP3    H221472   7.049   1.414   3.339 -2.3075  1.3636 -0.3235
 7170TIP3   OH221473   6.094   2.776   0.393 -0.3074  0.4995  0.1558
 7170TIP3    H121474   6.083   2.852   0.335  1.4430 -0.7353 -1.9442
 7170TIP3    H221475   6.185   2.750   0.382 -0.3605 -0.8472  2.2462
 7171TIP3   OH221476   4.010   1.567   5.606  0.0150 -0.0797  0.4819
 7171TIP3    H121477   4.061   1.638   5.566  1.2945  0.1997  2.5072
 7171TIP3    H221478   4.076   1.507   5.641 -1.0635 -1.6222 -0.0479
 7172TIP3   OH221479   2.650   2.492   3.092 -0.0255  0.2834 -0.1520
 7172TIP3    H121480   2.678   2.404   3.116 -0.0848  0.3253  0.0780
 7172TIP3    H221481   2.563   2.501   3.130  0.1666  0.6038  0.2262
 7173TIP3   OH221482   0.343   1.097   4.325 -0.1506 -0.0437  0.0476
 7173TIP3    H121483   0.309   1.143   4.401  1.9671  1.5011  0.1218
 7173TIP3    H221484   0.388   1.163   4.274  2.3710 -1.8416 -0.2485
 7174TIP3   OH221485   3.766   4.440   2.843 -0.2362 -0.4417 -0.3095
 7174TIP3    H121486   3.853   4.463   2.809 -0.1095  0.0825  0.3628
 7174TIP3    H221487   3.780   4.357   2.888  0.1249  0.1149  0.6238
 7175TIP3   OH221488   3.514   3.058   5.580 -0.0801  0.2447  0.2412
 7175TIP3    H121489   3.569   3.078   5.656 -0.6777 -0.1435  0.7895
 7175TIP3    H221490   3.575   3.053   5.506  0.2733  2.8914  0.2422
 7176TIP3   OH221491   4.754   5.137   5.212 -0.1268  0.4419 -0.2801
 7176TIP3    H121492   4.813   5.197   5.258 -0.6662  0.6377  0.1634
 7176TIP3    H221493   4.756   5.057   5.265  1.4792 -0.3836 -1.4744
 7177TIP3   OH221494   4.860   6.269   1.366 -0.0259  0.0169 -0.4024
 7177TIP3    H121495   4.868   6.288   1.459 -0.1749 -0.6890 -0.2369
 7177TIP3    H221496   4.946   6.286   1.329 -0.0929  0.7528 -0.2217
 7178TIP3   OH221497   5.677   0.583   3.148  0.0791  0.4154  0.0711
 7178TIP3    H121498   5.591   0.561   3.111 -0.0235  1.8461 -0.6266
 7178TIP3    H221499   5.721   0.499   3.160 -0.5879 -0.2140 -1.6234
 7179TIP3   OH221500   6.451   6.145   3.420  0.2002 -0.5311  0.3530
 7179TIP3    H121501   6.513   6.182   3.482 -0.4170  1.2508 -0.0395
 7179TIP3    H221502   6.462   6.198   3.341  0.1784 -2.0268 -0.6893
 7180TIP3   OH221503   5.426   5.144   5.254 -0.4627  0.1014 -0.1383
 7180TIP3    H121504   5.428   5.232   5.217 -2.3325 -0.3345 -1.3785
 7180TIP3    H221505   5.431   5.158   5.349 -1.6356  1.6179 -0.2616
 7181TIP3   OH221506   7.110   5.435   0.999 -0.5916  0.1457 -0.5853
 7181TIP3    H121507   7.017   5.411   0.998 -0.4749 -0.3127 -0.7226
 7181TIP3    H221508   7.156   5.353   0.982 -0.1066  0.1122  0.7829
 7182TIP3   OH221509   6.316   5.126   4.437  0.0765  0.1046 -0.2285
 7182TIP3    H121510   6.243   5.095   4.383 -0.1225  1.2175 -0.6271
 7182TIP3    H221511   6.373   5.172   4.375  0.8730 -0.3379  0.1713
 7183TIP3   OH221512   1.562   3.239   3.999  0.3147 -0.4781  0.1434
 7183TIP3    H121513   1.583   3.272   4.086  1.4255 -1.9046  0.4536
 7183TIP3    H221514   1.537   3.148   4.013  0.9662 -0.8620 -1.0620
 7184TIP3   OH221515   3.157   6.172   3.930 -0.4792  0.0373 -0.1343
 7184TIP3    H121516   3.210   6.216   3.997  0.8804 -1.2465 -0.3267
 7184TIP3    H221517   3.117   6.244   3.882 -0.5025  1.0136  1.2590
 7185TIP3   OH221518   1.508   2.866   4.247 -0.1073 -0.4958  0.5657
 7185TIP3    H121519   1.472   2.952   4.224  0.9481  0.2233  1.4893
 7185TIP3    H221520   1.602   2.882   4.259 -0.2164 -1.2822  2.9502
 7186TIP3   OH221521   3.475   3.868   0.875 -0.0351  0.0457 -0.1188
 7186TIP3    H121522   3.554   3.845   0.925  0.0596  1.2494  0.3057
 7186TIP3    H221523   3.415   3.795   0.891  1.3833 -1.4743 -1.3801
 7187TIP3   OH221524   2.642   3.807   3.210 -0.0879 -0.1663 -0.2142
 7187TIP3    H121525   2.589   3.859   3.270 -0.5398 -1.9662  1.0291
 7187TIP3    H221526   2.580   3.777   3.143 -0.1942 -0.4929  0.0279
 7188TIP3   OH221527   7.174   0.747   5.453  0.6053  1.1905 -0.3266
 7188TIP3    H121528   7.130   0.813   5.505 -1.0859  0.0085 -0.1849
 7188TIP3    H221529   7.124   0.742   5.372  1.1337  0.5926 -0.6308
 7189TIP3   OH221530   5.952   1.248   3.060  0.4776  0.9218 -0.2888
 7189TIP3    H121531   5.992   1.277   2.978  0.7910  0.3647 -0.3336
 7189TIP3    H221532   5.932   1.156   3.046 -0.0960  0.9940  0.0193
 7190TIP3   OH221533   2.022   2.100   2.178 -0.1663 -0.6019 -0.1183
 7190TIP3    H121534   1.998   2.023   2.230  0.7366  0.1482  1.4939
 7190TIP3    H221535   2.098   2.137   2.224  1.3926 -0.4939 -2.6078
 7191TIP3   OH221536   6.090   1.075   0.253 -0.3599  0.5055  0.2601
 7191TIP3    H121537   6.107   1.067   0.347 -0.6438  0.2860  0.2927
 7191TIP3    H221538   6.117   1.165   0.232  1.2599  0.0435  0.2181
 7192TIP3   OH221539   4.802   6.052   0.166  0.2269 -0.0386  0.4337
 7192TIP3    H121540   4.738   6.058   0.095  1.7714  1.3577 -0.9230
 7192TIP3    H221541   4.749   6.061   0.246 -1.2422  1.4194 -0.6291
 7193TIP3   OH221542   0.030   5.957   5.883  0.0367 -0.2547 -0.1818
 7193TIP3    H121543   0.118   5.918   5.887 -0.4585 -1.3481  0.1610
 7193TIP3    H221544  -0.017   5.903   5.820 -0.2763  0.6029 -0.7051
 7194TIP3   OH221545   2.718   2.831   1.515  0.1421 -0.2769 -0.2530
 7194TIP3    H121546   2.625   2.851   1.530  0.2876  0.1178  0.1263
 7194TIP3    H221547   2.734   2.862   1.426  0.1694  0.6236  0.0537
 7195TIP3   OH221548   2.872   0.414   5.652  0.0118  0.0287  1.0923
 7195TIP3    H121549   2.789   0.444   5.614 -0.3495 -0.0965  1.7694
 7195TIP3    H221550   2.913   0.493   5.687 -0.1323 -0.0077  1.3440
 7196TIP3   OH221551   0.540   3.518   2.682 -0.7873  0.4727 -0.3072
 7196TIP3    H121552   0.565   3.427   2.665  2.2292  1.5449 -2.4592
 7196TIP3    H221553   0.570   3.535   2.772  1.2071  0.0205 -0.8306
 7197TIP3   OH221554   1.033   4.595   1.334  0.2253 -0.0043 -0.5488
 7197TIP3    H121555   1.087   4.536   1.281  1.9202 -0.1316  1.2355
 7197TIP3    H221556   0.948   4.595   1.290  1.2349 -0.9323 -2.6322
 7198TIP3   OH221557   0.629   5.250   4.039 -0.2168 -0.3382  0.0112
 7198TIP3    H121558   0.581   5.296   4.108  1.0597 -1.2456  1.5745
 7198TIP3    H221559   0.710   5.221   4.082 -0.3116 -2.7319 -1.3104
 7199TIP3   OH221560   4.224   0.121   2.311  0.0532  0.0218  0.1624
 7199TIP3    H121561   4.304   0.081   2.276  1.1466  1.9282  0.3329
 7199TIP3    H221562   4.219   0.088   2.401 -0.6551 -1.8627 -0.5005
 7200TIP3   OH221563   2.766   5.931   5.263  0.0016  0.2022  0.3225
 7200TIP3    H121564   2.681   5.968   5.239 -0.7983 -0.5490  1.9260
 7200TIP3    H221565   2.806   5.909   5.179 -2.2406 -1.3203 -0.4544
 7201TIP3   OH221566   2.278   1.528   5.552  0.7856 -0.0521 -0.1208
 7201TIP3    H121567   2.188   1.521   5.585  0.0935  0.2795 -1.8218
 7201TIP3    H221568   2.332   1.531   5.631 -0.4895 -2.3904  0.9697
 7202TIP3   OH221569   6.423   4.551   5.020 -0.0235  0.3901  0.4823
 7202TIP3    H121570   6.356   4.493   5.055  0.8141 -1.4307 -0.7593
 7202TIP3    H221571   6.396   4.568   4.930  1.3216 -0.7016 -0.1663
 7203TIP3   OH221572   3.770   6.525   1.402 -0.1753 -0.8986  0.1807
 7203TIP3    H121573   3.812   6.511   1.317  3.0913  1.0759  1.2891
 7203TIP3    H221574   3.807   6.457   1.459 -1.1209 -1.2115  0.4483
 7204TIP3   OH221575   4.076   0.205   1.421  0.9892 -0.0616 -0.4093
 7204TIP3    H121576   4.097   0.128   1.369  1.4500  0.7806 -1.5339
 7204TIP3    H221577   4.156   0.221   1.473  0.7957 -0.4863  0.0228
 7205TIP3   OH221578   4.496   3.358   5.250  0.6428  0.6500 -0.1552
 7205TIP3    H121579   4.411   3.401   5.248 -0.3679 -1.2450 -0.9359
 7205TIP3    H221580   4.559   3.428   5.267 -1.1063  2.0195  0.9817
 7206TIP3   OH221581   6.304   2.730   5.857  0.2176 -0.8107  0.4928
 7206TIP3    H121582   6.248   2.773   5.792  0.8646  1.1826  1.1834
 7206TIP3    H221583   6.255   2.651   5.882 -1.1731 -0.3411 -0.6200
 7207TIP3   OH221584   4.935   6.560   0.706  0.2025 -0.0152 -0.2911
 7207TIP3    H121585   4.921   6.650   0.676 -0.7159  0.1247  0.5316
 7207TIP3    H221586   4.849   6.519   0.699  0.4497 -0.6044  0.0855
 7208TIP3   OH221587   5.510   5.990   5.631  0.1879  0.2521  0.7301
 7208TIP3    H121588   5.481   5.901   5.648 -0.5279 -0.0507 -1.7097
 7208TIP3    H221589   5.436   6.045   5.657 -1.0036 -0.2131 -1.4615
 7209TIP3   OH221590   1.229   5.398   2.600 -0.7965 -0.4385  0.2067
 7209TIP3    H121591   1.139   5.370   2.618 -0.8343  0.2971  1.2282
 7209TIP3    H221592   1.250   5.459   2.671 -0.0010  0.5281 -0.8342
 7210TIP3   OH221593   3.179   4.604   0.840  0.0098 -0.2323  0.3843
 7210TIP3    H121594   3.113   4.566   0.782  0.2875 -0.6397  0.3281
 7210TIP3    H221595   3.129   4.659   0.900 -0.4067 -0.6876  0.4684
 7211TIP3   OH221596   2.968   1.145   1.184 -0.1631 -0.3759 -0.2162
 7211TIP3    H121597   3.013   1.133   1.268  0.5464 -3.0695 -0.8967
 7211TIP3    H221598   2.895   1.084   1.186 -0.2950 -0.2914 -1.4453
 7212TIP3   OH221599   0.788   6.586   3.428  0.8165  0.1719 -0.0709
 7212TIP3    H121600   0.798   6.652   3.496 -0.2598  0.8600 -0.5697
 7212TIP3    H221601   0.778   6.635   3.346  0.9581 -0.6216 -0.5847
 7213TIP3   OH221602   5.270   0.961   4.347  0.2721  0.2818 -0.3083
 7213TIP3    H121603   5.238   0.939   4.434 -0.8557 -0.2656 -0.8426
 7213TIP3    H221604   5.305   1.050   4.356 -1.8400  1.1008  0.2256
 7214TIP3   OH221605   4.717   1.248   3.560 -0.0993 -0.2246 -0.2126
 7214TIP3    H121606   4.794   1.291   3.596 -0.1639  0.1816 -0.5429
 7214TIP3    H221607   4.722   1.264   3.466 -1.5314  1.4202 -0.0698
 7215TIP3   OH221608   2.677   4.433   3.785 -0.5768 -0.4216  0.8674
 7215TIP3    H121609   2.674   4.490   3.708 -2.3369 -3.8627 -1.9405
 7215TIP3    H221610   2.609   4.468   3.843  0.6337  2.1313  0.8702
 7216TIP3   OH221611   2.117   2.944   1.902  0.1389  0.2705 -0.4065
 7216TIP3    H121612   2.056   2.935   1.976  0.7351 -0.6092 -0.0037
 7216TIP3    H221613   2.141   2.854   1.880  2.3047  0.6009  0.3096
 7217TIP3   OH221614   6.292   4.720   2.466  0.1905  0.3366 -0.1252
 7217TIP3    H121615   6.207   4.721   2.509  1.0271 -0.0047  1.6032
 7217TIP3    H221616   6.351   4.764   2.527  2.1384 -3.0500  0.7187
 7218TIP3   OH221617   2.893   1.807   4.658 -0.5708 -0.4952  0.3694
 7218TIP3    H121618   2.823   1.774   4.600 -1.7074  2.3928 -0.0966
 7218TIP3    H221619   2.855   1.803   4.745 -1.5582  1.4207  0.0756
 7219TIP3   OH221620   4.118   3.331   4.269  0.5322 -0.4000 -0.3888
 7219TIP3    H121621   4.062   3.404   4.295  0.0898 -1.0030  0.4003
 7219TIP3    H221622   4.138   3.285   4.351 -1.0936 -2.4921 -1.0439
 7220TIP3   OH221623   4.616   5.702   1.336  0.1880  0.1934 -0.4828
 7220TIP3    H121624   4.646   5.689   1.426  1.6111  1.5966 -0.7201
 7220TIP3    H221625   4.556   5.777   1.342  1.2532  1.0953 -0.8650
 7221TIP3   OH221626   0.661   4.014   1.956  0.6152  0.5994 -0.5486
 7221TIP3    H121627   0.669   3.933   2.007  0.9041  1.8319  1.4651
 7221TIP3    H221628   0.568   4.035   1.959  0.8079  1.3371  0.5851
 7222TIP3   OH221629   2.235   4.047   5.300 -1.0120 -0.3618 -0.0030
 7222TIP3    H121630   2.320   4.055   5.343 -1.0637  1.5108 -0.1586
 7222TIP3    H221631   2.255   4.049   5.207 -1.1987 -0.3020 -0.0417
 7223TIP3   OH221632   4.255   0.458   0.346  0.0957  0.3454 -0.4837
 7223TIP3    H121633   4.216   0.421   0.267  0.1184  0.4431 -0.5414
 7223TIP3    H221634   4.184   0.509   0.387  0.4866  1.5386 -1.2352
 7224TIP3   OH221635   5.430   3.601   5.117  0.2292 -0.2122 -0.1633
 7224TIP3    H121636   5.371   3.533   5.148 -1.2499  0.9613 -0.2607
 7224TIP3    H221637   5.372   3.672   5.090  1.5684  0.0794 -2.5555
 7225TIP3   OH221638   5.503   4.303   2.896  0.0076 -0.8065  0.3509
 7225TIP3    H121639   5.483   4.395   2.911 -1.5376 -1.1797  0.6973
 7225TIP3    H221640   5.481   4.288   2.804  0.1316 -0.8596  0.3293
 7226TIP3   OH221641   5.442   6.586   4.575  0.6698  0.3037 -0.4918
 7226TIP3    H121642   5.427   6.630   4.492  0.4954 -0.7412 -1.0295
 7226TIP3    H221643   5.388   6.633   4.638 -0.3602  0.1761 -1.2645
 7227TIP3   OH221644   0.096   3.273   2.447 -0.4560  0.0793 -0.1405
 7227TIP3    H121645   0.045   3.203   2.408 -0.6377 -0.6945  1.3841
 7227TIP3    H221646   0.158   3.228   2.505 -0.5244  1.1596  0.8107
 7228TIP3   OH221647   5.298   5.811   2.761 -0.4650  0.0407 -0.3133
 7228TIP3    H121648   5.222   5.857   2.797 -1.1448 -2.0347  1.0755
 7228TIP3    H221649   5.369   5.876   2.764 -1.8889  1.6928 -0.6589
 7229TIP3   OH221650   3.913   2.134   5.734  0.6040 -0.2055 -0.0818
 7229TIP3    H121651   3.998   2.146   5.693  0.3776  0.1161 -0.4550
 7229TIP3    H221652   3.849   2.157   5.666  0.2289  0.4209  0.4683
 7230TIP3   OH221653   0.496   5.022   5.865 -0.0264 -0.0002  0.2278
 7230TIP3    H121654   0.506   5.101   5.812  1.5221  0.3505  0.9635
 7230TIP3    H221655   0.543   5.042   5.946 -0.4542 -1.3235  0.8287
 7231TIP3   OH221656   3.589   3.208   4.424  0.2080 -0.4456 -0.1495
 7231TIP3    H121657   3.631   3.280   4.378  1.4171 -0.5856  0.6781
 7231TIP3    H221658   3.500   3.240   4.442 -0.4226 -0.4997 -2.7392
 7232TIP3   OH221659   6.592   2.210   0.362 -0.1552 -0.5671  0.3012
 7232TIP3    H121660   6.547   2.172   0.438  0.4616 -0.2882  0.8090
 7232TIP3    H221661   6.680   2.230   0.393 -0.7572  2.4025  0.4230
 7233TIP3   OH221662   0.637   4.056   0.074 -0.2062 -0.0629 -0.5605
 7233TIP3    H121663   0.596   4.079   0.158  2.1854  1.1364  0.3712
 7233TIP3    H221664   0.604   4.122   0.013 -2.2111 -1.1266 -0.7193
 7234TIP3   OH221665   6.695   4.565   0.435  0.0484 -0.0649  0.4006
 7234TIP3    H121666   6.657   4.636   0.487  0.8086  1.0047 -0.4597
 7234TIP3    H221667   6.673   4.587   0.345  0.0272 -1.1060  0.1402
 7235TIP3   OH221668   5.877   4.700   0.704  0.5478  0.1634 -0.6575
 7235TIP3    H121669   5.890   4.638   0.632 -0.8326 -0.4956 -0.3625
 7235TIP3    H221670   5.789   4.735   0.691 -1.1105 -2.3456  2.4075
 7236TIP3   OH221671   2.587   6.492   3.584 -0.5610 -0.5116  0.3896
 7236TIP3    H121672   2.545   6.527   3.506 -0.8067 -2.0864 -0.2126
 7236TIP3    H221673   2.669   6.541   3.591 -0.6517 -0.1779 -0.7151
 7237TIP3   OH221674   2.436   2.400   3.532  0.3667 -0.0093  0.0336
 7237TIP3    H121675   2.462   2.421   3.622  0.2586 -1.1840  0.3494
 7237TIP3    H221676   2.357   2.452   3.518  0.4268  0.2420  0.5914
 7238TIP3   OH221677   0.488   6.386   4.703  0.4229  0.3874  0.0787
 7238TIP3    H121678   0.541   6.321   4.749 -0.5255 -0.9591 -0.6584
 7238TIP3    H221679   0.551   6.439   4.654  1.1878 -0.2249  0.3839
 7239TIP3   OH221680   4.898   0.444   2.909 -0.5501 -0.0002  0.3354
 7239TIP3    H121681   4.874   0.411   2.995 -0.3948 -1.2461 -0.0877
 7239TIP3    H221682   4.815   0.473   2.871 -0.6613  0.2729  0.7781
 7240TIP3   OH221683   0.567   2.087   5.232  0.3436  0.6134  0.0824
 7240TIP3    H121684   0.593   2.148   5.301  2.6390  0.6964 -0.7762
 7240TIP3    H221685   0.474   2.106   5.217  0.3707  2.1435  1.5501
 7241TIP3   OH221686   2.323   6.610   0.836  0.3234 -0.2081  0.3709
 7241TIP3    H121687   2.245   6.574   0.879 -0.4036 -1.2941 -1.7259
 7241TIP3    H221688   2.339   6.693   0.881 -0.5072 -1.1507  2.5311
 7242TIP3   OH221689   2.315   3.972   5.808 -0.3309  0.0054 -0.1415
 7242TIP3    H121690   2.308   4.058   5.766  1.0454  1.5118  2.4885
 7242TIP3    H221691   2.227   3.954   5.841 -0.5324  0.6037 -0.3419
 7243TIP3   OH221692   4.067   2.732   5.110  0.3090  0.0133  0.5755
 7243TIP3    H121693   4.066   2.694   5.198 -0.8034  0.8385  0.9494
 7243TIP3    H221694   3.992   2.791   5.110  1.0740  1.0032 -0.5064
 7244TIP3   OH221695   2.916   0.078   2.917 -0.6950  0.1817 -0.3305
 7244TIP3    H121696   2.919  -0.017   2.902 -0.4862  0.2721 -0.8958
 7244TIP3    H221697   2.874   0.113   2.838 -1.4417  0.4964  0.2003
 7245TIP3   OH221698   3.623   3.579   0.734 -0.4769  0.3048 -0.2822
 7245TIP3    H121699   3.709   3.620   0.728 -0.8031  1.0455 -0.0420
 7245TIP3    H221700   3.573   3.620   0.663 -0.4506 -0.5768 -0.8190
 7246TIP3   OH221701   6.814   3.876   3.432 -0.0791  0.7502 -0.3029
 7246TIP3    H121702   6.899   3.897   3.393 -1.0222  0.3888 -2.7394
 7246TIP3    H221703   6.799   3.785   3.407  0.0508 -0.1685  2.5981
 7247TIP3   OH221704   5.465   3.843   2.135 -0.0683 -0.0397  0.1428
 7247TIP3    H121705   5.472   3.878   2.224 -1.5187  0.2193  0.1803
 7247TIP3    H221706   5.556   3.840   2.103  0.3369  1.2988  1.0706
 7248TIP3   OH221707   2.971   5.774   4.479 -0.0189  0.1139 -0.0866
 7248TIP3    H121708   3.032   5.700   4.484  1.1679  0.8463 -2.2474
 7248TIP3    H221709   2.916   5.754   4.403 -1.4062  0.2619  0.8465
 7249TIP3   OH221710   5.838   0.780   4.006  0.6375  0.4628 -0.1436
 7249TIP3    H121711   5.901   0.752   4.072 -0.1541 -1.3320 -0.0983
 7249TIP3    H221712   5.773   0.831   4.055  0.4620 -0.2209  0.3532
 7250TIP3   OH221713   2.470   3.353   2.754  0.1218  0.2811  0.0278
 7250TIP3    H121714   2.465   3.269   2.800 -2.1981  0.9700  1.1966
 7250TIP3    H221715   2.499   3.416   2.820 -1.9223  1.0409  0.2795
 7251TIP3   OH221716   1.448   3.656   2.850 -0.8809 -0.8488  0.1526
 7251TIP3    H121717   1.484   3.681   2.766  2.8703 -0.0896  1.7701
 7251TIP3    H221718   1.359   3.690   2.850  0.1395  2.2192 -2.1875
 7252TIP3   OH221719   4.343   5.295   0.133  0.3779  0.3426 -0.0666
 7252TIP3    H121720   4.396   5.318   0.057  1.4000  0.5393  0.6807
 7252TIP3    H221721   4.300   5.377   0.158  0.5362  0.4185 -0.0446
 7253TIP3   OH221722   0.480   3.039   4.091  0.4975  0.3945 -0.0321
 7253TIP3    H121723   0.500   3.096   4.018 -1.1349  2.7548  1.2166
 7253TIP3    H221724   0.496   2.951   4.059  1.3476  1.4376 -2.6729
 7254TIP3   OH221725   2.133   1.150   4.835  0.4277  0.3517 -0.0409
 7254TIP3    H121726   2.136   1.071   4.781 -2.1886 -0.6342  1.0581
 7254TIP3    H221727   2.138   1.222   4.773  1.2904 -0.6812 -1.2201
 7255TIP3   OH221728   4.297   6.731   0.649 -0.5231 -0.0649 -0.2747
 7255TIP3    H121729   4.351   6.663   0.690 -0.4201 -1.2268 -2.1618
 7255TIP3    H221730   4.226   6.746   0.710  0.5894 -0.3271  1.1407
 7256TIP3   OH221731   6.149   4.783   0.156 -0.4218  0.8727  0.0943
 7256TIP3    H121732   6.183   4.769   0.244 -1.0016  0.8588  0.3178
 7256TIP3    H221733   6.171   4.874   0.136 -0.0427  0.7935  0.1427
 7257TIP3   OH221734   0.520   0.389   3.180  0.4314 -0.1272 -0.7795
 7257TIP3    H121735   0.577   0.332   3.232  1.4284  1.8306  0.3791
 7257TIP3    H221736   0.447   0.332   3.154  1.4106 -1.9393  0.2030
 7258TIP3   OH221737   3.307   2.807   2.429 -0.0239 -0.0751 -0.3782
 7258TIP3    H121738   3.235   2.844   2.377  0.5471 -0.7941 -1.7455
 7258TIP3    H221739   3.352   2.748   2.368  1.2252 -0.2682  0.6922
 7259TIP3   OH221740   0.229   4.661   1.029 -0.3906  0.0467  0.0372
 7259TIP3    H121741   0.221   4.642   0.935  0.1638  0.9823 -0.2144
 7259TIP3    H221742   0.139   4.678   1.057 -0.5655 -0.2709 -0.3161
 7260TIP3   OH221743   3.884   1.247   4.250  0.0998  0.5104  0.1361
 7260TIP3    H121744   3.811   1.186   4.237 -0.0393  1.0392 -1.7170
 7260TIP3    H221745   3.953   1.192   4.288 -1.0768 -0.0901  1.5280
 7261TIP3   OH221746   0.089   0.398   0.046  0.1516  0.4717 -0.3536
 7261TIP3    H121747   0.003   0.438   0.035 -0.0554 -0.2651 -1.6819
 7261TIP3    H221748   0.149   0.458   0.001  0.0686  0.1271 -0.9401
 7262TIP3   OH221749   6.161   5.719   0.650  0.6394  0.3482 -0.6431
 7262TIP3    H121750   6.139   5.803   0.688  0.6617  0.8351 -1.6566
 7262TIP3    H221751   6.214   5.741   0.573  1.2821 -0.6268 -0.4944
 7263TIP3   OH221752   1.098   3.363   1.516 -0.8831  0.2582  0.3162
 7263TIP3    H121753   1.012   3.393   1.488 -0.8390  1.5461  1.4529
 7263TIP3    H221754   1.094   3.267   1.508 -2.0271  0.3628 -0.6790
 7264TIP3   OH221755   0.552   0.759   3.027  0.0219 -0.1362  0.5047
 7264TIP3    H121756   0.546   0.847   2.991 -0.3947 -0.0460  0.7805
 7264TIP3    H221757   0.473   0.751   3.082 -0.7770 -1.2351 -0.7411
 7265TIP3   OH221758   1.326   1.288   2.607 -1.3869  0.3214  0.0172
 7265TIP3    H121759   1.279   1.267   2.688 -0.6994  2.0560  0.9214
 7265TIP3    H221760   1.414   1.314   2.636 -0.4405 -1.0169 -1.4788
 7266TIP3   OH221761   6.476   6.554   2.192 -0.1762  0.4345 -0.0805
 7266TIP3    H121762   6.541   6.503   2.144  0.3717  0.7488  0.3258
 7266TIP3    H221763   6.423   6.488   2.237  0.1934  0.2015  0.0147
 7267TIP3   OH221764   6.961   1.269   5.735  0.1894  0.6450  0.1232
 7267TIP3    H121765   6.901   1.306   5.670 -0.3226  1.1387  0.8529
 7267TIP3    H221766   7.022   1.216   5.684 -1.2273 -0.3728 -0.6144
 7268TIP3   OH221767   1.537   1.768   4.062  0.3961 -0.2281 -0.0358
 7268TIP3    H121768   1.622   1.768   4.019 -0.0278 -0.0374 -0.8889
 7268TIP3    H221769   1.476   1.737   3.995 -0.7105  2.5688 -0.4528
 7269TIP3   OH221770   3.837   5.146   1.399 -0.2936 -0.1352 -0.5886
 7269TIP3    H121771   3.796   5.079   1.345 -1.5610  2.0697 -2.5544
 7269TIP3    H221772   3.869   5.212   1.337 -1.9595  2.6207  1.2283
 7270TIP3   OH221773   5.360   5.199   4.782 -0.2087  0.4821 -0.3204
 7270TIP3    H121774   5.349   5.106   4.802  0.0385  0.5459  0.1211
 7270TIP3    H221775   5.281   5.240   4.819  0.2098  0.5894  0.4736
 7271TIP3   OH221776   7.130   5.599   2.871  0.2495 -0.8176 -0.0975
 7271TIP3    H121777   7.163   5.679   2.911 -1.8525  0.2579 -0.3745
 7271TIP3    H221778   7.051   5.579   2.920 -1.2256 -0.6715 -2.2683
 7272TIP3   OH221779   1.411   5.010   2.358 -0.0899 -0.6671  1.1029
 7272TIP3    H121780   1.340   4.995   2.296  1.5664 -0.7045 -0.9000
 7272TIP3    H221781   1.405   4.936   2.419 -0.9638 -1.4151  0.1557
 7273TIP3   OH221782   3.079   4.876   3.182  0.3054  0.0850 -0.2068
 7273TIP3    H121783   3.016   4.853   3.114  0.5679 -0.7461 -0.1917
 7273TIP3    H221784   3.087   4.796   3.234  0.1887  0.6742  0.7398
 7274TIP3   OH221785   2.583   2.847   2.684 -0.2985 -0.2434  0.4094
 7274TIP3    H121786   2.672   2.813   2.679  0.0827  0.8961 -0.9161
 7274TIP3    H221787   2.534   2.793   2.622 -0.1913  0.1213  0.0044
 7275TIP3   OH221788   0.680   2.241   2.330  0.4589  0.4291 -0.0345
 7275TIP3    H121789   0.726   2.252   2.247  2.0559  0.4703  0.8338
 7275TIP3    H221790   0.745   2.203   2.389 -0.9468 -0.5843  0.9199
 7276TIP3   OH221791   4.114   2.943   0.588  0.1520 -0.5507 -0.0244
 7276TIP3    H121792   4.114   2.849   0.571  0.1966 -0.7464  1.0049
 7276TIP3    H221793   4.205   2.970   0.572  0.5592 -1.0205  1.3760
 7277TIP3   OH221794   1.314   2.968   1.512 -0.2028  0.1621 -0.7113
 7277TIP3    H121795   1.328   3.062   1.525 -0.2456  0.2140 -1.0196
 7277TIP3    H221796   1.241   2.964   1.450 -0.1962 -0.0752 -0.7025
 7278TIP3   OH221797   2.588   0.192   2.426  0.5754  0.1832 -0.4357
 7278TIP3    H121798   2.614   0.104   2.398  0.5045  0.1236 -0.3140
 7278TIP3    H221799   2.494   0.195   2.409 -0.2287 -1.1138  3.0479
 7279TIP3   OH221800   1.872   3.318   0.456 -0.2744  0.1729 -0.3767
 7279TIP3    H121801   1.812   3.334   0.383 -1.1100 -1.5108 -0.1170
 7279TIP3    H221802   1.814   3.301   0.531  0.5124 -1.5525 -0.1275
 7280TIP3   OH221803   4.086   5.182   0.557  0.3546  0.2613  0.0364
 7280TIP3    H121804   4.129   5.167   0.473  0.4207  1.1136 -0.0918
 7280TIP3    H221805   4.103   5.103   0.608 -0.0255 -0.4360 -0.8887
 7281TIP3   OH221806   0.306   0.836   4.073  0.3894  0.3869  0.3776
 7281TIP3    H121807   0.312   0.932   4.076  1.4240  0.3641 -0.3514
 7281TIP3    H221808   0.384   0.809   4.024  0.1573 -0.8381  0.6562
 7282TIP3   OH221809   3.718   0.181   5.871 -0.3765 -0.4155 -0.2307
 7282TIP3    H121810   3.712   0.238   5.794  1.9571 -1.9947 -1.7173
 7282TIP3    H221811   3.796   0.210   5.917 -1.0627 -0.2924  0.8991
 7283TIP3   OH221812   6.670   5.961   1.596 -0.5182  0.2485  0.1448
 7283TIP3    H121813   6.676   5.911   1.677  1.4407  0.0780 -0.0694
 7283TIP3    H221814   6.617   5.906   1.538  0.2409 -0.8495  0.4650
 7284TIP3   OH221815   4.449   5.720   1.029 -0.4469 -0.4197 -0.2542
 7284TIP3    H121816   4.392   5.796   1.040  0.0348  0.0299 -0.7938
 7284TIP3    H221817   4.417   5.656   1.093 -0.3508  0.5369  0.7860
 7285TIP3   OH221818   4.528   6.651   4.169  0.2372  0.4149  0.2365
 7285TIP3    H121819   4.531   6.624   4.077 -1.3904  1.1885 -0.0651
 7285TIP3    H221820   4.453   6.709   4.175  0.3312  0.3976  2.0676
 7286TIP3   OH221821   1.098   3.398   2.473  0.0893  0.5696  0.2933
 7286TIP3    H121822   1.130   3.471   2.526  1.4977 -0.6476  1.1822
 7286TIP3    H221823   1.155   3.396   2.396 -0.2662  0.7061  0.0231
 7287TIP3   OH221824   0.516   5.662   5.040 -0.4152  0.0395 -0.4379
 7287TIP3    H121825   0.561   5.580   5.063  0.4942  0.9380  1.1416
 7287TIP3    H221826   0.584   5.728   5.042 -1.7433  1.4897  2.2635
 7288TIP3   OH221827   1.144   3.161   5.635  0.2569  0.4721  0.0851
 7288TIP3    H121828   1.213   3.094   5.635  0.6800  0.8621 -1.8278
 7288TIP3    H221829   1.180   3.233   5.583 -1.0588  1.2788  0.2444
 7289TIP3   OH221830   3.408   5.383   0.631  0.1828 -0.2738  0.1688
 7289TIP3    H121831   3.355   5.308   0.605 -0.4540 -0.1484  1.0302
 7289TIP3    H221832   3.476   5.346   0.687  1.6608 -0.5671 -1.7295
 7290TIP3   OH221833   1.991   0.402   3.682  0.4504 -0.4904 -0.2355
 7290TIP3    H121834   2.040   0.428   3.604  0.2777  0.6884  0.0269
 7290TIP3    H221835   1.951   0.483   3.713 -2.2166 -1.4745 -0.8199
 7291TIP3   OH221836   2.992   5.317   1.972 -0.5197  0.3424  0.1605
 7291TIP3    H121837   2.992   5.297   2.066 -2.5873  2.8139  0.8036
 7291TIP3    H221838   3.027   5.406   1.966  0.0111  0.0589 -1.4871
 7292TIP3   OH221839   5.818   5.407   4.594  0.1735  0.1243  0.0781
 7292TIP3    H121840   5.801   5.354   4.515 -0.8631 -0.2877  0.5538
 7292TIP3    H221841   5.911   5.396   4.610  0.1360 -0.9328 -0.2921
 7293TIP3   OH221842   5.771   4.905   1.806  0.4766  0.3303  0.0138
 7293TIP3    H121843   5.710   4.896   1.733  0.1449  0.1219  0.3093
 7293TIP3    H221844   5.716   4.898   1.884  0.7391  1.1624  0.2865
 7294TIP3   OH221845   4.017   3.358   3.246 -0.1259 -0.1698  0.1676
 7294TIP3    H121846   4.032   3.277   3.198  0.0438  1.7099 -3.2433
 7294TIP3    H221847   3.937   3.394   3.208  0.4597  1.8416  0.7186
 7295TIP3   OH221848   4.908   5.388   2.769 -0.0501 -0.4333  0.2646
 7295TIP3    H121849   4.856   5.468   2.776 -0.1885 -0.4901 -0.1405
 7295TIP3    H221850   4.955   5.384   2.853  1.1585  0.9018 -0.2978
 7296TIP3   OH221851   0.528   1.602   0.235  0.3086  0.6363 -0.3345
 7296TIP3    H121852   0.459   1.584   0.299  0.3451  0.5105 -0.3309
 7296TIP3    H221853   0.609   1.582   0.281  0.4518  2.2683  0.1905
 7297TIP3   OH221854   2.872   5.777   5.654  0.0176  0.2701  0.3913
 7297TIP3    H121855   2.845   5.849   5.597 -0.9482 -0.6421 -0.3400
 7297TIP3    H221856   2.901   5.708   5.594 -0.7565 -0.6060  0.9959
 7298TIP3   OH221857   6.880   5.206   5.127  0.3286 -0.1989 -0.5353
 7298TIP3    H121858   6.931   5.175   5.202 -1.1738 -0.2717  0.5232
 7298TIP3    H221859   6.941   5.259   5.076  1.5321 -0.5465  0.4897
 7299TIP3   OH221860   5.950   3.856   4.294 -0.9639  0.1935  0.2181
 7299TIP3    H121861   5.883   3.869   4.361 -1.0164 -0.8323  0.3674
 7299TIP3    H221862   6.025   3.820   4.340 -0.5672  0.6315 -0.0760
 7300TIP3   OH221863   6.069   5.005   2.914  0.1521 -0.1715 -0.9380
 7300TIP3    H121864   5.987   4.965   2.886 -0.6930  1.0676 -0.3301
 7300TIP3    H221865   6.045   5.095   2.938  1.3186 -0.3521  1.1219
 7301TIP3   OH221866   3.079   0.481   4.052 -0.2503 -0.2521  0.6069
 7301TIP3    H121867   3.019   0.543   4.010 -0.5864 -0.2037  1.1534
 7301TIP3    H221868   3.134   0.535   4.109  0.0867 -0.3408  0.3714
 7302TIP3   OH221869   4.583   2.093   4.742 -0.3451  0.0575 -0.2905
 7302TIP3    H121870   4.647   2.120   4.807 -0.7837 -0.7545  0.4960
 7302TIP3    H221871   4.578   2.167   4.681  1.6448 -0.0366 -0.6256
 7303TIP3   OH221872   5.171   2.340   2.676  0.1936  0.2899  0.4483
 7303TIP3    H121873   5.231   2.324   2.750  1.3903  0.1259 -0.5228
 7303TIP3    H221874   5.228   2.372   2.606 -0.9001  0.3250 -0.4474
 7304TIP3   OH221875   4.559   2.466   2.240  0.6632  0.1081 -0.6093
 7304TIP3    H121876   4.571   2.484   2.333  1.0593 -0.0009 -0.6420
 7304TIP3    H221877   4.526   2.377   2.236 -1.4191  0.7979 -0.4376
 7305TIP3   OH221878   0.476   0.168   1.680  0.8086  0.0203  0.5225
 7305TIP3    H121879   0.440   0.109   1.613  1.2067  0.4680 -0.0969
 7305TIP3    H221880   0.398   0.206   1.721  0.5557  0.3688 -0.2541
 7306TIP3   OH221881   4.834   1.450   0.856 -0.5869  0.0999 -0.3890
 7306TIP3    H121882   4.889   1.480   0.928  0.7320  0.0951 -1.3622
 7306TIP3    H221883   4.747   1.441   0.894 -0.4639  2.4770  0.6190
 7307TIP3   OH221884   2.051   3.101   0.472  0.4844 -0.0792 -0.0731
 7307TIP3    H121885   2.075   3.049   0.396 -2.4348  1.4441 -2.2711
 7307TIP3    H221886   1.996   3.171   0.436 -2.6389 -0.3102  3.6011
 7308TIP3   OH221887   0.830   1.874   4.834  0.1194  0.0778 -0.2410
 7308TIP3    H121888   0.771   1.805   4.802  0.1312  0.4775 -1.1659
 7308TIP3    H221889   0.869   1.911   4.754 -0.5147  1.7130  0.1624
 7309TIP3   OH221890   3.191   3.044   3.058 -0.4460 -0.4531 -0.0772
 7309TIP3    H121891   3.269   3.098   3.068  0.8800 -1.8004 -2.1762
 7309TIP3    H221892   3.226   2.955   3.049 -2.3416 -1.2798  0.3672
 7310TIP3   OH221893   0.552   2.584   4.412  0.2226  0.4254  0.4215
 7310TIP3    H121894   0.622   2.571   4.477  1.2571 -0.0179 -0.7461
 7310TIP3    H221895   0.598   2.601   4.330 -1.0618  0.8094 -0.2450
 7311TIP3   OH221896   2.128   1.084   2.588  0.7084 -0.0084  0.1743
 7311TIP3    H121897   2.086   1.039   2.661  0.9441  1.1998  1.0922
 7311TIP3    H221898   2.121   1.023   2.515 -2.7586  0.1599  0.2115
 7312TIP3   OH221899   0.607   3.684   4.886 -0.0957  0.0057  0.1903
 7312TIP3    H121900   0.562   3.641   4.959  1.6187 -0.1222  1.2439
 7312TIP3    H221901   0.572   3.642   4.808 -3.0385  1.1481  0.7860
 7313TIP3   OH221902   4.777   6.571   3.548 -0.1934  0.1541 -0.1765
 7313TIP3    H121903   4.856   6.585   3.495 -1.5442 -1.7298 -2.9730
 7313TIP3    H221904   4.711   6.626   3.507 -0.9802 -0.3203  0.4352
 7314TIP3   OH221905   3.467   5.173   5.564 -0.7423  0.4292 -0.5161
 7314TIP3    H121906   3.376   5.200   5.577 -0.8131  0.3081 -0.7707
 7314TIP3    H221907   3.465   5.078   5.566 -0.9810  0.3352 -2.8599
 7315TIP3   OH221908   3.298   5.661   3.438 -0.6895 -0.5397 -0.6055
 7315TIP3    H121909   3.291   5.607   3.517 -1.5196 -0.5567 -0.6849
 7315TIP3    H221910   3.388   5.693   3.439 -0.3615 -1.4571 -0.2496
 7316TIP3   OH221911   1.174   0.270   3.864  0.2707  0.0558  0.0517
 7316TIP3    H121912   1.167   0.181   3.899 -1.0198  0.3134  0.5200
 7316TIP3    H221913   1.116   0.270   3.788  3.3569 -0.6163 -2.4916
 7317TIP3   OH221914   4.598   6.470   1.648  0.2320 -0.1438  0.2806
 7317TIP3    H121915   4.595   6.453   1.743  0.9701  0.7702  0.4851
 7317TIP3    H221916   4.555   6.555   1.638 -1.2596 -0.9348 -0.4217
 7318TIP3   OH221917   0.020   4.168   5.205 -0.1922  0.0299 -0.6642
 7318TIP3    H121918   0.021   4.152   5.299 -0.6093  3.4025  0.0519
 7318TIP3    H221919  -0.037   4.099   5.169 -0.5166 -0.9657  1.6165
 7319TIP3   OH221920   2.370   6.365   2.119  0.1905 -0.0423 -0.2277
 7319TIP3    H121921   2.399   6.454   2.136 -0.4164  0.1211 -0.0261
 7319TIP3    H221922   2.334   6.334   2.202  2.4761 -1.3187  0.3751
 7320TIP3   OH221923   4.826   3.281   2.513  0.3682 -0.4507  0.0202
 7320TIP3    H121924   4.823   3.376   2.528  0.2465 -0.4654  0.0835
 7320TIP3    H221925   4.788   3.243   2.592  1.1662 -0.5847  0.3503
 7321TIP3   OH221926   6.906   3.787   5.325  0.0244  0.0544  0.0075
 7321TIP3    H121927   6.973   3.799   5.392 -0.6803 -0.1055  0.7481
 7321TIP3    H221928   6.832   3.839   5.355 -0.7012 -0.9045 -0.0716
 7322TIP3   OH221929   1.605   4.505   1.958  0.2372 -0.4923 -0.4204
 7322TIP3    H121930   1.518   4.465   1.952 -0.3588  0.7029 -0.1730
 7322TIP3    H221931   1.609   4.541   2.047  1.0126 -0.6009 -0.4044
 7323TIP3   OH221932   7.028   1.719   4.877  0.1097 -0.7186  0.5789
 7323TIP3    H121933   7.023   1.684   4.966  0.2242 -1.8691  0.1483
 7323TIP3    H221934   6.939   1.711   4.843 -0.1995  0.7927  0.9624
 7324TIP3   OH221935   6.392   4.534   4.360  0.0582 -0.0558  0.2404
 7324TIP3    H121936   6.433   4.619   4.343 -1.3474  0.1360 -2.7423
 7324TIP3    H221937   6.311   4.557   4.407 -0.1028  0.2483 -0.1722
 7325TIP3   OH221938   3.862   5.910   2.941  0.2797  0.8124 -0.5078
 7325TIP3    H121939   3.778   5.951   2.921  1.0986  2.0991 -1.4513
 7325TIP3    H221940   3.876   5.846   2.872  1.1621  2.3203 -1.8038
 7326TIP3   OH221941   4.733   2.008   0.579  0.0150 -0.0913  0.4000
 7326TIP3    H121942   4.745   1.914   0.565  1.2747 -0.5384  3.5486
 7326TIP3    H221943   4.754   2.021   0.672  0.8549  3.4639 -0.1386
 7327TIP3   OH221944   6.152   1.643   1.176  0.0780  0.0706 -0.0388
 7327TIP3    H121945   6.166   1.640   1.081 -1.0370  0.2730 -0.2193
 7327TIP3    H221946   6.139   1.552   1.201 -0.5233  0.1065 -0.2220
 7328TIP3   OH221947   1.644   0.763   0.727  0.8250  0.1831 -0.2706
 7328TIP3    H121948   1.688   0.680   0.711  0.5094 -0.1291  0.4294
 7328TIP3    H221949   1.555   0.751   0.694  1.5213  1.1910 -2.7262
 7329TIP3   OH221950   3.818   3.535   3.574 -0.3746 -0.5196 -0.4709
 7329TIP3    H121951   3.901   3.531   3.525 -1.7435 -0.1273 -2.9709
 7329TIP3    H221952   3.780   3.448   3.565 -1.3046 -0.0343 -1.3562
 7330TIP3   OH221953   3.109   4.288   1.562 -0.3393  0.3163  0.2551
 7330TIP3    H121954   3.155   4.346   1.502  0.8042  0.3917  1.1760
 7330TIP3    H221955   3.027   4.332   1.581 -1.0615 -0.0526 -1.8078
 7331TIP3   OH221956   2.639   3.510   5.351  0.0515  0.0495  0.3726
 7331TIP3    H121957   2.695   3.460   5.291 -0.8155 -0.1990 -0.2435
 7331TIP3    H221958   2.587   3.444   5.396 -0.3818  0.3398  0.3001
 7332TIP3   OH221959   1.466   1.541   3.624 -0.2028  0.3872 -0.0339
 7332TIP3    H121960   1.561   1.538   3.625 -0.1482 -1.4231 -1.9397
 7332TIP3    H221961   1.441   1.466   3.570 -2.6975  1.1255 -0.0237
 7333TIP3   OH221962   0.332   5.367   1.429  0.0157  0.0257 -0.5048
 7333TIP3    H121963   0.358   5.425   1.500 -1.3349 -0.7502  0.6662
 7333TIP3    H221964   0.395   5.386   1.359  0.1901  2.2049  0.1603
 7334TIP3   OH221965   2.973   0.582   4.470  0.1268 -0.1531  0.2338
 7334TIP3    H121966   3.017   0.573   4.554  1.1738 -2.7654 -0.4938
 7334TIP3    H221967   2.898   0.640   4.488 -0.7040 -1.9650  3.3980
 7335TIP3   OH221968   2.340   0.107   1.540 -0.0696 -0.0279  0.0965
 7335TIP3    H121969   2.376   0.044   1.478  0.9457 -0.2842  0.9248
 7335TIP3    H221970   2.407   0.116   1.608 -0.8585  0.7670  0.8058
 7336TIP3   OH221971   4.653   0.796   4.874  0.1974  0.4110  0.3518
 7336TIP3    H121972   4.583   0.806   4.810  0.9184 -0.9395 -0.7199
 7336TIP3    H221973   4.730   0.771   4.821  1.0386  0.1381  1.6565
 7337TIP3   OH221974   5.449   6.018   4.648 -0.5861  0.1723  0.2367
 7337TIP3    H121975   5.464   6.094   4.705 -0.0730  0.5434 -0.3780
 7337TIP3    H221976   5.423   5.948   4.708  0.8627  0.2872  1.0670
 7338TIP3   OH221977   2.460   4.098   0.858 -0.3532  0.5191 -0.1289
 7338TIP3    H121978   2.452   4.194   0.857  1.2728  0.6956  0.5157
 7338TIP3    H221979   2.471   4.076   0.950 -2.0981 -0.4637 -0.1231
 7339TIP3   OH221980   5.825   6.039   3.736  0.2369  0.3801  0.0170
 7339TIP3    H121981   5.843   5.960   3.687 -0.1906  0.4686 -0.2852
 7339TIP3    H221982   5.779   6.096   3.674 -0.9367  0.2243  0.7128
 7340TIP3   OH221983   4.136   1.851   2.009  0.1254  0.0964 -0.3228
 7340TIP3    H121984   4.182   1.926   2.046 -0.8079  0.8811 -0.6988
 7340TIP3    H221985   4.098   1.884   1.927 -1.7355 -0.2722  0.3486
 7341TIP3   OH221986   2.779   6.649   0.974  0.5060  0.5584  0.3880
 7341TIP3    H121987   2.776   6.715   0.904  0.1289  0.6055  0.4434
 7341TIP3    H221988   2.746   6.695   1.051 -2.3873 -0.3747 -0.1510
 7342TIP3   OH221989   1.591   4.280   5.643 -0.0329  0.1792  0.2582
 7342TIP3    H121990   1.531   4.342   5.601  0.2582 -0.2823 -0.8777
 7342TIP3    H221991   1.539   4.239   5.712 -0.2400  1.6537  1.0221
 7343TIP3   OH221992   5.549   3.009   4.191  0.0673 -0.0581  0.0083
 7343TIP3    H121993   5.538   3.002   4.096  0.9670  2.4203 -0.3564
 7343TIP3    H221994   5.468   3.050   4.221  0.8042  1.5103 -0.0850
 7344TIP3   OH221995   3.841   1.439   1.241 -0.7639 -0.3048  0.1687
 7344TIP3    H121996   3.819   1.364   1.297 -2.1990 -0.8263 -1.0409
 7344TIP3    H221997   3.840   1.514   1.299  1.8711 -1.2952  1.6843
 7345TIP3   OH221998   2.292   0.508   3.214  0.6417  0.1286 -0.0887
 7345TIP3    H121999   2.217   0.549   3.172  1.9187  1.2511 -1.3954
 7345TIP3    H222000   2.314   0.434   3.158  0.2775 -0.4644  0.5290
 7346TIP3   OH222001   5.524   0.287   2.154  0.1294  0.2997 -0.0436
 7346TIP3    H122002   5.541   0.263   2.063 -1.3621 -2.7183  0.3567
 7346TIP3    H222003   5.572   0.223   2.206 -1.0290  0.4147  1.2314
 7347TIP3   OH222004   4.558   4.036   2.170  0.0155 -0.0710 -0.0682
 7347TIP3    H122005   4.510   3.954   2.165  0.2142 -0.1634 -0.4716
 7347TIP3    H222006   4.511   4.096   2.112  0.0815 -0.0042 -0.0537
 7348TIP3   OH222007   4.914   4.872   3.717  0.0589  0.2026  0.0886
 7348TIP3    H122008   4.950   4.908   3.799  1.3798  0.5301 -0.6075
 7348TIP3    H222009   4.862   4.797   3.745  1.2390 -0.2468  1.1783
 7349TIP3   OH222010   0.580   5.090   4.540  0.1515 -0.1569  0.1683
 7349TIP3    H122011   0.573   5.002   4.501 -0.0660 -0.6630  1.2969
 7349TIP3    H222012   0.490   5.121   4.546  0.0686 -0.5237  1.1784
 7350TIP3   OH222013   3.693   4.036   3.008 -0.1542 -0.1637 -0.4856
 7350TIP3    H122014   3.679   3.997   3.094 -0.2695  2.1224  0.5981
 7350TIP3    H222015   3.664   4.126   3.017  3.5528  1.3532 -1.7461
 7351TIP3   OH222016   6.628   0.962   1.173 -0.5242 -0.7360 -0.1442
 7351TIP3    H122017   6.543   0.960   1.215 -0.4292 -0.5144  0.0587
 7351TIP3    H222018   6.684   1.011   1.233 -1.2215  2.7146 -2.0490
 7352TIP3   OH222019   4.479   4.375   4.466  0.6169  0.0804  0.1661
 7352TIP3    H122020   4.512   4.289   4.494  0.2934 -0.3685 -0.8011
 7352TIP3    H222021   4.463   4.422   4.548 -2.5518 -2.0437  0.9457
 7353TIP3   OH222022   3.564   4.306   3.054  0.2648 -0.2657 -0.3707
 7353TIP3    H122023   3.608   4.387   3.080 -0.6191  0.7001 -1.7524
 7353TIP3    H222024   3.489   4.300   3.112  0.5592 -0.3203  0.0092
 7354TIP3   OH222025   4.475   1.686   2.295 -0.2126  0.4585  0.4481
 7354TIP3    H122026   4.402   1.624   2.300 -1.0813  1.5039  1.3139
 7354TIP3    H222027   4.539   1.653   2.359  0.1203 -0.4803 -0.3391
 7355TIP3   OH222028   0.458   4.843   4.563  0.6700  0.5637  0.2641
 7355TIP3    H122029   0.385   4.895   4.529  0.7425  0.6012  0.1645
 7355TIP3    H222030   0.425   4.806   4.645  0.6682  0.8819  0.4080
 7356TIP3   OH222031   1.674   0.024   5.624  0.1357  0.2982 -0.5251
 7356TIP3    H122032   1.598   0.048   5.678  0.0900  1.0588 -0.9053
 7356TIP3    H222033   1.647   0.048   5.535  0.0207 -1.3805 -0.9706
 7357TIP3   OH222034   3.142   1.122   1.414 -0.5235 -0.4646 -0.0302
 7357TIP3    H122035   3.210   1.136   1.480 -1.5167  0.7822  0.7679
 7357TIP3    H222036   3.171   1.044   1.367  1.7800  0.3870 -0.1401
 7358TIP3   OH222037   4.017   5.661   0.256  0.3873  0.0662  0.2577
 7358TIP3    H122038   4.036   5.721   0.183 -0.2273  1.3216  1.0949
 7358TIP3    H222039   3.955   5.709   0.311 -1.6015 -2.0845  0.0127
 7359TIP3   OH222040   3.790   3.849   0.914  0.0332  0.2012 -0.3869
 7359TIP3    H122041   3.841   3.818   0.988 -1.1755  1.4773  1.0507
 7359TIP3    H222042   3.765   3.939   0.938 -0.4602  0.6230 -2.3076
 7360TIP3   OH222043   3.763   0.239   1.400 -0.2881  0.1978 -0.8675
 7360TIP3    H122044   3.831   0.291   1.357 -0.3840  0.1119 -1.1255
 7360TIP3    H222045   3.811   0.166   1.439 -0.2519  0.0352 -1.2106
 7361TIP3   OH222046   1.531   4.468   2.874  0.2114 -0.4783 -0.9018
 7361TIP3    H122047   1.553   4.556   2.847 -0.7655  0.3333  0.7761
 7361TIP3    H222048   1.600   4.413   2.837  0.7298  0.9449 -2.1332
 7362TIP3   OH222049   2.637   2.707   0.801 -0.3743  0.4887 -0.3721
 7362TIP3    H122050   2.651   2.755   0.882 -1.5735  1.2410 -0.5921
 7362TIP3    H222051   2.632   2.615   0.828  0.2837  0.6276  0.2567
 7363TIP3   OH222052   5.158   3.542   5.106 -0.0717  0.3470  0.0699
 7363TIP3    H122053   5.142   3.610   5.041  0.3051  1.0696  0.7069
 7363TIP3    H222054   5.187   3.466   5.056 -1.6606  0.2537 -0.7667
 7364TIP3   OH222055   5.523   2.541   5.196 -0.0833  0.0073  0.0511
 7364TIP3    H122056   5.443   2.592   5.206  1.5334  2.6562  0.5035
 7364TIP3    H222057   5.518   2.474   5.265 -2.5713 -0.9767 -0.9795
 7365TIP3   OH222058   2.421   5.911   3.064 -0.0727 -0.3596 -0.0290
 7365TIP3    H122059   2.476   5.899   3.141  1.4081  2.1226 -0.6114
 7365TIP3    H222060   2.336   5.938   3.099 -0.3453 -2.1414  0.7871
 7366TIP3   OH222061   6.722   4.095   1.264  0.0690 -0.1421 -0.1418
 7366TIP3    H122062   6.692   4.041   1.337 -0.5051 -1.1375 -1.0822
 7366TIP3    H222063   6.698   4.184   1.288  0.6540 -0.3384  1.2550
 7367TIP3   OH222064   2.965   4.993   4.815  0.0606 -0.1437  0.2075
 7367TIP3    H122065   2.964   4.944   4.733  0.3943 -0.4194  0.3660
 7367TIP3    H222066   2.935   4.930   4.881 -4.2720  1.1242 -0.2328
 7368TIP3   OH222067   3.872   2.295   3.658  0.2268  0.1901 -0.1165
 7368TIP3    H122068   3.950   2.278   3.710  0.0936 -0.2983 -0.0703
 7368TIP3    H222069   3.823   2.212   3.661 -0.2192  0.4465 -0.2620
 7369TIP3   OH222070   6.342   6.006   4.513 -0.0893 -0.2253  0.0957
 7369TIP3    H122071   6.408   5.942   4.490 -0.2216  0.2246 -1.6661
 7369TIP3    H222072   6.370   6.087   4.471  0.1656  0.9753  2.4079
 7370TIP3   OH222073   5.600   3.124   0.028  0.7950 -0.3575  0.1131
 7370TIP3    H122074   5.608   3.206   0.076  0.0760 -0.5497  0.5751
 7370TIP3    H222075   5.629   3.057   0.089  0.7576 -0.5091 -0.0355
 7371TIP3   OH222076   1.395   2.326   4.463 -0.0446 -0.2572 -0.4674
 7371TIP3    H122077   1.353   2.360   4.383 -0.8950 -1.5445 -0.6032
 7371TIP3    H222078   1.351   2.372   4.534  0.0504  0.2122 -0.7103
 7372TIP3   OH222079   4.852   1.279   4.443 -0.3584 -0.2570  0.3906
 7372TIP3    H122080   4.855   1.226   4.363 -1.1392 -1.3874  1.0789
 7372TIP3    H222081   4.927   1.249   4.494  1.5808  2.1240 -0.8535
 7373TIP3   OH222082   4.350   3.084   4.270  0.5527 -0.2112  0.3965
 7373TIP3    H122083   4.322   3.151   4.332  0.2437  0.0283 -0.0002
 7373TIP3    H222084   4.325   3.002   4.311 -0.3993 -0.0171  0.2195
 7374TIP3   OH222085   2.176   3.052   1.277  0.3146 -0.2214  0.8512
 7374TIP3    H122086   2.198   3.081   1.189 -3.2018  1.5367  0.3610
 7374TIP3    H222087   2.089   3.012   1.268  0.0560 -0.4295  3.4355
 7375TIP3   OH222088   6.923   6.093   0.403 -0.0031  0.7645  0.5073
 7375TIP3    H122089   6.847   6.146   0.426 -1.2837  0.3233 -2.2313
 7375TIP3    H222090   6.901   6.057   0.317  3.6349  1.2239 -0.7586
 7376TIP3   OH222091   4.770   3.890   5.395  0.5510  0.4372  0.1469
 7376TIP3    H122092   4.750   3.942   5.316 -0.0397 -0.0430 -0.0258
 7376TIP3    H222093   4.758   3.799   5.367 -1.0538  0.2977  1.1449
 7377TIP3   OH222094   2.846   4.560   5.223  0.1578 -0.3598 -0.5740
 7377TIP3    H122095   2.795   4.641   5.222 -0.0307 -0.4798 -0.6147
 7377TIP3    H222096   2.847   4.530   5.132  1.0817  0.1319 -0.7405
 7378TIP3   OH222097   4.643   1.459   1.563  0.3841  0.3254  0.2506
 7378TIP3    H122098   4.644   1.466   1.468  0.1674 -1.0708  0.1135
 7378TIP3    H222099   4.705   1.388   1.582  0.2986  0.4754  1.1416
 7379TIP3   OH222100   5.162   6.805   0.901 -0.1386 -0.0094 -0.1111
 7379TIP3    H122101   5.253   6.775   0.903  0.2906  1.1993 -0.5684
 7379TIP3    H222102   5.128   6.775   0.817  0.1925  0.5151 -0.4348
 7380TIP3   OH222103   7.191   4.895   0.180  0.3026  0.2672  0.1416
 7380TIP3    H122104   7.147   4.969   0.138 -2.4781 -0.4849  1.4646
 7380TIP3    H222105   7.153   4.818   0.139 -0.8202 -0.4346  2.3647
 7381TIP3   OH222106   4.637   4.302   0.326  0.4806  0.4897  0.7872
 7381TIP3    H122107   4.553   4.330   0.364 -0.4563 -1.5186  0.3385
 7381TIP3    H222108   4.647   4.355   0.247 -1.1965 -0.3141 -0.0095
 7382TIP3   OH222109   4.800   1.577   0.396  0.3364  0.0269 -0.4532
 7382TIP3    H122110   4.760   1.581   0.309  1.3337 -1.5468 -1.0535
 7382TIP3    H222111   4.729   1.555   0.455 -0.6100  2.3963 -0.6161
 7383TIP3   OH222112   3.552   0.451   3.916 -0.1092 -0.1357 -0.0195
 7383TIP3    H122113   3.477   0.435   3.973 -0.2349  0.5940  0.0339
 7383TIP3    H222114   3.624   0.470   3.976 -0.4385  1.4833 -0.0840
 7384TIP3   OH222115   4.847   6.125   5.495 -0.2177 -0.2839 -0.1255
 7384TIP3    H122116   4.848   6.220   5.483  0.1527 -0.3562 -0.6802
 7384TIP3    H222117   4.932   6.104   5.532 -0.5782 -0.3178  0.7150
 7385TIP3   OH222118   0.943   5.953   3.935 -0.4369 -0.3763 -0.3147
 7385TIP3    H122119   0.890   6.026   3.904 -1.5348 -1.3466 -0.7940
 7385TIP3    H222120   0.952   5.895   3.859  1.5276 -0.1467 -0.3195
 7386TIP3   OH222121   3.079   1.729   0.686  0.0385  0.0189  0.3073
 7386TIP3    H122122   3.121   1.756   0.605  0.4938 -2.5720 -0.4242
 7386TIP3    H222123   3.000   1.783   0.692  0.2453  0.6006 -1.6007
 7387TIP3   OH222124   3.589   0.297   0.837  0.4072 -0.1773  0.0419
 7387TIP3    H122125   3.593   0.222   0.778 -1.1889  0.0318 -0.3689
 7387TIP3    H222126   3.518   0.276   0.898 -0.0318  0.9721 -0.0487
 7388TIP3   OH222127   2.470   1.340   3.731 -0.4215 -0.2734 -0.3660
 7388TIP3    H122128   2.402   1.299   3.677 -1.9685 -0.2106  1.4109
 7388TIP3    H222129   2.485   1.278   3.802  0.8575  0.0616 -0.3284
 7389TIP3   OH222130   5.345   3.200   4.208 -0.4534  0.1967  0.8490
 7389TIP3    H122131   5.422   3.253   4.188  0.3557 -0.1972  2.6410
 7389TIP3    H222132   5.284   3.217   4.136  0.2033  2.6539  0.7784
 7390TIP3   OH222133   4.708   1.384   2.176  0.1079  0.1708 -0.3595
 7390TIP3    H122134   4.784   1.351   2.224 -0.8947 -0.3581  0.9314
 7390TIP3    H222135   4.743   1.410   2.091  1.8279  0.4552  0.3823
 7391TIP3   OH222136   5.324   4.362   5.861  0.8024  0.5586 -0.1271
 7391TIP3    H122137   5.347   4.351   5.768  2.2437 -2.5127  0.4734
 7391TIP3    H222138   5.239   4.319   5.870  0.5914  0.9893 -0.0210
 7392TIP3   OH222139   4.962   6.555   3.093 -0.7583  0.5377  0.1745
 7392TIP3    H122140   4.967   6.651   3.085 -1.1855  0.3933 -3.6084
 7392TIP3    H222141   4.878   6.532   3.055 -0.1369 -1.4346 -0.1094
 7393TIP3   OH222142   7.058   6.527   4.355 -0.0375 -0.0372  0.6513
 7393TIP3    H122143   7.071   6.463   4.286 -2.0274  1.5526 -1.3243
 7393TIP3    H222144   7.121   6.597   4.336  0.7327 -0.4261  1.6315
 7394TIP3   OH222145   1.253   2.514   0.747 -0.2937  0.1789 -0.0072
 7394TIP3    H122146   1.346   2.524   0.731 -0.4196  0.8948 -0.3529
 7394TIP3    H222147   1.238   2.558   0.832  0.0326 -1.8327  1.1430
 7395TIP3   OH222148   4.495   1.987   5.330  0.2165 -0.4675  0.2084
 7395TIP3    H122149   4.550   2.051   5.286  0.5013 -0.4659  0.5622
 7395TIP3    H222150   4.542   1.904   5.320  0.0240 -0.5600  0.0598
 7396TIP3   OH222151   0.800   6.331   3.271  0.3715  0.1783  0.1557
 7396TIP3    H122152   0.843   6.412   3.299  0.8639  0.0310 -0.1632
 7396TIP3    H222153   0.744   6.357   3.198 -1.2976  0.6561  1.5412
 7397TIP3   OH222154   6.471   1.487   4.348  0.1876  0.1077 -0.5544
 7397TIP3    H122155   6.434   1.525   4.269 -1.4492 -0.1522  0.0444
 7397TIP3    H222156   6.524   1.414   4.317 -0.1455  0.2308 -1.4305
 7398TIP3   OH222157   6.138   2.184   5.581  0.2552  0.5277  0.3812
 7398TIP3    H122158   6.120   2.111   5.521  2.0355  1.0335 -0.8251
 7398TIP3    H222159   6.219   2.159   5.625 -0.0364  1.0195  1.2073
 7399TIP3   OH222160   6.196   1.694   0.291  0.0309 -0.1396  0.4611
 7399TIP3    H122161   6.259   1.762   0.314 -0.2045  0.1658  0.2242
 7399TIP3    H222162   6.217   1.672   0.200 -0.6393  0.4666  0.1460
 7400TIP3   OH222163   0.252   2.501   4.698  0.0345 -0.1794  0.3392
 7400TIP3    H122164   0.161   2.511   4.725  0.2022  0.4500  0.7148
 7400TIP3    H222165   0.248   2.460   4.612 -0.6483  0.7069 -0.0761
 7401TIP3   OH222166   6.978   0.329   0.611  0.1633 -0.1854  0.1452
 7401TIP3    H122167   6.966   0.350   0.518 -0.0339  0.4851  0.3199
 7401TIP3    H222168   7.071   0.347   0.628  0.0839  0.1627  0.2010
 7402TIP3   OH222169   2.298   2.702   2.645  0.7948 -0.3630  0.3968
 7402TIP3    H122170   2.366   2.657   2.596  0.1686 -1.5016  0.5438
 7402TIP3    H222171   2.228   2.637   2.655  0.5047  0.1326  1.9457
 7403TIP3   OH222172   0.271   3.759   4.879  0.0027  0.5745  0.1636
 7403TIP3    H122173   0.267   3.836   4.936  0.4057  1.3434 -0.8185
 7403TIP3    H222174   0.183   3.752   4.842  0.4079  1.5852 -1.0352
 7404TIP3   OH222175   0.594   5.081   5.497  0.4427  0.1575 -0.1041
 7404TIP3    H122176   0.634   5.025   5.563  2.2449  0.9846 -0.4018
 7404TIP3    H222177   0.647   5.161   5.499 -0.4683  0.8371 -1.4155
 7405TIP3   OH222178   3.746   3.271   2.048  0.2382  0.0882  0.3130
 7405TIP3    H122179   3.798   3.302   2.121  2.4033 -0.6383 -0.8357
 7405TIP3    H222180   3.704   3.191   2.080  0.8067  0.0180  0.8985
 7406TIP3   OH222181   3.257   3.616   4.146  0.4269 -0.0509  0.2574
 7406TIP3    H122182   3.234   3.620   4.239  0.4133 -1.2380  0.3222
 7406TIP3    H222183   3.227   3.699   4.110 -1.8767 -0.5785  0.8018
 7407TIP3   OH222184   5.661   4.240   1.368 -0.1477 -0.2971  0.6613
 7407TIP3    H122185   5.686   4.198   1.286  0.7844 -0.6672  1.1177
 7407TIP3    H222186   5.604   4.313   1.342 -1.9464 -1.8931 -0.1536
 7408TIP3   OH222187   2.053   6.302   5.043  0.0400  0.3057  0.2548
 7408TIP3    H122188   2.115   6.279   4.974 -0.8831 -0.5727 -0.3160
 7408TIP3    H222189   2.071   6.241   5.114 -0.4867 -0.2849 -0.1102
 7409TIP3   OH222190   2.740   0.237   1.162  0.3645 -0.3069 -0.2217
 7409TIP3    H122191   2.772   0.159   1.117  0.0055 -0.5199 -0.1046
 7409TIP3    H222192   2.815   0.297   1.161  0.0565  0.1252 -2.0627
 7410TIP3   OH222193   5.130   4.805   4.543 -0.7384 -0.3633  0.7033
 7410TIP3    H122194   5.130   4.781   4.636 -0.8334  1.6678  1.2775
 7410TIP3    H222195   5.207   4.860   4.533 -0.9131 -0.3009 -0.3510
 7411TIP3   OH222196   4.677   0.632   1.254 -0.1228  0.6399 -0.0262
 7411TIP3    H122197   4.630   0.552   1.275 -1.8804  1.5012 -0.4651
 7411TIP3    H222198   4.701   0.623   1.162 -0.9169  0.8949 -0.2608
 7412TIP3   OH222199   4.483   3.380   5.798 -0.3922  0.0472 -0.5252
 7412TIP3    H122200   4.501   3.301   5.848  0.8948  0.3162 -0.5217
 7412TIP3    H222201   4.407   3.358   5.745 -1.4985 -0.3888  1.1906
 7413TIP3   OH222202   0.351   3.010   0.826  0.3883  0.2837  0.7720
 7413TIP3    H122203   0.258   2.990   0.814  0.8939 -2.3528  0.6877
 7413TIP3    H222204   0.370   3.077   0.760 -1.1353 -0.1569 -0.1506
 7414TIP3   OH222205   3.724   4.866   3.185 -0.1910  0.2293  0.4045
 7414TIP3    H122206   3.697   4.958   3.178 -0.5391  0.0395 -1.3035
 7414TIP3    H222207   3.731   4.837   3.094 -0.0083 -1.4197  0.9195
 7415TIP3   OH222208   3.757   5.358   0.191 -0.1930  0.3739  0.4122
 7415TIP3    H122209   3.753   5.315   0.277 -0.7228  0.0365  0.2304
 7415TIP3    H222210   3.730   5.448   0.208 -2.5124 -0.2224  0.2895
 7416TIP3   OH222211   2.791   2.414   1.360  0.2381 -0.1353 -0.3452
 7416TIP3    H122212   2.782   2.502   1.325 -1.2125  0.0633  0.4448
 7416TIP3    H222213   2.865   2.420   1.421  0.4813  0.3841 -0.6821
 7417TIP3   OH222214   1.644   6.435   0.874 -0.0766  0.1760  0.4373
 7417TIP3    H122215   1.565   6.384   0.857  0.0196 -0.4822  1.8490
 7417TIP3    H222216   1.613   6.524   0.886 -0.5355  0.0210  0.4251
 7418TIP3   OH222217   4.976   1.066   4.843  0.2148 -0.2780  0.4011
 7418TIP3    H122218   4.931   1.055   4.926 -1.5700  2.8745  0.0267
 7418TIP3    H222219   4.918   1.024   4.779 -0.1541  0.2228  0.3977
 7419TIP3   OH222220   1.859   5.411   4.065 -0.1242 -0.2986  0.3858
 7419TIP3    H122221   1.847   5.495   4.111 -0.9922 -0.1485 -0.1072
 7419TIP3    H222222   1.952   5.411   4.042  0.0477  0.1961  1.0374
 7420TIP3   OH222223   0.268   2.272   2.343 -0.3628  0.8817  0.6245
 7420TIP3    H122224   0.187   2.321   2.323  0.2224  3.3542  3.5817
 7420TIP3    H222225   0.338   2.329   2.311  0.3736 -1.2130 -1.8561
 7421TIP3   OH222226   4.244   4.997   4.758 -0.1290 -0.2593 -0.1153
 7421TIP3    H122227   4.181   4.955   4.698  1.3342  0.1063 -2.0162
 7421TIP3    H222228   4.196   5.072   4.793 -0.7637  0.0999 -1.6312
 7422TIP3   OH222229   2.158   0.398   5.464 -0.1270  0.4270 -0.3538
 7422TIP3    H122230   2.205   0.376   5.383  0.1763  1.8425 -0.5810
 7422TIP3    H222231   2.066   0.407   5.437 -0.1244  0.2579 -0.4177
 7423TIP3   OH222232   2.507   6.292   4.418  0.2000  0.5155 -0.6002
 7423TIP3    H122233   2.586   6.283   4.365  0.4607  0.3022 -0.1757
 7423TIP3    H222234   2.478   6.382   4.402 -0.3054  0.1411 -1.9106
 7424TIP3   OH222235   0.958   3.142   2.391 -0.1149 -0.3742 -0.1625
 7424TIP3    H122236   1.026   3.074   2.392  0.4281  0.1685  1.3392
 7424TIP3    H222237   1.005   3.224   2.406 -0.9362  0.1875 -0.5611
 7425TIP3   OH222238   1.949   4.149   4.786 -0.0840  0.3234 -0.6470
 7425TIP3    H122239   1.879   4.205   4.820  0.8924  1.4192 -0.3321
 7425TIP3    H222240   1.978   4.098   4.862  0.3831  0.9062 -0.4197
 7426TIP3   OH222241   4.458   5.675   3.225  0.2587 -0.6323 -0.6155
 7426TIP3    H122242   4.402   5.602   3.200 -0.8553  0.0427 -0.1540
 7426TIP3    H222243   4.493   5.651   3.310 -1.8892  0.2997  0.6025
 7427TIP3   OH222244   1.354   5.096   4.448 -0.2273  0.1926 -0.3447
 7427TIP3    H122245   1.345   5.011   4.492 -0.4595 -0.2505 -1.2322
 7427TIP3    H222246   1.321   5.081   4.360  0.9342  0.8780 -0.9087
 7428TIP3   OH222247   6.069   1.003   4.533 -0.6215 -0.2051  0.4440
 7428TIP3    H122248   6.113   0.998   4.448 -1.2567  0.2628  0.0824
 7428TIP3    H222249   6.054   1.096   4.547 -2.1834 -0.3864  0.1914
 7429TIP3   OH222250   3.095   0.246   0.265 -0.1183 -0.4855  1.0422
 7429TIP3    H122251   3.080   0.167   0.318  0.0353 -0.8272  0.5800
 7429TIP3    H222252   3.176   0.228   0.219 -0.9403 -0.7635 -0.3529
 7430TIP3   OH222253   6.920   0.731   0.801  0.0235 -0.1175  0.4852
 7430TIP3    H122254   6.875   0.666   0.748 -0.7574 -0.7814  1.9023
 7430TIP3    H222255   6.882   0.721   0.888  1.9107  0.2776  1.4097
 7431TIP3   OH222256   1.177   3.168   5.100 -0.4745  0.3293  0.2702
 7431TIP3    H122257   1.242   3.161   5.170  0.9652 -0.2810 -1.0687
 7431TIP3    H222258   1.174   3.081   5.060 -0.5549  0.8812 -1.0016
 7432TIP3   OH222259   5.275   6.491   5.705 -0.5180  0.5221  0.2804
 7432TIP3    H122260   5.313   6.563   5.655 -0.4601 -0.3765 -1.0304
 7432TIP3    H222261   5.317   6.496   5.791  0.6514  1.1030 -0.3107
 7433TIP3   OH222262   6.006   0.933   0.492 -0.2085 -0.7929  0.1948
 7433TIP3    H122263   5.940   1.002   0.488  0.4496 -0.1428  0.1047
 7433TIP3    H222264   5.989   0.888   0.575 -0.8689 -0.7511  0.0872
 7434TIP3   OH222265   4.851   6.067   1.645 -0.3360 -0.1388 -0.1674
 7434TIP3    H122266   4.870   6.161   1.638  1.7310 -0.5557 -0.8136
 7434TIP3    H222267   4.767   6.063   1.692 -1.8729  2.1067 -2.4165
 7435TIP3   OH222268   5.637   0.213   0.144  0.2409  0.0779  0.2276
 7435TIP3    H122269   5.726   0.244   0.158  0.8304 -1.2718 -0.4506
 7435TIP3    H222270   5.617   0.238   0.054  0.9882 -2.0472 -0.5812
 7436TIP3   OH222271   5.342   3.544   3.426 -0.1361  0.0222 -0.6700
 7436TIP3    H122272   5.383   3.548   3.339 -0.3382 -0.4603 -0.7917
 7436TIP3    H222273   5.281   3.617   3.428  2.4119  2.3125  0.3991
 7437TIP3   OH222274   1.683   3.317   0.240  0.3213  0.0091  0.3926
 7437TIP3    H122275   1.647   3.402   0.214 -0.1032 -0.5360 -0.8970
 7437TIP3    H222276   1.613   3.275   0.290 -0.2757 -0.4122 -0.7643
 7438TIP3   OH222277   4.239   3.542   2.986  0.0851  0.3974  0.0142
 7438TIP3    H122278   4.148   3.527   3.010 -0.0797  0.7884 -0.3555
 7438TIP3    H222279   4.238   3.623   2.935  0.6470  0.4374  0.0549
 7439TIP3   OH222280   5.282   3.556   5.631  0.6324 -0.3553 -0.1884
 7439TIP3    H122281   5.317   3.468   5.641  0.0444 -0.5920 -0.1782
 7439TIP3    H222282   5.218   3.550   5.560 -0.1262 -0.1623  0.4597
 7440TIP3   OH222283   3.164   5.249   0.603 -0.0410  0.3449 -0.2054
 7440TIP3    H122284   3.156   5.188   0.676  0.6381 -0.0145 -0.4237
 7440TIP3    H222285   3.074   5.267   0.576 -0.2579 -0.2373  0.1244
 7441TIP3   OH222286   2.302   4.149   3.907  0.0150 -0.2603  0.9239
 7441TIP3    H122287   2.398   4.149   3.901  0.0117 -0.7196  0.8148
 7441TIP3    H222288   2.278   4.241   3.911  0.5182 -0.1528  1.7841
 7442TIP3   OH222289   0.986   6.003   2.193  0.2144 -0.5075  0.6132
 7442TIP3    H122290   0.930   6.076   2.223 -1.1628 -1.4254  0.3794
 7442TIP3    H222291   1.042   5.983   2.268  1.5142  1.5769  0.2855
 7443TIP3   OH222292   1.969   0.995   2.839 -0.1387  0.0918  0.1670
 7443TIP3    H122293   2.013   0.910   2.834 -1.7359 -0.7371 -0.5644
 7443TIP3    H222294   1.877   0.976   2.821 -0.8921  1.7072  1.9305
 7444TIP3   OH222295   1.429   4.000   5.692 -0.2538 -0.1712  0.8558
 7444TIP3    H122296   1.384   4.022   5.611  2.4604 -0.5695 -0.8571
 7444TIP3    H222297   1.444   4.084   5.735  0.8822  0.3679 -0.5370
 7445TIP3   OH222298   6.854   4.009   2.899  0.0840  0.4120 -0.3183
 7445TIP3    H122299   6.798   3.960   2.960  0.1214  0.9363  0.1509
 7445TIP3    H222300   6.804   4.010   2.817 -0.2280  0.1794 -0.1366
 7446TIP3   OH222301   1.982   3.642   1.775 -0.4034 -0.0168 -0.4413
 7446TIP3    H122302   2.041   3.717   1.763  0.5909  0.1861  3.9656
 7446TIP3    H222303   1.895   3.677   1.758  0.2544  1.4257 -1.0339
 7447TIP3   OH222304   0.893   0.631   3.241 -0.2185  0.6132  0.2002
 7447TIP3    H122305   0.861   0.671   3.160  0.1161  1.5732  0.5266
 7447TIP3    H222306   0.988   0.626   3.230 -0.2239  0.2206  0.3092
 7448TIP3   OH222307   6.621   4.800   0.534  0.1359 -0.1910  0.1368
 7448TIP3    H122308   6.558   4.858   0.490 -0.6658 -0.8315  0.4238
 7448TIP3    H222309   6.652   4.852   0.608  0.2697  0.2885 -0.2492
 7449TIP3   OH222310   7.047   4.898   2.574 -0.1109  0.1359  0.2413
 7449TIP3    H122311   7.023   4.911   2.482 -0.7404 -0.7285  0.2675
 7449TIP3    H222312   7.097   4.816   2.574  1.2977  0.9567  0.4554
 7450TIP3   OH222313   6.614   1.900   3.343 -0.6255  0.9156 -0.2758
 7450TIP3    H122314   6.698   1.857   3.353  1.0213  4.2047  1.6341
 7450TIP3    H222315   6.562   1.871   3.418 -0.0515  1.1625  0.2228
 7451TIP3   OH222316   0.458   6.780   2.265 -0.3283  0.0712 -0.6242
 7451TIP3    H122317   0.378   6.787   2.213 -0.1796 -0.6694 -0.9723
 7451TIP3    H222318   0.453   6.692   2.303 -0.4264  0.5853  0.6128
 7452TIP3   OH222319   1.945   6.167   1.181 -0.2317 -0.3639  0.4707
 7452TIP3    H122320   1.858   6.130   1.168 -1.1914  1.7294  0.6184
 7452TIP3    H222321   1.943   6.251   1.135  0.7839  1.0003  2.7588
 7453TIP3   OH222322   4.296   1.317   3.387 -0.3917  0.4810 -0.0720
 7453TIP3    H122323   4.350   1.303   3.465 -0.5143 -2.1908 -0.3537
 7453TIP3    H222324   4.320   1.404   3.356  3.1008 -0.1573  0.3706
 7454TIP3   OH222325   6.295   2.765   4.151 -0.1755  0.1182  0.1280
 7454TIP3    H122326   6.361   2.711   4.106  0.4869  0.8810  0.1593
 7454TIP3    H222327   6.283   2.722   4.236 -0.4294 -0.5611 -0.2387
 7455TIP3   OH222328   7.017   5.577   3.161 -0.4745 -0.0110 -0.3388
 7455TIP3    H122329   6.960   5.567   3.237 -0.3030  0.9872 -0.0632
 7455TIP3    H222330   6.962   5.617   3.094 -0.7226 -1.2122 -0.8812
 7456TIP3   OH222331   4.637   2.620   1.041  0.5346 -0.3522  0.0306
 7456TIP3    H122332   4.610   2.612   0.949 -0.0172 -1.5523  0.2777
 7456TIP3    H222333   4.712   2.680   1.039 -0.0129  0.3148 -1.0922
 7457TIP3   OH222334   1.518   5.374   1.480  0.0848 -0.0297  0.4858
 7457TIP3    H122335   1.441   5.430   1.482 -1.2577 -1.7835  0.2168
 7457TIP3    H222336   1.564   5.398   1.399 -0.5863  0.4888  0.2520
 7458TIP3   OH222337   0.794   0.040   5.390  0.5322 -0.4681 -0.0678
 7458TIP3    H122338   0.795   0.134   5.405  2.1672 -0.1701 -1.6309
 7458TIP3    H222339   0.775   0.030   5.297 -0.0782 -1.7236  0.1585
 7459TIP3   OH222340   5.501   5.921   3.684 -0.2325  0.0050  0.7729
 7459TIP3    H122341   5.494   5.939   3.591  0.8283  0.5062  0.7772
 7459TIP3    H222342   5.543   5.835   3.689 -1.1264 -0.4466  0.7968
 7460TIP3   OH222343   0.611   1.736   0.628  0.4506  0.3087  1.0545
 7460TIP3    H122344   0.546   1.669   0.608  0.8992 -0.1193  1.0177
 7460TIP3    H222345   0.559   1.810   0.660 -0.4425  1.3803 -2.3622
 7461TIP3   OH222346   2.019   1.524   5.172 -0.1261 -0.3759 -0.4128
 7461TIP3    H122347   1.950   1.459   5.159 -0.7698  0.5176 -1.7809
 7461TIP3    H222348   2.088   1.499   5.112 -0.2170 -0.0359 -0.6683
 7462TIP3   OH222349   5.033   4.130   0.268  0.3738 -0.9992  0.2494
 7462TIP3    H122350   5.119   4.124   0.227  0.7648 -0.5070  0.9688
 7462TIP3    H222351   5.033   4.216   0.311 -0.6741 -0.7704 -0.1684
 7463TIP3   OH222352   5.927   0.540   0.079 -0.4309  0.0612  0.5244
 7463TIP3    H122353   5.950   0.605   0.146 -0.1551 -0.5784  1.0675
 7463TIP3    H222354   5.895   0.591   0.005 -0.2193  0.8119  0.9445
 7464TIP3   OH222355   5.253   2.431   3.661  0.3160 -0.3999  0.4279
 7464TIP3    H122356   5.346   2.420   3.639  0.2017 -1.1322  0.2896
 7464TIP3    H222357   5.216   2.344   3.650 -0.3014 -0.2011  0.9200
 7465TIP3   OH222358   2.547   2.592   4.448 -0.2777  0.6701  0.0593
 7465TIP3    H122359   2.633   2.625   4.422  0.1567  0.4032  1.0926
 7465TIP3    H222360   2.563   2.544   4.529 -1.8225  3.1538  2.0019
 7466TIP3   OH222361   1.464   4.131   3.599  0.1380 -0.2968  0.3677
 7466TIP3    H122362   1.524   4.196   3.562 -0.5145 -0.1582 -0.4707
 7466TIP3    H222363   1.511   4.048   3.591  0.0725 -0.2460 -0.6465
 7467TIP3   OH222364   2.922   0.246   3.635 -0.8761 -0.5658  0.1532
 7467TIP3    H122365   2.991   0.310   3.652 -0.6620 -0.9197  0.6437
 7467TIP3    H222366   2.968   0.166   3.612 -1.1468 -0.4969 -0.6492
 7468TIP3   OH222367   6.892   3.185   4.607  0.0288 -0.8503 -0.3390
 7468TIP3    H122368   6.921   3.271   4.575  0.7102 -1.4112 -1.3070
 7468TIP3    H222369   6.807   3.172   4.566 -0.2220 -0.5053  0.0653
 7469TIP3   OH222370   2.578   3.884   4.324  0.1417 -0.2921 -0.2150
 7469TIP3    H122371   2.658   3.882   4.272  0.4194  0.6906  0.1423
 7469TIP3    H222372   2.566   3.794   4.354  1.6861 -0.2724  0.5648
 7470TIP3   OH222373   5.506   5.673   5.403  0.3441 -0.2975  0.1922
 7470TIP3    H122374   5.429   5.650   5.456 -0.1388 -1.5412 -0.9838
 7470TIP3    H222375   5.469   5.711   5.323  1.0707  1.9474  0.8560
 7471TIP3   OH222376   5.767   0.065   0.762 -0.4265 -0.1012  0.2326
 7471TIP3    H122377   5.773  -0.029   0.775 -0.7417  0.1375  2.6545
 7471TIP3    H222378   5.828   0.102   0.826 -0.9044  1.3437 -0.1098
 7472TIP3   OH222379   5.365   3.030   5.651  0.2642 -0.4750  0.1435
 7472TIP3    H122380   5.442   2.986   5.615  0.1757 -0.1895 -0.4157
 7472TIP3    H222381   5.313   3.054   5.574  0.9714  1.8189  0.2972
 7473TIP3   OH222382   4.965   2.157   2.279 -1.3849  0.1373  0.3263
 7473TIP3    H122383   4.956   2.102   2.202 -2.1724  0.5428  0.1226
 7473TIP3    H222384   4.954   2.246   2.247 -0.8829  0.3699  0.7763
 7474TIP3   OH222385   5.547   3.690   5.757 -0.3018  0.1981  0.4464
 7474TIP3    H122386   5.554   3.691   5.661  1.2816 -0.5263  0.5055
 7474TIP3    H222387   5.497   3.768   5.779 -0.4815  0.5047 -0.9609
 7475TIP3   OH222388   0.475   4.653   1.514  0.1525  0.6680 -0.2466
 7475TIP3    H122389   0.570   4.645   1.516  0.1653  0.3937 -1.3917
 7475TIP3    H222390   0.449   4.613   1.431 -0.9748  0.6151  0.1177
 7476TIP3   OH222391   3.762   5.617   4.245 -0.6521 -0.7396 -0.2137
 7476TIP3    H122392   3.704   5.603   4.319  0.7283 -0.0068  1.0669
 7476TIP3    H222393   3.846   5.643   4.284  0.6010 -1.8648 -1.9522
 7477TIP3   OH222394   5.919   3.393   1.788  0.0240  0.5377 -0.1768
 7477TIP3    H122395   5.864   3.443   1.849 -0.3143 -0.3916  0.2991
 7477TIP3    H222396   5.967   3.331   1.844 -0.6149 -0.6249 -0.8783
 7478TIP3   OH222397   6.406   0.037   3.371 -0.2290  0.0317  0.4356
 7478TIP3    H122398   6.491   0.024   3.412  0.3614  1.5164 -0.2594
 7478TIP3    H222399   6.422   0.100   3.301 -1.5206 -1.1679 -1.0213
 7479TIP3   OH222400   2.113   1.343   4.226 -0.2283 -0.4496 -0.4821
 7479TIP3    H122401   2.143   1.291   4.301 -0.6441  0.9022  0.6759
 7479TIP3    H222402   2.189   1.397   4.204 -0.0957 -0.8744 -1.0613
 7480TIP3   OH222403   0.787   0.960   1.274  0.1597  0.6335 -0.0885
 7480TIP3    H122404   0.864   0.904   1.262  0.2632  1.1629 -2.4346
 7480TIP3    H222405   0.822   1.049   1.280 -0.0904  0.6420  2.4323
 7481TIP3   OH222406   1.507   4.709   1.400  0.7752  0.2622  0.0024
 7481TIP3    H122407   1.419   4.745   1.405  0.9905  0.8924 -0.6195
 7481TIP3    H222408   1.505   4.633   1.458 -0.3477 -0.0963 -0.4824
 7482TIP3   OH222409   3.191   0.361   5.738  0.2592  0.0413 -0.2439
 7482TIP3    H122410   3.262   0.424   5.750  0.8093 -0.4481 -0.8654
 7482TIP3    H222411   3.200   0.300   5.812  0.0048  0.4240  0.1056
 7483TIP3   OH222412   7.176   0.452   2.297 -0.7321  0.3829 -0.2369
 7483TIP3    H122413   7.139   0.372   2.335 -1.1421  0.1390 -1.1242
 7483TIP3    H222414   7.259   0.464   2.342  0.9791 -2.4043 -2.2944
 7484TIP3   OH222415   5.338   2.451   2.465 -0.3986 -0.1519  0.0134
 7484TIP3    H122416   5.357   2.404   2.384 -1.8798  1.3600 -1.2562
 7484TIP3    H222417   5.405   2.519   2.470 -1.1603  0.6725 -0.7328
 7485TIP3   OH222418   4.448   1.794   2.028 -0.3166 -0.7570 -0.2576
 7485TIP3    H122419   4.365   1.760   1.998 -2.2985  3.0134  0.3194
 7485TIP3    H222420   4.458   1.758   2.117 -1.5157 -0.9755 -0.1961
 7486TIP3   OH222421   3.437   1.655   0.477 -0.3687 -0.6415 -1.0941
 7486TIP3    H122422   3.439   1.569   0.520  0.0830 -0.1897 -0.1930
 7486TIP3    H222423   3.347   1.663   0.445 -1.3134 -0.2242  1.4008
 7487TIP3   OH222424   4.572   1.847   0.217  0.0769 -0.0850 -0.2105
 7487TIP3    H122425   4.556   1.915   0.150 -0.2681  0.6341  0.5791
 7487TIP3    H222426   4.485   1.814   0.239  0.1290  0.1306  0.3338
 7488TIP3   OH222427   2.719   5.607   2.971 -0.1662 -0.9732  0.7451
 7488TIP3    H122428   2.728   5.703   2.975 -0.5525 -0.7856 -1.4677
 7488TIP3    H222429   2.756   5.576   3.053 -1.2270  1.1511  2.1147
 7489TIP3   OH222430   2.690   5.911   2.341  0.0225 -0.3416  0.8251
 7489TIP3    H122431   2.659   5.884   2.255 -0.0178  1.2485  0.3135
 7489TIP3    H222432   2.742   5.837   2.372 -0.5733 -1.2341 -0.2323
 7490TIP3   OH222433   5.313   5.912   1.042 -0.4420 -0.4096 -0.3487
 7490TIP3    H122434   5.374   5.857   0.993  1.2728  0.3253  0.8459
 7490TIP3    H222435   5.290   5.859   1.119  0.2805  0.0619  0.2040
 7491TIP3   OH222436   1.898   3.567   0.238 -0.4100 -0.4134  0.3382
 7491TIP3    H122437   1.965   3.587   0.303  0.7303 -0.8375 -0.6582
 7491TIP3    H222438   1.816   3.590   0.280  0.3900  0.5968  1.4262
 7492TIP3   OH222439   2.560   0.092   2.879 -0.2646  0.0184 -0.6880
 7492TIP3    H122440   2.639   0.104   2.826 -0.8390 -0.7083 -1.7507
 7492TIP3    H222441   2.563  -0.000   2.905 -0.3187  0.2107  0.0132
 7493TIP3   OH222442   1.078   1.575   5.745 -0.0946 -0.1307 -0.1188
 7493TIP3    H122443   1.094   1.600   5.654  1.6850 -0.3554  0.0943
 7493TIP3    H222444   1.138   1.503   5.761 -0.1437  0.1212  1.3253
 7494TIP3   OH222445   1.082   6.449   0.070  0.1103 -0.1065 -0.2726
 7494TIP3    H122446   1.160   6.399   0.044 -0.0715  0.1747 -1.4060
 7494TIP3    H222447   1.060   6.415   0.156 -0.2417 -2.2754 -1.1604
 7495TIP3   OH222448   1.383   0.159   3.705 -0.3105  0.2641  0.0153
 7495TIP3    H122449   1.336   0.214   3.768 -0.8978 -0.5497  0.3093
 7495TIP3    H222450   1.435   0.100   3.760  0.2971  0.5014 -0.2940
 7496TIP3   OH222451   6.192   4.192   2.103  0.2312 -0.1929 -0.1869
 7496TIP3    H122452   6.278   4.196   2.062  0.5679 -3.2044 -0.0011
 7496TIP3    H222453   6.200   4.244   2.182  1.9675 -0.6264 -0.0517
 7497TIP3   OH222454   1.369   4.581   4.048  0.2235 -0.3052  0.0144
 7497TIP3    H122455   1.370   4.646   3.978 -0.8745  1.5731  1.6057
 7497TIP3    H222456   1.301   4.519   4.022  1.3372 -0.9073 -1.5730
 7498TIP3   OH222457   0.223   2.446   2.084  0.0812 -0.0819  0.6833
 7498TIP3    H122458   0.182   2.498   2.015  1.9038 -0.9059 -1.1454
 7498TIP3    H222459   0.316   2.467   2.077  0.6905 -2.5015  0.8093
 7499TIP3   OH222460   1.503   6.542   1.226 -0.0653 -0.9510 -0.6967
 7499TIP3    H122461   1.421   6.547   1.275 -0.6807  0.7729 -1.7745
 7499TIP3    H222462   1.551   6.469   1.265 -1.9975 -1.8475  0.1320
 7500TIP3   OH222463   4.255   3.671   1.759 -0.1416  0.6117 -0.4371
 7500TIP3    H122464   4.230   3.602   1.821  0.7447  1.1368  0.5394
 7500TIP3    H222465   4.351   3.676   1.766 -0.1777  1.8649 -0.5476
 7501TIP3   OH222466   6.393   2.634   5.320  0.0041 -0.2207  0.3780
 7501TIP3    H122467   6.343   2.662   5.396 -1.1041  0.4448 -0.5645
 7501TIP3    H222468   6.348   2.674   5.245  2.0366  0.5482 -0.5069
 7502TIP3   OH222469   3.109   2.416   1.063 -0.3544  0.1685  0.2475
 7502TIP3    H122470   3.027   2.464   1.049 -0.3145 -0.1633 -1.3376
 7502TIP3    H222471   3.107   2.390   1.155 -1.3005  1.4946  0.6183
 7503TIP3   OH222472   3.948   3.817   1.798 -0.9150 -0.3776  0.1431
 7503TIP3    H122473   3.981   3.874   1.868 -0.7585 -1.3184  0.8522
 7503TIP3    H222474   4.018   3.817   1.733  0.3060 -1.9029  1.3778
 7504TIP3   OH222475   0.643   3.921   0.672 -0.4264  0.2704 -0.2799
 7504TIP3    H122476   0.652   3.998   0.728  1.7709  0.1050 -0.3386
 7504TIP3    H222477   0.550   3.898   0.680 -0.3845  0.6361  2.8068
 7505TIP3   OH222478   5.106   0.996   2.891 -0.5566 -0.0294 -0.2638
 7505TIP3    H122479   5.167   0.989   2.817  0.6371 -1.6597  0.8036
 7505TIP3    H222480   5.156   1.045   2.958 -1.4744  1.0835 -0.3688
 7506TIP3   OH222481   0.228   4.582   3.864 -0.0942 -0.5164 -0.1462
 7506TIP3    H122482   0.280   4.639   3.920 -2.0534  0.7478  0.5230
 7506TIP3    H222483   0.253   4.606   3.775 -1.3300  1.9931  0.0896
 7507TIP3   OH222484   6.301   5.344   2.348 -0.1475  0.0149 -0.0109
 7507TIP3    H122485   6.290   5.372   2.439 -0.1235  2.0701 -0.5840
 7507TIP3    H222486   6.230   5.282   2.332 -0.9061  0.5967  1.0435
 7508TIP3   OH222487   1.265   5.533   4.584  0.1622 -0.0911  0.3318
 7508TIP3    H122488   1.273   5.458   4.643 -0.5893  0.2410  0.8612
 7508TIP3    H222489   1.352   5.540   4.544  0.4775 -0.7478  0.8742
 7509TIP3   OH222490   5.942   0.262   1.921 -0.4501  0.0645  0.4928
 7509TIP3    H122491   5.998   0.339   1.912  1.5301 -1.1883  1.4952
 7509TIP3    H222492   5.892   0.278   2.001  0.7943 -0.1604  1.3390
 7510TIP3   OH222493   4.608   5.155   1.882 -0.1894 -0.0014  0.6730
 7510TIP3    H122494   4.635   5.083   1.938 -2.0096 -0.2870  1.2156
 7510TIP3    H222495   4.538   5.120   1.828 -0.9321  1.2655  0.7613
 7511TIP3   OH222496   2.279   4.453   4.118  0.6079  0.8196 -0.2653
 7511TIP3    H122497   2.266   4.358   4.124  0.4226  0.8406 -0.3226
 7511TIP3    H222498   2.236   4.477   4.036  3.5025  0.4567 -2.0326
 7512TIP3   OH222499   5.436   2.304   4.287  0.0866 -0.3103  0.0057
 7512TIP3    H122500   5.457   2.299   4.380 -0.7996 -1.0034  0.1825
 7512TIP3    H222501   5.517   2.333   4.245  0.6697 -0.5916  0.9215
 7513TIP3   OH222502   0.069   1.754   5.213 -0.2038 -0.0043 -0.2675
 7513TIP3    H122503   0.049   1.845   5.192 -1.2285 -0.1554 -0.0139
 7513TIP3    H222504   0.162   1.754   5.232  0.0965  0.7339 -1.6021
 7514TIP3   OH222505   7.156   1.952   4.564 -0.3409 -0.8530  0.1347
 7514TIP3    H122506   7.187   2.028   4.515 -0.6190 -0.1679  0.9888
 7514TIP3    H222507   7.098   1.906   4.503 -1.2291  0.3619  0.0195
 7515TIP3   OH222508   5.746   3.248   4.156  0.0477 -0.7089 -0.3360
 7515TIP3    H122509   5.794   3.245   4.073  0.1666 -0.6836 -0.2682
 7515TIP3    H222510   5.727   3.156   4.176  0.5577 -0.7624 -0.0796
 7516TIP3   OH222511   4.474   4.580   4.285 -0.2930  0.2613 -0.1056
 7516TIP3    H122512   4.454   4.514   4.351  1.9723  0.9287  1.3772
 7516TIP3    H222513   4.420   4.656   4.309  0.6553  0.5667  1.1481
 7517TIP3   OH222514   4.343   5.523   3.921 -0.3107  0.0248  0.1589
 7517TIP3    H122515   4.412   5.569   3.873 -1.5341  0.3815 -1.3886
 7517TIP3    H222516   4.314   5.585   3.987  2.5437 -1.0820  2.6585
 7518TIP3   OH222517   5.411   1.177   4.400  0.1743 -0.5552  0.9374
 7518TIP3    H122518   5.416   1.137   4.487  0.2087 -2.1986  0.2149
 7518TIP3    H222519   5.464   1.257   4.407  0.9901 -1.1784  2.1459
 7519TIP3   OH222520   5.422   3.678   0.980  0.3330  0.3731 -0.4250
 7519TIP3    H122521   5.490   3.611   0.973  1.0254  0.9319  0.7935
 7519TIP3    H222522   5.393   3.691   0.889  2.1126  0.4036 -1.0265
 7520TIP3   OH222523   2.272   2.615   3.510  0.1473 -0.7047  0.4230
 7520TIP3    H122524   2.294   2.696   3.556  0.4982 -0.3815 -0.3045
 7520TIP3    H222525   2.177   2.622   3.495  0.1445 -0.5166  0.5216
 7521TIP3   OH222526   3.689   1.636   4.745  0.2889  0.1246 -0.2423
 7521TIP3    H122527   3.686   1.540   4.742 -0.1397  0.0185  2.0391
 7521TIP3    H222528   3.711   1.657   4.835  0.2926  2.1955 -0.6764
 7522TIP3   OH222529   5.644   1.587   1.085 -0.1215  0.3941 -0.5592
 7522TIP3    H122530   5.707   1.641   1.038 -0.2999  0.5881 -0.5746
 7522TIP3    H222531   5.652   1.501   1.045  0.2992  0.3582 -0.4062
 7523TIP3   OH222532   5.993   1.646   2.957  0.3745  0.6240 -0.0448
 7523TIP3    H122533   5.942   1.645   3.038  1.3871 -0.0745  0.6030
 7523TIP3    H222534   5.998   1.739   2.934  0.2774  0.8524  0.8145
 7524TIP3   OH222535   5.062   0.115   1.053 -0.4436 -0.2093 -0.3610
 7524TIP3    H122536   5.068   0.172   1.129 -0.6505  0.0632 -0.5478
 7524TIP3    H222537   5.152   0.109   1.021  0.0846 -2.2728  1.3061
 7525TIP3   OH222538   6.817   6.584   5.024 -0.0628 -0.0781  0.5703
 7525TIP3    H122539   6.826   6.544   4.937 -0.9858 -0.2029  0.5180
 7525TIP3    H222540   6.767   6.520   5.075  1.2762 -0.4235  1.4906
 7526TIP3   OH222541   0.705   0.568   3.656  0.3358  0.0744  0.2977
 7526TIP3    H122542   0.672   0.539   3.571  3.1916  1.7833 -1.5758
 7526TIP3    H222543   0.630   0.611   3.697 -0.7455  0.7896 -2.1859
 7527TIP3   OH222544   3.171   3.827   1.334  0.5683 -0.1115 -0.1301
 7527TIP3    H122545   3.113   3.848   1.261 -0.3800  1.1537  0.9307
 7527TIP3    H222546   3.255   3.809   1.293 -0.4612 -1.6811 -1.7012
 7528TIP3   OH222547   6.098   6.681   2.551 -0.1028 -0.1438 -0.9596
 7528TIP3    H122548   6.164   6.630   2.598  0.0834  0.5494 -0.4527
 7528TIP3    H222549   6.033   6.704   2.618 -0.6465 -0.4609 -1.3653
 7529TIP3   OH222550   2.863   6.285   4.059 -0.4827 -0.6990 -0.0761
 7529TIP3    H122551   2.823   6.361   4.017 -0.5045 -0.3750  0.5272
 7529TIP3    H222552   2.791   6.222   4.068 -0.6489 -0.4761  0.1599
 7530TIP3   OH222553   2.977   4.155   5.827  0.3980  0.0083 -0.0892
 7530TIP3    H122554   2.961   4.068   5.862  0.6062 -0.6831 -1.6281
 7530TIP3    H222555   2.890   4.189   5.805  0.2296  0.6113  1.4004
 7531TIP3   OH222556   2.153   4.267   1.678 -0.0470 -0.5716 -0.2195
 7531TIP3    H122557   2.184   4.214   1.751 -0.3598  0.0941  0.4023
 7531TIP3    H222558   2.183   4.356   1.698  0.1425 -0.4354 -1.0642
 7532TIP3   OH222559   4.900   5.438   0.618  0.1033  0.3646 -0.0978
 7532TIP3    H122560   4.893   5.410   0.709  1.0913 -0.1981 -0.1822
 7532TIP3    H222561   4.990   5.416   0.593 -0.3814 -0.1995 -1.4380
 7533TIP3   OH222562   2.583   5.780   4.010  0.2552 -0.0724  0.1973
 7533TIP3    H122563   2.565   5.737   3.927 -0.2143  1.5234 -0.5729
 7533TIP3    H222564   2.516   5.746   4.070  0.4147 -1.0038 -0.1444
 7534TIP3   OH222565   0.367   0.289   1.344  0.1984  0.6313 -0.0363
 7534TIP3    H122566   0.448   0.326   1.310  0.2691 -1.0700 -1.9282
 7534TIP3    H222567   0.303   0.360   1.336  0.1385  0.3618 -4.2293
 7535TIP3   OH222568   5.462   2.050   2.805 -0.6173  0.5576  0.1506
 7535TIP3    H122569   5.429   1.981   2.749 -1.5780  1.1410 -0.0220
 7535TIP3    H222570   5.466   2.127   2.749  1.9700  0.3468 -0.1115
 7536TIP3   OH222571   6.935   5.901   2.156 -0.7811  0.3629  0.2131
 7536TIP3    H122572   6.867   5.835   2.171 -1.8813  1.4009 -0.0685
 7536TIP3    H222573   7.000   5.884   2.224 -1.6561 -0.2167  0.9303
 7537TIP3   OH222574   4.668   1.903   1.599 -0.1084 -0.1579  0.6026
 7537TIP3    H122575   4.732   1.866   1.537 -0.8690  0.5152 -0.6221
 7537TIP3    H222576   4.607   1.831   1.616  0.5765 -0.6000  1.2480
 7538TIP3   OH222577   4.964   3.416   4.523 -0.3390 -0.2116  0.4687
 7538TIP3    H122578   4.928   3.415   4.612  0.1376 -1.2527  0.6638
 7538TIP3    H222579   5.000   3.328   4.510 -1.9042 -0.6288 -1.4066
 7539TIP3   OH222580   0.663   4.256   5.690  0.1935  0.0212  0.0457
 7539TIP3    H122581   0.709   4.325   5.642  1.2184 -0.9403 -0.4108
 7539TIP3    H222582   0.729   4.187   5.701 -0.8420 -0.9448  0.3602
 7540TIP3   OH222583   2.189   6.245   3.677  0.3042  0.1130  0.1921
 7540TIP3    H122584   2.101   6.211   3.659  0.3945 -1.1512  1.8586
 7540TIP3    H222585   2.179   6.297   3.757  0.8268  1.1456 -0.4018
 7541TIP3   OH222586   3.977   2.671   0.634  0.6419  0.2247  0.1027
 7541TIP3    H122587   4.049   2.622   0.594  0.5006 -0.1425  0.2882
 7541TIP3    H222588   3.899   2.643   0.585  0.6038  0.5177 -0.0083
 7542TIP3   OH222589   3.355   3.212   0.974  0.3164 -0.0269 -0.0503
 7542TIP3    H122590   3.427   3.213   1.037  1.6690  0.8279 -1.5095
 7542TIP3    H222591   3.398   3.226   0.889 -1.4979 -0.3889 -1.0841
 7543TIP3   OH222592   5.963   2.143   0.624  0.2065 -0.0807  0.1170
 7543TIP3    H122593   5.892   2.102   0.673 -0.2838  1.6073  0.8963
 7543TIP3    H222594   5.921   2.213   0.574  1.0690 -0.2239 -0.8452
 7544TIP3   OH222595   4.867   4.764   2.662 -0.2477 -0.6991  0.3573
 7544TIP3    H122596   4.891   4.675   2.684 -0.1262 -0.2877  2.0327
 7544TIP3    H222597   4.946   4.803   2.626 -0.0938 -1.0552  0.3150
 7545TIP3   OH222598   1.238   1.178   0.230 -0.6801 -0.1196 -0.5750
 7545TIP3    H122599   1.321   1.206   0.191 -0.1394 -1.8502 -0.7706
 7545TIP3    H222600   1.172   1.200   0.165 -0.6761  2.9121  0.3203
 7546TIP3   OH222601   1.980   1.559   2.724 -0.5396 -0.0675  0.2672
 7546TIP3    H122602   1.956   1.469   2.746 -0.0556 -0.6084 -1.2955
 7546TIP3    H222603   1.897   1.602   2.703 -0.8110 -0.0161  1.3385
 7547TIP3   OH222604   4.828   5.612   0.400  0.6989 -0.1814  0.2667
 7547TIP3    H122605   4.749   5.561   0.382 -0.2439  0.9005  1.1431
 7547TIP3    H222606   4.866   5.570   0.477 -0.6353  0.9449  1.6256
 7548TIP3   OH222607   0.391   0.074   0.012  0.2224  0.3295  0.4154
 7548TIP3    H122608   0.426   0.007   0.071  0.2621 -0.0186  0.0105
 7548TIP3    H222609   0.348   0.137   0.069  2.5488  1.4427  1.0656
 7549TIP3   OH222610   5.568   1.552   4.025  0.6150 -0.4359 -0.4951
 7549TIP3    H122611   5.662   1.568   4.022  0.2161  2.2535 -2.7434
 7549TIP3    H222612   5.529   1.639   4.029 -1.8237 -1.4678  0.1948
 7550TIP3   OH222613   1.124   0.252   5.294 -0.6907 -0.0809 -0.3094
 7550TIP3    H122614   1.106   0.277   5.203  0.5567  0.9685 -0.3058
 7550TIP3    H222615   1.084   0.321   5.346  0.1220  0.2826 -0.1540
 7551TIP3   OH222616   6.813   2.942   1.055  0.2317 -0.9949 -0.1830
 7551TIP3    H122617   6.726   2.937   1.015  0.7224 -0.1546 -1.4379
 7551TIP3    H222618   6.840   2.851   1.066 -1.6450 -1.3467  2.2312
 7552TIP3   OH222619   4.213   3.303   1.382 -0.0119  0.2673 -0.3446
 7552TIP3    H122620   4.301   3.271   1.359  0.7616  1.4001  0.8783
 7552TIP3    H222621   4.219   3.323   1.475 -1.8071 -0.2959 -0.0844
 7553TIP3   OH222622   5.521   2.199   4.536 -0.3570 -0.2819  0.5422
 7553TIP3    H122623   5.597   2.165   4.583 -1.1909 -2.1755  0.5991
 7553TIP3    H222624   5.448   2.188   4.596 -0.7118  1.6029  0.5279
 7554TIP3   OH222625   3.553   0.462   1.551  0.0592 -0.3668 -0.1220
 7554TIP3    H122626   3.544   0.373   1.584 -2.1594  0.3945  1.5845
 7554TIP3    H222627   3.610   0.454   1.475 -0.3590 -3.2695 -0.2381
 7555TIP3   OH222628   5.982   5.699   2.714 -0.1457  0.1032  0.2606
 7555TIP3    H122629   6.001   5.669   2.803  0.9324 -1.5396 -0.4811
 7555TIP3    H222630   5.904   5.651   2.689 -0.9025  1.1385  0.5590
 7556TIP3   OH222631   5.394   2.680   1.935 -0.5700  0.3138  0.1062
 7556TIP3    H122632   5.360   2.686   1.845 -1.4774 -0.2753  0.3965
 7556TIP3    H222633   5.429   2.767   1.953 -1.7891  0.9084 -0.2706
 7557TIP3   OH222634   2.824   5.859   0.756  0.3409  0.1103 -0.6136
 7557TIP3    H122635   2.919   5.853   0.745  0.2560 -0.3411 -1.1573
 7557TIP3    H222636   2.811   5.931   0.817  1.2926 -2.9579  3.6741
 7558TIP3   OH222637   2.553   5.085   3.642  0.1222  0.1654  0.8715
 7558TIP3    H122638   2.495   5.106   3.569  0.6422  1.1955  0.7287
 7558TIP3    H222639   2.515   5.131   3.717 -0.4264 -0.9107  1.2838
 7559TIP3   OH222640   0.054   5.230   0.938  0.0833  0.4534 -0.1361
 7559TIP3    H122641   0.133   5.234   0.992  1.5190 -0.7116 -2.0169
 7559TIP3    H222642   0.029   5.138   0.940  0.4479  0.2913 -1.7570
 7560TIP3   OH222643   6.792   4.411   3.441  0.3535  0.4762 -0.4350
 7560TIP3    H122644   6.750   4.487   3.482 -0.2859 -0.1153  0.0330
 7560TIP3    H222645   6.855   4.381   3.506 -1.2856 -1.0048  0.5652
 7561TIP3   OH222646   1.748   5.981   3.774 -0.0012  0.1658 -0.1486
 7561TIP3    H122647   1.667   6.002   3.820  0.0429  0.1971 -0.0859
 7561TIP3    H222648   1.735   5.891   3.745  1.6642 -1.5431  3.6865
 7562TIP3   OH222649   3.075   4.720   2.458 -0.2563 -0.1218 -0.2276
 7562TIP3    H122650   3.117   4.746   2.376  0.5616  0.4896  0.3765
 7562TIP3    H222651   2.981   4.730   2.441 -0.0629  0.7054 -0.8513
 7563TIP3   OH222652   1.574   4.512   4.447  0.2517  0.0235 -0.1759
 7563TIP3    H122653   1.653   4.459   4.458 -1.4080 -2.3546  1.2107
 7563TIP3    H222654   1.570   4.532   4.354  2.0001 -0.5985 -0.4110
 7564TIP3   OH222655   3.055   3.414   2.969  0.5087 -1.1624  0.3283
 7564TIP3    H122656   3.022   3.399   3.057 -0.5184  0.2699  0.2196
 7564TIP3    H222657   2.976   3.427   2.916  1.1421  1.1948 -0.1573
 7565TIP3   OH222658   4.173   6.251   3.210  0.9510 -0.9091 -0.0016
 7565TIP3    H122659   4.104   6.305   3.250  1.2319 -0.7568  0.2773
 7565TIP3    H222660   4.125   6.188   3.156  0.6267  0.0870 -0.9205
 7566TIP3   OH222661   6.034   1.611   2.138 -0.2484  0.0300  0.0622
 7566TIP3    H122662   6.118   1.565   2.149 -0.5300 -0.8494 -1.1671
 7566TIP3    H222663   6.054   1.703   2.156  1.4372  0.1307 -1.9607
 7567TIP3   OH222664   2.150   6.394   3.894  0.2943 -0.0692  0.3623
 7567TIP3    H122665   2.211   6.468   3.897  0.3075 -0.1090  1.8397
 7567TIP3    H222666   2.086   6.414   3.963 -0.8181 -0.4982 -0.5201
 7568TIP3   OH222667   4.330   3.927   4.222 -0.4818  0.2653 -0.1704
 7568TIP3    H122668   4.338   4.005   4.166  0.6098 -0.3274 -0.8893
 7568TIP3    H222669   4.360   3.956   4.308  1.4671  0.3019 -0.7944
 7569TIP3   OH222670   4.407   1.487   0.199 -0.2692 -0.3666 -0.0616
 7569TIP3    H122671   4.388   1.401   0.237  0.1198  0.3861  1.9884
 7569TIP3    H222672   4.336   1.503   0.137 -0.5002 -2.0252 -0.2661
 7570TIP3   OH222673   7.072   2.703   2.017 -0.0936 -0.0013  0.0677
 7570TIP3    H122674   7.148   2.685   2.072  0.9538 -0.1830 -1.3672
 7570TIP3    H222675   7.082   2.643   1.943 -2.3746 -0.9846  0.4836
 7571TIP3   OH222676   1.513   3.041   0.654 -0.5364 -0.7306  0.1558
 7571TIP3    H122677   1.440   3.041   0.716  1.6953 -0.2044  3.0111
 7571TIP3    H222678   1.549   2.952   0.658  0.8179 -0.1674  1.2173
 7572TIP3   OH222679   5.674   3.012   4.885  0.1040  0.4801 -0.0725
 7572TIP3    H122680   5.712   3.032   4.971 -1.4218 -0.8393  0.9570
 7572TIP3    H222681   5.681   2.916   4.877 -0.8495  0.4601 -0.8930
 7573TIP3   OH222682   4.028   0.312   2.065 -0.1993  0.1600  0.0377
 7573TIP3    H122683   4.020   0.333   1.972  1.3685  0.7761  0.0115
 7573TIP3    H222684   3.941   0.282   2.090 -0.7208  0.2280 -1.5638
 7574TIP3   OH222685   4.419   5.171   5.739  0.3101  0.2226 -0.4663
 7574TIP3    H122686   4.335   5.126   5.736 -0.1335  1.0565 -0.9415
 7574TIP3    H222687   4.461   5.138   5.818 -1.1600  0.9815  0.6864
 7575TIP3   OH222688   7.134   1.137   5.567 -0.0768 -0.4864  0.2387
 7575TIP3    H122689   7.224   1.106   5.570  0.5495  0.7379 -2.6705
 7575TIP3    H222690   7.083   1.059   5.543  0.5172 -0.7666 -0.1352
 7576TIP3   OH222691   4.381   1.338   3.853 -0.2571 -0.2136  0.2905
 7576TIP3    H122692   4.458   1.316   3.904 -0.7713  0.0259  1.1938
 7576TIP3    H222693   4.361   1.428   3.877 -0.4756 -0.0756 -0.3818
 7577TIP3   OH222694   5.304   6.331   4.142 -0.1014  0.1518  0.4565
 7577TIP3    H122695   5.249   6.305   4.216  0.1251  3.2774  1.8878
 7577TIP3    H222696   5.254   6.304   4.065 -1.4767 -1.0956  1.7107
 7578TIP3   OH222697   6.002   0.844   2.060 -0.4220 -0.6638 -0.5221
 7578TIP3    H122698   5.947   0.827   1.983 -1.5295 -2.6648  0.6304
 7578TIP3    H222699   5.960   0.796   2.131 -0.1083  2.0581  1.6801
 7579TIP3   OH222700   4.089   0.615   1.162  0.2365 -0.0855 -0.7420
 7579TIP3    H122701   4.147   0.639   1.235  1.8786  0.3589 -2.1307
 7579TIP3    H222702   4.006   0.657   1.183 -0.0929 -1.8286  1.9840
 7580TIP3   OH222703   4.220   1.785   5.829 -0.1525 -0.0947  0.2933
 7580TIP3    H122704   4.274   1.709   5.850  0.7632  0.3652 -0.3718
 7580TIP3    H222705   4.143   1.748   5.785 -1.1888 -0.8971  2.5865
 7581TIP3   OH222706   5.117   0.485   1.528 -0.0133  0.0147 -0.3736
 7581TIP3    H122707   5.090   0.475   1.619  0.5762  0.3573 -0.1554
 7581TIP3    H222708   5.040   0.519   1.483 -0.6091 -1.0439 -0.1996
 7582TIP3   OH222709   4.967   2.321   5.552 -0.0593 -0.0364 -0.5733
 7582TIP3    H122710   4.945   2.232   5.525 -0.2532 -0.2147  0.1372
 7582TIP3    H222711   5.063   2.323   5.549  0.0970 -1.0331  1.6155
 7583TIP3   OH222712   2.092   6.209   5.422 -0.5778 -0.2214 -0.5451
 7583TIP3    H122713   2.135   6.274   5.366  0.4231 -0.8754 -0.5572
 7583TIP3    H222714   2.016   6.255   5.458  0.5850  1.2309  0.1417
 7584TIP3   OH222715   3.122   0.546   4.699  0.5006  0.1121  0.1483
 7584TIP3    H122716   3.073   0.516   4.775 -1.2587  1.7627 -0.2579
 7584TIP3    H222717   3.193   0.483   4.690 -0.1126 -0.9737  2.2472
 7585TIP3   OH222718   0.997   5.122   0.929  0.2538 -0.7887 -0.7180
 7585TIP3    H122719   0.941   5.058   0.886 -0.4111 -0.4901 -0.3137
 7585TIP3    H222720   1.056   5.153   0.860 -0.6288 -0.5042 -1.3570
 7586TIP3   OH222721   7.049   6.583   5.178 -0.2178 -0.2771 -0.7075
 7586TIP3    H122722   7.058   6.676   5.200 -1.3013 -0.2584 -0.3070
 7586TIP3    H222723   6.969   6.578   5.126 -1.7905 -1.3561  1.6671
 7587TIP3   OH222724   0.287   5.937   0.648 -0.1188  0.5717  0.2904
 7587TIP3    H122725   0.287   6.032   0.660 -2.9907  0.8697 -1.2809
 7587TIP3    H222726   0.201   5.908   0.678  0.2484 -1.3802 -0.3503
 7588TIP3   OH222727   2.764   4.820   4.945  0.0119 -0.7923  0.5331
 7588TIP3    H122728   2.690   4.879   4.938 -0.1180 -1.0704 -0.5415
 7588TIP3    H222729   2.763   4.792   5.037  0.4219  1.2841  1.2258
 7589TIP3   OH222730   2.817   4.027   0.807 -0.0788 -0.1918  0.8455
 7589TIP3    H122731   2.830   4.094   0.874 -0.9022  1.8372 -0.9109
 7589TIP3    H222732   2.779   4.074   0.733 -2.6030 -2.9762  0.1888
 7590TIP3   OH222733   4.418   6.663   1.896  0.0709  0.0600  0.1043
 7590TIP3    H122734   4.412   6.694   1.805 -0.0150 -0.2854 -0.0105
 7590TIP3    H222735   4.512   6.651   1.911  0.0886  0.1621  0.0762
 7591TIP3   OH222736   3.118   0.774   1.086 -0.0095 -0.0328 -0.1430
 7591TIP3    H122737   3.165   0.700   1.049 -1.5444 -1.3469  0.4351
 7591TIP3    H222738   3.186   0.833   1.117  1.2557 -1.7329  0.4184
 7592TIP3   OH222739   3.759   0.397   1.023 -0.0837 -0.0920 -0.0968
 7592TIP3    H122740   3.845   0.424   0.993 -0.6294  0.5100 -1.1570
 7592TIP3    H222741   3.720   0.352   0.948 -2.0917  2.8506 -0.9909
 7593TIP3   OH222742   5.243   4.678   4.173  0.1792 -0.0181 -0.5146
 7593TIP3    H122743   5.164   4.720   4.139 -1.0486 -0.7013  1.3037
 7593TIP3    H222744   5.211   4.620   4.243  2.4515  1.2396  1.7413
 7594TIP3   OH222745   1.265   3.498   1.267 -0.2349  0.0672  0.5614
 7594TIP3    H122746   1.346   3.491   1.318  0.2854 -1.2518 -0.3820
 7594TIP3    H222747   1.195   3.486   1.331  0.3753 -0.7136  1.1039
 7595TIP3   OH222748   4.639   5.560   2.768 -0.4875 -0.2273  0.1512
 7595TIP3    H122749   4.609   5.510   2.692  0.7355  0.8616 -1.1074
 7595TIP3    H222750   4.585   5.528   2.840 -1.2606 -1.7559 -1.0324
 7596TIP3   OH222751   3.711   5.505   1.470 -0.4958 -0.3294  0.5138
 7596TIP3    H122752   3.754   5.494   1.385 -0.1688  1.3900  0.4274
 7596TIP3    H222753   3.777   5.480   1.534 -0.2538 -0.2180  0.3060
 7597TIP3   OH222754   3.392   0.488   1.241  0.2021 -0.6591  0.5256
 7597TIP3    H122755   3.307   0.464   1.277 -0.9336  3.7425  1.4759
 7597TIP3    H222756   3.375   0.505   1.148  1.3908 -4.6404 -0.5884
 7598TIP3   OH222757   1.044   2.810   1.893  0.5682 -0.2849  0.1200
 7598TIP3    H122758   1.088   2.729   1.867 -1.8831 -1.3529 -1.0224
 7598TIP3    H222759   1.020   2.852   1.810 -0.3881  0.3220  0.6807
 7599TIP3   OH222760   1.882   1.309   3.345 -0.7154 -0.2511 -0.3602
 7599TIP3    H122761   1.886   1.290   3.439  0.4476 -0.9960 -0.5333
 7599TIP3    H222762   1.954   1.370   3.329 -0.6785 -0.4071 -0.8260
 7600TIP3   OH222763   0.665   5.456   5.654 -0.6392 -0.2827  0.0021
 7600TIP3    H122764   0.699   5.417   5.573  0.0615 -1.5533  0.8819
 7600TIP3    H222765   0.698   5.546   5.651 -1.4040 -0.0181 -1.5576
 7601TIP3   OH222766   6.092   1.436   1.748  0.0717  0.5795  0.2686
 7601TIP3    H122767   6.100   1.354   1.701 -1.9277  0.3890  0.1672
 7601TIP3    H222768   6.033   1.417   1.821  2.6902  0.9892  2.6555
 7602TIP3   OH222769   3.578   5.995   1.466 -0.4896  0.3237 -0.1955
 7602TIP3    H122770   3.497   5.945   1.475 -0.0048 -0.3788  0.3501
 7602TIP3    H222771   3.553   6.085   1.488 -1.1016  0.1080  0.0161
 7603TIP3   OH222772   3.328   6.323   4.105  0.1310  0.7761 -0.1209
 7603TIP3    H122773   3.382   6.271   4.164 -1.6805 -1.3775 -0.1942
 7603TIP3    H222774   3.302   6.399   4.157  0.6749  0.2343  0.9824
 7604TIP3   OH222775   4.502   0.116   4.704  0.6436 -0.6713 -0.3044
 7604TIP3    H122776   4.524   0.116   4.611  6.3219 -0.3927  0.6917
 7604TIP3    H222777   4.486   0.209   4.724 -1.6598 -0.8509 -1.0606
 7605TIP3   OH222778   3.716   4.692   5.354 -0.4880 -0.6002  0.2095
 7605TIP3    H122779   3.641   4.738   5.318  0.7880  0.5326 -1.1307
 7605TIP3    H222780   3.707   4.602   5.320 -0.3747 -0.0532 -1.3339
 7606TIP3   OH222781   6.559   5.202   2.896 -0.0378  0.1942 -0.1859
 7606TIP3    H122782   6.633   5.166   2.945  0.8288 -0.2962 -1.7924
 7606TIP3    H222783   6.492   5.135   2.901  0.3113 -0.1639 -0.2792
 7607TIP3   OH222784   6.730   0.524   2.227  0.3224 -0.0999 -0.1836
 7607TIP3    H122785   6.775   0.440   2.226  0.4748 -0.0400  0.7172
 7607TIP3    H222786   6.703   0.536   2.318  2.0826  1.7482  0.1696
 7608TIP3   OH222787   5.623   0.982   3.962 -0.5051 -0.0726  0.3225
 7608TIP3    H122788   5.633   1.054   4.025  0.6699 -1.6728  2.0506
 7608TIP3    H222789   5.688   1.001   3.894 -0.4939  0.7092  0.5379
 7609TIP3   OH222790   2.495   0.783   1.540  0.3751 -0.6152 -0.0062
 7609TIP3    H122791   2.520   0.726   1.469 -0.5974 -0.2929 -0.6357
 7609TIP3    H222792   2.419   0.740   1.580  0.6796 -0.6048  0.5943
 7610TIP3   OH222793   7.093   3.608   4.017  0.3728 -0.1249  0.0735
 7610TIP3    H122794   7.110   3.519   4.046 -0.3776 -0.9886 -1.9940
 7610TIP3    H222795   7.143   3.618   3.936 -0.9793  0.6756 -0.7090
 7611TIP3   OH222796   0.867   1.166   3.548  0.2654  0.1315  0.5182
 7611TIP3    H122797   0.782   1.153   3.505 -0.0190 -1.0904  1.4224
 7611TIP3    H222798   0.908   1.236   3.497 -1.8286  1.7457  0.8575
 7612TIP3   OH222799   4.610   1.100   0.467  0.4220 -0.3897 -0.4117
 7612TIP3    H122800   4.637   1.191   0.451 -3.0595  0.7748 -0.5374
 7612TIP3    H222801   4.526   1.108   0.512 -0.0186 -3.5694 -0.4813
 7613TIP3   OH222802   5.136   4.237   0.939  0.1997  0.4789 -0.2299
 7613TIP3    H122803   5.064   4.188   0.899  0.7790 -0.3562 -0.2777
 7613TIP3    H222804   5.094   4.290   1.007 -0.5264  0.4034 -0.6064
 7614TIP3   OH222805   3.673   1.241   0.135  0.4515 -0.0870 -0.0278
 7614TIP3    H122806   3.592   1.204   0.170 -0.1007  0.5164 -0.6405
 7614TIP3    H222807   3.709   1.293   0.207 -0.0387  0.1617  0.0426
 7615TIP3   OH222808   5.121   0.827   5.370 -0.3319 -0.0299  0.3862
 7615TIP3    H122809   5.054   0.804   5.435 -0.7819 -0.4267 -0.2044
 7615TIP3    H222810   5.071   0.855   5.294  0.1702 -0.4676 -0.1132
 7616TIP3   OH222811   4.562   0.863   0.077 -0.1091  0.1163 -0.5517
 7616TIP3    H122812   4.536   0.773   0.097  0.7322  0.0559  0.3266
 7616TIP3    H222813   4.633   0.882   0.138  1.4181  0.5284 -2.3353
 7617TIP3   OH222814   2.266   4.514   5.275  0.2111 -0.3397 -0.0758
 7617TIP3    H122815   2.275   4.467   5.192 -3.1794  0.3284 -1.0088
 7617TIP3    H222816   2.197   4.466   5.322 -0.7140  1.5317  0.5667
 7618TIP3   OH222817   2.758   6.624   4.322 -0.3109  0.0101  0.0379
 7618TIP3    H122818   2.839   6.606   4.273 -0.3217  1.4198 -0.5324
 7618TIP3    H222819   2.774   6.708   4.365 -1.3168  0.0898  0.2817
 7619TIP3   OH222820   4.890   4.523   3.510  0.3387 -0.3812  0.2750
 7619TIP3    H122821   4.828   4.547   3.578  0.9244  0.0067  0.6801
 7619TIP3    H222822   4.840   4.530   3.428 -0.4815 -1.2651  0.6921
 7620TIP3   OH222823   2.905   5.084   0.564 -0.6062  0.5484  0.1042
 7620TIP3    H122824   2.832   5.023   0.555 -0.8432  0.9707 -1.0595
 7620TIP3    H222825   2.934   5.100   0.474  1.2930 -0.0345  0.5624
 7621TIP3   OH222826   1.537   4.666   4.662 -0.4071 -0.6495  0.8168
 7621TIP3    H122827   1.542   4.623   4.577 -1.5976  0.8496 -0.0738
 7621TIP3    H222828   1.628   4.675   4.691  0.0767 -0.4198 -0.7134
 7622TIP3   OH222829   1.566   3.724   5.730  0.7137 -0.3012 -0.7605
 7622TIP3    H122830   1.596   3.648   5.780  0.6149  0.1371 -0.0272
 7622TIP3    H222831   1.504   3.688   5.667 -0.4601 -0.6512  0.5507
 7623TIP3   OH222832   1.891   3.621   5.236 -0.1502 -0.4023  0.0656
 7623TIP3    H122833   1.925   3.697   5.283 -0.3059  0.2184 -0.8046
 7623TIP3    H222834   1.929   3.628   5.149 -0.8639 -0.8423 -0.2864
 7624TIP3   OH222835   6.708   6.550   0.598 -0.4237 -0.5177 -0.2258
 7624TIP3    H122836   6.745   6.638   0.590 -0.8030 -0.2482  0.7785
 7624TIP3    H222837   6.771   6.502   0.653 -0.3992 -0.7636 -0.4657
 7625TIP3   OH222838   6.641   0.422   2.967  0.5171  0.2624 -0.3089
 7625TIP3    H122839   6.632   0.500   2.911  0.0353 -0.5172 -1.3520
 7625TIP3    H222840   6.618   0.453   3.055 -1.5541  0.8862 -1.0180
 7626TIP3   OH222841   5.695   6.496   4.605 -0.7563 -0.0350  0.2144
 7626TIP3    H122842   5.602   6.517   4.595 -1.1524 -1.6734  0.1238
 7626TIP3    H222843   5.697   6.400   4.605  0.8586 -0.0154  0.9953
 7627TIP3   OH222844   7.137   0.266   4.931 -0.2700  0.0555  0.0063
 7627TIP3    H122845   7.109   0.215   4.855 -0.2916 -0.6832  0.5046
 7627TIP3    H222846   7.197   0.209   4.978  0.9216  1.0757 -0.2406
 7628TIP3   OH222847   0.455   3.623   4.426  0.5011  0.1245  0.1894
 7628TIP3    H122848   0.512   3.636   4.350 -1.5224 -0.2661 -1.4778
 7628TIP3    H222849   0.375   3.671   4.405 -1.3704 -2.5961  0.5602
 7629TIP3   OH222850   4.976   1.867   3.624  0.0923  0.0744  0.0395
 7629TIP3    H122851   5.029   1.946   3.615 -0.4907  0.2784 -2.0500
 7629TIP3    H222852   4.898   1.894   3.672  0.0519  0.6926 -0.3717
 7630TIP3   OH222853   1.223   6.042   2.062  0.1514 -0.5611  0.6182
 7630TIP3    H122854   1.252   6.119   2.111 -0.3378  0.2667 -0.3615
 7630TIP3    H222855   1.136   6.024   2.096  0.4726 -1.0286  1.2239
 7631TIP3   OH222856   5.024   2.751   2.150  0.0985  0.0886  0.6799
 7631TIP3    H122857   5.020   2.783   2.060 -0.0663 -1.2535  0.2023
 7631TIP3    H222858   5.107   2.705   2.157 -0.2470 -0.5088  0.9713
 7632TIP3   OH222859   3.917   4.166   5.421 -0.1827  0.0449  0.6244
 7632TIP3    H122860   3.825   4.150   5.399  0.1041  0.6385 -1.1841
 7632TIP3    H222861   3.915   4.206   5.508 -1.4867 -1.5690  1.4026
 7633TIP3   OH222862   2.509   5.054   4.170 -0.1737 -0.6599 -0.1272
 7633TIP3    H122863   2.457   4.985   4.212 -0.0500 -0.5635  0.1904
 7633TIP3    H222864   2.445   5.117   4.138 -0.3514 -1.4924 -1.4528
 7634TIP3   OH222865   5.259   2.839   4.467 -0.1175  0.1582 -0.1820
 7634TIP3    H122866   5.178   2.792   4.447 -0.0601  0.0239 -0.0984
 7634TIP3    H222867   5.248   2.866   4.559 -0.7095  1.4328 -0.6053
 7635TIP3   OH222868   6.125   2.119   2.177  0.0875  0.0423  0.0030
 7635TIP3    H122869   6.075   2.200   2.187  0.4447  0.6279 -2.2996
 7635TIP3    H222870   6.059   2.052   2.165 -0.1919  0.3590 -0.2603
 7636TIP3   OH222871   1.484   5.024   0.459  0.0460 -0.2663  0.1585
 7636TIP3    H122872   1.513   5.000   0.547  1.6985 -1.2061 -0.6024
 7636TIP3    H222873   1.393   5.051   0.471 -0.9217 -3.6510  1.7016
 7637TIP3   OH222874   3.976   0.751   5.440 -0.2785  0.2398  0.2049
 7637TIP3    H122875   3.886   0.719   5.448 -0.4116  0.3181 -0.8897
 7637TIP3    H222876   3.967   0.844   5.421  0.0509  0.3491  0.5710
 7638TIP3   OH222877   1.617   6.710   4.739  0.5674  0.3038  0.2340
 7638TIP3    H122878   1.537   6.700   4.687 -0.0786 -0.4960  1.3442
 7638TIP3    H222879   1.668   6.775   4.692 -0.0219 -0.3438 -1.3582
 7639TIP3   OH222880   3.060   4.178   0.626  0.3762 -0.1898 -0.0210
 7639TIP3    H122881   2.973   4.210   0.603 -0.2597  1.0759  3.4767
 7639TIP3    H222882   3.047   4.085   0.645 -0.1340 -0.1024  0.0747
 7640TIP3   OH222883   4.904   3.374   5.651  0.4560 -0.7683 -0.8706
 7640TIP3    H122884   4.922   3.282   5.628  0.1425 -0.5710 -1.9939
 7640TIP3    H222885   4.947   3.387   5.735  0.8002 -1.8542 -0.8631
 7641TIP3   OH222886   5.628   5.734   1.685 -0.0476 -0.3156 -0.3913
 7641TIP3    H122887   5.553   5.699   1.635 -0.1953 -1.4005  0.5422
 7641TIP3    H222888   5.626   5.828   1.668 -0.2651 -0.6069 -2.1847
 7642TIP3   OH222889   5.380   2.301   2.222  0.0836 -0.1135  0.4047
 7642TIP3    H122890   5.311   2.270   2.164  0.6510 -1.8097  0.5726
 7642TIP3    H222891   5.449   2.235   2.215  0.8403  0.4774  1.7844
 7643TIP3   OH222892   5.800   5.377   5.754  0.6586 -0.1629  0.9007
 7643TIP3    H122893   5.778   5.292   5.792 -4.8685  1.3769  2.1079
 7643TIP3    H222894   5.854   5.420   5.820  1.6181 -1.8680  1.2767
 7644TIP3   OH222895   1.597   2.756   4.939  0.3181 -0.5501  0.2128
 7644TIP3    H122896   1.548   2.816   4.995  0.1932 -1.3966  1.0417
 7644TIP3    H222897   1.665   2.810   4.900 -1.6032  0.8013 -1.4408
 7645TIP3   OH222898   0.986   4.217   2.524  0.3976 -0.0961 -0.0382
 7645TIP3    H122899   0.950   4.177   2.444 -2.3555  1.3915  0.3037
 7645TIP3    H222900   1.006   4.307   2.498  0.7088  0.0384  0.6450
 7646TIP3   OH222901   3.449   5.013   4.042 -0.1009  0.0424 -0.3196
 7646TIP3    H122902   3.412   4.962   3.970  0.2122 -0.2804 -0.2564
 7646TIP3    H222903   3.450   5.103   4.010 -3.1761  0.4937  0.5638
 7647TIP3   OH222904   4.988   3.100   1.583 -0.0542  0.5976 -0.3329
 7647TIP3    H122905   4.969   3.043   1.509 -0.4885  1.1250 -0.6405
 7647TIP3    H222906   4.920   3.168   1.579 -0.2942  0.4467  0.7506
 7648TIP3   OH222907   4.219   4.998   5.764 -0.3526  0.1300  0.0845
 7648TIP3    H122908   4.137   4.987   5.813 -0.0073 -0.3423  0.5745
 7648TIP3    H222909   4.285   4.955   5.819 -0.1439 -1.4960 -1.3590
 7649TIP3   OH222910   2.554   3.273   5.463  0.1311  0.1076  0.0785
 7649TIP3    H122911   2.636   3.238   5.496  0.6442  1.7210  0.5885
 7649TIP3    H222912   2.488   3.208   5.488  1.0523 -0.5378  0.8749
 7650TIP3   OH222913   0.570   1.407   3.739  0.0340  0.2350 -0.1377
 7650TIP3    H122914   0.565   1.470   3.811 -0.4607  0.7797 -0.6369
 7650TIP3    H222915   0.635   1.343   3.768 -0.6324  0.0712  1.0735
 7651TIP3   OH222916   7.009   0.628   2.142  0.0865 -0.3700 -0.0588
 7651TIP3    H122917   7.067   0.572   2.194 -0.3520  0.4198  1.3549
 7651TIP3    H222918   6.922   0.590   2.154 -0.3211  0.9418  1.4765
 7652TIP3   OH222919   0.678   4.313   2.017 -0.2660 -0.1872 -0.2055
 7652TIP3    H122920   0.771   4.305   1.994 -0.1743 -0.0794  0.1230
 7652TIP3    H222921   0.639   4.231   1.988 -0.5482  0.6862 -2.5539
 7653TIP3   OH222922   5.659   0.684   0.937 -0.4383  0.8155 -0.0509
 7653TIP3    H122923   5.593   0.693   0.867  0.1466 -1.3243 -0.9547
 7653TIP3    H222924   5.697   0.772   0.944 -1.3483  1.3890 -1.5862
 7654TIP3   OH222925   6.846   1.179   3.191 -0.4940 -0.3583 -0.4070
 7654TIP3    H122926   6.916   1.127   3.230  0.6021  0.8699 -0.6283
 7654TIP3    H222927   6.805   1.122   3.126  0.5564 -0.9921 -0.5245
 7655TIP3   OH222928   4.329   2.699   0.848  0.4448  0.0305  0.1485
 7655TIP3    H122929   4.405   2.645   0.824 -0.0364 -0.3140 -0.6559
 7655TIP3    H222930   4.256   2.638   0.850 -0.3421  0.7940 -1.9646
 7656TIP3   OH222931   4.681   4.101   2.554  0.8003 -0.5382  0.3454
 7656TIP3    H122932   4.623   4.119   2.628 -1.0622 -2.0680 -0.6413
 7656TIP3    H222933   4.645   4.022   2.514  1.2660  0.6319 -2.6579
 7657TIP3   OH222934   6.382   6.792   4.153 -0.2299  0.3566  0.1143
 7657TIP3    H122935   6.445   6.853   4.115 -0.6457  0.7045 -0.0263
 7657TIP3    H222936   6.430   6.747   4.221  0.3931  0.0748 -0.4970
 7658TIP3   OH222937   2.765   0.659   4.663  0.3693 -0.1155  0.6235
 7658TIP3    H122938   2.710   0.592   4.704 -0.4055  0.2978  0.2657
 7658TIP3    H222939   2.708   0.735   4.653  1.3356  0.7386  1.3433
 7659TIP3   OH222940   5.090   4.932   2.567 -0.0177  0.0986  0.6192
 7659TIP3    H122941   5.111   5.017   2.606  1.5144 -0.7320  1.7375
 7659TIP3    H222942   5.175   4.886   2.564  0.0332  0.0917 -3.7882
 7660TIP3   OH222943   6.497   2.429   3.350  0.2233 -0.4143 -0.3966
 7660TIP3    H122944   6.585   2.450   3.381  1.1434 -1.5590 -2.1380
 7660TIP3    H222945   6.474   2.348   3.396  0.0417 -0.1048  0.0736
 7661TIP3   OH222946   1.942   3.333   3.038  0.7307 -0.4086  0.5599
 7661TIP3    H122947   1.979   3.314   2.951 -0.0794 -0.3130  0.1812
 7661TIP3    H222948   1.858   3.286   3.039 -0.6766  1.9333  0.1323
 7662TIP3   OH222949   3.190   4.043   0.070 -0.0637  0.2974  0.6165
 7662TIP3    H122950   3.187   3.950   0.046  1.5545  0.2097  0.6008
 7662TIP3    H222951   3.150   4.047   0.157 -2.0839 -0.0494 -0.2430
 7663TIP3   OH222952   6.984   0.526   3.600  0.0148 -0.3118  0.0342
 7663TIP3    H122953   6.987   0.450   3.659  0.6071 -0.7762 -0.5763
 7663TIP3    H222954   7.072   0.563   3.604 -0.0574 -0.1064 -0.2462
 7664TIP3   OH222955   4.207   6.590   3.988  0.3617  0.3028  0.2900
 7664TIP3    H122956   4.141   6.555   4.048 -0.9245  0.5084 -0.9685
 7664TIP3    H222957   4.166   6.588   3.902  0.9605  3.0421 -0.1512
 7665TIP3   OH222958   6.704   5.238   3.951 -0.0168 -0.0711  0.2499
 7665TIP3    H122959   6.786   5.272   3.986  0.7960 -1.1905 -0.5025
 7665TIP3    H222960   6.723   5.217   3.859 -1.5036  0.8488 -0.3135
 7666TIP3   OH222961   3.607   6.780   1.775 -0.2628 -0.5485  0.1504
 7666TIP3    H122962   3.657   6.816   1.702 -1.0364  0.0743 -0.0921
 7666TIP3    H222963   3.673   6.741   1.833  0.3635 -1.0124 -0.8446
 7667TIP3   OH222964   4.121   4.520   1.760  0.5829 -0.7516  0.0872
 7667TIP3    H122965   4.140   4.436   1.719 -0.1060 -0.6194 -0.5275
 7667TIP3    H222966   4.207   4.561   1.770  0.8542 -1.1988 -0.3295
 7668TIP3   OH222967   3.934   1.620   0.785  0.2360  0.0375  0.2487
 7668TIP3    H122968   3.856   1.639   0.838  1.6296  2.9689  1.4520
 7668TIP3    H222969   3.988   1.564   0.841 -0.0550 -0.2084  0.2863
 7669TIP3   OH222970   3.755   1.015   4.155  0.5269  0.0382  0.3267
 7669TIP3    H122971   3.817   0.954   4.114 -1.0035 -0.1494 -1.8736
 7669TIP3    H222972   3.675   0.963   4.166 -0.6544  1.4765 -1.1276
 7670TIP3   OH222973   1.045   1.692   2.937  0.2174 -0.1515  0.5615
 7670TIP3    H122974   1.091   1.687   3.021  2.9976  2.1945 -0.6485
 7670TIP3    H222975   1.034   1.785   2.921  0.9252 -0.4698 -2.2416
 7671TIP3   OH222976   6.045   6.189   5.100 -0.1851 -0.3478 -0.0073
 7671TIP3    H122977   6.078   6.271   5.137 -0.9389  0.0300 -0.1605
 7671TIP3    H222978   5.961   6.212   5.061  0.0255 -1.0078 -0.8687
 7672TIP3   OH222979   0.968   1.734   3.818  0.3522 -0.2033  0.7129
 7672TIP3    H122980   0.957   1.669   3.887  0.0813 -0.7790  0.1298
 7672TIP3    H222981   0.960   1.818   3.863 -1.0504 -0.5774  1.1878
 7673TIP3   OH222982   3.267   4.337   4.601  0.1679  0.1180 -0.7282
 7673TIP3    H122983   3.308   4.283   4.533  1.0107 -0.0537 -0.0937
 7673TIP3    H222984   3.178   4.302   4.608  0.4567 -0.6776 -0.8785
 7674TIP3   OH222985   3.944   0.428   1.338 -0.3451  0.1765 -0.1217
 7674TIP3    H122986   4.021   0.373   1.354  0.5013  1.2361 -0.3835
 7674TIP3    H222987   3.981   0.513   1.312 -1.6094  0.8560  0.2348
 7675TIP3   OH222988   3.287   4.128   5.006  1.3423 -0.7447 -0.2155
 7675TIP3    H122989   3.287   4.059   5.072  1.1506 -0.6895 -0.1575
 7675TIP3    H222990   3.288   4.080   4.923  0.5331 -0.8313 -0.1835
 7676TIP3   OH222991   4.291   0.281   4.856 -0.0405 -0.4414  0.5557
 7676TIP3    H122992   4.208   0.293   4.809 -0.5688 -0.1758  1.5391
 7676TIP3    H222993   4.275   0.205   4.912  0.7666 -1.0915 -0.0716
 7677TIP3   OH222994   6.641   5.334   4.260  0.5981 -0.5065  0.4435
 7677TIP3    H122995   6.735   5.314   4.268  0.5805 -0.5365  0.5897
 7677TIP3    H222996   6.602   5.253   4.229  1.0148  0.3282 -2.4999
 7678TIP3   OH222997   0.903   3.765   3.021 -0.2397 -0.0801  0.2073
 7678TIP3    H122998   0.964   3.837   3.005  0.0617  0.0625  1.8688
 7678TIP3    H222999   0.947   3.710   3.086 -1.4644 -0.5106  0.7083
 7679TIP3   OH223000   1.140   0.625   3.459  0.2957 -0.0837 -0.0963
 7679TIP3    H123001   1.209   0.561   3.474  0.5775  0.1272 -0.4697
 7679TIP3    H223002   1.098   0.636   3.544  0.9021 -0.0008  0.1922
 7680TIP3   OH223003   5.662   5.484   2.286 -0.4557 -0.4920  0.2680
 7680TIP3    H123004   5.731   5.471   2.351 -1.4041 -1.8574  1.0581
 7680TIP3    H223005   5.708   5.477   2.202  0.4667 -0.8021  0.7734
 7681TIP3   OH223006  -0.003   2.816   1.582 -0.5141 -0.5354 -0.0187
 7681TIP3    H123007  -0.064   2.834   1.653 -1.3588  1.2123 -1.1262
 7681TIP3    H223008   0.083   2.816   1.624 -1.0925 -0.7817  1.1963
 7682TIP3   OH223009   0.602   1.326   1.698 -0.4357  0.5017  0.6471
 7682TIP3    H123010   0.670   1.260   1.710 -1.4662 -1.0982 -1.4238
 7682TIP3    H223011   0.629   1.375   1.620 -0.8456  0.9025  0.7503
 7683TIP3   OH223012   6.483   4.236   5.853 -0.2527  0.1561  0.5388
 7683TIP3    H123013   6.391   4.260   5.848  0.0872  1.7107  1.0796
 7683TIP3    H223014   6.514   4.276   5.935  0.6207 -1.3989  1.0151
 7684TIP3   OH223015   4.479   1.223   2.375  0.3784 -0.3113 -0.5814
 7684TIP3    H123016   4.503   1.138   2.412  1.3891 -0.0261 -0.5469
 7684TIP3    H223017   4.514   1.222   2.286 -0.1596 -0.1710 -0.7980
 7685TIP3   OH223018   1.329   1.061   4.483 -0.0353  0.2457 -0.0749
 7685TIP3    H123019   1.399   1.071   4.547 -0.3803  1.5200  0.1394
 7685TIP3    H223020   1.295   1.150   4.471  0.2732  0.1217 -2.3158
 7686TIP3   OH223021   0.717   0.970   5.590 -0.4058  0.3285 -0.3560
 7686TIP3    H123022   0.642   0.940   5.539  0.1367  0.0214 -0.9990
 7686TIP3    H223023   0.747   1.049   5.544 -0.0938  0.2183 -0.3428
 7687TIP3   OH223024   0.161   1.076   5.253  0.3840 -0.1371  0.3696
 7687TIP3    H123025   0.066   1.082   5.257  0.3389  0.4389 -0.8483
 7687TIP3    H223026   0.182   0.989   5.286 -0.6519 -0.6973 -0.4023
 7688TIP3   OH223027   5.322   3.761   4.421  0.5411  0.1305  0.2370
 7688TIP3    H123028   5.267   3.683   4.429 -1.2112  0.9767 -2.3659
 7688TIP3    H223029   5.396   3.732   4.368  0.5801 -0.0678  0.3956
 7689TIP3   OH223030   1.249   6.507   0.331  0.2410 -0.4140 -0.3062
 7689TIP3    H123031   1.245   6.423   0.284  0.4509  0.0033 -1.0757
 7689TIP3    H223032   1.261   6.572   0.263 -1.0156  0.3589  0.1936
 7690TIP3   OH223033   1.641   1.579   4.238 -0.5237 -0.0461  0.0860
 7690TIP3    H123034   1.611   1.663   4.203  0.1283 -0.2810 -1.1002
 7690TIP3    H223035   1.729   1.568   4.202 -0.0229 -0.5642  1.4194
 7691TIP3   OH223036   0.852   2.114   2.508  0.0250  0.4659  0.3126
 7691TIP3    H123037   0.865   2.176   2.579 -1.0709  0.2857  0.6862
 7691TIP3    H223038   0.811   2.038   2.549  0.3942 -0.0900 -0.3198
 7692TIP3   OH223039   0.052   0.002   1.240  0.1054  0.1681  0.0588
 7692TIP3    H123040   0.029  -0.051   1.164 -1.9865 -0.3610  0.9940
 7692TIP3    H223041   0.037   0.092   1.213 -0.8346 -0.0303 -0.1047
 7693TIP3   OH223042   6.772   6.644   2.162  0.5926 -0.0403 -0.6979
 7693TIP3    H123043   6.738   6.728   2.132  0.1275  0.6108  1.4788
 7693TIP3    H223044   6.721   6.579   2.115  1.1936  0.8555 -2.6735
 7694TIP3   OH223045   1.331   4.394   3.041 -0.4812  0.1126  0.4268
 7694TIP3    H123046   1.307   4.312   2.998 -0.6522  0.7214 -0.6630
 7694TIP3    H223047   1.416   4.416   3.005  0.1490 -0.2032  1.6510
 7695TIP3   OH223048   5.819   4.239   0.574 -0.2359  0.3938  0.5666
 7695TIP3    H123049   5.764   4.194   0.638  0.7326  0.3189  1.3669
 7695TIP3    H223050   5.780   4.326   0.565 -0.0373  0.6298  1.7526
 7696TIP3   OH223051   0.134   3.551   2.374 -0.9474 -0.1517  0.0799
 7696TIP3    H123052   0.105   3.463   2.397 -0.3278 -0.6035 -0.8079
 7696TIP3    H223053   0.226   3.553   2.398 -0.7893  0.0209 -0.5120
 7697TIP3   OH223054   1.010   3.853   1.649 -0.8083 -0.6132  0.3455
 7697TIP3    H123055   0.967   3.890   1.727 -1.0698  0.3706 -0.2490
 7697TIP3    H223056   0.940   3.811   1.600 -1.0227  0.5216 -0.3534
 7698TIP3   OH223057   1.574   1.430   2.359  0.0767 -0.4265  1.2139
 7698TIP3    H123058   1.642   1.395   2.417  1.8136 -1.5524 -1.3064
 7698TIP3    H223059   1.549   1.355   2.304 -0.4653  0.8594 -0.3733
 7699TIP3   OH223060   2.407   2.695   2.921 -0.6405 -0.0259 -0.0883
 7699TIP3    H123061   2.356   2.696   2.840 -0.3224  0.3987 -0.2913
 7699TIP3    H223062   2.414   2.603   2.944  0.0980 -0.2396 -1.0864
 7700TIP3   OH223063   2.048   2.007   0.143  0.1166  0.1014  0.2718
 7700TIP3    H123064   2.029   1.913   0.152 -0.8185  0.2802  0.2640
 7700TIP3    H223065   2.061   2.037   0.233  1.1159 -0.1636  0.2284
 7701TIP3   OH223066   6.611   5.145   5.115 -0.5904 -0.0736 -0.7232
 7701TIP3    H123067   6.605   5.056   5.149 -0.1803  1.0953  2.7924
 7701TIP3    H223068   6.703   5.168   5.123 -0.8981  1.0968 -0.3390
 7702TIP3   OH223069   4.670   6.763   0.277 -0.4950 -0.5534  0.4625
 7702TIP3    H123070   4.663   6.675   0.313 -0.6082  0.0686  2.0179
 7702TIP3    H223071   4.629   6.820   0.342  1.9599  0.9806  0.8246
 7703TIP3   OH223072   2.732   1.880   2.851 -0.9516 -0.0209  0.3321
 7703TIP3    H123073   2.826   1.895   2.850 -0.6923 -1.3346  1.5250
 7703TIP3    H223074   2.713   1.839   2.767  0.1389 -2.6513  1.2545
 7704TIP3   OH223075   0.040   1.352   2.838 -0.0031  0.3980 -0.5672
 7704TIP3    H123076   0.117   1.375   2.786  0.2570 -1.0998 -0.9096
 7704TIP3    H223077   0.060   1.264   2.872 -2.2553 -0.7888 -2.0902
 7705TIP3   OH223078   5.889   5.192   3.010 -0.2565  0.1406 -0.2537
 7705TIP3    H123079   5.845   5.149   3.084 -0.7011 -1.7879 -1.5647
 7705TIP3    H223080   5.824   5.191   2.940  0.4644  1.1158 -0.9559
 7706TIP3   OH223081   3.521   4.040   4.058 -0.3369  0.2223  0.6247
 7706TIP3    H123082   3.488   4.016   3.971  0.7556  0.3646  0.1542
 7706TIP3    H223083   3.490   4.129   4.071  1.6322  1.1720 -0.7624
 7707TIP3   OH223084   0.353   4.379   3.597 -0.6862  0.3687  0.0049
 7707TIP3    H123085   0.304   4.399   3.517  1.9457  1.3508 -1.4714
 7707TIP3    H223086   0.441   4.360   3.567  0.0768 -0.5344  2.6106
 7708TIP3   OH223087   2.512   4.610   3.945  0.2119  0.4947 -0.1668
 7708TIP3    H123088   2.524   4.595   4.039 -0.4517 -2.0441 -0.4105
 7708TIP3    H223089   2.526   4.704   3.934 -1.3802  1.1969  2.7399
 7709TIP3   OH223090   2.062   3.570   3.120 -0.2095 -0.0250  0.0105
 7709TIP3    H123091   2.042   3.478   3.105  1.2335 -0.2429 -0.7419
 7709TIP3    H223092   2.029   3.616   3.043  1.6428 -0.3218 -1.0036
 7710TIP3   OH223093   4.019   4.140   0.764 -0.6240  0.5685  0.1056
 7710TIP3    H123094   4.068   4.062   0.789  2.4862  2.1639 -0.4900
 7710TIP3    H223095   3.972   4.116   0.685 -0.0037 -0.8097  0.1362
 7711TIP3   OH223096   4.681   5.193   4.552  0.7017  0.0514 -0.4086
 7711TIP3    H123097   4.656   5.123   4.613  1.8155  0.7094  0.8663
 7711TIP3    H223098   4.764   5.163   4.515  0.2965 -0.0951 -1.2129
 7712TIP3   OH223099   2.844   3.240   3.653  0.0952 -0.0280  0.0644
 7712TIP3    H123100   2.818   3.226   3.744  0.5384 -0.6091  0.1120
 7712TIP3    H223101   2.937   3.217   3.651 -0.2299 -1.4435 -0.8265
 7713TIP3   OH223102   3.352   0.722   4.469  0.3213  0.4356 -0.0654
 7713TIP3    H123103   3.353   0.805   4.422  1.6413  0.9570  0.8017
 7713TIP3    H223104   3.281   0.731   4.532 -1.5966 -0.3480 -1.9956
 7714TIP3   OH223105   1.125   2.181   1.831 -0.4765  0.0143  0.6683
 7714TIP3    H123106   1.179   2.132   1.769 -0.3340  0.8852  0.0877
 7714TIP3    H223107   1.070   2.237   1.776 -0.7214  0.4201  1.3122
 7715TIP3   OH223108   3.325   1.248   3.264 -0.3636 -0.2299 -0.5302
 7715TIP3    H123109   3.365   1.288   3.341  0.0481  2.7885 -2.1433
 7715TIP3    H223110   3.264   1.184   3.299  0.8892 -0.0577  2.2171
 7716TIP3   OH223111   3.609   4.009   4.830 -0.0686 -0.2617 -0.0291
 7716TIP3    H123112   3.625   3.983   4.921 -0.2699 -0.2369  0.0128
 7716TIP3    H223113   3.675   4.075   4.812  1.1382 -1.5282 -0.4636
 7717TIP3   OH223114   1.532   1.756   3.305 -0.1125 -0.1595  0.1006
 7717TIP3    H123115   1.591   1.735   3.378 -1.5160 -1.6331  0.8656
 7717TIP3    H223116   1.447   1.768   3.346 -1.1528 -2.0298 -1.3948
 7718TIP3   OH223117   1.451   0.765   3.982 -0.1910  0.1161 -0.2121
 7718TIP3    H123118   1.417   0.754   4.071 -0.1725  1.7910  0.0326
 7718TIP3    H223119   1.379   0.738   3.925 -0.1497 -1.1225  0.2887
 7719TIP3   OH223120   4.047   5.297   0.902  0.1366 -0.2661  0.5522
 7719TIP3    H123121   3.962   5.255   0.900 -0.0031  0.0364 -0.2275
 7719TIP3    H223122   4.104   5.234   0.948  0.0086 -1.4536 -0.8498
 7720TIP3   OH223123   0.025   0.238   1.126 -0.1338 -0.1408  0.3239
 7720TIP3    H123124   0.045   0.329   1.150  0.3623 -0.3621  0.7729
 7720TIP3    H223125  -0.034   0.245   1.052 -0.5666  0.5604  0.7243
 7721TIP3   OH223126   7.175   3.777   0.903  0.1099 -0.4457  0.3885
 7721TIP3    H123127   7.249   3.809   0.955 -0.4550 -0.3771  1.1701
 7721TIP3    H223128   7.215   3.716   0.841  0.7043 -1.3164  1.5764
 7722TIP3   OH223129   5.031   1.522   5.604 -0.5624 -0.1265  0.8158
 7722TIP3    H123130   5.039   1.454   5.671 -1.3054 -0.6426  0.4022
 7722TIP3    H223131   4.941   1.554   5.612 -0.6211 -0.1030  0.1692
 7723TIP3   OH223132   2.922   6.018   5.495 -0.0713  0.4838 -0.0529
 7723TIP3    H123133   2.897   6.101   5.534 -1.0108  0.2906 -0.2185
 7723TIP3    H223134   2.871   6.012   5.415 -1.5792 -1.1409  0.9357
 7724TIP3   OH223135   1.924   2.975   1.206 -0.4767 -0.5844  0.1630
 7724TIP3    H123136   1.918   3.006   1.116  1.1858 -1.8340 -0.4344
 7724TIP3    H223137   1.840   2.933   1.223 -0.9755  0.0676 -0.6444
 7725TIP3   OH223138   2.170   0.733   5.740  0.8961 -0.9044 -0.0402
 7725TIP3    H123139   2.109   0.744   5.667  0.6028 -1.1523  0.1618
 7725TIP3    H223140   2.134   0.788   5.810  1.4318 -0.2978 -0.2279
 7726TIP3   OH223141   6.481   1.773   3.064 -0.5073 -0.2083  0.0382
 7726TIP3    H123142   6.469   1.688   3.107 -1.5693 -0.8567 -1.4445
 7726TIP3    H223143   6.466   1.837   3.134 -2.5695 -1.2111  0.6172
 7727TIP3   OH223144   6.399   4.072   1.482 -0.1325  0.3640  0.3404
 7727TIP3    H123145   6.422   4.157   1.444  0.4499  0.5144  1.0199
 7727TIP3    H223146   6.327   4.040   1.427  0.9809  0.3542 -1.2003
 7728TIP3   OH223147   5.780   5.305   4.346  0.1148 -0.1347  0.1931
 7728TIP3    H123148   5.713   5.237   4.353 -2.6225  2.2495 -0.6756
 7728TIP3    H223149   5.735   5.379   4.305  2.6601  2.5303  1.7649
 7729TIP3   OH223150   4.168   4.869   5.186 -0.3833  0.1135 -0.0171
 7729TIP3    H123151   4.243   4.811   5.172  0.3392  0.7674  1.0032
 7729TIP3    H223152   4.207   4.953   5.212 -1.4537 -0.3844  3.7902
 7730TIP3   OH223153   4.383   4.325   2.151  0.6080 -0.0764  0.1426
 7730TIP3    H123154   4.456   4.332   2.089  1.0007 -0.3854  0.5627
 7730TIP3    H223155   4.415   4.368   2.231 -0.2596  1.2302 -0.1734
 7731TIP3   OH223156   1.552   2.730   1.359 -0.5778 -0.1345  0.0618
 7731TIP3    H123157   1.471   2.711   1.311 -0.1678 -1.5544 -0.1219
 7731TIP3    H223158   1.620   2.686   1.308  0.4739  1.8185 -0.3070
 7732TIP3   OH223159   6.591   3.687   1.440 -0.5271 -0.5182  0.2387
 7732TIP3    H123160   6.613   3.691   1.347 -1.7720 -1.0361 -0.1008
 7732TIP3    H223161   6.630   3.765   1.478  1.4858 -1.1607 -0.3769
 7733TIP3   OH223162   5.451   5.002   1.112  0.0486  0.5262  0.6479
 7733TIP3    H123163   5.462   4.923   1.165 -0.0721  0.6236  0.8202
 7733TIP3    H223164   5.455   5.074   1.175 -1.3208  0.5840  0.7008
 7734TIP3   OH223165   4.603   3.474   0.703 -0.2805  0.4677 -0.7750
 7734TIP3    H123166   4.620   3.494   0.611 -1.0121  1.1512 -0.7777
 7734TIP3    H223167   4.536   3.537   0.729 -1.7864 -1.1956 -0.4104
 7735TIP3   OH223168   1.012   5.989   2.641  0.0019  0.4504 -0.0180
 7735TIP3    H123169   0.964   6.071   2.640  1.3699  1.2865 -0.3815
 7735TIP3    H223170   0.977   5.941   2.716 -1.2653  1.0728 -0.1816
 7736TIP3   OH223171   4.165   4.940   2.241 -0.0681  0.1154  0.1847
 7736TIP3    H123172   4.202   5.022   2.274 -0.5332  0.1890  0.5379
 7736TIP3    H223173   4.081   4.932   2.287 -0.0316 -0.5473  0.1396
 7737TIP3   OH223174   0.820   2.968   1.369  0.5750  0.5574 -0.3441
 7737TIP3    H123175   0.849   2.917   1.294  0.0703 -0.5222  0.1641
 7737TIP3    H223176   0.734   3.001   1.343 -0.6253 -1.6500  0.5033
 7738TIP3   OH223177   3.766   0.692   0.476  0.1473  0.0080 -1.0807
 7738TIP3    H123178   3.748   0.601   0.454 -0.3552 -0.1673  0.0086
 7738TIP3    H223179   3.845   0.689   0.529 -0.6782  0.0387  0.1851
 7739TIP3   OH223180   6.842   3.544   2.256  0.3080  0.2879  0.2654
 7739TIP3    H123181   6.888   3.470   2.295 -1.7757 -0.1800  2.0514
 7739TIP3    H223182   6.760   3.550   2.305  0.0044  3.2637 -0.3908
 7740TIP3   OH223183   5.050   5.394   3.623  0.0008 -0.4117 -0.1431
 7740TIP3    H123184   5.002   5.475   3.639 -0.3336 -0.9487  1.8856
 7740TIP3    H223185   4.997   5.346   3.559 -1.7397 -0.5704  1.3255
 7741TIP3   OH223186   5.846   4.693   5.366  0.2320  0.0230  0.0348
 7741TIP3    H123187   5.805   4.765   5.414  0.0787 -0.0049 -0.0524
 7741TIP3    H223188   5.886   4.735   5.290  0.4102  0.0572  0.1479
 7742TIP3   OH223189   2.097   6.572   5.247  1.0018  0.1301  0.2072
 7742TIP3    H123190   2.107   6.591   5.154  1.1771 -1.2862 -0.0840
 7742TIP3    H223191   2.152   6.495   5.262  1.1840  0.4888  1.5408
 7743TIP3   OH223192   6.389   6.500   0.339  0.6825 -0.1117 -0.0869
 7743TIP3    H123193   6.394   6.584   0.293  1.9080  0.0597  0.3412
 7743TIP3    H223194   6.323   6.514   0.407  1.5088  0.8051  0.5554
 7744TIP3   OH223195   6.263   4.641   2.968 -0.2638  0.1076  0.1543
 7744TIP3    H123196   6.219   4.690   3.037 -2.2560 -1.5862  0.1926
 7744TIP3    H223197   6.263   4.551   2.999  0.1079 -0.4671 -1.4263
 7745TIP3   OH223198   0.823   1.375   4.338 -0.1383 -0.3903  0.4797
 7745TIP3    H123199   0.734   1.407   4.326  0.0472 -0.2484 -0.6018
 7745TIP3    H223200   0.815   1.305   4.403 -1.1598 -0.9471 -0.2315
 7746TIP3   OH223201   1.686   0.669   4.280 -0.3579 -0.4896  0.5777
 7746TIP3    H123202   1.668   0.626   4.363 -1.3654 -0.5859  0.3175
 7746TIP3    H223203   1.682   0.762   4.299 -1.2801 -0.5058  0.5038
 7747TIP3   OH223204   3.571   1.108   1.842  0.6399  0.3099 -0.4095
 7747TIP3    H123205   3.482   1.119   1.874  1.0364 -0.1275  0.9347
 7747TIP3    H223206   3.568   1.028   1.791  0.0457  0.8665 -1.2636
 7748TIP3   OH223207   1.268   3.245   3.112 -0.1941 -0.3560 -0.6520
 7748TIP3    H123208   1.333   3.280   3.173 -0.6039  1.7064 -1.3318
 7748TIP3    H223209   1.202   3.203   3.169  1.3069 -1.8939  0.0751
 7749TIP3   OH223210   0.716   3.649   2.868  0.0929  0.3723  0.0780
 7749TIP3    H123211   0.779   3.688   2.928 -1.1701  0.5535  1.3387
 7749TIP3    H223212   0.702   3.716   2.801  0.8287  0.5353  0.0816
 7750TIP3   OH223213   0.104   0.648   5.100  1.0842  0.4005 -0.7179
 7750TIP3    H123214   0.120   0.630   5.007  0.5967  1.7008 -1.0844
 7750TIP3    H223215   0.089   0.562   5.139  0.7798 -0.1347 -1.9481
 7751TIP3   OH223216   1.885   4.445   1.619 -0.1217  0.3288  0.4892
 7751TIP3    H123217   1.872   4.459   1.525  0.0920  0.5221  0.4864
 7751TIP3    H223218   1.980   4.455   1.632 -0.1589  0.3815  0.7368
 7752TIP3   OH223219   0.746   2.863   2.738 -0.4628 -1.1251 -0.2723
 7752TIP3    H123220   0.798   2.934   2.776 -1.2256 -0.9210  0.4389
 7752TIP3    H223221   0.728   2.892   2.648  1.0467 -1.4385 -0.7043
 7753TIP3   OH223222   0.919   6.141   5.602  0.3960  0.1239 -0.2528
 7753TIP3    H123223   0.854   6.173   5.664 -0.2320  0.9501 -1.3096
 7753TIP3    H223224   0.991   6.110   5.657  0.5740  2.3392  0.8856
 7754TIP3   OH223225   0.074   4.513   5.436 -0.2854  0.5097  0.3744
 7754TIP3    H123226   0.004   4.451   5.454 -0.0482 -0.0767 -0.6240
 7754TIP3    H223227   0.073   4.573   5.510 -1.7222  0.4048  0.4688
 7755TIP3   OH223228   0.157   2.898   3.308 -0.3926  0.6738  0.4645
 7755TIP3    H123229   0.071   2.905   3.350 -0.0259 -1.0608  1.6524
 7755TIP3    H223230   0.138   2.889   3.215 -1.5469  0.0073  0.7419
 7756TIP3   OH223231   0.218   3.497   5.451 -0.4393  0.1025  0.0805
 7756TIP3    H123232   0.218   3.590   5.470 -1.3154  0.5736 -1.9641
 7756TIP3    H223233   0.231   3.491   5.356 -1.0885 -1.8141  0.0522
 7757TIP3   OH223234   3.172   3.098   5.296  0.2305  0.1078  0.5921
 7757TIP3    H123235   3.211   3.116   5.381  1.7913 -0.3389  0.0083
 7757TIP3    H223236   3.216   3.019   5.265 -0.3599  0.2095 -0.5953
 7758TIP3   OH223237   5.685   4.005   0.182 -0.0848 -0.6635  0.1571
 7758TIP3    H123238   5.760   4.056   0.213 -0.7402  0.0208  0.6618
 7758TIP3    H223239   5.688   3.924   0.233  0.4808 -0.7805 -0.0512
 7759TIP3   OH223240   2.203   2.120   0.368 -0.1684  0.1753 -0.4817
 7759TIP3    H123241   2.293   2.094   0.351  0.0712  1.1167 -0.7162
 7759TIP3    H223242   2.205   2.216   0.367 -0.9546  0.2260  0.6642
 7760TIP3   OH223243   7.024   3.430   5.143  0.1076 -0.7247  0.4592
 7760TIP3    H123244   6.956   3.389   5.197  0.2653 -1.6181 -0.0101
 7760TIP3    H223245   7.069   3.490   5.203 -2.2135  1.2785  0.3927
 7761TIP3   OH223246   4.206   1.011   3.861  1.2371 -0.2747  0.0402
 7761TIP3    H123247   4.189   1.064   3.783  0.9219  0.4948  0.6162
 7761TIP3    H223248   4.119   0.981   3.889  1.4946 -1.9252 -0.8310
 7762TIP3   OH223249   2.565   6.399   0.979 -0.3515 -0.5382  0.6096
 7762TIP3    H123250   2.561   6.391   1.074  0.7984  1.1364  0.8460
 7762TIP3    H223251   2.599   6.487   0.964 -1.1927 -0.5074 -1.3765
 7763TIP3   OH223252   2.492   1.713   5.160  0.3090  0.3390  0.0781
 7763TIP3    H123253   2.562   1.773   5.132  1.0228 -0.9887 -1.1207
 7763TIP3    H223254   2.425   1.721   5.092  0.8324 -0.8902 -0.6145
 7764TIP3   OH223255   3.209   3.887   1.585  0.1001  0.0509 -0.1569
 7764TIP3    H123256   3.166   3.860   1.504 -1.6942  2.7231 -0.2346
 7764TIP3    H223257   3.292   3.839   1.586 -1.4949 -3.0418 -1.5659
 7765TIP3   OH223258   6.660   3.085   2.479  0.3587 -0.1543  0.3191
 7765TIP3    H123259   6.612   3.046   2.406  0.6520 -0.4512  0.2876
 7765TIP3    H223260   6.604   3.069   2.555  0.4986 -0.6825  0.3159
 7766TIP3   OH223261   3.291   5.945   3.427 -0.0096 -0.0157  0.0127
 7766TIP3    H123262   3.260   5.855   3.423 -1.1531  0.3583  0.0431
 7766TIP3    H223263   3.249   5.982   3.505 -1.0753  1.0515 -1.0150
 7767TIP3   OH223264   0.596   3.118   1.313  0.0540  0.3154 -0.1060
 7767TIP3    H123265   0.594   3.142   1.220  0.0361 -0.1287 -0.2228
 7767TIP3    H223266   0.585   3.201   1.359 -0.9597  0.4180 -0.5093
 7768TIP3   OH223267   1.979   0.350   1.000  0.6702 -0.3702 -0.6523
 7768TIP3    H123268   1.931   0.429   1.027  0.2350  0.1493 -2.7747
 7768TIP3    H223269   1.915   0.298   0.952  2.2672  0.7751 -4.3941
 7769TIP3   OH223270   4.717   4.728   3.881 -0.2468  0.2553  0.3350
 7769TIP3    H123271   4.642   4.708   3.938  0.6701  1.8757  2.2315
 7769TIP3    H223272   4.793   4.713   3.936  0.8064  0.0798 -1.1074
 7770TIP3   OH223273   0.050   0.062   5.024  0.0341  0.4747 -0.5357
 7770TIP3    H123274   0.060  -0.032   5.012  0.5227  0.5157 -0.4835
 7770TIP3    H223275   0.092   0.080   5.108 -2.4442  0.3431  0.8143
 7771TIP3   OH223276   4.889   0.258   4.166  0.4539  0.5426  0.2253
 7771TIP3    H123277   4.808   0.248   4.116  1.4513  2.7537 -2.0663
 7771TIP3    H223278   4.948   0.190   4.131  0.6587  1.1254 -0.5934
 7772TIP3   OH223279   6.719   2.065   1.700 -0.5401  0.2925  0.2389
 7772TIP3    H123280   6.806   2.105   1.695 -0.4681  0.0457 -0.9543
 7772TIP3    H223281   6.670   2.120   1.761  0.0058  1.3373 -0.2414
 7773TIP3   OH223282   0.351   2.389   4.464  0.3472  0.4606 -0.4022
 7773TIP3    H123283   0.425   2.446   4.444  1.7325 -0.4662  1.7616
 7773TIP3    H223284   0.357   2.319   4.399  0.8242  0.8541 -0.7970
 7774TIP3   OH223285   3.369   1.661   4.429  0.2457  0.2282 -0.1126
 7774TIP3    H123286   3.295   1.616   4.388 -0.8665  2.4301 -0.6612
 7774TIP3    H223287   3.446   1.620   4.390 -0.7359  0.2169 -2.1882
 7775TIP3   OH223288   4.580   5.740   4.782 -0.2433  0.9040 -0.3930
 7775TIP3    H123289   4.598   5.659   4.734  1.0674  0.6072  0.5641
 7775TIP3    H223290   4.493   5.766   4.751  0.2539  0.3728 -2.4009
 7776TIP3   OH223291   1.610   0.011   3.537  0.8230 -0.4683  1.0447
 7776TIP3    H123292   1.688   0.012   3.592  0.0227  2.0597  2.3169
 7776TIP3    H223293   1.547   0.065   3.584 -0.9972 -0.7206 -0.9255
 7777TIP3   OH223294   5.851   3.336   2.897  0.3039 -0.2336 -0.2612
 7777TIP3    H123295   5.804   3.403   2.848  1.7413  0.5630 -0.6281
 7777TIP3    H223296   5.938   3.374   2.912  1.2078 -2.0490 -0.5792
 7778TIP3   OH223297   1.153   2.830   0.188 -0.0634 -0.3664  0.6783
 7778TIP3    H123298   1.212   2.855   0.117  0.3035  1.3318  1.5491
 7778TIP3    H223299   1.210   2.789   0.253  0.3161  1.8026  1.7804
 7779TIP3   OH223300   5.073   4.417   0.334 -0.5706 -0.0142  0.3303
 7779TIP3    H123301   5.080   4.404   0.429  1.9168  1.4874  0.4410
 7779TIP3    H223302   4.987   4.457   0.322 -0.1789  1.5520  2.2183
 7780TIP3   OH223303   0.087   4.126   4.388  0.4028 -0.1372  0.6805
 7780TIP3    H123304   0.020   4.101   4.324  0.0870  0.3885  0.7956
 7780TIP3    H223305   0.166   4.141   4.336  0.2022  0.0832  0.4343
 7781TIP3   OH223306   2.338   5.765   2.591 -0.4349 -0.0747  0.4863
 7781TIP3    H123307   2.287   5.768   2.510 -0.1162 -0.1397  0.2808
 7781TIP3    H223308   2.402   5.836   2.581 -2.8475  2.5985  2.3457
 7782TIP3   OH223309   6.476   1.127   5.234 -0.1208  0.5839 -0.1036
 7782TIP3    H123310   6.422   1.169   5.167  2.0116  0.0258 -2.3247
 7782TIP3    H223311   6.467   1.183   5.311 -2.0121  1.7417 -1.1061
 7783TIP3   OH223312   5.432   2.400   0.384  0.3538 -0.1192 -0.4809
 7783TIP3    H123313   5.495   2.450   0.437 -0.8062 -1.5019  2.4210
 7783TIP3    H223314   5.482   2.324   0.354  0.7507  0.1434 -0.5023
 7784TIP3   OH223315   1.266   4.379   5.863  0.3372 -0.0011 -0.5678
 7784TIP3    H123316   1.192   4.318   5.869  1.5180 -1.6372 -1.7876
 7784TIP3    H223317   1.267   4.424   5.948  0.8261 -3.4007  1.3963
 7785TIP3   OH223318   2.562   1.225   3.405  0.0469  0.1532  0.0115
 7785TIP3    H123319   2.606   1.163   3.463 -2.0884 -0.4589  1.1213
 7785TIP3    H223320   2.548   1.177   3.323 -1.1072 -0.7195  0.6768
 7786TIP3   OH223321   6.807   3.383   3.412  0.4015  0.1509 -0.3234
 7786TIP3    H123322   6.727   3.338   3.384  0.0115  0.8782 -0.4059
 7786TIP3    H223323   6.814   3.364   3.505 -1.0042  1.7545  0.1448
 7787TIP3   OH223324   5.925   0.131   4.110  0.8433  0.2197  0.8902
 7787TIP3    H123325   5.929   0.147   4.204  1.2504  2.9876  0.5035
 7787TIP3    H223326   5.999   0.182   4.075  0.7246 -0.7959 -0.9271
 7788TIP3   OH223327   4.568   6.212   2.966 -0.4006  0.2620  0.5016
 7788TIP3    H123328   4.637   6.200   2.901 -0.0344  0.0800  0.9198
 7788TIP3    H223329   4.499   6.151   2.940 -0.4050  0.4412  0.0846
 7789TIP3   OH223330   2.890   5.328   3.638 -0.0451 -0.0909  0.5965
 7789TIP3    H123331   2.940   5.356   3.561 -0.5448 -1.4356 -0.2492
 7789TIP3    H223332   2.948   5.264   3.681  0.3420  0.8503  1.5045
 7790TIP3   OH223333   7.210   2.392   1.156 -0.0473  0.5128 -0.1455
 7790TIP3    H123334   7.144   2.374   1.223  0.0956  2.1024  0.4725
 7790TIP3    H223335   7.188   2.334   1.084 -0.8865 -0.4327  0.8437
 7791TIP3   OH223336   5.934   0.267   0.160  0.3254 -0.0851  0.0595
 7791TIP3    H123337   5.923   0.354   0.120 -0.4416 -0.1182  0.1795
 7791TIP3    H223338   5.970   0.285   0.246 -1.9157  0.3192  0.9963
 7792TIP3   OH223339   0.101   4.614   3.485 -0.1792  0.5481 -0.6022
 7792TIP3    H123340   0.167   4.633   3.551  0.5315 -2.2356 -0.3858
 7792TIP3    H223341   0.150   4.577   3.412 -1.3476 -0.2489 -1.0138
 7793TIP3   OH223342   0.240   5.972   1.401 -0.6358  0.5931  0.4082
 7793TIP3    H123343   0.174   5.911   1.368 -1.2983  0.4592  1.8850
 7793TIP3    H223344   0.309   5.916   1.438 -0.0309  0.7402 -0.4653
 7794TIP3   OH223345   4.857   0.517   2.423  0.0390 -0.0396  0.2981
 7794TIP3    H123346   4.918   0.573   2.470 -0.1385  0.0127  0.4696
 7794TIP3    H223347   4.797   0.578   2.380 -1.9714 -0.0525  2.8373
 7795TIP3   OH223348   5.519   3.501   1.456 -0.8087  0.2145  0.3152
 7795TIP3    H123349   5.549   3.578   1.504  0.7472  0.1324 -0.4600
 7795TIP3    H223350   5.475   3.536   1.379  0.9095  0.3629 -0.6335
 7796TIP3   OH223351   1.832   1.213   4.192 -0.0272  0.1723 -0.2580
 7796TIP3    H123352   1.916   1.208   4.237  0.2238 -1.9310 -0.8622
 7796TIP3    H223353   1.846   1.168   4.109 -1.4072  0.9919 -0.9765
 7797TIP3   OH223354   1.257   4.995   3.500 -0.4522 -0.3529  0.0838
 7797TIP3    H123355   1.258   5.082   3.462 -0.2752 -0.3538  0.0849
 7797TIP3    H223356   1.339   4.989   3.549 -0.4134 -0.5583 -0.0039
 7798TIP3   OH223357   6.112   5.068   4.290 -0.0885 -0.4010  0.0394
 7798TIP3    H123358   6.156   4.991   4.252  1.7017  1.1216 -1.1403
 7798TIP3    H223359   6.023   5.063   4.255  0.5748 -0.8599 -1.7208
 7799TIP3   OH223360   1.883   6.456   2.186  0.2332 -0.0198 -0.2609
 7799TIP3    H123361   1.924   6.509   2.116  1.7665  1.1434  1.4258
 7799TIP3    H223362   1.855   6.520   2.251 -2.0031 -1.0171 -0.1445
 7800TIP3   OH223363   3.026   6.194   3.335 -0.3328  0.4195 -0.0822
 7800TIP3    H123364   3.108   6.232   3.366 -0.3728  0.9227 -0.5693
 7800TIP3    H223365   3.005   6.125   3.398  1.2490 -0.7477 -0.7445
 7801TIP3   OH223366   2.692   4.460   1.342 -0.4683  0.4920  0.3382
 7801TIP3    H123367   2.714   4.369   1.362 -0.9783  0.1020 -0.7746
 7801TIP3    H223368   2.651   4.493   1.422  1.5460  0.3952  1.4794
 7802TIP3   OH223369   0.686   0.203   1.502  0.3345 -0.2467 -0.0184
 7802TIP3    H123370   0.692   0.290   1.462  0.0131 -0.5810 -0.8225
 7802TIP3    H223371   0.618   0.211   1.568 -0.5719 -0.1829 -0.9274
 7803TIP3   OH223372   5.189   2.338   0.780  0.2571  0.4050 -0.0570
 7803TIP3    H123373   5.235   2.263   0.743 -0.0200 -0.9748  2.1922
 7803TIP3    H223374   5.109   2.301   0.818 -0.2381  1.9524  0.5019
 7804TIP3   OH223375   3.019   2.931   4.088 -0.2648 -0.4513  0.0205
 7804TIP3    H123376   3.107   2.957   4.116  0.0166 -1.7743  0.4493
 7804TIP3    H223377   3.031   2.896   4.000 -0.4417 -0.2037 -0.1028
 7805TIP3   OH223378   6.890   0.515   2.572  0.1781 -0.3511  0.1730
 7805TIP3    H123379   6.853   0.436   2.533 -0.9734  0.2776 -0.0860
 7805TIP3    H223380   6.828   0.584   2.548  0.8289  0.5181  0.9121
 7806TIP3   OH223381   5.494   1.655   4.882  0.4080  0.0693  0.1108
 7806TIP3    H123382   5.406   1.629   4.910 -0.2593 -1.0651 -2.7003
 7806TIP3    H223383   5.498   1.632   4.789  3.6209  0.2953  0.0620
 7807TIP3   OH223384   2.073   0.712   1.924  0.2608 -0.0978 -0.1217
 7807TIP3    H123385   1.987   0.704   1.964 -0.0944  3.8459  0.3612
 7807TIP3    H223386   2.056   0.743   1.835  0.9986  2.9714  0.6650
 7808TIP3   OH223387   5.166   6.519   3.812  0.3240 -0.7897  0.7121
 7808TIP3    H123388   5.118   6.592   3.851  0.8864 -0.0637  0.0639
 7808TIP3    H223389   5.257   6.547   3.810  0.3400 -0.8217 -1.0232
 7809TIP3   OH223390   6.517   0.619   0.305  0.0254 -0.5151  0.5141
 7809TIP3    H123391   6.524   0.689   0.240 -1.6642 -2.1983 -1.6196
 7809TIP3    H223392   6.425   0.593   0.303  0.0024 -0.9896  3.2945
 7810TIP3   OH223393   1.254   2.907   4.987  0.9922 -0.0409  0.1522
 7810TIP3    H123394   1.345   2.934   5.001  1.3130 -1.3205  0.6085
 7810TIP3    H223395   1.247   2.896   4.892  1.0953  0.7808  0.0424
 7811TIP3   OH223396   2.608   2.956   0.703 -0.2243  0.0733 -0.5260
 7811TIP3    H123397   2.539   2.920   0.647  0.0115 -1.0671 -0.0978
 7811TIP3    H223398   2.665   2.882   0.723 -0.5090  0.3438  1.5329
 7812TIP3   OH223399   6.150   3.492   3.364  0.1284  0.3290 -0.2235
 7812TIP3    H123400   6.200   3.534   3.294  0.7282 -1.6235 -1.0352
 7812TIP3    H223401   6.082   3.443   3.318 -0.5638  0.3936  0.6922
 7813TIP3   OH223402   2.043   5.176   2.814 -0.5586 -0.6177 -0.1223
 7813TIP3    H123403   1.963   5.143   2.774 -0.5239 -2.2406  1.0588
 7813TIP3    H223404   2.064   5.113   2.883  1.5622 -0.0637 -0.1769
 7814TIP3   OH223405   0.071   1.332   3.194 -0.3611  0.1921  0.0728
 7814TIP3    H123406   0.073   1.427   3.205 -2.3446  0.0953  1.8248
 7814TIP3    H223407  -0.009   1.316   3.143 -1.2454 -0.6326  1.6535
 7815TIP3   OH223408   3.832   1.080   3.325  0.2895 -0.6759  0.4094
 7815TIP3    H123409   3.874   1.038   3.249 -0.7861  0.3999 -0.8333
 7815TIP3    H223410   3.744   1.042   3.327 -0.6824  1.3460 -0.6984
 7816TIP3   OH223411   6.120   0.786   3.417 -0.0705  0.6514  0.8190
 7816TIP3    H123412   6.038   0.739   3.431  0.2598  0.2003  1.2603
 7816TIP3    H223413   6.183   0.719   3.391 -0.0238  1.1023 -0.3102
 7817TIP3   OH223414   2.665   4.789   5.220 -0.4096 -0.1395 -0.2181
 7817TIP3    H123415   2.610   4.867   5.222 -0.1110  0.0750 -0.3306
 7817TIP3    H223416   2.617   4.724   5.271 -0.0791  0.4951  0.9347
 7818TIP3   OH223417   1.077   0.250   2.845 -0.1806 -0.0906  0.0563
 7818TIP3    H123418   1.102   0.203   2.766  0.2428  0.2206 -0.0009
 7818TIP3    H223419   1.123   0.334   2.838 -1.7149  0.7518 -0.3381
 7819TIP3   OH223420   3.353   3.061   3.567  0.2737 -0.0410 -0.3270
 7819TIP3    H123421   3.425   3.013   3.607  0.5177  1.0507  0.6109
 7819TIP3    H223422   3.364   3.151   3.598 -1.4291  0.1783 -0.2278
 7820TIP3   OH223423   4.964   1.608   4.016 -0.4838 -0.5133 -0.4080
 7820TIP3    H123424   4.917   1.648   4.089 -1.1138  0.4136 -1.2993
 7820TIP3    H223425   5.048   1.580   4.054 -1.5258 -1.7617  1.0988
 7821TIP3   OH223426   5.647   4.580   1.431  0.3495 -0.3848 -0.3472
 7821TIP3    H123427   5.737   4.553   1.411 -0.0378 -0.9224 -1.4960
 7821TIP3    H223428   5.655   4.668   1.465  1.3647 -0.6417  0.1109
 7822TIP3   OH223429   6.627   3.530   4.353 -0.0947 -0.0511  0.8813
 7822TIP3    H123430   6.560   3.489   4.408 -1.1968 -2.2412 -1.8713
 7822TIP3    H223431   6.706   3.479   4.368 -0.6319 -1.2304 -0.1607
 7823TIP3   OH223432   2.144   6.592   1.382  0.1115  0.0557 -0.0425
 7823TIP3    H123433   2.237   6.604   1.400  0.1989  1.4503 -1.2131
 7823TIP3    H223434   2.133   6.621   1.291 -0.8311 -3.5393 -1.2740
 7824TIP3   OH223435   0.923   3.123   0.846  0.0374 -0.6071 -0.0796
 7824TIP3    H123436   0.872   3.189   0.893 -0.1614 -0.5177 -0.4171
 7824TIP3    H223437   0.877   3.041   0.863 -0.0304 -0.5759 -0.1100
 7825TIP3   OH223438   2.819   2.796   1.981  0.4403 -0.3349  0.6646
 7825TIP3    H123439   2.752   2.863   1.997 -1.2803 -1.4332 -1.4888
 7825TIP3    H223440   2.867   2.829   1.905  2.1784  0.2378  1.9389
 7826TIP3   OH223441   1.089   2.400   4.379  0.4473  0.0027 -0.0821
 7826TIP3    H123442   1.132   2.370   4.459  2.1129  1.5484 -0.3397
 7826TIP3    H223443   1.029   2.468   4.409 -1.0396 -1.3484  0.1360
 7827TIP3   OH223444   4.510   2.775   3.070 -0.2966 -0.0172 -0.3343
 7827TIP3    H123445   4.510   2.683   3.097 -1.0944 -0.0735 -0.5152
 7827TIP3    H223446   4.602   2.796   3.056 -0.1763 -1.0335 -1.1115
 7828TIP3   OH223447   2.887   6.453   1.260  0.3271  0.0547  0.2833
 7828TIP3    H123448   2.797   6.422   1.251  1.0224 -1.9753 -0.2770
 7828TIP3    H223449   2.919   6.412   1.340  1.2166 -0.4917 -0.3393
 7829TIP3   OH223450   1.313   1.784   5.851 -0.4497 -0.3136 -0.3171
 7829TIP3    H123451   1.331   1.839   5.927 -1.6151  0.3672 -0.5127
 7829TIP3    H223452   1.337   1.696   5.880 -0.2188  0.0361  0.6106
 7830TIP3   OH223453   2.293   5.969   4.430 -0.3043 -0.5630  0.0596
 7830TIP3    H123454   2.198   5.974   4.424 -0.1954  0.4954 -1.2946
 7830TIP3    H223455   2.325   6.009   4.349  1.2802 -3.0100 -0.6472
 7831TIP3   OH223456   1.337   4.922   2.787  0.8860 -0.2195 -0.2844
 7831TIP3    H123457   1.253   4.910   2.833 -0.2930  2.2798 -1.5701
 7831TIP3    H223458   1.362   5.012   2.808  1.6794  0.0729 -2.3360
 7832TIP3   OH223459   0.224   5.646   2.975  0.1587  0.4758 -0.3022
 7832TIP3    H123460   0.229   5.573   3.036  2.0496  0.2216 -0.7148
 7832TIP3    H223461   0.314   5.676   2.965 -0.1166  0.6980 -2.7521
 7833TIP3   OH223462   6.580   0.586   5.182  0.3238  0.3354  0.2887
 7833TIP3    H123463   6.615   0.675   5.180  0.3939  0.3931 -3.7038
 7833TIP3    H223464   6.654   0.530   5.156 -0.4228 -0.5338 -0.0409
 7834TIP3   OH223465   4.233   1.997   0.301  0.8895  0.5616 -0.1142
 7834TIP3    H123466   4.207   1.968   0.213  1.7328  1.5487 -0.7166
 7834TIP3    H223467   4.280   1.922   0.338  0.7893  0.2367 -0.6275
 7835TIP3   OH223468   0.190   3.060   0.318 -0.4125 -0.0595 -0.1112
 7835TIP3    H123469   0.204   3.145   0.277 -0.3882  1.0186  1.9651
 7835TIP3    H223470   0.116   3.074   0.377 -2.1199 -2.2190 -1.5905
 7836TIP3   OH223471   1.607   6.217   0.203 -0.0912  0.1825 -0.5084
 7836TIP3    H123472   1.693   6.260   0.204  0.5592 -1.0587 -0.5826
 7836TIP3    H223473   1.587   6.206   0.111 -0.4468  0.6859 -0.4922
 7837TIP3   OH223474   6.192   0.416   1.463  0.1790  0.7795 -0.1657
 7837TIP3    H123475   6.102   0.449   1.463  0.4673  1.5912  0.2803
 7837TIP3    H223476   6.192   0.348   1.531 -0.0617  0.8703 -0.0733
 7838TIP3   OH223477   1.211   2.458   2.184 -0.3657 -0.6018 -0.4182
 7838TIP3    H123478   1.133   2.425   2.230 -0.8435 -1.0817 -1.5379
 7838TIP3    H223479   1.259   2.506   2.251 -0.5552 -2.0657  0.8349
 7839TIP3   OH223480   3.493   3.679   3.685 -0.4286  0.3142 -0.0960
 7839TIP3    H123481   3.561   3.667   3.751 -0.4510 -0.9958 -0.2827
 7839TIP3    H223482   3.539   3.672   3.602 -0.8926 -1.5076 -0.2363
 7840TIP3   OH223483   4.397   2.429   5.552 -0.0786  0.2524 -0.1783
 7840TIP3    H123484   4.479   2.380   5.552  0.2656  0.8102 -1.0338
 7840TIP3    H223485   4.388   2.460   5.462 -0.7078  1.0579  0.1551
 7841TIP3   OH223486   1.347   4.826   2.548 -0.2337 -0.3299  0.5069
 7841TIP3    H123487   1.362   4.868   2.633  1.9560 -1.0425  0.5389
 7841TIP3    H223488   1.253   4.809   2.546 -0.5227  0.7892  2.2618
 7842TIP3   OH223489   7.099   4.192   0.066 -0.5182 -0.7873 -0.2857
 7842TIP3    H123490   7.007   4.182   0.091 -0.8686 -1.0183 -1.5735
 7842TIP3    H223491   7.121   4.282   0.089 -0.9243 -0.8717  0.4535
 7843TIP3   OH223492   1.123   5.754   4.609  0.0716 -0.0919  0.3913
 7843TIP3    H123493   1.154   5.665   4.594 -0.3067 -0.1011 -0.4043
 7843TIP3    H223494   1.203   5.806   4.618  0.3135 -0.3459 -0.2135
 7844TIP3   OH223495   2.201   1.546   5.876 -0.0051  0.1179  0.1928
 7844TIP3    H123496   2.176   1.591   5.957 -1.2144 -1.0672  0.5301
 7844TIP3    H223497   2.168   1.602   5.806 -1.0339  0.0513  0.5905
 7845TIP3   OH223498   0.960   1.124   5.836 -0.0654  0.1891 -0.5740
 7845TIP3    H123499   0.977   1.053   5.898  0.4237  0.8962  0.1248
 7845TIP3    H223500   0.864   1.134   5.838  0.0701  1.7180  1.8669
 7846TIP3   OH223501   1.254   5.813   4.290 -0.0602 -0.3498  0.1019
 7846TIP3    H123502   1.198   5.886   4.263  0.9453  0.1642 -0.6944
 7846TIP3    H223503   1.310   5.851   4.358 -0.0468 -0.5946  0.2255
 7847TIP3   OH223504   0.456   3.869   4.062 -0.6039  0.1126  0.0481
 7847TIP3    H123505   0.433   3.817   3.984 -1.2334 -1.6242  1.3394
 7847TIP3    H223506   0.550   3.883   4.054 -0.6165 -0.2381 -0.9066
 7848TIP3   OH223507   1.590   2.973   1.057 -0.1652  0.2302  0.9074
 7848TIP3    H123508   1.507   2.934   1.031 -0.3572 -1.1760  3.3190
 7848TIP3    H223509   1.654   2.937   0.996 -1.2772  1.4271 -1.0543
 7849TIP3   OH223510   5.311   0.483   4.751 -0.3291  0.4477 -0.3292
 7849TIP3    H123511   5.336   0.480   4.843  1.1001 -2.3918 -0.6916
 7849TIP3    H223512   5.223   0.447   4.749 -0.3784  0.5503 -0.0872
 7850TIP3   OH223513   0.941   3.249   0.580 -0.1673 -0.2827  0.2658
 7850TIP3    H123514   0.932   3.206   0.665  0.4460 -0.0434  0.4558
 7850TIP3    H223515   1.035   3.267   0.572 -0.6439  4.2466  1.8343
 7851TIP3   OH223516   2.797   0.878   5.333  0.1046  0.3427 -0.1070
 7851TIP3    H123517   2.816   0.970   5.351 -2.7366  0.4305  3.7435
 7851TIP3    H223518   2.702   0.874   5.323  0.3462 -1.9027 -3.3140
 7852TIP3   OH223519   3.725   0.738   5.345  0.2632  0.4203 -0.3344
 7852TIP3    H123520   3.703   0.791   5.268  0.1407  1.8761  0.6636
 7852TIP3    H223521   3.655   0.755   5.407  2.0895  2.1168  1.4395
 7853TIP3   OH223522   6.472   0.253   3.226  0.5367 -0.2902  0.1432
 7853TIP3    H123523   6.423   0.284   3.149  0.9591  1.1746  0.4438
 7853TIP3    H223524   6.564   0.265   3.203  0.6728  1.8036  1.4576
 7854TIP3   OH223525   3.935   2.512   2.300  0.0571  0.9427  0.9791
 7854TIP3    H123526   3.969   2.463   2.374 -0.7044  0.3428  0.9460
 7854TIP3    H223527   4.005   2.510   2.235 -0.1081 -0.4994  0.8043
 7855TIP3   OH223528   2.389   2.966   4.065 -0.0145 -0.0409  0.7195
 7855TIP3    H123529   2.395   2.875   4.036 -0.9274  0.5956 -1.8068
 7855TIP3    H223530   2.467   3.008   4.029 -0.2020  0.3978  0.8170
 7856TIP3   OH223531   2.852   5.142   5.062 -0.0709 -0.3818  0.4842
 7856TIP3    H123532   2.909   5.067   5.075 -1.3682 -1.2489  1.4878
 7856TIP3    H223533   2.783   5.110   5.003 -1.5248 -0.5380  2.1780
 7857TIP3   OH223534   1.535   5.697   0.052 -0.5134  0.3770 -0.4276
 7857TIP3    H123535   1.511   5.633   0.118  0.1515  2.8947  2.4995
 7857TIP3    H223536   1.452   5.720   0.009 -1.4983  0.5851  1.4619
 7858TIP3   OH223537   4.111   0.245   3.896 -0.1420  0.5873  0.4821
 7858TIP3    H123538   4.182   0.301   3.928 -1.0019  2.1022 -0.1656
 7858TIP3    H223539   4.152   0.192   3.828  0.5007  1.0105  0.5250
 7859TIP3   OH223540   2.038   0.271   5.805  0.0290 -0.2508 -0.0448
 7859TIP3    H123541   1.983   0.194   5.792 -0.2631 -0.1381  0.5036
 7859TIP3    H223542   2.119   0.237   5.843 -0.6320 -0.1540  1.5292
 7860TIP3   OH223543   4.646   2.296   5.545  0.3519  0.0068 -0.1030
 7860TIP3    H123544   4.665   2.349   5.468 -0.2212  1.6112  0.8270
 7860TIP3    H223545   4.712   2.226   5.542  0.5401  0.1994 -1.8536
 7861TIP3   OH223546   4.211   2.681   4.610 -0.4722  0.2549  0.1474
 7861TIP3    H123547   4.118   2.672   4.589 -0.3676  2.5090 -1.7236
 7861TIP3    H223548   4.213   2.728   4.693 -1.0594  1.6210 -0.5841
 7862TIP3   OH223549   5.814   5.358   1.004 -0.4752  0.2101  0.1938
 7862TIP3    H123550   5.795   5.393   0.917  0.2450 -0.4523 -0.2362
 7862TIP3    H223551   5.904   5.326   0.999 -1.0583 -1.6599  0.5647
 7863TIP3   OH223552   2.846   3.960   4.143 -0.1694  0.2949  0.3736
 7863TIP3    H123553   2.860   3.967   4.049 -1.1954 -0.4878  0.1434
 7863TIP3    H223554   2.932   3.935   4.178  0.4692  1.6075 -0.2124
 7864TIP3   OH223555   5.182   5.372   0.606  0.2353  0.3619  0.1504
 7864TIP3    H123556   5.162   5.405   0.519 -0.4840  0.8823  0.5073
 7864TIP3    H223557   5.268   5.409   0.627 -0.1271  1.2131  0.1498
 7865TIP3   OH223558   0.802   3.419   3.003  0.5443  0.1978 -0.2208
 7865TIP3    H123559   0.767   3.496   2.957 -0.2762 -0.3805 -0.5836
 7865TIP3    H223560   0.886   3.403   2.962 -0.8875 -1.3492 -2.8157
 7866TIP3   OH223561   0.615   1.030   0.407  0.1696 -0.4996  0.4457
 7866TIP3    H123562   0.708   1.011   0.414 -0.2217 -2.3268  1.3120
 7866TIP3    H223563   0.593   1.012   0.316  0.5637 -0.6104  0.3728
 7867TIP3   OH223564   2.560   6.295   2.794 -0.1789 -0.0851 -0.4186
 7867TIP3    H123565   2.551   6.390   2.804 -0.8709 -0.0019 -1.5932
 7867TIP3    H223566   2.640   6.273   2.841  0.3078  1.1723 -0.6137
 7868TIP3   OH223567   4.708   2.611   3.614 -0.4305 -0.3976  0.3148
 7868TIP3    H123568   4.803   2.605   3.607 -0.5147 -1.2934 -0.2976
 7868TIP3    H223569   4.687   2.556   3.690 -0.4894 -0.6042  0.1515
 7869TIP3   OH223570   6.483   2.599   4.658 -0.0073 -0.5027 -0.0484
 7869TIP3    H123571   6.454   2.680   4.616 -1.0730  0.4324  2.3240
 7869TIP3    H223572   6.549   2.563   4.598  0.6906  2.2402 -1.0485
 7870TIP3   OH223573   2.291   1.116   1.915  0.6975  0.7948  0.2031
 7870TIP3    H123574   2.314   1.072   1.833  2.3821  1.7850  0.1007
 7870TIP3    H223575   2.246   1.196   1.887  0.0582  0.4717  0.2988
 7871TIP3   OH223576   6.123   4.362   0.578 -0.2136  0.2236 -0.4021
 7871TIP3    H123577   6.195   4.426   0.575  0.1868 -0.1999  0.0224
 7871TIP3    H223578   6.156   4.292   0.635 -0.4214 -0.6492 -1.3408
 7872TIP3   OH223579   4.412   0.801   1.084 -0.1849  0.3008  0.1519
 7872TIP3    H123580   4.394   0.833   0.996  0.8330 -0.0763 -0.2042
 7872TIP3    H223581   4.465   0.723   1.071  1.5057  1.2196  1.1160
 7873TIP3   OH223582   0.228   5.689   1.038 -0.4208  0.3792  0.0314
 7873TIP3    H123583   0.145   5.648   1.059  0.3628 -0.7037  1.1311
 7873TIP3    H223584   0.210   5.783   1.039 -1.6381  0.1520  0.1575
 7874TIP3   OH223585   4.142   0.506   5.562  0.2688 -0.1381  0.0219
 7874TIP3    H123586   4.233   0.475   5.563  0.8545  1.3964 -1.1091
 7874TIP3    H223587   4.131   0.542   5.474 -1.3966 -0.1293  0.2096
 7875TIP3   OH223588   3.852   4.147   2.450  0.1291 -0.5991  1.1537
 7875TIP3    H123589   3.758   4.133   2.435  0.1175  0.2802  0.2732
 7875TIP3    H223590   3.895   4.082   2.394  0.0481  0.0813  0.2871
 7876TIP3   OH223591   4.144   2.233   5.605 -0.1026  0.0907 -0.4071
 7876TIP3    H123592   4.207   2.164   5.627 -0.8925 -0.6038 -0.2420
 7876TIP3    H223593   4.196   2.303   5.568  0.9633  0.1798  1.1829
 7877TIP3   OH223594   3.930   5.864   4.225 -0.2579 -0.1315 -0.0693
 7877TIP3    H123595   3.905   5.849   4.134  0.5299  0.1761 -0.3427
 7877TIP3    H223596   4.021   5.838   4.230 -0.2190  0.0986  0.5751
 7878TIP3   OH223597   1.244   6.245   2.277  0.1457 -0.4161 -0.0528
 7878TIP3    H123598   1.173   6.182   2.270 -0.4706  0.1989  0.4424
 7878TIP3    H223599   1.226   6.309   2.208  0.0510 -0.1076  0.2542
 7879TIP3   OH223600   4.395   6.003   3.620  0.8319 -0.3055 -0.1567
 7879TIP3    H123601   4.416   6.080   3.567  0.2734  1.5758  2.1897
 7879TIP3    H223602   4.300   6.005   3.629  0.9001 -0.6448  0.7587
 7880TIP3   OH223603   5.196   3.945   1.107  0.3546 -0.4778 -0.5574
 7880TIP3    H123604   5.120   4.000   1.129 -0.2258 -0.8426 -1.6041
 7880TIP3    H223605   5.168   3.856   1.130  0.3918 -0.6407 -1.1460
 7881TIP3   OH223606   4.526   0.381   4.917 -0.1874 -0.3503  0.4480
 7881TIP3    H123607   4.436   0.356   4.898  0.1633 -0.5237 -1.1093
 7881TIP3    H223608   4.520   0.470   4.953 -1.1738 -1.3639  2.9444
 7882TIP3   OH223609   2.436   3.473   2.495  0.4095  0.5050  0.7417
 7882TIP3    H123610   2.455   3.430   2.579  2.2472  2.1849  1.2554
 7882TIP3    H223611   2.514   3.457   2.442 -0.1930  0.5753 -0.1821
 7883TIP3   OH223612   0.303   3.541   0.064 -0.2845  0.2782 -0.4018
 7883TIP3    H123613   0.258   3.523   0.146  1.9426  0.3940  0.9154
 7883TIP3    H223614   0.260   3.620   0.030 -1.9203 -0.3621  0.0859
 7884TIP3   OH223615   2.156   6.395   1.051 -0.0536  0.3091  0.3864
 7884TIP3    H123616   2.062   6.377   1.041  0.4130 -1.1894 -2.0561
 7884TIP3    H223617   2.160   6.486   1.081 -2.2696  0.2887  0.9242
 7885TIP3   OH223618   5.207   1.886   1.571 -0.1761  0.4735 -0.5177
 7885TIP3    H123619   5.237   1.863   1.659 -2.2812 -0.4656  0.0164
 7885TIP3    H223620   5.130   1.941   1.585 -1.0842 -0.4375 -1.7330
 7886TIP3   OH223621   0.148   6.204   3.728 -0.6738 -0.1407  0.3376
 7886TIP3    H123622   0.095   6.209   3.649 -1.0278 -1.4618  0.4714
 7886TIP3    H223623   0.238   6.219   3.697 -1.0623  1.9173  0.0873
 7887TIP3   OH223624   0.762   6.221   2.284 -0.3211 -0.0043  0.2000
 7887TIP3    H123625   0.714   6.162   2.342  0.0597  0.1824  0.7127
 7887TIP3    H223626   0.834   6.253   2.337 -0.5738  0.9957 -0.0390
 7888TIP3   OH223627   1.595   2.013   0.127 -0.3337 -0.0154  0.1453
 7888TIP3    H123628   1.611   2.085   0.067  0.1252 -0.3224 -0.1019
 7888TIP3    H223629   1.680   1.993   0.165 -0.1862 -1.3098 -0.7932
 7889TIP3   OH223630   1.231   6.686   2.484  0.1905 -0.2355 -0.4155
 7889TIP3    H123631   1.327   6.688   2.477  0.4003 -0.6952  1.5729
 7889TIP3    H223632   1.202   6.766   2.440  1.5404  0.2351 -0.5071
 7890TIP3   OH223633   6.551   4.813   2.016  0.2583  0.1104  0.1783
 7890TIP3    H123634   6.536   4.899   2.055 -0.8439  0.0204 -0.0195
 7890TIP3    H223635   6.465   4.771   2.016  0.8119 -1.0795  0.4650
 7891TIP3   OH223636   0.076   6.317   5.613  0.7012  0.1080  0.3917
 7891TIP3    H123637   0.056   6.350   5.525 -0.0547 -0.2354  0.4273
 7891TIP3    H223638   0.086   6.223   5.602  0.8215  0.0903  0.6386
 7892TIP3   OH223639   0.137   5.615   1.727 -1.1277  0.0182 -0.1390
 7892TIP3    H123640   0.180   5.561   1.793 -1.9181  0.2600  0.5932
 7892TIP3    H223641   0.176   5.702   1.738 -0.1743 -0.2814 -1.0202
 7893TIP3   OH223642   0.403   2.672   5.768  0.0110 -0.3073 -0.3286
 7893TIP3    H123643   0.392   2.680   5.673  2.3078 -1.0461 -0.7114
 7893TIP3    H223644   0.429   2.760   5.797 -0.6259 -0.0980 -0.3869
 7894TIP3   OH223645   5.317   1.727   1.879  0.2818 -0.4822  0.1250
 7894TIP3    H123646   5.252   1.751   1.945  0.5445 -0.5564  0.4181
 7894TIP3    H223647   5.307   1.632   1.870  0.9664 -0.6387  0.8559
 7895TIP3   OH223648   7.009   1.854   2.579 -0.5847  0.1799 -0.2609
 7895TIP3    H123649   7.090   1.892   2.613 -0.1279 -1.2019  0.2856
 7895TIP3    H223650   7.026   1.759   2.579 -1.5960 -0.0278 -1.7302
 7896TIP3   OH223651   3.968   2.573   4.472  0.8123 -0.0877 -0.8390
 7896TIP3    H123652   3.917   2.623   4.409  1.1958 -0.6581 -1.6246
 7896TIP3    H223653   3.906   2.552   4.542  0.0091 -0.6197 -1.6840
 7897TIP3   OH223654   2.978   1.864   1.672 -0.7227  0.1765 -0.0023
 7897TIP3    H123655   2.945   1.775   1.683 -1.9394  0.7564  1.4138
 7897TIP3    H223656   3.072   1.853   1.655 -0.9601 -1.3844 -0.4459
 7898TIP3   OH223657   2.411   6.753   5.419  0.5305  0.1908  0.0332
 7898TIP3    H123658   2.427   6.742   5.325 -0.3563  0.1429 -0.1173
 7898TIP3    H223659   2.493   6.787   5.453  0.8572  0.2244 -0.7638
 7899TIP3   OH223660   4.443   5.045   2.329 -0.0781  0.2644 -0.0601
 7899TIP3    H123661   4.492   4.963   2.321 -0.1165  0.4116 -2.8589
 7899TIP3    H223662   4.509   5.114   2.322 -0.3990  0.4521 -1.5295
 7900TIP3   OH223663   1.213   0.549   5.652  0.0589  0.3924 -0.0201
 7900TIP3    H123664   1.221   0.640   5.678  0.6516 -0.1929  2.0303
 7900TIP3    H223665   1.277   0.502   5.706 -0.1685 -1.2362 -1.0745
 7901TIP3   OH223666   5.865   4.858   2.800  0.1019 -0.3248 -0.9337
 7901TIP3    H123667   5.769   4.865   2.803 -0.0606 -2.4288 -0.0656
 7901TIP3    H223668   5.885   4.845   2.707 -0.3028  1.3624 -1.2973
 7902TIP3   OH223669   1.042   5.907   1.684 -0.1311  0.4123 -0.5673
 7902TIP3    H123670   1.080   5.958   1.613  1.8790  1.0791  0.8779
 7902TIP3    H223671   1.068   5.817   1.666  1.1916  0.7008 -0.2531
 7903TIP3   OH223672   4.697   1.617   0.130  0.6407 -1.2832  0.5179
 7903TIP3    H123673   4.686   1.703   0.171  0.3661 -2.4489  3.0296
 7903TIP3    H223674   4.608   1.587   0.112  0.6900 -1.4932  0.6243
 7904TIP3   OH223675   1.789   0.547   1.615  0.0726 -0.5125 -0.4035
 7904TIP3    H123676   1.829   0.541   1.528 -0.1826  0.6147 -0.6127
 7904TIP3    H223677   1.701   0.511   1.602  0.1873 -0.7650 -0.4999
 7905TIP3   OH223678   6.982   2.844   1.412  0.2195 -0.7112 -0.4993
 7905TIP3    H123679   7.004   2.868   1.322  1.1953 -0.2833 -0.1563
 7905TIP3    H223680   7.066   2.818   1.451 -0.1511 -0.6100  0.3726
 7906TIP3   OH223681   6.473   6.464   4.508 -0.0567 -0.2549 -0.4163
 7906TIP3    H123682   6.413   6.395   4.534  1.8780 -1.7726  0.2572
 7906TIP3    H223683   6.560   6.424   4.514  1.1007  2.0686 -0.5496
 7907TIP3   OH223684   5.713   5.205   2.808  0.5654  0.0436  0.1769
 7907TIP3    H123685   5.646   5.255   2.856  0.0824 -1.0355  0.6565
 7907TIP3    H223686   5.678   5.198   2.719  0.7841  0.8069  0.0197
 7908TIP3   OH223687   5.556   1.944   4.369  0.3707 -0.1405  0.4740
 7908TIP3    H123688   5.483   1.989   4.326  1.7872  0.2356 -1.6717
 7908TIP3    H223689   5.628   2.007   4.367  1.2690 -1.1221  0.9759
 7909TIP3   OH223690   2.880   0.011   3.206  0.3554  0.2980  0.0144
 7909TIP3    H123691   2.902   0.083   3.266  3.1497  0.1063 -0.6825
 7909TIP3    H223692   2.889   0.049   3.119 -0.4166 -0.3280 -0.3528
 7910TIP3   OH223693   7.071   3.703   3.414  0.1569 -0.0390  0.4985
 7910TIP3    H123694   7.090   3.795   3.393 -1.2266  0.4261  1.1904
 7910TIP3    H223695   6.988   3.685   3.371  0.0259 -0.7232  1.0274
 7911TIP3   OH223696   3.633   6.059   2.928 -0.1130  0.0286  0.0677
 7911TIP3    H123697   3.562   6.063   2.992 -0.2471 -2.5170  0.1981
 7911TIP3    H223698   3.590   6.066   2.843 -0.3569 -0.1547  0.1777
 7912TIP3   OH223699   3.728   0.521   1.920  0.6486  0.1582  0.2906
 7912TIP3    H123700   3.690   0.584   1.859  0.2342 -0.6835 -0.3449
 7912TIP3    H223701   3.732   0.567   2.004 -0.9826  0.5489  0.1824
 7913TIP3   OH223702   5.087   2.934   2.797  0.6010  0.7437 -0.2164
 7913TIP3    H123703   5.113   2.860   2.743 -1.2942  0.4145 -0.7231
 7913TIP3    H223704   5.118   2.912   2.885 -0.3221 -0.8817 -0.2655
 7914TIP3   OH223705   7.177   5.872   2.341  0.5619 -0.4131  0.3282
 7914TIP3    H123706   7.174   5.784   2.379  2.2925  0.0690  1.7150
 7914TIP3    H223707   7.270   5.893   2.338  0.1408  1.6993  0.7981
 7915TIP3   OH223708   6.149   3.787   4.034 -0.0215  0.0482 -0.4273
 7915TIP3    H123709   6.136   3.871   3.990  4.1911  0.4065 -1.3803
 7915TIP3    H223710   6.062   3.763   4.067 -2.2344  2.6715 -3.7565
 7916TIP3   OH223711   0.620   5.508   5.352  0.0188 -0.1342 -0.2008
 7916TIP3    H123712   0.617   5.486   5.259 -0.5584  2.1845 -0.7917
 7916TIP3    H223713   0.657   5.596   5.354 -0.3677  0.0131  1.7437
 7917TIP3   OH223714   0.221   6.171   1.638  0.3349  0.3436 -0.0532
 7917TIP3    H123715   0.295   6.227   1.658  0.2143  0.4945 -0.0324
 7917TIP3    H223716   0.245   6.128   1.555  1.5179 -1.4391  1.1240
 7918TIP3   OH223717   1.866   5.471   2.708  0.4387  0.1419 -0.0818
 7918TIP3    H123718   1.803   5.433   2.770 -1.2439  1.5874 -0.8318
 7918TIP3    H223719   1.946   5.484   2.760  0.2680 -2.0195  0.8180
 7919TIP3   OH223720   4.611   4.484   0.111 -0.5595 -0.5892 -0.5898
 7919TIP3    H123721   4.642   4.547   0.045  0.2755  0.9932  1.1935
 7919TIP3    H223722   4.545   4.532   0.160 -0.4709 -1.3843  0.3353
 7920TIP3   OH223723   2.419   1.528   4.757 -0.3433 -0.3606  0.1778
 7920TIP3    H123724   2.434   1.537   4.663  2.3665 -0.1554  0.5313
 7920TIP3    H223725   2.407   1.434   4.771  0.2753 -0.5093 -0.2667
 7921TIP3   OH223726   5.499   1.400   1.982 -0.0389 -0.2990 -0.1924
 7921TIP3    H123727   5.553   1.322   1.970  1.8708  0.8079  0.7387
 7921TIP3    H223728   5.479   1.402   2.076 -0.9785 -0.2200 -0.3814
 7922TIP3   OH223729   2.184   6.021   3.105  0.2099 -0.0959 -0.2774
 7922TIP3    H123730   2.179   6.038   3.011  2.3926 -2.3378 -0.8985
 7922TIP3    H223731   2.241   6.090   3.139 -0.1235  0.3885 -0.6899
 7923TIP3   OH223732   0.987   4.282   0.548  0.2302 -0.0235  0.0185
 7923TIP3    H123733   1.018   4.191   0.539 -0.6055 -0.5131  1.6580
 7923TIP3    H223734   1.029   4.313   0.628 -0.5242  0.5795  0.1908
 7924TIP3   OH223735   0.775   5.732   5.326  0.0079 -0.2522 -0.3336
 7924TIP3    H123736   0.845   5.674   5.357  0.4709  1.1066  1.3746
 7924TIP3    H223737   0.779   5.807   5.386 -1.9680  0.5407 -1.1242
 7925TIP3   OH223738   1.340   1.202   4.152 -0.4706  0.2811 -0.2086
 7925TIP3    H123739   1.256   1.199   4.198 -0.5407 -3.3596 -0.2585
 7925TIP3    H223740   1.405   1.193   4.221 -0.3082  0.0374 -0.3908
 7926TIP3   OH223741   0.517   3.303   1.508  0.4771 -0.1273  0.3079
 7926TIP3    H123742   0.598   3.350   1.529 -0.1677  0.6660  1.0770
 7926TIP3    H223743   0.451   3.372   1.501 -0.0780 -0.7355 -0.6257
 7927TIP3   OH223744   2.896   5.249   4.475  0.8045  0.5339  0.1488
 7927TIP3    H123745   2.845   5.330   4.466 -0.0124  0.1288  0.9882
 7927TIP3    H223746   2.841   5.181   4.437  0.8957  0.1576  0.6787
 7928TIP3   OH223747   5.103   5.725   5.023  0.6165 -0.3071  0.1695
 7928TIP3    H123748   5.108   5.737   4.928  0.6602 -0.4206  0.1580
 7928TIP3    H223749   5.012   5.699   5.039  0.6386 -0.3962  0.1475
 7929TIP3   OH223750   3.106   6.508   2.945  0.1837  0.5203  0.2248
 7929TIP3    H123751   3.030   6.454   2.967  0.9517 -0.9482 -0.5507
 7929TIP3    H223752   3.069   6.592   2.916 -1.2485 -0.6489 -1.5403
 7930TIP3   OH223753   4.321   4.241   0.512  0.0412  0.6335  0.1813
 7930TIP3    H123754   4.384   4.313   0.508  1.5166 -0.6408 -0.8687
 7930TIP3    H223755   4.365   4.174   0.565 -0.1128 -0.5440 -1.1206
 7931TIP3   OH223756   6.295   4.230   2.368 -0.1084  0.3837 -0.5126
 7931TIP3    H123757   6.246   4.181   2.434  0.9212  0.6207  0.4536
 7931TIP3    H223758   6.324   4.163   2.305  2.0615 -0.4562  1.2692
 7932TIP3   OH223759   5.859   2.587   1.561  0.4775 -0.5513 -0.0086
 7932TIP3    H123760   5.766   2.585   1.584  0.4574  0.1253 -0.0111
 7932TIP3    H223761   5.893   2.504   1.594  0.2466 -0.0362  1.6263
 7933TIP3   OH223762   5.502   3.200   2.061 -0.2715 -0.2148  0.0766
 7933TIP3    H123763   5.408   3.198   2.081 -0.0458 -0.4211  1.1260
 7933TIP3    H223764   5.506   3.235   1.972 -1.4142 -1.3365 -0.4533
 7934TIP3   OH223765   4.848   6.428   3.819  0.2255 -0.1986 -0.5052
 7934TIP3    H123766   4.839   6.448   3.726 -1.8498 -0.8944 -0.5140
 7934TIP3    H223767   4.930   6.469   3.845 -0.1294  1.7238 -2.1865
 7935TIP3   OH223768   4.329   0.214   2.008 -0.3307  0.1988 -0.3471
 7935TIP3    H123769   4.241   0.230   2.042  0.8742  2.2187  2.1922
 7935TIP3    H223770   4.338   0.119   2.010 -1.8302  0.0290  1.1613
 7936TIP3   OH223771   5.064   3.242   0.956  0.4918 -0.6937 -0.2819
 7936TIP3    H123772   5.160   3.247   0.956  0.4913  0.5410 -2.1852
 7936TIP3    H223773   5.042   3.220   0.865 -1.0448 -0.0122 -0.0987
 7937TIP3   OH223774   5.946   6.498   0.863 -0.1059  1.0839  0.0157
 7937TIP3    H123775   5.991   6.480   0.781 -0.1662  1.6364 -0.1436
 7937TIP3    H223776   6.016   6.511   0.927 -0.0581 -0.3462  0.2926
 7938TIP3   OH223777   2.578   1.122   1.948 -0.2015  0.0732  0.4912
 7938TIP3    H123778   2.482   1.126   1.940 -0.2006  0.0528  0.4674
 7938TIP3    H223779   2.607   1.211   1.930 -0.1299 -0.1765 -0.7437
 7939TIP3   OH223780   2.192   0.610   4.422  0.1311 -0.3140  0.1394
 7939TIP3    H123781   2.169   0.518   4.433  0.8397 -0.4712  0.3515
 7939TIP3    H223782   2.283   0.609   4.395 -0.5014  0.2219 -2.2824
 7940TIP3   OH223783   4.133   2.565   2.109 -0.0148  0.0555 -0.3014
 7940TIP3    H123784   4.226   2.585   2.114 -0.0946  0.5082 -0.5635
 7940TIP3    H223785   4.095   2.639   2.062 -0.5350 -0.0358 -0.0335
 7941TIP3   OH223786   6.719   6.012   4.537 -0.3966 -0.3071 -0.0233
 7941TIP3    H123787   6.687   6.056   4.459 -0.4296 -0.6034 -0.1799
 7941TIP3    H223788   6.678   5.925   4.533  0.0091 -0.5011  0.0568
 7942TIP3   OH223789   6.583   3.050   0.955  0.3100  0.2112  0.6945
 7942TIP3    H123790   6.488   3.062   0.955  0.5392  2.5348 -0.3084
 7942TIP3    H223791   6.611   3.082   1.041  0.3888  2.4001 -0.0640
 7943TIP3   OH223792   0.497   6.813   0.784 -0.2333 -0.0831  0.3158
 7943TIP3    H123793   0.528   6.735   0.831 -1.4105 -0.9807 -0.3398
 7943TIP3    H223794   0.512   6.793   0.692  2.3330  1.7948  0.2285
 7944TIP3   OH223795   6.388   5.646   5.886 -0.4492  0.0716 -0.7215
 7944TIP3    H123796   6.473   5.642   5.842 -0.7227  1.0706 -1.3564
 7944TIP3    H223797   6.357   5.735   5.873 -1.3074 -0.0860  0.0736
 7945TIP3   OH223798   4.310   1.698   0.887 -0.0753 -0.5797 -0.0947
 7945TIP3    H123799   4.294   1.618   0.936 -2.3929 -0.1279  0.0020
 7945TIP3    H223800   4.313   1.767   0.953  0.3540 -0.3928 -0.3037
 7946TIP3   OH223801   5.921   0.584   0.506  0.3841  0.3570 -0.3784
 7946TIP3    H123802   5.899   0.664   0.553 -0.3555  0.4970 -0.9511
 7946TIP3    H223803   5.961   0.613   0.424  1.3794  0.1157  0.0029
 7947TIP3   OH223804   2.325   3.813   4.249 -0.1615 -0.3403  0.6489
 7947TIP3    H123805   2.267   3.866   4.304 -0.1763  2.1278 -1.5849
 7947TIP3    H223806   2.411   3.851   4.262 -0.2568  0.6887 -1.3892
 7948TIP3   OH223807   5.738   5.856   3.215 -0.4280 -0.2991  0.1376
 7948TIP3    H123808   5.664   5.880   3.270 -0.4033  0.3721 -0.1175
 7948TIP3    H223809   5.745   5.927   3.151  0.1705 -0.5670 -0.1029
 7949TIP3   OH223810   0.866   5.615   2.112  0.1525  0.1282  0.6077
 7949TIP3    H123811   0.886   5.522   2.120 -0.1220 -0.2111 -1.9493
 7949TIP3    H223812   0.865   5.632   2.018  1.1760  2.9393  0.9913
 7950TIP3   OH223813   0.729   0.519   4.519 -0.5227 -0.8679 -0.2965
 7950TIP3    H123814   0.799   0.458   4.543  0.3870 -0.5474 -2.0499
 7950TIP3    H223815   0.657   0.462   4.491  1.1633 -1.3205 -4.3924
 7951TIP3   OH223816   0.490   4.584   0.442  0.2436  0.2792  0.4992
 7951TIP3    H123817   0.429   4.601   0.514  1.2910 -0.4227  1.6004
 7951TIP3    H223818   0.451   4.510   0.395  0.5207 -0.5903  1.5810
 7952TIP3   OH223819   3.831   1.758   0.334 -0.0060 -0.0804  0.3328
 7952TIP3    H123820   3.750   1.742   0.286  0.0870  1.5749 -0.4385
 7952TIP3    H223821   3.807   1.741   0.425 -0.8801 -0.8083 -0.0095
 7953TIP3   OH223822   6.168   2.008   5.315  0.4037 -0.1517  1.0119
 7953TIP3    H123823   6.261   2.003   5.335  0.9590  0.8870 -0.9903
 7953TIP3    H223824   6.126   1.947   5.376  2.5656 -1.8338  0.9159
 7954TIP3   OH223825   5.310   4.980   4.010  0.4525  0.1217 -0.0958
 7954TIP3    H123826   5.350   5.064   4.034 -0.4323 -0.1880  2.6971
 7954TIP3    H223827   5.373   4.915   4.040 -0.7458 -0.2900  1.5846
 7955TIP3   OH223828   0.780   5.948   4.275 -0.6191  0.5455  0.2653
 7955TIP3    H123829   0.866   5.909   4.287 -0.4061  0.7639 -0.4975
 7955TIP3    H223830   0.797   6.042   4.263 -0.7420  0.3460 -1.9688
 7956TIP3   OH223831   4.784   6.562   1.381  0.6586  0.1222 -0.8089
 7956TIP3    H123832   4.810   6.654   1.382  1.2006  0.0501  2.1218
 7956TIP3    H223833   4.784   6.536   1.474 -0.4326 -2.5701 -1.4585
 7957TIP3   OH223834   0.610   5.051   1.563  0.4931  0.5666  0.4588
 7957TIP3    H123835   0.520   5.025   1.581  0.1354  0.2682 -1.5706
 7957TIP3    H223836   0.661   4.970   1.570  0.7226  0.8078  2.0345
 7958TIP3   OH223837   2.367   3.110   3.698  0.3310  0.0051  0.2581
 7958TIP3    H123838   2.444   3.089   3.644  0.0090 -1.0234  0.1723
 7958TIP3    H223839   2.404   3.137   3.782  0.8071 -1.7460  0.6612
 7959TIP3   OH223840   2.783   6.331   4.763  0.6608 -0.4090 -0.0661
 7959TIP3    H123841   2.834   6.334   4.682  0.4326  0.8960 -0.1953
 7959TIP3    H223842   2.838   6.375   4.828  1.1091 -1.9943  0.6822
 7960TIP3   OH223843   3.879   2.926   0.464  0.2378  0.5300  0.0301
 7960TIP3    H123844   3.950   2.923   0.528  1.1031  0.1734 -0.9174
 7960TIP3    H223845   3.801   2.902   0.514  1.0611 -0.8303  0.7216
 7961TIP3   OH223846   3.036   1.410   1.383  0.0325 -0.4587 -0.2996
 7961TIP3    H123847   3.067   1.320   1.396  1.3155 -0.1446 -0.9725
 7961TIP3    H223848   2.984   1.406   1.303 -0.0160 -0.6297 -0.2603
 7962TIP3   OH223849   3.606   1.708   0.176 -0.2658 -0.4459  0.7779
 7962TIP3    H123850   3.554   1.630   0.156  0.1487  0.0332 -3.0655
 7962TIP3    H223851   3.550   1.781   0.151 -0.5587  0.5985  4.1004
 7963TIP3   OH223852   3.035   2.986   0.753 -0.0837  0.3481 -0.1843
 7963TIP3    H123853   3.007   2.896   0.733  1.2468 -0.3102  0.7924
 7963TIP3    H223854   3.114   2.976   0.805  0.5599  2.1265 -0.7462
 7964TIP3   OH223855   6.587   4.561   2.959  0.3621  0.2443  1.2800
 7964TIP3    H123856   6.586   4.654   2.981 -2.4293  0.4217  0.7289
 7964TIP3    H223857   6.506   4.527   2.996 -0.2648 -1.2544 -1.2738
 7965TIP3   OH223858   7.173   3.119   0.432 -0.8227  0.3387  0.0530
 7965TIP3    H123859   7.184   3.024   0.434 -0.7863  0.3548  0.8223
 7965TIP3    H223860   7.089   3.135   0.475 -1.3396  0.5916 -1.0152
 7966TIP3   OH223861   4.462   2.962   2.756  0.0314 -0.3268  0.0289
 7966TIP3    H123862   4.452   2.877   2.798  0.4482 -0.0229  0.7468
 7966TIP3    H223863   4.437   3.026   2.823  1.5196  0.2065  0.1084
 7967TIP3   OH223864   4.556   6.317   0.125 -0.0081 -0.3158 -0.1310
 7967TIP3    H123865   4.544   6.248   0.060 -1.2651 -1.4133  1.1848
 7967TIP3    H223866   4.557   6.271   0.209 -2.0930  1.3117  0.8927
 7968TIP3   OH223867   3.427   5.826   2.325  0.0541 -0.2241 -0.8408
 7968TIP3    H123868   3.425   5.898   2.389  0.6070  0.4349 -1.5442
 7968TIP3    H223869   3.468   5.754   2.372  1.3942  0.5703 -0.7429
 7969TIP3   OH223870   0.659   1.737   0.044 -0.0121 -0.3371  0.1342
 7969TIP3    H123871   0.680   1.651   0.007 -0.9825 -0.6156  0.1971
 7969TIP3    H223872   0.601   1.718   0.117 -0.9562  0.4089 -0.3916
 7970TIP3   OH223873   2.216   3.507   0.098  0.0209  0.7951 -0.3087
 7970TIP3    H123874   2.221   3.506   0.002 -0.6183  0.2985 -0.3463
 7970TIP3    H223875   2.122   3.515   0.116  0.0493 -0.1447  0.2742
 7971TIP3   OH223876   0.304   6.789   3.770  0.0726  0.0254  0.0875
 7971TIP3    H123877   0.228   6.732   3.760 -0.3379  0.7191 -0.9596
 7971TIP3    H223878   0.360   6.744   3.833 -1.8890  0.2156  2.0980
 7972TIP3   OH223879   1.074   5.916   3.112 -0.4708 -0.5273  0.6631
 7972TIP3    H123880   1.071   5.857   3.188  1.1783 -1.2894  0.1894
 7972TIP3    H223881   1.140   5.878   3.055 -1.8167 -0.0888 -1.2887
 7973TIP3   OH223882   5.796   3.076   0.718 -0.1841 -0.0666  0.5688
 7973TIP3    H123883   5.771   3.035   0.800 -0.5666 -1.1363 -0.0573
 7973TIP3    H223884   5.771   3.013   0.651 -1.6405  1.5562 -0.5192
 7974TIP3   OH223885   3.505   2.272   5.697 -0.1883 -0.7567  0.1315
 7974TIP3    H123886   3.450   2.311   5.629 -1.1284 -0.6420  0.9334
 7974TIP3    H223887   3.496   2.332   5.772  1.2080 -0.6243  0.2143
 7975TIP3   OH223888   3.498   0.758   0.656  0.2547 -0.1705 -0.3242
 7975TIP3    H123889   3.516   0.681   0.603 -1.5780 -0.8760  0.0168
 7975TIP3    H223890   3.496   0.726   0.746  2.3046  0.8276  0.1365
 7976TIP3   OH223891   4.745   5.168   2.300  0.3776 -0.4528 -0.5076
 7976TIP3    H123892   4.837   5.177   2.273  1.0840 -2.6215  0.9794
 7976TIP3    H223893   4.744   5.194   2.392 -0.7906  0.8139 -0.8505
 7977TIP3   OH223894   6.650   5.391   0.963 -0.2841 -0.2730 -0.1578
 7977TIP3    H123895   6.687   5.471   0.924 -0.1398 -0.1316  0.2589
 7977TIP3    H223896   6.724   5.351   1.009  0.4742 -2.3079 -2.8960
 7978TIP3   OH223897   3.991   5.182   3.553 -0.3551  0.2303  0.2713
 7978TIP3    H123898   4.034   5.152   3.473  1.6978 -2.2818  2.1232
 7978TIP3    H223899   4.058   5.231   3.600  0.1347 -2.2819  2.4462
 7979TIP3   OH223900   3.561   2.026   2.687 -0.5469  0.0136 -0.5689
 7979TIP3    H123901   3.485   2.036   2.745  0.0473  0.3292  0.1643
 7979TIP3    H223902   3.526   2.043   2.599 -1.4348 -0.3756 -0.3037
 7980TIP3   OH223903   0.108   0.080   4.549 -0.2161 -0.2519 -0.0270
 7980TIP3    H123904   0.148   0.072   4.636  0.2669  1.7156 -0.0182
 7980TIP3    H223905   0.173   0.129   4.498 -0.5582 -1.2601 -1.4801
 7981TIP3   OH223906   1.912   3.216   1.978 -0.4041  0.5590  0.7030
 7981TIP3    H123907   1.825   3.187   2.005  0.4816 -1.9701  1.1558
 7981TIP3    H223908   1.903   3.235   1.885 -1.5372  0.7532  0.8419
 7982TIP3   OH223909   6.577   1.219   4.285 -0.0548  0.1091  0.5661
 7982TIP3    H123910   6.572   1.140   4.231 -1.5373  0.3886  0.2474
 7982TIP3    H223911   6.662   1.257   4.263  1.1475 -1.9008  1.4977
 7983TIP3   OH223912   4.409   5.269   3.968  0.4804 -0.1770 -0.0395
 7983TIP3    H123913   4.373   5.355   3.947 -0.3824 -0.5669 -0.2049
 7983TIP3    H223914   4.504   5.283   3.973  0.4957  0.4443 -1.6445
 7984TIP3   OH223915   3.504   4.009   5.738 -0.3449 -0.2195 -0.5720
 7984TIP3    H123916   3.427   4.042   5.786 -0.1896  0.1791 -0.5924
 7984TIP3    H223917   3.578   4.028   5.795 -0.1964 -0.0544 -0.8159
 7985TIP3   OH223918   4.620   5.849   3.636 -0.2359  0.6218  0.2330
 7985TIP3    H123919   4.557   5.921   3.624  0.7927  1.4008 -0.6862
 7985TIP3    H223920   4.704   5.886   3.609  0.5325 -0.5723  0.9092
 7986TIP3   OH223921   5.449   0.900   1.578 -0.5186 -0.2263  0.1435
 7986TIP3    H123922   5.441   0.990   1.547  2.7721 -0.3516 -1.4820
 7986TIP3    H223923   5.386   0.851   1.525  0.3474  0.6092 -1.7468
 7987TIP3   OH223924   3.368   6.125   5.162 -0.0573 -0.4390 -0.4848
 7987TIP3    H123925   3.299   6.061   5.148 -0.7533  0.3035 -0.5071
 7987TIP3    H223926   3.442   6.092   5.111 -0.2463 -1.4485 -0.1425
 7988TIP3   OH223927   6.440   0.866   5.324  0.0180  0.0210  0.4472
 7988TIP3    H123928   6.437   0.950   5.277  0.2912 -0.2992 -0.1568
 7988TIP3    H223929   6.371   0.873   5.390 -0.9963  0.1438 -0.5877
 7989TIP3   OH223930   7.159   4.605   2.523 -0.0513  0.0893  0.8035
 7989TIP3    H123931   7.187   4.554   2.447 -1.0588 -1.9460  1.7030
 7989TIP3    H223932   7.239   4.643   2.558  0.4604  0.8513 -1.0987
 7990TIP3   OH223933   4.165   1.872   3.935  0.0628 -0.6003 -0.3320
 7990TIP3    H123934   4.072   1.867   3.917 -0.0801  0.0835  0.1992
 7990TIP3    H223935   4.197   1.783   3.922 -0.5255 -0.6843 -1.2464
 7991TIP3   OH223936   0.619   4.916   1.280  0.2646 -0.3596 -0.2467
 7991TIP3    H123937   0.611   4.954   1.368  1.9925  1.1091 -0.6667
 7991TIP3    H223938   0.537   4.868   1.267  0.1873 -1.0581  2.3462
 7992TIP3   OH223939   6.787   3.403   3.681 -0.6233  0.4323 -0.1308
 7992TIP3    H123940   6.864   3.366   3.724 -1.7062 -0.7316  0.8817
 7992TIP3    H223941   6.805   3.498   3.678  1.5026  0.0670 -1.3512
 7993TIP3   OH223942   5.235   1.807   5.861  0.2837 -0.1683  0.0491
 7993TIP3    H123943   5.280   1.807   5.946 -1.4292 -1.8464  1.0408
 7993TIP3    H223944   5.239   1.717   5.831 -0.0971  0.1894 -1.1227
 7994TIP3   OH223945   5.008   2.351   2.928  0.3665 -0.1090  0.2851
 7994TIP3    H123946   5.101   2.353   2.949  0.2103 -0.0722  0.9928
 7994TIP3    H223947   4.992   2.262   2.897  0.5478 -0.2497  0.5957
 7995TIP3   OH223948   1.371   0.952   0.519 -0.1202  0.0169 -0.3034
 7995TIP3    H123949   1.424   1.015   0.470  2.2263 -1.2669  0.4666
 7995TIP3    H223950   1.404   0.866   0.494 -1.6305 -0.8496  0.4873
 7996TIP3   OH223951   6.620   5.447   0.014  0.5970 -0.0088 -0.4704
 7996TIP3    H123952   6.629   5.354  -0.010  1.0166 -0.5907  1.7648
 7996TIP3    H223953   6.528   5.458   0.034  0.9570 -0.6302  1.7221
 7997TIP3   OH223954   0.884   1.316   3.026  0.5850  0.4790  0.3301
 7997TIP3    H123955   0.948   1.364   2.972  0.1586  0.0205 -0.6084
 7997TIP3    H223956   0.924   1.230   3.039 -0.0032  0.0422 -0.6223
 7998TIP3   OH223957   2.407   6.652   0.263 -0.1088  0.4224  0.0512
 7998TIP3    H123958   2.459   6.578   0.230 -0.7134  0.8865 -2.1387
 7998TIP3    H223959   2.339   6.611   0.317 -0.2398 -0.6313 -0.8605
 7999TIP3   OH223960   4.768   3.573   1.938 -0.1089 -0.0524 -0.2720
 7999TIP3    H123961   4.829   3.504   1.963  0.1998  0.6727  1.0802
 7999TIP3    H223962   4.810   3.654   1.968 -1.5875  0.4897  0.3973
 8000TIP3   OH223963   2.592   3.058   3.877 -0.4380 -0.2321 -0.1710
 8000TIP3    H123964   2.674   3.109   3.881 -0.6393  0.0630  0.2905
 8000TIP3    H223965   2.612   2.985   3.818  1.0570 -1.7522  2.0877
 8001TIP3   OH223966   0.062   1.930   1.342  0.4408  0.0675  0.3047
 8001TIP3    H123967   0.052   1.993   1.271 -0.3728 -0.5600 -0.1610
 8001TIP3    H223968  -0.028   1.913   1.371  0.3323 -2.8284 -1.3471
 8002TIP3   OH223969   6.109   1.570   0.915  0.1706 -0.3568  0.4705
 8002TIP3    H123970   6.017   1.561   0.938  0.0082 -0.8569 -0.3531
 8002TIP3    H223971   6.118   1.526   0.831  0.5226  2.3139 -0.9941
 8003TIP3   OH223972   0.575   6.135   3.877 -0.5107  0.2726 -0.3380
 8003TIP3    H123973   0.632   6.170   3.945 -1.7095  1.6636 -0.0154
 8003TIP3    H223974   0.525   6.066   3.921 -0.9265  0.8312  0.0866
 8004TIP3   OH223975   0.724   3.514   2.029 -0.3743  0.4770 -0.0838
 8004TIP3    H123976   0.735   3.428   1.988  0.3850  1.1416 -1.3312
 8004TIP3    H223977   0.747   3.499   2.121 -1.1584 -0.8365 -0.0685
 8005TIP3   OH223978   7.152   1.569   2.633 -0.1981  0.0226  0.0740
 8005TIP3    H123979   7.155   1.482   2.593 -0.4353 -0.1706  0.4694
 8005TIP3    H223980   7.203   1.559   2.714  0.3866  0.4425 -0.2378
 8006TIP3   OH223981   3.666   3.980   4.290  0.0106  0.1576 -0.0779
 8006TIP3    H123982   3.651   4.054   4.350  2.3939  0.8473 -0.2268
 8006TIP3    H223983   3.633   4.011   4.206 -1.3977  0.0060  0.3902
 8007TIP3   OH223984   4.317   2.720   2.603 -0.4704 -0.1798 -0.7259
 8007TIP3    H123985   4.386   2.675   2.651 -1.6526  0.5323  1.8487
 8007TIP3    H223986   4.238   2.669   2.621 -1.3805  1.4465  0.1473
 8008TIP3   OH223987   6.326   2.697   0.742 -0.0948  0.0995  0.0437
 8008TIP3    H123988   6.412   2.739   0.737 -1.0810  2.2497 -0.0697
 8008TIP3    H223989   6.328   2.629   0.675  1.7854 -0.5117  0.6401
 8009TIP3   OH223990   5.851   6.552   0.107  0.3823  0.0757 -0.4175
 8009TIP3    H123991   5.900   6.470   0.097  0.8861  0.0411  1.8391
 8009TIP3    H223992   5.898   6.615   0.053  0.9614 -0.7335 -0.8848
 8010TIP3   OH223993   5.522   2.347   3.682  0.0549  0.1079  0.0073
 8010TIP3    H123994   5.567   2.304   3.754 -0.8980 -0.6307  0.1700
 8010TIP3    H223995   5.509   2.279   3.617  1.2068  0.8374 -1.0459
 8011TIP3   OH223996   2.798   5.430   3.231  0.0365  0.1257  0.2543
 8011TIP3    H123997   2.803   5.353   3.176 -1.5764  0.5200 -0.5053
 8011TIP3    H223998   2.715   5.420   3.279  0.2134  0.9737  0.7623
 8012TIP3   OH223999   1.039   3.633   3.253  0.0420  0.2236 -0.3634
 8012TIP3    H124000   1.115   3.643   3.197 -0.2397  1.7340 -0.5100
 8012TIP3    H224001   1.044   3.706   3.314  0.6383 -1.6765  1.9946
 8013TIP3   OH224002   1.757   2.276   4.738  0.0991 -0.8137  0.0513
 8013TIP3    H124003   1.848   2.296   4.757  0.3298 -1.3441 -0.4606
 8013TIP3    H224004   1.714   2.275   4.823  0.6112 -0.7555  0.3132
 8014TIP3   OH224005   0.583   3.311   2.433 -0.3114 -0.4078 -0.2352
 8014TIP3    H124006   0.628   3.292   2.515 -2.5062 -0.0444  1.1397
 8014TIP3    H224007   0.539   3.229   2.410  0.4875 -0.5783 -1.2021
 8015TIP3   OH224008   6.447   2.685   1.871 -0.1024 -0.3500 -0.2080
 8015TIP3    H124009   6.447   2.677   1.775  0.7797  1.2573 -0.3710
 8015TIP3    H224010   6.538   2.704   1.893 -0.7103  1.8166  0.6940
 8016TIP3   OH224011   0.717   0.235   3.283  0.4665  0.2684 -0.7687
 8016TIP3    H124012   0.807   0.262   3.264  0.9583 -1.6752 -1.4367
 8016TIP3    H224013   0.716   0.142   3.263 -1.1000 -0.2554  1.4260
 8017TIP3   OH224014   5.940   2.302   0.068 -0.4277  0.3983 -0.3829
 8017TIP3    H124015   5.917   2.315  -0.024  0.8344  1.2774 -0.6015
 8017TIP3    H224016   5.872   2.347   0.117 -0.0711  1.5979 -0.9528
 8018TIP3   OH224017   2.311   1.456   2.398 -0.0294 -0.2060  0.3952
 8018TIP3    H124018   2.229   1.427   2.438 -0.6883  0.7479 -0.2121
 8018TIP3    H224019   2.334   1.386   2.337 -0.0519 -0.7676  1.0264
 8019TIP3   OH224020   7.141   0.580   2.649 -0.0365 -0.1144 -0.4335
 8019TIP3    H124021   7.170   0.500   2.693  0.1797 -0.3190 -0.9481
 8019TIP3    H224022   7.055   0.559   2.615  0.3069 -0.3534 -1.1628
 8020TIP3   OH224023   6.573   5.708   5.231  0.1122  0.0327  0.9365
 8020TIP3    H124024   6.557   5.696   5.325  0.8860 -0.0334  1.0610
 8020TIP3    H224025   6.655   5.756   5.226  1.2536 -1.8557  0.2688
 8021TIP3   OH224026   4.755   4.464   4.422  0.0070 -0.5595  0.4121
 8021TIP3    H124027   4.813   4.414   4.479  0.8423 -0.5650 -0.4124
 8021TIP3    H224028   4.672   4.469   4.470  0.5207 -1.0180  1.3743
 8022TIP3   OH224029   6.893   6.229   2.590  0.1654  0.8171  0.4970
 8022TIP3    H124030   6.937   6.242   2.674  1.9042  1.9621 -0.5172
 8022TIP3    H224031   6.949   6.169   2.542  0.0242  1.4038 -0.4214
 8023TIP3   OH224032   1.317   4.004   4.308  0.6075  0.1515  0.3927
 8023TIP3    H124033   1.371   4.032   4.382 -0.3467  1.3906  0.6522
 8023TIP3    H224034   1.247   4.069   4.304 -1.1206 -1.6297  0.3548
 8024TIP3   OH224035   0.801   5.929   1.957  0.6592  0.4906  0.4455
 8024TIP3    H124036   0.844   5.988   1.895 -2.0057  3.4429  1.1680
 8024TIP3    H224037   0.859   5.927   2.032  1.8941  0.3045 -0.4805
 8025TIP3   OH224038   0.424   3.732   2.931 -0.2998 -0.7570 -0.0465
 8025TIP3    H124039   0.354   3.740   2.866 -1.2335 -0.3845  0.9737
 8025TIP3    H224040   0.415   3.811   2.985  0.8095 -0.7896  0.2087
 8026TIP3   OH224041   4.226   6.525   1.088  0.2591 -0.1865  0.2208
 8026TIP3    H124042   4.165   6.537   1.015 -0.1544 -1.8236  0.2718
 8026TIP3    H224043   4.305   6.572   1.059  0.3423 -1.3345 -1.6153
 8027TIP3   OH224044   1.083   4.738   2.441  0.0254  0.4160  0.1382
 8027TIP3    H124045   1.083   4.828   2.409 -1.1611  0.7031  0.8984
 8027TIP3    H224046   0.999   4.727   2.484  0.4443 -0.8342  0.7047
 8028TIP3   OH224047   6.411   5.013   3.222 -0.3260  0.0603 -0.4165
 8028TIP3    H124048   6.427   5.105   3.197 -2.7683  0.4527 -0.7701
 8028TIP3    H224049   6.327   5.015   3.268 -0.8140 -2.1130 -1.1059
 8029TIP3   OH224050   6.117   3.200   4.067  0.2188  0.0706 -0.4345
 8029TIP3    H124051   6.207   3.174   4.046  0.0799 -0.7348 -0.0967
 8029TIP3    H224052   6.101   3.159   4.153 -0.8575 -0.7775 -1.0236
 8030TIP3   OH224053   1.494   6.528   1.748 -0.3544  0.6277 -0.1093
 8030TIP3    H124054   1.566   6.470   1.774 -1.1905 -0.1769  0.4614
 8030TIP3    H224055   1.536   6.595   1.695  0.5249 -0.9500 -1.4992
 8031TIP3   OH224056   0.552   6.392   3.141  0.2418 -0.4588  0.0696
 8031TIP3    H124057   0.505   6.439   3.210 -0.9826 -1.7993  0.2061
 8031TIP3    H224058   0.560   6.455   3.069 -1.7253 -0.1414  0.0780
 8032TIP3   OH224059   2.875   5.583   1.329  0.1317 -0.0554  0.2922
 8032TIP3    H124060   2.873   5.648   1.259 -1.1601 -0.4134 -0.0208
 8032TIP3    H224061   2.965   5.549   1.326  0.9777  1.9536  0.7280
 8033TIP3   OH224062   6.415   4.027   0.417 -0.1923  0.0385  0.3080
 8033TIP3    H124063   6.440   4.086   0.345  0.1012 -0.3725  0.0643
 8033TIP3    H224064   6.399   4.085   0.491 -3.8464  0.8323 -0.9146
 8034TIP3   OH224065   1.846   1.661   0.557 -0.3366  0.4204  0.7162
 8034TIP3    H124066   1.795   1.673   0.477 -0.0292  0.4888  0.5276
 8034TIP3    H224067   1.826   1.738   0.610 -0.1357  0.6355  0.4806
 8035TIP3   OH224068   3.159   2.370   3.723  0.2830 -0.4275  0.0928
 8035TIP3    H124069   3.130   2.279   3.732 -1.5898  0.2753  1.7715
 8035TIP3    H224070   3.117   2.401   3.643 -0.7311 -0.4820  0.5887
 8036TIP3   OH224071   6.455   6.456   0.706  0.0019 -0.6282  0.0533
 8036TIP3    H124072   6.505   6.528   0.668 -0.2969 -0.0155  0.8083
 8036TIP3    H224073   6.522   6.391   0.728  0.3195 -0.4004 -0.2199
 8037TIP3   OH224074   3.957   4.863   2.417 -0.4215 -0.1420  0.1500
 8037TIP3    H124075   3.889   4.860   2.350  0.5139  0.2085 -0.8304
 8037TIP3    H224076   3.925   4.804   2.486 -0.6314 -1.8465 -1.3392
 8038TIP3   OH224077   2.427   5.143   3.172 -0.7332  0.0901  0.3422
 8038TIP3    H124078   2.447   5.093   3.251 -0.8673 -0.4186  0.0565
 8038TIP3    H224079   2.332   5.153   3.174 -0.8873 -1.0716 -0.4313
 8039TIP3   OH224080   0.682   0.167   1.878 -0.0847 -0.7212 -0.4084
 8039TIP3    H124081   0.692   0.261   1.887  2.0914 -0.9819  0.4097
 8039TIP3    H224082   0.610   0.156   1.816 -0.2129  1.4619 -0.7047
 8040TIP3   OH224083   5.746   6.275   1.245 -0.0448 -0.3803  0.3245
 8040TIP3    H124084   5.838   6.263   1.219  0.4796  0.3696  1.7430
 8040TIP3    H224085   5.743   6.362   1.284 -1.6588  0.1411 -0.8463
 8041TIP3   OH224086   0.298   2.376   2.724  0.0988 -0.4394  0.6460
 8041TIP3    H124087   0.373   2.327   2.757  0.5483 -0.9709 -1.1076
 8041TIP3    H224088   0.252   2.316   2.666 -1.4284  0.0448  1.2878
 8042TIP3   OH224089   2.733   5.571   3.626 -0.2902  0.2580 -0.1500
 8042TIP3    H124090   2.691   5.526   3.553 -0.7065  1.0464 -0.4097
 8042TIP3    H224091   2.787   5.504   3.668 -1.0354 -0.5224 -0.4138
 8043TIP3   OH224092   2.136   5.870   0.197 -0.6972 -0.3116  0.4297
 8043TIP3    H124093   2.102   5.954   0.165 -0.2458 -0.3963 -0.2864
 8043TIP3    H224094   2.181   5.832   0.121  0.1667 -0.6388  1.1001
 8044TIP3   OH224095   4.126   1.404   3.991  0.2990 -0.0478  0.0420
 8044TIP3    H124096   4.212   1.370   4.016  0.2500  0.2459  0.6236
 8044TIP3    H224097   4.090   1.439   4.072  0.8446  2.5296 -0.7504
 8045TIP3   OH224098   1.302   1.370   2.044 -0.4503 -0.3530  0.2400
 8045TIP3    H124099   1.230   1.318   2.009 -2.3023  1.3978  1.2363
 8045TIP3    H224100   1.260   1.444   2.088  2.0131  2.0297 -1.0776
 8046TIP3   OH224101   4.347   1.734   0.288  0.1373  0.4686 -0.1197
 8046TIP3    H124102   4.394   1.650   0.294  0.6692  0.8458  2.3036
 8046TIP3    H224103   4.257   1.709   0.266  0.9730 -0.4110 -2.9484
 8047TIP3   OH224104   4.669   0.024   1.686 -0.0281 -0.0330  0.0645
 8047TIP3    H124105   4.690   0.091   1.751  0.0125  0.0211 -0.0040
 8047TIP3    H224106   4.715  -0.054   1.717 -0.9069 -0.3130  0.6966
 8048TIP3   OH224107   6.324   4.325   3.908  0.1969 -0.3289 -0.6528
 8048TIP3    H124108   6.406   4.314   3.861 -0.2152  0.6189 -1.6536
 8048TIP3    H224109   6.349   4.355   3.995  0.9237 -0.6654 -0.7435
 8049TIP3   OH224110   1.791   5.915   0.505 -0.7344  0.1284 -0.4378
 8049TIP3    H124111   1.728   5.923   0.433 -1.4771 -0.1047  0.1772
 8049TIP3    H224112   1.871   5.884   0.463 -1.0742  0.2563 -1.2034
 8050TIP3   OH224113   2.382   5.997   5.870 -0.7641  0.0263 -0.2588
 8050TIP3    H124114   2.357   5.941   5.796  2.4044 -1.1568 -0.6397
 8050TIP3    H224115   2.430   6.070   5.829  0.6870 -0.4394  0.5245
 8051TIP3   OH224116   6.631   4.301   2.832  0.6219 -0.3315  0.6779
 8051TIP3    H124117   6.621   4.392   2.862  0.5747  0.1251 -0.6376
 8051TIP3    H224118   6.701   4.306   2.767  0.1921 -1.1274  0.1476
 8052TIP3   OH224119   5.904   1.432   2.809  0.2452 -0.3325  0.7261
 8052TIP3    H124120   5.925   1.519   2.842 -1.5665  0.2801  0.3390
 8052TIP3    H224121   5.822   1.409   2.853 -0.6809 -0.7150 -1.1305
 8053TIP3   OH224122   1.866   0.973   1.900  0.2578 -0.2542  0.1386
 8053TIP3    H124123   1.865   0.914   1.825  0.3239 -0.0539 -0.0223
 8053TIP3    H224124   1.774   0.984   1.924  0.1527  0.4953 -0.5611
 8054TIP3   OH224125   5.795   2.802   2.590 -0.0671  0.3786 -0.2812
 8054TIP3    H124126   5.823   2.744   2.519 -1.6050 -0.2761 -0.3902
 8054TIP3    H224127   5.870   2.859   2.605  0.8436 -0.4706 -1.3900
 8055TIP3   OH224128   5.127   3.098   4.591  0.3284  0.7989  0.6605
 8055TIP3    H124129   5.122   3.100   4.495 -0.6766  0.9204  0.7051
 8055TIP3    H224130   5.053   3.044   4.618  1.1701 -0.0427  1.3420
 8056TIP3   OH224131   0.981   6.555   2.568  0.3970 -0.0024 -0.7487
 8056TIP3    H124132   1.069   6.591   2.561  0.9035 -1.2246 -0.9445
 8056TIP3    H224133   0.967   6.542   2.661  1.0213 -1.1802 -0.8019
 8057TIP3   OH224134   6.556   4.560   3.815  0.6356  0.3445 -0.0379
 8057TIP3    H124135   6.639   4.522   3.845  0.6266  0.0518 -0.3749
 8057TIP3    H224136   6.547   4.528   3.726  0.5940  1.0912 -0.3061
 8058TIP3   OH224137   3.518   5.339   2.170  0.3076  0.6750  0.4056
 8058TIP3    H124138   3.576   5.282   2.119 -0.9707 -0.3492  0.0436
 8058TIP3    H224139   3.525   5.424   2.126  2.9700  1.1466  1.5238
 8059TIP3   OH224140   0.197   5.752   4.813  0.0235 -0.4778  0.0390
 8059TIP3    H124141   0.127   5.785   4.757  0.7902 -0.1163 -0.7213
 8059TIP3    H224142   0.220   5.666   4.777  0.0195 -0.5658  0.2431
 8060TIP3   OH224143   5.707   6.141   3.509 -0.6552 -0.4108  0.3504
 8060TIP3    H124144   5.649   6.214   3.528 -0.2910 -0.2289  0.7946
 8060TIP3    H224145   5.650   6.072   3.478 -1.3869 -0.9447  2.7222
 8061TIP3   OH224146   3.433   3.100   1.928 -0.0649  0.7349  0.6485
 8061TIP3    H124147   3.428   3.176   1.986 -0.2475  1.4283 -0.2547
 8061TIP3    H224148   3.431   3.137   1.839 -0.6305 -0.3546  0.1856
 8062TIP3   OH224149   2.768   3.019   3.512 -0.1170 -0.2224  0.0203
 8062TIP3    H124150   2.766   3.095   3.570 -1.2853 -0.7699  0.7328
 8062TIP3    H224151   2.796   3.054   3.428 -1.0229  1.0836  0.2354
 8063TIP3   OH224152   3.883   2.141   0.614  0.5921 -0.1497 -0.3100
 8063TIP3    H124153   3.892   2.077   0.685  2.6547 -0.6374 -0.9478
 8063TIP3    H224154   3.943   2.110   0.546  1.3121  2.1984 -0.8428
 8064TIP3   OH224155   3.783   0.951   0.425 -0.1156 -0.0805  0.0775
 8064TIP3    H124156   3.774   0.861   0.456 -0.0649  0.1710  0.8461
 8064TIP3    H224157   3.758   1.005   0.500 -1.1350  0.5482 -0.6900
 8065TIP3   OH224158   6.620   1.372   3.708  0.2139  0.4989  0.1939
 8065TIP3    H124159   6.628   1.336   3.796  0.2946 -2.0058 -0.7791
 8065TIP3    H224160   6.533   1.411   3.706 -1.1392 -2.2655  0.4740
 8066TIP3   OH224161   0.591   3.735   1.708 -0.2447 -0.1529  0.3238
 8066TIP3    H124162   0.552   3.654   1.741 -0.0768 -0.0047  0.8975
 8066TIP3    H224163   0.530   3.804   1.734  0.0083 -0.0083  0.5355
 8067TIP3   OH224164   1.149   5.209   0.727  0.6878  0.1409  0.4246
 8067TIP3    H124165   1.180   5.166   0.647 -1.1786 -0.2376 -0.1457
 8067TIP3    H224166   1.127   5.299   0.699  2.6830  0.9094  1.1719
 8068TIP3   OH224167   0.536   3.184   2.029  0.0652  0.1444 -0.0170
 8068TIP3    H124168   0.528   3.098   1.990  0.1323 -0.3197  0.9649
 8068TIP3    H224169   0.621   3.182   2.073  0.6743  1.1758 -1.0698
 8069TIP3   OH224170   3.238   6.179   1.649 -0.1460 -0.2184 -0.0733
 8069TIP3    H124171   3.208   6.137   1.569  0.2961 -1.3742  0.3350
 8069TIP3    H224172   3.309   6.236   1.621 -0.2151 -0.3648 -0.5519
 8070TIP3   OH224173   3.091   4.921   5.737  0.0750  0.1370 -0.7084
 8070TIP3    H124174   3.047   4.864   5.673 -1.2487  1.2599 -0.8675
 8070TIP3    H224175   3.061   5.009   5.714  1.3070  0.8038  0.1228
 8071TIP3   OH224176   4.823   5.756   4.271  0.2128  0.9433 -0.4076
 8071TIP3    H124177   4.772   5.693   4.322  0.9101  0.5586 -0.1738
 8071TIP3    H224178   4.776   5.764   4.188  0.3100 -0.1605 -0.5837
 8072TIP3   OH224179   4.052   3.290   1.730  0.5282  0.3857 -0.4221
 8072TIP3    H124180   3.999   3.226   1.684  1.8060 -1.9389  1.1117
 8072TIP3    H224181   4.016   3.291   1.819  0.8018  1.5196 -0.3079
 8073TIP3   OH224182   2.214   3.597   5.668  0.0258  0.0802  0.3735
 8073TIP3    H124183   2.309   3.595   5.680 -0.0656  0.6227  1.3139
 8073TIP3    H224184   2.202   3.595   5.574  0.9321 -1.1924  0.2568
 8074TIP3   OH224185   1.880   1.656   5.371  0.1658  0.4903  0.5828
 8074TIP3    H124186   1.868   1.574   5.419 -1.2344  0.2637 -0.1064
 8074TIP3    H224187   1.915   1.630   5.287  0.3793  0.6657  0.6169
 8075TIP3   OH224188   0.464   0.595   2.015  0.1596  0.5838  0.3210
 8075TIP3    H124189   0.395   0.661   2.019  0.0994  0.4927  0.9308
 8075TIP3    H224190   0.545   0.645   2.028  0.2666  0.7746 -1.0197
 8076TIP3   OH224191   3.775   4.653   0.090 -0.3017 -0.0055  0.4972
 8076TIP3    H124192   3.778   4.557   0.095 -1.0743 -0.0780 -0.3467
 8076TIP3    H224193   3.752   4.680   0.179  0.2835 -0.5711  0.8387
 8077TIP3   OH224194   5.269   0.743   3.312 -0.1309  1.1277  0.3333
 8077TIP3    H124195   5.181   0.721   3.282 -0.3206  0.2477  1.4944
 8077TIP3    H224196   5.268   0.839   3.319 -0.6981  1.1999 -0.5111
 8078TIP3   OH224197   3.062   1.581   5.535  0.1912  0.4902 -0.2163
 8078TIP3    H124198   3.133   1.534   5.490 -0.6137 -1.0958  0.0934
 8078TIP3    H224199   3.106   1.652   5.582  1.1461  1.8525 -2.9396
 8079TIP3   OH224200   0.445   2.695   4.710  0.6314  0.5298 -0.0576
 8079TIP3    H124201   0.512   2.626   4.705  1.8818  1.5888  1.1743
 8079TIP3    H224202   0.362   2.647   4.716  1.4397 -0.8789  0.4703
 8080TIP3   OH224203   6.748   3.606   5.507 -0.1585  0.3342  0.3373
 8080TIP3    H124204   6.788   3.693   5.503  2.1566 -0.6822 -0.8593
 8080TIP3    H224205   6.796   3.561   5.577  0.3756 -0.7046 -0.6606
 8081TIP3   OH224206   1.120   1.591   1.826  0.1671 -0.5058  0.0328
 8081TIP3    H124207   1.204   1.635   1.815 -0.5005  0.7467 -0.1865
 8081TIP3    H224208   1.092   1.615   1.914 -0.2048 -0.5089 -0.0864
 8082TIP3   OH224209   3.897   5.968   1.305 -0.5620 -0.0503 -0.0887
 8082TIP3    H124210   3.944   6.043   1.341 -1.3136  0.3498  0.0945
 8082TIP3    H224211   3.895   5.904   1.376 -0.7578  0.1494  0.0898
 8083TIP3   OH224212   5.586   6.611   1.535 -0.2652 -0.4823  0.2390
 8083TIP3    H124213   5.632   6.596   1.617 -1.0891 -1.3324  0.5545
 8083TIP3    H224214   5.497   6.581   1.551 -0.8656  0.8024 -0.4713
 8084TIP3   OH224215   5.383   2.155   0.625  0.3822  0.0470  0.0542
 8084TIP3    H124216   5.465   2.195   0.597  0.1790 -0.4795 -1.3878
 8084TIP3    H224217   5.347   2.116   0.545 -0.6148 -0.8790  0.9189
 8085TIP3   OH224218   3.342   1.199   1.601  0.3033 -0.0704 -0.1112
 8085TIP3    H124219   3.415   1.216   1.541 -0.3463  0.8649 -0.6507
 8085TIP3    H224220   3.338   1.277   1.657 -1.3087  0.6459 -1.1597
 8086TIP3   OH224221   6.867   1.770   3.403 -0.2882 -0.2804 -0.1976
 8086TIP3    H124222   6.851   1.710   3.477  2.7527 -0.4568  0.4451
 8086TIP3    H224223   6.890   1.712   3.330 -0.5158  0.0230 -0.5144
 8087TIP3   OH224224   3.414   4.906   3.791  0.1971 -0.1871  0.4759
 8087TIP3    H124225   3.492   4.954   3.763 -0.8926  0.9476 -0.7592
 8087TIP3    H224226   3.424   4.819   3.753  1.1362 -0.2496  0.8400
 8088TIP3   OH224227   1.886   2.374   5.335 -0.1416  0.4768 -0.0621
 8088TIP3    H124228   1.964   2.398   5.387 -0.7116 -0.2945  1.2050
 8088TIP3    H224229   1.819   2.437   5.362 -1.0066 -1.0728  1.6590
 8089TIP3   OH224230   5.936   3.678   0.953 -0.3765 -0.2906 -0.3175
 8089TIP3    H124231   5.993   3.667   1.030 -0.5242 -2.0966 -0.4387
 8089TIP3    H224232   5.978   3.748   0.903  0.5470 -0.1134  0.6632
 8090TIP3   OH224233   4.568   5.013   1.632  0.0032  0.1534  0.2473
 8090TIP3    H124234   4.476   5.039   1.624  0.6502  2.7254  0.0641
 8090TIP3    H224235   4.591   4.977   1.547 -0.6628  0.1117  0.0802
 8091TIP3   OH224236   7.216   4.740   5.212 -0.1981  0.2267 -0.7344
 8091TIP3    H124237   7.172   4.746   5.296  0.8092  0.3952 -0.2071
 8091TIP3    H224238   7.150   4.703   5.153 -0.3981 -1.4788  0.5006
 8092TIP3   OH224239   1.496   4.570   1.135  0.0099  0.3331  0.2491
 8092TIP3    H124240   1.513   4.599   1.225 -0.1661 -0.7390  0.6517
 8092TIP3    H224241   1.582   4.545   1.101 -0.1995 -1.6450  1.0238
 8093TIP3   OH224242   0.639   0.857   3.545  0.5986  0.3556  0.4583
 8093TIP3    H124243   0.585   0.926   3.582  1.2252  1.3109 -0.3376
 8093TIP3    H224244   0.590   0.776   3.559 -0.8421  1.1452  0.1045
 8094TIP3   OH224245   1.958   6.169   0.324 -0.4691  0.1460  0.4685
 8094TIP3    H124246   2.020   6.186   0.253  0.5704  1.4124  1.6070
 8094TIP3    H224247   2.013   6.140   0.397 -1.4790 -0.8340  0.8733
 8095TIP3   OH224248   6.505   5.016   4.882 -0.0388  0.0065 -0.1847
 8095TIP3    H124249   6.541   5.040   4.968  0.6820 -0.3688 -0.3726
 8095TIP3    H224250   6.580   4.981   4.834 -0.4313  0.2439 -0.9838
 8096TIP3   OH224251   1.721   2.745   0.927  0.3464 -1.0712 -0.4864
 8096TIP3    H124252   1.710   2.778   0.838  1.3445 -0.9154 -0.5659
 8096TIP3    H224253   1.804   2.696   0.924  1.0927  0.0621  0.6720
 8097TIP3   OH224254   0.784   1.500   2.391  0.0558  0.3525 -0.1645
 8097TIP3    H124255   0.856   1.562   2.383 -0.2862  0.8259  0.3781
 8097TIP3    H224256   0.782   1.477   2.484 -0.0548 -0.1986 -0.2950
 8098TIP3   OH224257   5.913   1.645   4.614 -0.3692 -0.5957  0.1305
 8098TIP3    H124258   5.983   1.706   4.591 -1.0679 -0.1814 -0.9755
 8098TIP3    H224259   5.833   1.685   4.580 -1.1134 -1.2030  1.1046
 8099TIP3   OH224260   4.574   6.294   3.230  0.2811 -0.0483 -0.0494
 8099TIP3    H124261   4.520   6.313   3.153  1.2510 -1.5498 -1.1658
 8099TIP3    H224262   4.664   6.306   3.199  0.7507 -2.1188  0.3882
 8100TIP3   OH224263   3.315   1.178   3.704 -0.6928  0.0974  0.1354
 8100TIP3    H124264   3.337   1.107   3.643  0.4393 -0.8036  1.5272
 8100TIP3    H224265   3.284   1.133   3.783  0.5232  1.0868  1.2302
 8101TIP3   OH224266   0.881   2.852   3.058 -0.9409  0.1502 -0.0334
 8101TIP3    H124267   0.897   2.944   3.036 -0.7402  0.2336  0.4522
 8101TIP3    H224268   0.786   2.843   3.059 -0.9884 -0.1596 -2.1828
 8102TIP3   OH224269   6.657   0.478   3.249 -0.2936 -0.2363  0.6201
 8102TIP3    H124270   6.600   0.537   3.296  0.1954  0.4454  0.3718
 8102TIP3    H224271   6.741   0.483   3.295  0.0328  0.0269  0.0168
 8103TIP3   OH224272   2.603   3.076   2.550  0.2633 -0.1247  0.4975
 8103TIP3    H124273   2.686   3.096   2.594  0.3765 -0.1371  0.2917
 8103TIP3    H224274   2.566   3.004   2.601  0.6111 -0.4467  0.3080
 8104TIP3   OH224275   4.227   6.473   3.524 -0.0557  0.0385  0.0195
 8104TIP3    H124276   4.225   6.389   3.568 -0.6019 -0.5928 -1.1545
 8104TIP3    H224277   4.223   6.538   3.595 -0.3918 -0.9225  0.8983
 8105TIP3   OH224278   2.986   5.766   2.372  0.2399 -0.4258  0.1754
 8105TIP3    H124279   2.957   5.796   2.286  0.0737 -1.0234  0.0210
 8105TIP3    H224280   3.071   5.725   2.356  0.2943 -0.3720  0.3245
 8106TIP3   OH224281   4.201   3.155   3.504  0.7032 -0.8626 -0.0374
 8106TIP3    H124282   4.224   3.204   3.583  1.6659  0.0017 -0.8312
 8106TIP3    H224283   4.107   3.172   3.493  1.1821  1.6430 -0.8156
 8107TIP3   OH224284   6.254   1.680   1.435  0.3101 -0.0947  0.3572
 8107TIP3    H124285   6.161   1.698   1.449  0.0396 -1.4950  0.4985
 8107TIP3    H224286   6.262   1.667   1.341  0.7747  2.0332  0.0444
 8108TIP3   OH224287   5.032   1.841   2.317  0.6789 -0.0335 -0.0088
 8108TIP3    H124288   5.021   1.777   2.387  1.4964  0.3291  0.4813
 8108TIP3    H224289   4.954   1.897   2.322 -0.0361 -0.9781 -0.4420
 8109TIP3   OH224290   3.036   4.057   4.632 -0.1373  0.0731 -0.1915
 8109TIP3    H124291   2.992   3.983   4.591  0.2361 -0.2296 -0.0533
 8109TIP3    H224292   3.114   4.019   4.672  2.0398  1.0589 -3.1901
 8110TIP3   OH224293   0.753   2.884   0.794  0.4259  0.1153 -0.3947
 8110TIP3    H124294   0.778   2.886   0.701  0.6359  0.8346 -0.3242
 8110TIP3    H224295   0.754   2.791   0.817  1.1238 -0.0070 -0.9098
 8111TIP3   OH224296   1.305   5.301   5.357  0.1656 -0.4284 -0.4462
 8111TIP3    H124297   1.344   5.386   5.378  3.4671 -1.2012 -2.7471
 8111TIP3    H224298   1.346   5.240   5.418 -0.3743 -0.7521 -0.3978
 8112TIP3   OH224299   5.024   3.186   2.897 -0.3197  0.0781 -0.3434
 8112TIP3    H124300   5.074   3.138   2.830  2.5245  0.8875  1.0321
 8112TIP3    H224301   4.971   3.119   2.939 -0.6632 -0.8102 -2.0661
 8113TIP3   OH224302   0.561   3.732   0.087  0.4599 -0.4852 -0.2467
 8113TIP3    H124303   0.583   3.789   0.014  1.3053 -1.1102 -0.5010
 8113TIP3    H224304   0.534   3.650   0.046 -0.7540 -0.2831  0.1129
 8114TIP3   OH224305   2.572   3.791   4.932  0.3297  0.1980  0.2171
 8114TIP3    H124306   2.661   3.770   4.902  1.1980  1.3142  1.8935
 8114TIP3    H224307   2.532   3.706   4.949  1.8741 -0.3016  1.5963
 8115TIP3   OH224308   2.818   3.885   1.313  0.0922  0.0224  0.4470
 8115TIP3    H124309   2.838   3.967   1.359 -0.3279  0.0086  0.6680
 8115TIP3    H224310   2.854   3.897   1.225  1.5836 -0.2470  0.9927
 8116TIP3   OH224311   2.852   6.035   1.490 -1.3326 -0.2324 -0.5495
 8116TIP3    H124312   2.822   5.997   1.573 -1.5128 -0.0399 -0.5245
 8116TIP3    H224313   2.896   5.964   1.445 -0.4246 -0.1126  0.1146
 8117TIP3   OH224314   1.439   0.367   1.693  0.2805 -0.4288  0.3282
 8117TIP3    H124315   1.363   0.307   1.698  1.3344 -1.7826  0.7507
 8117TIP3    H224316   1.504   0.318   1.643  0.7596  0.8794 -0.3666
 8118TIP3   OH224317   0.298   4.181   4.236  0.8915  0.0168  0.7377
 8118TIP3    H124318   0.386   4.190   4.273  1.8175 -0.1247 -1.2473
 8118TIP3    H224319   0.304   4.103   4.181  0.2504  1.2805 -1.2317
 8119TIP3   OH224320   0.678   4.412   3.235  0.2956 -0.3378  0.0619
 8119TIP3    H124321   0.701   4.333   3.187 -0.3707 -1.2895  1.2355
 8119TIP3    H224322   0.762   4.450   3.260  0.6304 -0.9975 -0.0329
 8120TIP3   OH224323   4.594   5.233   5.478  0.0386 -0.2629 -0.3948
 8120TIP3    H124324   4.560   5.277   5.556 -0.6692 -0.8499 -0.3558
 8120TIP3    H224325   4.689   5.241   5.486 -0.0480  0.4488  0.0747
 8121TIP3   OH224326   5.534   1.715   2.100  0.4442 -0.4732 -0.5443
 8121TIP3    H124327   5.505   1.743   2.013  2.4188  0.9182 -0.8138
 8121TIP3    H224328   5.453   1.705   2.150 -0.5879  2.6597 -1.3972
 8122TIP3   OH224329   5.660   0.077   2.420  0.0640  0.1664 -0.5462
 8122TIP3    H124330   5.643   0.042   2.333  0.8626 -1.5510 -0.0618
 8122TIP3    H224331   5.580   0.060   2.469 -0.7439  1.9714 -1.1297
 8123TIP3   OH224332   6.779   2.766   3.341 -0.3026 -0.0185  0.5632
 8123TIP3    H124333   6.821   2.819   3.273 -0.8511  0.1470  0.3453
 8123TIP3    H224334   6.851   2.722   3.385 -0.0383 -1.5196 -1.2681
 8124TIP3   OH224335   3.437   5.763   1.461  0.1498  0.0204  0.0185
 8124TIP3    H124336   3.378   5.717   1.521 -0.0583 -0.3036 -0.4191
 8124TIP3    H224337   3.453   5.699   1.391 -1.9689  1.3293 -1.8029
 8125TIP3   OH224338   6.525   3.021   2.746 -0.1332 -0.0561 -0.6356
 8125TIP3    H124339   6.481   2.943   2.782  0.9940 -0.5567 -0.2605
 8125TIP3    H224340   6.612   3.019   2.787  0.0705  1.1578 -0.9786
 8126TIP3   OH224341   0.438   2.777   1.397  0.2827  0.2795 -0.5052
 8126TIP3    H124342   0.494   2.712   1.438 -0.8875 -0.0512  0.6103
 8126TIP3    H224343   0.475   2.861   1.424  0.5480  0.0682 -0.2062
 8127TIP3   OH224344   6.954   4.464   1.801 -0.2032 -0.0000  0.2518
 8127TIP3    H124345   7.004   4.386   1.774  0.6591  0.5074  0.3314
 8127TIP3    H224346   6.944   4.453   1.896 -0.3555 -0.1681  0.2169
 8128TIP3   OH224347   6.427   1.347   4.682  0.1938  0.1944  0.4018
 8128TIP3    H124348   6.368   1.272   4.686  1.4004 -0.8657 -0.6857
 8128TIP3    H224349   6.509   1.311   4.649  1.3033  1.7159  1.3665
 8129TIP3   OH224350   6.340   2.142   0.899  0.0212 -0.3003  0.0550
 8129TIP3    H124351   6.282   2.160   0.826  1.1655 -0.6253 -0.9629
 8129TIP3    H224352   6.376   2.227   0.924 -1.7027  0.0758  1.4399
 8130TIP3   OH224353   6.227   1.360   4.430  0.1523  0.2616 -0.0234
 8130TIP3    H124354   6.306   1.385   4.477  0.3779  1.0096 -0.7697
 8130TIP3    H224355   6.231   1.264   4.425 -0.3893  0.0578  2.2989
 8131TIP3   OH224356   3.617   2.755   5.131  0.0328 -0.2164  0.0702
 8131TIP3    H124357   3.659   2.765   5.217  0.2844  1.5480 -0.2340
 8131TIP3    H224358   3.685   2.779   5.068 -0.8039  0.7020 -0.5132
 8132TIP3   OH224359   0.144   6.513   4.289  0.0225  0.0930 -0.0013
 8132TIP3    H124360   0.147   6.497   4.384  1.5751  0.5734  0.0520
 8132TIP3    H224361   0.212   6.456   4.253  0.3553  0.8965 -0.6755
 8133TIP3   OH224362   3.201   1.743   3.995 -0.0324  0.5465  0.2337
 8133TIP3    H124363   3.134   1.775   4.055 -0.2511 -0.5787  0.6116
 8133TIP3    H224364   3.208   1.650   4.015  1.2076  0.5272 -0.2263
 8134TIP3   OH224365   1.016   2.078   0.377 -0.2266  0.1279  0.4222
 8134TIP3    H124366   1.026   1.983   0.366 -0.3616  0.3175 -1.8699
 8134TIP3    H224367   1.055   2.115   0.298 -2.3194  1.8381  0.1072
 8135TIP3   OH224368   1.335   1.490   2.981  0.0472 -0.3525  0.0719
 8135TIP3    H124369   1.313   1.518   2.892 -2.3893 -0.5557  0.5489
 8135TIP3    H224370   1.292   1.554   3.038  1.6833 -0.1445  1.1472
 8136TIP3   OH224371   4.433   6.078   5.140  0.4352 -0.5426  0.2017
 8136TIP3    H124372   4.443   6.100   5.047  1.4771  1.2587  0.6870
 8136TIP3    H224373   4.520   6.091   5.177 -0.2489  0.0518  1.6766
 8137TIP3   OH224374   1.233   5.426   5.104  0.1166  0.0255 -0.1178
 8137TIP3    H124375   1.169   5.356   5.117  0.0489 -0.1353 -1.2227
 8137TIP3    H224376   1.283   5.428   5.186 -1.3180  0.1867  0.7995
 8138TIP3   OH224377   4.057   5.058   4.147 -0.3856 -0.0129 -0.1914
 8138TIP3    H124378   4.080   5.069   4.055 -1.3558  0.8696 -0.3424
 8138TIP3    H224379   4.124   5.107   4.195 -1.5265  2.0721 -0.6011
 8139TIP3   OH224380   4.397   4.692   5.174 -0.7373  0.5918 -0.0629
 8139TIP3    H124381   4.469   4.753   5.156 -3.0902  3.2383 -1.3853
 8139TIP3    H224382   4.370   4.712   5.264 -1.5862  1.6758 -0.5374
 8140TIP3   OH224383   5.067   5.928   5.556 -0.3145 -0.1755  0.4785
 8140TIP3    H124384   5.041   5.873   5.482  0.4213  1.4876 -1.0576
 8140TIP3    H224385   5.151   5.890   5.585  0.7954  0.7775 -1.3312
 8141TIP3   OH224386   7.205   4.843   3.900 -0.3246 -0.5431 -0.4810
 8141TIP3    H124387   7.207   4.936   3.879 -0.9675 -0.4766 -0.2660
 8141TIP3    H224388   7.189   4.800   3.816 -1.7835 -0.3434 -0.3293
 8142TIP3   OH224389   1.330   1.356   1.564  0.1118 -0.2165 -0.2954
 8142TIP3    H124390   1.391   1.320   1.500 -0.9561 -2.8921  0.0768
 8142TIP3    H224391   1.384   1.383   1.638  0.9562 -1.6433 -0.3686
 8143TIP3   OH224392   1.004   0.344   3.141  0.5313 -0.5223 -0.2173
 8143TIP3    H124393   1.045   0.300   3.067  1.0710 -1.1313  0.4198
 8143TIP3    H224394   1.006   0.437   3.119  0.3763 -0.7241 -1.1051
 8144TIP3   OH224395   1.394   6.516   5.349 -0.7091  0.2655  0.4244
 8144TIP3    H124396   1.433   6.447   5.295 -2.8538  0.1902 -1.1880
 8144TIP3    H224397   1.305   6.484   5.367 -1.5994  2.3531  0.0142
 8145TIP3   OH224398   3.968   0.990   4.671 -0.4241 -0.6804  0.3615
 8145TIP3    H124399   4.020   1.065   4.699 -1.4097  0.2925 -0.3050
 8145TIP3    H224400   4.030   0.934   4.624  0.2279 -0.0382  0.4373
 8146TIP3   OH224401   5.036   2.826   5.643  0.6239 -0.0615  0.2050
 8146TIP3    H124402   5.021   2.862   5.556  0.1499 -2.6402 -0.8448
 8146TIP3    H224403   4.948   2.814   5.680  0.8227  1.6619  1.4164
 8147TIP3   OH224404   4.622   5.459   0.331 -0.1572  0.2134  0.2382
 8147TIP3    H124405   4.535   5.419   0.338 -0.2231  0.4467  0.8535
 8147TIP3    H224406   4.652   5.436   0.243 -0.6306 -0.2946  0.2009
 8148TIP3   OH224407   0.351   4.955   5.494  0.3305 -0.4040  1.1384
 8148TIP3    H124408   0.301   5.028   5.530 -2.0198 -1.2192 -0.2224
 8148TIP3    H224409   0.432   4.995   5.461 -1.2388  1.7990 -0.3325
 8149TIP3   OH224410   2.059   6.239   4.583  0.6858  0.5289  0.2075
 8149TIP3    H124411   2.149   6.228   4.613  0.5657 -0.1977  0.3107
 8149TIP3    H224412   2.068   6.258   4.489  0.9689  0.9929  0.3260
 8150TIP3   OH224413   2.972   5.502   1.719 -0.2254 -0.9554 -0.0184
 8150TIP3    H124414   3.023   5.569   1.673 -0.7724 -1.7853 -1.9021
 8150TIP3    H224415   3.038   5.440   1.751  0.1041 -0.7509 -0.2896
 8151TIP3   OH224416   2.226   5.792   2.884  0.2515  0.2599  0.7496
 8151TIP3    H124417   2.280   5.833   2.816 -1.5950  0.4096 -0.6951
 8151TIP3    H224418   2.268   5.818   2.966  2.2156  0.5591 -0.2784
 8152TIP3   OH224419   5.455   0.329   1.699  0.5087  0.2350  0.0125
 8152TIP3    H124420   5.365   0.324   1.665  0.5574  1.7118 -0.4060
 8152TIP3    H224421   5.500   0.388   1.638  1.4510  0.4530  0.8981
 8153TIP3   OH224422   2.780   1.723   2.255  0.6399 -0.4591  0.2319
 8153TIP3    H124423   2.856   1.716   2.199  0.3744 -0.2872 -0.1557
 8153TIP3    H224424   2.720   1.655   2.224  0.5780 -0.5015  0.4397
 8154TIP3   OH224425   3.832   5.817   0.396  0.0784 -0.4377 -0.0092
 8154TIP3    H124426   3.753   5.858   0.362  0.6593  0.1064 -0.7413
 8154TIP3    H224427   3.885   5.889   0.430  0.9260 -0.5980 -0.9294
 8155TIP3   OH224428   5.994   5.088   1.023  0.1854 -0.4334 -0.0349
 8155TIP3    H124429   5.995   5.103   1.117  0.4749  0.7826 -0.2187
 8155TIP3    H224430   5.907   5.117   0.995  0.1946 -0.5415 -0.1782
 8156TIP3   OH224431   6.278   1.174   5.583  0.2785 -0.0400 -0.4081
 8156TIP3    H124432   6.326   1.218   5.513  0.9382 -0.5391 -0.2775
 8156TIP3    H224433   6.336   1.180   5.659 -0.2149  0.0505 -0.0310
 8157TIP3   OH224434   6.730   2.883   4.872 -0.1137 -0.6440 -0.3145
 8157TIP3    H124435   6.726   2.838   4.788  0.6459 -0.5246 -0.4222
 8157TIP3    H224436   6.788   2.957   4.857  0.0910 -0.6641  0.3344
 8158TIP3   OH224437   0.576   2.140   0.278 -0.0747  0.9095 -0.1414
 8158TIP3    H124438   0.489   2.179   0.269 -0.8302 -0.2456  1.7252
 8158TIP3    H224439   0.596   2.109   0.190 -2.6720 -1.0107 -0.1870
 8159TIP3   OH224440   4.614   2.994   0.685  0.1955 -0.7970  0.5679
 8159TIP3    H124441   4.696   2.944   0.694  0.7290  0.1341  1.0860
 8159TIP3    H224442   4.629   3.072   0.738 -1.5889 -1.2792  1.8704
 8160TIP3   OH224443   1.091   6.730   0.055  0.1856 -0.0457 -0.6588
 8160TIP3    H124444   1.111   6.636   0.059  0.1906 -0.0822 -1.4873
 8160TIP3    H224445   1.174   6.773   0.073  0.1040 -0.1888  0.1230
 8161TIP3   OH224446   3.914   3.469   5.021  0.1265  0.4667 -0.2101
 8161TIP3    H124447   3.828   3.460   4.979  0.8453  2.8436 -2.4928
 8161TIP3    H224448   3.944   3.556   4.995  3.8192 -0.7818 -0.6684
 8162TIP3   OH224449   0.156   6.427   2.254 -0.3067  0.1356  0.5783
 8162TIP3    H124450   0.183   6.510   2.293  3.0065 -0.5680  0.1391
 8162TIP3    H224451   0.129   6.449   2.165  1.6420  0.7101  0.0760
 8163TIP3   OH224452   3.529   5.348   1.605 -0.4382  0.5492 -0.1796
 8163TIP3    H124453   3.566   5.260   1.614  0.5740  1.0181  0.3582
 8163TIP3    H224454   3.602   5.402   1.577 -1.1683  1.1391 -0.9995
 8164TIP3   OH224455   0.398   5.337   0.915  0.2301  0.3697 -0.2957
 8164TIP3    H124456   0.324   5.380   0.959  0.9592 -0.1984  1.5930
 8164TIP3    H224457   0.392   5.245   0.941  1.1631  0.1674 -0.7489
 8165TIP3   OH224458   7.209   4.701   4.676 -0.5695 -0.0536 -0.2339
 8165TIP3    H124459   7.191   4.671   4.587 -1.6695 -0.6369  0.1720
 8165TIP3    H224460   7.236   4.623   4.723 -0.6641  0.1233  0.1176
 8166TIP3   OH224461   4.993   0.414   1.173 -0.6702 -0.1849 -0.1170
 8166TIP3    H124462   4.907   0.385   1.204  0.1031 -2.3623  0.1598
 8166TIP3    H224463   4.984   0.417   1.078 -0.4476 -2.8303 -0.3000
 8167TIP3   OH224464   3.749   5.674   2.486  0.5799 -0.0602 -0.6382
 8167TIP3    H124465   3.814   5.665   2.416  0.7892  0.1069 -0.4662
 8167TIP3    H224466   3.759   5.764   2.517  2.1689 -0.8232  1.2470
 8168TIP3   OH224467   3.136   2.893   0.138  0.5492 -0.1876 -0.0252
 8168TIP3    H124468   3.197   2.889   0.064 -0.4387  1.5738 -1.0140
 8168TIP3    H224469   3.118   2.801   0.159  1.2757 -0.7466 -1.6444
 8169TIP3   OH224470   1.167   1.985   2.558  0.1200  0.7761 -0.1213
 8169TIP3    H124471   1.197   1.951   2.474  0.7137 -1.1095  0.8002
 8169TIP3    H224472   1.242   1.973   2.617 -0.6667  1.0097  0.9520
 8170TIP3   OH224473   5.195   6.260   3.702  0.5035  0.4317  0.5163
 8170TIP3    H124474   5.171   6.333   3.758 -1.5182  0.3394 -0.1698
 8170TIP3    H224475   5.156   6.279   3.617 -1.1833 -1.9865  0.6386
 8171TIP3   OH224476   2.731   1.847   1.178 -0.0409  0.7376  0.0319
 8171TIP3    H124477   2.739   1.939   1.152 -0.4323  0.8129  0.1622
 8171TIP3    H224478   2.662   1.848   1.244  0.2716  0.4104  0.3569
 8172TIP3   OH224479   0.100   4.662   5.683 -0.1852 -0.3726  0.1877
 8172TIP3    H124480   0.053   4.722   5.740 -1.1489 -1.0772  0.1530
 8172TIP3    H224481   0.167   4.716   5.641 -0.3940  0.4545  0.8980
 8173TIP3   OH224482   5.233   5.463   3.894 -0.3554  0.0504  0.1915
 8173TIP3    H124483   5.194   5.539   3.852  0.5827  0.2691 -0.2947
 8173TIP3    H224484   5.197   5.388   3.846  0.4595  0.2842 -0.8035
 8174TIP3   OH224485   0.512   2.476   2.299  0.1428 -0.1306 -0.2561
 8174TIP3    H124486   0.568   2.545   2.334 -1.1080  2.3030 -2.6919
 8174TIP3    H224487   0.555   2.394   2.326  1.9353  1.5118  2.3880
 8175TIP3   OH224488   1.341   1.185   0.675 -0.0426 -0.2757 -0.1702
 8175TIP3    H124489   1.419   1.238   0.656 -1.1588  1.3518 -0.3793
 8175TIP3    H224490   1.344   1.114   0.610  1.2544 -0.2421 -0.1673
 8176TIP3   OH224491   4.763   2.319   1.470 -0.4416 -0.2299  0.0093
 8176TIP3    H124492   4.765   2.225   1.451  0.4459 -0.4508  1.1366
 8176TIP3    H224493   4.688   2.330   1.528  0.7810 -0.6322  1.7265
 8177TIP3   OH224494   5.570   0.833   1.219 -0.1579  0.1294 -0.1153
 8177TIP3    H124495   5.541   0.858   1.132  0.6409 -0.9776 -0.7189
 8177TIP3    H224496   5.489   0.811   1.266 -0.5326  0.0546 -0.7945
 8178TIP3   OH224497   0.923   4.953   5.448 -0.7768 -0.3504  0.3358
 8178TIP3    H124498   0.929   5.048   5.452  0.5742 -0.4138  0.5090
 8178TIP3    H224499   0.922   4.925   5.539  2.4737 -0.6083  0.4154
 8179TIP3   OH224500   4.982   0.359   4.392 -0.3640  0.0881 -0.1108
 8179TIP3    H124501   5.074   0.352   4.368  0.1329  1.6431  1.1549
 8179TIP3    H224502   4.935   0.316   4.321  1.4520 -4.0964  0.9567
 8180TIP3   OH224503   2.271   2.275   5.708  0.5359  0.6442 -0.3076
 8180TIP3    H124504   2.291   2.362   5.742  1.1806  0.3400  0.1196
 8180TIP3    H224505   2.197   2.245   5.760 -1.0214  1.7284 -1.8041
 8181TIP3   OH224506   2.007   3.338   1.117  0.0272 -0.2297  0.1483
 8181TIP3    H124507   2.086   3.286   1.100 -0.6031 -0.7095 -1.4592
 8181TIP3    H224508   2.022   3.420   1.069 -0.4172 -0.2876 -0.0934
 8182TIP3   OH224509   0.644   0.625   5.225  0.0783 -0.0544 -0.3212
 8182TIP3    H124510   0.644   0.700   5.165 -0.7546  0.0243 -0.2327
 8182TIP3    H224511   0.552   0.616   5.253  0.3726 -0.3659  0.5941
 8183TIP3   OH224512   3.811   0.390   2.419 -0.4056 -0.1210  0.8909
 8183TIP3    H124513   3.773   0.362   2.335 -1.4727 -0.8160  1.5900
 8183TIP3    H224514   3.903   0.409   2.398 -0.5398 -0.7314 -0.3415
 8184TIP3   OH224515   4.994   6.781   3.935  0.0685 -0.1501  0.3385
 8184TIP3    H124516   5.013   6.847   4.002 -2.5005  2.2382 -1.0253
 8184TIP3    H224517   4.926   6.727   3.974 -1.1540  1.0052 -0.0931
 8185TIP3   OH224518   3.853   1.079   0.965  0.1001 -0.5397  0.5952
 8185TIP3    H124519   3.887   1.141   0.900 -2.5875  1.3203  0.8114
 8185TIP3    H224520   3.909   1.091   1.041  0.0953  1.1822  0.3800
 8186TIP3   OH224521   1.532   1.806   5.296  0.2521  0.4604 -0.7433
 8186TIP3    H124522   1.493   1.739   5.353  1.5032 -0.1230 -0.5265
 8186TIP3    H224523   1.471   1.879   5.298  0.7922  0.9487  2.3365
 8187TIP3   OH224524   4.627   6.761   3.433 -0.3199 -0.3176  0.4632
 8187TIP3    H124525   4.620   6.848   3.394  0.9938 -1.0886 -1.6435
 8187TIP3    H224526   4.643   6.703   3.358  0.8696 -2.0949  2.0309
 8188TIP3   OH224527   6.398   4.389   3.080  0.0890 -0.0672  0.4801
 8188TIP3    H124528   6.331   4.332   3.042 -1.0707  1.0649  0.7188
 8188TIP3    H224529   6.474   4.333   3.093 -1.0896 -1.6110  0.9680
 8189TIP3   OH224530   5.308   3.236   4.736 -0.0342  0.0529 -0.4505
 8189TIP3    H124531   5.232   3.178   4.724 -1.4927  1.3108  1.9065
 8189TIP3    H224532   5.306   3.293   4.659 -2.6823  1.2365  0.3713
 8190TIP3   OH224533   3.049   1.378   2.003 -0.6313 -0.4577 -0.3151
 8190TIP3    H124534   2.961   1.415   2.005 -0.1615  0.8176 -1.4078
 8190TIP3    H224535   3.061   1.351   1.912 -0.7381 -2.8443  0.3338
 8191TIP3   OH224536   3.104   6.151   4.249  0.2505  0.0963  0.1235
 8191TIP3    H124537   3.055   6.121   4.172  0.1495  0.1323  0.1724
 8191TIP3    H224538   3.192   6.116   4.237  0.4643  0.7959 -0.4296
 8192TIP3   OH224539   1.326   5.975   5.242 -0.7933 -0.2280  0.1716
 8192TIP3    H124540   1.280   5.892   5.249 -1.1211 -0.0624  0.0445
 8192TIP3    H224541   1.276   6.036   5.296  0.1593 -0.4001  1.2795
 8193TIP3   OH224542   4.128   3.295   0.084 -0.3484 -0.3448  0.3225
 8193TIP3    H124543   4.121   3.202   0.064  0.7355 -0.0927 -1.4386
 8193TIP3    H224544   4.050   3.334   0.043 -0.0077 -0.2899 -0.2793
 8194TIP3   OH224545   0.806   2.093   5.622 -0.2662 -0.0562  0.2003
 8194TIP3    H124546   0.888   2.135   5.596  0.6313 -0.6381  1.9224
 8194TIP3    H224547   0.822   2.000   5.607 -2.2905  0.0337 -3.7492
 8195TIP3   OH224548   4.837   4.513   5.389 -0.0892 -0.5344 -0.5042
 8195TIP3    H124549   4.931   4.521   5.373 -0.1198 -1.6002 -1.2912
 8195TIP3    H224550   4.797   4.573   5.327  0.0463 -0.5041 -0.5636
 8196TIP3   OH224551   6.688   3.678   1.158  0.2818  0.3550 -0.0385
 8196TIP3    H124552   6.675   3.591   1.120 -0.5626  0.9528 -1.1823
 8196TIP3    H224553   6.760   3.716   1.108 -0.2501  0.8107 -0.4815
 8197TIP3   OH224554   6.189   4.933   2.697 -0.6845 -0.0087  0.1361
 8197TIP3    H124555   6.150   4.973   2.774  1.5988  0.6863  0.9910
 8197TIP3    H224556   6.151   4.845   2.694 -1.7009  0.3617  1.3365
 8198TIP3   OH224557   0.826   0.647   5.430 -0.2393 -0.1292 -0.0561
 8198TIP3    H124558   0.779   0.603   5.501 -0.1038 -0.7736 -0.3670
 8198TIP3    H224559   0.774   0.628   5.352 -0.7016  1.0422 -0.0685
 8199TIP3   OH224560   3.290   2.278   2.123  0.4264  0.2010 -0.2065
 8199TIP3    H124561   3.261   2.327   2.200  1.4940 -0.8487  0.9234
 8199TIP3    H224562   3.227   2.299   2.055 -1.3486  0.1329  1.3348
 8200TIP3   OH224563   6.040   0.337   0.409  0.1613  0.2509 -0.7210
 8200TIP3    H124564   5.971   0.270   0.417  0.7973 -0.5198 -1.5140
 8200TIP3    H224565   5.999   0.417   0.443 -0.9465 -0.3107 -0.6750
 8201TIP3   OH224566   0.666   5.806   4.649 -0.3052 -0.0622  0.1848
 8201TIP3    H124567   0.601   5.812   4.719  0.0241 -0.7244  0.5492
 8201TIP3    H224568   0.745   5.846   4.686 -0.0330 -0.7141  0.3074
 8202TIP3   OH224569   4.096   6.278   0.484  0.2089  0.5352  0.1911
 8202TIP3    H124570   4.159   6.292   0.413 -0.5673  0.0317 -0.6211
 8202TIP3    H224571   4.148   6.279   0.564  1.3190 -0.4173 -0.5050
 8203TIP3   OH224572   6.958   3.330   5.766 -0.0953 -0.0110  0.2154
 8203TIP3    H124573   7.036   3.345   5.819  0.9136 -1.6597 -0.6888
 8203TIP3    H224574   6.925   3.417   5.746  3.1106  0.9745 -1.6121
 8204TIP3   OH224575   6.667   5.068   2.681  1.1431 -0.1496  0.4948
 8204TIP3    H124576   6.760   5.093   2.680  1.4178 -1.1489  0.3764
 8204TIP3    H224577   6.624   5.142   2.724  1.8926  0.6399 -0.0614
 8205TIP3   OH224578   0.380   2.614   0.011 -0.0645  0.2802 -0.1229
 8205TIP3    H124579   0.399   2.523   0.032 -0.5685  0.0118 -0.8066
 8205TIP3    H224580   0.465   2.654  -0.005  0.0339 -0.6621 -2.1931
 8206TIP3   OH224581   2.586   5.888   2.819 -0.0705  0.2497 -0.2178
 8206TIP3    H124582   2.542   5.917   2.899 -3.1519 -1.7072 -1.0181
 8206TIP3    H224583   2.651   5.825   2.849  1.0890  1.9084  0.9155
 8207TIP3   OH224584   2.482   3.584   0.153  0.9715  0.7285  0.4151
 8207TIP3    H124585   2.393   3.560   0.127  1.4177  0.6904 -1.1718
 8207TIP3    H224586   2.470   3.641   0.229 -0.4491  1.3609 -0.2511
 8208TIP3   OH224587   3.037   3.050   5.066 -0.0726 -0.2180 -0.3427
 8208TIP3    H124588   3.083   3.088   5.140  1.1801 -0.4297 -0.9834
 8208TIP3    H224589   3.046   2.956   5.077  1.1505 -0.2510 -1.3437
 8209TIP3   OH224590   3.172   6.723   0.501  0.0204  0.6799  0.1217
 8209TIP3    H124591   3.173   6.819   0.499  0.2080  0.6701 -0.2443
 8209TIP3    H224592   3.111   6.698   0.432 -0.1833  0.5363  0.3501
 8210TIP3   OH224593   7.139   5.081   2.078 -0.4187  0.4299 -0.3597
 8210TIP3    H124594   7.147   5.164   2.030  2.2600 -0.0468 -0.8764
 8210TIP3    H224595   7.114   5.018   2.010  0.2562  0.3306 -0.5216
 8211TIP3   OH224596   1.570   2.557   0.789  0.2679 -0.4732  0.4122
 8211TIP3    H124597   1.603   2.607   0.863 -0.5570  0.9222 -0.1182
 8211TIP3    H224598   1.648   2.528   0.742  0.7712  0.1194  0.8675
 8212TIP3   OH224599   5.625   3.436   3.727  0.3230  0.0251 -0.4938
 8212TIP3    H124600   5.670   3.440   3.643 -0.1820 -0.5133 -0.7934
 8212TIP3    H224601   5.688   3.471   3.790  0.5105  0.9493 -1.1700
 8213TIP3   OH224602   3.695   5.161   4.990 -0.4598 -0.3163  0.1607
 8213TIP3    H124603   3.601   5.161   5.009 -0.6886 -0.8562 -0.9268
 8213TIP3    H224604   3.701   5.143   4.896  0.6949  0.7641 -0.0006
 8214TIP3   OH224605   5.082   5.747   4.414  0.1723  0.2008  0.4756
 8214TIP3    H124606   5.011   5.764   4.351 -1.3740 -1.1786  1.7628
 8214TIP3    H224607   5.161   5.746   4.361 -1.0244 -0.5140 -1.4089
 8215TIP3   OH224608   5.208   6.091   1.423 -1.0596 -0.7330  0.0830
 8215TIP3    H124609   5.199   6.156   1.354 -0.4621 -1.3504 -0.5932
 8215TIP3    H224610   5.122   6.049   1.428 -1.5557  0.3111  0.7622
 8216TIP3   OH224611   3.653   0.562   1.264 -0.3945  0.4787  0.1012
 8216TIP3    H124612   3.559   0.549   1.254 -0.2626  0.6431 -1.8860
 8216TIP3    H224613   3.693   0.491   1.213  0.5825  0.2535  1.1245
 8217TIP3   OH224614   1.311   0.278   4.917 -0.2820  0.3975  0.9906
 8217TIP3    H124615   1.383   0.219   4.938 -1.5627 -1.0713  1.4006
 8217TIP3    H224616   1.238   0.247   4.971 -0.9976  2.3907  1.2552
 8218TIP3   OH224617   5.374   3.075   3.667  0.0383  0.7209 -0.4220
 8218TIP3    H124618   5.331   3.160   3.659  0.8689  1.0820 -1.2555
 8218TIP3    H224619   5.462   3.096   3.701  0.1325  0.1596 -0.3050
 8219TIP3   OH224620   5.641   3.899   5.036  0.6495  0.3879  0.2562
 8219TIP3    H124621   5.725   3.889   4.991  0.1628 -0.9113 -0.4029
 8219TIP3    H224622   5.578   3.858   4.978 -0.5981  2.0282  0.3782
 8220TIP3   OH224623   6.007   6.514   2.108  0.7394  0.1064  0.0745
 8220TIP3    H124624   5.978   6.458   2.180  0.3748 -0.5946 -0.5962
 8220TIP3    H224625   6.040   6.593   2.150  0.7008 -0.3672  1.0141
 8221TIP3   OH224626   5.839   1.167   0.425  0.1705  0.1395 -0.2319
 8221TIP3    H124627   5.752   1.195   0.396  0.5922 -0.7029 -2.5174
 8221TIP3    H224628   5.897   1.192   0.353  1.8032  0.4320  1.1254
 8222TIP3   OH224629   3.667   0.782   2.056 -0.0716  0.0394 -0.0844
 8222TIP3    H124630   3.682   0.821   1.970  0.0469 -0.4034 -0.2648
 8222TIP3    H224631   3.583   0.818   2.085 -0.0916  0.2179 -0.3647
 8223TIP3   OH224632   0.740   3.605   3.251  0.0134  0.2708  0.5721
 8223TIP3    H124633   0.772   3.560   3.173  0.4681  1.6736 -0.0826
 8223TIP3    H224634   0.814   3.657   3.282 -0.3594  0.2341  1.5695
 8224TIP3   OH224635   6.227   2.501   3.682 -0.6360  0.1563  0.0433
 8224TIP3    H124636   6.141   2.472   3.650 -1.9466  4.3575 -0.8432
 8224TIP3    H224637   6.255   2.567   3.619  2.4093  0.3324  1.3917
 8225TIP3   OH224638   0.025   2.499   5.652 -0.4119 -0.6549 -0.5650
 8225TIP3    H124639   0.032   2.502   5.556  0.0323  0.2923 -0.5137
 8225TIP3    H224640   0.072   2.419   5.676  0.5892 -0.2385 -1.0642
 8226TIP3   OH224641   4.971   0.280   1.951  0.2558  0.4625  0.3720
 8226TIP3    H124642   4.971   0.297   2.045  1.5089 -0.0196  0.4834
 8226TIP3    H224643   4.972   0.367   1.911  0.7104  0.6723  0.8247
 8227TIP3   OH224644   4.365   6.433   5.222  0.0951  0.1470  0.4508
 8227TIP3    H124645   4.437   6.487   5.253  1.5499 -0.5225 -1.5709
 8227TIP3    H224646   4.378   6.348   5.264  0.8145 -0.1232 -0.2947
 8228TIP3   OH224647   2.484   4.288   4.821 -0.6489  1.0656 -0.2338
 8228TIP3    H124648   2.471   4.296   4.726 -0.4122 -2.4485 -0.7108
 8228TIP3    H224649   2.396   4.276   4.856 -0.5551 -1.6251 -0.6622
 8229TIP3   OH224650   4.055   0.253   4.679  0.5239 -0.4217 -0.0258
 8229TIP3    H124651   3.997   0.324   4.652 -0.6122 -1.1073  0.5293
 8229TIP3    H224652   3.998   0.194   4.729  1.7287 -1.0793  0.5962
 8230TIP3   OH224653   3.475   2.251   3.638  0.1024 -0.0825  0.0873
 8230TIP3    H124654   3.436   2.297   3.712 -0.8952 -1.3696  0.4067
 8230TIP3    H224655   3.402   2.238   3.577 -0.2900 -3.1675  1.0078
 8231TIP3   OH224656   2.142   6.475   0.367  0.3192  0.0494  0.2889
 8231TIP3    H124657   2.158   6.446   0.456 -0.9868 -0.6224  0.3252
 8231TIP3    H224658   2.073   6.540   0.375  0.9012  0.7447 -0.1452
 8232TIP3   OH224659   6.358   0.019   1.702  0.3503 -0.0284 -0.0792
 8232TIP3    H124660   6.436   0.075   1.702 -0.3710  1.0101 -0.3504
 8232TIP3    H224661   6.372  -0.042   1.774  1.0038  0.7297  0.4513
 8233TIP3   OH224662   3.430   5.895   0.028 -0.4734  0.2668  0.1411
 8233TIP3    H124663   3.357   5.853   0.075 -0.6923  0.2037 -0.2435
 8233TIP3    H224664   3.468   5.956   0.091  0.7269 -1.4752  1.1878
 8234TIP3   OH224665   6.087   4.895   0.801 -0.0792 -0.7634  0.1498
 8234TIP3    H124666   6.072   4.934   0.887 -0.7036  0.8513 -0.6498
 8234TIP3    H224667   5.999   4.871   0.771  0.0841 -0.9082 -0.2132
 8235TIP3   OH224668   6.382   6.759   1.939 -0.0637  0.3383 -0.2666
 8235TIP3    H124669   6.431   6.790   1.863  0.8075  0.5640  0.3753
 8235TIP3    H224670   6.447   6.716   1.994 -0.6369  0.3771  0.4554
 8236TIP3   OH224671   1.850   5.234   3.301  0.0705  0.1789 -0.2757
 8236TIP3    H124672   1.803   5.312   3.331  0.9286  0.0898  1.4425
 8236TIP3    H224673   1.790   5.162   3.317  0.0871  0.2572  0.1384
 8237TIP3   OH224674   2.093   4.393   0.123 -0.8410 -0.2667  0.0768
 8237TIP3    H124675   2.090   4.439   0.207 -2.1866 -2.3087  1.2483
 8237TIP3    H224676   2.014   4.422   0.077 -1.8111 -1.5064  0.9104
 8238TIP3   OH224677   1.588   1.568   1.326 -0.3553 -0.2672 -0.6587
 8238TIP3    H124678   1.614   1.557   1.234 -1.4303  0.2835 -1.0379
 8238TIP3    H224679   1.638   1.644   1.356 -0.2286 -0.2659 -0.8704
 8239TIP3   OH224680   5.310   4.230   1.329  0.1734 -0.5453  0.1896
 8239TIP3    H124681   5.366   4.169   1.280  1.6971  0.6357  0.3672
 8239TIP3    H224682   5.336   4.317   1.297  0.4726  0.1983  2.2915
 8240TIP3   OH224683   1.353   3.057   2.175 -0.1676  0.3259  0.0333
 8240TIP3    H124684   1.336   2.965   2.196 -1.7112  0.5794 -0.0169
 8240TIP3    H224685   1.385   3.055   2.084 -1.1684 -0.0966 -0.3306
 8241TIP3   OH224686   6.105   4.682   2.742  0.4459 -0.1382  0.1457
 8241TIP3    H124687   6.053   4.603   2.730 -0.3397  0.4582 -0.5299
 8241TIP3    H224688   6.153   4.668   2.823 -0.8427 -0.6783  0.8336
 8242TIP3   OH224689   3.054   5.880   1.359 -0.3799  0.5513  0.2597
 8242TIP3    H124690   3.129   5.938   1.350 -0.4896  0.6497 -0.0620
 8242TIP3    H224691   3.027   5.862   1.268 -0.3296 -0.0221  0.3521
 8243TIP3   OH224692   1.940   2.728   4.662  0.5447 -0.0580  0.1325
 8243TIP3    H124693   1.856   2.688   4.637  1.1480 -1.3098  0.0165
 8243TIP3    H224694   1.999   2.708   4.590  1.1191  0.2501  0.5041
 8244TIP3   OH224695   4.399   3.614   5.255  0.6382 -0.2521  0.1422
 8244TIP3    H124696   4.423   3.707   5.255 -2.3718  0.6321 -0.0886
 8244TIP3    H224697   4.406   3.588   5.163 -1.1360  0.5856 -0.2726
 8245TIP3   OH224698   5.955   0.736   1.005 -0.4105 -0.3350  0.0368
 8245TIP3    H124699   6.034   0.683   1.016 -0.4096 -1.0087 -2.5180
 8245TIP3    H224700   5.886   0.685   1.047  0.1418 -0.8405  0.3416
 8246TIP3   OH224701   0.863   5.560   4.014  0.1609  0.5420 -0.1536
 8246TIP3    H124702   0.932   5.600   4.067 -0.0773  0.4588  0.2206
 8246TIP3    H224703   0.809   5.633   3.985  1.2599  0.7948 -1.7215
 8247TIP3   OH224704   0.563   2.984   1.793 -0.1297 -0.2627  0.0019
 8247TIP3    H124705   0.496   2.984   1.725  1.6433 -1.0247 -1.8517
 8247TIP3    H224706   0.643   3.010   1.747  0.9745  0.0245  1.9979
 8248TIP3   OH224707   1.263   4.169   2.894  0.1604 -0.0477 -0.1607
 8248TIP3    H124708   1.285   4.165   2.801  1.0660  1.4588 -0.0410
 8248TIP3    H224709   1.167   4.167   2.896  0.1420 -1.3566 -1.0276
 8249TIP3   OH224710   5.037   4.932   3.964 -0.2090  0.0544  0.7174
 8249TIP3    H124711   5.030   4.836   3.967  1.8286 -0.2710 -1.5958
 8249TIP3    H224712   5.121   4.951   4.004 -0.0252  0.7422  0.0282
 8250TIP3   OH224713   5.935   5.920   1.103  0.6562  0.3890 -0.4663
 8250TIP3    H124714   5.993   5.845   1.121  0.9032  0.5446 -0.6017
 8250TIP3    H224715   5.930   5.966   1.186  2.5770  1.6472 -0.9753
 8251TIP3   OH224716   3.574   4.667   1.463 -0.4032 -0.9375  0.4801
 8251TIP3    H124717   3.563   4.680   1.557  2.9996  2.2895  0.6608
 8251TIP3    H224718   3.491   4.695   1.425 -1.4819 -1.2938  2.4208
 8252TIP3   OH224719   1.603   1.387   5.756  0.3651  0.4541  0.4254
 8252TIP3    H124720   1.568   1.307   5.794 -0.3879  0.5929  0.0401
 8252TIP3    H224721   1.559   1.395   5.671  0.8661  0.9657  0.2072
 8253TIP3   OH224722   0.031   5.978   3.256 -0.1586  0.1171  0.2371
 8253TIP3    H124723   0.096   6.038   3.291  1.1138  0.6475 -2.7567
 8253TIP3    H224724   0.036   5.901   3.314  0.5922  1.4957  2.1075
 8254TIP3   OH224725   3.159   5.533   0.311 -0.1034  0.0555 -0.7390
 8254TIP3    H124726   3.154   5.513   0.405  0.8463 -0.6785 -0.8343
 8254TIP3    H224727   3.224   5.472   0.277 -1.0103 -0.2218 -2.0338
 8255TIP3   OH224728   6.118   1.178   2.281  0.1769 -0.1271 -0.3427
 8255TIP3    H124729   6.208   1.189   2.248  0.1686 -0.2838 -0.4199
 8255TIP3    H224730   6.078   1.264   2.270  0.5561  0.1580  0.4219
 8256TIP3   OH224731   0.413   4.366   0.313 -0.2405  0.0475  0.0857
 8256TIP3    H124732   0.329   4.369   0.360  0.2606 -0.8771  1.0674
 8256TIP3    H224733   0.453   4.283   0.339  0.3846 -0.1650 -1.4440
 8257TIP3   OH224734   2.750   3.508   0.110  0.0099  0.0208  0.3687
 8257TIP3    H124735   2.804   3.579   0.074 -0.3936 -0.0290 -0.3690
 8257TIP3    H224736   2.660   3.540   0.101 -0.1668 -0.5113  0.1906
 8258TIP3   OH224737   2.473   2.335   2.483 -0.1105  0.8345  0.2669
 8258TIP3    H124738   2.448   2.382   2.404 -1.0620  0.4138  0.3064
 8258TIP3    H224739   2.391   2.322   2.531  0.2331 -0.2162  0.5982
 8259TIP3   OH224740   5.936   5.891   4.993 -0.4367 -0.2970 -0.1000
 8259TIP3    H124741   5.975   5.913   4.908 -0.4867 -2.2904 -0.6783
 8259TIP3    H224742   6.003   5.838   5.037 -0.4729  0.5914  1.0766
 8260TIP3   OH224743   2.536   1.754   0.453  0.7342 -0.3916 -0.1398
 8260TIP3    H124744   2.585   1.718   0.379 -0.3598  1.6364 -1.9845
 8260TIP3    H224745   2.444   1.745   0.427  0.2658 -0.5223  1.4495
 8261TIP3   OH224746   3.784   4.945   0.069  0.1148 -0.7594 -0.6352
 8261TIP3    H124747   3.797   4.873   0.007 -0.3031 -1.8974  0.5471
 8261TIP3    H224748   3.822   4.913   0.151  0.0807  0.4500 -0.1321
 8262TIP3   OH224749   5.709   2.445   0.173  0.3229 -0.8354  0.4997
 8262TIP3    H124750   5.668   2.368   0.211  1.7584 -1.5668  0.6617
 8262TIP3    H224751   5.640   2.488   0.123 -0.4875 -2.2738  0.3537
 8263TIP3   OH224752   5.172   3.414   1.564 -0.6221 -0.5076  0.1734
 8263TIP3    H124753   5.157   3.498   1.522 -0.0068 -0.0184  0.9051
 8263TIP3    H224754   5.266   3.399   1.554 -0.5122 -0.5046  1.1333
 8264TIP3   OH224755   3.465   0.373   3.011  0.2380 -0.1719 -0.3703
 8264TIP3    H124756   3.371   0.390   3.011  0.1656 -0.5501 -1.2343
 8264TIP3    H224757   3.495   0.411   3.094 -0.7306 -0.4021  0.1099
 8265TIP3   OH224758   4.188   3.515   0.728 -0.3144  0.4219 -0.2199
 8265TIP3    H124759   4.229   3.432   0.707  0.9535  1.1961 -0.9074
 8265TIP3    H224760   4.151   3.546   0.645  0.4791  1.1957 -0.3079
 8266TIP3   OH224761   5.322   4.226   4.708 -0.8897  0.3153  0.1452
 8266TIP3    H124762   5.365   4.169   4.772  0.3365  2.1555  1.0684
 8266TIP3    H224763   5.303   4.169   4.634  2.5556 -0.8560 -0.0475
 8267TIP3   OH224764   2.241   1.482   1.642  0.6742  0.3870 -0.0242
 8267TIP3    H124765   2.322   1.433   1.630  1.0076  0.9078  0.0461
 8267TIP3    H224766   2.213   1.504   1.553  0.8962  0.6570 -0.0289
 8268TIP3   OH224767   4.073   3.680   1.312 -0.8344  0.0255 -0.1870
 8268TIP3    H124768   4.092   3.623   1.387 -0.8806 -0.9948 -0.9338
 8268TIP3    H224769   4.147   3.740   1.308 -1.4034  0.9200  1.4111
 8269TIP3   OH224770   0.914   6.184   3.563 -0.4223 -0.1671  0.6745
 8269TIP3    H124771   0.977   6.211   3.630  1.1037 -1.6300 -0.0802
 8269TIP3    H224772   0.861   6.117   3.605 -1.7537  1.3044  1.4166
 8270TIP3   OH224773   6.714   4.046   3.179  0.0156 -0.3210  0.1583
 8270TIP3    H124774   6.762   4.128   3.183 -0.6894  0.1288 -0.4793
 8270TIP3    H224775   6.658   4.048   3.257 -1.9795  1.0804 -1.2111
 8271TIP3   OH224776   3.093   4.994   0.767 -0.4022  0.2462  0.2003
 8271TIP3    H124777   3.030   5.016   0.697  1.3051  0.4590 -1.3538
 8271TIP3    H224778   3.073   4.903   0.789 -2.5223  0.8775  1.2003
 8272TIP3   OH224779   1.275   5.331   3.734  0.0766 -0.2550 -0.0740
 8272TIP3    H124780   1.202   5.270   3.730  1.1496 -1.5797 -0.0101
 8272TIP3    H224781   1.279   5.358   3.825  0.0649 -0.6788  0.0532
 8273TIP3   OH224782   0.083   0.163   0.843 -0.2063  0.3345 -0.0232
 8273TIP3    H124783   0.148   0.231   0.824 -1.6682  2.0632  0.7459
 8273TIP3    H224784   0.121   0.111   0.913  0.6495  0.8749 -0.0737
 8274TIP3   OH224785   6.720   4.897   0.747  0.4639  0.0208  0.0739
 8274TIP3    H124786   6.754   4.978   0.785  2.8073 -0.6068 -0.4861
 8274TIP3    H224787   6.795   4.837   0.747 -0.2368 -1.0393 -2.6071
 8275TIP3   OH224788   0.470   1.118   5.244 -0.0979  0.1888 -0.6258
 8275TIP3    H124789   0.487   1.135   5.151  0.8795  2.4956 -0.1212
 8275TIP3    H224790   0.403   1.182   5.268 -0.8176 -0.8211  0.1366
 8276TIP3   OH224791   0.354   6.620   2.060 -0.0017 -0.1404  0.2059
 8276TIP3    H124792   0.266   6.613   2.025  0.0265 -0.4430  0.1934
 8276TIP3    H224793   0.355   6.563   2.137  0.7056 -1.6364 -0.8579
 8277TIP3   OH224794   0.177   1.867   4.698 -0.5499  0.1577  0.3657
 8277TIP3    H124795   0.095   1.892   4.656 -0.0423  1.4631  0.0932
 8277TIP3    H224796   0.185   1.773   4.682 -1.7137  0.1248 -0.0787
 8278TIP3   OH224797   2.499   5.885   1.765  0.6602 -0.4496  0.3686
 8278TIP3    H124798   2.421   5.938   1.752  1.2908  0.6093  0.7777
 8278TIP3    H224799   2.494   5.818   1.697  0.7638  1.2297 -1.3831
 8279TIP3   OH224800   6.711   6.541   2.812 -0.0701  0.7760 -0.4246
 8279TIP3    H124801   6.727   6.548   2.907 -0.1709 -0.5510 -0.2892
 8279TIP3    H224802   6.616   6.537   2.805 -0.0419  0.2466 -0.5246
 8280TIP3   OH224803   0.960   0.340   3.694  0.2280  0.4509 -0.3429
 8280TIP3    H124804   0.974   0.324   3.601  2.6361  0.1534 -0.0038
 8280TIP3    H224805   0.941   0.433   3.700  0.7942  0.6173 -1.0681
 8281TIP3   OH224806   3.970   2.227   4.604  0.1868  0.8741  0.0043
 8281TIP3    H124807   3.925   2.269   4.531 -0.8803  0.7946  0.5891
 8281TIP3    H224808   3.967   2.134   4.584 -0.6702  0.7978  0.4332
 8282TIP3   OH224809   6.658   1.096   4.003 -0.2772 -0.1068 -0.1672
 8282TIP3    H124810   6.744   1.090   3.962  0.2666  2.3729  0.4378
 8282TIP3    H224811   6.597   1.084   3.930  0.4789 -2.7973 -0.4626
 8283TIP3   OH224812   1.683   1.244   4.886  0.1624 -0.4472 -0.4494
 8283TIP3    H124813   1.707   1.259   4.795  0.6656  1.6807 -0.0353
 8283TIP3    H224814   1.588   1.230   4.885 -0.0661  0.9504 -1.2069
 8284TIP3   OH224815   0.402   4.639   4.786 -0.2150 -0.1338 -0.0398
 8284TIP3    H124816   0.493   4.611   4.795 -0.8661 -2.1458  0.7064
 8284TIP3    H224817   0.370   4.591   4.710 -0.5578  0.9071 -0.5709
 8285TIP3   OH224818   1.403   5.564   0.671  0.2931 -0.2618 -0.1605
 8285TIP3    H124819   1.490   5.575   0.710  0.4756 -2.3719  0.1613
 8285TIP3    H224820   1.345   5.616   0.728  1.0461 -0.5948  0.9570
 8286TIP3   OH224821   5.473   5.413   5.617  0.6071  0.1748  0.1128
 8286TIP3    H124822   5.463   5.399   5.523 -0.6386 -0.6312  0.3471
 8286TIP3    H224823   5.410   5.481   5.638  0.8026  0.2705  0.3991
 8287TIP3   OH224824   1.768   0.204   2.407  0.1179 -0.1803  0.1247
 8287TIP3    H124825   1.729   0.118   2.425 -3.2322  0.9133 -1.0333
 8287TIP3    H224826   1.781   0.243   2.493 -1.9344 -0.4824  0.6384
 8288TIP3   OH224827   4.580   0.909   0.709 -0.2884  0.5413 -0.2802
 8288TIP3    H124828   4.665   0.914   0.665 -0.4637  0.0390 -0.6821
 8288TIP3    H224829   4.548   0.822   0.689 -0.5119  0.4100  0.5967
 8289TIP3   OH224830   0.854   4.899   5.196  0.0117 -0.0277 -0.2028
 8289TIP3    H124831   0.837   4.990   5.175  2.1654  0.2428 -1.0332
 8289TIP3    H224832   0.866   4.897   5.291  1.4338  0.8623 -0.3411
 8290TIP3   OH224833   3.741   3.127   5.848  0.5033 -0.1065  0.3082
 8290TIP3    H124834   3.757   3.221   5.861 -2.7057  0.7369 -0.8884
 8290TIP3    H224835   3.800   3.102   5.777  1.7171  0.8572  0.9363
 8291TIP3   OH224836   2.692   3.847   2.697  0.4398  0.0478  0.3537
 8291TIP3    H124837   2.769   3.797   2.725 -0.7987 -1.3989  1.3173
 8291TIP3    H224838   2.726   3.907   2.631  2.0397 -2.0387 -0.8576
 8292TIP3   OH224839   2.867   1.527   4.710 -0.3139 -0.2010 -0.1027
 8292TIP3    H124840   2.789   1.537   4.765 -0.7211  0.1310 -0.7207
 8292TIP3    H224841   2.917   1.608   4.724  0.1654 -0.6153  0.6523
 8293TIP3   OH224842   3.211   0.180   2.923 -0.4480  0.1028 -0.2650
 8293TIP3    H124843   3.228   0.155   2.833  0.4636  0.0852 -0.1065
 8293TIP3    H224844   3.120   0.157   2.939 -1.5074  2.7101 -2.0368
 8294TIP3   OH224845   0.532   3.328   0.752 -0.2812 -0.0027  0.4688
 8294TIP3    H124846   0.455   3.385   0.744 -1.2473 -1.1885  1.0142
 8294TIP3    H224847   0.527   3.269   0.677  0.7632  0.6309 -0.1386
 8295TIP3   OH224848   7.242   5.211   1.280  0.4377  0.3416 -0.0283
 8295TIP3    H124849   7.263   5.174   1.365  1.2509  0.1495 -0.3062
 8295TIP3    H224850   7.146   5.219   1.280  0.4634  0.7505  1.0600
 8296TIP3   OH224851   0.582   0.467   1.349  0.2600  0.0474  0.3308
 8296TIP3    H124852   0.566   0.541   1.407  1.3782 -0.1131  0.8705
 8296TIP3    H224853   0.678   0.461   1.344  0.2588 -2.3776  1.6696
 8297TIP3   OH224854   4.897   6.305   3.193  0.4763  0.2212 -0.3833
 8297TIP3    H124855   4.931   6.388   3.162  1.4105  0.0125  0.0309
 8297TIP3    H224856   4.970   6.265   3.240 -0.4434 -0.1045  0.8353
 8298TIP3   OH224857   1.106   0.815   2.091  0.5429  0.1640  0.0278
 8298TIP3    H124858   1.031   0.874   2.096 -0.0614 -0.5784 -0.2174
 8298TIP3    H224859   1.106   0.784   2.000  1.1336  0.1282  0.0334
 8299TIP3   OH224860   3.709   1.542   1.584 -0.1360 -0.1040  0.3456
 8299TIP3    H124861   3.719   1.637   1.593 -0.1995 -0.0532 -0.1432
 8299TIP3    H224862   3.669   1.529   1.499 -0.8063 -0.5358  0.7180
 8300TIP3   OH224863   1.410   5.182   2.793 -0.0496 -0.4115  0.4456
 8300TIP3    H124864   1.441   5.214   2.709 -2.3105  0.6260 -0.0889
 8300TIP3    H224865   1.426   5.254   2.854 -1.2218  0.1124  0.1759
 8301TIP3   OH224866   6.939   1.530   2.254 -0.0901  0.0811  0.3424
 8301TIP3    H124867   6.978   1.466   2.195 -1.3696 -1.2739  0.9314
 8301TIP3    H224868   6.994   1.608   2.243  1.6344 -1.1506 -0.2355
 8302TIP3   OH224869   3.467   3.345   5.797 -0.2189 -0.5277 -0.2830
 8302TIP3    H124870   3.403   3.402   5.754  1.1212  1.7773  0.5733
 8302TIP3    H224871   3.535   3.332   5.731 -0.3171 -0.7515 -0.3383
 8303TIP3   OH224872   1.053   3.858   3.402 -0.0530  0.2019  0.0195
 8303TIP3    H124873   1.112   3.885   3.332 -0.7569 -0.1727 -0.7317
 8303TIP3    H224874   1.111   3.833   3.474  0.6636  1.5032 -0.0781
 8304TIP3   OH224875   1.478   3.898   0.794 -0.7099  0.8616  0.8022
 8304TIP3    H124876   1.416   3.969   0.775 -0.3549  0.8504 -0.5341
 8304TIP3    H224877   1.539   3.936   0.856 -0.4409  1.8028 -0.0052
 8305TIP3   OH224878   4.883   5.639   3.581  0.4240  0.2984  0.1322
 8305TIP3    H124879   4.910   5.630   3.490  0.0707  0.9705 -0.0407
 8305TIP3    H224880   4.888   5.733   3.599  0.5697  0.1678  0.8298
 8306TIP3   OH224881   2.826   0.311   2.196 -0.3043  0.6059  0.2826
 8306TIP3    H124882   2.856   0.365   2.123  0.8515  0.8222  0.8866
 8306TIP3    H224883   2.839   0.221   2.166 -1.6921  0.6562 -0.5069
 8307TIP3   OH224884   0.323   1.795   1.695  0.1081  0.2947  0.2411
 8307TIP3    H124885   0.307   1.877   1.648  0.4540 -0.0300 -0.4498
 8307TIP3    H224886   0.245   1.742   1.678  1.3972 -0.9401 -2.3882
 8308TIP3   OH224887   3.623   5.704   3.710  0.6844 -0.1121  0.0902
 8308TIP3    H124888   3.689   5.646   3.750  0.3572 -0.0744  0.7015
 8308TIP3    H224889   3.636   5.788   3.754 -1.9599 -0.9159  2.7898
 8309TIP3   OH224890   0.350   5.149   3.184  0.3394  0.0096  0.0667
 8309TIP3    H124891   0.445   5.135   3.174  0.3811  0.5293 -0.3179
 8309TIP3    H224892   0.338   5.160   3.278  0.7727  0.6655  0.0550
 8310TIP3   OH224893   5.055   3.446   5.884  0.3490  0.2144 -0.0351
 8310TIP3    H124894   5.061   3.540   5.870  0.7308 -0.0387 -1.7135
 8310TIP3    H224895   5.145   3.418   5.901  0.8427 -0.2988 -2.9636
 8311TIP3   OH224896   4.557   2.046   1.997 -0.2704  0.0624  0.1468
 8311TIP3    H124897   4.494   2.077   1.931  1.7251  0.5494 -1.6264
 8311TIP3    H224898   4.538   1.952   2.006 -0.9322  0.1012 -0.7072
 8312TIP3   OH224899   1.479   3.015   1.932 -0.6694 -0.7021  0.3356
 8312TIP3    H124900   1.461   3.061   1.850 -1.0809 -0.6121  0.4740
 8312TIP3    H224901   1.449   2.925   1.916 -1.7838 -0.4146  0.7556
 8313TIP3   OH224902   3.562   5.634   2.039 -0.3496 -0.0315  0.0475
 8313TIP3    H124903   3.579   5.679   1.957 -0.5180  1.8949  1.0130
 8313TIP3    H224904   3.466   5.634   2.047 -0.3120  1.9826  1.3174
 8314TIP3   OH224905   0.022   6.236   1.839 -0.0253 -0.0078  0.2459
 8314TIP3    H124906   0.084   6.222   1.767 -1.4342  0.9049 -1.2130
 8314TIP3    H224907  -0.030   6.156   1.841 -0.8738  0.4917 -0.7122
 8315TIP3   OH224908   2.230   3.517   3.784 -0.3932 -0.4281  0.4831
 8315TIP3    H124909   2.169   3.455   3.745 -0.6761  0.0234  0.2036
 8315TIP3    H224910   2.238   3.587   3.719  1.7881 -1.3246 -0.3072
 8316TIP3   OH224911   1.061   2.875   3.899 -0.1121  0.5927 -0.1217
 8316TIP3    H124912   1.031   2.785   3.887 -0.6294  0.7457 -0.0179
 8316TIP3    H224913   1.125   2.869   3.970 -0.6980  0.4082  0.4036
 8317TIP3   OH224914   3.686   4.541   3.202 -0.0506  0.0126 -0.2015
 8317TIP3    H124915   3.690   4.555   3.297 -0.5125  1.8135 -0.4036
 8317TIP3    H224916   3.777   4.549   3.173  0.3158 -2.0152  0.2161
 8318TIP3   OH224917   3.589   3.486   2.816 -0.0570  0.1319 -0.2295
 8318TIP3    H124918   3.654   3.442   2.762 -1.3822 -1.1005 -0.9103
 8318TIP3    H224919   3.515   3.502   2.757  0.1458  2.8575  0.1380
 8319TIP3   OH224920   3.370   4.660   3.648  0.7852  0.1839  1.0259
 8319TIP3    H124921   3.401   4.570   3.646  3.2363  0.9446  1.0020
 8319TIP3    H224922   3.353   4.682   3.556  0.0518 -0.2847  1.0477
 8320TIP3   OH224923   1.469   0.165   3.272  0.7285  0.4062  0.5635
 8320TIP3    H124924   1.515   0.086   3.301  0.8019 -0.3795 -1.5821
 8320TIP3    H224925   1.498   0.233   3.333  1.1520 -1.0549  2.0694
 8321TIP3   OH224926   6.656   4.154   3.440 -0.5714  0.6070  0.4329
 8321TIP3    H124927   6.717   4.228   3.430  0.9616 -0.5305  0.8612
 8321TIP3    H224928   6.694   4.103   3.512  0.0416 -2.0893 -1.6664
 8322TIP3   OH224929   2.985   4.376   3.050  0.1660 -0.3290 -0.4312
 8322TIP3    H124930   2.898   4.416   3.048  1.2029  2.0475 -1.5504
 8322TIP3    H224931   2.994   4.345   3.140 -1.2707  0.7639  0.1412
 8323TIP3   OH224932   4.209   3.764   4.941 -0.2374  0.3065  0.5160
 8323TIP3    H124933   4.229   3.674   4.918 -0.7081  0.1576  0.6828
 8323TIP3    H224934   4.120   3.778   4.909 -0.7581  0.2218  1.8765
 8324TIP3   OH224935   4.669   4.150   4.436 -0.1883  0.3490  0.1962
 8324TIP3    H124936   4.709   4.078   4.389  0.5497  0.9946 -0.1824
 8324TIP3    H224937   4.741   4.191   4.485 -0.4307  1.3079 -0.2223
 8325TIP3   OH224938   7.056   3.962   3.327 -0.0747 -0.6867  0.2937
 8325TIP3    H124939   7.076   3.983   3.236 -1.3939  0.3478  0.2085
 8325TIP3    H224940   7.091   4.035   3.377  0.1634 -0.9861  0.5679
 8326TIP3   OH224941   0.943   3.402   5.782 -0.0137  0.7522  0.2401
 8326TIP3    H124942   1.018   3.421   5.837 -0.7409  1.4396  1.0385
 8326TIP3    H224943   0.932   3.307   5.787  0.4875  0.7085  0.5265
 8327TIP3   OH224944   4.238   4.505   5.700 -0.1137  0.3593  0.0381
 8327TIP3    H124945   4.199   4.467   5.778 -0.3614  0.4213 -0.0538
 8327TIP3    H224946   4.329   4.522   5.724 -0.1621  0.2809  0.2769
 8328TIP3   OH224947   2.957   1.363   0.299  0.0018  0.3563  0.0933
 8328TIP3    H124948   2.875   1.382   0.345  0.2069 -2.1792  1.7397
 8328TIP3    H224949   2.930   1.338   0.211 -1.2022 -1.5654  0.9438
 8329TIP3   OH224950   1.673   6.682   0.152  0.2925 -0.4384 -0.2634
 8329TIP3    H124951   1.628   6.687   0.237  0.0152 -0.1598 -0.4246
 8329TIP3    H224952   1.681   6.588   0.134 -1.5466 -0.4983 -0.9272
 8330TIP3   OH224953   7.092   6.131   2.417 -0.1592  0.2352 -0.0941
 8330TIP3    H124954   7.109   6.039   2.395 -2.9572 -0.3162 -0.3546
 8330TIP3    H224955   7.075   6.173   2.333 -0.8711  0.5083  0.1795
 8331TIP3   OH224956   3.552   6.743   5.745  0.5486 -0.1709  0.5412
 8331TIP3    H124957   3.527   6.704   5.662 -1.8300  1.2287  0.5222
 8331TIP3    H224958   3.621   6.805   5.723  1.6239 -1.5060  0.0157
 8332TIP3   OH224959   6.305   3.546   3.097 -0.4676 -0.0771  0.5910
 8332TIP3    H124960   6.295   3.641   3.109  0.4473  0.0121  0.6882
 8332TIP3    H224961   6.265   3.529   3.012  1.2246  0.7576 -0.4341
 8333TIP3   OH224962   0.135   4.717   2.687  0.1482 -0.4695  0.1230
 8333TIP3    H124963   0.205   4.653   2.673  1.1694  0.3911  1.1079
 8333TIP3    H224964   0.080   4.677   2.755  0.6041 -0.4480  0.5107
 8334TIP3   OH224965   2.466   3.904   0.672  0.3157 -0.1632  0.0767
 8334TIP3    H124966   2.460   3.948   0.587 -2.1432 -0.4281  0.0316
 8334TIP3    H224967   2.477   3.975   0.735  1.5625  0.0805 -0.3918
 8335TIP3   OH224968   3.009   2.183   5.164 -0.1618  0.2479  0.0082
 8335TIP3    H124969   3.089   2.192   5.215  0.1881 -0.4119 -0.4065
 8335TIP3    H224970   3.000   2.089   5.150 -1.5552  0.2300  0.8872
 8336TIP3   OH224971   3.817   0.342   4.509 -0.4420  0.5784  0.8735
 8336TIP3    H124972   3.843   0.434   4.505  0.0868  0.3900 -0.7703
 8336TIP3    H224973   3.752   0.332   4.439 -1.2978 -0.0743  1.7301
 8337TIP3   OH224974   4.297   2.123   1.274  0.1999 -0.0511  0.1649
 8337TIP3    H124975   4.269   2.197   1.328  1.9088  0.7831 -0.0069
 8337TIP3    H224976   4.258   2.047   1.315 -1.1287  0.8764  0.7004
 8338TIP3   OH224977   6.222   0.024   3.554 -0.6228  0.1537 -0.4092
 8338TIP3    H124978   6.144   0.029   3.499 -1.0979 -2.5786 -0.1277
 8338TIP3    H224979   6.295   0.018   3.491 -0.9145 -0.2355 -0.7149
 8339TIP3   OH224980   1.003   2.351   5.499 -0.1897 -0.6126  0.1339
 8339TIP3    H124981   1.038   2.262   5.510 -1.6466 -1.1132  1.0465
 8339TIP3    H224982   1.041   2.401   5.570  1.5331 -0.1806 -1.0459
 8340TIP3   OH224983   2.381   4.244   3.067  0.5794 -0.0853 -0.0437
 8340TIP3    H124984   2.476   4.229   3.059  0.6722  0.1942  0.4889
 8340TIP3    H224985   2.341   4.171   3.018  1.0535 -0.7174  0.4957
 8341TIP3   OH224986   0.130   3.942   0.739  0.4514  0.4918  0.0383
 8341TIP3    H124987   0.119   3.993   0.659  0.0308 -0.6322 -0.6277
 8341TIP3    H224988   0.206   3.886   0.722 -0.1766 -0.3781  0.0882
 8342TIP3   OH224989   4.998   6.596   3.382  0.0900 -0.7074  0.3299
 8342TIP3    H124990   4.984   6.575   3.290  0.1505 -0.4892  0.2711
 8342TIP3    H224991   5.084   6.638   3.384 -0.2654  0.0408  0.3680
 8343TIP3   OH224992   1.413   2.203   0.266 -0.3713 -0.2121  0.0427
 8343TIP3    H124993   1.396   2.203   0.172  1.8832  1.1595 -0.4275
 8343TIP3    H224994   1.349   2.264   0.302  0.3671  1.2349 -0.9865
 8344TIP3   OH224995   2.115   1.520   3.345  0.3605  0.3716 -0.0917
 8344TIP3    H124996   2.164   1.457   3.397  0.4655  0.6127  0.1008
 8344TIP3    H224997   2.158   1.520   3.260 -0.2993 -0.6198 -0.4431
 8345TIP3   OH224998   0.957   5.564   2.870  0.0352 -0.0833 -0.3691
 8345TIP3    H124999   1.051   5.576   2.876  0.1749 -0.8641 -0.8231
 8345TIP3    H225000   0.944   5.511   2.791 -0.8760  1.0249 -1.0064
 8346TIP3   OH225001   4.399   5.382   1.407 -0.4078 -0.7277  0.7021
 8346TIP3    H125002   4.309   5.354   1.386 -0.4617  0.3415 -0.6814
 8346TIP3    H225003   4.398   5.399   1.501 -1.7916 -0.2750  0.6274
 8347TIP3   OH225004   4.817   5.754   5.372  0.7485 -0.1485 -0.2317
 8347TIP3    H125005   4.907   5.738   5.346  0.9758 -0.4452  0.7148
 8347TIP3    H225006   4.823   5.787   5.462 -0.0824 -0.1929 -0.1506
 8348TIP3   OH225007   5.366   5.245   3.219 -0.3669 -0.0927 -0.1266
 8348TIP3    H125008   5.438   5.220   3.277  0.9143 -1.2525 -2.1012
 8348TIP3    H225009   5.299   5.178   3.233  0.0085 -0.4641 -0.0834
 8349TIP3   OH225010   3.497   1.262   0.895  0.1525  0.2849 -0.0111
 8349TIP3    H125011   3.414   1.307   0.880 -0.2707 -0.2690  0.6050
 8349TIP3    H225012   3.539   1.310   0.966  0.1812  0.3320 -0.0598
 8350TIP3   OH225013   6.789   2.807   4.595  0.1837  0.0299 -0.2563
 8350TIP3    H125014   6.870   2.851   4.573  1.6891 -2.0302  0.8302
 8350TIP3    H225015   6.777   2.741   4.527 -0.2449 -0.0981 -0.0652
 8351TIP3   OH225016   2.120   2.458   2.626  0.2907 -0.4134 -0.5604
 8351TIP3    H125017   2.110   2.417   2.712 -1.2600  0.7069 -0.1567
 8351TIP3    H225018   2.134   2.385   2.566  0.4195 -1.2960  0.5079
 8352TIP3   OH225019   5.057   6.399   5.595 -0.5919 -0.5101  0.1966
 8352TIP3    H125020   5.138   6.418   5.643 -1.1223 -2.2880  1.9284
 8352TIP3    H225021   5.085   6.343   5.522 -0.2542 -1.2443  0.8769
 8353TIP3   OH225022   3.001   6.801   5.133  0.0972 -0.4973  0.0676
 8353TIP3    H125023   3.015   6.854   5.211 -2.6655 -0.3223  0.5542
 8353TIP3    H225024   3.063   6.729   5.141  0.9902  0.3922  1.5703
 8354TIP3   OH225025   6.680   1.974   5.472 -0.1986 -0.7407 -0.0705
 8354TIP3    H125026   6.633   1.908   5.422 -1.3100 -0.3245  0.3935
 8354TIP3    H225027   6.684   1.939   5.561 -0.8065 -0.1945  0.1808
 8355TIP3   OH225028   1.689   4.727   0.731 -0.2416  0.1715  0.0396
 8355TIP3    H125029   1.640   4.645   0.731 -0.2202  0.1442 -1.1308
 8355TIP3    H225030   1.780   4.701   0.719 -0.0638  0.2975  1.0255
 8356TIP3   OH225031   6.857   3.054   1.548 -0.4728 -0.0043  0.4222
 8356TIP3    H125032   6.827   2.966   1.570  1.6437 -0.7472  0.5160
 8356TIP3    H225033   6.900   3.044   1.463 -1.6582  1.3011 -0.3797
 8357TIP3   OH225034   0.417   4.010   1.567  0.2248  0.1725 -0.2806
 8357TIP3    H125035   0.416   4.077   1.635 -0.5603  0.2775 -0.3788
 8357TIP3    H225036   0.355   4.043   1.501  0.4976 -0.2301 -0.7430
 8358TIP3   OH225037   1.000   4.613   3.219  0.1478 -0.1931  0.1852
 8358TIP3    H125038   1.032   4.704   3.221 -0.8169  0.1937 -1.0358
 8358TIP3    H225039   1.032   4.578   3.136 -1.7030 -0.1038 -0.6072
 8359TIP3   OH225040   7.150   0.751   2.892 -0.0762 -0.6228 -0.0176
 8359TIP3    H125041   7.158   0.695   2.815 -0.3528 -0.9796  0.2080
 8359TIP3    H225042   7.224   0.726   2.948  1.7233  1.4817 -1.2981
 8360TIP3   OH225043   1.934   1.275   2.806  0.3078  0.0974  0.0927
 8360TIP3    H125044   1.943   1.180   2.792  1.0490 -0.1247  1.7762
 8360TIP3    H225045   1.879   1.282   2.883  2.8948  0.8725  1.9971
 8361TIP3   OH225046   4.047   2.365   4.035 -0.1194  0.0046 -0.3543
 8361TIP3    H125047   4.024   2.336   3.947 -1.2645  2.0514 -0.7835
 8361TIP3    H225048   4.098   2.444   4.022  0.4281 -0.1231  0.8264
 8362TIP3   OH225049   4.414   3.488   4.175 -0.3016  0.4854  0.0950
 8362TIP3    H125050   4.373   3.510   4.091  0.7084  0.5907 -0.3886
 8362TIP3    H225051   4.492   3.438   4.151 -0.3991 -0.1278  1.0137
 8363TIP3   OH225052   6.244   3.209   4.427 -0.4600 -0.4506 -0.1619
 8363TIP3    H125053   6.320   3.205   4.370 -0.3398 -1.7756  0.0449
 8363TIP3    H225054   6.175   3.164   4.378 -1.2224  0.9741 -0.4659
 8364TIP3   OH225055   1.481   2.319   5.751 -0.1946 -0.2121  0.7843
 8364TIP3    H125056   1.477   2.393   5.812 -2.8086 -0.2976  0.8118
 8364TIP3    H225057   1.487   2.242   5.808  1.3287 -0.1450  0.7746
 8365TIP3   OH225058   3.563   1.601   5.888 -0.9598  0.5174 -0.0027
 8365TIP3    H125059   3.471   1.629   5.888 -1.9947 -2.4708 -1.2829
 8365TIP3    H225060   3.559   1.506   5.888  2.0774  0.2406 -2.3159
 8366TIP3   OH225061   5.236   3.192   2.165  0.2357 -0.7384 -0.5183
 8366TIP3    H125062   5.263   3.111   2.207  0.9514  0.5743  1.7036
 8366TIP3    H225063   5.140   3.193   2.175  0.4020 -0.3796  1.3035
 8367TIP3   OH225064   4.552   3.336   3.981  0.4066 -0.1707 -0.5427
 8367TIP3    H125065   4.593   3.410   3.936  0.9965 -1.0822 -1.5517
 8367TIP3    H225066   4.479   3.312   3.925 -2.4032  2.1509  1.7828
 8368TIP3   OH225067   3.611   4.089   1.703  0.2805  0.1919  0.5830
 8368TIP3    H125068   3.550   4.141   1.650 -0.7424  0.2719  1.7907
 8368TIP3    H225069   3.568   4.004   1.711 -0.1779  0.5561  2.2749
 8369TIP3   OH225070   3.142   0.173   4.433 -0.8404  0.0386 -0.0019
 8369TIP3    H125071   3.075   0.205   4.372  0.6100  2.0299 -0.6443
 8369TIP3    H225072   3.220   0.164   4.379 -0.0803 -0.3090  1.1399
 8370TIP3   OH225073   4.716   1.330   5.429 -0.5047  0.9427  0.0948
 8370TIP3    H125074   4.722   1.241   5.392  0.8396  1.1677 -0.2846
 8370TIP3    H225075   4.690   1.385   5.354  0.6380  1.1584 -0.1550
 8371TIP3   OH225076   5.906   4.345   4.799  0.3291 -0.0924  0.1011
 8371TIP3    H125077   5.849   4.295   4.858  0.9180  1.6340  2.2802
 8371TIP3    H225078   5.846   4.384   4.735 -0.8030  0.5034  1.4609
 8372TIP3   OH225079   0.740   1.751   5.364 -0.2732 -0.0961 -0.3169
 8372TIP3    H125080   0.657   1.704   5.356 -1.1564  1.5286 -1.2627
 8372TIP3    H225081   0.720   1.826   5.419  1.1500 -0.8424  1.3094
 8373TIP3   OH225082   5.041   1.661   0.696 -0.0331  0.1852 -0.1157
 8373TIP3    H125083   5.021   1.675   0.789  1.7448  0.5283  0.2499
 8373TIP3    H225084   4.974   1.711   0.650 -0.8051  0.2058  0.9837
 8374TIP3   OH225085   4.902   0.752   5.506 -0.0128 -0.2670  0.1488
 8374TIP3    H125086   4.902   0.675   5.563  2.1352  0.4247  1.2098
 8374TIP3    H225087   4.894   0.826   5.565 -2.5289  0.4094 -0.8944
 8375TIP3   OH225088   0.188   2.655   3.586 -0.3996  0.5380 -0.3395
 8375TIP3    H125089   0.153   2.744   3.590  0.1746  0.9702 -3.0583
 8375TIP3    H225090   0.283   2.666   3.592 -0.2321  0.2953 -2.0711
 8376TIP3   OH225091   1.781   2.021   5.698  0.0464  0.1574 -0.7549
 8376TIP3    H125092   1.778   1.972   5.615  1.0771  1.1904 -1.4188
 8376TIP3    H225093   1.694   2.007   5.736 -0.5540 -0.0823 -2.1544
 8377TIP3   OH225094   0.090   4.846   3.311 -0.2776 -0.4237  0.0787
 8377TIP3    H125095   0.037   4.926   3.315  0.9428  0.4106  0.1898
 8377TIP3    H225096   0.065   4.797   3.390  0.1410  0.6365  0.8942
 8378TIP3   OH225097   6.860   5.863   3.325 -0.1864 -0.2083  0.0199
 8378TIP3    H125098   6.766   5.880   3.316  0.1336  1.4076 -0.5861
 8378TIP3    H225099   6.865   5.770   3.350 -1.8649 -0.9178 -1.9384
 8379TIP3   OH225100   1.473   4.014   2.684 -0.0174 -0.1846  0.5396
 8379TIP3    H125101   1.441   4.101   2.660  0.6459  0.3733  1.6136
 8379TIP3    H225102   1.458   3.961   2.606  0.4873  1.1322 -0.4896
 8380TIP3   OH225103   3.764   1.815   1.621 -0.0553  0.4862 -0.4155
 8380TIP3    H125104   3.750   1.909   1.629 -0.6706  0.3544  0.1854
 8380TIP3    H225105   3.798   1.788   1.706 -2.2362 -0.2093  0.3030
 8381TIP3   OH225106   0.210   5.233   4.034 -0.0119  0.7087 -0.2734
 8381TIP3    H125107   0.129   5.272   4.001  0.6543  2.5991  0.2540
 8381TIP3    H225108   0.269   5.306   4.047  2.2333 -0.7114 -1.7543
 8382TIP3   OH225109   0.249   5.629   0.772  0.2215  0.0580 -0.2756
 8382TIP3    H125110   0.288   5.628   0.859 -0.8268  0.7472  0.2253
 8382TIP3    H225111   0.222   5.539   0.756  0.4139 -0.0667  0.1090
 8383TIP3   OH225112   1.622   0.098   0.790 -0.1000 -0.2904 -0.6414
 8383TIP3    H125113   1.681   0.041   0.839  0.8365  0.0202 -1.3719
 8383TIP3    H225114   1.537   0.087   0.833 -0.5793 -4.0729 -2.2022
 8384TIP3   OH225115   5.667   0.885   3.512  0.0632  0.5112  0.2134
 8384TIP3    H125116   5.738   0.849   3.460 -0.1553 -0.1164  0.3386
 8384TIP3    H225117   5.640   0.963   3.465 -0.6001 -0.4163 -1.0017
 8385TIP3   OH225118   4.576   6.370   1.901  0.5406 -0.1687 -0.3758
 8385TIP3    H125119   4.519   6.350   1.975  0.4395  0.5330 -0.2509
 8385TIP3    H225120   4.636   6.296   1.895  1.9831  0.7062  1.7932
 8386TIP3   OH225121   6.649   3.315   5.797  0.7903 -0.3152  0.1296
 8386TIP3    H125122   6.726   3.281   5.842  0.5249 -0.4359  0.4921
 8386TIP3    H225123   6.586   3.335   5.866  1.0487  1.2128 -0.0323
 8387TIP3   OH225124   2.276   0.126   5.854  0.1718  0.2574  0.1938
 8387TIP3    H125125   2.329   0.052   5.880 -1.5268 -1.3135 -0.5648
 8387TIP3    H225126   2.283   0.128   5.758 -2.1763 -0.9198 -0.0743
 8388TIP3   OH225127   2.990   6.592   0.260 -0.1386 -0.5184 -0.6850
 8388TIP3    H125128   3.032   6.615   0.177 -0.4585  0.0557 -0.6952
 8388TIP3    H225129   2.896   6.604   0.243 -0.1107  1.4974  0.2986
 8389TIP3   OH225130   6.004   1.683   1.558 -0.1011 -0.2222 -1.1321
 8389TIP3    H125131   5.918   1.706   1.592  0.0940  0.4817 -1.1011
 8389TIP3    H225132   6.007   1.587   1.562 -1.6952 -0.4183 -3.1028
 8390TIP3   OH225133   6.784   1.109   1.314  0.9890  0.1846 -0.6142
 8390TIP3    H125134   6.765   1.191   1.360  0.3732  1.1823 -2.5623
 8390TIP3    H225135   6.879   1.113   1.297  0.8265  0.9006 -1.4112
 8391TIP3   OH225136   3.917   2.740   5.580  0.1639  0.1674  0.0784
 8391TIP3    H125137   3.992   2.796   5.564  1.4368 -1.1805  1.0264
 8391TIP3    H225138   3.902   2.746   5.675 -1.2165  0.7346 -0.1437
 8392TIP3   OH225139   2.925   4.810   4.277 -0.4772 -0.6981 -0.0351
 8392TIP3    H125140   2.897   4.877   4.214 -0.0497 -0.5488 -0.0721
 8392TIP3    H225141   2.873   4.733   4.255 -0.0254 -0.7810 -0.8646
 8393TIP3   OH225142   0.827   4.916   0.763 -0.4641  0.9322 -0.8984
 8393TIP3    H125143   0.782   4.840   0.725  0.1362  0.2907 -0.3590
 8393TIP3    H225144   0.775   4.991   0.735 -2.1837  0.1860  0.1145
 8394TIP3   OH225145   4.979   5.404   3.015 -0.0969 -0.4820  0.1284
 8394TIP3    H125146   4.912   5.472   3.026 -0.8709 -1.3508  0.9657
 8394TIP3    H225147   5.057   5.439   3.058  0.2761  0.8961 -1.5651
 8395TIP3   OH225148   1.891   4.526   5.468  0.1532 -0.1710  0.2050
 8395TIP3    H125149   1.864   4.434   5.476  0.9497 -0.3958  0.4581
 8395TIP3    H225150   1.978   4.528   5.508 -0.6510  1.0911  2.0062
 8396TIP3   OH225151   1.849   3.083   3.247  0.1504 -0.5510 -0.0830
 8396TIP3    H125152   1.844   3.073   3.342 -1.8612  1.2792  0.0880
 8396TIP3    H225153   1.848   2.993   3.214  0.5696 -1.2223  1.5901
 8397TIP3   OH225154   4.648   5.296   4.052 -0.0056  0.2561 -0.1910
 8397TIP3    H125155   4.709   5.226   4.074  0.9554  1.6864  2.0658
 8397TIP3    H225156   4.702   5.366   4.017 -0.5714  0.8573  0.1011
 8398TIP3   OH225157   6.348   4.375   0.889  0.0082 -0.1240 -0.4244
 8398TIP3    H125158   6.318   4.457   0.851  0.2322 -0.3136 -1.0290
 8398TIP3    H225159   6.283   4.354   0.957  0.1119  0.6948 -0.0648
 8399TIP3   OH225160   4.966   4.417   1.544 -0.0997  0.4503  0.1601
 8399TIP3    H125161   5.042   4.461   1.506 -0.3834  0.1966 -0.7213
 8399TIP3    H225162   4.893   4.476   1.526 -0.3671 -0.0444 -0.4185
 8400TIP3   OH225163   2.872   3.544   1.083  0.0878  0.1122  0.5122
 8400TIP3    H125164   2.851   3.624   1.034  1.4977  0.4164  0.3434
 8400TIP3    H225165   2.882   3.477   1.016  0.6506  0.2178  0.4777
 8401TIP3   OH225166   4.545   1.548   3.014  0.2875 -0.3711 -0.6380
 8401TIP3    H125167   4.599   1.469   3.011  0.0100 -0.6479  0.7426
 8401TIP3    H225168   4.586   1.603   3.081 -1.0891 -0.5856  0.4298
 8402TIP3   OH225169   0.565   1.489   5.293 -0.1534 -0.2453  0.2119
 8402TIP3    H125170   0.477   1.472   5.327 -0.1618  0.4708  0.5483
 8402TIP3    H225171   0.577   1.422   5.226 -0.1607 -1.6705  1.5553
 8403TIP3   OH225172   0.596   3.132   3.258 -0.3459  0.2627 -0.0062
 8403TIP3    H125173   0.504   3.144   3.279  0.1180  2.9833  0.9004
 8403TIP3    H225174   0.642   3.192   3.317  1.8088  0.8456 -2.1001
 8404TIP3   OH225175   0.506   6.648   5.365  0.3602  0.8104 -0.5126
 8404TIP3    H125176   0.505   6.567   5.314 -0.5909  1.0721 -0.9249
 8404TIP3    H225177   0.553   6.625   5.445  0.4442 -0.0411 -0.7942
 8405TIP3   OH225178   0.686   4.895   4.781 -0.3720 -0.2772  0.3104
 8405TIP3    H125179   0.723   4.870   4.697  0.7808 -0.8890  0.9780
 8405TIP3    H225180   0.608   4.947   4.759  0.4447  0.3771 -1.1224
 8406TIP3   OH225181   6.351   0.075   5.282  0.2108 -0.1889 -0.3162
 8406TIP3    H125182   6.436   0.118   5.291  0.2004  0.0884 -1.4651
 8406TIP3    H225183   6.335   0.036   5.368  0.3346  1.8802  0.7090
 8407TIP3   OH225184   3.599   2.213   0.745  0.1487  0.2109  0.2268
 8407TIP3    H125185   3.512   2.205   0.783 -0.7668  2.7107 -1.0496
 8407TIP3    H225186   3.633   2.124   0.743 -1.5124 -0.5783  2.6673
 8408TIP3   OH225187   5.684   2.522   4.300  0.2023  0.2853 -0.2193
 8408TIP3    H125188   5.666   2.494   4.210  0.0756 -1.7670  0.3894
 8408TIP3    H225189   5.604   2.564   4.329 -0.1510 -0.0550 -0.6946
 8409TIP3   OH225190   6.610   3.936   5.038 -0.0742 -0.1829  0.0920
 8409TIP3    H125191   6.640   3.962   4.950 -0.1138  0.3802  0.2412
 8409TIP3    H225192   6.649   3.850   5.052  1.6037  0.5797  0.3337
 8410TIP3   OH225193   3.745   4.327   4.392  0.4328 -0.2848 -0.3852
 8410TIP3    H125194   3.691   4.400   4.423  0.3970 -0.2270 -0.5817
 8410TIP3    H225195   3.733   4.259   4.458 -1.1808 -0.8727 -1.2328
 8411TIP3   OH225196   6.532   0.032   4.387 -0.6204 -0.1567 -0.0861
 8411TIP3    H125197   6.444   0.025   4.349 -0.5679  2.0994 -0.7325
 8411TIP3    H225198   6.533   0.117   4.431  0.4299 -1.2503  2.1969
 8412TIP3   OH225199   6.131   0.728   2.606  0.1022  0.1525 -0.2476
 8412TIP3    H125200   6.113   0.791   2.536 -1.0628 -0.0342 -0.1331
 8412TIP3    H225201   6.220   0.699   2.589 -0.4764 -0.6233 -2.2898
 8413TIP3   OH225202   2.775   1.091   0.505  0.3244  0.2195 -0.4331
 8413TIP3    H125203   2.786   1.186   0.493 -1.2522  0.3783 -0.8967
 8413TIP3    H225204   2.814   1.074   0.591  0.9476  1.2169 -0.4876
 8414TIP3   OH225205   3.127   2.440   2.295 -0.1833 -0.5107 -0.9339
 8414TIP3    H125206   3.097   2.473   2.210  2.7981  0.3100 -1.7990
 8414TIP3    H225207   3.134   2.519   2.349 -1.4598 -0.9530 -0.0811
 8415TIP3   OH225208   2.583   5.880   3.572 -0.1322  0.1966  0.4468
 8415TIP3    H125209   2.525   5.954   3.592  0.3294  0.7055 -0.0311
 8415TIP3    H225210   2.592   5.834   3.655 -0.8803  0.3491  0.6261
 8416TIP3   OH225211   4.900   2.481   4.672  0.2457 -0.4964  0.6691
 8416TIP3    H125212   4.983   2.523   4.694  0.6487 -0.8092 -0.1821
 8416TIP3    H225213   4.870   2.441   4.754  0.4933  0.3522  1.1827
 8417TIP3   OH225214   6.718   3.104   5.562 -0.3051  0.1411  0.1617
 8417TIP3    H125215   6.692   3.142   5.646 -2.0872 -0.1330 -0.2289
 8417TIP3    H225216   6.661   3.146   5.498  0.5691 -0.1527 -0.8406
 8418TIP3   OH225217   7.172   5.138   4.178 -0.1715 -0.0879 -0.4861
 8418TIP3    H125218   7.256   5.154   4.135 -0.0007 -1.6750 -0.7999
 8418TIP3    H225219   7.166   5.043   4.185 -0.7296  0.0612  1.9692
 8419TIP3   OH225220   6.396   5.654   3.418 -0.4385 -0.5875  0.5193
 8419TIP3    H125221   6.468   5.629   3.359 -0.2701  0.0770  0.4438
 8419TIP3    H225222   6.318   5.651   3.362 -0.4417 -1.0871  0.5464
 8420TIP3   OH225223   1.582   6.733   0.723 -0.2665 -0.0566  0.2149
 8420TIP3    H125224   1.520   6.669   0.687  0.8229 -0.4520 -1.0458
 8420TIP3    H225225   1.532   6.781   0.788 -1.4283 -1.4814  0.4326
 8421TIP3   OH225226   0.997   3.032   2.701  0.1034  0.6417  0.1104
 8421TIP3    H125227   1.028   3.040   2.611 -1.0053 -1.3614 -0.5001
 8421TIP3    H225228   1.069   2.990   2.747 -0.0494 -0.0758 -0.2978
 8422TIP3   OH225229   1.633   5.732   3.717 -0.2257 -0.4162  0.1168
 8422TIP3    H125230   1.668   5.663   3.661 -0.9373 -1.0567  0.4547
 8422TIP3    H225231   1.617   5.690   3.801 -1.4842 -0.0704  0.0734
 8423TIP3   OH225232   3.223   1.992   2.183  0.3535 -0.2494 -0.2599
 8423TIP3    H125233   3.258   2.081   2.179  0.0725 -0.1473 -0.4536
 8423TIP3    H225234   3.128   2.003   2.189  0.3983 -0.4627  2.2063
 8424TIP3   OH225235   6.964   6.194   5.273 -0.2322 -0.8061 -0.3350
 8424TIP3    H125236   7.026   6.123   5.257  1.4492  1.0175 -2.7820
 8424TIP3    H225237   6.927   6.212   5.186 -0.5692  1.2608  0.1865
 8425TIP3   OH225238   4.409   0.692   0.693  0.1471  0.2560  0.5998
 8425TIP3    H125239   4.337   0.629   0.706 -1.1933  1.9071  1.4840
 8425TIP3    H225240   4.366   0.772   0.662  1.8383  0.7379 -0.6823
 8426TIP3   OH225241   6.821   2.180   3.576 -0.0993  0.0621  0.6393
 8426TIP3    H125242   6.855   2.110   3.519  0.5209  1.3596 -0.6739
 8426TIP3    H225243   6.868   2.168   3.658 -0.9612 -1.8270  0.9235
 8427TIP3   OH225244   0.124   1.640   4.539  0.2421  0.7808  0.3491
 8427TIP3    H125245   0.031   1.661   4.543 -0.0531  0.0272 -1.4360
 8427TIP3    H225246   0.159   1.700   4.473  0.5025 -0.5076 -0.7427
 8428TIP3   OH225247   4.311   0.854   2.343  0.4207 -0.4026 -0.4036
 8428TIP3    H125248   4.344   0.785   2.285  1.8261  0.7924 -1.1037
 8428TIP3    H225249   4.225   0.875   2.308 -0.5410 -2.5205  0.5050
 8429TIP3   OH225250   1.438   5.656   4.140 -0.0081  0.4736  0.4100
 8429TIP3    H125251   1.507   5.657   4.205  0.4532  2.1345 -0.0411
 8429TIP3    H225252   1.361   5.691   4.185 -0.2697 -0.3195  0.6022
 8430TIP3   OH225253   4.288   1.470   1.055 -0.6197 -0.2049  0.5823
 8430TIP3    H125254   4.325   1.447   1.141  0.1330 -2.5067 -0.2906
 8430TIP3    H225255   4.220   1.405   1.040 -1.7921  1.1027  0.0591
 8431TIP3   OH225256   4.510   4.079   5.465  0.7074  0.6394  0.2218
 8431TIP3    H125257   4.582   4.070   5.403  1.4796  0.5079  1.1187
 8431TIP3    H225258   4.488   4.172   5.464  0.9638  0.6972  0.0282
 8432TIP3   OH225259   1.094   3.798   4.952  0.1252  0.0738 -0.2425
 8432TIP3    H125260   1.189   3.807   4.955 -0.0268  1.6821  0.6924
 8432TIP3    H225261   1.076   3.773   4.862  1.5552 -2.3989  0.0643
 8433TIP3   OH225262   2.683   3.450   5.655  0.2170 -0.0616  0.1291
 8433TIP3    H125263   2.702   3.459   5.749  0.7278  0.9366 -0.0546
 8433TIP3    H225264   2.751   3.392   5.622 -0.1096 -0.6150  0.4162
 8434TIP3   OH225265   7.094   2.335   1.976 -0.2086 -0.1358  0.6926
 8434TIP3    H125266   7.018   2.332   2.034  1.1365  0.1855  2.5873
 8434TIP3    H225267   7.155   2.272   2.014  0.9348  0.4887 -0.0638
 8435TIP3   OH225268   5.387   0.167   5.609 -0.4118  0.3368  0.0866
 8435TIP3    H125269   5.384   0.107   5.683 -0.5221  1.6069  1.1521
 8435TIP3    H225270   5.466   0.219   5.623 -0.0231  0.0935 -1.1099
 8436TIP3   OH225271   4.724   2.787   0.378  0.3252 -0.3049 -0.0581
 8436TIP3    H125272   4.691   2.876   0.365  0.0580  0.0240  2.3881
 8436TIP3    H225273   4.645   2.734   0.386  0.4642 -0.5129 -0.0693
 8437TIP3   OH225274   7.010   3.986   5.800  0.5349  0.3599  0.2586
 8437TIP3    H125275   7.002   3.959   5.891  0.5091 -1.5004 -0.2468
 8437TIP3    H225276   7.103   4.008   5.790  0.5975  0.2824  0.6548
 8438TIP3   OH225277   3.332   6.264   3.382 -0.0378  0.2617  0.3974
 8438TIP3    H125278   3.392   6.194   3.410 -0.3384 -0.5179 -0.8291
 8438TIP3    H225279   3.388   6.341   3.372  0.3302  0.1773  1.5997
 8439TIP3   OH225280   0.269   0.093   3.683 -0.2135 -0.0819  0.2151
 8439TIP3    H125281   0.267   0.033   3.757 -0.1970 -0.4088 -0.0503
 8439TIP3    H225282   0.244   0.178   3.721 -1.2559 -0.4545  0.3959
 8440TIP3   OH225283   4.285   3.219   0.697  0.2159  0.1559  0.0021
 8440TIP3    H125284   4.305   3.151   0.761  0.3296  0.3816  0.2063
 8440TIP3    H225285   4.346   3.203   0.625  0.7193  0.4717  0.3555
 8441TIP3   OH225286   1.098   1.434   4.131 -0.8032  0.1628  0.4855
 8441TIP3    H125287   1.034   1.432   4.060 -0.4510 -0.4503  0.1768
 8441TIP3    H225288   1.137   1.521   4.126 -0.7842  0.1238 -0.0634
 8442TIP3   OH225289   2.495   5.045   0.527 -0.2660  0.1561  0.1154
 8442TIP3    H125290   2.489   5.118   0.589 -0.8315 -0.3826  0.7040
 8442TIP3    H225291   2.502   5.088   0.441  1.2501  0.9251  0.5787
 8443TIP3   OH225292   7.117   5.913   1.703 -0.0326  0.2229 -0.8523
 8443TIP3    H125293   7.036   5.962   1.687 -1.1260 -1.3916 -0.5303
 8443TIP3    H225294   7.108   5.834   1.649  2.2812  0.9244 -2.4055
 8444TIP3   OH225295   6.136   5.315   0.794 -0.2369 -0.8125  0.1388
 8444TIP3    H125296   6.056   5.303   0.743  0.7938 -0.6900 -1.5783
 8444TIP3    H225297   6.207   5.293   0.734  1.2110  2.3733  0.4562
 8445TIP3   OH225298   7.051   4.401   3.269  0.1634  0.1415  0.3477
 8445TIP3    H125299   6.961   4.424   3.293  1.0205  0.7831  3.4790
 8445TIP3    H225300   7.071   4.457   3.194 -1.3747  1.6019  0.9466
 8446TIP3   OH225301   4.325   1.312   2.960 -0.3519  0.3507  0.1652
 8446TIP3    H125302   4.230   1.319   2.968 -0.6952 -2.1854 -0.8084
 8446TIP3    H225303   4.347   1.366   2.884 -0.8242  1.8108  1.0295
 8447TIP3   OH225304   0.586   5.782   1.850  0.1757 -0.7846 -0.5113
 8447TIP3    H125305   0.511   5.812   1.901  0.2289 -0.0326 -0.8606
 8447TIP3    H225306   0.654   5.847   1.868  0.3918 -0.8532 -1.0536
 8448TIP3   OH225307   5.827   0.223   1.666  0.2608  0.0397 -0.5131
 8448TIP3    H125308   5.766   0.281   1.712 -2.5215 -2.3569 -0.8687
 8448TIP3    H225309   5.884   0.188   1.735  0.4375  1.3706  0.0392
 8449TIP3   OH225310   5.895   5.007   2.539 -0.2652  0.0952  0.6090
 8449TIP3    H125311   5.970   4.984   2.485 -1.5440 -0.0932 -1.1721
 8449TIP3    H225312   5.824   4.952   2.506 -1.0787 -0.1807  2.6467
 8450TIP3   OH225313   6.143   4.417   4.923  0.8039 -0.1054 -0.7185
 8450TIP3    H125314   6.203   4.358   4.878  2.7681 -0.6671  2.3425
 8450TIP3    H225315   6.057   4.396   4.887  2.2698  0.6637 -5.2340
 8451TIP3   OH225316   3.441   1.791   3.664 -0.0403  0.8077 -0.2771
 8451TIP3    H125317   3.496   1.823   3.592  0.5406  0.1489 -0.1278
 8451TIP3    H225318   3.467   1.700   3.676  0.4057  1.1160  1.2759
 8452TIP3   OH225319   2.691   1.614   1.560 -0.0831  0.3422  0.4717
 8452TIP3    H125320   2.786   1.604   1.554 -0.0549 -0.6945  1.9673
 8452TIP3    H225321   2.655   1.535   1.519 -0.1842 -0.6438  2.3499
 8453TIP3   OH225322   3.783   6.255   4.743  0.3971  0.0977 -0.8385
 8453TIP3    H125323   3.721   6.264   4.816  0.3547  0.0473 -0.8684
 8453TIP3    H225324   3.864   6.225   4.785 -0.1186 -1.6905 -1.0086
 8454TIP3   OH225325   2.460   5.205   3.884  0.1630  0.0261 -0.6026
 8454TIP3    H125326   2.382   5.189   3.937  0.7395 -0.3952  0.1418
 8454TIP3    H225327   2.507   5.273   3.931 -1.0894  2.3642 -2.4944
 8455TIP3   OH225328   5.639   2.746   4.753 -0.3039 -0.1395 -0.8411
 8455TIP3    H125329   5.577   2.695   4.701  0.4148 -1.7420 -0.1978
 8455TIP3    H225330   5.693   2.681   4.798  0.9369  1.2002 -0.2808
 8456TIP3   OH225331   5.547   2.568   0.572 -0.1086 -0.1109  0.4055
 8456TIP3    H125332   5.543   2.540   0.664 -1.3895 -0.7270  0.1753
 8456TIP3    H225333   5.478   2.633   0.563 -0.5308 -0.6386 -0.3069
 8457TIP3   OH225334   6.913   0.802   3.358 -0.3294  1.0366 -0.6952
 8457TIP3    H125335   6.910   0.743   3.282  0.2440 -0.2229  0.2308
 8457TIP3    H225336   6.832   0.784   3.405  0.8545 -0.7492  0.8057
 8458TIP3   OH225337   5.011   5.505   5.514  0.2666 -0.1283 -0.0778
 8458TIP3    H125338   4.960   5.534   5.590 -0.3576  1.0849 -0.9259
 8458TIP3    H225339   5.085   5.566   5.510 -0.4578  0.7199 -1.2368
 8459TIP3   OH225340   6.586   3.536   2.430  0.1766  0.0264 -0.4402
 8459TIP3    H125341   6.546   3.617   2.400 -0.6816 -0.0769  0.3657
 8459TIP3    H225342   6.524   3.467   2.405 -0.1350 -0.1458  0.7327
 8460TIP3   OH225343   2.540   0.977   5.608  0.5546  0.4840 -0.9254
 8460TIP3    H125344   2.513   1.040   5.541  0.4589 -0.4079 -1.7372
 8460TIP3    H225345   2.507   1.014   5.690  0.1139  1.2687 -1.4443
 8461TIP3   OH225346   3.583   3.355   1.336  0.2643  0.3676 -0.0338
 8461TIP3    H125347   3.628   3.414   1.397 -0.1803  1.8143 -1.0612
 8461TIP3    H225348   3.603   3.390   1.250 -2.2818  0.6940 -0.5565
 8462TIP3   OH225349   4.431   4.346   0.960  0.5140 -0.1762  0.2241
 8462TIP3    H125350   4.522   4.322   0.940  1.1788  1.1366  1.4733
 8462TIP3    H225351   4.435   4.380   1.050 -0.9138  1.5646 -0.3316
 8463TIP3   OH225352   3.928   0.102   3.687  0.3927 -0.0206  0.2784
 8463TIP3    H125353   4.004   0.075   3.636  0.0139 -1.1322  0.2652
 8463TIP3    H225354   3.940   0.195   3.702  1.6588 -0.1428  0.1100
 8464TIP3   OH225355   2.808   3.461   3.193  0.2485  0.4415 -0.2542
 8464TIP3    H125356   2.901   3.441   3.203 -0.1753 -1.2817  0.6230
 8464TIP3    H225357   2.778   3.482   3.282 -0.3437  0.3223 -0.4194
 8465TIP3   OH225358   2.375   3.378   4.004 -0.2001 -0.3434 -0.1204
 8465TIP3    H125359   2.330   3.422   3.931 -0.4943 -1.2481 -0.4992
 8465TIP3    H225360   2.468   3.389   3.986 -0.2601 -1.2694 -1.0935
 8466TIP3   OH225361   5.834   6.761   5.531 -0.1207  0.2755 -0.1565
 8466TIP3    H125362   5.758   6.792   5.482  0.3360  1.3864 -0.1974
 8466TIP3    H225363   5.909   6.790   5.479  0.3418 -0.8483 -0.1418
 8467TIP3   OH225364   5.918   5.016   3.862  0.1100 -0.2051 -0.1680
 8467TIP3    H125365   5.930   4.968   3.780  1.4568 -0.4181  0.1448
 8467TIP3    H225366   5.976   5.091   3.855  0.8322 -0.6356  0.8960
 8468TIP3   OH225367   4.120   1.833   0.730  0.6806  0.3667  0.7403
 8468TIP3    H125368   4.054   1.765   0.744 -0.2181  1.4523  2.1557
 8468TIP3    H225369   4.199   1.798   0.771  1.3397 -1.3435 -1.7793
 8469TIP3   OH225370   6.260   2.459   2.406 -0.0642 -0.7920 -0.4115
 8469TIP3    H125371   6.265   2.554   2.402  1.3018 -0.7144  1.7996
 8469TIP3    H225372   6.169   2.440   2.432 -0.8202 -0.2449 -2.4359
 8470TIP3   OH225373   3.959   6.112   2.328 -0.0885  0.2016  0.4287
 8470TIP3    H125374   3.970   6.189   2.273  2.1919  1.6836  2.7490
 8470TIP3    H225375   3.978   6.038   2.269 -0.9271  1.4323 -1.4947
 8471TIP3   OH225376   1.202   2.735   2.578  0.2059 -0.4672 -0.1552
 8471TIP3    H125377   1.136   2.736   2.646 -1.3513  1.0621 -1.5859
 8471TIP3    H225378   1.247   2.651   2.588  0.0452 -0.2905  2.6882
 8472TIP3   OH225379   0.087   3.054   2.814 -0.2210 -0.0784  0.1206
 8472TIP3    H125380   0.138   3.015   2.742 -1.2582  1.9054 -1.8152
 8472TIP3    H225381   0.151   3.072   2.882  1.1962 -0.1636 -1.1350
 8473TIP3   OH225382   1.987   2.348   5.063 -0.1111  0.3818 -0.0773
 8473TIP3    H125383   1.912   2.338   5.122 -1.3641 -0.1400 -1.6969
 8473TIP3    H225384   2.062   2.361   5.122 -0.9070 -2.4008  1.7422
 8474TIP3   OH225385   3.204   0.179   4.884  0.4271  0.7607  0.2702
 8474TIP3    H125386   3.121   0.186   4.931  1.3910  1.0967  2.0454
 8474TIP3    H225387   3.268   0.160   4.953  1.7273 -0.1735 -1.1387
 8475TIP3   OH225388   4.542   2.174   0.828 -0.4325  0.4207  0.5214
 8475TIP3    H125389   4.532   2.238   0.757 -0.1815  0.5964  0.6417
 8475TIP3    H225390   4.518   2.090   0.788  2.6446 -0.0097 -0.6915
 8476TIP3   OH225391   5.026   2.034   0.649 -0.0181 -0.4991 -0.1937
 8476TIP3    H125392   4.959   2.103   0.650  0.2001 -0.2673  1.3947
 8476TIP3    H225393   4.992   1.968   0.588 -1.1738  0.1004 -0.2263
 8477TIP3   OH225394   1.352   5.175   0.134  0.0276 -0.5724  0.9014
 8477TIP3    H125395   1.341   5.085   0.165 -0.9824 -0.4703  0.8943
 8477TIP3    H225396   1.281   5.187   0.071 -0.7990  0.6983  2.0146
 8478TIP3   OH225397   3.404   4.692   5.508  0.1920 -0.5367  0.1676
 8478TIP3    H125398   3.427   4.692   5.415 -0.1627  0.9182  0.0486
 8478TIP3    H225399   3.321   4.645   5.512  0.1403 -0.4868 -0.2716
 8479TIP3   OH225400   3.532   2.026   0.098  0.1582 -0.2565  0.4654
 8479TIP3    H125401   3.489   2.026   0.183  2.3376 -2.3830  1.7231
 8479TIP3    H225402   3.587   2.104   0.099 -0.3775  0.1263  0.6706
 8480TIP3   OH225403   1.923   6.394   1.483 -0.1230  0.3115  0.6773
 8480TIP3    H125404   1.985   6.421   1.415 -0.0797  2.1209  1.3765
 8480TIP3    H225405   1.963   6.422   1.565 -1.7241  1.3335  1.1625
 8481TIP3   OH225406   3.856   0.339   3.538  0.3093  0.2294  0.1386
 8481TIP3    H125407   3.784   0.303   3.591  1.3349 -0.3904  1.1406
 8481TIP3    H225408   3.857   0.432   3.559 -0.6105  0.3711 -0.3861
 8482TIP3   OH225409   1.668   3.308   0.962 -0.2375  0.1122  0.7188
 8482TIP3    H125410   1.582   3.351   0.960 -1.2802 -1.8241 -1.9321
 8482TIP3    H225411   1.659   3.240   1.029 -0.5802  0.2774  0.8444
 8483TIP3   OH225412   2.995   3.943   3.078  0.0954  0.2986  0.3017
 8483TIP3    H125413   2.953   3.859   3.056 -1.1111  1.2906 -1.4400
 8483TIP3    H225414   2.926   3.994   3.121  0.8458  0.4080  1.4138
 8484TIP3   OH225415   5.492   2.558   0.042 -0.3080 -0.1945  0.0033
 8484TIP3    H125416   5.427   2.597   0.100  0.9187  0.1471  1.2008
 8484TIP3    H225417   5.447   2.550  -0.042 -1.3428  1.6225  0.3238
 8485TIP3   OH225418   5.030   4.971   1.831  0.2045 -0.3575 -0.0782
 8485TIP3    H125419   4.958   4.982   1.768 -0.5085  0.8417  0.9077
 8485TIP3    H225420   5.080   4.897   1.797 -1.7421 -1.5150 -0.5527
 8486TIP3   OH225421   1.654   5.442   1.277  0.4605  0.3782 -0.2004
 8486TIP3    H125422   1.736   5.393   1.286 -0.1986 -0.8068 -0.3944
 8486TIP3    H225423   1.634   5.437   1.184  1.2421  2.5125 -0.5286
 8487TIP3   OH225424   5.738   1.661   4.985 -0.2158  0.7592  0.1784
 8487TIP3    H125425   5.757   1.737   4.930 -2.8847  0.1974 -1.7454
 8487TIP3    H225426   5.642   1.654   4.984 -0.1105 -3.5422 -1.1686
 8488TIP3   OH225427   6.888   1.862   4.508  0.0998 -0.1274 -0.2397
 8488TIP3    H125428   6.799   1.826   4.500  0.6037 -1.2768 -1.0798
 8488TIP3    H225429   6.879   1.954   4.482 -0.6550 -0.5444 -1.5914
 8489TIP3   OH225430   4.285   2.953   3.084 -0.1207  0.2584  0.1218
 8489TIP3    H125431   4.369   2.913   3.062 -0.2803 -0.4268  0.7232
 8489TIP3    H225432   4.248   2.896   3.152 -0.3211  1.4771  1.0599
 8490TIP3   OH225433   5.082   3.282   0.296  0.1328 -0.7534 -0.4658
 8490TIP3    H125434   5.070   3.355   0.235 -3.0076 -1.7768 -1.2348
 8490TIP3    H225435   5.062   3.319   0.382  0.8399 -0.1908 -0.5346
 8491TIP3   OH225436   1.921   0.132   2.188 -0.3652  0.2034 -0.1489
 8491TIP3    H125437   1.905   0.216   2.146 -0.5153  0.2166 -0.0662
 8491TIP3    H225438   1.875   0.137   2.272 -0.3049  0.0710 -0.1062
 8492TIP3   OH225439   6.959   2.608   0.499 -0.2156  0.1710 -0.3553
 8492TIP3    H125440   6.973   2.673   0.568  0.1814 -1.1497  0.8426
 8492TIP3    H225441   7.002   2.646   0.422 -1.6603  2.1975 -0.2524
 8493TIP3   OH225442   6.783   4.026   1.009 -0.1568  0.5918 -0.7080
 8493TIP3    H125443   6.767   4.047   1.101 -0.3185  1.7765 -0.9915
 8493TIP3    H225444   6.697   4.003   0.974  0.0112 -0.5388 -0.4101
 8494TIP3   OH225445   0.331   6.579   0.376 -0.1256 -0.9132 -0.0470
 8494TIP3    H125446   0.380   6.661   0.374 -0.1300 -0.9105 -0.0332
 8494TIP3    H225447   0.267   6.587   0.305 -0.0225 -0.9697 -0.1471
 8495TIP3   OH225448   4.788   2.029   1.822  0.1168  0.0725  0.0029
 8495TIP3    H125449   4.716   2.070   1.871 -0.3225 -0.6241 -0.0520
 8495TIP3    H225450   4.747   1.999   1.741  0.5275 -0.1095 -0.1362
 8496TIP3   OH225451   4.463   1.315   1.963 -0.0333 -0.0951  0.6171
 8496TIP3    H125452   4.510   1.239   1.927  0.1496  0.5881 -0.6573
 8496TIP3    H225453   4.428   1.284   2.046 -2.4642 -2.5507 -1.1202
 8497TIP3   OH225454   6.274   6.476   4.133  0.8453 -0.1424  0.7697
 8497TIP3    H125455   6.218   6.554   4.133 -0.8211 -1.2625  0.1424
 8497TIP3    H225456   6.311   6.473   4.045 -0.8310 -1.1655  0.0429
 8498TIP3   OH225457   1.964   2.606   2.163 -0.5028  0.0608  0.4997
 8498TIP3    H125458   2.060   2.606   2.172 -0.3017 -1.1032 -1.0806
 8498TIP3    H225459   1.942   2.696   2.139  0.2043  0.3302  0.8370
 8499TIP3   OH225460   1.983   1.826   1.168 -0.1462  0.3345 -0.7286
 8499TIP3    H125461   1.931   1.877   1.106  0.3797  0.3259 -1.1837
 8499TIP3    H225462   1.962   1.864   1.253  0.7257  1.7765 -1.1128
 8500TIP3   OH225463   7.218   5.528   3.340 -0.1464 -0.1220 -0.6887
 8500TIP3    H125464   7.283   5.482   3.287  0.8975  1.4943 -0.8630
 8500TIP3    H225465   7.150   5.554   3.278  0.5033  0.7523 -1.0440
 8501TIP3   OH225466   1.588   3.733   1.234 -0.0490  0.5038  0.5816
 8501TIP3    H125467   1.629   3.738   1.321 -2.3918  0.2265  1.7841
 8501TIP3    H225468   1.546   3.646   1.233  0.1926  0.3838 -0.9698
 8502TIP3   OH225469   0.382   3.323   5.600  0.0864  0.1928 -0.3061
 8502TIP3    H125470   0.354   3.240   5.561 -0.9788  0.3305  0.1441
 8502TIP3    H225471   0.360   3.389   5.536  1.2570  0.1128 -0.8169
 8503TIP3   OH225472   1.097   2.537   4.838 -0.9316  0.3131  0.2161
 8503TIP3    H125473   1.018   2.550   4.891  0.1135  0.0918  1.8724
 8503TIP3    H225474   1.136   2.624   4.831 -1.4125  0.4589 -0.7783
 8504TIP3   OH225475   6.624   6.041   1.179  0.4845  0.7825  0.8274
 8504TIP3    H125476   6.621   5.945   1.180  2.8448  0.5648 -1.2536
 8504TIP3    H225477   6.696   6.063   1.238  2.0425  0.9963 -1.0638
 8505TIP3   OH225478   7.175   1.174   1.910  0.5902 -0.7132  0.0624
 8505TIP3    H125479   7.226   1.105   1.867 -0.4415 -1.2665 -0.3000
 8505TIP3    H225480   7.198   1.254   1.862  0.9971 -0.9785 -0.1943
 8506TIP3   OH225481   1.880   0.856   2.302 -0.6823 -0.0414 -0.3554
 8506TIP3    H125482   1.925   0.932   2.263 -1.6747 -0.3910 -2.3176
 8506TIP3    H225483   1.941   0.824   2.368  0.7968  1.0617 -1.1129
 8507TIP3   OH225484   4.561   0.608   5.061 -0.0361  0.4701 -0.1618
 8507TIP3    H125485   4.599   0.668   4.997  0.2889  0.4642  0.0247
 8507TIP3    H225486   4.488   0.657   5.098 -0.1118  0.5444 -0.4026
 8508TIP3   OH225487   4.680   4.317   5.343 -0.4941 -0.6770  0.1967
 8508TIP3    H125488   4.625   4.324   5.421  0.5620  0.5019  0.8686
 8508TIP3    H225489   4.746   4.385   5.355 -0.7538  0.0569 -2.0940
 8509TIP3   OH225490   5.340   1.368   2.562 -0.8024 -0.5216  0.1001
 8509TIP3    H125491   5.336   1.340   2.470 -1.0054  0.4490 -0.1907
 8509TIP3    H225492   5.388   1.451   2.560 -0.5262 -0.6538  0.9131
 8510TIP3   OH225493   4.317   3.172   1.081 -0.0008 -0.8574  0.5658
 8510TIP3    H125494   4.229   3.158   1.046  0.4939  0.7891 -1.5361
 8510TIP3    H225495   4.371   3.107   1.035  0.5139  0.8030 -1.3339
 8511TIP3   OH225496   1.359   2.065   4.365  0.1585 -0.0320 -0.0648
 8511TIP3    H125497   1.271   2.075   4.402  0.3977 -1.1829  0.8702
 8511TIP3    H225498   1.405   2.145   4.390 -0.7073  0.7456 -0.8667
 8512TIP3   OH225499   4.337   2.997   0.852  0.8011  0.4493 -0.0005
 8512TIP3    H125500   4.428   2.990   0.881  0.2009 -1.7704  1.5948
 8512TIP3    H225501   4.309   2.906   0.839 -0.9833  1.1230 -1.2296
 8513TIP3   OH225502   5.734   3.063   1.664 -0.1247 -0.1039 -0.0251
 8513TIP3    H125503   5.713   3.146   1.622 -1.5179 -0.3282  0.1561
 8513TIP3    H225504   5.797   3.085   1.732 -0.2620  0.7581 -0.1653
 8514TIP3   OH225505   3.487   5.645   2.538 -0.2058 -0.0975 -0.2912
 8514TIP3    H125506   3.578   5.651   2.511  0.5292  1.5821  2.2808
 8514TIP3    H225507   3.487   5.663   2.632 -3.1835 -0.1815 -0.1535
 8515TIP3   OH225508   3.310   4.001   4.757  0.2075  0.0749 -0.2108
 8515TIP3    H125509   3.305   3.907   4.773  0.3783  0.0061 -0.5557
 8515TIP3    H225510   3.403   4.019   4.750  0.1536  0.1700 -0.7158
 8516TIP3   OH225511   1.456   0.061   1.094 -0.2267  0.6841  0.4592
 8516TIP3    H125512   1.444   0.059   1.189 -1.9370  0.5878  0.2696
 8516TIP3    H225513   1.400   0.133   1.064  0.4904  0.8828 -0.4711
 8517TIP3   OH225514   4.326   0.420   5.192  0.2513  0.1705 -0.2087
 8517TIP3    H125515   4.251   0.467   5.229 -0.9729 -1.0167 -1.0647
 8517TIP3    H225516   4.358   0.477   5.122  0.7947  1.1248  0.7884
 8518TIP3   OH225517   5.194   4.841   3.137  0.1450 -0.3350 -0.2691
 8518TIP3    H125518   5.286   4.860   3.117 -0.7290  3.0070 -1.8144
 8518TIP3    H225519   5.166   4.913   3.193 -1.8483 -0.6312 -0.8026
 8519TIP3   OH225520   5.752   1.595   2.201  0.0202  0.2783 -0.0700
 8519TIP3    H125521   5.680   1.642   2.159 -1.2329 -1.0953  0.4495
 8519TIP3    H225522   5.821   1.592   2.135 -0.7446  0.8134 -0.9156
 8520TIP3   OH225523   4.080   3.972   4.372 -0.0461 -0.8072 -0.4008
 8520TIP3    H125524   4.045   3.898   4.323 -0.3106 -1.8001  1.2191
 8520TIP3    H225525   4.175   3.960   4.369 -0.1040 -1.5525  0.3128
 8521TIP3   OH225526   3.073   5.777   0.703  0.3316  0.2067 -0.0998
 8521TIP3    H125527   3.059   5.710   0.770  1.0842  1.3286  1.2381
 8521TIP3    H225528   3.136   5.837   0.742  1.0869  0.7152 -1.9835
 8522TIP3   OH225529   6.367   0.436   4.784 -0.3724 -0.0497  0.0876
 8522TIP3    H125530   6.341   0.521   4.820  1.4772  0.2332  0.8193
 8522TIP3    H225531   6.388   0.455   4.692 -1.0794  0.0235 -0.0726
 8523TIP3   OH225532   5.685   6.559   0.789  0.0058  0.3383  0.5181
 8523TIP3    H125533   5.778   6.539   0.804  0.1350  2.4906  3.8120
 8523TIP3    H225534   5.672   6.644   0.832 -3.2086  0.8498 -1.1480
 8524TIP3   OH225535   3.196   5.537   0.598  0.6211  0.0014  0.2283
 8524TIP3    H125536   3.247   5.457   0.592  0.7757  0.0761  0.5168
 8524TIP3    H225537   3.254   5.599   0.644  0.6470  0.3926 -0.3173
 8525TIP3   OH225538   3.426   6.059   2.449 -0.2230 -0.0053  0.4224
 8525TIP3    H125539   3.363   6.115   2.403  1.3751  0.4889 -1.3129
 8525TIP3    H225540   3.510   6.105   2.439  1.0942 -2.5056 -0.7658
 8526TIP3   OH225541   1.171   6.221   1.794 -0.2583 -0.1849  0.1211
 8526TIP3    H125542   1.220   6.216   1.876  1.1093  0.9455 -0.5959
 8526TIP3    H225543   1.224   6.172   1.732 -0.9571 -0.4706 -0.2593
 8527TIP3   OH225544   1.390   6.591   1.993  0.0277  0.2527  0.0805
 8527TIP3    H125545   1.425   6.572   1.906  1.4728  1.6391  0.3283
 8527TIP3    H225546   1.374   6.685   1.993 -0.9851  0.1064  0.9852
 8528TIP3   OH225547   1.146   2.522   5.685 -0.1275  0.0517  0.2523
 8528TIP3    H125548   1.119   2.504   5.775 -0.2921 -1.1449 -0.0169
 8528TIP3    H225549   1.171   2.615   5.685 -1.2802  0.3831  1.2394
 8529TIP3   OH225550   2.486   1.305   0.731  0.2262  0.4466  0.3889
 8529TIP3    H125551   2.563   1.359   0.709 -0.0565 -0.0348 -2.1246
 8529TIP3    H225552   2.411   1.361   0.713 -0.0689  0.7700  2.4281
 8530TIP3   OH225553   1.306   0.939   1.749  0.3368 -0.5343  0.7569
 8530TIP3    H125554   1.340   0.892   1.825 -0.9854 -1.2512  0.9366
 8530TIP3    H225555   1.211   0.942   1.764  0.1732  0.2598 -0.3438
 8531TIP3   OH225556   2.396   2.382   2.908  0.0980  0.2738  0.2103
 8531TIP3    H125557   2.396   2.294   2.946  0.1103  0.4746  0.6924
 8531TIP3    H225558   2.457   2.377   2.834  0.1702 -0.0980  0.2942
 8532TIP3   OH225559   0.019   3.280   5.537  0.1302 -0.3432  0.8153
 8532TIP3    H125560   0.014   3.341   5.610  0.3933  0.3977  0.2293
 8532TIP3    H225561   0.039   3.335   5.461  1.3247 -1.2693  0.4253
 8533TIP3   OH225562   1.301   0.453   2.584  0.3770 -0.3536 -0.2573
 8533TIP3    H125563   1.238   0.469   2.513  0.9982 -1.0940 -0.9978
 8533TIP3    H225564   1.258   0.488   2.662 -1.2869 -1.4957 -0.6053
 8534TIP3   OH225565   6.450   4.537   5.541  0.0024 -0.3124 -1.1681
 8534TIP3    H125566   6.489   4.484   5.471  1.7025 -0.6943  0.0027
 8534TIP3    H225567   6.447   4.479   5.616 -1.3553  0.2369 -0.7835
 8535TIP3   OH225568   5.542   1.850   0.543  0.2707  0.5322  0.1145
 8535TIP3    H125569   5.488   1.813   0.614  0.7127 -2.1924 -0.8718
 8535TIP3    H225570   5.629   1.860   0.582 -0.0971  1.6785  0.7035
 8536TIP3   OH225571   5.516   1.938   4.943  0.6249  0.0552 -0.1160
 8536TIP3    H125572   5.565   1.971   5.018  0.9782 -1.1403  0.2025
 8536TIP3    H225573   5.519   1.843   4.952 -2.1938 -0.0996  0.1914
 8537TIP3   OH225574   0.634   5.742   4.132 -0.2374 -0.4503 -0.4614
 8537TIP3    H125575   0.684   5.742   4.050  2.6742 -0.8764  1.2089
 8537TIP3    H225576   0.667   5.818   4.180 -1.7031 -0.3731  0.4874
 8538TIP3   OH225577   5.534   6.435   2.251 -0.5023 -0.2394 -0.5237
 8538TIP3    H125578   5.449   6.458   2.215 -0.3594  0.2426 -0.5535
 8538TIP3    H225579   5.594   6.443   2.177 -0.1952  0.8132 -0.1787
 8539TIP3   OH225580   4.071   4.543  -0.010 -0.3890 -0.1445  0.1200
 8539TIP3    H125581   3.987   4.507   0.019  0.4590 -1.1466  1.5121
 8539TIP3    H225582   4.112   4.574   0.071  1.2077 -1.0890 -0.2913
 8540TIP3   OH225583   5.591   0.527   0.245 -0.0122  0.2211  0.3983
 8540TIP3    H125584   5.613   0.455   0.186 -1.2637  1.1446 -1.2663
 8540TIP3    H225585   5.588   0.486   0.332 -0.7667 -1.7557 -0.4999
 8541TIP3   OH225586   0.082   4.373   3.739 -0.0180  0.3131  0.0016
 8541TIP3    H125587   0.133   4.447   3.773 -0.9211  0.8497  0.1948
 8541TIP3    H225588   0.148   4.316   3.699  0.7733  0.8549  0.5022
 8542TIP3   OH225589   6.350   1.103   1.865  0.0198 -0.1258 -0.1391
 8542TIP3    H125590   6.400   1.099   1.784  0.5801  0.7994  0.1517
 8542TIP3    H225591   6.360   1.016   1.905  1.7783  0.1777  0.1424
 8543TIP3   OH225592   3.980   4.876   4.646 -0.9069  0.4147 -0.1768
 8543TIP3    H125593   3.969   4.805   4.710 -3.5204  1.6790  0.9286
 8543TIP3    H225594   3.896   4.921   4.646  0.2474  2.7601 -1.8015
 8544TIP3   OH225595   0.300   2.671   2.407 -0.3907  0.5961  0.4905
 8544TIP3    H125596   0.326   2.724   2.331 -1.0670  2.2494  1.3565
 8544TIP3    H225597   0.373   2.611   2.421 -0.7763 -0.6523 -2.2196
 8545TIP3   OH225598   0.447   4.893   4.167 -0.0920 -0.9059  0.5764
 8545TIP3    H125599   0.453   4.846   4.084  0.3579  0.9300 -0.5142
 8545TIP3    H225600   0.536   4.926   4.182 -0.5183  0.1643  0.8973
 8546TIP3   OH225601   2.461   3.517   1.053  0.5294  0.0879 -0.3545
 8546TIP3    H125602   2.528   3.576   1.089  0.1958  0.5894 -0.5409
 8546TIP3    H225603   2.436   3.558   0.970  1.2310 -1.0048 -1.1381
 8547TIP3   OH225604   3.716   4.611   5.778 -0.3422  0.0369 -0.7845
 8547TIP3    H125605   3.717   4.688   5.835 -0.0494 -0.0211 -0.7064
 8547TIP3    H225606   3.778   4.632   5.709  2.4204 -1.4536  1.0595
 8548TIP3   OH225607   3.328   3.205   3.314  0.5064  0.4466  0.4185
 8548TIP3    H125608   3.379   3.233   3.389  0.2108  1.6469  0.1892
 8548TIP3    H225609   3.387   3.147   3.265  0.2122 -1.5585  2.2897
 8549TIP3   OH225610   4.986   1.741   5.104  0.1364 -0.0793  0.0837
 8549TIP3    H125611   4.936   1.661   5.120 -3.0451  1.7606  0.1460
 8549TIP3    H225612   4.973   1.760   5.011  1.4860  0.0436 -0.1063
 8550TIP3   OH225613   6.977   2.367   2.901 -0.2248  0.7024  0.1386
 8550TIP3    H125614   6.977   2.337   2.811 -2.7917  0.2055  0.2101
 8550TIP3    H225615   7.069   2.382   2.922  0.3820  1.8419 -2.8532
 8551TIP3   OH225616   4.923   1.643   1.889 -0.7375 -0.4069  0.3014
 8551TIP3    H125617   4.939   1.646   1.795  1.5918  0.2965  0.6591
 8551TIP3    H225618   4.828   1.639   1.897 -0.9708 -1.0914 -2.0748
 8552TIP3   OH225619   4.756   0.201   5.229  0.4852 -0.3647 -0.1649
 8552TIP3    H125620   4.789   0.120   5.189  1.2897  0.1968 -0.6599
 8552TIP3    H225621   4.802   0.206   5.313 -0.7521 -1.2276  0.6013
 8553TIP3   OH225622   3.052   4.503   1.268  0.1431 -0.3119  0.6529
 8553TIP3    H125623   3.071   4.413   1.296  1.2055 -0.4122 -0.3268
 8553TIP3    H225624   3.115   4.520   1.198 -0.1132  1.1699  0.7555
 8554TIP3   OH225625   3.422   6.260   4.816 -0.2070  0.3168  0.2139
 8554TIP3    H125626   3.416   6.262   4.721 -1.5635  0.1092  0.2825
 8554TIP3    H225627   3.355   6.198   4.844 -0.1039  0.6816  1.3291
 8555TIP3   OH225628   5.359   0.772   0.537 -0.5248 -0.7902 -0.6143
 8555TIP3    H125629   5.263   0.766   0.542 -0.5152 -0.1953  0.4807
 8555TIP3    H225630   5.375   0.851   0.486 -0.6261  0.0969  0.7036
 8556TIP3   OH225631   0.195   0.993   3.796 -0.4964 -0.2210  0.0312
 8556TIP3    H125632   0.241   1.047   3.731  3.2393 -1.9782  0.8991
 8556TIP3    H225633   0.202   1.043   3.877  0.2882 -0.6253  0.2280
 8557TIP3   OH225634   5.057   6.283   0.767  0.2242 -0.5451  0.1769
 8557TIP3    H125635   5.009   6.366   0.768  2.9009  1.1911  1.9631
 8557TIP3    H225636   5.031   6.240   0.849  1.9242  0.6401  1.4084
 8558TIP3   OH225637   6.971   6.106   3.337  0.1428  0.1723  0.0366
 8558TIP3    H125638   6.926   6.022   3.351  0.0093  0.2631  0.1563
 8558TIP3    H225639   7.047   6.084   3.283 -0.7895  0.2259 -1.3464
 8559TIP3   OH225640   0.686   6.574   0.122 -0.3527 -0.0453 -0.1303
 8559TIP3    H125641   0.739   6.613   0.192 -0.8277 -1.0576  0.8333
 8559TIP3    H225642   0.623   6.518   0.169 -1.1204 -0.2275 -1.3427
 8560TIP3   OH225643   4.266   6.346   2.469 -0.2415 -0.3763 -0.2742
 8560TIP3    H125644   4.171   6.349   2.469 -0.2241  1.6226  1.0925
 8560TIP3    H225645   4.293   6.402   2.542  2.0067  0.4919 -1.6421
 8561TIP3   OH225646   2.269   5.686   5.486  0.0117  0.3904  0.2217
 8561TIP3    H125647   2.328   5.692   5.561 -0.0356  0.8144  0.2279
 8561TIP3    H225648   2.246   5.593   5.481 -0.7937  0.5037  1.3620
 8562TIP3   OH225649   6.134   2.483   0.810  0.5268 -0.6313 -0.3874
 8562TIP3    H125650   6.193   2.411   0.788  0.9398 -0.3581 -0.1957
 8562TIP3    H225651   6.175   2.560   0.770 -0.0857 -0.5553 -0.8783
 8563TIP3   OH225652   6.312   0.869   4.610  1.0094  0.3953 -0.1891
 8563TIP3    H125653   6.222   0.897   4.594  0.0854 -0.6711  2.4861
 8563TIP3    H225654   6.333   0.811   4.537 -0.4808  0.6602 -0.8624
 8564TIP3   OH225655   2.460   0.381   3.583  0.3016 -0.1452  0.3991
 8564TIP3    H125656   2.489   0.434   3.509 -1.5500 -0.0914 -0.3321
 8564TIP3    H225657   2.539   0.334   3.611  0.6698 -1.7654 -2.9433
 8565TIP3   OH225658   4.869   2.391   1.204 -0.2411  0.0883  1.1264
 8565TIP3    H125659   4.795   2.380   1.264 -0.4301 -0.5156  0.7850
 8565TIP3    H225660   4.831   2.385   1.117 -0.2438  2.5969  0.8577
 8566TIP3   OH225661   5.525   5.565   4.673 -0.4578 -0.4856  0.2341
 8566TIP3    H125662   5.475   5.574   4.592  0.0660 -1.5372 -0.2263
 8566TIP3    H225663   5.461   5.578   4.743 -0.5113  2.7278 -0.2851
 8567TIP3   OH225664   5.796   5.345   3.592  0.9056  0.0718 -0.5491
 8567TIP3    H125665   5.776   5.255   3.567  1.7272 -0.3347  0.1900
 8567TIP3    H225666   5.711   5.386   3.606  0.5005 -1.2635  1.3918
 8568TIP3   OH225667   1.590   5.388   4.900 -0.2058  0.4931 -0.2783
 8568TIP3    H125668   1.632   5.473   4.895 -0.3500  0.5061 -1.9209
 8568TIP3    H225669   1.651   5.329   4.855  0.3685 -0.5038  1.6973
 8569TIP3   OH225670   3.343   1.099   4.552  0.2158 -0.1939 -0.0407
 8569TIP3    H125671   3.296   1.177   4.525  0.8919 -0.4376 -2.0841
 8569TIP3    H225672   3.297   1.069   4.631 -1.4942  0.9240 -0.5608
 8570TIP3   OH225673   3.706   3.411   1.094  0.0933 -0.1223 -0.2102
 8570TIP3    H125674   3.747   3.334   1.055  1.8816  0.5165  0.2913
 8570TIP3    H225675   3.779   3.472   1.108 -0.6407  0.2198  2.7846
 8571TIP3   OH225676   0.434   3.375   5.282  0.0644  0.2136 -0.1861
 8571TIP3    H125677   0.501   3.309   5.269  1.3038  1.0540  1.4871
 8571TIP3    H225678   0.352   3.330   5.266  0.9342 -1.3845 -0.3373
 8572TIP3   OH225679   3.514   4.933   0.182 -0.0205 -0.4314 -0.2175
 8572TIP3    H125680   3.581   4.976   0.129 -0.0859  0.6583  0.5484
 8572TIP3    H225681   3.551   4.848   0.204 -0.2628 -1.2288 -2.5401
 8573TIP3   OH225682   5.437   0.245   5.280  0.1983  0.5516 -0.3397
 8573TIP3    H125683   5.370   0.313   5.282  0.1040  0.4598  1.4943
 8573TIP3    H225684   5.482   0.253   5.364  1.3667 -0.4921 -0.8389
 8574TIP3   OH225685   4.480   5.448   5.284 -0.0456  0.6094  0.1674
 8574TIP3    H125686   4.389   5.425   5.267 -0.1597  0.2523  1.1832
 8574TIP3    H225687   4.521   5.366   5.309  0.7639  0.6158 -1.0633
 8575TIP3   OH225688   4.962   6.156   1.013  0.3506  0.0554 -0.1177
 8575TIP3    H125689   5.033   6.172   1.076  1.0955  0.1474 -0.9673
 8575TIP3    H225690   4.981   6.070   0.976 -0.0133  0.0571 -0.3119
 8576TIP3   OH225691   1.376   0.979   0.028 -0.1409 -0.2230 -0.2290
 8576TIP3    H125692   1.326   0.991   0.108 -0.5576  1.0401 -0.6465
 8576TIP3    H225693   1.339   1.043  -0.033  1.2360 -0.0406 -0.9123
 8577TIP3   OH225694   2.363   5.135   3.454 -0.3968 -0.3722 -0.5384
 8577TIP3    H125695   2.304   5.062   3.474 -1.1486  0.9370  2.5457
 8577TIP3    H225696   2.306   5.212   3.451  0.7101  0.4488 -1.0929
 8578TIP3   OH225697   6.601   5.662   3.222 -0.2501  0.2315  0.3323
 8578TIP3    H125698   6.612   5.696   3.133  1.1975 -0.0747  0.3766
 8578TIP3    H225699   6.618   5.568   3.215 -0.6564  0.1143  0.8461
 8579TIP3   OH225700   1.349   1.755   2.131  0.0649 -0.0504  0.1128
 8579TIP3    H125701   1.307   1.670   2.120  0.8204 -0.4068 -0.0510
 8579TIP3    H225702   1.439   1.735   2.158  0.5810  0.6723 -0.9964
 8580TIP3   OH225703   6.601   1.351   0.358 -0.0438  0.2422  0.2351
 8580TIP3    H125704   6.595   1.345   0.453  0.4795 -0.0881  0.2481
 8580TIP3    H225705   6.657   1.426   0.342 -1.8862  1.6820  0.1428
 8581TIP3   OH225706   0.626   2.930   5.544 -0.4861  0.1142  0.0322
 8581TIP3    H125707   0.683   2.897   5.613 -1.6558 -0.0762  0.9387
 8581TIP3    H225708   0.642   2.873   5.470  0.0826 -0.2882  0.4583
 8582TIP3   OH225709   1.021   1.958   2.999 -0.3171 -0.1891 -0.2297
 8582TIP3    H125710   0.943   2.005   3.030  0.5649  0.8770  0.4682
 8582TIP3    H225711   1.026   1.980   2.906  0.3988  1.6557  0.1968
 8583TIP3   OH225712   1.089   6.674   0.925 -0.2053 -0.2101  0.1498
 8583TIP3    H125713   1.064   6.585   0.903  0.0711 -0.3656  0.4500
 8583TIP3    H225714   1.009   6.714   0.959 -0.5611 -0.0505 -0.8626
 8584TIP3   OH225715   1.227   4.148   4.565 -0.1804  0.3214 -0.2118
 8584TIP3    H125716   1.132   4.158   4.552 -0.1184 -0.5537 -1.4988
 8584TIP3    H225717   1.257   4.236   4.588 -1.0467  1.0123 -1.6257
 8585TIP3   OH225718   0.027   0.515   1.154  0.3143 -0.5458  0.2327
 8585TIP3    H125719   0.048   0.587   1.095 -1.6808 -0.0197  0.0917
 8585TIP3    H225720   0.023   0.555   1.241  0.9652 -0.8618  0.4169
 8586TIP3   OH225721   2.742   3.100   5.759 -0.7487  0.6662  0.8949
 8586TIP3    H125722   2.773   3.180   5.717  0.1360 -0.2458 -0.2699
 8586TIP3    H225723   2.677   3.130   5.823 -0.2304  2.3191  0.6943
 8587TIP3   OH225724   5.102   3.534   5.398  0.2072  0.1478  0.5151
 8587TIP3    H125725   5.018   3.489   5.395 -0.4837  1.4637 -2.1620
 8587TIP3    H225726   5.132   3.538   5.307  1.7662  2.2392  1.0306
 8588TIP3   OH225727   1.852   0.679   0.466  0.1164  0.4774  0.1386
 8588TIP3    H125728   1.847   0.758   0.518 -0.1854 -0.6626  1.9302
 8588TIP3    H225729   1.942   0.648   0.476  0.2695  0.6242 -0.6527
 8589TIP3   OH225730   0.304   1.679   5.361  0.5049 -0.6972 -0.2557
 8589TIP3    H125731   0.380   1.724   5.397 -1.0620  2.2818 -0.4165
 8589TIP3    H225732   0.242   1.674   5.433  0.4499 -2.3012 -0.3694
 8590TIP3   OH225733   1.510   1.736   4.766  0.5241  0.5850  0.1929
 8590TIP3    H125734   1.564   1.694   4.699 -0.1413  0.8009 -0.4919
 8590TIP3    H225735   1.529   1.687   4.847 -0.2417 -1.0588 -0.5729
 8591TIP3   OH225736   6.989   4.226   0.932  0.2754 -0.0422 -0.2908
 8591TIP3    H125737   6.921   4.162   0.911 -0.0391  0.4136 -0.6448
 8591TIP3    H225738   6.978   4.242   1.026 -0.4533  0.4362 -0.4508
 8592TIP3   OH225739   2.899   2.983   5.477 -0.1414  0.0887 -0.0152
 8592TIP3    H125740   2.840   2.910   5.496 -0.7128  0.3478 -0.7479
 8592TIP3    H225741   2.986   2.943   5.477 -0.3027 -0.3025  1.0422
 8593TIP3   OH225742   3.710   0.037   1.958  0.3201  0.0145  0.8853
 8593TIP3    H125743   3.634   0.092   1.941  1.0641  0.6482 -0.5253
 8593TIP3    H225744   3.776   0.066   1.895  0.6085 -2.7504 -0.2579
 8594TIP3   OH225745   4.709   1.572   2.375 -0.4907  0.5368  0.1178
 8594TIP3    H125746   4.768   1.498   2.387 -0.2416  0.8669  0.9492
 8594TIP3    H225747   4.675   1.561   2.286 -0.0324 -0.2655  0.0352
 8595TIP3   OH225748   6.979   2.007   3.414  0.2159 -0.7313 -0.1982
 8595TIP3    H125749   6.999   2.020   3.321  0.9295  0.1081  0.0643
 8595TIP3    H225750   6.933   1.923   3.417  1.8632 -1.7292 -1.0989
 8596TIP3   OH225751   3.300   5.750   2.086  0.5565 -0.2780 -0.1092
 8596TIP3    H125752   3.356   5.767   2.162 -1.1547 -0.9942  1.3742
 8596TIP3    H225753   3.226   5.810   2.096 -0.2807 -1.2056 -0.5379
 8597TIP3   OH225754   6.856   2.128   4.452 -0.1952  0.2396  0.1052
 8597TIP3    H125755   6.915   2.203   4.456 -1.2875  1.0822  1.6141
 8597TIP3    H225756   6.773   2.163   4.419 -1.0651 -0.0003  1.8874
 8598TIP3   OH225757   5.227   5.423   5.837 -0.1328 -0.3219 -0.1328
 8598TIP3    H125758   5.167   5.360   5.797 -3.4958  1.6880  1.3404
 8598TIP3    H225759   5.227   5.498   5.777  0.6241 -0.1315  0.0855
 8599TIP3   OH225760   3.472   3.838   1.573 -0.0464  0.2710  0.7109
 8599TIP3    H125761   3.550   3.867   1.526  0.9068 -0.0927  2.0343
 8599TIP3    H225762   3.479   3.742   1.575 -1.0885  0.1511 -0.0688
 8600TIP3   OH225763   0.497   2.008   3.858 -0.1918 -0.4064  0.3112
 8600TIP3    H125764   0.529   2.098   3.861  1.0503 -0.7562 -1.0331
 8600TIP3    H225765   0.564   1.957   3.905  0.1764 -0.8614 -0.6635
 8601TIP3   OH225766   2.392   0.020   5.259 -0.4382 -0.0685 -0.3658
 8601TIP3    H125767   2.325   0.048   5.321  0.3689 -0.5138  0.7450
 8601TIP3    H225768   2.472   0.063   5.290 -0.1706  0.3408 -1.5801
 8602TIP3   OH225769   5.708   3.438   3.444  0.0227  0.0121 -0.2190
 8602TIP3    H125770   5.720   3.464   3.353  1.2051  1.6669  0.3567
 8602TIP3    H225771   5.630   3.383   3.443 -0.1851  0.2632 -2.1717
 8603TIP3   OH225772   7.204   0.166   1.768 -0.3235 -0.1333  0.2927
 8603TIP3    H125773   7.129   0.195   1.715  0.3431  1.5696  0.2190
 8603TIP3    H225774   7.212   0.233   1.836  1.4408 -0.0174 -0.0022
 8604TIP3   OH225775   1.583   5.575   2.641  0.3516 -0.0761 -0.0176
 8604TIP3    H125776   1.676   5.573   2.665  1.5341 -0.6870 -3.9299
 8604TIP3    H225777   1.559   5.484   2.629 -0.6178  0.1067  0.4628
 8605TIP3   OH225778   0.888   3.341   3.627  0.6122 -0.1975 -0.4324
 8605TIP3    H125779   0.917   3.250   3.632  1.3578 -0.0767 -1.9079
 8605TIP3    H225780   0.939   3.378   3.555 -0.5900  1.0497 -0.6791
 8606TIP3   OH225781   0.610   4.333   3.510 -0.0449 -0.1078  0.6252
 8606TIP3    H125782   0.630   4.386   3.432 -0.5223  0.8890  1.1719
 8606TIP3    H225783   0.679   4.267   3.512 -0.6385 -0.8709 -1.2800
 8607TIP3   OH225784   6.532   0.513   5.487  0.3377  0.2074 -0.2476
 8607TIP3    H125785   6.442   0.511   5.455  0.6575  1.1407 -1.2905
 8607TIP3    H225786   6.579   0.564   5.420  1.0364  2.4021  1.7791
 8608TIP3   OH225787   4.968   6.329   3.530 -0.4228 -0.2466  0.1239
 8608TIP3    H125788   4.880   6.295   3.515 -0.7921 -0.0108  1.6713
 8608TIP3    H225789   4.965   6.419   3.498 -1.0897  0.1343  1.2239
 8609TIP3   OH225790   1.518   1.468   4.542  0.4597  0.4143 -0.2626
 8609TIP3    H125791   1.593   1.412   4.563  0.7667 -0.5431 -3.3799
 8609TIP3    H225792   1.557   1.553   4.521  0.5273  0.3559 -0.3768
 8610TIP3   OH225793   0.644   2.617   2.763  0.0354 -0.1675 -0.9800
 8610TIP3    H125794   0.587   2.619   2.686 -0.8682  1.2855 -0.3110
 8610TIP3    H225795   0.685   2.703   2.765 -0.3064 -0.0178  0.4182
 8611TIP3   OH225796   5.465   2.683   2.497 -0.3229 -0.6422  0.4348
 8611TIP3    H125797   5.528   2.682   2.569 -0.5209  0.4471  0.6416
 8611TIP3    H225798   5.490   2.759   2.445  0.7498 -2.2428 -1.5139
 8612TIP3   OH225799   6.848   1.560   1.672 -0.0483 -0.5153 -0.8490
 8612TIP3    H125800   6.758   1.588   1.685  0.1260  0.6367 -1.9448
 8612TIP3    H225801   6.895   1.593   1.749 -0.6719 -1.8044  0.1221
 8613TIP3   OH225802   1.964   5.576   3.018  0.3763 -0.1338 -0.3885
 8613TIP3    H125803   2.047   5.546   2.980  1.5642  2.1307  0.2312
 8613TIP3    H225804   1.988   5.653   3.070 -1.8023 -0.6961  1.6232
 8614TIP3   OH225805   3.115   2.816   5.435 -0.4119 -0.3462  0.0460
 8614TIP3    H125806   3.209   2.829   5.442 -0.3913 -1.2587  2.4083
 8614TIP3    H225807   3.106   2.739   5.378  0.4353 -1.4200  1.2793
 8615TIP3   OH225808   5.952   5.854   1.502 -0.2751  0.1980 -0.3314
 8615TIP3    H125809   5.868   5.885   1.467 -1.0389 -0.0382  1.2041
 8615TIP3    H225810   5.949   5.759   1.491  0.8103  0.3474 -2.3556
 8616TIP3   OH225811   4.301   3.405   1.640 -0.0623  0.3357 -0.5747
 8616TIP3    H125812   4.230   3.371   1.694  0.6740  0.4480  0.4917
 8616TIP3    H225813   4.371   3.426   1.702  1.0852 -0.2084 -1.6232
 8617TIP3   OH225814   4.228   5.916   0.543  0.6788  0.5035  0.1602
 8617TIP3    H125815   4.232   5.820   0.544 -0.1436  0.4603  1.2940
 8617TIP3    H225816   4.316   5.944   0.569  1.1709  0.0846 -0.9960
 8618TIP3   OH225817   1.083   6.435   3.943  0.7784  0.4067  0.4357
 8618TIP3    H125818   1.056   6.353   3.901  0.8147  0.5649  0.0988
 8618TIP3    H225819   1.123   6.485   3.873  1.6050  0.3372  0.8478
 8619TIP3   OH225820   1.767   1.383   3.017 -0.2278 -0.4140  0.9767
 8619TIP3    H125821   1.744   1.469   3.052 -0.7996 -0.3503  0.4684
 8619TIP3    H225822   1.699   1.325   3.053 -0.6434 -0.4010  0.2231
 8620TIP3   OH225823   5.194   0.919   0.780 -0.1044 -0.2373  0.4823
 8620TIP3    H125824   5.248   0.997   0.792  1.0753 -1.3227  2.7722
 8620TIP3    H225825   5.194   0.905   0.685 -0.5355  2.6133 -0.0159
 8621TIP3   OH225826   1.415   4.067   3.121 -0.2456  0.4864 -0.2536
 8621TIP3    H125827   1.391   4.067   3.028 -1.7480  0.0758  0.1175
 8621TIP3    H225828   1.505   4.101   3.122 -0.3239  0.8145 -1.8178
 8622TIP3   OH225829   0.251   1.988   1.519 -0.5030  0.0579  0.1364
 8622TIP3    H125830   0.186   1.973   1.450  0.8413 -1.2722 -0.9093
 8622TIP3    H225831   0.288   2.074   1.498  0.0191 -0.4095 -0.9522
 8623TIP3   OH225832   0.054   3.982   0.215 -0.1362 -0.1024  0.2764
 8623TIP3    H125833  -0.039   3.994   0.195  0.0913  0.2498 -0.6548
 8623TIP3    H225834   0.064   4.014   0.304 -0.7363  0.7686  0.0432
 8624TIP3   OH225835   0.776   5.766   3.368 -0.0447 -0.1420  0.4045
 8624TIP3    H125836   0.820   5.851   3.366  1.0769 -0.6826  1.0109
 8624TIP3    H225837   0.712   5.770   3.297  1.2580  0.5466 -0.7732
 8625TIP3   OH225838   2.811   1.257   3.858  0.3079 -0.3295  0.1416
 8625TIP3    H125839   2.809   1.306   3.940 -4.5566 -2.6391  1.8507
 8625TIP3    H225840   2.758   1.309   3.797 -0.8510 -1.1377  0.4186
 8626TIP3   OH225841   7.111   6.560   3.623  0.1603 -0.6599 -0.3395
 8626TIP3    H125842   7.067   6.601   3.549 -0.6378  1.6423  1.2840
 8626TIP3    H225843   7.145   6.477   3.589 -1.5025 -0.4038 -2.8309
 8627TIP3   OH225844   3.675   4.738   3.427  0.0040 -0.0093  0.0005
 8627TIP3    H125845   3.713   4.794   3.495 -1.7638 -0.1142  1.1469
 8627TIP3    H225846   3.690   4.784   3.345  0.1634  1.2608  0.7297
 8628TIP3   OH225847   0.040   5.791   1.360  0.0399  0.0221 -0.3800
 8628TIP3    H125848   0.071   5.713   1.314 -0.0279 -0.3946  0.2698
 8628TIP3    H225849  -0.003   5.843   1.292  1.5110  0.2729 -1.1520
 8629TIP3   OH225850   2.187   5.047   2.466 -0.2115  0.1545 -0.3907
 8629TIP3    H125851   2.120   5.115   2.469  0.5838  0.9079  1.0038
 8629TIP3    H225852   2.158   4.982   2.530  1.0489  1.1468  1.2420
 8630TIP3   OH225853   1.010   3.640   1.334  0.1323  0.2093 -0.4981
 8630TIP3    H125854   0.988   3.603   1.249  1.9049  1.3983 -1.5438
 8630TIP3    H225855   0.928   3.678   1.366 -0.7591 -1.0095 -1.2620
 8631TIP3   OH225856   5.524   3.883   4.021  0.0630  0.5428 -0.0259
 8631TIP3    H125857   5.596   3.860   3.962  0.1622  0.5384  0.0951
 8631TIP3    H225858   5.486   3.962   3.983 -1.2893 -0.6803 -1.3233
 8632TIP3   OH225859   7.008   5.627   4.496 -0.2641 -0.1430  0.6536
 8632TIP3    H125860   7.000   5.548   4.550  1.5405 -1.4714 -0.8843
 8632TIP3    H225861   6.996   5.596   4.406 -2.3209  1.8588  0.1305
 8633TIP3   OH225862   6.393   3.956   2.261  0.2944 -0.3462 -0.3588
 8633TIP3    H125863   6.298   3.959   2.256  0.1443  0.9129  2.0245
 8633TIP3    H225864   6.413   3.866   2.287 -0.4185 -0.1117  1.0946
 8634TIP3   OH225865   5.785   4.466   4.574  0.9039  0.1987  0.2033
 8634TIP3    H125866   5.715   4.429   4.520  0.4241 -0.1598  1.0548
 8634TIP3    H225867   5.821   4.537   4.521  0.4545 -0.1504 -0.5914
 8635TIP3   OH225868   2.035   3.300   0.799  0.6973  0.0961  0.0793
 8635TIP3    H125869   2.080   3.295   0.714 -1.1039  0.7357 -0.9581
 8635TIP3    H225870   1.942   3.291   0.778  0.3426 -3.3955  2.3566
 8636TIP3   OH225871   1.500   3.896   3.376 -0.1646  0.0087 -0.1039
 8636TIP3    H125872   1.479   3.928   3.289 -1.2618  1.8054  0.7555
 8636TIP3    H225873   1.591   3.920   3.390 -0.5022  1.3516 -0.1015
 8637TIP3   OH225874   2.640   1.452   2.285  0.4458 -0.1149  0.3136
 8637TIP3    H125875   2.547   1.475   2.296  0.6839  0.2834  1.7122
 8637TIP3    H225876   2.655   1.384   2.350  1.2945  0.2776  0.5329
 8638TIP3   OH225877   2.136   0.565   0.960 -0.0199 -0.9379  0.4354
 8638TIP3    H125878   2.092   0.480   0.967  0.5078 -1.2057  0.5265
 8638TIP3    H225879   2.087   0.612   0.893 -1.8640 -0.3661  2.0803
 8639TIP3   OH225880   1.086   2.088   5.599  0.7372  0.2582 -0.0339
 8639TIP3    H125881   1.130   2.003   5.592  1.5250  0.5626  0.9663
 8639TIP3    H225882   1.084   2.106   5.693 -0.8867  0.6094 -0.1044
 8640TIP3   OH225883   7.113   1.076   5.243 -0.3779  0.3862  0.4785
 8640TIP3    H125884   7.073   1.073   5.330  0.5093  0.4957  0.9009
 8640TIP3    H225885   7.110   0.985   5.212 -1.3841  0.4693  0.2851
 8641TIP3   OH225886   0.178   3.310   3.249  0.3286  0.3958  0.1167
 8641TIP3    H125887   0.141   3.398   3.236  1.7829  1.2588  1.5428
 8641TIP3    H225888   0.101   3.255   3.265 -0.7791  0.9938 -2.4942
 8642TIP3   OH225889   6.226   3.859   1.251  0.2101  0.4108  0.3298
 8642TIP3    H125890   6.177   3.910   1.314  0.7649  0.6353  0.5811
 8642TIP3    H225891   6.248   3.778   1.297  0.2186  0.3835  0.2778
 8643TIP3   OH225892   4.680   2.465   2.526 -0.3877 -0.5176 -0.8361
 8643TIP3    H125893   4.674   2.373   2.498 -0.0774 -0.6654 -0.4382
 8643TIP3    H225894   4.729   2.461   2.609  0.8526  0.1382 -1.5190
 8644TIP3   OH225895   0.646   4.228   5.334 -0.2367  0.7947 -0.0835
 8644TIP3    H125896   0.638   4.311   5.382 -1.3214 -0.1869  1.5427
 8644TIP3    H225897   0.557   4.192   5.335  0.3136 -0.6128 -0.3388
 8645TIP3   OH225898   5.631   5.645   5.650  0.3714 -0.1421  0.3822
 8645TIP3    H125899   5.590   5.561   5.666 -0.6256  0.6564  2.3245
 8645TIP3    H225900   5.598   5.672   5.564 -0.3744 -1.1000  0.3530
 8646TIP3   OH225901   2.778   6.081   0.904  0.0185 -0.1514  0.1933
 8646TIP3    H125902   2.814   6.144   0.966 -0.2294 -1.1191  1.3452
 8646TIP3    H225903   2.736   6.015   0.958  0.9206 -1.7325 -0.9550
 8647TIP3   OH225904   5.312   3.154   0.213 -0.0401 -0.2872  0.1631
 8647TIP3    H125905   5.368   3.186   0.284 -0.9786  0.5943  0.5203
 8647TIP3    H225906   5.224   3.183   0.237 -0.6416 -1.5104 -0.4768
 8648TIP3   OH225907   6.348   3.015   0.326  0.3142  0.5300 -0.5741
 8648TIP3    H125908   6.266   3.029   0.279  0.8768  0.2641 -1.6777
 8648TIP3    H225909   6.370   2.923   0.309  1.5053  0.9468 -1.4211
 8649TIP3   OH225910   5.590   5.416   1.171  0.1739  0.2233  0.1959
 8649TIP3    H125911   5.618   5.475   1.100 -2.1802 -0.1360 -1.1256
 8649TIP3    H225912   5.632   5.332   1.149  0.4419  0.4237 -0.0786
 8650TIP3   OH225913   4.328   1.582   3.278 -0.2511 -0.2199 -0.0749
 8650TIP3    H125914   4.286   1.668   3.276  0.8008  0.3248 -2.0021
 8650TIP3    H225915   4.342   1.560   3.186  0.9032 -1.7552  0.4159
 8651TIP3   OH225916   3.305   5.047   3.587  0.3534 -0.0796 -0.2085
 8651TIP3    H125917   3.323   4.991   3.662  1.4878  0.5327 -0.0066
 8651TIP3    H225918   3.344   5.000   3.513 -0.4472 -0.5063 -0.3735
 8652TIP3   OH225919   2.665   3.838   2.074  0.0608  0.1356 -0.0439
 8652TIP3    H125920   2.724   3.844   2.000 -0.0354  0.9661 -0.0581
 8652TIP3    H225921   2.582   3.873   2.042 -0.5827 -1.3962 -0.1498
 8653TIP3   OH225922   1.665   2.946   5.681  0.2571  0.1874 -0.1616
 8653TIP3    H125923   1.578   2.951   5.640  0.4815 -0.0228 -0.6744
 8653TIP3    H225924   1.726   2.954   5.608  0.6919  1.6278  0.3482
 8654TIP3   OH225925   5.465   3.776   4.825  0.1274 -0.7915  0.1124
 8654TIP3    H125926   5.542   3.741   4.781  0.0171  1.4781 -2.1421
 8654TIP3    H225927   5.406   3.701   4.836  1.4570 -2.0029 -0.8165
 8655TIP3   OH225928   3.607   2.058   1.608  0.4769  0.3106 -0.0714
 8655TIP3    H125929   3.517   2.076   1.579 -0.4669 -2.2357  1.0124
 8655TIP3    H225930   3.603   2.065   1.703  1.4412  0.1966 -0.0166
 8656TIP3   OH225931   7.171   5.084   3.269 -0.2320 -0.2653 -0.5300
 8656TIP3    H125932   7.148   5.107   3.359  2.7738 -1.4595  0.6626
 8656TIP3    H225933   7.196   5.168   3.229  0.2430  0.0319  0.3627
 8657TIP3   OH225934   6.179   2.176   3.795 -0.5148  0.1704  0.5073
 8657TIP3    H125935   6.207   2.085   3.798  0.5885  0.5023  0.6086
 8657TIP3    H225936   6.260   2.227   3.795 -1.1194  1.1815  1.4539
 8658TIP3   OH225937   3.399   0.273   0.023  0.5379 -0.0510 -0.2225
 8658TIP3    H125938   3.352   0.323  -0.043 -0.8600  1.1589  1.5794
 8658TIP3    H225939   3.355   0.188   0.024  0.4255 -0.0000 -0.6932
 8659TIP3   OH225940   6.496   2.316   5.128 -0.0647  0.6097 -0.8078
 8659TIP3    H125941   6.576   2.310   5.075 -0.4280 -0.4026 -1.2808
 8659TIP3    H225942   6.526   2.299   5.217  0.1440 -0.6626 -1.0985
 8660TIP3   OH225943   0.639   2.069   3.475 -0.1004  0.2412  0.3561
 8660TIP3    H125944   0.568   2.133   3.482 -0.1873  0.0692  1.3243
 8660TIP3    H225945   0.627   2.029   3.389 -0.7581  0.7072  0.2214
 8661TIP3   OH225946   0.370   5.075   0.983 -0.7599  0.3049  0.3359
 8661TIP3    H125947   0.342   5.056   1.072  1.8926 -0.1326  1.1591
 8661TIP3    H225948   0.443   5.015   0.967  0.2822  1.8713 -1.2777
 8662TIP3   OH225949   6.628   2.334   3.137  0.0639  0.4452  0.2726
 8662TIP3    H125950   6.649   2.404   3.076  2.1933  1.6194  2.2031
 8662TIP3    H225951   6.560   2.371   3.194  0.4104  0.5353  0.6267
 8663TIP3   OH225952   4.187   0.500   2.568  0.4856  0.4165 -0.4599
 8663TIP3    H125953   4.108   0.500   2.623  1.0086 -0.7071  0.3072
 8663TIP3    H225954   4.166   0.441   2.495  0.0584  1.3449 -1.1101
 8664TIP3   OH225955   6.468   0.193   4.143  0.0109 -0.1305 -0.0564
 8664TIP3    H125956   6.562   0.189   4.124  0.1902  0.7784  0.5681
 8664TIP3    H225957   6.455   0.280   4.182 -0.6901 -1.0571  1.9273
 8665TIP3   OH225958   6.290   1.239   5.071 -0.1321  0.0363 -0.3431
 8665TIP3    H125959   6.202   1.231   5.036 -0.1003  1.2609 -0.7325
 8665TIP3    H225960   6.309   1.333   5.070  1.2435 -0.2159 -0.4460
 8666TIP3   OH225961   2.704   4.591   5.775 -0.3875  0.5577 -0.3795
 8666TIP3    H125962   2.728   4.634   5.857 -0.2444  1.0109 -0.6559
 8666TIP3    H225963   2.703   4.498   5.796 -1.0472  0.7099  0.3195
 8667TIP3   OH225964   0.669   6.093   3.393 -0.2218  0.0493  0.1689
 8667TIP3    H125965   0.688   6.181   3.425  0.6474 -0.1509  0.2187
 8667TIP3    H225966   0.752   6.062   3.357 -1.1452  0.2726 -2.3291
 8668TIP3   OH225967   6.098   4.664   5.037 -0.5238 -0.1108 -0.1322
 8668TIP3    H125968   6.172   4.709   4.998 -1.2111  1.1941  0.0261
 8668TIP3    H225969   6.105   4.574   5.005  1.1329 -0.0293 -0.0890
 8669TIP3   OH225970   4.559   5.884   3.081  0.5581 -0.1503 -0.1702
 8669TIP3    H125971   4.523   5.959   3.129 -2.3357 -1.1840 -0.4886
 8669TIP3    H225972   4.542   5.809   3.139 -0.1513 -1.0136 -1.4431
 8670TIP3   OH225973   2.185   0.843   0.286 -0.0094  0.4903 -0.0840
 8670TIP3    H125974   2.176   0.909   0.354  1.8384  0.6837  0.0270
 8670TIP3    H225975   2.261   0.791   0.313 -1.0783 -1.3777 -0.4383
 8671TIP3   OH225976   3.399   2.535   3.010  0.4916 -0.1393  0.0304
 8671TIP3    H125977   3.461   2.489   2.954  0.4502  0.1889 -0.2862
 8671TIP3    H225978   3.320   2.480   3.008  0.7577 -0.5445  0.4161
 8672TIP3   OH225979   4.746   5.998   4.461  0.0857  0.0348 -0.0173
 8672TIP3    H125980   4.773   5.935   4.394 -0.7495  0.5315 -0.8453
 8672TIP3    H225981   4.659   5.969   4.488 -0.1067  0.5508 -0.0646
 8673TIP3   OH225982   2.919   4.278   4.530 -0.3865 -0.0546  0.6326
 8673TIP3    H125983   2.966   4.197   4.550 -2.4342 -1.2172  1.0299
 8673TIP3    H225984   2.826   4.254   4.536 -1.0750  2.4521  1.3610
 8674TIP3   OH225985   0.572   1.509   4.299  0.0156 -0.1644  0.2279
 8674TIP3    H125986   0.548   1.519   4.391 -0.6572  0.4313 -0.0002
 8674TIP3    H225987   0.580   1.599   4.267 -1.6476 -0.3450 -0.7648
 8675TIP3   OH225988   1.686   0.640   3.966 -0.2350 -0.3220  0.3273
 8675TIP3    H125989   1.606   0.692   3.970 -0.0689 -0.1457  1.8183
 8675TIP3    H225990   1.741   0.674   4.036 -0.1538 -2.5129  1.4283
 8676TIP3   OH225991   3.212   6.442   0.395  0.3781  0.3165 -0.2511
 8676TIP3    H125992   3.203   6.496   0.473  4.3485  2.1683 -0.8331
 8676TIP3    H225993   3.126   6.446   0.353 -0.4612  3.5377  1.4342
 8677TIP3   OH225994   4.415   0.485   1.981  0.6827 -0.7198 -0.0627
 8677TIP3    H125995   4.382   0.395   1.983  0.5139 -0.6485  0.8006
 8677TIP3    H225996   4.510   0.476   1.972  0.6395 -0.9812 -0.2378
 8678TIP3   OH225997   2.845   3.109   0.607  0.6295  0.2994  0.1284
 8678TIP3    H125998   2.914   3.070   0.660  1.6410 -1.4597 -2.2813
 8678TIP3    H225999   2.779   3.040   0.600  0.3094  0.6621 -0.4970
 8679TIP3   OH226000   4.158   5.778   3.924  0.0499  0.0176  0.1241
 8679TIP3    H126001   4.103   5.726   3.982 -0.9333  0.9272  0.0336
 8679TIP3    H226002   4.113   5.776   3.839  1.3934 -1.1784 -0.6023
 8680TIP3   OH226003   6.560   4.798   3.997 -0.7967 -0.1341 -0.0129
 8680TIP3    H126004   6.472   4.775   3.969 -0.5731 -1.4031  0.2646
 8680TIP3    H226005   6.616   4.728   3.962  0.2656  1.1979 -1.0991
 8681TIP3   OH226006   2.649   4.202   4.126  0.1858 -0.3514 -0.3213
 8681TIP3    H126007   2.715   4.145   4.165  0.8477 -0.7454 -1.9133
 8681TIP3    H226008   2.624   4.157   4.045  0.2489  1.2699 -1.2966
 8682TIP3   OH226009   5.647   4.811   0.960 -0.2333  0.5030 -0.4016
 8682TIP3    H126010   5.635   4.897   1.001  0.5726  0.3981  0.0778
 8682TIP3    H226011   5.582   4.808   0.890 -0.4869  1.3704 -0.2092
 8683TIP3   OH226012   2.961   4.100   1.403 -0.4826  0.2029 -0.2225
 8683TIP3    H126013   3.049   4.081   1.370 -0.7374 -2.0587  0.1865
 8683TIP3    H226014   2.976   4.125   1.495 -0.2059  0.7276 -0.4072
 8684TIP3   OH226015   6.549   5.687   3.834  0.1697 -0.1187  0.3779
 8684TIP3    H126016   6.538   5.607   3.885 -2.1962 -0.0337  0.1135
 8684TIP3    H226017   6.579   5.752   3.898 -0.4796 -0.5737  1.1665
 8685TIP3   OH226018   3.467   5.929   3.886 -0.1680  0.3425 -0.0426
 8685TIP3    H126019   3.378   5.899   3.906 -0.4825  1.4047  0.1936
 8685TIP3    H226020   3.463   5.955   3.794  0.0800 -0.2265 -0.2198
 8686TIP3   OH226021   0.843   5.536   1.854 -0.0337  0.2188  0.7434
 8686TIP3    H126022   0.754   5.563   1.875 -0.3536 -0.4861  0.3115
 8686TIP3    H226023   0.840   5.440   1.855  0.3865  0.1816 -0.6553
 8687TIP3   OH226024   5.294   2.083   4.932 -0.2529 -0.3711 -0.4850
 8687TIP3    H126025   5.312   2.173   4.904  1.4693 -0.2820  0.7284
 8687TIP3    H226026   5.381   2.044   4.944 -0.9293 -1.3688  1.5336
 8688TIP3   OH226027   2.030   0.067   5.058 -0.4132  0.3743 -0.0167
 8688TIP3    H126028   2.014  -0.028   5.054  2.0322 -0.0996  0.2497
 8688TIP3    H226029   2.051   0.091   4.968 -1.0415  0.7036 -0.0853
 8689TIP3   OH226030   2.586   2.772   3.386 -0.3439 -0.1001  0.6534
 8689TIP3    H126031   2.591   2.726   3.470 -0.7275 -0.6709  0.3683
 8689TIP3    H226032   2.568   2.703   3.322  2.7026 -0.1300 -0.3418
 8690TIP3   OH226033   4.720   1.202   5.156  0.1558 -0.5830 -0.1758
 8690TIP3    H126034   4.636   1.163   5.133 -0.2443 -1.0673  1.9185
 8690TIP3    H226035   4.779   1.127   5.169  0.3799 -0.3305  0.2842
 8691TIP3   OH226036   5.796   3.805   1.333  0.4904 -0.7623  0.6532
 8691TIP3    H126037   5.870   3.753   1.365  1.4763  0.8298  1.0766
 8691TIP3    H226038   5.760   3.846   1.411  1.5695  1.4601  0.0573
 8692TIP3   OH226039   6.923   0.306   3.781 -0.0267 -0.2667  0.1110
 8692TIP3    H126040   6.880   0.227   3.815 -0.3123 -0.4680 -0.6792
 8692TIP3    H226041   7.007   0.310   3.827 -0.2480 -0.7293  0.5568
 8693TIP3   OH226042   5.197   2.217   1.939 -0.1195  0.0959 -0.4571
 8693TIP3    H126043   5.216   2.144   1.998 -2.2846  0.9816  1.5109
 8693TIP3    H226044   5.282   2.260   1.927  0.3217  0.4842  2.9788
 8694TIP3   OH226045   3.103   3.547   1.268  0.1108 -0.3261  0.2260
 8694TIP3    H126046   3.167   3.533   1.198 -0.5057 -0.0479 -0.3994
 8694TIP3    H226047   3.019   3.550   1.224 -0.0312  3.5390  0.4524
 8695TIP3   OH226048   6.183   2.265   2.612  0.3635 -0.2678 -0.5965
 8695TIP3    H126049   6.122   2.329   2.575 -0.8856 -0.5520  0.8675
 8695TIP3    H226050   6.235   2.235   2.538 -1.3804 -0.1156 -1.9150
 8696TIP3   OH226051   3.264   5.062   0.956  0.1749 -0.5523  0.4739
 8696TIP3    H126052   3.204   5.025   0.891 -0.7031  1.2782  0.1561
 8696TIP3    H226053   3.340   5.089   0.904  0.7131 -1.6751  0.6688
 8697TIP3   OH226054   5.660   3.881   2.567  0.7528  0.3638  0.1693
 8697TIP3    H126055   5.704   3.877   2.652  0.4698 -0.7281  0.2739
 8697TIP3    H226056   5.569   3.859   2.586  0.5028  0.9736 -0.2938
 8698TIP3   OH226057   4.440   1.624   5.814 -0.5395 -0.4206  0.3769
 8698TIP3    H126058   4.436   1.529   5.800  0.8965 -0.6390  1.2392
 8698TIP3    H226059   4.499   1.634   5.888 -0.9155  1.1459  0.4830
 8699TIP3   OH226060   3.069   4.585   5.791  0.0464  0.1911 -0.0544
 8699TIP3    H126061   2.992   4.590   5.734 -1.5554 -0.0633  1.9553
 8699TIP3    H226062   3.076   4.671   5.831  0.4565  0.0322  0.2279
 8700TIP3   OH226063   3.687   3.287   0.274  0.1661 -0.0114 -0.1326
 8700TIP3    H126064   3.661   3.225   0.206 -0.4692  0.7081 -0.5556
 8700TIP3    H226065   3.769   3.251   0.309 -1.6146 -2.7685  1.7077
 8701TIP3   OH226066   4.690   3.339   1.168  0.3217  0.2241  0.2196
 8701TIP3    H126067   4.682   3.261   1.112 -0.2736  0.2490  0.2621
 8701TIP3    H226068   4.699   3.304   1.256 -1.9287  0.1744  0.5048
 8702TIP3   OH226069   0.850   0.918   1.913  0.1309  0.4500 -0.3690
 8702TIP3    H126070   0.831   1.011   1.922  2.3123  1.0959 -1.7274
 8702TIP3    H226071   0.899   0.911   1.831  0.6277 -1.8035  0.0466
 8703TIP3   OH226072   3.719   5.195   0.430  0.5989 -0.3818  0.3688
 8703TIP3    H126073   3.743   5.114   0.386 -0.6575 -0.2635 -0.5948
 8703TIP3    H226074   3.624   5.189   0.440  0.6794  0.2735  1.7328
 8704TIP3   OH226075   1.863   5.554   0.303 -0.6036 -0.5972  0.0619
 8704TIP3    H126076   1.898   5.632   0.345  0.4691 -0.3808 -1.1652
 8704TIP3    H226077   1.940   5.498   0.288 -1.2307 -1.4957  0.1107
 8705TIP3   OH226078   6.447   4.250   0.635  0.2454 -0.1197  0.2785
 8705TIP3    H126079   6.532   4.251   0.679  0.7823  0.0416 -0.7410
 8705TIP3    H226080   6.413   4.339   0.645 -0.6479 -0.6238  2.2331
 8706TIP3   OH226081   4.924   4.251   5.697  0.5870  0.2898  0.4245
 8706TIP3    H126082   4.838   4.210   5.701  0.7939 -0.2328 -0.2817
 8706TIP3    H226083   4.964   4.234   5.782  1.7481 -3.3720 -0.6898
 8707TIP3   OH226084   0.668   3.704   1.005 -0.0238 -0.2207  0.1101
 8707TIP3    H126085   0.627   3.624   1.039  2.3434 -1.0777  1.1562
 8707TIP3    H226086   0.690   3.755   1.083  0.2680  0.5419 -0.4582
 8708TIP3   OH226087   0.427   4.142   0.497 -0.2771  0.1861 -0.1420
 8708TIP3    H126088   0.467   4.215   0.544  0.9135 -1.1995  1.1037
 8708TIP3    H226089   0.501   4.093   0.461 -1.0793 -0.0564 -1.5441
 8709TIP3   OH226090   4.625   2.557   3.356  0.1358 -0.2270  0.1950
 8709TIP3    H126091   4.633   2.550   3.451  1.5921 -1.4626  0.0120
 8709TIP3    H226092   4.699   2.611   3.329  0.3731 -0.7946 -0.3218
 8710TIP3   OH226093   0.432   6.206   3.315  0.4498 -0.0109  0.0344
 8710TIP3    H126094   0.516   6.166   3.336  1.0067  0.4311 -1.2609
 8710TIP3    H226095   0.452   6.273   3.250 -0.6837  1.2551  0.9177
 8711TIP3   OH226096   0.143   1.207   0.187 -0.8097 -0.1039  0.1006
 8711TIP3    H126097   0.221   1.262   0.176 -1.3130  0.8934  1.2588
 8711TIP3    H226098   0.078   1.247   0.130 -1.2351  0.6593  1.0900
 8712TIP3   OH226099   4.935   6.136   3.798  0.2883 -0.9851  0.1569
 8712TIP3    H126100   4.847   6.169   3.780  0.2728  0.3827  2.4325
 8712TIP3    H226101   4.990   6.176   3.730 -0.3808  0.6548  0.5419
 8713TIP3   OH226102   2.459   0.013   4.999 -0.7164  0.2770  0.0603
 8713TIP3    H126103   2.437   0.022   5.092 -1.2045  0.7266 -0.0933
 8713TIP3    H226104   2.552  -0.010   4.998 -0.0173  2.7444  0.5995
 8714TIP3   OH226105   3.529   1.584   2.872  0.1457  0.2249 -0.0674
 8714TIP3    H126106   3.516   1.490   2.862 -0.0282  0.4400 -2.4524
 8714TIP3    H226107   3.547   1.615   2.783  2.3714  2.1370  0.9551
 8715TIP3   OH226108   3.034   1.873   4.155  0.1893  0.4297 -0.1213
 8715TIP3    H126109   3.013   1.882   4.248 -1.4607  2.9313 -0.6562
 8715TIP3    H226110   3.075   1.956   4.131 -2.9084  1.4999 -2.4122
 8716TIP3   OH226111   2.420   0.906   0.816 -0.6167  0.2278 -0.4867
 8716TIP3    H126112   2.445   0.939   0.730  0.8644 -2.5272 -1.2392
 8716TIP3    H226113   2.334   0.867   0.803 -0.3950 -0.1832 -0.7284
 8717TIP3   OH226114   6.525   4.140   1.818 -0.3604 -0.4838 -0.4878
 8717TIP3    H126115   6.593   4.075   1.802  0.7657  0.5575 -0.1050
 8717TIP3    H226116   6.567   4.224   1.798 -0.1622  0.6094  3.7037
 8718TIP3   OH226117   5.523   4.380   4.044 -0.6326  0.0786  0.2011
 8718TIP3    H126118   5.601   4.330   4.020 -0.3256  0.7765 -0.2563
 8718TIP3    H226119   5.501   4.348   4.131 -0.2163 -0.5807  0.0777
 8719TIP3   OH226120   3.817   1.514   4.346  0.1199  0.0539  0.0419
 8719TIP3    H126121   3.842   1.424   4.322 -1.1896 -0.6710  1.2428
 8719TIP3    H226122   3.725   1.519   4.322 -0.1094  0.7000  1.0446
 8720TIP3   OH226123   3.791   2.185   1.466 -0.1944  0.2663  0.2092
 8720TIP3    H126124   3.852   2.209   1.535  0.0042 -0.4175  0.2815
 8720TIP3    H226125   3.716   2.148   1.512 -1.0202  1.8201  0.1629
 8721TIP3   OH226126   4.908   6.017   2.461  0.0223 -0.2851 -0.0018
 8721TIP3    H126127   4.980   6.076   2.440 -0.3313 -0.5783 -2.3282
 8721TIP3    H226128   4.950   5.932   2.478  0.2863 -0.3418 -0.8787
 8722TIP3   OH226129   0.175   6.256   3.338 -0.1216 -0.2934  0.0668
 8722TIP3    H126130   0.265   6.229   3.359  0.0757 -0.8109 -1.3581
 8722TIP3    H226131   0.175   6.268   3.243 -1.7171 -0.8785 -0.0335
 8723TIP3   OH226132   3.512   3.830   0.598 -0.4053  0.2734  0.1043
 8723TIP3    H126133   3.504   3.863   0.688 -2.0193 -1.4836  0.6605
 8723TIP3    H226134   3.424   3.840   0.562 -0.1736 -0.5739 -0.7142
 8724TIP3   OH226135   2.275   5.623   3.648 -0.3119 -0.0678 -0.1221
 8724TIP3    H126136   2.203   5.572   3.687 -0.2683  0.8474  1.2143
 8724TIP3    H226137   2.231   5.692   3.598 -0.3618 -0.1404 -0.1790
 8725TIP3   OH226138   2.304   5.681   3.240 -0.2374  0.3706 -0.0911
 8725TIP3    H126139   2.323   5.630   3.161  0.9638  2.0366 -0.9589
 8725TIP3    H226140   2.388   5.718   3.265 -1.0464  1.9353  0.4455
 8726TIP3   OH226141   1.522   3.191   3.313  0.4573  0.6768 -0.2291
 8726TIP3    H126142   1.448   3.217   3.368  1.5470  1.1775  1.0878
 8726TIP3    H226143   1.513   3.096   3.304  1.6226  0.0956  3.1263
 8727TIP3   OH226144   2.005   2.462   1.914  0.6057  0.4734 -0.0313
 8727TIP3    H126145   1.973   2.524   1.980  1.4591  1.8872 -0.8968
 8727TIP3    H226146   2.084   2.503   1.880 -0.4372  0.3857 -2.7876
 8728TIP3   OH226147   6.707   1.616   4.524 -0.1622 -0.2902 -0.2609
 8728TIP3    H126148   6.697   1.533   4.478 -0.6793 -0.1016 -0.4920
 8728TIP3    H226149   6.619   1.653   4.528 -0.2907 -0.6862  1.6157
 8729TIP3   OH226150   0.524   3.176   3.571  0.3623  0.1656 -0.0567
 8729TIP3    H126151   0.493   3.256   3.614  1.8382  1.2253 -0.8764
 8729TIP3    H226152   0.446   3.141   3.527 -0.1450  1.5758 -0.3222
 8730TIP3   OH226153   6.258   3.821   0.489 -0.2301  0.0855  0.1045
 8730TIP3    H126154   6.328   3.886   0.494  0.2398 -0.4683  3.5442
 8730TIP3    H226155   6.184   3.868   0.450  0.8878  1.8692  0.0245
 8731TIP3   OH226156   6.429   5.327   5.086 -0.0232 -0.5227  0.4169
 8731TIP3    H126157   6.455   5.358   4.999 -0.3577 -1.8072 -0.1529
 8731TIP3    H226158   6.492   5.258   5.106 -0.9305 -1.3371  0.4883
 8732TIP3   OH226159   3.871   1.723   1.380 -0.6302 -0.3212  0.3249
 8732TIP3    H126160   3.797   1.733   1.320 -2.2120  0.0577  2.2037
 8732TIP3    H226161   3.855   1.788   1.448  2.2619  0.7793  0.0963
 8733TIP3   OH226162   4.102   2.086   4.934 -1.1535 -0.8056  0.5715
 8733TIP3    H126163   4.181   2.050   4.895 -1.7370  0.4553 -1.9928
 8733TIP3    H226164   4.134   2.157   4.990 -0.4443 -0.5137 -0.1852
 8734TIP3   OH226165   4.816   3.548   2.809 -0.2276  0.0368 -0.2967
 8734TIP3    H126166   4.907   3.545   2.839  0.0826 -2.2694 -1.2589
 8734TIP3    H226167   4.765   3.521   2.885 -0.0267  0.4598 -0.0107
 8735TIP3   OH226168   2.475   0.977   1.113  0.1915 -0.1954 -0.1108
 8735TIP3    H126169   2.404   0.914   1.100  0.5112 -0.7257  0.6826
 8735TIP3    H226170   2.476   1.029   1.032 -1.6213  0.3706  0.1869
 8736TIP3   OH226171   1.997   0.918   4.235  0.2929 -0.4608  0.2532
 8736TIP3    H126172   1.942   0.853   4.280  0.1844 -1.2806 -1.0121
 8736TIP3    H226173   2.020   0.876   4.152  0.9050  0.8105 -0.2401
 8737TIP3   OH226174   3.607   2.184   1.050 -0.1671  0.0886  0.3167
 8737TIP3    H126175   3.615   2.207   1.142 -0.8804 -0.8294  0.6200
 8737TIP3    H226176   3.697   2.163   1.024  0.3110  1.9137  0.3399
 8738TIP3   OH226177   4.371   2.700   2.140  0.1107 -0.7862 -0.0579
 8738TIP3    H126178   4.461   2.672   2.120  1.4993  2.3338  1.1997
 8738TIP3    H226179   4.369   2.708   2.235 -1.4945 -0.7285 -0.0727
 8739TIP3   OH226180   0.631   0.811   5.022 -0.3918 -0.1556  0.0617
 8739TIP3    H126181   0.612   0.901   5.049 -0.5461 -0.7112  1.9490
 8739TIP3    H226182   0.610   0.810   4.929 -0.1035  1.8344 -0.0818
 8740TIP3   OH226183   5.161   6.265   4.877  0.2006 -0.0289  0.3035
 8740TIP3    H126184   5.165   6.176   4.910  3.0298  0.0618  0.4104
 8740TIP3    H226185   5.142   6.319   4.955 -0.2721 -0.4101  0.4554
 8741TIP3   OH226186   5.316   1.534   0.972 -0.3654  0.1814  0.5378
 8741TIP3    H126187   5.284   1.464   0.915  1.6852  0.3997 -1.0067
 8741TIP3    H226188   5.371   1.588   0.916 -0.5479  2.1062  2.0848
 8742TIP3   OH226189   5.042   3.078   3.892 -0.2919 -0.0726  0.2247
 8742TIP3    H126190   4.999   3.140   3.833 -0.9595  0.2878  1.0616
 8742TIP3    H226191   5.115   3.126   3.930  0.8261 -0.6516 -1.1148
 8743TIP3   OH226192   5.074   2.853   3.449 -0.6684 -0.5389 -0.0623
 8743TIP3    H126193   5.065   2.774   3.502  0.8705 -1.0839 -0.5759
 8743TIP3    H226194   5.038   2.923   3.504 -1.2214 -1.4362  0.7551
 8744TIP3   OH226195   3.150   0.807   2.229  0.7609  0.0562 -0.7480
 8744TIP3    H126196   3.113   0.894   2.213  0.5952 -0.0218 -0.7884
 8744TIP3    H226197   3.140   0.761   2.146  2.5930  0.6220 -1.3347
 8745TIP3   OH226198   6.344   0.820   2.778 -0.3006 -0.4012  0.0855
 8745TIP3    H126199   6.259   0.776   2.771 -1.1799  0.9387  1.6166
 8745TIP3    H226200   6.322   0.913   2.782  1.3880  0.1063 -1.3515
 8746TIP3   OH226201   1.758   6.326   0.418  0.5402 -0.1192 -0.1659
 8746TIP3    H126202   1.690   6.262   0.438  0.7184  0.3182  2.0846
 8746TIP3    H226203   1.830   6.274   0.382  0.6074 -1.1859  1.4188
 8747TIP3   OH226204   6.872   5.290   1.093 -0.0439  0.5819 -0.2897
 8747TIP3    H126205   6.907   5.203   1.111  2.2845  1.6108  0.5922
 8747TIP3    H226206   6.858   5.328   1.180  0.4664  1.6306 -0.6593
 8748TIP3   OH226207   6.892   5.121   3.507  0.2149  0.3192 -0.6787
 8748TIP3    H126208   6.851   5.050   3.557  0.5208 -0.4578 -1.5170
 8748TIP3    H226209   6.884   5.197   3.564 -0.1416 -0.3770  0.2310
 8749TIP3   OH226210   4.175   0.349   0.106 -0.0148  0.3851  0.2398
 8749TIP3    H126211   4.218   0.396   0.034  2.0244 -1.4020  0.2117
 8749TIP3    H226212   4.120   0.284   0.063  0.5725 -0.1409  0.2701
 8750TIP3   OH226213   0.461   2.481   0.403 -0.1847 -0.6269 -0.4055
 8750TIP3    H126214   0.430   2.571   0.407  0.4227 -0.4233 -0.1518
 8750TIP3    H226215   0.529   2.476   0.471  0.3394 -1.0517 -0.9503
 8751TIP3   OH226216   3.465   2.704   0.764  0.1380 -1.0367  0.4116
 8751TIP3    H126217   3.496   2.749   0.842 -3.7589  2.6298  0.1840
 8751TIP3    H226218   3.517   2.742   0.693 -0.5040  0.3361  0.6479
 8752TIP3   OH226219   6.290   3.461   1.896 -0.6444  0.1738  0.1335
 8752TIP3    H126220   6.344   3.424   1.826 -0.8024 -0.3891  0.3040
 8752TIP3    H226221   6.336   3.439   1.977 -0.3251  1.0539  0.2028
 8753TIP3   OH226222   0.454   5.641   1.178  0.2088 -0.0130 -0.1045
 8753TIP3    H126223   0.524   5.674   1.123 -0.2676 -1.4739 -1.6784
 8753TIP3    H226224   0.373   5.659   1.129 -0.3039 -0.5413  0.5153
 8754TIP3   OH226225   4.570   1.615   3.993  0.9278  0.5674  0.0369
 8754TIP3    H126226   4.643   1.600   3.932  1.5256 -0.0040  0.8626
 8754TIP3    H226227   4.601   1.685   4.050  0.5572  0.7766 -0.0140
 8755TIP3   OH226228   5.599   4.626   2.061  0.0731 -0.5861  0.0160
 8755TIP3    H126229   5.526   4.588   2.012 -1.0676  1.1811  0.2654
 8755TIP3    H226230   5.598   4.718   2.038 -0.3203  0.2796  3.0630
 8756TIP3   OH226231   1.800   6.382   2.908 -0.0703 -0.0012 -0.1036
 8756TIP3    H126232   1.851   6.454   2.870  0.4061 -0.1882  0.1783
 8756TIP3    H226233   1.737   6.360   2.839 -0.3831  0.8416 -0.1037
 8757TIP3   OH226234   6.080   2.936   0.174 -0.4853  0.0626 -0.6887
 8757TIP3    H126235   6.029   3.008   0.138 -0.4174  0.0474 -0.8171
 8757TIP3    H226236   6.100   2.880   0.098 -1.7475 -0.8485 -0.3834
 8758TIP3   OH226237   4.213   6.106   2.079 -0.2180 -0.3961  0.7548
 8758TIP3    H126238   4.225   6.055   1.999 -1.7687 -1.2353  1.0222
 8758TIP3    H226239   4.168   6.046   2.139 -2.0931  1.2509  1.0907
 8759TIP3   OH226240   5.584   1.249   0.341  0.1615  0.3129 -0.2166
 8759TIP3    H126241   5.519   1.296   0.289 -0.1922  0.8642  0.6900
 8759TIP3    H226242   5.588   1.298   0.423  1.4132  0.0294 -0.0942
 8760TIP3   OH226243   4.024   5.538   1.903 -0.3552  0.1304  0.3962
 8760TIP3    H126244   3.992   5.598   1.971 -0.8406  0.3631 -0.0248
 8760TIP3    H226245   3.949   5.527   1.845  0.0576 -0.0618 -0.1033
 8761TIP3   OH226246   6.508   2.695   4.968 -0.5659  0.6538 -0.0375
 8761TIP3    H126247   6.489   2.641   4.892 -0.6137  0.2618  0.2512
 8761TIP3    H226248   6.431   2.751   4.979  0.0341  1.7552 -1.1538
 8762TIP3   OH226249   3.571   6.641   4.895 -0.2600 -0.3229  0.3091
 8762TIP3    H126250   3.518   6.720   4.905  1.4927  0.8130  1.1789
 8762TIP3    H226251   3.586   6.610   4.984 -0.6168 -1.4265 -0.0080
 8763TIP3   OH226252   1.674   2.863   2.146 -0.3221 -0.0266 -0.2884
 8763TIP3    H126253   1.670   2.824   2.233 -0.0891  1.7275  0.5358
 8763TIP3    H226254   1.611   2.935   2.148 -0.7217 -0.2918 -1.7590
 8764TIP3   OH226255   0.223   2.115   3.643 -0.3434  0.6001 -0.1878
 8764TIP3    H126256   0.142   2.063   3.644 -0.3921  0.6552  1.6163
 8764TIP3    H226257   0.196   2.199   3.606 -0.5480 -0.1821 -1.9012
 8765TIP3   OH226258   5.004   0.766   2.838 -0.0174  0.5436 -0.1026
 8765TIP3    H126259   5.014   0.862   2.839 -0.9189  0.6544 -0.3559
 8765TIP3    H226260   4.910   0.753   2.824  0.0444 -0.3822  0.3300
 8766TIP3   OH226261   5.682   0.080   1.376 -0.0630 -0.3070  0.1191
 8766TIP3    H126262   5.670   0.072   1.282  0.2065  1.4016 -0.0944
 8766TIP3    H226263   5.718   0.168   1.388  1.3658 -1.0456  1.6864
 8767TIP3   OH226264   5.748   2.246   2.333 -0.1247 -0.1864 -0.3557
 8767TIP3    H126265   5.682   2.241   2.264 -0.0802  0.7781 -0.4767
 8767TIP3    H226266   5.818   2.300   2.295 -0.1504  0.4444  0.4806
 8768TIP3   OH226267   3.314   0.862   3.731  0.2967  0.2366 -0.4341
 8768TIP3    H126268   3.380   0.793   3.736  0.4209  0.3424 -0.5907
 8768TIP3    H226269   3.281   0.871   3.821 -1.6762 -1.9076 -0.8684
 8769TIP3   OH226270   1.517   3.702   2.570 -0.0668  0.2568 -0.2114
 8769TIP3    H126271   1.566   3.779   2.539 -0.1771 -0.0316 -1.1427
 8769TIP3    H226272   1.584   3.637   2.588  0.0745  0.7563  1.1816
 8770TIP3   OH226273   6.101   2.266   5.260 -0.7887  0.4557 -0.5879
 8770TIP3    H126274   6.156   2.291   5.334  0.6608 -0.1265 -1.4200
 8770TIP3    H226275   6.097   2.170   5.265 -1.3307  0.4622 -0.8318
 8771TIP3   OH226276   0.211   6.262   3.067  0.7608  0.7505 -0.0427
 8771TIP3    H126277   0.272   6.253   2.994  0.6960  3.7469 -0.5965
 8771TIP3    H226278   0.124   6.255   3.028  0.7216 -0.0385  0.1717
 8772TIP3   OH226279   1.135   0.315   0.842 -0.0822  0.2299 -0.1392
 8772TIP3    H126280   1.105   0.229   0.815 -1.2538  0.9774 -1.3599
 8772TIP3    H226281   1.198   0.341   0.775 -0.4004  0.6723 -0.2763
 8773TIP3   OH226282   4.095   4.065   3.497  0.0957  0.4439 -0.2510
 8773TIP3    H126283   4.187   4.044   3.481  0.1817  0.5034  0.1494
 8773TIP3    H226284   4.059   4.081   3.410  0.8004  1.8127 -0.3240
 8774TIP3   OH226285   2.342   4.371   0.807  0.0395 -0.6292 -0.4548
 8774TIP3    H126286   2.433   4.374   0.837 -0.1516  0.6216  0.0434
 8774TIP3    H226287   2.334   4.445   0.747 -0.9113 -0.1089  0.2991
 8775TIP3   OH226288   0.357   1.677   0.921  0.2906  0.3048  0.3854
 8775TIP3    H126289   0.424   1.738   0.891  1.2843 -0.4561  1.0018
 8775TIP3    H226290   0.401   1.623   0.987 -0.8226 -0.4621  0.5349
 8776TIP3   OH226291   3.902   4.277   1.314  0.1688  0.1684 -0.3675
 8776TIP3    H126292   3.916   4.316   1.228 -0.2646  1.5478  0.1502
 8776TIP3    H226293   3.820   4.316   1.345  1.0987  0.9124  1.2879
 8777TIP3   OH226294   0.110   0.733   4.536  0.5100  0.0424  0.2188
 8777TIP3    H126295   0.198   0.755   4.505 -0.3142  0.5570 -1.9646
 8777TIP3    H226296   0.087   0.654   4.486 -0.2321 -0.1386  0.8346
 8778TIP3   OH226297   2.422   0.410   5.300  0.1861 -0.1201 -0.2649
 8778TIP3    H126298   2.411   0.399   5.205 -0.0558 -0.7451 -0.1666
 8778TIP3    H226299   2.465   0.495   5.309 -0.0099  0.0581 -0.9253
 8779TIP3   OH226300   1.323   5.862   2.987 -0.6404  0.0248  0.3105
 8779TIP3    H126301   1.404   5.811   2.982 -0.0993  0.7708  1.0806
 8779TIP3    H226302   1.313   5.901   2.900 -0.6846 -0.8141 -0.0688
 8780TIP3   OH226303   5.416   3.660   1.897  0.5218 -0.3695  0.3083
 8780TIP3    H126304   5.397   3.746   1.857  0.4449 -0.2848  0.5237
 8780TIP3    H226305   5.480   3.680   1.965  0.0499 -0.3912  0.7620
 8781TIP3   OH226306   2.756   6.045   2.689 -0.5280 -0.2762  0.1619
 8781TIP3    H126307   2.691   5.991   2.734  0.1325 -1.0201  0.2336
 8781TIP3    H226308   2.780   6.111   2.753  0.7014 -1.5665  1.0767
 8782TIP3   OH226309   4.999   0.410   3.319 -0.1609  0.1232  0.1357
 8782TIP3    H126310   4.999   0.334   3.377  0.3274  0.9508  1.2816
 8782TIP3    H226311   4.912   0.412   3.280 -0.7022 -0.1628  1.2876
 8783TIP3   OH226312   3.586   6.787   2.998 -0.2006 -0.3103  0.0356
 8783TIP3    H126313   3.612   6.722   2.932  0.1430 -0.8332  0.6747
 8783TIP3    H226314   3.509   6.830   2.960 -1.0937 -1.8246  0.0536
 8784TIP3   OH226315   2.931   3.750   5.149  0.3787 -0.7665  0.3382
 8784TIP3    H126316   2.875   3.712   5.217  1.2251  0.7555  1.9930
 8784TIP3    H226317   2.940   3.842   5.175 -0.5726  0.3180 -2.7887
 8785TIP3   OH226318   1.510   2.598   2.401  0.1054 -0.2205 -0.3863
 8785TIP3    H126319   1.548   2.646   2.475  0.6981 -1.3280  0.0446
 8785TIP3    H226320   1.451   2.535   2.441  0.3752 -0.7807 -0.8628
 8786TIP3   OH226321   6.102   1.353   0.288  0.0683 -0.3528 -0.3154
 8786TIP3    H126322   6.103   1.352   0.384 -0.1406  0.3962 -0.2947
 8786TIP3    H226323   6.025   1.406   0.266  0.8325  0.5559 -0.8713
 8787TIP3   OH226324   2.929   5.818   3.589  0.7980 -0.0079 -0.3884
 8787TIP3    H126325   2.912   5.880   3.518  1.0731 -0.3030 -0.7174
 8787TIP3    H226326   2.862   5.750   3.579  0.2153  0.4605  0.2459
 8788TIP3   OH226327   2.882   6.468   5.893  0.2219 -0.4546 -0.1357
 8788TIP3    H126328   2.816   6.533   5.917 -0.2630 -1.0126  0.0871
 8788TIP3    H226329   2.914   6.496   5.808  2.6173  2.0736  1.4459
 8789TIP3   OH226330   5.508   0.312   3.955 -0.0623 -0.0018  0.1396
 8789TIP3    H126331   5.574   0.251   3.922  0.7875  0.0901  1.5672
 8789TIP3    H226332   5.560   0.381   3.999 -1.0818  0.3802  0.7784
 8790TIP3   OH226333   0.703   4.266   0.470  0.3725  0.5987 -0.0123
 8790TIP3    H126334   0.693   4.171   0.472 -1.0792  0.7347  0.8005
 8790TIP3    H226335   0.796   4.280   0.451  0.7428 -0.9825  0.4543
 8791TIP3   OH226336   1.213   1.257   0.926  0.3727  0.0406  0.2495
 8791TIP3    H126337   1.214   1.278   1.020  2.3028  1.4260 -0.0116
 8791TIP3    H226338   1.157   1.324   0.887 -0.8040 -0.8073  0.4235
 8792TIP3   OH226339   6.726   2.682   1.873 -0.1291  0.2199  0.6292
 8792TIP3    H126340   6.728   2.587   1.863 -2.0005  0.2069 -0.0537
 8792TIP3    H226341   6.780   2.715   1.800 -0.3787 -0.2891  0.2079
 8793TIP3   OH226342   4.119   1.311   1.454  0.5407 -0.0783  0.0155
 8793TIP3    H126343   4.073   1.387   1.490  1.1551  0.3135 -0.0237
 8793TIP3    H226344   4.176   1.282   1.525  0.2570 -0.5418  0.0525
 8794TIP3   OH226345   2.959   6.298   1.935  0.3302 -0.5379  0.0479
 8794TIP3    H126346   2.936   6.355   2.008  0.1787 -1.1446  0.4864
 8794TIP3    H226347   2.899   6.224   1.942  0.9884 -1.1025 -0.0707
 8795TIP3   OH226348   1.365   1.072   1.274  0.0370 -0.0243 -0.0726
 8795TIP3    H126349   1.411   1.146   1.314  1.7912 -1.1414  0.1071
 8795TIP3    H226350   1.367   1.004   1.341 -0.6629 -0.5708 -0.5941
 8796TIP3   OH226351   4.183   6.250   4.879  0.6951 -0.1093  0.5519
 8796TIP3    H126352   4.252   6.312   4.857 -0.0409  0.8803  0.9420
 8796TIP3    H226353   4.111   6.304   4.910 -0.5192 -1.0509 -0.4898
 8797TIP3   OH226354   1.428   5.740   1.098  0.3862 -0.5447 -0.0499
 8797TIP3    H126355   1.361   5.808   1.104 -0.2659 -1.1251 -0.7151
 8797TIP3    H226356   1.487   5.759   1.172  0.1871  0.6990 -0.1837
 8798TIP3   OH226357   0.159   4.387   1.562  0.2945  0.4706  0.0318
 8798TIP3    H126358   0.173   4.467   1.511  1.4111  0.6287  0.5623
 8798TIP3    H226359   0.246   4.349   1.573 -0.3481 -1.7159 -1.5784
 8799TIP3   OH226360   4.519   3.106   5.790 -0.1122 -0.1611  0.4287
 8799TIP3    H126361   4.436   3.093   5.743 -0.6153 -1.3989  1.6048
 8799TIP3    H226362   4.498   3.089   5.882  1.5173 -0.8767  0.7069
 8800TIP3   OH226363   3.281   1.878   5.115 -0.1447  0.3110 -0.2256
 8800TIP3    H126364   3.334   1.958   5.123 -1.9096  1.5055  0.1248
 8800TIP3    H226365   3.227   1.893   5.037 -0.9929 -0.2397  0.2497
 8801TIP3   OH226366   0.348   4.856   3.283 -0.2344  0.0564  0.3247
 8801TIP3    H126367   0.349   4.928   3.347 -0.1863  1.0193 -0.7381
 8801TIP3    H226368   0.255   4.840   3.267 -0.3354  2.6084 -2.3728
 8802TIP3   OH226369   0.879   4.182   1.233 -0.0664 -0.2803  0.3645
 8802TIP3    H126370   0.965   4.216   1.208  0.2098 -1.3313 -0.1613
 8802TIP3    H226371   0.894   4.141   1.319  0.1918 -1.2776 -0.1371
 8803TIP3   OH226372   4.977   3.052   0.361 -0.0209 -0.2480 -0.0485
 8803TIP3    H126373   5.038   3.096   0.301  1.0418 -0.2162  1.0033
 8803TIP3    H226374   4.919   3.121   0.391  0.8815  0.2273  0.6733
 8804TIP3   OH226375   4.112   3.189   2.471  0.5119 -0.2224  0.5024
 8804TIP3    H126376   4.076   3.104   2.495 -0.3335  0.2393  0.9161
 8804TIP3    H226377   4.107   3.241   2.552 -0.9908  0.8872 -0.2406
 8805TIP3   OH226378   2.439   1.246   4.820  0.4880 -0.4659 -0.5292
 8805TIP3    H126379   2.403   1.186   4.885  1.2146 -0.8511 -0.4819
 8805TIP3    H226380   2.374   1.245   4.749  0.8142 -1.8618 -0.8425
 8806TIP3   OH226381   3.738   0.247   3.266  0.4966  0.3103 -0.3954
 8806TIP3    H126382   3.742   0.273   3.358  0.7977 -0.8224 -0.0836
 8806TIP3    H226383   3.781   0.320   3.219  1.8816  0.1157  0.5198
 8807TIP3   OH226384   2.636   3.874   4.629 -0.2940 -0.0622 -0.1747
 8807TIP3    H126385   2.624   3.779   4.629 -0.7467 -0.0683 -2.1427
 8807TIP3    H226386   2.582   3.905   4.701  2.5899 -1.4725  2.8555
 8808TIP3   OH226387   6.606   3.016   0.171  0.5626 -0.3753  0.7028
 8808TIP3    H126388   6.571   2.940   0.217 -0.5066 -1.8199 -2.2772
 8808TIP3    H226389   6.667   2.979   0.107  0.3321  1.2935 -0.5474
 8809TIP3   OH226390   4.538   3.680   5.555  0.8044 -0.5522 -0.5267
 8809TIP3    H126391   4.505   3.655   5.468  1.6353  0.7736 -1.2468
 8809TIP3    H226392   4.564   3.597   5.594 -2.1973 -1.5549 -0.3672
 8810TIP3   OH226393   4.646   3.593   5.850 -0.4301 -0.2574 -0.1751
 8810TIP3    H126394   4.587   3.656   5.890 -0.0036  0.2304 -0.2937
 8810TIP3    H226395   4.590   3.520   5.825 -1.0953  0.4640 -0.8653
 8811TIP3   OH226396   5.795   1.851   1.304  0.4435  0.0548  0.5992
 8811TIP3    H126397   5.888   1.875   1.309  0.6090 -0.5933  0.6504
 8811TIP3    H226398   5.753   1.910   1.367  0.8164  0.3674  0.5613
 8812TIP3   OH226399   1.911   6.172   3.922  0.6498 -0.0879  0.1862
 8812TIP3    H126400   1.981   6.126   3.969 -0.2224 -1.1299  0.5030
 8812TIP3    H226401   1.873   6.105   3.865  0.5859  0.7426 -0.7782
 8813TIP3   OH226402   1.162   3.950   3.181 -0.5223 -0.5288  0.1629
 8813TIP3    H126403   1.253   3.977   3.186 -0.8487  0.5107  0.6523
 8813TIP3    H226404   1.124   4.005   3.112 -1.0177 -0.2436  0.6584
 8814TIP3   OH226405   2.294   2.338   4.793 -0.0562  0.0956 -0.1575
 8814TIP3    H126406   2.382   2.303   4.807 -1.1386 -2.5491  0.6765
 8814TIP3    H226407   2.308   2.429   4.768  2.9375 -0.4660 -0.9010
 8815TIP3   OH226408   3.335   2.917   1.369 -0.6439 -0.2082  0.2268
 8815TIP3    H126409   3.421   2.875   1.360 -0.5569 -0.0161  0.1609
 8815TIP3    H226410   3.353   3.010   1.357 -1.1749 -0.3354 -2.0415
 8816TIP3   OH226411   4.701   4.658   1.650 -0.1460 -0.0646  0.4975
 8816TIP3    H126412   4.615   4.676   1.612  0.0352 -1.3095 -0.5979
 8816TIP3    H226413   4.761   4.666   1.576  0.2603 -2.2361  0.5158
 8817TIP3   OH226414   5.166   3.031   2.477  0.7826 -0.1081  0.4842
 8817TIP3    H126415   5.107   2.969   2.518  0.9834 -0.3510  0.4043
 8817TIP3    H226416   5.124   3.052   2.393  0.8092 -0.2746  0.4302
 8818TIP3   OH226417   6.187   0.644   0.577 -0.9081 -0.3962 -0.1440
 8818TIP3    H126418   6.109   0.595   0.555  0.3485 -2.7835  0.4013
 8818TIP3    H226419   6.168   0.683   0.663 -0.2131 -4.3206  2.0086
 8819TIP3   OH226420   3.961   6.403   0.152  0.4108  0.0139  0.1740
 8819TIP3    H126421   3.972   6.385   0.245 -1.5198 -0.2329  0.4033
 8819TIP3    H226422   3.912   6.328   0.119  1.0001  0.1357 -1.0356
 8820TIP3   OH226423   0.855   5.107   2.268  0.0384  0.3132  0.2726
 8820TIP3    H126424   0.794   5.097   2.341  0.5691 -0.7495  0.6011
 8820TIP3    H226425   0.863   5.018   2.232  0.5084  0.6526 -0.4824
 8821TIP3   OH226426   3.187   3.942   1.852 -0.3703 -0.4588  0.1469
 8821TIP3    H126427   3.268   3.960   1.900 -0.6615  1.0551  0.1140
 8821TIP3    H226428   3.211   3.948   1.760 -0.7845  1.4386  0.1307
 8822TIP3   OH226429   3.352   6.065   4.272  0.5446  0.3927  0.1847
 8822TIP3    H126430   3.384   5.975   4.276 -0.4892  0.0039  0.1390
 8822TIP3    H226431   3.427   6.119   4.296  0.5657 -0.6042  2.6206
 8823TIP3   OH226432   4.843   6.632   4.119  0.2727  0.5305 -0.5012
 8823TIP3    H126433   4.900   6.556   4.126  0.3139  0.6626  1.0283
 8823TIP3    H226434   4.757   6.596   4.098  0.5312  0.1755 -0.9651
 8824TIP3   OH226435   5.098   0.217  -0.002  0.4048 -0.4546 -0.1782
 8824TIP3    H126436   5.186   0.231   0.034 -0.0944 -2.0726  1.9005
 8824TIP3    H226437   5.095   0.123  -0.020 -1.1859 -0.6145  0.7177
 8825TIP3   OH226438   2.968   4.293   4.838  0.0621 -0.0051 -0.1886
 8825TIP3    H126439   2.940   4.279   4.748 -0.5268 -0.0858  0.0062
 8825TIP3    H226440   2.988   4.205   4.871 -1.0403 -0.1241  0.1862
 8826TIP3   OH226441   3.721   3.565   1.473  0.1447 -0.0366  0.2367
 8826TIP3    H126442   3.801   3.515   1.457  1.1257  1.1788  1.1240
 8826TIP3    H226443   3.747   3.656   1.462 -1.6142  0.3295 -1.3776
 8827TIP3   OH226444   0.786   5.716   5.663 -0.1120  0.1921 -0.3974
 8827TIP3    H126445   0.831   5.688   5.583  1.2176 -1.0362  0.7297
 8827TIP3    H226446   0.854   5.755   5.717 -0.8943  0.5544  0.3459
 8828TIP3   OH226447   0.991   4.219   1.704  0.1259 -0.4384 -0.0463
 8828TIP3    H126448   1.039   4.226   1.622  1.3493  0.1154  0.6910
 8828TIP3    H226449   1.026   4.141   1.747  1.3302  0.6705  1.0673
 8829TIP3   OH226450   3.453   5.519   1.343  0.3792 -0.0787 -0.0100
 8829TIP3    H126451   3.527   5.503   1.401  1.5495  0.4530 -1.2884
 8829TIP3    H226452   3.481   5.483   1.259 -0.1574  1.4982 -0.9083
 8830TIP3   OH226453   6.720   2.839   1.602  0.4429 -0.1819 -0.1178
 8830TIP3    H126454   6.624   2.833   1.599  0.4905 -0.4914 -1.2284
 8830TIP3    H226455   6.748   2.827   1.512  1.5211  0.2492  0.1439
 8831TIP3   OH226456   7.118   0.402   3.153 -0.0936  0.5153 -0.2225
 8831TIP3    H126457   7.177   0.425   3.225  0.6860  0.8874 -0.9607
 8831TIP3    H226458   7.173   0.353   3.092 -0.9446 -0.5142 -0.2026
 8832TIP3   OH226459   5.026   1.889   1.337  0.1448  0.2515  0.5924
 8832TIP3    H126460   5.105   1.884   1.392  0.4441  1.3493  0.2968
 8832TIP3    H226461   5.051   1.948   1.266  0.1543 -2.0183 -1.4063
 8833TIP3   OH226462   2.426   1.014   1.668  0.3714 -0.2083  0.1453
 8833TIP3    H126463   2.338   1.007   1.633  1.3938  2.1170 -3.4131
 8833TIP3    H226464   2.473   0.939   1.632  0.2486 -0.5305  0.6542
 8834TIP3   OH226465   6.053   1.807   3.428 -0.2398 -0.6751  0.8645
 8834TIP3    H126466   6.139   1.823   3.390 -0.4607 -0.0831  0.5964
 8834TIP3    H226467   6.037   1.883   3.484 -0.9648 -0.3175  0.2045
 8835TIP3   OH226468   1.269   5.365   4.258  0.4237  0.4812  0.0961
 8835TIP3    H126469   1.304   5.365   4.169  0.7323  1.0072  0.2107
 8835TIP3    H226470   1.343   5.393   4.313 -0.1194  1.4388  0.3645
 8836TIP3   OH226471   5.182   5.531   2.224 -0.8237  0.0021  0.9132
 8836TIP3    H126472   5.240   5.594   2.267 -1.8750  1.3673  0.4179
 8836TIP3    H226473   5.238   5.484   2.163 -0.1266  0.9048  0.8398
 8837TIP3   OH226474   4.719   4.110   5.811 -0.3125 -0.2464  0.7145
 8837TIP3    H126475   4.709   4.036   5.752 -0.5551  0.2229  0.1604
 8837TIP3    H226476   4.667   4.086   5.888 -1.5664 -0.0437 -0.0439
 8838TIP3   OH226477   7.052   0.205   4.459 -0.2324 -0.6246  0.2828
 8838TIP3    H126478   7.036   0.145   4.385 -3.9252  0.6081 -0.1627
 8838TIP3    H226479   7.090   0.149   4.527 -1.8375 -3.1341 -0.7030
 8839TIP3   OH226480   4.372   5.045   1.373 -0.3672 -0.3065 -0.6343
 8839TIP3    H126481   4.309   5.104   1.331  0.6810  1.1501 -0.2326
 8839TIP3    H226482   4.358   5.060   1.467  0.8005  0.3177 -0.5425
 8840TIP3   OH226483   6.418   3.101   2.010  0.1885  0.2177  0.1439
 8840TIP3    H126484   6.363   3.077   1.936 -0.3210 -1.2664  0.9631
 8840TIP3    H226485   6.501   3.128   1.971 -0.2187 -0.0996 -0.9761
 8841TIP3   OH226486   6.070   5.379   3.467 -0.2703 -0.0994 -0.2536
 8841TIP3    H126487   6.094   5.374   3.560 -1.5876  0.4720  0.1406
 8841TIP3    H226488   5.979   5.407   3.468 -0.5598 -0.9304 -1.7188
 8842TIP3   OH226489   5.317   4.888   1.773  0.2792  0.0970 -0.1453
 8842TIP3    H126490   5.295   4.813   1.718  1.9823 -1.4318  1.0955
 8842TIP3    H226491   5.340   4.849   1.858  4.0079  1.6693 -0.2478
 8843TIP3   OH226492   4.370   6.477   4.946 -0.0645  0.6702 -0.6145
 8843TIP3    H126493   4.333   6.448   5.030 -0.0597 -1.9784 -1.4198
 8843TIP3    H226494   4.381   6.571   4.956 -2.5598  0.8554  1.3824
 8844TIP3   OH226495   2.263   0.673   1.652 -0.3330  0.6801 -0.3604
 8844TIP3    H126496   2.200   0.736   1.618  1.5045  2.1442 -1.2592
 8844TIP3    H226497   2.250   0.595   1.599 -0.9975  1.1472 -0.9046
 8845TIP3   OH226498   3.295   2.929   4.254  0.2049  0.3918  0.0875
 8845TIP3    H126499   3.348   2.861   4.212  0.7862  0.7560  0.2174
 8845TIP3    H226500   3.263   2.888   4.334  0.7607  0.3455  0.2908
 8846TIP3   OH226501   1.708   1.990   1.839 -0.0934 -0.2424 -0.4192
 8846TIP3    H126502   1.704   1.952   1.927  0.7939 -0.7455 -0.5845
 8846TIP3    H226503   1.733   2.081   1.853  1.0464 -0.5742 -0.1897
 8847TIP3   OH226504   6.176   6.408   5.145  0.3145 -0.0631  0.2383
 8847TIP3    H126505   6.263   6.420   5.108  0.0591 -0.4176 -0.4998
 8847TIP3    H226506   6.187   6.423   5.239  1.1268  0.0848  0.1240
 8848TIP3   OH226507   5.623   4.402   3.210  0.7026  0.3584  0.1669
 8848TIP3    H126508   5.627   4.356   3.294  2.0242  1.4698  0.7525
 8848TIP3    H226509   5.657   4.339   3.146  0.5450 -0.1819  0.6083
 8849TIP3   OH226510   0.863   2.536   3.126  0.4492 -0.0463 -0.0464
 8849TIP3    H126511   0.940   2.508   3.176 -0.1340 -0.3451  0.7011
 8849TIP3    H226512   0.880   2.627   3.104 -0.5962  1.1039  3.3566
 8850TIP3   OH226513   4.923   0.421   0.081 -0.2141  0.2055  0.1085
 8850TIP3    H126514   4.984   0.488   0.052 -1.8538  0.3554 -3.4820
 8850TIP3    H226515   4.968   0.338   0.064 -0.7507  0.3233 -2.1559
 8851TIP3   OH226516   4.391   4.638   0.204 -0.0189  0.0089  0.1920
 8851TIP3    H126517   4.303   4.630   0.240 -1.0937  0.5893 -2.0702
 8851TIP3    H226518   4.381   4.612   0.112  2.3271 -0.5491  0.0376
 8852TIP3   OH226519   6.330   3.363   4.751  0.3328 -0.4498  0.3177
 8852TIP3    H126520   6.416   3.326   4.771  1.0947  1.4831  0.7809
 8852TIP3    H226521   6.302   3.404   4.832  0.5525  1.9027 -0.7229
 8853TIP3   OH226522   2.807   0.433   3.842 -0.6022 -0.4364  0.2341
 8853TIP3    H126523   2.744   0.455   3.774 -0.4651  1.2419  0.5960
 8853TIP3    H226524   2.755   0.423   3.921 -0.6716 -1.5603  0.0547
 8854TIP3   OH226525   6.538   0.749   3.353  0.5386 -0.2031 -0.2545
 8854TIP3    H126526   6.608   0.719   3.412  0.5827  0.0048 -0.2002
 8854TIP3    H226527   6.557   0.842   3.340 -0.9955  0.4242  1.5325
 8855TIP3   OH226528   2.541   1.224   0.972  0.0348 -0.1847 -0.7551
 8855TIP3    H126529   2.513   1.260   0.887  0.3597 -1.0395 -1.2346
 8855TIP3    H226530   2.636   1.229   0.970  0.0144  1.1039  0.1604
 8856TIP3   OH226531   1.963   5.690   1.608 -0.3582 -0.2114  0.3445
 8856TIP3    H126532   1.897   5.758   1.621 -0.9531 -0.8550  0.7534
 8856TIP3    H226533   2.047   5.737   1.611 -0.8074  0.8135 -1.4440
 8857TIP3   OH226534   6.937   0.634   5.310 -0.6380 -0.4672  0.2593
 8857TIP3    H126535   6.879   0.570   5.269 -1.2266  0.3996 -0.2992
 8857TIP3    H226536   6.924   0.714   5.259  0.5863 -0.0844  0.5248
 8858TIP3   OH226537   2.636   1.711   5.710  0.2098  0.2029  0.4533
 8858TIP3    H126538   2.611   1.690   5.620 -1.4571  0.5535  0.8114
 8858TIP3    H226539   2.635   1.626   5.755  0.0312  0.1676  0.3828
 8859TIP3   OH226540   3.554   4.254   0.574 -0.4117 -0.8543  0.5960
 8859TIP3    H126541   3.473   4.278   0.618  0.2523  0.0751  1.3283
 8859TIP3    H226542   3.620   4.251   0.643  0.1637 -1.7596  0.0372
 8860TIP3   OH226543   6.872   5.588   3.405  0.1072 -0.1260 -0.2543
 8860TIP3    H126544   6.825   5.617   3.483  2.1456  0.5405  0.8160
 8860TIP3    H226545   6.883   5.494   3.417  1.5638  0.1632  0.9924
 8861TIP3   OH226546   2.313   6.238   3.175  0.2052  0.4228  0.2179
 8861TIP3    H126547   2.291   6.296   3.249  1.0013 -0.3817  1.1213
 8861TIP3    H226548   2.406   6.256   3.159 -0.4386  2.1364 -2.0312
 8862TIP3   OH226549   6.088   2.102   3.141  0.7856  0.0425  0.4782
 8862TIP3    H126550   6.089   2.131   3.232  0.2737  0.5621  0.3274
 8862TIP3    H226551   6.146   2.163   3.095  1.3075 -0.4210  0.5068
 8863TIP3   OH226552   4.069   1.489   4.688 -0.0593 -0.0574  0.5544
 8863TIP3    H126553   4.157   1.519   4.711 -0.5448  0.8143  1.3044
 8863TIP3    H226554   4.033   1.559   4.634  0.7558 -1.7070 -2.3213
 8864TIP3   OH226555   2.842   5.142   1.831 -0.4053  0.3255 -0.4912
 8864TIP3    H126556   2.922   5.089   1.820 -0.8400 -0.6543  0.9042
 8864TIP3    H226557   2.871   5.219   1.879 -0.4688 -0.5654  1.0284
 8865TIP3   OH226558   6.818   4.594   5.336  0.5002  0.4656  0.1930
 8865TIP3    H126559   6.754   4.604   5.265  1.3734 -1.6471 -0.9842
 8865TIP3    H226560   6.774   4.629   5.413 -1.5328  0.3546 -0.8523
 8866TIP3   OH226561   2.444   2.547   0.625 -0.3824  0.3467 -0.3707
 8866TIP3    H126562   2.504   2.610   0.664 -0.4737  0.4144 -0.3379
 8866TIP3    H226563   2.419   2.587   0.541 -0.6638  0.4916 -0.2212
 8867TIP3   OH226564   2.150   2.587   3.843  0.1684  0.2557  0.2435
 8867TIP3    H126565   2.127   2.506   3.798  0.2099  0.0322  0.6206
 8867TIP3    H226566   2.160   2.651   3.773 -0.2899  0.0393 -0.0287
 8868TIP3   OH226567   6.379   5.409   1.417  0.0559 -0.1627  0.2794
 8868TIP3    H126568   6.445   5.408   1.348 -1.4272 -0.6708 -1.1841
 8868TIP3    H226569   6.415   5.353   1.486  0.9295 -0.8127 -0.6842
 8869TIP3   OH226570   0.960   5.253   0.462 -0.6279 -0.0857 -0.3726
 8869TIP3    H126571   0.946   5.346   0.476 -1.0870 -0.1502 -0.4082
 8869TIP3    H226572   0.875   5.212   0.477 -0.4116 -0.5105 -0.2680
 8870TIP3   OH226573   4.622   3.883   0.484 -0.0317 -0.4669 -0.0961
 8870TIP3    H126574   4.662   3.924   0.408  1.1972 -1.1634  0.1411
 8870TIP3    H226575   4.692   3.831   0.523 -0.8027 -0.6269  1.1544
 8871TIP3   OH226576   6.850   1.072   1.638  0.4769  0.5250  0.9689
 8871TIP3    H126577   6.899   1.147   1.671 -0.0795  0.9035  0.9437
 8871TIP3    H226578   6.917   1.007   1.617  1.0822  1.5357 -0.3657
 8872TIP3   OH226579   2.492   6.694   5.756 -0.1246  0.1128 -0.3643
 8872TIP3    H126580   2.401   6.724   5.763  0.1781  0.9003  0.3852
 8872TIP3    H226581   2.533   6.756   5.696 -0.3157 -0.8611 -1.5464
 8873TIP3   OH226582   4.815   1.950   4.620 -0.7260 -0.0210 -0.4653
 8873TIP3    H126583   4.818   1.998   4.703  0.3313 -0.2884 -0.3331
 8873TIP3    H226584   4.868   2.002   4.560  1.5759 -1.5834  0.0290
 8874TIP3   OH226585   6.310   2.086   5.064  0.4293  0.1428 -0.1411
 8874TIP3    H126586   6.301   2.046   5.150  0.3735 -2.5002 -1.2832
 8874TIP3    H226587   6.381   2.150   5.075 -1.0466  1.5257  2.3390
 8875TIP3   OH226588   4.558   1.592   3.449 -0.0938  0.3557 -0.2293
 8875TIP3    H126589   4.476   1.610   3.403 -0.0768  1.5551  0.1748
 8875TIP3    H226590   4.612   1.547   3.384 -1.1537 -0.7033 -0.4171
 8876TIP3   OH226591   0.028   5.557   4.190  0.0462  1.0769 -0.2032
 8876TIP3    H126592   0.040   5.540   4.284  0.5190  1.7642 -0.1256
 8876TIP3    H226593   0.008   5.651   4.186 -1.0630  0.8287 -0.7100
 8877TIP3   OH226594   5.221   3.373   2.759 -0.7014 -0.3650 -0.0443
 8877TIP3    H126595   5.150   3.370   2.824  0.5501  0.3792  1.4001
 8877TIP3    H226596   5.176   3.366   2.675 -2.3770 -1.3899  0.8754
 8878TIP3   OH226597   2.982   3.117   1.835  0.4037  0.1411  0.6265
 8878TIP3    H126598   3.056   3.065   1.868 -0.2529 -0.4405  1.2371
 8878TIP3    H226599   2.938   3.059   1.773 -1.1306 -0.6066  2.3255
 8879TIP3   OH226600   1.697   2.574   1.171  0.1975  0.3211 -0.1061
 8879TIP3    H126601   1.680   2.616   1.087  0.9515 -0.2956 -0.5917
 8879TIP3    H226602   1.657   2.487   1.163 -2.1293  1.1930  1.2185
 8880TIP3   OH226603   5.674   4.358   5.170 -0.3746 -0.3295 -0.7352
 8880TIP3    H126604   5.632   4.293   5.227  0.7959 -0.2078  0.2938
 8880TIP3    H226605   5.604   4.386   5.111 -1.6146 -0.5007  0.5984
 8881TIP3   OH226606   4.888   2.113   0.107 -0.0142  0.0821 -0.0492
 8881TIP3    H126607   4.829   2.173   0.062 -0.4200 -0.1764  0.1292
 8881TIP3    H226608   4.835   2.076   0.178 -1.0535 -3.3534 -2.3413
 8882TIP3   OH226609   1.675   2.257   5.003 -0.1416  0.0445 -0.3978
 8882TIP3    H126610   1.660   2.218   5.089 -1.0914  0.5932 -0.2965
 8882TIP3    H226611   1.643   2.347   5.012  0.7368  0.4320 -1.0162
 8883TIP3   OH226612   2.620   0.354   1.397 -0.1366 -0.0250  0.2353
 8883TIP3    H126613   2.666   0.337   1.314 -0.6902 -1.3686  0.1700
 8883TIP3    H226614   2.654   0.287   1.457  0.2898  0.9652  1.1173
 8884TIP3   OH226615   2.307   3.153   2.529 -0.4275  0.2922 -0.3937
 8884TIP3    H126616   2.350   3.195   2.603 -0.0106 -1.4921  0.4515
 8884TIP3    H226617   2.376   3.104   2.485 -0.9770  0.0258 -0.9867
 8885TIP3   OH226618   4.332   1.586   4.526  0.1724 -0.7666  0.3176
 8885TIP3    H126619   4.319   1.672   4.568 -0.6744 -0.9511  0.4509
 8885TIP3    H226620   4.415   1.555   4.562  0.6556  0.1387  0.0198
 8886TIP3   OH226621   6.702   0.190   1.130 -0.2135 -0.1360 -0.1121
 8886TIP3    H126622   6.707   0.153   1.218 -0.5867 -0.3179 -0.1673
 8886TIP3    H226623   6.791   0.180   1.095 -0.2495 -0.7625 -0.0379
 8887TIP3   OH226624   6.102   3.566   1.688  0.2312  0.8763 -0.0076
 8887TIP3    H126625   6.168   3.568   1.758  1.6422 -1.1803 -1.1643
 8887TIP3    H226626   6.037   3.502   1.719  0.6921  0.2004 -0.4210
 8888TIP3   OH226627   2.504   1.957   3.271 -0.2962 -0.1098  0.2010
 8888TIP3    H126628   2.485   2.009   3.349 -0.7715 -1.0782  0.7421
 8888TIP3    H226629   2.451   1.878   3.281  0.1790 -0.5676 -0.7617
 8889TIP3   OH226630   1.534   4.523   0.432 -0.6247 -0.5910 -0.1933
 8889TIP3    H126631   1.467   4.571   0.383  1.1527 -0.4232 -2.6612
 8889TIP3    H226632   1.571   4.462   0.368  2.8808  0.6546  0.4450
 8890TIP3   OH226633   0.177   1.503   4.879 -0.1911  0.2540 -0.2453
 8890TIP3    H126634   0.155   1.509   4.972  0.5239 -0.8714  0.0092
 8890TIP3    H226635   0.254   1.560   4.869  0.1582 -0.1778 -0.0061
 8891TIP3   OH226636   5.711   5.161  -0.027 -0.3815  0.8648  0.1054
 8891TIP3    H126637   5.753   5.247  -0.025 -0.2270  0.8170 -0.5797
 8891TIP3    H226638   5.691   5.141   0.064  1.8952  0.4922  0.5689
 8892TIP3   OH226639   2.569   6.199   5.464 -0.2313 -0.7114  0.1977
 8892TIP3    H126640   2.553   6.188   5.370  2.0233 -1.3698 -0.1698
 8892TIP3    H226641   2.631   6.271   5.469 -1.2839  0.1635  1.3298
 8893TIP3   OH226642   0.181   6.498   4.585 -0.3675 -0.4514 -0.0437
 8893TIP3    H126643   0.166   6.545   4.667  0.7203  1.3999 -0.8490
 8893TIP3    H226644   0.275   6.483   4.581 -0.4266 -0.6893 -0.8750
 8894TIP3   OH226645   0.868   3.682   1.855 -0.3462 -0.7002 -0.0797
 8894TIP3    H126646   0.839   3.608   1.908  1.4425 -2.3016 -1.1894
 8894TIP3    H226647   0.790   3.711   1.808 -1.2127 -1.4630  0.8555
 8895TIP3   OH226648   1.682   5.363   3.855 -0.3502 -0.3234  0.1841
 8895TIP3    H126649   1.759   5.391   3.904  0.1406 -0.6062 -0.4189
 8895TIP3    H226650   1.708   5.370   3.763 -1.2021  0.0299 -0.0402
 8896TIP3   OH226651   2.630   6.323   1.997 -0.2208 -0.1115 -0.0243
 8896TIP3    H126652   2.704   6.344   2.054  1.3581  0.4025 -2.0944
 8896TIP3    H226653   2.553   6.327   2.053  1.1725  0.8919  1.9124
 8897TIP3   OH226654   0.557   3.533   5.700  0.1124  0.2453 -0.3360
 8897TIP3    H126655   0.630   3.537   5.639  0.5722 -0.7831  0.1136
 8897TIP3    H226656   0.503   3.460   5.668 -0.0569  0.2042  0.0344
 8898TIP3   OH226657   1.541   3.229   1.379  0.1200 -0.0753  0.3889
 8898TIP3    H126658   1.614   3.169   1.368  1.1456  0.8506  1.7472
 8898TIP3    H226659   1.467   3.186   1.337  1.6322 -0.6266 -1.8745
 8899TIP3   OH226660   0.559   2.983   5.127 -0.1883  0.2568 -0.6180
 8899TIP3    H126661   0.616   2.906   5.125 -1.7628 -1.1564  2.5975
 8899TIP3    H226662   0.502   2.972   5.051  1.4688 -0.1332 -1.8753
 8900TIP3   OH226663   2.354   1.198   0.151  0.4538 -0.6447 -0.2404
 8900TIP3    H126664   2.348   1.103   0.145 -0.2592 -0.6011 -0.2928
 8900TIP3    H226665   2.369   1.215   0.244  0.0711 -0.7896 -0.1484
 8901TIP3   OH226666   3.880   4.235   5.699 -0.2016  0.2359  0.2658
 8901TIP3    H126667   3.925   4.184   5.766 -1.1294 -1.1419 -0.1169
 8901TIP3    H226668   3.822   4.294   5.749  1.8490  1.9763  0.7583
 8902TIP3   OH226669   1.596   0.599   5.040  0.4030  0.3307  0.1710
 8902TIP3    H126670   1.549   0.573   4.961 -1.3435  1.3094  0.8232
 8902TIP3    H226671   1.608   0.517   5.089  0.3620 -0.0903 -0.5114
 8903TIP3   OH226672   3.775   6.727   2.657 -0.3675 -0.0393 -0.2374
 8903TIP3    H126673   3.857   6.697   2.696 -1.1737 -2.0597  0.0222
 8903TIP3    H226674   3.777   6.822   2.666  0.4196 -0.2673  2.8712
 8904TIP3   OH226675   4.185   6.766   2.065 -0.1607  0.3433  0.4545
 8904TIP3    H126676   4.263   6.718   2.036 -0.1127  0.4431  0.4197
 8904TIP3    H226677   4.145   6.709   2.131 -0.5375 -0.1098 -0.1579
 8905TIP3   OH226678   4.772   5.182   4.954 -0.2254 -0.8082  0.3856
 8905TIP3    H126679   4.764   5.184   5.050 -0.2148 -0.0233  0.3715
 8905TIP3    H226680   4.730   5.262   4.924  1.7021  0.0789 -0.1153
 8906TIP3   OH226681   6.495   2.080   3.160 -0.1753 -0.1115  0.2709
 8906TIP3    H126682   6.560   2.150   3.151  1.5185 -1.6243  0.1163
 8906TIP3    H226683   6.523   2.032   3.238 -0.8660 -1.0421 -0.0365
 8907TIP3   OH226684   4.802   1.679   5.695  0.4260 -0.6683  0.0024
 8907TIP3    H126685   4.800   1.757   5.750 -1.5945 -1.1502  0.6843
 8907TIP3    H226686   4.801   1.713   5.606  1.6835  0.0856  0.2467
 8908TIP3   OH226687   0.961   3.130   1.830  0.2683  0.1160  0.0931
 8908TIP3    H126688   1.039   3.182   1.812  1.1128 -1.0842  0.1680
 8908TIP3    H226689   0.991   3.059   1.887 -1.1244  0.3094  1.1321
 8909TIP3   OH226690   2.482   4.901   3.898 -0.0303 -0.3919  0.5339
 8909TIP3    H126691   2.399   4.937   3.866  0.9839  0.3660 -1.3828
 8909TIP3    H226692   2.542   4.976   3.899  1.5353 -1.5348 -1.3552
 8910TIP3   OH226693   2.421   0.926   2.958  0.2503  0.0940  0.3445
 8910TIP3    H126694   2.345   0.885   2.917 -0.0933  1.7495 -0.7449
 8910TIP3    H226695   2.480   0.947   2.886  2.2629 -2.0014  1.2297
 8911TIP3   OH226696   6.771   0.284   2.487 -0.3105  0.0557  0.0657
 8911TIP3    H126697   6.685   0.246   2.473  0.1009 -0.3484 -1.6017
 8911TIP3    H226698   6.829   0.209   2.499 -0.0125  0.2865  0.0754
 8912TIP3   OH226699   0.073   2.819   4.713  0.0250 -0.2549  0.3607
 8912TIP3    H126700  -0.013   2.794   4.746 -1.8344  1.4238 -2.6507
 8912TIP3    H226701   0.087   2.907   4.747  0.8273 -0.6986  1.2214
 8913TIP3   OH226702   7.160   5.281   3.479  0.5761 -0.2094 -0.1997
 8913TIP3    H126703   7.226   5.262   3.545 -0.6116  0.3127  1.1933
 8913TIP3    H226704   7.181   5.369   3.448  0.3338  0.1076  0.5164
 8914TIP3   OH226705   3.177   4.911   0.392  0.2115  0.5605  0.1777
 8914TIP3    H126706   3.167   4.827   0.347 -2.9079  0.5251  0.7292
 8914TIP3    H226707   3.207   4.971   0.323 -1.5298 -0.1427 -1.2694
 8915TIP3   OH226708   6.963   2.283   2.638 -0.5214 -0.2610  0.1648
 8915TIP3    H126709   6.967   2.323   2.551  1.5347 -0.4157  0.1447
 8915TIP3    H226710   6.874   2.247   2.643 -0.5163 -0.8044 -2.1232
 8916TIP3   OH226711   4.872   6.338   1.627  0.0079  0.3430 -0.0171
 8916TIP3    H126712   4.948   6.390   1.653  0.3412 -0.3872  0.4951
 8916TIP3    H226713   4.797   6.397   1.638  0.3262  0.5540  1.0421
 8917TIP3   OH226714   3.689   0.758   5.747  0.1911  0.3462 -0.1981
 8917TIP3    H126715   3.771   0.808   5.749 -0.2763  1.1064  1.0933
 8917TIP3    H226716   3.639   0.791   5.822 -0.9579 -0.6880 -0.4820
 8918TIP3   OH226717   5.255   1.434   1.864 -0.6803  0.2553 -0.3994
 8918TIP3    H126718   5.186   1.383   1.906 -1.4188  0.3356 -1.4699
 8918TIP3    H226719   5.334   1.414   1.915 -1.0354 -1.5810 -0.4932
 8919TIP3   OH226720   1.522   3.524   0.178  0.3544 -0.6314 -0.3301
 8919TIP3    H126721   1.438   3.485   0.203  0.4920 -0.2926  0.7586
 8919TIP3    H226722   1.499   3.596   0.120 -0.0371 -1.1279 -0.7945
 8920TIP3   OH226723   1.826   0.811   5.801 -0.5142  0.1067  0.2468
 8920TIP3    H126724   1.878   0.880   5.843 -1.0320  0.0049  1.0754
 8920TIP3    H226725   1.850   0.816   5.708 -0.9134  1.7304  0.1940
 8921TIP3   OH226726   3.067   6.765   0.833 -0.4710 -0.0725 -0.3569
 8921TIP3    H126727   3.112   6.847   0.813  0.4260 -0.2879  0.6948
 8921TIP3    H226728   3.000   6.790   0.897  0.1796 -0.2420  0.3999
 8922TIP3   OH226729   4.103   5.372   5.662  0.6869  0.6389 -0.4242
 8922TIP3    H126730   4.035   5.430   5.695 -0.0295  0.8521 -2.1758
 8922TIP3    H226731   4.060   5.287   5.652  1.1220  0.3640 -0.0063
 8923TIP3   OH226732   5.245   4.708   4.803  0.3770 -0.2728 -0.1031
 8923TIP3    H126733   5.263   4.724   4.896  0.7476  0.1556 -0.2421
 8923TIP3    H226734   5.194   4.627   4.802 -0.4053  0.1946  0.5401
 8924TIP3   OH226735   1.964   5.717   5.395  0.2220  0.0103  0.8956
 8924TIP3    H126736   1.870   5.705   5.400  0.1094 -0.5455 -1.5772
 8924TIP3    H226737   1.976   5.804   5.357  0.7512  0.2937  1.6611
 8925TIP3   OH226738   5.219   2.050   2.153  0.0326  0.1340  0.7298
 8925TIP3    H126739   5.203   1.961   2.121 -0.9099  0.4317  0.3397
 8925TIP3    H226740   5.159   2.059   2.227  1.7563 -0.3329  2.2479
 8926TIP3   OH226741   6.163   2.845   3.169  0.2117  0.0442 -0.3677
 8926TIP3    H126742   6.102   2.864   3.241  1.7267 -1.2901  1.3749
 8926TIP3    H226743   6.147   2.752   3.149 -0.3833  0.4668 -2.0017
 8927TIP3   OH226744   5.349   0.850   5.821  0.3597  0.6522  0.0743
 8927TIP3    H126745   5.284   0.919   5.829  0.6530  0.9038  0.3555
 8927TIP3    H226746   5.430   0.897   5.800  0.3464  0.3014 -0.7796
 8928TIP3   OH226747   5.991   6.167   4.555 -0.2004  0.1720 -0.5080
 8928TIP3    H126748   5.929   6.218   4.608  0.6479  0.2670  0.3975
 8928TIP3    H226749   6.036   6.111   4.617  1.5617  1.0434 -0.9400
 8929TIP3   OH226750   6.668   0.754   1.758 -0.4746  0.1850 -0.5052
 8929TIP3    H126751   6.591   0.809   1.742  0.3540  2.0257  1.2558
 8929TIP3    H226752   6.728   0.812   1.805  2.0100 -1.1767 -1.8134
 8930TIP3   OH226753   6.720   4.373   1.684  0.4953 -0.1760 -0.2958
 8930TIP3    H126754   6.785   4.398   1.749  0.4516 -3.1953  1.0641
 8930TIP3    H226755   6.771   4.354   1.605  0.9919 -0.1895  0.0283
 8931TIP3   OH226756   4.979   4.669   3.979  0.3644 -0.8212 -0.5235
 8931TIP3    H126757   5.021   4.630   3.903  0.8384 -0.1686 -0.6023
 8931TIP3    H226758   4.979   4.598   4.045  0.8196 -1.0869 -0.8039
 8932TIP3   OH226759   7.026   5.079   5.329 -0.2881 -0.5638 -0.0481
 8932TIP3    H126760   7.043   4.985   5.329  0.7801 -0.4027 -0.9816
 8932TIP3    H226761   7.107   5.117   5.363  0.1551  0.0989 -1.7146
 8933TIP3   OH226762   1.512   1.385   3.163 -0.8309 -0.2988 -0.1870
 8933TIP3    H126763   1.481   1.425   3.244  1.2212  1.7247 -0.3200
 8933TIP3    H226764   1.454   1.420   3.095 -0.0423  1.2636 -0.0910
 8934TIP3   OH226765   5.903   5.718   1.785 -0.3077 -0.2957  0.0104
 8934TIP3    H126766   5.823   5.703   1.735  0.0377 -0.7589 -0.4109
 8934TIP3    H226767   5.925   5.810   1.769  0.4544 -0.7372 -1.6778
 8935TIP3   OH226768   2.964   1.239   5.438 -0.2493 -0.2640  0.2877
 8935TIP3    H126769   3.035   1.215   5.379 -0.5127  1.2053 -0.6636
 8935TIP3    H226770   2.975   1.180   5.513  0.3205 -1.9342 -1.0240
 8936TIP3   OH226771   0.941   1.765   2.608  0.2657  0.0531 -1.2824
 8936TIP3    H126772   0.865   1.818   2.585 -0.1099 -0.4766 -1.2669
 8936TIP3    H226773   1.016   1.820   2.584 -0.0627  1.5314  0.7267
 8937TIP3   OH226774   0.605   1.694   2.285 -0.4216 -0.1709  0.1076
 8937TIP3    H126775   0.648   1.769   2.244 -0.9467 -0.2414 -0.5807
 8937TIP3    H226776   0.678   1.640   2.317 -0.0090  0.0866 -0.3775
 8938TIP3   OH226777   2.365   3.155   0.197  0.0072 -0.3713  0.2901
 8938TIP3    H126778   2.427   3.091   0.232  0.6394  0.1934  0.1989
 8938TIP3    H226779   2.412   3.238   0.197 -0.5419 -0.0470 -0.3371
 8939TIP3   OH226780   1.296   3.400   0.213 -0.0739  0.6356  0.1394
 8939TIP3    H126781   1.225   3.445   0.258 -1.7533  0.7231 -2.3730
 8939TIP3    H226782   1.253   3.353   0.142  2.2508 -0.4998 -0.6176
 8940TIP3   OH226783   4.646   5.806   5.015 -0.4201  0.3577  0.1168
 8940TIP3    H126784   4.571   5.779   5.068 -0.6787 -0.4099 -0.6228
 8940TIP3    H226785   4.618   5.792   4.925 -0.0158  1.7350 -0.2374
 8941TIP3   OH226786   3.226   2.539   0.583 -0.1263 -0.2525 -0.7087
 8941TIP3    H126787   3.195   2.452   0.606 -0.1253  0.0884  0.6964
 8941TIP3    H226788   3.297   2.557   0.645  0.3416  0.4747 -1.4302
 8942TIP3   OH226789   2.629   6.209   5.789 -0.6785 -0.6122  0.1724
 8942TIP3    H126790   2.693   6.226   5.720 -0.5646 -3.4818 -0.5554
 8942TIP3    H226791   2.680   6.169   5.860 -1.1979  0.0176  0.9250
 8943TIP3   OH226792   0.032   2.956   4.012 -0.5800 -0.0347 -0.0040
 8943TIP3    H126793   0.113   3.004   4.030 -0.1463 -0.7404 -0.0312
 8943TIP3    H226794  -0.036   3.024   4.007 -0.0055  0.5559  0.0978
 8944TIP3   OH226795   1.601   1.709   2.251 -0.1899 -0.3746  0.0297
 8944TIP3    H126796   1.646   1.752   2.323 -2.0395  0.8313  0.5276
 8944TIP3    H226797   1.606   1.616   2.272  1.8622 -0.2837  0.1307
 8945TIP3   OH226798   0.495   1.062   3.691  0.3055  0.3197  0.4633
 8945TIP3    H126799   0.488   1.053   3.786  0.5105  0.9415  0.5410
 8945TIP3    H226800   0.457   1.147   3.672  0.1552  0.1437 -0.0271
 8946TIP3   OH226801   1.061   0.699   1.864  0.6121 -0.5293  0.2472
 8946TIP3    H126802   1.039   0.612   1.830 -1.2146 -0.0040 -0.0051
 8946TIP3    H226803   1.056   0.756   1.788  0.1139  0.0700  0.7222
 8947TIP3   OH226804   2.873   1.217   3.518 -0.0938  0.0353 -0.3617
 8947TIP3    H126805   2.818   1.143   3.540 -0.3116  0.1819 -0.4091
 8947TIP3    H226806   2.894   1.205   3.425  1.5894 -1.0808  0.1326
 8948TIP3   OH226807   5.455   4.722   2.298 -0.6244 -0.0016 -0.5572
 8948TIP3    H126808   5.488   4.689   2.214  0.5449  0.0062 -0.1176
 8948TIP3    H226809   5.391   4.656   2.326 -0.9839 -0.0336 -1.4200
 8949TIP3   OH226810   7.146   2.056   3.632  0.1973 -0.2072 -0.0455
 8949TIP3    H126811   7.081   2.057   3.561 -0.5566  0.0338  0.6419
 8949TIP3    H226812   7.099   2.086   3.709  0.9953 -0.5521  0.5926
 8950TIP3   OH226813   4.024   0.530   4.090 -0.3951 -0.6131  0.3436
 8950TIP3    H126814   4.049   0.517   3.998 -1.3116 -0.7953  0.1178
 8950TIP3    H226815   4.101   0.500   4.139  0.5740  0.5816 -0.3721
 8951TIP3   OH226816   6.501   0.333   5.681  0.3971  0.4418 -0.0232
 8951TIP3    H126817   6.559   0.261   5.657 -1.0843 -0.1345 -2.0881
 8951TIP3    H226818   6.508   0.395   5.609 -2.0158  0.0379 -0.6959
 8952TIP3   OH226819   2.324   0.640   5.433 -0.0800  0.0363  0.4476
 8952TIP3    H126820   2.314   0.545   5.427 -0.3808  0.1554 -1.5986
 8952TIP3    H226821   2.360   0.666   5.348  2.7428  1.4674  1.9176
 8953TIP3   OH226822   3.016   2.152   1.031  0.3185 -0.2193  0.0608
 8953TIP3    H126823   3.063   2.232   1.057 -1.4244  0.8037  0.2115
 8953TIP3    H226824   3.053   2.129   0.946  0.7636  0.8211 -0.0407
 8954TIP3   OH226825   6.782   5.099   3.065  0.0195  1.0187 -0.2712
 8954TIP3    H126826   6.874   5.091   3.040  0.0139  0.6301 -0.1838
 8954TIP3    H226827   6.776   5.052   3.148 -0.5955 -0.4517 -1.1051
 8955TIP3   OH226828   6.030   4.751   1.832 -0.3843  0.4729 -0.2246
 8955TIP3    H126829   6.089   4.708   1.770  0.3311  2.8307 -1.3012
 8955TIP3    H226830   6.030   4.694   1.909  0.5335 -1.3625 -1.5135
 8956TIP3   OH226831   3.003   3.258   0.409  0.0189  0.1310 -0.0956
 8956TIP3    H126832   2.947   3.335   0.420 -1.2053 -0.4147 -2.1023
 8956TIP3    H226833   2.966   3.192   0.468  0.5315  0.7535  0.9590
 8957TIP3   OH226834   6.722   4.730   5.816 -0.2875 -0.3511 -0.2173
 8957TIP3    H126835   6.710   4.825   5.817  1.5400 -0.0792 -0.2608
 8957TIP3    H226836   6.779   4.714   5.741  1.3059 -1.1927  1.1007
 8958TIP3   OH226837   4.491   5.871   4.511  0.2698 -0.4022 -0.2365
 8958TIP3    H126838   4.476   5.797   4.451  0.7364 -0.1202 -0.7120
 8958TIP3    H226839   4.409   5.878   4.560 -0.0984 -0.6973 -0.7854
 8959TIP3   OH226840   3.718   1.322   5.286  0.1139  0.4446  0.2983
 8959TIP3    H126841   3.681   1.242   5.248 -2.6816  2.2456 -1.1392
 8959TIP3    H226842   3.756   1.369   5.212 -0.1975  1.3752  0.7076
 8960TIP3   OH226843   6.247   0.214   5.071  0.0845 -0.0276 -0.1799
 8960TIP3    H126844   6.261   0.150   5.140 -1.0805  0.8862  0.9611
 8960TIP3    H226845   6.293   0.293   5.100 -0.8926  0.5492 -0.1239
 8961TIP3   OH226846   0.613   3.177   3.896 -0.5181 -0.0291 -0.5026
 8961TIP3    H126847   0.574   3.202   3.812 -0.8636  1.3589  0.0523
 8961TIP3    H226848   0.678   3.245   3.914  2.2987 -2.2910 -1.4109
 8962TIP3   OH226849   4.318   4.799   4.332  0.2113 -0.2689  0.1684
 8962TIP3    H126850   4.293   4.884   4.295  0.9720  0.5458  1.4493
 8962TIP3    H226851   4.245   4.775   4.389  0.6040  0.1905  0.8637
 8963TIP3   OH226852   1.105   6.698   2.941 -0.5372  0.3744  0.1730
 8963TIP3    H126853   1.121   6.788   2.967  0.3756  0.3254 -0.1795
 8963TIP3    H226854   1.170   6.681   2.872  0.1353 -0.9312  1.0822
 8964TIP3   OH226855   5.274   2.241   3.301 -0.0342 -0.1088  0.1640
 8964TIP3    H126856   5.360   2.284   3.307  0.6073 -1.2317 -0.7184
 8964TIP3    H226857   5.284   2.177   3.231 -1.2297 -1.1025  0.8645
 8965TIP3   OH226858   6.426   1.617   4.631  0.2282  0.1592 -0.3697
 8965TIP3    H126859   6.377   1.646   4.554 -1.3596 -2.7018 -0.5662
 8965TIP3    H226860   6.413   1.522   4.634  0.8473  0.0545  3.0038
 8966TIP3   OH226861   1.566   0.932   2.017 -0.1012  0.3649 -0.3039
 8966TIP3    H126862   1.558   0.989   2.094  2.5175 -0.7997  0.9845
 8966TIP3    H226863   1.557   0.844   2.052  1.1716 -0.1978 -1.3120
 8967TIP3   OH226864   0.958   0.056   3.170  0.2484 -0.4635  0.5688
 8967TIP3    H126865   1.000   0.133   3.207 -1.9266  1.6009 -0.9545
 8967TIP3    H226866   1.021  -0.015   3.185  3.5275  2.0120 -0.1078
 8968TIP3   OH226867   6.910   4.480   0.592 -0.2270  0.7204  1.0109
 8968TIP3    H126868   6.989   4.507   0.544  0.5800 -0.2964  1.7400
 8968TIP3    H226869   6.838   4.497   0.530  0.8585 -1.6967 -1.1057
 8969TIP3   OH226870   0.640   3.533   3.859 -0.1336 -0.0559  0.4576
 8969TIP3    H126871   0.709   3.549   3.923  0.6275  1.2496 -0.6553
 8969TIP3    H226872   0.578   3.605   3.873 -0.2777 -0.1182  0.1383
 8970TIP3   OH226873   5.248   1.120   4.826  0.4296  0.1480 -0.0889
 8970TIP3    H126874   5.154   1.106   4.820  0.3991  0.1269  0.3959
 8970TIP3    H226875   5.276   1.066   4.900  0.8678 -0.0759 -0.4124
 8971TIP3   OH226876   4.915   2.410   2.188  0.0097  0.0111  0.2965
 8971TIP3    H126877   4.944   2.396   2.098  1.6990  1.4923  0.5637
 8971TIP3    H226878   4.880   2.499   2.188 -0.7045 -0.2578  0.9559
 8972TIP3   OH226879   3.526   5.568   4.064 -0.1932  0.0720 -0.5062
 8972TIP3    H126880   3.568   5.630   4.124  0.8411 -0.1065 -1.0291
 8972TIP3    H226881   3.464   5.622   4.013 -1.3336  0.1667  0.9118
 8973TIP3   OH226882   6.595   5.147   4.612  0.7909  0.1804 -0.3671
 8973TIP3    H126883   6.643   5.073   4.574  0.1554 -0.3386 -0.1667
 8973TIP3    H226884   6.646   5.171   4.689  0.9881 -0.0555 -0.4206
 8974TIP3   OH226885   3.873   2.910   3.728  0.2909  0.0662 -0.3132
 8974TIP3    H126886   3.955   2.885   3.687  0.5300 -0.9921  0.7343
 8974TIP3    H226887   3.868   2.856   3.808 -1.4242  0.0786 -0.3553
 8975TIP3   OH226888   1.405   4.429   4.978  0.0136 -0.0398  0.1151
 8975TIP3    H126889   1.342   4.450   4.909 -1.1494 -1.3500  0.7033
 8975TIP3    H226890   1.386   4.337   5.000  1.5152 -0.1789  0.9809
 8976TIP3   OH226891   2.261   4.667   1.199 -0.1053 -0.5059  0.3626
 8976TIP3    H126892   2.226   4.731   1.137  0.2968  1.0405  1.6649
 8976TIP3    H226893   2.334   4.627   1.152 -0.9002 -0.6538 -0.7974
 8977TIP3   OH226894   1.470   1.437   4.059  0.2141 -0.8332  0.1665
 8977TIP3    H126895   1.408   1.373   4.094  1.2202 -2.5814 -1.0690
 8977TIP3    H226896   1.519   1.468   4.135 -0.2505 -1.5841  0.7898
 8978TIP3   OH226897   2.453   2.005   0.328 -0.1615  0.2501 -0.1386
 8978TIP3    H126898   2.500   2.024   0.247 -0.9736  0.5922 -0.5392
 8978TIP3    H226899   2.519   1.967   0.386  1.0774  2.3800 -0.0273
 8979TIP3   OH226900   6.492   1.979   1.947  0.0875 -0.0567  0.2228
 8979TIP3    H126901   6.445   2.062   1.939  1.9787  1.2371  1.6622
 8979TIP3    H226902   6.436   1.916   1.903 -0.9866  2.1295 -1.7715
 8980TIP3   OH226903   4.318   0.189   1.532 -0.3407  0.2437  0.0786
 8980TIP3    H126904   4.328   0.098   1.560  0.6526  0.6482  1.1399
 8980TIP3    H226905   4.388   0.235   1.578 -0.7364  1.5199 -0.5677
 8981TIP3   OH226906   6.387   1.502   3.685  0.1349  0.3855  0.0200
 8981TIP3    H126907   6.341   1.586   3.675 -0.5785 -0.0548 -0.4298
 8981TIP3    H226908   6.346   1.444   3.621  1.1566 -0.0914 -0.2203
 8982TIP3   OH226909   3.255   6.404   1.213  0.3899 -0.0839  0.1435
 8982TIP3    H126910   3.187   6.441   1.156 -0.1517  1.1106  1.4938
 8982TIP3    H226911   3.337   6.427   1.169  0.0067  1.2709  0.0776
 8983TIP3   OH226912   6.102   6.751   4.205  0.0070 -0.0480  0.3447
 8983TIP3    H126913   6.042   6.790   4.142  0.6314 -0.1684 -0.3309
 8983TIP3    H226914   6.188   6.786   4.182  0.0485  1.1462  2.1079
 8984TIP3   OH226915   3.438   5.710   5.455  0.3289 -0.2301 -0.0724
 8984TIP3    H126916   3.437   5.650   5.380 -1.5613  0.0151 -0.2950
 8984TIP3    H226917   3.387   5.786   5.425  2.2527  1.3400  0.3614
 8985TIP3   OH226918   6.918   4.707   0.733 -0.5337  0.6512  0.0752
 8985TIP3    H126919   6.924   4.626   0.681 -0.5154 -0.5329  1.8558
 8985TIP3    H226920   7.009   4.728   0.754 -0.6659 -0.4168  1.8707
 8986TIP3   OH226921   5.466   1.120   4.662  0.0913 -0.0402  0.1203
 8986TIP3    H126922   5.533   1.124   4.731 -1.2374 -1.0848  1.5509
 8986TIP3    H226923   5.383   1.119   4.710 -0.9384  0.5939 -1.5758
 8987TIP3   OH226924   3.499   2.499   5.238  0.3986 -0.5714 -0.4189
 8987TIP3    H126925   3.551   2.521   5.161 -1.1296 -0.5172 -1.4621
 8987TIP3    H226926   3.409   2.518   5.214 -0.0573  0.2311  1.6741
 8988TIP3   OH226927   5.224   5.350   5.430 -0.0935  0.1096 -0.0686
 8988TIP3    H126928   5.165   5.413   5.470 -2.6172 -2.0692 -0.1021
 8988TIP3    H226929   5.193   5.265   5.461  1.6288 -1.3069 -1.9483
 8989TIP3   OH226930   1.513   6.308   2.238  0.1019  0.2548  0.0552
 8989TIP3    H126931   1.419   6.293   2.247  0.2171  0.0122  0.9093
 8989TIP3    H226932   1.523   6.403   2.243 -0.2106  0.3858 -1.2912
 8990TIP3   OH226933   1.833   3.295   1.725 -0.2009 -0.1112 -0.0451
 8990TIP3    H126934   1.768   3.364   1.716 -0.4104 -0.2977  0.0251
 8990TIP3    H226935   1.804   3.227   1.665  0.8034  0.4590 -1.2065
 8991TIP3   OH226936   5.064   2.011   4.829 -0.0570  0.5295  0.1588
 8991TIP3    H126937   5.041   1.924   4.863  2.1942 -1.0676 -2.1439
 8991TIP3    H226938   5.147   2.032   4.872 -0.9114  1.9329  1.2125
 8992TIP3   OH226939   4.745   0.043   3.107 -0.4559 -0.5726  0.3527
 8992TIP3    H126940   4.651   0.023   3.101 -0.3402 -0.8176 -0.9623
 8992TIP3    H226941   4.783  -0.034   3.150 -0.6126 -1.3562 -0.8541
 8993TIP3   OH226942   6.021   6.415   4.810  0.3720 -0.6532  0.2999
 8993TIP3    H126943   6.016   6.492   4.868 -0.1624 -1.9281  2.0289
 8993TIP3    H226944   6.115   6.397   4.804  0.4763 -0.1000  0.2225
 8994TIP3   OH226945   2.904   5.278   4.761  0.5030  0.1733  0.5910
 8994TIP3    H126946   2.931   5.250   4.673 -2.0337 -0.7029 -0.0183
 8994TIP3    H226947   2.879   5.196   4.804  0.1423  0.7726  1.5340
 8995TIP3   OH226948   3.420   4.088   1.044 -0.2400 -0.1509  0.5225
 8995TIP3    H126949   3.422   4.066   0.951  0.4319  1.9005  0.0121
 8995TIP3    H226950   3.468   4.017   1.086  1.0294 -0.1958 -0.9162
 8996TIP3   OH226951   5.537   2.293   2.747 -0.5411 -0.0727  0.3115
 8996TIP3    H126952   5.553   2.340   2.665  1.4653 -0.6901  0.2859
 8996TIP3    H226953   5.601   2.330   2.808 -0.0289 -1.5999  0.7442
 8997TIP3   OH226954   7.209   4.536   2.817  0.0359 -0.1663 -0.2194
 8997TIP3    H126955   7.154   4.565   2.890  1.7565  1.0345  0.6585
 8997TIP3    H226956   7.240   4.449   2.843  0.6144  0.2414  0.4998
 8998TIP3   OH226957   2.711   0.122   4.480 -0.0308  0.5512 -0.3887
 8998TIP3    H126958   2.785   0.074   4.517 -1.2345 -0.2642  1.0805
 8998TIP3    H226959   2.744   0.211   4.466  0.8445  0.5837  1.5822
 8999TIP3   OH226960   6.230   6.042   4.999  0.2375 -0.4717  0.3660
 8999TIP3    H126961   6.161   6.100   5.030  0.8436 -0.4576  1.7886
 8999TIP3    H226962   6.242   5.979   5.070  0.3392 -1.6904 -0.6855
 9000TIP3   OH226963   0.070   2.550   3.818  0.2332  0.1381  0.2197
 9000TIP3    H126964   0.110   2.469   3.848  0.7887  0.6707  0.9665
 9000TIP3    H226965   0.118   2.574   3.739  0.1829 -0.1685  0.0982
 9001TIP3   OH226966   2.767   3.675   2.305  0.2833  0.2324  0.6116
 9001TIP3    H126967   2.862   3.676   2.292  0.1038 -0.2140 -1.0171
 9001TIP3    H226968   2.732   3.724   2.230 -0.8559 -1.5746 -0.1150
 9002TIP3   OH226969   2.154   3.807   2.062  0.1041 -1.0399  0.8393
 9002TIP3    H126970   2.156   3.734   2.124  1.4483 -0.5896  1.3663
 9002TIP3    H226971   2.108   3.877   2.107 -0.8325 -1.4122  0.4849
 9003TIP3   OH226972   4.721   3.317   3.654  0.1173 -0.0766  0.3567
 9003TIP3    H126973   4.743   3.341   3.564 -2.4191 -4.9003 -1.9787
 9003TIP3    H226974   4.634   3.356   3.668  0.5417  0.7311  0.7780
 9004TIP3   OH226975   2.274   2.230   2.252 -0.2082  0.3683  0.4316
 9004TIP3    H126976   2.306   2.320   2.247  2.8679 -0.6219 -0.1177
 9004TIP3    H226977   2.289   2.194   2.165  1.4493 -1.4544  1.3796
 9005TIP3   OH226978   0.414   6.267   0.994 -0.1463 -0.3751 -0.4994
 9005TIP3    H126979   0.326   6.249   1.028  0.0528 -0.3871  0.0191
 9005TIP3    H226980   0.438   6.351   1.034 -0.1454 -0.0885 -1.0851
 9006TIP3   OH226981   5.881   0.907   4.881 -0.6739  0.4365  0.2993
 9006TIP3    H126982   5.965   0.947   4.857 -0.6229  0.0765 -0.1359
 9006TIP3    H226983   5.884   0.902   4.976 -0.5944  1.2732  0.3485
 9007TIP3   OH226984   2.199   2.384   0.323  0.0543  0.1957  0.5210
 9007TIP3    H126985   2.139   2.376   0.249  1.3048 -1.6387 -0.3781
 9007TIP3    H226986   2.281   2.414   0.284 -0.0045  1.8306  1.6016
 9008TIP3   OH226987   1.674   6.119   5.049 -0.4327  0.3162 -0.9979
 9008TIP3    H126988   1.606   6.127   4.982 -1.2541 -1.0462 -0.3599
 9008TIP3    H226989   1.748   6.078   5.004 -0.0991  1.5358 -1.6183
 9009TIP3   OH226990   6.138   5.988   4.734  0.1294  0.2764 -0.4939
 9009TIP3    H126991   6.199   5.992   4.661  0.0348  0.7339 -0.5485
 9009TIP3    H226992   6.193   5.998   4.812  0.1897  0.1187 -0.5156
 9010TIP3   OH226993   7.170   5.668   0.443  0.2171  0.1713 -0.4442
 9010TIP3    H126994   7.222   5.588   0.440  1.2346  0.8392 -1.0570
 9010TIP3    H226995   7.155   5.684   0.537 -1.2099 -1.4686 -0.3385
 9011TIP3   OH226996   6.500   5.376   4.505  0.0449  0.5618  0.1437
 9011TIP3    H126997   6.529   5.293   4.543  0.3480  0.5498 -0.1122
 9011TIP3    H226998   6.548   5.383   4.422 -0.2171  0.8405  0.0128
 9012TIP3   OH226999   1.861   1.847   4.702 -0.6010  0.4456 -0.0044
 9012TIP3    H127000   1.840   1.872   4.791 -0.0220  1.0995 -0.0426
 9012TIP3    H227001   1.924   1.913   4.672 -1.3766  0.6869 -1.1660
 9013TIP3   OH227002   4.856   4.181   4.110  0.3566  0.0222 -0.1870
 9013TIP3    H127003   4.864   4.273   4.084 -1.4334 -0.0035 -0.9319
 9013TIP3    H227004   4.762   4.167   4.122  0.5285 -1.9078 -0.7820
 9014TIP3   OH227005   2.918   1.899   4.409  0.1540 -0.5030  0.4275
 9014TIP3    H127006   2.835   1.946   4.416  0.6662  0.4589  0.1567
 9014TIP3    H227007   2.935   1.868   4.497 -0.0184  0.1318  0.6906
 9015TIP3   OH227008   3.747   2.769   3.139 -0.6450  0.1632 -0.4291
 9015TIP3    H127009   3.677   2.718   3.179  0.7105 -1.0976  0.4662
 9015TIP3    H227010   3.773   2.718   3.063 -1.9004  1.5753 -1.8796
 9016TIP3   OH227011   0.619   0.994   0.110  0.0271  0.0478  0.1512
 9016TIP3    H127012   0.609   0.912   0.061  0.6093 -0.4886  0.9034
 9016TIP3    H227013   0.649   1.057   0.045 -1.9920  0.1042 -0.7986
 9017TIP3   OH227014   1.867   6.047   2.391  0.4278  0.4751 -0.0251
 9017TIP3    H127015   1.959   6.043   2.414  1.1896  1.0148 -2.6612
 9017TIP3    H227016   1.846   5.959   2.359 -0.5278 -0.1860  2.2395
 9018TIP3   OH227017   4.128   5.666   5.393  0.1833  0.1867 -0.3931
 9018TIP3    H127018   4.182   5.729   5.441 -2.0598  1.2239  0.9221
 9018TIP3    H227019   4.073   5.720   5.337 -1.2334 -0.6290  0.1630
 9019TIP3   OH227020   6.425   5.908   1.805 -0.1133 -0.4250  0.2430
 9019TIP3    H127021   6.452   5.816   1.812  0.2946 -0.6365 -2.7329
 9019TIP3    H227022   6.339   5.905   1.764 -0.5384  0.5279  1.0264
 9020TIP3   OH227023   0.531   5.718   3.189  0.0766 -0.4078 -0.8760
 9020TIP3    H127024   0.521   5.731   3.095 -0.2913  0.5661 -0.7208
 9020TIP3    H227025   0.473   5.784   3.228 -0.9820 -1.8063  0.0271
 9021TIP3   OH227026   4.453   1.094   1.479  0.0951 -0.0256 -0.0783
 9021TIP3    H127027   4.545   1.082   1.503 -0.3846 -2.7308  0.7650
 9021TIP3    H227028   4.415   1.007   1.485 -2.9081  1.2194  1.1140
 9022TIP3   OH227029   5.798   4.242   3.044 -0.7094 -0.6980  0.0330
 9022TIP3    H127030   5.804   4.270   2.953  0.8036  2.1727  0.8777
 9022TIP3    H227031   5.827   4.151   3.045  1.6044 -0.0572 -2.0513
 9023TIP3   OH227032   5.176   5.980   0.291 -0.2871  0.1425  0.1428
 9023TIP3    H127033   5.256   5.945   0.250 -0.0626  2.0254 -1.1380
 9023TIP3    H227034   5.105   5.927   0.253  0.1556  0.0708 -0.6159
 9024TIP3   OH227035   2.749   1.040   0.234 -0.3872 -0.0667 -0.0854
 9024TIP3    H127036   2.817   0.982   0.200 -1.2273 -0.2568 -1.5216
 9024TIP3    H227037   2.766   1.045   0.328  1.0077 -0.8889 -0.2716
 9025TIP3   OH227038   1.392   5.429   0.219  0.0631 -0.3585 -0.1151
 9025TIP3    H127039   1.382   5.341   0.182  2.1710  0.1972 -2.2091
 9025TIP3    H227040   1.474   5.425   0.268  0.1374  0.4248 -0.1706
 9026TIP3   OH227041   0.407   1.175   4.947  0.1211  0.1257  0.3327
 9026TIP3    H127042   0.399   1.108   4.879  0.8277  0.5675 -0.2127
 9026TIP3    H227043   0.318   1.202   4.965 -0.2864 -1.8141  1.4480
 9027TIP3   OH227044   1.893   2.101   5.318  0.0559 -0.1130 -0.4686
 9027TIP3    H127045   1.887   2.071   5.409  1.5611  2.0118  0.4265
 9027TIP3    H227046   1.867   2.193   5.322  0.8589  0.2139 -2.0528
 9028TIP3   OH227047   6.382  -0.014   3.058  0.1040 -0.1153  0.5385
 9028TIP3    H127048   6.333   0.053   3.011  0.9931 -0.6010 -1.1712
 9028TIP3    H227049   6.461   0.030   3.087  1.0097 -0.5015 -1.1697
 9029TIP3   OH227050   7.093   0.632   1.375  0.2543 -0.1060  0.0221
 9029TIP3    H127051   7.072   0.723   1.350  0.5341 -0.1012 -0.2045
 9029TIP3    H227052   7.021   0.580   1.339 -0.4289  0.1278  1.0014
 9030TIP3   OH227053   3.636   1.948   5.664  0.3988  0.2339  0.0492
 9030TIP3    H127054   3.634   1.865   5.711  0.8469  0.4024  0.3690
 9030TIP3    H227055   3.616   2.014   5.730  1.8965  0.5547  0.2109
 9031TIP3   OH227056   4.308   1.580   5.260 -0.3080 -0.2501 -0.0122
 9031TIP3    H127057   4.274   1.669   5.247  0.5090 -0.0536 -0.9524
 9031TIP3    H227058   4.366   1.588   5.336 -0.7996 -0.1549  0.3614
 9032TIP3   OH227059   6.770   3.513   4.119 -0.0566  0.5283  0.6155
 9032TIP3    H127060   6.802   3.426   4.096 -0.0222  0.3048  1.4580
 9032TIP3    H227061   6.675   3.506   4.112  0.0042  0.9356 -1.0090
 9033TIP3   OH227062   5.089   5.914   0.848  0.3831 -0.8414  0.7106
 9033TIP3    H127063   5.083   5.907   0.753  0.5696  0.0242  0.6220
 9033TIP3    H227064   5.183   5.912   0.866  0.3349 -1.3588  0.9105
 9034TIP3   OH227065   3.410   2.077   3.198 -0.6850 -0.3816 -0.0419
 9034TIP3    H127066   3.418   1.999   3.253 -0.1038  0.2700  0.8336
 9034TIP3    H227067   3.443   2.050   3.112 -0.0026 -0.9634  0.3914
 9035TIP3   OH227068   2.644   4.568   3.562  0.4818 -0.0705 -0.2789
 9035TIP3    H127069   2.668   4.660   3.554  1.8183 -0.4342 -0.7313
 9035TIP3    H227070   2.569   4.557   3.504  1.1319  0.4607 -1.2391
 9036TIP3   OH227071   0.629   1.056   1.522  0.0183 -0.5094 -0.3982
 9036TIP3    H127072   0.706   1.080   1.573  0.1101  0.4855 -0.9868
 9036TIP3    H227073   0.646   0.966   1.494  0.0833 -0.9806  1.0743
 9037TIP3   OH227074   5.635   1.341   4.443  0.7057  0.0560 -0.0777
 9037TIP3    H127075   5.644   1.308   4.533  0.0386 -1.1610 -0.4279
 9037TIP3    H227076   5.712   1.396   4.430  0.0147  1.5678  1.7588
 9038TIP3   OH227077   2.448   3.825   2.794  0.7855  0.0923 -0.0413
 9038TIP3    H127078   2.383   3.801   2.727 -0.0768  1.1600  0.3959
 9038TIP3    H227079   2.532   3.818   2.749  0.2750 -0.0042 -1.0035
 9039TIP3   OH227080   7.213   3.639   0.647 -0.3709 -0.1613  0.3468
 9039TIP3    H127081   7.137   3.580   0.640 -0.0124 -0.7838  1.4802
 9039TIP3    H227082   7.233   3.662   0.557 -1.9646  0.0851  0.0177
 9040TIP3   OH227083   4.010   2.815   1.188 -0.1514 -0.0266  0.4708
 9040TIP3    H127084   4.069   2.873   1.237 -0.4863 -0.2265  1.1324
 9040TIP3    H227085   4.066   2.742   1.162  0.1580  0.3495  0.0710
 9041TIP3   OH227086   3.623   6.703   0.402  0.7390 -0.1930  0.2959
 9041TIP3    H127087   3.591   6.646   0.333 -0.7012  0.7956  0.1034
 9041TIP3    H227088   3.612   6.652   0.483 -1.6634  0.1698  0.2813
 9042TIP3   OH227089   3.944   5.967   0.810  0.5746 -0.7380  0.7219
 9042TIP3    H127090   3.931   5.983   0.717 -1.6337 -0.9392  0.9437
 9042TIP3    H227091   4.033   5.932   0.817  0.7331 -0.8150 -1.2930
 9043TIP3   OH227092   5.621   3.659   1.657 -0.1516  0.4254 -0.1053
 9043TIP3    H127093   5.696   3.681   1.713  0.7283  0.4363 -1.2613
 9043TIP3    H227094   5.577   3.587   1.703  1.0351 -0.1279  0.1999
 9044TIP3   OH227095   4.666   6.607   3.219  0.0622 -0.5010 -0.0766
 9044TIP3    H127096   4.729   6.571   3.156  0.2390 -2.8106  1.3039
 9044TIP3    H227097   4.581   6.579   3.185 -0.0912  0.7116 -0.7534
 9045TIP3   OH227098   3.177   0.648   1.977 -0.2654  0.0772  0.0412
 9045TIP3    H127099   3.237   0.587   2.020 -0.5279  0.0438  0.3590
 9045TIP3    H227100   3.170   0.615   1.887  0.2151  0.0994 -0.0064
 9046TIP3   OH227101   1.958   1.161   5.045 -0.0642  0.8029  0.0790
 9046TIP3    H127102   1.924   1.191   4.960 -0.7240  1.3732  0.5323
 9046TIP3    H227103   2.053   1.173   5.038  0.2281 -1.5989 -1.5159
 9047TIP3   OH227104   0.169   2.511   4.158 -0.3081 -0.1589 -0.5636
 9047TIP3    H127105   0.200   2.546   4.241  1.3510 -0.0127 -1.1902
 9047TIP3    H227106   0.109   2.578   4.124  0.2320  0.5225 -0.2028
 9048TIP3   OH227107   3.172   0.712   0.579 -0.1767 -0.0177 -0.2526
 9048TIP3    H127108   3.165   0.677   0.668 -0.2759 -0.8260 -0.5690
 9048TIP3    H227109   3.205   0.801   0.591 -1.4800  0.3713  0.6727
 9049TIP3   OH227110   5.067   5.787   5.319 -0.0685  0.0587 -0.1641
 9049TIP3    H127111   5.139   5.732   5.288  0.8379  0.8351  0.4731
 9049TIP3    H227112   5.079   5.870   5.272  0.4415  0.7444  1.1274
 9050TIP3   OH227113   5.207   2.030   5.187  0.0494  0.8835  1.2538
 9050TIP3    H127114   5.278   1.971   5.212 -0.5780 -0.1703  0.6555
 9050TIP3    H227115   5.237   2.071   5.106  0.4488  1.3271  1.6213
 9051TIP3   OH227116   3.820   4.379   0.076 -0.2587 -0.1020  0.6155
 9051TIP3    H127117   3.816   4.329  -0.005  0.1364 -0.5590  0.8704
 9051TIP3    H227118   3.815   4.313   0.145  1.6106  0.0651  0.9673
 9052TIP3   OH227119   0.825   0.878   0.815  0.1970  0.2468 -0.6314
 9052TIP3    H127120   0.882   0.934   0.762 -0.6499 -0.4691 -2.3756
 9052TIP3    H227121   0.858   0.789   0.801 -1.0624 -0.1338 -1.3381
 9053TIP3   OH227122   1.303   1.229   3.834 -0.0764  0.2193 -0.4301
 9053TIP3    H127123   1.260   1.155   3.878 -0.5053  1.5074  1.4108
 9053TIP3    H227124   1.395   1.223   3.861  0.1223 -0.2556 -1.1803
 9054TIP3   OH227125   5.624   3.665   0.270  0.0770 -0.0194  0.4130
 9054TIP3    H127126   5.660   3.649   0.183 -0.2729 -1.4303  0.5096
 9054TIP3    H227127   5.701   3.686   0.324  0.3237  0.5874 -0.1618
 9055TIP3   OH227128   0.552   6.782   4.545  0.1047 -0.6009  0.2592
 9055TIP3    H127129   0.619   6.845   4.518 -0.4949 -0.7351 -1.6528
 9055TIP3    H227130   0.598   6.698   4.547  0.5737 -0.3460  1.4911
 9056TIP3   OH227131   0.123   2.652   5.847 -0.3308 -0.1081 -0.4875
 9056TIP3    H127132   0.216   2.643   5.827 -0.4937 -0.9904 -0.9014
 9056TIP3    H227133   0.081   2.582   5.797 -1.2608  0.5065 -0.5917
 9057TIP3   OH227134   4.755   1.775   5.421  0.3786  0.2421 -0.0664
 9057TIP3    H127135   4.801   1.816   5.348 -0.2821 -0.7174 -1.0425
 9057TIP3    H227136   4.724   1.691   5.387 -1.5204  0.5580  0.7523
 9058TIP3   OH227137   2.909   3.450   5.092  0.0449 -0.1289 -0.1794
 9058TIP3    H127138   2.940   3.397   5.165 -0.6106 -1.2177 -0.6762
 9058TIP3    H227139   2.960   3.531   5.098 -0.6011  0.1940  2.0124
 9059TIP3   OH227140   0.230   6.660   3.011  0.2018  0.2595  0.5307
 9059TIP3    H127141   0.168   6.681   3.080  1.0365  2.1901  0.7460
 9059TIP3    H227142   0.279   6.585   3.045 -3.4856 -3.1058 -0.6488
 9060TIP3   OH227143   1.827   0.237   3.483 -0.0574  0.0410 -0.3004
 9060TIP3    H127144   1.884   0.306   3.519  0.5761 -0.5948 -0.0775
 9060TIP3    H227145   1.751   0.237   3.541 -0.5563  1.2740 -0.9242
 9061TIP3   OH227146   0.997   2.667   2.354  0.2201  0.2184  0.2427
 9061TIP3    H127147   1.076   2.692   2.402 -0.4321  0.1383  1.3968
 9061TIP3    H227148   1.019   2.582   2.316  1.3136  1.0152 -1.0056
 9062TIP3   OH227149   6.080   2.082   0.184 -0.3346  0.5396 -0.4175
 9062TIP3    H127150   6.050   2.163   0.143 -1.0663 -0.5775 -2.2183
 9062TIP3    H227151   6.123   2.034   0.114 -0.4067 -0.8760  0.4582
 9063TIP3   OH227152   1.821   0.013   1.770  0.4348  0.6706 -0.3974
 9063TIP3    H127153   1.905   0.001   1.725  0.6801  0.2718  0.1558
 9063TIP3    H227154   1.824   0.103   1.802  0.7034  0.6247 -0.2874
 9064TIP3   OH227155   0.872   6.710   5.435 -0.3349 -0.1324 -0.3058
 9064TIP3    H127156   0.810   6.680   5.502  0.0260 -0.5872 -0.1677
 9064TIP3    H227157   0.906   6.793   5.469  1.0724 -1.1455  0.8991
 9065TIP3   OH227158   5.259   1.977   0.793 -0.3046  0.1457 -0.3728
 9065TIP3    H127159   5.169   1.993   0.767  0.1065  2.5264 -0.5638
 9065TIP3    H227160   5.312   2.023   0.728  1.0599 -1.0969 -0.1949
 9066TIP3   OH227161   0.747   0.559   0.575 -0.1027  0.2974  0.0237
 9066TIP3    H127162   0.672   0.616   0.591 -0.4017  0.4545 -1.7109
 9066TIP3    H227163   0.800   0.566   0.654 -0.3300  2.6831  0.0354
 9067TIP3   OH227164   5.238   0.373   0.405 -0.2772 -0.6665  0.0960
 9067TIP3    H127165   5.205   0.283   0.395 -1.1321 -0.5908  1.7499
 9067TIP3    H227166   5.314   0.364   0.462  0.4317 -0.4504 -0.7930
 9068TIP3   OH227167   4.079   1.196   3.252 -0.0713 -0.2766 -0.1198
 9068TIP3    H127168   3.998   1.194   3.304  0.9882 -1.4096  1.5535
 9068TIP3    H227169   4.145   1.231   3.312  0.4728  1.8929 -1.8536
 9069TIP3   OH227170   2.346   1.213   2.258 -0.5384 -0.0512  0.0643
 9069TIP3    H127171   2.384   1.129   2.232  0.6264  0.3492  0.3867
 9069TIP3    H227172   2.264   1.218   2.210  0.3204 -0.4908 -1.5370
 9070TIP3   OH227173   4.507   3.680   1.866 -0.7373 -0.0773  0.1279
 9070TIP3    H127174   4.487   3.749   1.929 -1.7212 -1.3021  1.2069
 9070TIP3    H227175   4.573   3.626   1.909 -0.8048 -0.4587 -0.2381
 9071TIP3   OH227176   3.472   0.166   3.188  0.7838 -0.3554 -0.3572
 9071TIP3    H127177   3.457   0.182   3.095  0.4242 -0.1332 -0.2608
 9071TIP3    H227178   3.559   0.203   3.205  1.2547 -1.2061 -0.8037
 9072TIP3   OH227179   0.582   5.494   4.276  0.1740 -0.5656 -0.2252
 9072TIP3    H127180   0.627   5.552   4.214 -0.1188 -1.1398 -0.9976
 9072TIP3    H227181   0.646   5.479   4.345  0.7321 -0.3937 -0.6930
 9073TIP3   OH227182   5.052   0.704   3.108 -0.1184 -0.9565  0.0139
 9073TIP3    H127183   5.095   0.621   3.087 -0.4098 -0.9257 -0.7173
 9073TIP3    H227184   5.042   0.748   3.024 -0.4714 -0.4255  0.3284
 9074TIP3   OH227185   0.967   1.952   3.986 -0.3246  0.0931 -0.0551
 9074TIP3    H127186   0.939   2.036   4.021  1.8633  0.9343 -0.2056
 9074TIP3    H227187   1.044   1.928   4.038  0.6862 -0.4810 -1.7393
 9075TIP3   OH227188   6.182   5.137   0.120  0.4743  0.5617  0.1267
 9075TIP3    H127189   6.124   5.135   0.196  0.1404 -2.4101 -0.0624
 9075TIP3    H227190   6.133   5.090   0.052  2.1442  0.0677 -0.7806
 9076TIP3   OH227191   3.677   2.082   3.401 -0.0892  0.2440  0.2460
 9076TIP3    H127192   3.667   2.071   3.495  0.7777  0.4746  0.3658
 9076TIP3    H227193   3.598   2.042   3.364 -0.0390 -0.5981  1.0263
 9077TIP3   OH227194   2.072   5.014   5.640  0.3891 -0.1284  0.0466
 9077TIP3    H127195   2.060   4.955   5.565  1.4611 -0.1644 -0.1084
 9077TIP3    H227196   2.034   5.097   5.611  1.1518 -0.0287 -0.6958
 9078TIP3   OH227197   3.197   0.613   4.255 -0.1639  0.0419 -0.5211
 9078TIP3    H127198   3.108   0.587   4.280 -0.6839  0.8045 -1.4757
 9078TIP3    H227199   3.222   0.678   4.321 -0.6705  0.4575 -0.7249
 9079TIP3   OH227200   6.102   3.484   2.195  0.3969 -0.1536  0.2859
 9079TIP3    H127201   6.165   3.481   2.267  0.3780 -1.4240  0.2725
 9079TIP3    H227202   6.019   3.461   2.235  0.3893 -0.8909 -0.1385
 9080TIP3   OH227203   0.391   3.980   1.148  0.0003 -0.1301  0.3107
 9080TIP3    H127204   0.418   3.898   1.190  1.9765  0.6877  0.7660
 9080TIP3    H227205   0.473   4.023   1.124 -0.9515  1.9159  0.4521
 9081TIP3   OH227206   6.593   0.650   4.887  0.4602  0.5797  0.2176
 9081TIP3    H127207   6.619   0.653   4.794  0.3921  1.3455  0.2201
 9081TIP3    H227208   6.563   0.738   4.906  1.2179  0.6329  1.1963
 9082TIP3   OH227209   6.937   3.431   0.205  0.1304  0.1832  0.7383
 9082TIP3    H127210   6.902   3.343   0.218  1.8026 -0.4228  1.4743
 9082TIP3    H227211   6.863   3.482   0.172 -1.0393 -1.3343  0.9039
 9083TIP3   OH227212   6.196   2.646   4.361  0.2747  0.2621  0.1693
 9083TIP3    H127213   6.109   2.659   4.399  0.4703 -0.9696  1.1217
 9083TIP3    H227214   6.232   2.571   4.409  1.0097 -0.6575 -1.7089
 9084TIP3   OH227215   4.605   3.072   0.410 -0.3936 -0.8772 -0.3039
 9084TIP3    H127216   4.515   3.042   0.396 -0.4393 -1.2566  0.7170
 9084TIP3    H227217   4.628   3.039   0.497  0.1989  0.4926  0.0882
 9085TIP3   OH227218   4.023   5.119   1.617 -0.4148 -0.1010 -0.3504
 9085TIP3    H127219   3.968   5.093   1.544 -2.3935  0.1505  0.9796
 9085TIP3    H227220   4.031   5.214   1.610 -1.3115  0.0270  0.1939
 9086TIP3   OH227221   2.471   0.701   3.877 -0.4470 -0.0481  0.5537
 9086TIP3    H127222   2.449   0.701   3.783  0.9546  0.4232  0.2052
 9086TIP3    H227223   2.481   0.794   3.898 -0.7203 -0.1569  1.1735
 9087TIP3   OH227224   6.550   2.551   3.690  0.4023 -0.6569 -0.9499
 9087TIP3    H127225   6.639   2.537   3.722  0.1704  0.4988  0.3093
 9087TIP3    H227226   6.558   2.627   3.632  0.0153  0.5170  0.4676
 9088TIP3   OH227227   0.528   5.711   2.611  0.0674 -0.4548 -0.1164
 9088TIP3    H127228   0.523   5.802   2.579 -0.5065 -0.1682  0.7628
 9088TIP3    H227229   0.479   5.661   2.546  1.2936 -0.3276 -1.2014
 9089TIP3   OH227230   6.082   1.382   2.584 -0.2138 -0.1518  0.3407
 9089TIP3    H127231   6.011   1.359   2.644  0.9374 -2.4015  0.9831
 9089TIP3    H227232   6.040   1.427   2.512 -1.8941  1.0462  1.9885
 9090TIP3   OH227233   3.717   6.416   3.501 -0.3579  0.6875 -0.1564
 9090TIP3    H127234   3.738   6.333   3.543 -2.8271  0.4832  0.8452
 9090TIP3    H227235   3.731   6.482   3.569 -2.3496  0.5895  0.4003
 9091TIP3   OH227236   1.310   0.780   5.370 -0.4361 -0.3622 -0.3522
 9091TIP3    H127237   1.235   0.785   5.429 -0.2722 -2.0816  0.0371
 9091TIP3    H227238   1.377   0.732   5.419  1.4114  2.1110 -0.2398
 9092TIP3   OH227239   1.252   3.964   3.626 -0.0786 -0.0124 -0.6846
 9092TIP3    H127240   1.299   3.893   3.582  3.5301 -0.1229  2.8095
 9092TIP3    H227241   1.308   4.041   3.614  0.2338  0.2919  2.1563
 9093TIP3   OH227242   2.696   4.926   0.839  0.5259  0.0988  0.0502
 9093TIP3    H127243   2.616   4.977   0.829 -0.2702 -1.1916 -0.5101
 9093TIP3    H227244   2.738   4.961   0.918 -0.4821  0.9401  0.2277
 9094TIP3   OH227245   5.761   2.114   2.791 -0.8978  0.3908 -0.4347
 9094TIP3    H127246   5.670   2.084   2.788 -1.1652  1.1120  0.0116
 9094TIP3    H227247   5.794   2.100   2.702 -1.2198 -0.5337 -0.4176
 9095TIP3   OH227248   0.760   4.998   3.509 -0.5174  0.3662 -0.9468
 9095TIP3    H127249   0.762   5.079   3.561 -1.6924  0.9122 -1.7181
 9095TIP3    H227250   0.835   5.007   3.450 -0.0315  0.4111 -0.3307
 9096TIP3   OH227251   5.845   3.442   1.461 -0.0203  0.4730 -0.0651
 9096TIP3    H127252   5.910   3.490   1.512  0.5809 -0.5579  0.1615
 9096TIP3    H227253   5.785   3.407   1.526  1.1818 -1.5014  0.0720
 9097TIP3   OH227254   6.321   6.026   3.153 -0.2772  0.1655  0.2768
 9097TIP3    H127255   6.327   6.120   3.171  2.0373  0.2101 -0.5035
 9097TIP3    H227256   6.400   5.988   3.190 -0.2097 -1.1929 -1.1161
 9098TIP3   OH227257   5.337   0.442   3.396 -0.1271  0.6628 -0.2081
 9098TIP3    H127258   5.319   0.535   3.384 -0.3878  0.5990 -0.3397
 9098TIP3    H227259   5.301   0.421   3.482 -0.0582  0.6882 -0.1738
 9099TIP3   OH227260   1.250   4.164   1.796 -0.1418 -0.2397 -0.2733
 9099TIP3    H127261   1.234   4.174   1.702  5.7508 -1.1414 -1.7959
 9099TIP3    H227262   1.289   4.248   1.823  1.7443 -1.2086  0.2250
 9100TIP3   OH227263   2.955   1.674   3.714  0.0291  0.2883 -0.3635
 9100TIP3    H127264   2.964   1.644   3.623  0.5153  1.3710 -0.6859
 9100TIP3    H227265   3.011   1.752   3.719  1.9193 -1.0717  1.4917
 9101TIP3   OH227266   0.837   0.832   2.498  0.0018  0.4933  0.0934
 9101TIP3    H127267   0.875   0.919   2.485  0.3279  0.3494  0.0644
 9101TIP3    H227268   0.762   0.846   2.555 -0.4725  0.9158 -0.6335
 9102TIP3   OH227269   3.517   6.268   0.614 -0.4888  0.3776 -0.0629
 9102TIP3    H127270   3.502   6.206   0.685  3.6879 -1.5487 -0.5584
 9102TIP3    H227271   3.488   6.222   0.535  0.0865  0.1361 -0.1413
 9103TIP3   OH227272   2.573   1.150   5.110  0.8498 -0.2566  0.0051
 9103TIP3    H127273   2.508   1.112   5.051 -0.0475 -0.3340  1.0079
 9103TIP3    H227274   2.579   1.086   5.182  1.4923  0.1067  0.2796
 9104TIP3   OH227275   2.476   6.216   2.554  0.2944 -0.8351 -0.3153
 9104TIP3    H127276   2.506   6.232   2.643  0.5359 -0.2682 -0.4960
 9104TIP3    H227277   2.487   6.121   2.541  1.7271 -0.6989 -0.2743
 9105TIP3   OH227278   2.173   6.352   0.621 -0.1941  0.1845  0.1900
 9105TIP3    H127279   2.213   6.361   0.708  1.5194  0.9577 -0.6340
 9105TIP3    H227280   2.171   6.258   0.605 -0.2004  0.0546  0.9118
 9106TIP3   OH227281   1.986   3.816   0.794  0.7373 -0.2122  0.0631
 9106TIP3    H127282   1.957   3.819   0.702 -0.4055  0.5091  0.4295
 9106TIP3    H227283   1.979   3.723   0.818  0.1362 -0.2680 -0.3010
 9107TIP3   OH227284   7.177   1.430   5.432 -0.0998  0.1169 -0.9200
 9107TIP3    H127285   7.148   1.411   5.343 -2.3913 -2.4224  0.2252
 9107TIP3    H227286   7.142   1.358   5.484 -0.4466  2.4510  2.3611
 9108TIP3   OH227287   3.426   4.986   1.479  0.0119 -0.1811  0.2596
 9108TIP3    H127288   3.518   5.009   1.495 -0.2871  0.6030  0.9757
 9108TIP3    H227289   3.379   5.069   1.489 -0.7632 -0.5554 -0.1943
 9109TIP3   OH227290   3.725   2.302   0.481  0.7612 -0.4007 -0.0340
 9109TIP3    H127291   3.637   2.289   0.516  0.5516  1.0759  0.0497
 9109TIP3    H227292   3.781   2.251   0.539 -0.0719 -1.7818 -0.3893
 9110TIP3   OH227293   2.614   6.263   0.751 -0.2876  0.2468  0.2140
 9110TIP3    H127294   2.577   6.323   0.816 -0.5587  0.1167  0.1807
 9110TIP3    H227295   2.674   6.208   0.802 -1.0290 -0.3232  0.4943
 9111TIP3   OH227296   5.843   2.544   5.513  0.0705  0.2941  0.5846
 9111TIP3    H127297   5.827   2.595   5.593  2.4375 -1.1015  2.0739
 9111TIP3    H227298   5.889   2.605   5.455  0.5149  0.6295  1.2785
 9112TIP3   OH227299   6.605   1.834   1.538  0.3284  0.0471  0.1611
 9112TIP3    H127300   6.640   1.916   1.573 -1.6965  1.2226 -0.3495
 9112TIP3    H227301   6.580   1.784   1.615  1.8811 -0.2522  0.4870
 9113TIP3   OH227302   1.513   4.512   0.690 -0.4625 -0.2638  0.1967
 9113TIP3    H127303   1.547   4.515   0.601  0.7863  1.0326  0.6790
 9113TIP3    H227304   1.428   4.557   0.685  0.4057  1.4443 -0.0433
 9114TIP3   OH227305   2.376   4.239   2.528  0.2413 -0.2667 -0.1644
 9114TIP3    H127306   2.439   4.274   2.591 -0.0167 -1.1183  0.5819
 9114TIP3    H227307   2.394   4.288   2.448  0.3815  1.0401  0.6305
 9115TIP3   OH227308   1.621   5.159   4.339 -0.0062  0.1612 -0.4208
 9115TIP3    H127309   1.553   5.145   4.405  0.2578  1.1986  0.0962
 9115TIP3    H227310   1.577   5.141   4.255 -0.3477 -1.1485  0.0233
 9116TIP3   OH227311   0.966   4.353   3.282 -0.7145 -0.0288  0.1830
 9116TIP3    H127312   1.058   4.325   3.274  0.1577  2.5125  0.4374
 9116TIP3    H227313   0.969   4.447   3.267 -3.4885 -0.0494 -0.9998
 9117TIP3   OH227314   6.740   3.621   4.726 -0.2729  0.0455 -0.3229
 9117TIP3    H127315   6.783   3.549   4.680 -0.4252  0.6381 -1.4248
 9117TIP3    H227316   6.710   3.680   4.656 -2.4591 -0.1151  0.3847
 9118TIP3   OH227317   6.264   3.591   2.414 -0.2562  0.4563  0.3744
 9118TIP3    H127318   6.184   3.620   2.458 -0.4130  0.4071  0.1218
 9118TIP3    H227319   6.325   3.664   2.426 -0.8001  1.1182 -0.6763
 9119TIP3   OH227320   1.387   0.623   3.256 -0.3745  0.5195 -0.0836
 9119TIP3    H127321   1.464   0.648   3.205  0.7946  1.2210  1.8968
 9119TIP3    H227322   1.414   0.546   3.305 -1.7724 -0.6923 -1.1098
 9120TIP3   OH227323   7.134   0.611   4.162 -0.4571 -0.3832  0.0794
 9120TIP3    H127324   7.093   0.538   4.115 -0.0868 -0.1699 -0.5855
 9120TIP3    H227325   7.116   0.687   4.108  1.3054 -0.3638 -0.5345
 9121TIP3   OH227326   4.298   1.445   2.355 -0.2940 -0.6581 -0.3175
 9121TIP3    H127327   4.369   1.385   2.377  1.1734  0.7613 -0.9731
 9121TIP3    H227328   4.238   1.393   2.301  1.4415 -1.3047 -1.7085
 9122TIP3   OH227329   3.121   4.290   2.571  0.2537 -0.1034  0.1097
 9122TIP3    H127330   3.072   4.348   2.513  0.0057  0.3795  0.7812
 9122TIP3    H227331   3.129   4.340   2.653 -2.2765 -1.9610  1.6671
 9123TIP3   OH227332   0.198   0.701   0.033  0.5609  0.0545 -0.0402
 9123TIP3    H127333   0.215   0.668   0.122 -0.4321  0.7626  0.4379
 9123TIP3    H227334   0.111   0.741   0.039  0.7594  0.6948 -1.1739
 9124TIP3   OH227335   5.258   6.750   4.715  0.0466  0.5487 -0.0628
 9124TIP3    H127336   5.320   6.760   4.787  1.1978  1.3672 -1.1153
 9124TIP3    H227337   5.250   6.839   4.679 -0.2407  0.0915 -1.1523
 9125TIP3   OH227338   0.837   0.055   4.443  0.3328  0.2762  0.2306
 9125TIP3    H127339   0.908  -0.005   4.466 -0.4412 -1.6561 -2.0118
 9125TIP3    H227340   0.881   0.133   4.410  1.3652 -0.0052  0.8893
 9126TIP3   OH227341   5.440   5.338   2.295 -0.2297 -0.3030 -0.4571
 9126TIP3    H127342   5.464   5.246   2.281 -1.3383 -0.8439  0.9969
 9126TIP3    H227343   5.524   5.384   2.298  0.3423 -1.2695 -1.1118
 9127TIP3   OH227344   4.017   4.819   4.346 -0.5663  0.8167  0.1239
 9127TIP3    H127345   3.954   4.874   4.298 -1.7739 -0.1265  0.5711
 9127TIP3    H227346   4.021   4.857   4.433 -0.6030  0.8171  0.1255
 9128TIP3   OH227347   1.857   4.403   5.877 -0.4051 -0.8284 -0.5809
 9128TIP3    H127348   1.831   4.478   5.825 -0.2270 -0.1200  0.3343
 9128TIP3    H227349   1.871   4.438   5.965  1.3447 -1.6177 -0.5164
 9129TIP3   OH227350   4.196   2.967   1.634  0.2684  0.3624 -0.1392
 9129TIP3    H127351   4.254   3.012   1.696 -1.6937  1.4717  0.9779
 9129TIP3    H227352   4.240   2.884   1.617  0.6682 -0.2634  3.2189
 9130TIP3   OH227353   3.821   6.383   2.727  0.6684 -0.1898 -0.1097
 9130TIP3    H127354   3.816   6.364   2.820  0.9419  0.5063  0.0504
 9130TIP3    H227355   3.733   6.412   2.703 -0.0034 -2.4048 -0.5426
 9131TIP3   OH227356   4.406   6.304   5.677 -0.2493 -0.0830 -0.2551
 9131TIP3    H127357   4.421   6.398   5.688  0.2574 -0.1348 -0.4693
 9131TIP3    H227358   4.405   6.291   5.582 -3.2816  0.1572 -0.3758
 9132TIP3   OH227359   1.094   2.451   1.022  0.4864 -0.3775 -0.0739
 9132TIP3    H127360   1.176   2.401   1.013 -0.0135 -0.9674 -1.6456
 9132TIP3    H227361   1.028   2.396   0.980 -0.0775  1.6187 -1.9631
 9133TIP3   OH227362   2.686   2.854   1.040  0.2245 -0.7754  0.4276
 9133TIP3    H127363   2.605   2.905   1.046  0.0962 -1.0639  1.3554
 9133TIP3    H227364   2.756   2.919   1.034 -0.1254 -0.5097 -1.7256
 9134TIP3   OH227365   4.796   6.455   5.485  0.8721 -0.3012  0.0181
 9134TIP3    H127366   4.817   6.523   5.549  2.1316  0.6414 -1.3108
 9134TIP3    H227367   4.706   6.474   5.459  1.2992  1.1329 -0.5686
 9135TIP3   OH227368   2.096   1.772   3.757 -0.4184  0.6333  0.7730
 9135TIP3    H127369   2.106   1.867   3.769 -0.4030  0.3760  3.1781
 9135TIP3    H227370   2.073   1.739   3.844 -3.7335 -1.1857 -0.6153
 9136TIP3   OH227371   1.626   4.671   5.641 -0.5897  0.0058 -0.5168
 9136TIP3    H127372   1.659   4.693   5.728 -0.5979  0.8497 -0.7255
 9136TIP3    H227373   1.702   4.637   5.594 -0.5456 -0.2791 -0.2489
 9137TIP3   OH227374   1.049   4.113   4.167 -0.2959 -0.1746 -0.0585
 9137TIP3    H127375   1.068   4.142   4.078 -1.8863  0.0190 -0.3669
 9137TIP3    H227376   1.082   4.024   4.171  0.0348 -0.0885 -0.7471
 9138TIP3   OH227377   0.206   1.940   0.360  0.4783 -0.2661  0.1802
 9138TIP3    H127378   0.237   1.944   0.451  0.4290  1.6603  0.1683
 9138TIP3    H227379   0.189   2.032   0.337 -0.6888 -0.8273 -1.3834
 9139TIP3   OH227380   2.871   2.572   5.857  0.2015 -0.0897 -0.4090
 9139TIP3    H127381   2.776   2.563   5.856  0.1373  0.5785 -0.6494
 9139TIP3    H227382   2.904   2.482   5.866 -0.4356 -0.3967 -1.0622
 9140TIP3   OH227383   2.315   5.265   5.777 -0.1234  0.3561 -0.4619
 9140TIP3    H127384   2.225   5.282   5.806 -0.7125 -0.8572 -1.4585
 9140TIP3    H227385   2.360   5.349   5.787 -1.3469  0.9748  0.1154
 9141TIP3   OH227386   2.485   2.525   1.342  1.0123 -0.4929 -0.4614
 9141TIP3    H127387   2.419   2.558   1.281 -0.5394 -0.6991  1.0622
 9141TIP3    H227388   2.505   2.437   1.310  0.1532 -0.6317 -0.6251
 9142TIP3   OH227389   6.953   3.932   0.796  0.3010  0.0184  0.8208
 9142TIP3    H127390   7.027   3.878   0.824 -1.4826 -2.9210  0.3617
 9142TIP3    H227391   6.900   3.943   0.876  0.1984  0.3032  0.7137
 9143TIP3   OH227392   6.772   5.017   1.449 -0.3465  0.1713  0.1423
 9143TIP3    H127393   6.751   5.083   1.515  0.3020  0.3652  0.1662
 9143TIP3    H227394   6.803   5.067   1.374  0.0714 -0.0936  0.1307
 9144TIP3   OH227395   4.205   4.141   5.602 -0.0212  0.4968  0.0494
 9144TIP3    H127396   4.125   4.148   5.550  0.1474 -1.5251 -0.5585
 9144TIP3    H227397   4.269   4.194   5.554 -0.7881  1.6296  0.2111
 9145TIP3   OH227398   1.302   3.255   3.466  0.2135  0.2967  0.4090
 9145TIP3    H127399   1.287   3.317   3.537  0.8165 -0.3673  1.1305
 9145TIP3    H227400   1.233   3.189   3.475 -1.0986  1.3954 -1.0168
 9146TIP3   OH227401   4.620   6.029   0.890  0.4047  0.0504  0.1652
 9146TIP3    H127402   4.660   5.974   0.957 -1.6314 -0.7382  0.8378
 9146TIP3    H227403   4.691   6.050   0.830  2.2550  0.5491  2.3895
 9147TIP3   OH227404   1.265   3.659   3.122 -0.2195  0.1769 -0.5066
 9147TIP3    H127405   1.303   3.745   3.139  0.1875  0.1150 -1.0903
 9147TIP3    H227406   1.339   3.603   3.103 -0.3164 -0.7646  1.6615
 9148TIP3   OH227407   2.513   2.503   3.788  0.1326  0.2358  0.0461
 9148TIP3    H127408   2.459   2.582   3.789 -0.5060 -0.1901  0.3370
 9148TIP3    H227409   2.603   2.535   3.786  0.0443  1.0587  3.4499
 9149TIP3   OH227410   3.954   5.547   4.587  0.0091 -0.4601  0.5051
 9149TIP3    H127411   3.896   5.617   4.614 -0.2043 -0.8693  1.1336
 9149TIP3    H227412   3.978   5.502   4.669  0.3491 -0.9560  0.1453
 9150TIP3   OH227413   4.968   3.779   3.038 -0.6763 -0.4366  0.1261
 9150TIP3    H127414   5.020   3.790   2.958  0.1692  0.0352  0.7087
 9150TIP3    H227415   4.977   3.687   3.060  0.6905 -0.1893  0.7013
 9151TIP3   OH227416   0.450   5.924   3.560 -0.2391 -0.1935 -0.2084
 9151TIP3    H127417   0.485   6.006   3.526 -2.0479  0.5223 -0.4544
 9151TIP3    H227418   0.488   5.916   3.648  1.0064  0.1912 -0.6953
 9152TIP3   OH227419   6.910   6.709   3.456  0.4406  0.1241 -0.4383
 9152TIP3    H127420   6.919   6.773   3.386 -0.9363  0.8794  0.0512
 9152TIP3    H227421   6.825   6.727   3.496 -0.0296 -2.0225 -0.3076
 9153TIP3   OH227422   2.919   2.639   3.082  0.1983 -0.0785 -0.4016
 9153TIP3    H127423   2.976   2.668   3.154  0.6283 -0.1429 -0.7170
 9153TIP3    H227424   2.948   2.550   3.062 -0.8537 -0.6006  0.2887
 9154TIP3   OH227425   4.240   6.231   0.699 -0.1323  0.6408  0.0897
 9154TIP3    H127426   4.307   6.263   0.638 -1.9687  2.2988 -1.1791
 9154TIP3    H227427   4.288   6.212   0.779  1.8527  1.8652 -0.7345
 9155TIP3   OH227428   5.363   1.109   0.057  0.5330  0.3367 -0.0875
 9155TIP3    H127429   5.271   1.086   0.068  0.2841  0.2628 -1.9312
 9155TIP3    H227430   5.375   1.189   0.107 -0.6702  0.6451 -0.2784
 9156TIP3   OH227431   3.737   0.095   4.800  0.1799  0.0789  0.0133
 9156TIP3    H127432   3.698   0.050   4.726  1.2555  1.2746 -1.3316
 9156TIP3    H227433   3.687   0.176   4.808 -0.3657 -0.3353  1.0641
 9157TIP3   OH227434   0.841   0.472   2.296 -0.4367  0.4691  0.0093
 9157TIP3    H127435   0.792   0.536   2.243 -1.5572 -0.8807 -0.6382
 9157TIP3    H227436   0.789   0.392   2.290  0.3354 -0.1929  1.7557
 9158TIP3   OH227437   6.807   5.359   2.259  0.0184 -0.0088 -0.6781
 9158TIP3    H127438   6.739   5.313   2.211  1.1750 -2.1515 -0.4002
 9158TIP3    H227439   6.762   5.400   2.333 -0.9190 -1.8291 -0.1906
 9159TIP3   OH227440   6.358   0.451   5.147 -0.1438 -0.0747 -0.2142
 9159TIP3    H127441   6.435   0.505   5.134 -0.2142  0.2615  0.6475
 9159TIP3    H227442   6.321   0.482   5.230 -1.1578 -0.2788 -0.5731
 9160TIP3   OH227443   6.504   6.127   5.606  0.2701 -0.0770 -0.0329
 9160TIP3    H127444   6.518   6.068   5.531  2.7184 -2.0028  1.7627
 9160TIP3    H227445   6.583   6.181   5.609 -0.8570  1.6555 -0.1679
 9161TIP3   OH227446   4.885   2.263   0.674  0.5614  0.0355  0.1721
 9161TIP3    H127447   4.934   2.343   0.656  2.2177 -1.2971 -1.4831
 9161TIP3    H227448   4.810   2.267   0.615  0.1009  0.7929  0.7862
 9162TIP3   OH227449   3.931   6.773   4.603 -0.4051  0.0937 -0.0490
 9162TIP3    H127450   3.911   6.860   4.636 -2.0728 -0.3176  0.1083
 9162TIP3    H227451   3.894   6.771   4.515  2.0043  0.4084 -1.1556
 9163TIP3   OH227452   1.334   3.147   2.537 -0.5547  0.8918 -0.0649
 9163TIP3    H127453   1.356   3.188   2.621 -1.5823  2.4608 -0.5136
 9163TIP3    H227454   1.346   3.217   2.473 -1.3833  0.1871 -1.0062
 9164TIP3   OH227455   1.752   0.779   1.029  0.1310 -0.0214 -0.7198
 9164TIP3    H127456   1.758   0.826   1.112 -1.0183 -1.0101 -0.0355
 9164TIP3    H227457   1.702   0.837   0.972  1.9241  1.1666 -1.1316
 9165TIP3   OH227458   0.199   2.713   0.681 -0.2980  0.5882 -0.0468
 9165TIP3    H127459   0.211   2.717   0.776 -0.8634  1.4825 -0.0029
 9165TIP3    H227460   0.146   2.634   0.667  0.2727  0.1326  0.3181
 9166TIP3   OH227461   0.054   0.740   1.608 -0.4700 -0.0521 -0.2450
 9166TIP3    H127462  -0.004   0.675   1.567  0.4658 -0.6194 -0.7064
 9166TIP3    H227463   0.083   0.698   1.689 -1.0114  0.4000  0.1947
 9167TIP3   OH227464   1.711   0.009   4.931 -0.3548  0.1203 -0.3889
 9167TIP3    H127465   1.775   0.075   4.905  2.1671 -1.6950  0.8154
 9167TIP3    H227466   1.714  -0.056   4.861  0.9266 -1.1250  0.7828
 9168TIP3   OH227467   4.556   4.801   2.274 -0.7612 -0.3065 -0.7172
 9168TIP3    H127468   4.578   4.771   2.362  1.4872 -2.1069 -1.7790
 9168TIP3    H227469   4.461   4.802   2.272 -0.8794  0.4569  1.9158
 9169TIP3   OH227470   2.291   3.574   2.042  0.0602  0.6852  0.3993
 9169TIP3    H127471   2.341   3.602   2.118 -0.7169  1.6766  0.5683
 9169TIP3    H227472   2.269   3.656   1.996 -0.7874  0.2279 -0.0414
 9170TIP3   OH227473   1.885   3.246   2.499 -0.0340  0.1736  0.1962
 9170TIP3    H127474   1.804   3.251   2.447  1.4947 -1.1050 -2.5150
 9170TIP3    H227475   1.932   3.326   2.478  0.4915 -0.2378 -0.2003
 9171TIP3   OH227476   4.572   1.429   0.877  0.1663  0.9895  0.1732
 9171TIP3    H127477   4.487   1.473   0.874 -0.5302 -0.2863  0.7943
 9171TIP3    H227478   4.553   1.337   0.860  1.3674  0.6062  0.7624
 9172TIP3   OH227479   4.693   0.194   1.934  0.2950  0.9066  0.1473
 9172TIP3    H127480   4.687   0.110   1.979 -0.2749  0.7207 -0.2683
 9172TIP3    H227481   4.674   0.259   2.002 -2.3748  0.5555 -0.1466
 9173TIP3   OH227482   3.895   2.454   5.747 -0.1851 -0.5278 -0.4806
 9173TIP3    H127483   3.844   2.463   5.667 -2.1303 -1.1143  0.6225
 9173TIP3    H227484   3.955   2.381   5.729 -0.4185 -0.4855 -1.4823
 9174TIP3   OH227485   0.024   1.006   2.599  0.4763 -0.1694  0.0820
 9174TIP3    H127486   0.079   1.006   2.678 -0.8262 -2.4549  1.0924
 9174TIP3    H227487   0.070   1.062   2.537  2.0272  0.9601  2.1412
 9175TIP3   OH227488   3.585   4.261   2.358 -0.2570 -0.4235  0.4111
 9175TIP3    H127489   3.503   4.261   2.310  0.3907  1.7568 -0.8894
 9175TIP3    H227490   3.591   4.350   2.395  1.7271 -0.3293 -0.0019
 9176TIP3   OH227491   0.709   0.367   0.898  0.0019 -0.4737  0.3407
 9176TIP3    H127492   0.690   0.418   0.820  0.5259 -1.1407 -0.2347
 9176TIP3    H227493   0.642   0.393   0.961 -0.6563 -0.2151 -0.4540
 9177TIP3   OH227494   6.462   1.682   5.847 -0.5997 -0.2446  0.4716
 9177TIP3    H127495   6.464   1.678   5.942  0.9086  0.6453  0.5127
 9177TIP3    H227496   6.369   1.684   5.825 -0.9711 -0.7057  1.9021
 9178TIP3   OH227497   1.325   2.162   3.300 -0.0128 -0.7934 -0.6047
 9178TIP3    H127498   1.289   2.202   3.379  1.6659  0.0267 -0.2237
 9178TIP3    H227499   1.256   2.102   3.270  0.3902 -3.3898  3.0830
 9179TIP3   OH227500   0.926   0.973   0.550  0.4178  0.1669 -0.3790
 9179TIP3    H127501   0.937   1.026   0.471  1.8115  0.0313 -0.2981
 9179TIP3    H227502   0.973   0.892   0.531 -1.5064 -0.9997 -0.4145
 9180TIP3   OH227503   0.971   0.042   0.920 -0.6852  1.0205  0.6983
 9180TIP3    H127504   0.958  -0.027   0.985 -0.4657 -1.2142 -1.4767
 9180TIP3    H227505   1.002   0.117   0.971  0.2305 -0.8219  3.0818
 9181TIP3   OH227506   2.178   4.917   3.883 -0.1177 -0.2060 -0.0394
 9181TIP3    H127507   2.231   4.841   3.859  0.4621 -0.1071  0.8805
 9181TIP3    H227508   2.091   4.897   3.848 -0.0079 -1.3488  0.2721
 9182TIP3   OH227509   2.961   6.480   5.627  0.0708  0.1223 -0.6476
 9182TIP3    H127510   3.035   6.536   5.651  1.7602 -2.3192  0.2206
 9182TIP3    H227511   3.001   6.405   5.583 -1.7613 -1.7791  0.7430
 9183TIP3   OH227512   3.535   3.696   4.102 -0.5083 -0.5817 -0.0156
 9183TIP3    H127513   3.440   3.707   4.103 -0.2299  2.8272  1.0759
 9183TIP3    H227514   3.566   3.752   4.173  2.3207 -2.2939  0.2513
 9184TIP3   OH227515   0.939   0.468   1.748  0.4479  0.0141  0.4069
 9184TIP3    H127516   0.994   0.394   1.775 -0.9808 -1.5137 -0.6529
 9184TIP3    H227517   0.854   0.451   1.789  0.6662  2.3310  2.0240
 9185TIP3   OH227518   5.638   5.838   0.892 -0.2084 -0.1855  0.3685
 9185TIP3    H127519   5.721   5.834   0.843 -1.3947  0.3864 -1.8169
 9185TIP3    H227520   5.618   5.931   0.897 -1.1595 -0.3681  0.0756
 9186TIP3   OH227521   1.154   3.939   1.174  0.8783  0.6657 -0.5791
 9186TIP3    H127522   1.138   3.864   1.118  1.2122 -0.4615  0.7833
 9186TIP3    H227523   1.246   3.961   1.158  0.4968  1.5216 -1.7889
 9187TIP3   OH227524   0.166   4.375   1.874 -0.3002 -0.4408  0.5454
 9187TIP3    H127525   0.162   4.357   1.780  2.0787  0.1869  0.2600
 9187TIP3    H227526   0.191   4.468   1.879  0.9771 -0.8242  1.7589
 9188TIP3   OH227527   6.564   6.546   1.244  0.1973 -0.2647 -0.0411
 9188TIP3    H127528   6.653   6.581   1.251 -0.3351  1.1209  0.1461
 9188TIP3    H227529   6.507   6.623   1.252 -0.9856 -0.9326 -1.4691
 9189TIP3   OH227530   6.261   5.601   1.566  0.1322  0.5477  0.3944
 9189TIP3    H127531   6.301   5.524   1.526 -3.0095 -0.7454 -0.5410
 9189TIP3    H227532   6.209   5.567   1.638  1.5964  2.2953  2.3925
 9190TIP3   OH227533   7.127   3.538   3.009 -0.5231 -0.5037  0.1812
 9190TIP3    H127534   7.084   3.595   2.945  0.4966  0.3376  0.2214
 9190TIP3    H227535   7.056   3.497   3.057 -1.2896 -0.2570 -0.7277
 9191TIP3   OH227536   2.771   2.611   3.537 -0.1726  0.7754 -0.4009
 9191TIP3    H127537   2.777   2.517   3.520  1.2761  0.9118 -0.7361
 9191TIP3    H227538   2.859   2.636   3.565 -0.9338  1.7541  1.2698
 9192TIP3   OH227539   0.025   2.204   4.422 -0.0252  0.4717 -0.4638
 9192TIP3    H127540   0.010   2.230   4.331 -1.1139  0.8960 -0.1883
 9192TIP3    H227541   0.120   2.199   4.430  0.1239  1.3109 -1.3922
 9193TIP3   OH227542   3.055   4.160   1.968  0.2231 -0.0273  0.3296
 9193TIP3    H127543   3.082   4.240   1.925 -0.3410 -0.6375 -1.2371
 9193TIP3    H227544   3.089   4.090   1.913 -2.3581 -0.8305 -0.4051
 9194TIP3   OH227545   7.013   0.019   0.810 -0.1573  0.2114  0.5229
 9194TIP3    H127546   7.062   0.095   0.843  0.3272 -0.3082  1.0306
 9194TIP3    H227547   6.997   0.039   0.718  1.3910  0.2242  0.2210
 9195TIP3   OH227548   3.812   5.002   4.280  0.3247  1.1751 -0.3350
 9195TIP3    H127549   3.887   5.032   4.229 -0.2048  1.5579 -0.8884
 9195TIP3    H227550   3.790   5.076   4.337  0.6895  0.8751  0.2113
 9196TIP3   OH227551   5.743   3.722   5.413 -0.9715 -0.0038 -0.0366
 9196TIP3    H127552   5.650   3.720   5.435 -1.1996 -0.5117 -0.9858
 9196TIP3    H227553   5.746   3.702   5.319 -0.0927  2.3571 -0.5887
 9197TIP3   OH227554   1.406   2.513   5.556  0.0723  0.0315 -1.0963
 9197TIP3    H127555   1.319   2.540   5.585  1.6219  3.2197  1.2823
 9197TIP3    H227556   1.416   2.424   5.590 -1.8875 -0.0761 -0.6623
 9198TIP3   OH227557   3.479   5.743   3.114 -0.5794  0.1792  0.3385
 9198TIP3    H127558   3.494   5.837   3.119 -3.4766  0.6704  1.6071
 9198TIP3    H227559   3.527   5.707   3.189  0.8429  0.5319 -0.3596
 9199TIP3   OH227560   2.000   1.173   0.165 -0.0028  0.0212  0.6902
 9199TIP3    H127561   1.996   1.121   0.245  0.1752 -0.9839  0.0567
 9199TIP3    H227562   2.018   1.110   0.096 -0.5142  0.8229 -0.2012
 9200TIP3   OH227563   2.155   5.584   5.866 -0.5802  0.3212  0.5991
 9200TIP3    H127564   2.115   5.501   5.842  0.3428 -0.2685  1.0350
 9200TIP3    H227565   2.197   5.567   5.951  0.3618  0.9784  0.2872
 9201TIP3   OH227566   5.934   3.299   3.684 -0.1923 -0.3713 -0.0622
 9201TIP3    H127567   6.022   3.334   3.669  0.2928 -1.1238  0.9139
 9201TIP3    H227568   5.912   3.252   3.604  0.9021 -1.3814  0.1982
 9202TIP3   OH227569   6.848   6.402   0.144  0.6747 -0.1643  0.2555
 9202TIP3    H127570   6.901   6.429   0.219  1.9882 -1.9626  0.0351
 9202TIP3    H227571   6.785   6.473   0.133  2.3632  1.5737  1.1662
 9203TIP3   OH227572   4.599   2.130   3.945  0.0942 -0.1974 -0.5778
 9203TIP3    H127573   4.600   2.123   4.041  0.6909 -2.0337 -0.6856
 9203TIP3    H227574   4.510   2.104   3.920  0.4135 -1.3389 -0.5907
 9204TIP3   OH227575   5.762   2.144   5.830  0.0965 -0.5458  0.3431
 9204TIP3    H127576   5.799   2.135   5.919  1.0374 -2.0298 -0.1493
 9204TIP3    H227577   5.820   2.207   5.787 -1.5546  1.7633  1.3364
 9205TIP3   OH227578   0.598   3.935   3.111 -0.0509 -0.0441 -0.6129
 9205TIP3    H127579   0.529   3.920   3.176 -0.8501 -0.0304 -1.4224
 9205TIP3    H227580   0.618   3.848   3.077 -0.9199  0.1003 -1.5818
 9206TIP3   OH227581   6.661   0.179   0.528 -0.4375  0.5937 -0.0417
 9206TIP3    H127582   6.686   0.090   0.551 -0.3722  0.9666  1.5136
 9206TIP3    H227583   6.698   0.194   0.441  1.2200 -0.2533  0.4804
 9207TIP3   OH227584   0.684   6.498   4.012 -0.1704 -0.2007 -0.1074
 9207TIP3    H127585   0.748   6.462   3.951  0.2699  2.5305 -1.4117
 9207TIP3    H227586   0.678   6.433   4.082  0.7277 -2.5746 -2.0865
 9208TIP3   OH227587   3.887   6.786   1.423 -0.0387 -0.1567  0.5023
 9208TIP3    H127588   3.904   6.804   1.516 -0.4719  0.2662  0.5095
 9208TIP3    H227589   3.844   6.701   1.422  1.4382 -0.9387  0.5361
 9209TIP3   OH227590   5.335   1.121   5.329  0.7676 -0.2538  0.0883
 9209TIP3    H127591   5.386   1.161   5.399 -0.6088 -1.6380  1.9816
 9209TIP3    H227592   5.244   1.141   5.351  0.3295  0.4585 -2.1095
 9210TIP3   OH227593   6.963   1.498   3.643 -0.2050  0.2058 -0.1990
 9210TIP3    H127594   6.888   1.533   3.594 -1.7612  0.3523  2.1072
 9210TIP3    H227595   6.999   1.430   3.587 -0.2728  2.0154 -2.5985
 9211TIP3   OH227596   5.254   1.498   4.068 -0.4540  0.0772  0.6995
 9211TIP3    H127597   5.329   1.558   4.072 -1.4716  1.3537  2.1783
 9211TIP3    H227598   5.260   1.447   4.149  0.1233 -1.5163 -0.3175
 9212TIP3   OH227599   4.574   5.366   2.578 -0.0876 -0.0379  0.2675
 9212TIP3    H127600   4.556   5.381   2.485 -0.7336  1.5449  0.6070
 9212TIP3    H227601   4.650   5.308   2.579 -1.2312 -1.6686 -1.2439
 9213TIP3   OH227602   1.274   4.130   0.779 -0.1878  0.5348  0.3062
 9213TIP3    H127603   1.307   4.138   0.868 -0.6920 -0.7941  0.6288
 9213TIP3    H227604   1.196   4.076   0.786  1.0843 -1.6598 -1.1966
 9214TIP3   OH227605   1.709   5.074   1.890 -0.3509  0.5232  0.3442
 9214TIP3    H127606   1.622   5.035   1.882 -0.6770  1.6105 -2.5471
 9214TIP3    H227607   1.767   5.009   1.850  0.4505 -0.6708  3.1760
 9215TIP3   OH227608   5.263   3.135   1.527  0.4841 -0.2871  0.0382
 9215TIP3    H127609   5.270   3.218   1.481 -1.5103  0.6288  1.2463
 9215TIP3    H227610   5.175   3.136   1.565  1.1340 -2.0596  1.7616
 9216TIP3   OH227611   6.271   1.052   2.679 -0.0056 -0.0698 -0.2205
 9216TIP3    H127612   6.333   1.075   2.610  0.9961 -2.9412 -0.3993
 9216TIP3    H227613   6.186   1.051   2.635  0.6618 -2.2513 -1.6457
 9217TIP3   OH227614   3.210   2.935   3.319  0.3764 -0.1012  0.0577
 9217TIP3    H127615   3.256   2.994   3.379  1.0839 -1.6233  1.0465
 9217TIP3    H227616   3.178   2.993   3.249  1.1047  1.4373  0.9506
 9218TIP3   OH227617   2.218   2.893   0.836  0.6693  0.3499  0.6914
 9218TIP3    H127618   2.135   2.925   0.799  1.6172  1.9031 -0.1894
 9218TIP3    H227619   2.201   2.801   0.856 -1.6338  0.9138  1.6639
 9219TIP3   OH227620   1.920   2.364   4.526  0.0206  0.4972 -0.0964
 9219TIP3    H127621   1.959   2.358   4.613  1.9068  0.3374 -0.9063
 9219TIP3    H227622   1.834   2.405   4.541 -0.2943 -0.7542  1.9660
 9220TIP3   OH227623   4.165   2.214   5.183  1.1813 -0.2490  0.0281
 9220TIP3    H127624   4.119   2.221   5.266  1.0702  0.1315 -0.0646
 9220TIP3    H227625   4.250   2.255   5.198  1.1953 -0.2588 -0.0227
 9221TIP3   OH227626   5.822   4.636   2.972 -0.3154  0.2027 -0.4324
 9221TIP3    H127627   5.789   4.594   2.893 -2.9971  1.0223  0.1616
 9221TIP3    H227628   5.840   4.726   2.946 -2.3061  0.7948  0.0685
 9222TIP3   OH227629   1.176   4.919   3.031  0.0529  0.8499  0.1286
 9222TIP3    H127630   1.130   4.993   3.072 -0.9339 -0.6051  1.7583
 9222TIP3    H227631   1.210   4.868   3.104 -0.0492 -0.7977 -0.9269
 9223TIP3   OH227632   1.290   2.716   1.588  0.0535  0.5738 -0.7810
 9223TIP3    H127633   1.322   2.805   1.573 -0.1124  0.4740 -1.7627
 9223TIP3    H227634   1.369   2.664   1.603  0.1622  0.8408 -0.4006
 9224TIP3   OH227635   7.229   2.552   4.865  0.4844  0.1574  0.2914
 9224TIP3    H127636   7.179   2.632   4.849  1.1404  0.4525 -0.3373
 9224TIP3    H227637   7.170   2.481   4.843  0.0943  0.4813  0.2905
 9225TIP3   OH227638   4.890   1.892   3.225 -0.2672 -0.1359  0.0365
 9225TIP3    H127639   4.983   1.909   3.241 -0.6680  2.0503  0.3184
 9225TIP3    H227640   4.851   1.887   3.312 -0.5259 -0.5067 -0.0949
 9226TIP3   OH227641   1.461   3.315   5.596 -0.1147 -0.2455  0.5037
 9226TIP3    H127642   1.458   3.220   5.583  0.6728 -0.5623  2.2899
 9226TIP3    H227643   1.370   3.343   5.591 -0.3174 -1.0101 -0.4592
 9227TIP3   OH227644   6.141   1.994   4.866  0.0577 -0.4233 -0.3648
 9227TIP3    H127645   6.214   2.035   4.912  0.1680  0.5535 -1.3519
 9227TIP3    H227646   6.117   2.057   4.799 -2.4130 -0.2444  0.5922
 9228TIP3   OH227647   6.431   0.846   3.869 -0.7594 -0.1837  0.1511
 9228TIP3    H127648   6.375   0.820   3.796  0.5950 -0.1072 -0.9586
 9228TIP3    H227649   6.487   0.915   3.833  0.7215 -0.9455  0.9178
 9229TIP3   OH227650   6.110   4.755   0.453 -0.6152  0.0045 -0.0133
 9229TIP3    H127651   6.032   4.706   0.480  0.5916 -1.2971  1.2205
 9229TIP3    H227652   6.121   4.822   0.520 -0.8017  0.3708 -0.3389
 9230TIP3   OH227653   2.350   3.223   5.148  0.3953  0.0367 -0.0903
 9230TIP3    H127654   2.298   3.255   5.221  0.0113  1.4539 -0.9394
 9230TIP3    H227655   2.423   3.285   5.141  0.1498  0.2214 -1.2096
 9231TIP3   OH227656   4.704   5.491   2.137 -0.0962  0.4851 -0.3480
 9231TIP3    H127657   4.714   5.424   2.070  1.0876  1.0597 -0.7762
 9231TIP3    H227658   4.777   5.551   2.122  1.3917 -0.3886  2.6526
 9232TIP3   OH227659   3.947   3.558   4.360 -0.0632  0.0585 -0.7834
 9232TIP3    H127660   3.911   3.627   4.416 -0.9374 -0.6577 -0.4193
 9232TIP3    H227661   3.872   3.501   4.342  1.0648 -2.1111  0.8965
 9233TIP3   OH227662   5.405   3.272   0.486  0.6127  0.4762 -0.6495
 9233TIP3    H127663   5.499   3.262   0.498  0.6453  1.0902 -0.3198
 9233TIP3    H227664   5.380   3.337   0.553 -0.1677 -0.2629 -0.2049
 9234TIP3   OH227665   4.199   1.845   4.568 -0.5424  0.0674 -0.0754
 9234TIP3    H127666   4.246   1.900   4.505  1.3282 -1.1409  0.1992
 9234TIP3    H227667   4.107   1.870   4.557 -0.1876  0.5387 -2.6541
 9235TIP3   OH227668   0.121   4.302   0.741  0.3418  0.3115  0.1234
 9235TIP3    H127669   0.059   4.359   0.787  1.9873  0.3375  2.4647
 9235TIP3    H227670   0.132   4.226   0.799  2.3807  0.2600 -0.2576
 9236TIP3   OH227671   5.946   1.693   2.591  0.0267  0.5231 -0.0533
 9236TIP3    H127672   6.039   1.691   2.614 -0.1875  1.8179  1.0322
 9236TIP3    H227673   5.918   1.602   2.596  1.5381 -0.0877 -1.7994
 9237TIP3   OH227674   1.809   2.421   1.681  0.5946  0.2948 -0.8811
 9237TIP3    H127675   1.738   2.486   1.682 -0.0280 -0.3143  1.2224
 9237TIP3    H227676   1.887   2.471   1.704  0.1836  0.3982  0.3683
 9238TIP3   OH227677   2.529   4.788   3.206  0.2118 -0.6292  0.1015
 9238TIP3    H127678   2.434   4.798   3.213  0.3859 -0.2028  2.9628
 9238TIP3    H227679   2.546   4.702   3.243  0.9545 -0.8373 -0.6884
 9239TIP3   OH227680   4.454   5.281   2.052  0.0402 -0.6260  0.1935
 9239TIP3    H127681   4.510   5.255   1.979 -0.5756  0.4735 -0.7004
 9239TIP3    H227682   4.366   5.282   2.015 -0.2989 -0.1754  0.9892
 9240TIP3   OH227683   4.199   5.063   2.862  0.4395  0.2373  0.1361
 9240TIP3    H127684   4.274   5.104   2.820 -0.0349  0.5131 -0.4552
 9240TIP3    H227685   4.123   5.095   2.813  0.0449 -1.3245 -0.3364
 9241TIP3   OH227686   6.870   0.944   0.328  0.2567 -0.1283  0.3247
 9241TIP3    H127687   6.840   0.883   0.394  0.7672 -0.9570 -0.1907
 9241TIP3    H227688   6.946   0.987   0.368 -0.7588  1.0177  1.1174
 9242TIP3   OH227689   3.181   4.374   1.890  0.3614  0.2705 -0.5061
 9242TIP3    H127690   3.149   4.385   1.800 -0.6109  1.9908  0.0166
 9242TIP3    H227691   3.167   4.459   1.931 -1.3254 -1.1088  1.9488
 9243TIP3   OH227692   6.476   6.723   5.175  0.0453 -0.2857 -0.6463
 9243TIP3    H127693   6.536   6.754   5.242  0.0287  0.4838 -0.9806
 9243TIP3    H227694   6.519   6.742   5.092  0.1312 -1.3670 -0.8654
 9244TIP3   OH227695   6.248   3.297   2.646 -0.1487  0.5380 -0.1259
 9244TIP3    H127696   6.164   3.268   2.610 -0.2050  2.4475 -1.6764
 9244TIP3    H227697   6.226   3.361   2.713  0.0530  0.4352  0.0411
 9245TIP3   OH227698   7.075   5.071   1.616 -0.3840  0.1126  0.3497
 9245TIP3    H127699   7.052   5.147   1.563 -0.2534 -0.0432  0.0693
 9245TIP3    H227700   6.996   5.052   1.667 -0.0492  1.1707  1.3183
 9246TIP3   OH227701   1.431   5.983   1.848  0.3763 -0.3216  0.1037
 9246TIP3    H127702   1.390   5.979   1.934 -0.1059  1.3834 -0.0072
 9246TIP3    H227703   1.525   5.978   1.866  0.2550 -0.5732  0.6820
 9247TIP3   OH227704   0.795   6.649   4.337  0.8030 -0.2814 -0.1877
 9247TIP3    H127705   0.825   6.599   4.413  2.0750  0.4490 -0.1848
 9247TIP3    H227706   0.873   6.695   4.306 -0.0588  0.6968 -0.9675
 9248TIP3   OH227707   2.380   1.649   3.643  0.1432  0.3655  0.4518
 9248TIP3    H127708   2.290   1.633   3.615 -0.5160  3.7849  0.3054
 9248TIP3    H227709   2.411   1.563   3.672 -3.0022 -1.0083  0.1251
 9249TIP3   OH227710   0.473   0.039   0.576  0.1284 -0.2130 -0.6447
 9249TIP3    H127711   0.525   0.088   0.640 -1.5934  0.4406  0.3122
 9249TIP3    H227712   0.458  -0.046   0.618 -1.5117  0.4243  0.1678
 9250TIP3   OH227713   2.379   3.721   1.794  0.1481  0.0213 -0.1703
 9250TIP3    H127714   2.290   3.751   1.780 -0.0279 -1.0648 -1.5920
 9250TIP3    H227715   2.423   3.794   1.837 -1.7387  0.0874  1.7707
 9251TIP3   OH227716   5.306   6.412   3.466 -0.2441 -0.3163 -0.3593
 9251TIP3    H127717   5.285   6.483   3.526  1.0134 -1.3719  1.4367
 9251TIP3    H227718   5.394   6.384   3.492  0.5860 -0.4947 -3.0624
 9252TIP3   OH227719   3.432   0.507   4.183  0.0466 -0.1987  0.0310
 9252TIP3    H127720   3.347   0.543   4.208  0.5389 -0.6171  2.6061
 9252TIP3    H227721   3.475   0.488   4.267  1.5968 -2.5487 -1.2020
 9253TIP3   OH227722   5.660   3.606   0.667  0.5944  0.3336 -0.4864
 9253TIP3    H127723   5.576   3.567   0.640 -0.0187  0.5964  0.9668
 9253TIP3    H227724   5.712   3.609   0.586 -0.7915  0.1768 -1.4161
 9254TIP3   OH227725   1.320   0.912   4.238  0.0107  0.0534  0.3038
 9254TIP3    H127726   1.316   0.961   4.320  0.0215 -0.4606  0.6174
 9254TIP3    H227727   1.234   0.869   4.233 -0.7456  1.5904 -0.9163
 9255TIP3   OH227728   5.001   2.592   3.555 -0.0795  0.6020 -0.6035
 9255TIP3    H127729   4.980   2.519   3.496  0.5072 -0.1851  0.1504
 9255TIP3    H227730   5.074   2.561   3.608  0.5753  1.9591 -0.6651
 9256TIP3   OH227731   3.226   2.114   0.809 -0.1709 -0.0479  0.5629
 9256TIP3    H127732   3.256   2.204   0.795 -0.0220 -0.2275 -0.3590
 9256TIP3    H227733   3.213   2.079   0.720 -0.5702 -0.8191  0.9162
 9257TIP3   OH227734   4.882   6.270   4.431  0.2543 -0.3752 -0.1770
 9257TIP3    H127735   4.854   6.184   4.461  1.7262 -0.1230  2.2099
 9257TIP3    H227736   4.802   6.323   4.433 -0.4918 -1.4412 -0.8550
 9258TIP3   OH227737   5.389   0.048   4.023  0.5088 -0.3571 -0.1265
 9258TIP3    H127738   5.347   0.115   3.969  1.3814 -0.1179 -0.5136
 9258TIP3    H227739   5.354  -0.035   3.989 -0.5939 -0.1108  0.3713
 9259TIP3   OH227740   6.043   0.984   0.970 -0.1623 -0.3289 -0.3051
 9259TIP3    H127741   5.965   1.037   0.988  1.4520  1.7505  1.0668
 9259TIP3    H227742   6.017   0.894   0.992 -1.6485  0.5570  1.8940
 9260TIP3   OH227743   4.449   1.185   5.027 -0.0218  0.7131  0.1164
 9260TIP3    H127744   4.365   1.166   4.987 -0.3842  1.9324  0.2508
 9260TIP3    H227745   4.513   1.171   4.958 -0.3397 -0.1183 -0.0148
 9261TIP3   OH227746   0.763   4.268   3.791  0.1299 -0.3373  0.5945
 9261TIP3    H127747   0.740   4.175   3.798 -1.6499 -0.0122 -0.4021
 9261TIP3    H227748   0.809   4.275   3.707 -1.1749 -0.0855 -0.1249
 9262TIP3   OH227749   0.759   5.291   5.460  0.3058 -0.0445  0.2674
 9262TIP3    H127750   0.828   5.273   5.396  0.3194 -0.8893  0.5163
 9262TIP3    H227751   0.697   5.347   5.413  0.3765 -0.5604 -0.4505
 9263TIP3   OH227752   4.411   0.255   3.537 -0.2761 -0.4683 -0.2316
 9263TIP3    H127753   4.384   0.174   3.581 -0.8754 -0.4785 -0.6039
 9263TIP3    H227754   4.334   0.282   3.487 -0.5325  1.0450  0.9230
 9264TIP3   OH227755   0.030   4.840   4.168 -0.1162  0.1679  0.3695
 9264TIP3    H127756   0.021   4.828   4.073  1.6901 -0.2829  0.2146
 9264TIP3    H227757   0.088   4.769   4.195  1.3887  1.7069  1.4009
 9265TIP3   OH227758   4.538   2.393   4.035  0.2535 -0.0842  0.6214
 9265TIP3    H127759   4.532   2.478   4.078 -1.6749 -0.7409  1.8090
 9265TIP3    H227760   4.504   2.331   4.100  0.6890 -1.6294 -0.5590
 9266TIP3   OH227761   5.711   3.160   2.270  0.1771 -0.0411  0.0689
 9266TIP3    H127762   5.650   3.162   2.197 -0.4090  1.5414  0.5635
 9266TIP3    H227763   5.792   3.125   2.232 -0.4050 -0.1772 -1.0968
 9267TIP3   OH227764   2.754   0.104   0.291  0.1663  0.0966 -0.3453
 9267TIP3    H127765   2.690   0.172   0.272  0.6235  0.6116 -0.0611
 9267TIP3    H227766   2.796   0.085   0.207 -0.0983  0.0171 -0.4615
 9268TIP3   OH227767   4.475   4.724   1.520 -0.6343  0.3178 -0.2136
 9268TIP3    H127768   4.439   4.758   1.438 -1.7756  1.9439  0.9035
 9268TIP3    H227769   4.437   4.636   1.528 -2.6286  1.1338 -0.1821
 9269TIP3   OH227770   4.499   0.116   1.202 -0.1372  0.0326 -0.6176
 9269TIP3    H127771   4.539   0.162   1.276 -0.0532  1.2357 -1.3834
 9269TIP3    H227772   4.510   0.176   1.128 -1.9825 -0.2717 -1.1786
 9270TIP3   OH227773   4.694   4.506   3.274 -0.3819 -0.1058  0.1473
 9270TIP3    H127774   4.606   4.541   3.286 -0.8100 -1.0233 -0.1705
 9270TIP3    H227775   4.682   4.411   3.276  0.4606 -0.2469 -0.9042
 9271TIP3   OH227776   1.107   5.193   5.796 -0.0689 -0.1020  0.9085
 9271TIP3    H127777   1.076   5.133   5.864  0.3634  0.3080  1.4724
 9271TIP3    H227778   1.188   5.230   5.831 -0.0971  0.4828  0.3768
 9272TIP3   OH227779   6.230   0.051   2.315  0.6076 -0.1992 -0.1241
 9272TIP3    H127780   6.234  -0.036   2.355 -0.4437 -0.0130  0.4184
 9272TIP3    H227781   6.320   0.083   2.318  0.5612 -0.1051  2.3699
 9273TIP3   OH227782   4.854   6.577   4.982  0.3922  0.3212  0.5523
 9273TIP3    H127783   4.859   6.482   4.970  1.1465  0.5122 -0.9014
 9273TIP3    H227784   4.861   6.589   5.076 -4.2879 -1.2688  1.3599
 9274TIP3   OH227785   4.578   3.099   5.274 -0.4304  0.1133  0.4676
 9274TIP3    H127786   4.671   3.110   5.291 -0.0367  0.2802 -1.5183
 9274TIP3    H227787   4.542   3.188   5.278 -0.7373 -0.0492  2.1968
 9275TIP3   OH227788   5.919   6.809   3.991 -0.2818 -0.2896  0.1051
 9275TIP3    H127789   5.839   6.777   4.033 -0.3430 -1.4226 -0.8428
 9275TIP3    H227790   5.927   6.757   3.911  0.0317  1.5538 -1.1163
 9276TIP3   OH227791   5.075   4.795   0.058  0.3774  0.0956 -0.1377
 9276TIP3    H127792   5.092   4.702   0.075 -0.6384  0.0577  0.7556
 9276TIP3    H227793   5.146   4.821  -0.001  1.6716 -0.8060  0.9414
 9277TIP3   OH227794   6.931   4.827   3.314 -0.2319 -0.2045  0.0104
 9277TIP3    H127795   6.859   4.770   3.287 -0.3372  0.2145 -0.6314
 9277TIP3    H227796   6.890   4.911   3.333  0.0424 -0.0601 -0.0204
 9278TIP3   OH227797   4.582   1.647   4.396  1.0639  0.0387 -0.4244
 9278TIP3    H127798   4.584   1.666   4.302  0.1804  1.3317 -0.2129
 9278TIP3    H227799   4.577   1.733   4.438  0.1061 -0.5492  0.7463
 9279TIP3   OH227800   6.616   2.804   4.135  0.2181  0.1134 -0.5131
 9279TIP3    H127801   6.711   2.812   4.136  0.3368 -0.3854  2.8882
 9279TIP3    H227802   6.597   2.732   4.195 -2.3317  0.9791 -0.1524
 9280TIP3   OH227803   7.147   4.639   1.932 -0.6184 -0.1700 -0.5031
 9280TIP3    H127804   7.059   4.602   1.935  0.2715 -2.4215  0.7224
 9280TIP3    H227805   7.169   4.640   1.839 -2.2610  1.4156 -0.9337
 9281TIP3   OH227806   2.849   1.337   3.016 -0.0888 -0.2283 -0.1668
 9281TIP3    H127807   2.861   1.425   3.051 -2.8403  0.2078 -0.0387
 9281TIP3    H227808   2.754   1.326   3.013  0.0823 -2.0369 -3.1237
 9282TIP3   OH227809   5.709   4.862   2.364  0.2285  0.0503 -0.4746
 9282TIP3    H127810   5.629   4.811   2.350  1.0203 -1.2183 -0.5372
 9282TIP3    H227811   5.696   4.942   2.312 -0.7756 -0.3698 -0.8953
 9283TIP3   OH227812   1.652   3.195   2.053  0.0029  0.1694  0.8543
 9283TIP3    H127813   1.594   3.132   2.009  0.1591  0.4578  0.2182
 9283TIP3    H227814   1.611   3.280   2.039  0.6791  0.4068  0.1969
 9284TIP3   OH227815   5.223   3.552   3.754 -0.1265  0.2531  0.3354
 9284TIP3    H127816   5.161   3.622   3.772 -0.6999 -0.7026  2.4243
 9284TIP3    H227817   5.303   3.596   3.727 -1.2389  1.5716 -0.9880
 9285TIP3   OH227818   2.108   2.290   0.042 -0.4348  0.1458 -0.4570
 9285TIP3    H127819   2.115   2.209   0.091  0.3937  0.2626 -0.3696
 9285TIP3    H227820   2.150   2.271  -0.042 -1.4699  0.0737 -0.9758
 9286TIP3   OH227821   2.206   1.455   4.975 -0.1331 -0.2715  0.1528
 9286TIP3    H127822   2.296   1.487   4.982 -0.3431  1.1914 -2.6421
 9286TIP3    H227823   2.211   1.363   4.999  2.2667 -0.4298 -0.7249
 9287TIP3   OH227824   4.627   4.979   5.673  0.3171  0.0125 -0.2486
 9287TIP3    H127825   4.624   4.934   5.757  0.1595  1.1113  0.3532
 9287TIP3    H227826   4.579   5.061   5.688 -1.0794 -0.4556 -1.8361
 9288TIP3   OH227827   2.636   2.216   1.423 -0.2054 -0.6329  0.1791
 9288TIP3    H127828   2.697   2.287   1.406 -1.8963  1.2887  1.6140
 9288TIP3    H227829   2.689   2.151   1.469  0.5685  1.5911  2.7119
 9289TIP3   OH227830   0.532   0.916   4.288  0.2382  0.3348  0.2035
 9289TIP3    H127831   0.458   0.976   4.283 -0.2332 -0.0522  1.8168
 9289TIP3    H227832   0.589   0.941   4.215 -1.4874  0.5948 -1.1044
 9290TIP3   OH227833   0.499   6.503   2.293 -0.4459 -0.3578  0.1319
 9290TIP3    H127834   0.585   6.529   2.325 -0.2357 -1.0499  0.1465
 9290TIP3    H227835   0.463   6.448   2.363 -0.1172 -1.6154 -0.6512
 9291TIP3   OH227836   1.505   2.385   1.212  0.0519 -0.1152  0.0951
 9291TIP3    H127837   1.548   2.300   1.212  0.4234  0.0724  0.3369
 9291TIP3    H227838   1.457   2.387   1.295 -0.6313 -0.4235 -0.2809
 9292TIP3   OH227839   1.734   1.375   3.914  0.0170 -0.1271  0.3942
 9292TIP3    H127840   1.784   1.375   3.996 -0.1843  1.6194  0.5445
 9292TIP3    H227841   1.644   1.393   3.940  0.1082  1.4718 -0.2549
 9293TIP3   OH227842   4.552   2.565   0.772 -0.4248  0.5557 -0.1252
 9293TIP3    H127843   4.635   2.578   0.727 -1.2969  2.6734 -1.2517
 9293TIP3    H227844   4.516   2.485   0.734  0.8630 -0.1544  0.0813
 9294TIP3   OH227845   3.372   3.293   1.670  0.3754 -0.2983 -0.5174
 9294TIP3    H127846   3.279   3.273   1.667  0.3318 -0.1764 -0.0751
 9294TIP3    H227847   3.404   3.274   1.581 -0.0470 -0.4348 -0.6419
 9295TIP3   OH227848   4.834   5.947   4.767  0.6975  0.3120  0.3246
 9295TIP3    H127849   4.793   5.951   4.681  1.0907 -1.2217  0.0339
 9295TIP3    H227850   4.791   5.873   4.811 -1.0880  2.3976  2.3401
 9296TIP3   OH227851   0.398   0.569   3.960  0.0642 -0.2564 -0.2216
 9296TIP3    H127852   0.438   0.532   4.038  0.6945 -0.2690 -0.5466
 9296TIP3    H227853   0.408   0.502   3.893 -1.1664 -0.5663 -0.1267
 9297TIP3   OH227854   0.664   6.593   0.858 -0.2507  0.0168  0.4533
 9297TIP3    H127855   0.645   6.564   0.947  2.5706 -0.3089  1.0337
 9297TIP3    H227856   0.747   6.639   0.864  0.1097 -0.1562 -2.0418
 9298TIP3   OH227857   0.540   1.579   2.004  0.1944  0.3891 -0.4204
 9298TIP3    H127858   0.596   1.621   1.939  1.3856 -1.1388 -0.4383
 9298TIP3    H227859   0.560   1.626   2.086  1.8877 -0.3934 -0.3315
 9299TIP3   OH227860   0.569   2.521   3.231 -0.1049 -0.1382  0.1220
 9299TIP3    H127861   0.527   2.607   3.236 -1.1433 -0.3633 -2.6558
 9299TIP3    H227862   0.654   2.538   3.191  0.6446 -0.2016  1.6249
 9300TIP3   OH227863   1.145   6.063   1.489 -0.2520  0.0632  0.7866
 9300TIP3    H127864   1.211   6.019   1.435 -1.8881 -1.6002  0.0022
 9300TIP3    H227865   1.093   6.114   1.426 -0.0868  0.8824  1.3050
 9301TIP3   OH227866   6.635   2.433   2.468  0.1354  0.5061 -0.4063
 9301TIP3    H127867   6.597   2.381   2.397 -2.1536  1.7435 -0.1701
 9301TIP3    H227868   6.564   2.442   2.531  1.3249  1.6584  0.8245
 9302TIP3   OH227869   2.257   2.530   5.821 -0.4332  0.2903 -0.1242
 9302TIP3    H127870   2.326   2.558   5.760  0.3867  0.3989  0.8207
 9302TIP3    H227871   2.192   2.599   5.817  0.7503  1.5183  0.8797
 9303TIP3   OH227872   6.433   0.386   3.447 -0.1746  0.0529  0.5488
 9303TIP3    H127873   6.457   0.339   3.368 -0.3343  0.6756  0.1180
 9303TIP3    H227874   6.511   0.380   3.503  0.3762  0.6099 -0.1418
 9304TIP3   OH227875   1.986   3.214   5.308  0.2138 -0.2448  0.2263
 9304TIP3    H127876   2.080   3.216   5.325  0.5782  1.6681 -1.6638
 9304TIP3    H227877   1.949   3.280   5.366  0.2716  0.1149 -0.1395
 9305TIP3   OH227878   3.747   1.585   2.122 -0.1974 -0.0983  0.3738
 9305TIP3    H127879   3.825   1.633   2.150 -0.6426  0.9028 -0.0430
 9305TIP3    H227880   3.782   1.507   2.077  0.5320 -0.3194  1.2918
 9306TIP3   OH227881   0.191   2.447   1.352  0.0136 -0.4849  0.2175
 9306TIP3    H127882   0.173   2.540   1.359 -0.8681 -0.7306  1.5876
 9306TIP3    H227883   0.125   2.414   1.291 -0.2841 -0.3548  0.4644
 9307TIP3   OH227884   4.222   4.361   4.135 -0.0967 -0.2440  0.4257
 9307TIP3    H127885   4.207   4.444   4.090  1.2037 -0.2490 -0.0495
 9307TIP3    H227886   4.178   4.371   4.219  0.3224  1.0552  0.5101
 9308TIP3   OH227887   5.032   2.751   2.450 -0.0470 -0.0199  0.4483
 9308TIP3    H127888   4.995   2.670   2.486  0.1823  0.4516  1.7896
 9308TIP3    H227889   5.061   2.726   2.363 -0.9730 -1.1092  0.4199
 9309TIP3   OH227890   0.568   5.400   1.273  0.1233  0.6696  0.4082
 9309TIP3    H127891   0.576   5.355   1.189  0.8244  0.1361  0.7511
 9309TIP3    H227892   0.542   5.489   1.250 -0.2457  0.3716 -0.3392
 9310TIP3   OH227893   5.491   3.373   0.768  0.1050  0.8197  0.0898
 9310TIP3    H127894   5.536   3.426   0.834  1.1194 -0.4882  0.4835
 9310TIP3    H227895   5.560   3.339   0.711 -0.4197 -0.6135  0.2504
 9311TIP3   OH227896   2.151   2.303   3.752 -0.1658 -0.1844 -0.5849
 9311TIP3    H127897   2.061   2.277   3.769 -0.1731 -1.3904 -2.2303
 9311TIP3    H227898   2.204   2.242   3.803 -0.2461  0.5176  0.3731
 9312TIP3   OH227899   5.428   4.055   4.896  0.2187  0.1021 -0.0903
 9312TIP3    H127900   5.390   4.074   4.981  2.0878  0.6974  0.6774
 9312TIP3    H227901   5.424   3.959   4.889  1.0239 -0.0518  1.1830
 9313TIP3   OH227902   6.054   4.115   0.684  0.1972  0.2238  0.1397
 9313TIP3    H127903   5.987   4.140   0.748 -0.1395  0.6829 -0.3906
 9313TIP3    H227904   6.019   4.142   0.599  0.7073 -0.2418 -0.2349
 9314TIP3   OH227905   6.796   2.404   3.746 -0.4633 -0.3642  0.0147
 9314TIP3    H127906   6.877   2.425   3.700 -0.8121  1.1142  0.0202
 9314TIP3    H227907   6.766   2.322   3.705  0.6612 -0.5653 -0.4482
 9315TIP3   OH227908   0.294   0.643   2.322  0.5991 -0.6916  0.9124
 9315TIP3    H127909   0.271   0.703   2.251  0.6058 -0.9429  0.6998
 9315TIP3    H227910   0.239   0.672   2.396 -0.3052 -1.2050  0.4504
 9316TIP3   OH227911   6.961   4.439   5.756  0.3751 -0.3133 -0.0274
 9316TIP3    H127912   6.883   4.421   5.704  0.1496 -0.6159  0.4020
 9316TIP3    H227913   6.961   4.370   5.823  1.0771 -0.3829 -0.0998
 9317TIP3   OH227914   0.753   4.042   2.346 -0.9334  0.7375 -0.1266
 9317TIP3    H127915   0.823   4.085   2.296  0.0024 -0.5502  0.0157
 9317TIP3    H227916   0.718   4.110   2.403  1.3471  1.0310  1.0078
 9318TIP3   OH227917   3.580   3.118   1.193  0.3677  0.2899 -0.4184
 9318TIP3    H127918   3.562   3.197   1.243 -1.9552 -0.9405  0.8241
 9318TIP3    H227919   3.661   3.084   1.231  1.1303  1.7690 -0.6515
 9319TIP3   OH227920   2.983   6.277   1.446  0.3788  0.3521 -0.8581
 9319TIP3    H127921   2.937   6.193   1.443  0.4609  0.3066 -0.8239
 9319TIP3    H227922   3.004   6.291   1.538  1.8683 -0.4057 -1.0528
 9320TIP3   OH227923   1.473   2.020   2.513 -0.5845 -0.6533 -0.5426
 9320TIP3    H127924   1.459   2.031   2.419  0.8138 -0.2696 -0.7252
 9320TIP3    H227925   1.562   1.985   2.520 -0.3382  0.1575  0.6711
 9321TIP3   OH227926   7.085   6.299   2.188  0.1052 -0.6525  0.0232
 9321TIP3    H127927   7.180   6.302   2.176  0.1699  1.6150  0.6089
 9321TIP3    H227928   7.052   6.263   2.105  1.4263 -0.6897 -0.5165
 9322TIP3   OH227929   2.866   5.238   0.354 -0.5274  0.0967 -0.3237
 9322TIP3    H127930   2.805   5.295   0.307 -0.4350 -0.0362 -0.6103
 9322TIP3    H227931   2.902   5.293   0.423 -1.4191  0.0066  0.2264
 9323TIP3   OH227932   2.857   0.402   5.917 -0.2463  0.3549 -0.8693
 9323TIP3    H127933   2.816   0.406   5.831 -0.8532  0.7272 -0.5702
 9323TIP3    H227934   2.947   0.432   5.902 -0.7983  1.9819 -1.1153
 9324TIP3   OH227935   5.349   2.747   0.556 -0.0851  0.0713  0.4538
 9324TIP3    H127936   5.315   2.809   0.492 -0.4841  1.1501  1.6804
 9324TIP3    H227937   5.329   2.786   0.641  1.7737 -0.5819  1.2480
 9325TIP3   OH227938   0.124   3.708   2.949 -0.3459 -0.4956 -0.5281
 9325TIP3    H127939   0.065   3.633   2.939  0.8443 -1.3504 -1.3157
 9325TIP3    H227940   0.131   3.745   2.861 -1.0797  0.7052 -0.1183
 9326TIP3   OH227941   5.800   1.156   0.085  0.0603 -0.0714  0.1436
 9326TIP3    H127942   5.814   1.246   0.115 -2.7276  0.3288  0.5444
 9326TIP3    H227943   5.784   1.165  -0.009 -0.6234 -0.0649  0.2537
 9327TIP3   OH227944   3.065   6.564   1.085 -0.1806 -0.1679 -0.0510
 9327TIP3    H127945   3.005   6.530   1.151  1.4033 -1.4919  0.7530
 9327TIP3    H227946   3.007   6.606   1.021 -1.9599 -1.2721  0.7428
 9328TIP3   OH227947   4.132   5.613   5.862 -0.0427  0.2127 -0.3381
 9328TIP3    H127948   4.087   5.697   5.852 -1.1424 -0.5054 -1.7010
 9328TIP3    H227949   4.189   5.607   5.785  0.0421 -0.2804 -0.2408
 9329TIP3   OH227950   0.810   2.720   1.725 -0.1595 -0.1661  0.3865
 9329TIP3    H127951   0.807   2.815   1.712 -0.9435 -0.2314  0.0122
 9329TIP3    H227952   0.869   2.689   1.656 -0.9806 -0.0755 -0.3821
 9330TIP3   OH227953   3.838   0.688   3.892  0.1068 -0.5913  0.1588
 9330TIP3    H127954   3.818   0.642   3.973  0.7778 -0.7526  0.2427
 9330TIP3    H227955   3.933   0.682   3.884 -0.0109 -1.1483 -0.9874
 9331TIP3   OH227956   4.518   3.133   2.547  0.0281  0.4168  0.4195
 9331TIP3    H127957   4.557   3.188   2.615 -0.4616 -0.4201  1.4201
 9331TIP3    H227958   4.495   3.052   2.593 -0.1732 -0.2360 -0.7908
 9332TIP3   OH227959   2.582   6.327   3.160 -0.4409  0.1117 -0.0399
 9332TIP3    H127960   2.615   6.311   3.249  2.0989  0.2370 -0.9080
 9332TIP3    H227961   2.655   6.306   3.103 -1.0582  2.8123 -1.9640
 9333TIP3   OH227962   6.946   1.727   1.936 -0.0454  0.7227  0.1885
 9333TIP3    H127963   6.946   1.813   1.894  3.4734 -0.3069 -2.4004
 9333TIP3    H227964   7.003   1.739   2.013 -0.0105  0.8408  0.1460
 9334TIP3   OH227965   2.739   4.167   5.208 -0.4773  0.8105  0.4367
 9334TIP3    H127966   2.747   4.257   5.239  0.7337  0.8547  0.0673
 9334TIP3    H227967   2.737   4.114   5.288 -3.1999  1.2414  0.7342
 9335TIP3   OH227968   0.174   5.617   2.691 -0.0626 -0.4609  0.1205
 9335TIP3    H127969   0.086   5.617   2.653  0.6042 -2.2698 -1.6421
 9335TIP3    H227970   0.160   5.621   2.786 -2.0820 -1.3307 -0.1040
 9336TIP3   OH227971   4.995   4.161   3.138 -0.6050 -0.1270  0.3327
 9336TIP3    H127972   4.902   4.168   3.120 -0.3549  0.1086 -0.9353
 9336TIP3    H227973   5.001   4.100   3.211 -2.0110  2.6414  3.0009
 9337TIP3   OH227974   3.142   6.575   3.471  0.3976  0.7813  1.0300
 9337TIP3    H127975   3.186   6.626   3.403  0.4734  0.6016  0.9417
 9337TIP3    H227976   3.206   6.508   3.495 -0.3899 -0.4800 -0.2208
 9338TIP3   OH227977   4.949   6.029   4.051 -0.8145  0.1932 -0.1865
 9338TIP3    H127978   4.933   5.940   4.017  0.5178  0.0461 -0.4514
 9338TIP3    H227979   4.953   6.084   3.973 -0.1743  0.2506 -0.1117
 9339TIP3   OH227980   5.345   4.870   5.533  0.3347  0.6404  0.2953
 9339TIP3    H127981   5.388   4.955   5.538  1.3284  0.1091  1.9137
 9339TIP3    H227982   5.315   4.853   5.622  1.7565 -1.4268  0.4743
 9340TIP3   OH227983   0.221   1.872   0.094 -0.1435  0.3122 -0.0544
 9340TIP3    H127984   0.291   1.932   0.069 -0.1477 -0.0369 -0.9456
 9340TIP3    H227985   0.223   1.871   0.190 -0.2122  1.8137 -0.0062
 9341TIP3   OH227986   0.040   2.129   2.073  0.2278 -0.1172 -0.3495
 9341TIP3    H127987   0.091   2.049   2.061 -1.5030 -1.4196  0.5996
 9341TIP3    H227988   0.094   2.183   2.131  0.7848 -1.2029  0.1750
 9342TIP3   OH227989   4.946   0.895   3.572 -0.3527 -0.5747 -0.0366
 9342TIP3    H127990   5.026   0.930   3.612 -0.1934 -2.5124  1.4833
 9342TIP3    H227991   4.975   0.817   3.525 -1.1197 -0.3301 -0.9356
 9343TIP3   OH227992   2.549   1.719   5.445 -0.3451 -0.1506 -0.0606
 9343TIP3    H127993   2.517   1.681   5.363 -1.4468  0.8002 -0.1130
 9343TIP3    H227994   2.608   1.789   5.417  0.4714 -0.8104 -0.0009
 9344TIP3   OH227995   0.364   2.381   1.725  0.1400  0.5586 -0.0871
 9344TIP3    H127996   0.388   2.467   1.690  1.1127  0.6626  0.7866
 9344TIP3    H227997   0.289   2.398   1.781  0.1948  0.8033 -0.0864
 9345TIP3   OH227998   0.736   3.339   0.926 -0.3724 -0.1204 -0.2454
 9345TIP3    H127999   0.669   3.346   0.859 -0.9252 -1.3767  0.1501
 9345TIP3    H228000   0.800   3.407   0.903 -1.6826  1.0055 -0.7080
 9346TIP3   OH228001   1.087   0.986   0.924 -0.3980  0.1291  0.2353
 9346TIP3    H128002   1.078   0.995   1.019 -0.7223 -0.1019  0.2267
 9346TIP3    H228003   1.000   1.007   0.889 -0.3988 -0.2310  0.0203
 9347TIP3   OH228004   0.730   4.906   4.267 -0.8235  1.1034  0.0801
 9347TIP3    H128005   0.798   4.840   4.252 -2.4745 -0.7307  0.3367
 9347TIP3    H228006   0.772   4.989   4.242  2.5076  0.5356  2.9414
 9348TIP3   OH228007   3.688   2.416   2.604  0.3904  0.1580  0.3161
 9348TIP3    H128008   3.724   2.362   2.674 -0.1096  0.6015  0.9257
 9348TIP3    H228009   3.727   2.381   2.524  2.6379  0.9939  0.9827
 9349TIP3   OH228010   2.342   2.034   5.095  0.0724 -0.0415 -0.3671
 9349TIP3    H128011   2.323   1.947   5.130  0.0464 -0.5071 -1.4806
 9349TIP3    H228012   2.272   2.050   5.031  0.0232  0.8391 -0.1089
 9350TIP3   OH228013   6.338   1.698   2.376 -0.5265 -0.2336  0.1277
 9350TIP3    H128014   6.345   1.612   2.335  1.4595  0.4428 -1.0755
 9350TIP3    H228015   6.297   1.681   2.461  1.1411 -2.6207  0.5590
 9351TIP3   OH228016   6.181   4.618   4.499 -0.3671 -0.2039 -0.8857
 9351TIP3    H128017   6.097   4.613   4.454 -1.0372 -0.1647  0.3273
 9351TIP3    H228018   6.173   4.695   4.556 -1.0699 -2.3462  2.2127
 9352TIP3   OH228019   6.736   3.929   4.786 -1.0228  0.1766 -0.5486
 9352TIP3    H128020   6.721   3.979   4.705 -0.7203 -1.0635 -1.4026
 9352TIP3    H228021   6.706   3.841   4.764  0.7044 -0.6053  0.1211
 9353TIP3   OH228022   2.371   2.143   4.153 -0.2141 -0.0492  0.0391
 9353TIP3    H128023   2.449   2.189   4.184  0.0028  0.8476 -1.7055
 9353TIP3    H228024   2.298   2.197   4.184 -0.2650 -1.4174  2.5365
 9354TIP3   OH228025   1.850   0.983   4.555 -0.9514  0.2195 -0.1161
 9354TIP3    H128026   1.884   0.894   4.567  0.7067  0.6437 -1.2318
 9354TIP3    H228027   1.769   0.971   4.505 -0.7692 -0.6797 -0.2127
 9355TIP3   OH228028   2.763   2.522   2.490  0.3062 -0.1700  0.2130
 9355TIP3    H128029   2.841   2.492   2.538  2.4662  2.3785 -1.3937
 9355TIP3    H228030   2.793   2.533   2.400 -2.4953 -0.8161 -0.9016
 9356TIP3   OH228031   4.064   2.612   2.620  0.0625 -0.2870  0.0961
 9356TIP3    H128032   4.071   2.539   2.560  0.2322 -0.2762  0.1013
 9356TIP3    H228033   4.021   2.576   2.697  0.6221 -0.5139  0.3097
 9357TIP3   OH228034   3.099   4.260   4.318 -0.1813 -0.1272 -0.0590
 9357TIP3    H128035   3.086   4.341   4.269 -0.6315  1.6321  2.6986
 9357TIP3    H228036   3.029   4.261   4.384 -0.4310 -3.0102 -0.1627
 9358TIP3   OH228037   1.059   2.347   2.846 -0.3736  0.1686  0.4379
 9358TIP3    H128038   1.144   2.388   2.830 -1.3017  1.5936 -1.3032
 9358TIP3    H228039   1.048   2.350   2.941  1.6224 -0.3458  0.7313
 9359TIP3   OH228040   3.365   5.227   4.976 -0.0538 -0.8169  0.3762
 9359TIP3    H128041   3.296   5.242   5.040 -1.1752 -1.0947 -0.7320
 9359TIP3    H228042   3.323   5.178   4.905  1.4607 -1.6362 -0.0055
 9360TIP3   OH228043   2.466   1.312   1.628  0.0288 -0.5674 -0.0714
 9360TIP3    H128044   2.493   1.222   1.646  0.2071 -0.2438  1.3809
 9360TIP3    H228045   2.525   1.341   1.558  0.2845 -1.4263 -0.2202
 9361TIP3   OH228046   2.536   1.883   3.744  0.0528 -0.0623 -0.2332
 9361TIP3    H128047   2.605   1.830   3.782 -0.2811 -0.2297  0.1497
 9361TIP3    H228048   2.478   1.820   3.701  0.3572  0.1152 -0.9065
 9362TIP3   OH228049   0.857   6.772   1.756  0.1650  0.6533 -0.5332
 9362TIP3    H128050   0.799   6.832   1.804 -1.2665 -0.3115 -0.9738
 9362TIP3    H228051   0.800   6.699   1.730  1.5285 -0.2046 -1.2635
 9363TIP3   OH228052   4.332   1.310   4.469 -0.2042 -0.3957  0.0410
 9363TIP3    H128053   4.282   1.387   4.497  2.6625  1.9364 -0.7265
 9363TIP3    H228054   4.417   1.321   4.511  0.4730 -2.9148 -0.5435
 9364TIP3   OH228055   0.729   1.475   0.644 -0.0940 -0.6654  0.1831
 9364TIP3    H128056   0.824   1.467   0.649 -0.0488 -1.6298 -1.6288
 9364TIP3    H228057   0.714   1.568   0.626  0.3952 -0.2350  1.8028
 9365TIP3   OH228058   6.370   0.594   2.548  0.6060 -0.5959  0.5260
 9365TIP3    H128059   6.458   0.601   2.583  1.3180  0.0093 -1.2652
 9365TIP3    H228060   6.382   0.577   2.454 -1.1705 -0.1355  0.1647
 9366TIP3   OH228061   4.129   4.367   0.948 -0.3906 -0.0561 -0.1695
 9366TIP3    H128062   4.220   4.359   0.977 -1.0054 -0.6901  1.7337
 9366TIP3    H228063   4.108   4.282   0.909 -0.7440 -0.6319  1.2307
 9367TIP3   OH228064   2.149   2.147   4.917 -0.3958 -0.3006  0.5852
 9367TIP3    H128065   2.073   2.175   4.967 -1.0389  0.8309 -0.9317
 9367TIP3    H228066   2.188   2.229   4.885 -0.7631 -0.9723 -1.7738
 9368TIP3   OH228067   5.182   5.927   3.497 -0.2969  0.0043 -0.0130
 9368TIP3    H128068   5.176   5.892   3.408 -1.3567  1.6879 -0.6621
 9368TIP3    H228069   5.264   5.976   3.498 -1.3104  1.8221 -0.8326
 9369TIP3   OH228070   1.259   1.642   3.424 -0.4100  0.1732  0.1089
 9369TIP3    H128071   1.311   1.569   3.458  0.1556  0.7147  0.4296
 9369TIP3    H228072   1.232   1.691   3.503  0.2570  1.0047 -0.1649
 9370TIP3   OH228073   2.123   6.086   0.525  0.5991  0.0751  0.0446
 9370TIP3    H128074   2.212   6.079   0.491  0.9460 -0.5460  1.0521
 9370TIP3    H228075   2.126   6.045   0.611 -0.8965 -0.8894 -0.3129
 9371TIP3   OH228076   5.530   0.345   4.300 -0.4736  0.1980  0.2120
 9371TIP3    H128077   5.516   0.327   4.393 -1.1313  1.4521  0.3809
 9371TIP3    H228078   5.558   0.261   4.263 -1.4050 -0.6257  1.3048
 9372TIP3   OH228079   1.537   0.408   3.387 -0.3340  0.6750  0.6821
 9372TIP3    H128080   1.554   0.396   3.481 -1.0508 -0.8422  0.6414
 9372TIP3    H228081   1.624   0.417   3.349  0.0715 -0.4119  1.2950
 9373TIP3   OH228082   4.505   4.972   5.400 -0.0877 -0.2248  0.2840
 9373TIP3    H128083   4.515   4.960   5.305  2.3212 -0.0496  0.4531
 9373TIP3    H228084   4.515   5.066   5.414 -2.1853  0.0058  0.6020
 9374TIP3   OH228085   2.204   0.129   2.085 -0.3893  0.7598  0.2185
 9374TIP3    H128086   2.130   0.154   2.140 -0.7679 -0.3058  0.2159
 9374TIP3    H228087   2.169   0.127   1.996 -0.0988  1.2327  0.0893
 9375TIP3   OH228088   2.190   4.439   2.919  0.3677  0.0850  0.3018
 9375TIP3    H128089   2.267   4.382   2.917  0.5367  0.2777  0.9601
 9375TIP3    H228090   2.212   4.505   2.985 -0.1804  0.4053  0.1652
 9376TIP3   OH228091   6.030   4.267   3.926 -0.0493 -0.0079 -0.6219
 9376TIP3    H128092   6.113   4.281   3.880 -0.5523 -0.3582 -1.6593
 9376TIP3    H228093   5.993   4.355   3.937 -1.2212 -0.0675 -3.3853
 9377TIP3   OH228094   2.846   2.766   2.626 -0.1549 -0.2910 -0.1534
 9377TIP3    H128095   2.917   2.802   2.678 -0.4817  1.2735 -0.7349
 9377TIP3    H228096   2.890   2.709   2.562  0.5838  0.5237 -0.4023
 9378TIP3   OH228097   5.571   4.914   3.557  0.1864 -0.5237  0.2432
 9378TIP3    H128098   5.496   4.854   3.551  1.8438 -2.7315  0.6277
 9378TIP3    H228099   5.646   4.858   3.575  1.8084  1.7301  0.9699
 9379TIP3   OH228100   6.388   6.183   5.252  0.1741 -0.2396  0.2802
 9379TIP3    H128101   6.395   6.271   5.215 -2.1331 -0.1569 -0.0882
 9379TIP3    H228102   6.467   6.174   5.306  0.3334  2.1683  0.5840
 9380TIP3   OH228103   3.688   2.014   4.064 -0.7241 -0.0516 -0.4323
 9380TIP3    H128104   3.614   1.970   4.023 -1.6077  1.0641 -0.0843
 9380TIP3    H228105   3.680   2.105   4.037  0.6602  0.0563 -0.5634
 9381TIP3   OH228106   3.419   2.144   1.846  0.0131 -0.1483 -0.0618
 9381TIP3    H128107   3.392   2.233   1.823  0.7270  0.2349  0.5293
 9381TIP3    H228108   3.503   2.156   1.891 -0.3207 -1.0516  0.8142
 9382TIP3   OH228109   1.553   1.334   2.770  0.3738 -0.3330 -0.2048
 9382TIP3    H128110   1.521   1.313   2.858 -0.7975  2.6958  0.2056
 9382TIP3    H228111   1.599   1.418   2.781  1.0744 -0.3878 -2.3244
 9383TIP3   OH228112   2.874   2.529   4.593 -0.3134  0.4421  0.1765
 9383TIP3    H128113   2.787   2.531   4.632 -0.9844 -2.5808 -0.8668
 9383TIP3    H228114   2.858   2.542   4.499  0.4260  0.4483  0.0485
 9384TIP3   OH228115   1.899   6.190   4.245 -0.2810  0.3607 -0.1751
 9384TIP3    H128116   1.847   6.222   4.319  0.6710 -2.8838  2.1381
 9384TIP3    H228117   1.983   6.235   4.254 -0.1812  0.0208  0.7709
 9385TIP3   OH228118   5.131   6.315   1.270 -0.5773 -0.3438  0.3256
 9385TIP3    H128119   5.166   6.323   1.181 -1.8433  0.6633 -0.1141
 9385TIP3    H228120   5.115   6.405   1.298  0.4852 -0.6024  1.8904
 9386TIP3   OH228121   2.337   4.797   4.244  0.1767 -0.2377 -0.4245
 9386TIP3    H128122   2.276   4.734   4.282 -0.3889 -0.3913 -1.5361
 9386TIP3    H228123   2.284   4.846   4.181  0.4842  1.6963  0.7444
 9387TIP3   OH228124   0.132   0.637   0.902 -0.1409 -0.0115 -0.0706
 9387TIP3    H128125   0.204   0.667   0.847 -0.2486 -2.5985 -1.7821
 9387TIP3    H228126   0.168   0.562   0.949 -1.8702 -1.9172 -1.6249
 9388TIP3   OH228127   0.950   0.365   1.070  0.3190  0.0466  0.1410
 9388TIP3    H128128   1.034   0.389   1.030 -0.2095  2.1529  0.1829
 9388TIP3    H228129   0.892   0.350   0.996  0.7786 -1.8826  0.0986
 9389TIP3   OH228130   2.526   4.527   5.048  0.1858 -0.0188  0.6132
 9389TIP3    H128131   2.460   4.483   4.996  0.8793 -1.0983  0.6188
 9389TIP3    H228132   2.609   4.493   5.016  0.7337  1.0831  0.8118
 9390TIP3   OH228133   6.092   0.513   4.505 -0.2127 -0.1357  0.1629
 9390TIP3    H128134   6.052   0.590   4.545 -2.4450 -1.8621  1.5078
 9390TIP3    H228135   6.167   0.493   4.561 -0.4204  0.2868  0.5960
 9391TIP3   OH228136   0.428   6.298   5.002  0.4000  0.2328  0.5283
 9391TIP3    H128137   0.447   6.204   5.007  0.4801  0.0528 -1.7622
 9391TIP3    H228138   0.446   6.320   4.910 -0.3090  2.3394  0.8549
 9392TIP3   OH228139   4.366   5.513   5.691  0.1062 -0.8355 -0.1560
 9392TIP3    H128140   4.339   5.429   5.654 -1.9936 -0.9152  1.3478
 9392TIP3    H228141   4.422   5.490   5.765 -1.1359 -0.9980  0.7660
 9393TIP3   OH228142   6.406   4.818   4.616  0.5944  0.5812  0.1925
 9393TIP3    H128143   6.376   4.907   4.631  0.7956  0.3458  2.2236
 9393TIP3    H228144   6.486   4.828   4.564 -0.6685  1.4089 -1.6872
 9394TIP3   OH228145   6.416   3.553   1.615 -0.0585  0.2113 -0.1986
 9394TIP3    H128146   6.410   3.618   1.686  2.1718 -1.0874  1.3161
 9394TIP3    H228147   6.494   3.578   1.566 -0.4407 -0.0803 -0.9719
 9395TIP3   OH228148   3.912   2.026   1.113  0.2125  0.3308 -0.3705
 9395TIP3    H128149   3.957   2.012   1.030  0.1741  0.5333 -0.4238
 9395TIP3    H228150   3.916   2.120   1.127 -0.7824  0.4293 -0.7056
 9396TIP3   OH228151   1.452   6.752   5.424 -0.4247  0.5730  0.2001
 9396TIP3    H128152   1.389   6.781   5.491 -1.2235  0.0183 -0.2940
 9396TIP3    H228153   1.422   6.664   5.400  1.0978 -0.0846  0.6155
 9397TIP3   OH228154   5.327   0.988   3.942  0.2210  0.3696 -0.1040
 9397TIP3    H128155   5.423   0.991   3.945  0.2929 -1.2769  0.0481
 9397TIP3    H228156   5.305   1.011   3.852  0.7264  1.1260 -0.0426
 9398TIP3   OH228157   6.855   2.670   2.194  0.0185  0.0069  0.5064
 9398TIP3    H128158   6.914   2.685   2.120 -1.1519  0.7917 -0.3049
 9398TIP3    H228159   6.768   2.690   2.159 -0.9015 -2.2832  1.3087
 9399TIP3   OH228160   4.364   2.542   1.689 -0.5277  0.1866  0.1735
 9399TIP3    H128161   4.389   2.609   1.752  1.4025  1.1859 -1.5335
 9399TIP3    H228162   4.360   2.588   1.605 -1.3255 -1.4231 -0.7169
 9400TIP3   OH228163   1.142   6.298   2.679  0.3687 -0.0518  0.8295
 9400TIP3    H128164   1.113   6.292   2.588  0.4828 -2.2314  0.8855
 9400TIP3    H228165   1.196   6.377   2.682  0.9042 -0.2911 -1.1551
 9401TIP3   OH228166   1.055   4.868   4.393 -0.4807  0.4823  0.3505
 9401TIP3    H128167   1.143   4.840   4.419 -0.9184 -2.1807 -0.6874
 9401TIP3    H228168   1.071   4.936   4.327  0.8228  0.2015  0.3395
 9402TIP3   OH228169   6.672   4.003   2.307  0.6160  0.0783 -0.0936
 9402TIP3    H128170   6.578   4.004   2.327  0.7725  1.7786  0.7455
 9402TIP3    H228171   6.709   3.946   2.374  0.0078 -2.1482 -1.5636
 9403TIP3   OH228172   5.466   6.231   4.805 -0.0187  0.1556 -0.0529
 9403TIP3    H128173   5.524   6.280   4.864 -0.2705  2.3067 -1.4677
 9403TIP3    H228174   5.380   6.271   4.817 -0.3820 -0.3835 -0.7872
 9404TIP3   OH228175   4.694   4.989   2.100  0.6315 -0.5879  0.4085
 9404TIP3    H128176   4.659   4.915   2.149  0.7216 -0.3435  0.8482
 9404TIP3    H228177   4.715   5.055   2.167 -0.3782  0.2228 -0.0488
 9405TIP3   OH228178   6.489   6.676   4.361 -0.0590 -0.1613  0.3513
 9405TIP3    H128179   6.438   6.603   4.398 -1.2543  1.1632  1.4197
 9405TIP3    H228180   6.571   6.675   4.411  0.3204 -1.2751 -0.2405
 9406TIP3   OH228181   4.597   6.660   4.878  0.0681  0.2847  0.0061
 9406TIP3    H128182   4.571   6.603   4.806  0.5216 -1.3689  1.1161
 9406TIP3    H228183   4.680   6.623   4.909  0.5912  1.7922  0.5141
 9407TIP3   OH228184   0.658   4.565   4.826  0.3742 -0.0471 -0.5576
 9407TIP3    H128185   0.712   4.528   4.756  1.3457  1.6279 -0.7637
 9407TIP3    H228186   0.716   4.627   4.870 -1.6391  2.7002 -1.4857
 9408TIP3   OH228187   3.131   2.679   3.231 -0.3849  0.2446  0.1656
 9408TIP3    H128188   3.202   2.644   3.178 -1.0111 -0.9148  0.0566
 9408TIP3    H228189   3.166   2.760   3.269  1.1364 -0.5340  0.4752
 9409TIP3   OH228190   0.243   5.346   0.131 -0.5606 -0.1784 -0.1675
 9409TIP3    H128191   0.270   5.302   0.051  0.9828 -0.5289  0.4978
 9409TIP3    H228192   0.256   5.280   0.200  0.3863  0.8147  0.6545
 9410TIP3   OH228193   1.286   0.551   2.043  0.1107 -0.3557  0.4171
 9410TIP3    H128194   1.195   0.566   2.067 -0.5212 -0.8133 -1.5027
 9410TIP3    H228195   1.297   0.600   1.962  1.6538 -0.1367  0.7314
 9411TIP3   OH228196   2.457   6.704   4.167 -0.0199 -0.0807 -0.0286
 9411TIP3    H128197   2.410   6.776   4.124 -0.6985  0.3011  1.3218
 9411TIP3    H228198   2.488   6.742   4.249 -0.3664 -1.3232  0.6900
 9412TIP3   OH228199   4.764   6.127   0.661  0.4457  0.2578  0.0059
 9412TIP3    H128200   4.827   6.169   0.602  0.4078 -1.3588 -1.2364
 9412TIP3    H228201   4.702   6.082   0.604  0.0282 -0.8371  1.2567
 9413TIP3   OH228202   2.606   0.901   4.818 -0.2655  0.0011  0.1882
 9413TIP3    H128203   2.579   0.942   4.735 -1.0476 -1.0582 -0.1079
 9413TIP3    H228204   2.685   0.948   4.844 -0.7588  1.2285 -0.4768
 9414TIP3   OH228205   3.317   0.639   5.280 -0.2897 -0.1195  0.3692
 9414TIP3    H128206   3.394   0.600   5.239  0.1029 -0.5166  1.4424
 9414TIP3    H228207   3.296   0.581   5.353 -1.6969 -0.0861  0.0258
 9415TIP3   OH228208   2.885   4.746   2.998  0.4321  0.2149 -0.0989
 9415TIP3    H128209   2.858   4.695   2.922  2.2256  1.1502 -1.4631
 9415TIP3    H228210   2.865   4.690   3.074  0.6114 -1.6964 -1.3922
 9416TIP3   OH228211   6.269   3.266   5.060  0.1422  1.1044 -0.4529
 9416TIP3    H128212   6.275   3.196   5.125 -0.9261  1.2995 -0.1314
 9416TIP3    H228213   6.298   3.345   5.106  0.4931  1.0338 -0.5531
 9417TIP3   OH228214   5.351   0.153   1.006  0.1611  0.2641  0.3706
 9417TIP3    H128215   5.438   0.182   1.034 -0.1782 -0.0242  1.8348
 9417TIP3    H228216   5.322   0.220   0.944  2.1597 -0.5917 -1.6321
 9418TIP3   OH228217   1.577   4.956   0.702  0.6006  0.0721 -1.0085
 9418TIP3    H128218   1.646   5.023   0.701 -0.4848  1.2326 -0.6639
 9418TIP3    H228219   1.621   4.878   0.736  1.5447  1.0255  0.0711
 9419TIP3   OH228220   6.840   2.662   1.124  0.1967 -0.2411  0.2671
 9419TIP3    H128221   6.920   2.632   1.166  0.8377 -0.3979 -1.0165
 9419TIP3    H228222   6.782   2.586   1.123  1.2597 -1.1100 -1.6431
 9420TIP3   OH228223   1.909   4.515   3.812  0.0198  0.6441 -0.6988
 9420TIP3    H128224   1.903   4.426   3.848 -0.0902  1.8707  2.5604
 9420TIP3    H228225   1.823   4.531   3.773 -0.1542 -0.4337 -0.8000
 9421TIP3   OH228226   5.884   2.526   3.538  0.4373 -0.1446  0.1008
 9421TIP3    H128227   5.820   2.550   3.605 -0.7134 -0.7262 -0.7351
 9421TIP3    H228228   5.922   2.444   3.568  0.0766 -0.2946  0.1528
 9422TIP3   OH228229   3.402   5.500   5.273  0.1038 -0.6669  0.0394
 9422TIP3    H128230   3.311   5.527   5.262  0.2657 -0.4536 -0.8404
 9422TIP3    H228231   3.398   5.405   5.280 -0.0595 -0.8403 -1.7666
 9423TIP3   OH228232   3.355   0.453   4.897  0.2671  0.2451  0.5564
 9423TIP3    H128233   3.339   0.548   4.897  0.7701  0.3330  0.2091
 9423TIP3    H228234   3.270   0.415   4.919  0.2413  0.8008  1.4714
 9424TIP3   OH228235   3.996   2.009   0.412 -0.8468 -0.0063  0.4998
 9424TIP3    H128236   3.956   1.926   0.390 -0.9801  0.2996 -0.4575
 9424TIP3    H228237   4.087   2.001   0.383 -0.7277  0.0050  0.8633
 9425TIP3   OH228238   4.975   0.167   1.690  0.0265 -0.5096 -0.6188
 9425TIP3    H128239   4.980   0.206   1.777  0.2201 -0.0134 -0.8487
 9425TIP3    H228240   4.899   0.209   1.650 -0.1300 -0.8215 -0.6503
 9426TIP3   OH228241   0.637   4.165   1.090 -0.4509  0.0987 -0.1238
 9426TIP3    H128242   0.722   4.151   1.132 -0.5419 -0.3888 -0.0872
 9426TIP3    H228243   0.605   4.248   1.124 -0.6373 -0.4132  0.9773
 9427TIP3   OH228244   0.496   3.282   0.305  0.2120 -0.0033 -0.0601
 9427TIP3    H128245   0.458   3.370   0.309 -3.1379 -1.1955 -1.9905
 9427TIP3    H228246   0.589   3.297   0.284  0.3018  3.0306  1.8087
 9428TIP3   OH228247   2.188   5.993   5.616  0.0359 -0.7762 -0.4007
 9428TIP3    H128248   2.102   5.954   5.633  0.9591 -1.5577  3.1706
 9428TIP3    H228249   2.168   6.069   5.560 -3.3553  0.4463  2.1016
 9429TIP3   OH228250   3.919   3.396   2.872 -0.1904  0.0988  0.2050
 9429TIP3    H128251   3.838   3.354   2.903  0.1521 -1.7410 -1.2146
 9429TIP3    H228252   3.892   3.447   2.796  0.2341 -2.3181 -1.6773
 9430TIP3   OH228253   2.181   5.349   3.547 -0.4074  0.8723 -0.0802
 9430TIP3    H128254   2.113   5.285   3.565 -0.0930  0.5844  0.0923
 9430TIP3    H228255   2.138   5.416   3.493 -1.0487  1.1347  0.7360
 9431TIP3   OH228256   3.198   2.926   1.915  0.5924 -0.4008  0.2198
 9431TIP3    H128257   3.219   2.897   1.826  1.1079  1.8698 -0.4509
 9431TIP3    H228258   3.264   2.992   1.935 -1.0345  0.9967  1.2677
 9432TIP3   OH228259   4.436   5.634   4.360  0.1066  0.0264 -0.8622
 9432TIP3    H128260   4.407   5.602   4.445  1.0655  0.7344 -0.2524
 9432TIP3    H228261   4.482   5.560   4.320 -0.6492 -0.4162 -0.9264
 9433TIP3   OH228262   5.111   3.621   1.862  0.5006 -0.2592 -0.0571
 9433TIP3    H128263   5.188   3.661   1.902 -0.4363  0.0871  1.5005
 9433TIP3    H228264   5.053   3.695   1.842 -0.5119 -0.6530  1.2382
 9434TIP3   OH228265   5.310   6.192   5.658  0.1884  0.6274 -0.1537
 9434TIP3    H128266   5.368   6.268   5.653 -0.9841  1.5473 -0.0910
 9434TIP3    H228267   5.269   6.187   5.572  0.0783  0.2099 -0.0795
 9435TIP3   OH228268   6.544   3.353   3.995 -0.7351  0.4427  0.3951
 9435TIP3    H128269   6.620   3.298   4.016  0.0998  0.7984 -1.4914
 9435TIP3    H228270   6.533   3.343   3.900 -1.2808  2.6005  0.1809
 9436TIP3   OH228271   0.918   5.384   2.647 -0.1697  0.1794 -0.3365
 9436TIP3    H128272   0.838   5.336   2.671  0.4315 -0.0960  1.2933
 9436TIP3    H228273   0.895   5.432   2.568 -2.3504  1.0808  0.7571
 9437TIP3   OH228274   3.381   3.900   3.835  0.0145 -0.4447  0.2017
 9437TIP3    H128275   3.427   3.833   3.785 -1.7437 -1.7622  0.2464
 9437TIP3    H228276   3.375   3.975   3.775  1.1436 -0.6580 -0.2027
 9438TIP3   OH228277   7.145   2.648   1.183 -0.6181 -0.4113  0.2213
 9438TIP3    H128278   7.166   2.554   1.185  0.1429 -0.3272 -1.6137
 9438TIP3    H228279   7.221   2.690   1.223 -0.9753 -0.5765  1.0793
 9439TIP3   OH228280   1.394   3.009   3.975  0.3253 -0.1182 -0.3774
 9439TIP3    H128281   1.409   3.015   3.880 -0.1620  1.0535 -0.4006
 9439TIP3    H228282   1.314   3.060   3.990 -0.7785 -1.9880  0.4082
 9440TIP3   OH228283   4.071   1.666   1.773  0.3963 -0.8200 -0.4411
 9440TIP3    H128284   4.098   1.748   1.733 -2.6420 -0.7708 -2.7347
 9440TIP3    H228285   4.000   1.690   1.832  1.2961 -1.5360  0.9776
 9441TIP3   OH228286   3.948   5.585   2.299 -0.4791  0.1445 -0.9454
 9441TIP3    H128287   3.948   5.491   2.317 -0.6326  0.3399  0.1772
 9441TIP3    H228288   4.035   5.603   2.263 -0.5837 -0.4842 -1.5300
 9442TIP3   OH228289   3.037   1.080   3.851  0.2236 -0.2877  0.0753
 9442TIP3    H128290   3.038   1.067   3.946  0.3814  0.7703  0.2248
 9442TIP3    H228291   2.984   1.159   3.839 -1.1368 -1.2886 -0.8360
 9443TIP3   OH228292   5.562   5.978   0.392  0.0782 -0.0880 -0.5899
 9443TIP3    H128293   5.655   5.983   0.412 -0.1168 -0.4833  0.5101
 9443TIP3    H228294   5.557   5.941   0.304  0.9753  0.7016 -0.9819
 9444TIP3   OH228295   3.295   5.508   1.060 -0.6585 -0.0320  0.4303
 9444TIP3    H128296   3.292   5.543   1.149  1.3685  0.8044  0.2064
 9444TIP3    H228297   3.363   5.559   1.016 -1.6843 -0.3466 -1.6593
 9445TIP3   OH228298   2.273   1.844   1.387  0.4361  0.2805  0.2829
 9445TIP3    H128299   2.306   1.757   1.366  0.4034  0.3363 -0.0039
 9445TIP3    H228300   2.229   1.834   1.471  0.9943  0.1568  0.5656
 9446TIP3   OH228301   6.506   0.140   2.331 -0.6534  0.1644 -0.5053
 9446TIP3    H128302   6.590   0.097   2.322 -0.3312  0.8184 -0.6590
 9446TIP3    H228303   6.488   0.178   2.245 -0.9575  0.2893 -0.3907
 9447TIP3   OH228304   5.314   5.548   4.836  0.2592  0.4271 -0.3053
 9447TIP3    H128305   5.284   5.520   4.922  1.4612  1.2799  0.4406
 9447TIP3    H228306   5.234   5.568   4.788 -0.4249  1.1222  1.0428
 9448TIP3   OH228307   3.541   0.913   0.200  0.1513  0.2500 -0.3209
 9448TIP3    H128308   3.615   0.949   0.249  1.2518  0.4870 -2.0559
 9448TIP3    H228309   3.568   0.823   0.181 -0.6585 -0.1246  0.2253
 9449TIP3   OH228310   1.788   2.773   2.447  0.1566 -0.2374 -0.0608
 9449TIP3    H128311   1.882   2.790   2.442  0.1347 -0.3136 -0.9057
 9449TIP3    H228312   1.775   2.730   2.531  1.1744 -1.9722 -0.7567
 9450TIP3   OH228313   3.093   1.521   2.560 -0.6402 -0.2529  0.3851
 9450TIP3    H128314   3.131   1.581   2.623  0.7873 -1.8993  1.1586
 9450TIP3    H228315   3.149   1.444   2.563 -2.8417 -1.9557  0.0098
 9451TIP3   OH228316   6.167   1.671   5.348 -0.4342  0.6324 -0.2457
 9451TIP3    H128317   6.233   1.639   5.286  0.0713  1.8644 -0.3798
 9451TIP3    H228318   6.084   1.661   5.302 -0.3056 -0.5062 -0.2588
 9452TIP3   OH228319   5.756   2.059   1.504  0.3553 -0.9350  0.0014
 9452TIP3    H128320   5.675   2.065   1.555 -0.6130 -1.2834 -1.4204
 9452TIP3    H228321   5.787   2.149   1.497 -0.1206 -0.7483  0.2491
 9453TIP3   OH228322   2.695   5.431   4.457  0.3046  0.1673  0.8401
 9453TIP3    H128323   2.675   5.514   4.413  1.4858  0.5420  0.9634
 9453TIP3    H228324   2.696   5.454   4.550  0.4515 -0.0261  0.8861
 9454TIP3   OH228325   3.188   2.345   4.782  0.3684  0.8952 -0.2477
 9454TIP3    H128326   3.216   2.254   4.781  0.3102  0.8709 -1.3274
 9454TIP3    H228327   3.098   2.343   4.814  0.8549  0.7493  1.1849
 9455TIP3   OH228328   4.951   1.586   1.626 -0.1229  0.2249 -0.4532
 9455TIP3    H128329   5.037   1.555   1.597  1.0738  1.9761  0.9762
 9455TIP3    H228330   4.924   1.648   1.558  0.1358  0.2725 -0.5146
 9456TIP3   OH228331   6.594   0.278   5.193  0.5075 -0.0038 -0.0531
 9456TIP3    H128332   6.648   0.312   5.122  1.7423 -1.8022 -0.0430
 9456TIP3    H228333   6.510   0.322   5.183  1.1123  0.8430 -1.7494
 9457TIP3   OH228334   1.300   4.782   4.498 -0.3979  0.4591 -0.8000
 9457TIP3    H128335   1.345   4.779   4.413 -1.0790 -1.7341 -1.1302
 9457TIP3    H228336   1.366   4.755   4.561 -0.1376  1.2337 -0.7309
 9458TIP3   OH228337   0.814   4.772   0.395  0.6105  0.2669 -0.5432
 9458TIP3    H128338   0.782   4.735   0.477 -0.5256 -0.0924 -1.1268
 9458TIP3    H228339   0.898   4.811   0.417 -0.2973  1.3995  1.0833
 9459TIP3   OH228340   1.850   1.676   1.480  0.3205 -0.2515  0.0415
 9459TIP3    H128341   1.940   1.705   1.490 -0.1895  2.0101 -1.1581
 9459TIP3    H228342   1.798   1.742   1.527 -0.8704  0.5477 -2.2170
 9460TIP3   OH228343   3.381   4.650   2.525 -0.2882  0.0951 -0.0932
 9460TIP3    H128344   3.347   4.642   2.614 -1.7187  0.5940 -0.5699
 9460TIP3    H228345   3.390   4.560   2.494 -1.5087 -0.0608 -0.0513
 9461TIP3   OH228346   2.575   4.812   0.273 -0.0144  0.0308 -0.0125
 9461TIP3    H128347   2.569   4.824   0.178  1.2269 -1.0501 -0.2623
 9461TIP3    H228348   2.638   4.878   0.302  2.4975 -1.9368 -0.5584
 9462TIP3   OH228349   2.728   1.008   3.104  0.1777  0.7199  0.1492
 9462TIP3    H128350   2.731   0.931   3.047  0.7816  1.5001 -0.9148
 9462TIP3    H228351   2.635   1.023   3.121  0.0915 -0.8585  1.2592
 9463TIP3   OH228352   3.761   5.905   4.867 -0.2456 -0.1294 -0.2353
 9463TIP3    H128353   3.813   5.971   4.820  1.0264 -0.9365 -0.0359
 9463TIP3    H228354   3.761   5.935   4.957 -1.0412  0.4237 -0.4163
 9464TIP3   OH228355   5.958   3.666   5.587  0.4818 -0.2409  0.2184
 9464TIP3    H128356   5.874   3.680   5.543  0.7119  2.3682  0.4555
 9464TIP3    H228357   6.022   3.666   5.516  0.5584  1.0013  0.2619
 9465TIP3   OH228358   1.164   2.717   4.487 -0.1125  0.4111 -0.5314
 9465TIP3    H128359   1.233   2.671   4.440  0.2970  1.3123 -0.8514
 9465TIP3    H228360   1.162   2.804   4.447 -0.7752  0.7147  0.1301
 9466TIP3   OH228361   5.991   0.562   4.898 -0.2898  0.4518  0.1671
 9466TIP3    H128362   6.085   0.580   4.888 -0.2805 -0.5162 -2.2544
 9466TIP3    H228363   5.949   0.616   4.830 -1.5505  1.1102  1.4137
 9467TIP3   OH228364   0.543   4.027   2.840 -0.0116  0.6756  0.2040
 9467TIP3    H128365   0.465   4.023   2.896  0.1743 -0.5248  0.4064
 9467TIP3    H228366   0.604   3.964   2.879  1.4556  2.2932  0.6122
 9468TIP3   OH228367   3.464   6.009   2.130  0.4129  0.4059 -0.6163
 9468TIP3    H128368   3.490   5.965   2.211 -1.8652  1.1740  0.6153
 9468TIP3    H228369   3.449   5.937   2.068  2.0965 -0.1917 -0.4030
 9469TIP3   OH228370   4.293   3.836   0.094 -0.2661 -0.0066  0.1182
 9469TIP3    H128371   4.358   3.807   0.031 -0.8799 -0.4309 -0.3381
 9469TIP3    H228372   4.307   3.930   0.102  0.2553 -0.0602 -0.1413
 9470TIP3   OH228373   6.970   0.702   4.576 -0.1114  0.3808  0.4535
 9470TIP3    H128374   6.881   0.723   4.605  0.0352  0.1819  1.0621
 9470TIP3    H228375   7.024   0.717   4.653  0.1406 -1.1930  0.6113
 9471TIP3   OH228376   3.557   2.452   0.993  0.0224 -0.0547  0.1251
 9471TIP3    H128377   3.632   2.508   0.971 -0.1120  0.2578  0.4520
 9471TIP3    H228378   3.595   2.377   1.038  0.1743 -0.0677 -0.0259
 9472TIP3   OH228379   0.709   0.211   3.788 -0.3974 -0.5609 -0.2673
 9472TIP3    H128380   0.778   0.146   3.776  1.3676  1.0953  0.3041
 9472TIP3    H228381   0.680   0.233   3.700  1.5430  0.4354 -0.7019
 9473TIP3   OH228382   2.841   3.724   5.414  0.3066  0.1051 -0.0396
 9473TIP3    H128383   2.763   3.668   5.411 -0.3016  0.9687 -0.9147
 9473TIP3    H228384   2.887   3.697   5.494 -0.5119 -0.9154  0.1046
 9474TIP3   OH228385   5.229   3.593   0.749  0.2539  0.1724  0.2325
 9474TIP3    H128386   5.230   3.676   0.797 -0.0473  0.7460 -0.7277
 9474TIP3    H228387   5.258   3.528   0.813  1.0471  1.1025  0.8417
 9475TIP3   OH228388   0.329   1.680   3.078 -0.3237 -0.0181  0.0125
 9475TIP3    H128389   0.414   1.675   3.121 -1.0216 -1.8821  1.2828
 9475TIP3    H228390   0.313   1.774   3.068  1.7253  0.3831  0.0046
 9476TIP3   OH228391   7.027   4.066   5.533  0.5553 -0.0088 -0.0297
 9476TIP3    H128392   7.012   4.070   5.627 -0.5783  0.0498 -0.2087
 9476TIP3    H228393   7.039   3.973   5.514 -0.8094 -0.1946 -0.0578
 9477TIP3   OH228394   2.591   3.242   2.339  0.4910 -0.1666 -0.3771
 9477TIP3    H128395   2.581   3.176   2.408  0.6755  0.3647  0.1638
 9477TIP3    H228396   2.644   3.310   2.379 -0.4606  0.7441 -0.6238
 9478TIP3   OH228397   5.111   0.380   2.708 -0.3650  0.4031 -0.0804
 9478TIP3    H128398   5.165   0.457   2.725 -0.7191  1.1396 -2.0489
 9478TIP3    H228399   5.025   0.403   2.744  0.4627 -0.7335  2.9700
 9479TIP3   OH228400   2.562   0.639   0.880  0.2380 -0.2936 -0.2301
 9479TIP3    H128401   2.506   0.713   0.902  0.4322  0.0148 -0.7687
 9479TIP3    H228402   2.584   0.600   0.964 -1.3132 -0.8093 -0.0357
 9480TIP3   OH228403   2.650   5.428   0.278 -0.1207 -0.1105  0.1538
 9480TIP3    H128404   2.647   5.467   0.190  1.8968  0.0349  0.1016
 9480TIP3    H228405   2.646   5.503   0.337 -4.4743 -0.3134  0.4033
 9481TIP3   OH228406   3.146   3.564   5.231  0.4536 -0.0643  0.6168
 9481TIP3    H128407   3.106   3.644   5.197  1.4998  0.1534 -0.1447
 9481TIP3    H228408   3.177   3.587   5.318  0.1607  0.1692  0.6583
 9482TIP3   OH228409   5.829   5.549   4.827 -0.4767 -0.4894 -0.1626
 9482TIP3    H128410   5.895   5.605   4.785 -1.8116  0.6842 -0.7742
 9482TIP3    H228411   5.875   5.510   4.902  0.6430  1.0282 -0.0093
 9483TIP3   OH228412   6.974   6.758   0.917  0.5591  0.0244 -0.3717
 9483TIP3    H128413   6.886   6.740   0.950  0.5441  1.1053  0.2429
 9483TIP3    H228414   7.033   6.717   0.981  0.5165  1.5661  0.7370
 9484TIP3   OH228415   0.945   6.599   4.567 -0.2627 -0.2437  0.0426
 9484TIP3    H128416   0.964   6.681   4.614  0.0279  0.3853 -1.1453
 9484TIP3    H228417   1.025   6.547   4.578  0.3847  0.5014 -0.9708
 9485TIP3   OH228418   4.151   3.857   0.563  0.1133  0.2972 -0.5158
 9485TIP3    H128419   4.159   3.934   0.506  0.3140  1.2104  0.7083
 9485TIP3    H228420   4.211   3.793   0.525  2.5407  1.9470  0.2930
 9486TIP3   OH228421   3.065   3.232   1.126  0.2388 -0.3077 -0.1415
 9486TIP3    H128422   3.133   3.195   1.183  0.9508  1.6953  0.3670
 9486TIP3    H228423   3.108   3.304   1.080 -1.4200  0.7604 -0.1048
 9487TIP3   OH228424   3.826   5.123   2.948  0.3332  0.0023 -0.0358
 9487TIP3    H128425   3.793   5.109   2.860 -2.5798 -0.4909  1.0166
 9487TIP3    H228426   3.793   5.210   2.972 -0.8582 -0.7702  1.2898
 9488TIP3   OH228427   5.403   2.144   0.151 -0.5457  0.5100 -0.2411
 9488TIP3    H128428   5.358   2.216   0.107 -1.2377 -0.3252 -0.9469
 9488TIP3    H228429   5.332   2.091   0.188 -0.1525 -0.6452 -1.0883
 9489TIP3   OH228430   5.888   4.151   0.900 -0.5560 -0.3273  0.1182
 9489TIP3    H128431   5.796   4.158   0.924 -0.4043  0.9448  0.3619
 9489TIP3    H228432   5.928   4.103   0.973 -0.6429  0.9530  1.0248
 9490TIP3   OH228433   4.841   3.658   4.106 -0.6533  0.0424  0.6463
 9490TIP3    H128434   4.755   3.680   4.140 -0.8667  1.0245 -0.4977
 9490TIP3    H228435   4.895   3.735   4.123 -0.3846 -0.0066  0.0522
 9491TIP3   OH228436   5.542   5.449   3.554  0.5423  0.4703  0.4091
 9491TIP3    H128437   5.464   5.401   3.581  1.3992  0.6852  3.7188
 9491TIP3    H228438   5.510   5.516   3.494 -1.3449 -1.1915 -0.5621
 9492TIP3   OH228439   4.389   4.861   3.391  0.6163 -0.0223  0.0875
 9492TIP3    H128440   4.442   4.908   3.327 -0.3550  0.2012 -0.5847
 9492TIP3    H228441   4.349   4.790   3.341 -1.5954  1.2151 -0.0428
 9493TIP3   OH228442   6.435   0.880   5.023 -0.0039  0.6836  0.5505
 9493TIP3    H128443   6.512   0.931   4.997  0.6799 -0.3451  0.4676
 9493TIP3    H228444   6.457   0.847   5.110 -0.0516 -0.1802  0.2436
 9494TIP3   OH228445   4.597   4.266   3.897  0.1031 -0.1200 -0.6514
 9494TIP3    H128446   4.599   4.289   3.989 -1.1108 -2.0643 -0.0810
 9494TIP3    H228447   4.507   4.239   3.881  0.2339  0.3956 -2.4794
 9495TIP3   OH228448   0.348   3.879   1.881  0.2208  0.3116 -0.3340
 9495TIP3    H128449   0.375   3.849   1.968  0.1409 -0.7925 -0.6745
 9495TIP3    H228450   0.270   3.931   1.896  0.5166  0.5772  0.3053
 9496TIP3   OH228451   3.564   6.556   4.635  0.0858 -0.2530 -0.4155
 9496TIP3    H128452   3.575   6.583   4.727 -1.4292 -0.9077 -0.0093
 9496TIP3    H228453   3.649   6.519   4.611  0.7589  0.6596  0.4648
 9497TIP3   OH228454   5.887   2.357   0.904 -0.5942  0.1375  0.2172
 9497TIP3    H128455   5.970   2.400   0.883 -0.3829 -0.6414 -0.6039
 9497TIP3    H228456   5.910   2.290   0.968 -0.7426  0.5047  0.6602
 9498TIP3   OH228457   0.541   6.489   5.156 -0.3997  0.1041  0.0481
 9498TIP3    H128458   0.483   6.437   5.100 -1.4725  1.4209 -0.1265
 9498TIP3    H228459   0.575   6.557   5.098 -1.0266  1.1111  0.8276
 9499TIP3   OH228460   6.628   2.050   5.033 -0.3470 -0.6495  0.2797
 9499TIP3    H128461   6.665   2.139   5.032  0.2130 -0.7768  2.7243
 9499TIP3    H228462   6.638   2.019   4.943  0.2790  1.4296 -0.4281
 9500TIP3   OH228463   6.139   5.816   3.553 -0.0611 -0.1556 -0.2524
 9500TIP3    H128464   6.169   5.732   3.518  1.0138 -0.1971  0.7092
 9500TIP3    H228465   6.049   5.799   3.581  0.6268 -1.4482  1.3202
 9501TIP3   OH228466   6.540   6.136   5.009 -0.3754  0.3920 -0.0779
 9501TIP3    H128467   6.451   6.102   5.009 -0.8271  1.5423  0.8650
 9501TIP3    H228468   6.561   6.149   4.916 -2.1649  2.5886 -0.2336
 9502TIP3   OH228469   5.152   6.290   3.265  0.5835  0.3034 -0.6576
 9502TIP3    H128470   5.187   6.332   3.343 -0.4389 -0.4609  0.2404
 9502TIP3    H228471   5.151   6.197   3.287 -2.7674  0.3264 -0.2764
 9503TIP3   OH228472   2.222   5.379   4.956  0.0282  0.9546 -0.4018
 9503TIP3    H128473   2.149   5.318   4.944  0.4889  0.6137 -1.5864
 9503TIP3    H228474   2.198   5.430   5.034  0.1451 -1.4809  1.3630
 9504TIP3   OH228475   0.797   2.991   1.632 -0.2178 -0.2505 -0.1303
 9504TIP3    H128476   0.869   3.048   1.659 -1.7439  0.8000  2.0805
 9504TIP3    H228477   0.804   2.986   1.536  0.4378  3.0958 -0.3700
 9505TIP3   OH228478   6.888   2.551   5.038  0.7169 -0.2272 -0.8456
 9505TIP3    H128479   6.874   2.585   4.949 -0.1370  0.6090 -0.4212
 9505TIP3    H228480   6.828   2.603   5.092  3.4579  1.5616  0.7424
 9506TIP3   OH228481   4.175   1.104   5.007  0.0205 -0.0303 -0.0502
 9506TIP3    H128482   4.135   1.133   4.926  2.1893  1.4862 -0.6754
 9506TIP3    H228483   4.138   1.162   5.074  0.1392  0.4407 -0.3883
 9507TIP3   OH228484   0.748   4.150   3.142  0.4198 -0.3592 -0.2466
 9507TIP3    H128485   0.721   4.064   3.111 -3.7931  0.6286  0.1402
 9507TIP3    H228486   0.787   4.133   3.228 -1.0676 -1.8593  0.1816
 9508TIP3   OH228487   5.435   3.379   1.839 -0.1209  0.1691  0.5124
 9508TIP3    H128488   5.428   3.467   1.876 -0.7387 -0.0194  0.8634
 9508TIP3    H228489   5.345   3.354   1.819  0.0888 -0.2298  0.0351
 9509TIP3   OH228490   1.574   3.976   0.308 -0.3276  0.1096  0.1149
 9509TIP3    H128491   1.480   3.960   0.299 -0.3401  0.1301  0.2114
 9509TIP3    H228492   1.610   3.954   0.222 -0.4828  0.5382 -0.0615
 9510TIP3   OH228493   6.330   4.612   1.969 -0.3641  0.4443 -0.0971
 9510TIP3    H128494   6.342   4.635   1.877 -0.1176  0.7776  0.0153
 9510TIP3    H228495   6.235   4.609   1.982 -0.4407  2.7007  0.1943
 9511TIP3   OH228496   4.629   1.792   4.841  0.0241  0.3471  0.3418
 9511TIP3    H128497   4.566   1.857   4.808  1.8413  1.7260 -0.5566
 9511TIP3    H228498   4.601   1.709   4.801 -0.2950  1.2260 -1.3112
 9512TIP3   OH228499   3.727   2.249   2.380 -0.4904 -0.0371 -0.8074
 9512TIP3    H128500   3.773   2.280   2.302  0.5506 -0.2952 -0.3071
 9512TIP3    H228501   3.726   2.154   2.372 -0.3836 -0.0645 -0.4999
 9513TIP3   OH228502   6.311   0.156   4.807 -0.0137 -0.2726  1.0827
 9513TIP3    H128503   6.269   0.167   4.892 -1.4659  1.9694  0.1830
 9513TIP3    H228504   6.354   0.240   4.790 -0.5493 -0.3227 -0.7597
 9514TIP3   OH228505   4.636   3.081   3.791  0.5022 -1.0726 -0.0183
 9514TIP3    H128506   4.655   3.165   3.750  0.0717 -1.7837 -1.7413
 9514TIP3    H228507   4.662   3.016   3.726 -0.3831 -2.2437  0.7624
 9515TIP3   OH228508   0.581   4.183   4.055 -0.2564  0.2108  0.0195
 9515TIP3    H128509   0.562   4.254   4.116  2.0949  0.3484  0.6580
 9515TIP3    H228510   0.576   4.225   3.969 -1.8749  0.4096  0.1721
 9516TIP3   OH228511   5.360   3.833   0.417 -0.1683  0.0207 -0.4450
 9516TIP3    H128512   5.438   3.881   0.444 -0.0382 -0.2447 -0.3466
 9516TIP3    H228513   5.364   3.833   0.321 -1.4211  2.2707 -0.5578
 9517TIP3   OH228514   5.563   5.665   1.953  0.2700 -0.7552 -0.2218
 9517TIP3    H128515   5.566   5.693   1.862 -2.0349 -1.7815 -0.6800
 9517TIP3    H228516   5.636   5.711   1.995  0.1637  1.3435 -2.1357
 9518TIP3   OH228517   3.594   2.943   3.619  0.3719  0.0323  0.0656
 9518TIP3    H128518   3.667   2.895   3.658 -0.7761 -2.5506 -0.7536
 9518TIP3    H228519   3.624   2.965   3.531  0.3314 -0.7336 -0.1525
 9519TIP3   OH228520   6.707   3.921   5.457  0.0622  0.3030  0.1741
 9519TIP3    H128521   6.690   3.967   5.540 -1.1641  0.8928 -0.3685
 9519TIP3    H228522   6.620   3.910   5.419  0.5145 -0.9620 -0.5196
 9520TIP3   OH228523   6.330   0.443   2.301  0.3650  0.4457  0.0295
 9520TIP3    H128524   6.277   0.396   2.365  2.2098 -2.0776 -0.1220
 9520TIP3    H228525   6.336   0.383   2.226  0.0661  2.3930 -1.6561
 9521TIP3   OH228526   1.859   3.340   1.359 -0.0054  0.2931  0.4853
 9521TIP3    H128527   1.858   3.320   1.266  0.3195  1.1810  0.2830
 9521TIP3    H228528   1.827   3.260   1.401  0.7304 -0.4482 -0.3192
 9522TIP3   OH228529   5.645   1.787   0.289 -0.1951  0.0499 -0.2271
 9522TIP3    H128530   5.723   1.840   0.271  0.5866 -0.8995  0.2902
 9522TIP3    H228531   5.604   1.829   0.364 -0.4523  0.8300 -0.7914
 9523TIP3   OH228532   4.654   1.187   3.952  0.0867  0.3963  0.7910
 9523TIP3    H128533   4.721   1.255   3.959 -1.6093  2.3458 -0.7305
 9523TIP3    H228534   4.677   1.137   3.874 -0.5229  1.4720 -0.1044
 9524TIP3   OH228535   1.725   3.058   2.699  0.5748 -0.2117 -0.7408
 9524TIP3    H128536   1.800   3.002   2.722 -0.1805 -0.6164  0.9077
 9524TIP3    H228537   1.699   3.028   2.612  1.0193 -1.5222 -0.4594
 9525TIP3   OH228538   5.808   1.217   4.641  0.7287  0.1411 -0.0369
 9525TIP3    H128539   5.900   1.216   4.667  0.4472  0.3610  1.0020
 9525TIP3    H228540   5.775   1.302   4.671 -0.1319 -0.4526  0.7643
 9526TIP3   OH228541   7.176   5.071   4.977 -0.7189  0.1079 -0.3791
 9526TIP3    H128542   7.210   5.142   4.922  1.0033 -1.0924 -0.9448
 9526TIP3    H228543   7.212   5.087   5.064  0.3348 -0.4559 -0.6874
 9527TIP3   OH228544   0.484   5.545   1.581 -0.0777 -0.1195 -0.0904
 9527TIP3    H128545   0.571   5.578   1.555  0.1901 -1.0768 -0.4402
 9527TIP3    H228546   0.495   5.515   1.671  0.4596 -1.9623 -0.7394
 9528TIP3   OH228547   0.462   6.121   5.533 -0.5107 -0.2516 -0.3437
 9528TIP3    H128548   0.403   6.133   5.459  0.9562 -0.9277 -1.6993
 9528TIP3    H228549   0.507   6.205   5.542  0.9809 -0.8169 -1.8261
 9529TIP3   OH228550   5.753   6.044   2.989 -0.0681  0.1185 -0.0483
 9529TIP3    H128551   5.821   6.036   2.922 -1.2491 -1.2705 -1.1385
 9529TIP3    H228552   5.721   6.133   2.980  1.4448  0.7448  0.3679
 9530TIP3   OH228553   4.381   3.528   4.454 -0.8235  0.0711 -0.0864
 9530TIP3    H128554   4.349   3.616   4.477  0.0999  0.5889 -0.6954
 9530TIP3    H228555   4.397   3.533   4.360 -0.2245 -0.5837 -0.0205
 9531TIP3   OH228556   3.252   6.688   2.631 -0.2497  0.2930 -0.1474
 9531TIP3    H128557   3.296   6.603   2.623  1.6518  1.2678 -0.6559
 9531TIP3    H228558   3.275   6.734   2.551 -0.2534  1.7300  0.6527
 9532TIP3   OH228559   2.457   0.720   5.695  0.0114  0.1416 -0.0892
 9532TIP3    H128560   2.470   0.796   5.639 -1.3805  0.3668 -0.1476
 9532TIP3    H228561   2.362   0.714   5.706  0.1827 -0.6106  1.2596
 9533TIP3   OH228562   1.578   2.116   3.007 -0.2462 -0.4613 -0.1206
 9533TIP3    H128563   1.655   2.060   3.007  0.2597  0.2229  0.0104
 9533TIP3    H228564   1.540   2.105   2.920  0.0404 -0.7405 -0.2116
 9534TIP3   OH228565   1.049   2.486   1.283  0.1260  0.1001  0.2346
 9534TIP3    H128566   1.053   2.395   1.310  0.0850  0.0124 -0.0480
 9534TIP3    H228567   1.080   2.485   1.192 -0.4919  0.2764  0.0203
 9535TIP3   OH228568   1.457   0.979   1.534  0.0514 -0.3748 -0.4253
 9535TIP3    H128569   1.385   0.978   1.597 -0.4262  1.8209 -0.8439
 9535TIP3    H228570   1.524   1.034   1.574  1.6941 -2.5817  0.0687
 9536TIP3   OH228571   2.227   0.555   2.394  0.7352 -0.1973 -0.5196
 9536TIP3    H128572   2.259   0.590   2.310  0.7275  1.8874  0.2931
 9536TIP3    H228573   2.139   0.523   2.374  0.3558  1.1641 -1.1102
 9537TIP3   OH228574   5.194   3.297   1.249 -0.0027  0.1891  0.1462
 9537TIP3    H128575   5.256   3.332   1.185 -1.6736 -0.8402 -2.1714
 9537TIP3    H228576   5.120   3.357   1.245  0.1907  0.5701  1.7877
 9538TIP3   OH228577   2.422   3.054   2.801 -0.0794  0.5682 -0.1905
 9538TIP3    H128578   2.478   2.986   2.764 -0.8886 -0.5787  0.6422
 9538TIP3    H228579   2.456   3.067   2.889  0.4495  1.7148 -0.5372
 9539TIP3   OH228580   2.775   2.214   0.243  0.4728  0.3514 -0.4617
 9539TIP3    H128581   2.771   2.218   0.148 -0.8246  0.1028 -0.4263
 9539TIP3    H228582   2.798   2.123   0.262  1.3533  0.5476 -0.5391
 9540TIP3   OH228583   5.177   1.806   3.797 -0.0100  0.0121  0.1532
 9540TIP3    H128584   5.113   1.805   3.726 -0.3243  1.6931  0.3699
 9540TIP3    H228585   5.257   1.772   3.757 -0.1218  1.1219 -1.1056
 9541TIP3   OH228586   6.822   6.544   4.736  0.0380 -0.5651  0.0557
 9541TIP3    H128587   6.916   6.547   4.718  0.4590 -4.0385  0.9137
 9541TIP3    H228588   6.790   6.470   4.685 -2.3308  0.5867 -0.2777
 9542TIP3   OH228589   5.775   1.856   0.676 -0.4054 -0.2543  0.1374
 9542TIP3    H128590   5.868   1.878   0.681 -0.7942  1.5011  0.4569
 9542TIP3    H228591   5.765   1.779   0.732  0.7976 -0.2419  0.3875
 9543TIP3   OH228592   3.596   5.796   5.655  0.1380  0.0628  0.3910
 9543TIP3    H128593   3.552   5.773   5.573 -1.0187  0.5895  0.8332
 9543TIP3    H228594   3.587   5.891   5.660 -1.0383 -0.0916  1.7833
 9544TIP3   OH228595   1.231   2.811   4.726  0.1662 -0.1312 -0.1117
 9544TIP3    H128596   1.290   2.875   4.688 -2.2987  1.9692 -0.6641
 9544TIP3    H228597   1.197   2.762   4.651 -0.2944  0.0599 -0.0340
 9545TIP3   OH228598   3.777   6.539   5.599 -0.3750 -0.1666 -0.6614
 9545TIP3    H128599   3.807   6.620   5.558  0.4742 -0.0328  0.1678
 9545TIP3    H228600   3.769   6.561   5.692 -0.4377 -0.9509 -0.4771
 9546TIP3   OH228601   5.534   6.388   3.939 -0.6356  0.3268  0.3495
 9546TIP3    H128602   5.589   6.310   3.929 -0.8002  0.3610 -0.9714
 9546TIP3    H228603   5.476   6.367   4.013 -1.0978 -1.0558 -0.3679
 9547TIP3   OH228604   4.885   6.296   0.439 -0.2346  0.3216 -0.0719
 9547TIP3    H128605   4.911   6.344   0.360 -0.7984  2.4302  0.9427
 9547TIP3    H228606   4.808   6.246   0.413  0.5772 -0.3691 -1.2637
 9548TIP3   OH228607   6.070   4.526   2.016  0.5603 -0.1803  0.0201
 9548TIP3    H128608   6.124   4.446   2.008  3.0396  1.3188  0.7066
 9548TIP3    H228609   5.981   4.493   2.025  1.4098 -2.8684 -0.2901
 9549TIP3   OH228610   6.019   0.236   3.452 -0.3973  0.2839 -0.7702
 9549TIP3    H128611   5.934   0.246   3.409 -0.4553 -3.0382 -1.6685
 9549TIP3    H228612   6.075   0.195   3.385  1.7166  1.6179  0.0685
 9550TIP3   OH228613   3.639   1.861   1.983  0.3160  1.0593  0.1829
 9550TIP3    H128614   3.618   1.853   2.076  0.7278  1.1087  0.2811
 9550TIP3    H228615   3.555   1.847   1.939  0.2303  0.4224  0.5294
 9551TIP3   OH228616   1.521   2.705   3.375  0.3392  0.1255 -0.0046
 9551TIP3    H128617   1.573   2.669   3.447 -0.8313 -0.3781  0.6237
 9551TIP3    H228618   1.450   2.752   3.419  0.7797  1.6279 -0.8336
 9552TIP3   OH228619   4.056   4.775   0.526 -0.9964  0.3299 -0.4316
 9552TIP3    H128620   4.103   4.827   0.591 -1.1592 -0.9240  0.7333
 9552TIP3    H228621   3.964   4.794   0.542 -1.0398 -0.0338 -0.2325
 9553TIP3   OH228622   3.735   1.431   0.359  0.0250 -0.1796  0.3351
 9553TIP3    H128623   3.702   1.457   0.446 -2.6754 -1.6338 -0.1378
 9553TIP3    H228624   3.682   1.482   0.298 -1.0177 -2.1076 -0.4622
 9554TIP3   OH228625   3.087   0.718   4.929  0.2995 -0.2107  0.1119
 9554TIP3    H128626   3.066   0.754   5.015  1.0697 -0.1079  0.2584
 9554TIP3    H228627   3.002   0.691   4.894 -0.4088  2.1281 -0.1868
 9555TIP3   OH228628   4.010   1.558   0.534  0.1717 -0.2156  0.6054
 9555TIP3    H128629   3.968   1.581   0.617 -0.2512 -1.1824  0.6692
 9555TIP3    H228630   3.989   1.466   0.521  0.0619 -0.0224 -0.6859
 9556TIP3   OH228631   3.786   4.929   3.600 -0.4366  0.0009 -0.3408
 9556TIP3    H128632   3.763   5.019   3.577  0.9700  0.2707 -0.7880
 9556TIP3    H228633   3.881   4.925   3.589 -0.4789 -1.5492 -0.3543
 9557TIP3   OH228634   0.162   3.691   2.095 -0.1720  0.5968  0.4067
 9557TIP3    H128635   0.131   3.627   2.160 -0.1771  0.8375  0.6415
 9557TIP3    H228636   0.239   3.730   2.135  1.0756 -0.7323 -0.5970
 9558TIP3   OH228637   5.244   0.492   4.436  0.3432 -0.1490  0.5530
 9558TIP3    H128638   5.312   0.487   4.502 -0.1668  2.0386  1.3135
 9558TIP3    H228639   5.286   0.531   4.360  0.2474  0.0411  0.5959
 9559TIP3   OH228640   2.732   1.799   3.125  0.2627 -0.2236 -0.1526
 9559TIP3    H128641   2.728   1.805   3.029  1.2817  1.1327 -0.1420
 9559TIP3    H228642   2.659   1.853   3.154  1.8519  2.0855 -0.1852
 9560TIP3   OH228643   4.611   0.431   5.343  0.4979  0.6009  0.1675
 9560TIP3    H128644   4.664   0.353   5.327 -2.2830 -2.0922  2.6639
 9560TIP3    H228645   4.588   0.464   5.256  1.8433 -1.3149 -0.9733
 9561TIP3   OH228646   6.844   1.986   0.531 -0.0527 -0.4219  0.1211
 9561TIP3    H128647   6.814   2.065   0.576  0.2885  0.1630 -0.6586
 9561TIP3    H228648   6.886   1.935   0.599 -1.3420 -0.5063  0.8950
 9562TIP3   OH228649   2.667   5.477   5.651 -0.1118 -0.6437 -0.4344
 9562TIP3    H128650   2.762   5.482   5.641 -0.2818  1.1302 -1.4251
 9562TIP3    H228651   2.634   5.473   5.562 -0.9750 -1.6628 -0.0886
 9563TIP3   OH228652   2.877   0.261   0.802  0.1253  0.1939 -0.2876
 9563TIP3    H128653   2.788   0.259   0.765  0.2020 -1.2634 -0.4364
 9563TIP3    H228654   2.900   0.169   0.813  1.6023  0.5625 -0.1785
 9564TIP3   OH228655   5.706   4.473   1.810 -0.5709  0.4619 -0.4909
 9564TIP3    H128656   5.730   4.401   1.869 -0.1670 -0.1164 -1.3357
 9564TIP3    H228657   5.789   4.501   1.772 -0.5969  2.0173  0.5078
 9565TIP3   OH228658   2.728   5.219   1.185 -0.0400  0.2631  0.3142
 9565TIP3    H128659   2.720   5.124   1.173 -1.3442  0.4746 -0.9006
 9565TIP3    H228660   2.818   5.233   1.212  0.1729 -1.3238  0.5291
 9566TIP3   OH228661   0.252   2.642   4.377  0.5245  0.3412  0.1526
 9566TIP3    H128662   0.319   2.709   4.363  1.4879 -0.5750  0.2216
 9566TIP3    H228663   0.299   2.571   4.420 -0.5724 -0.2054  0.4657
 9567TIP3   OH228664   4.812   5.381   1.858  0.2751  0.3868  0.0203
 9567TIP3    H128665   4.752   5.316   1.821 -0.3717  0.9583  0.0415
 9567TIP3    H228666   4.880   5.330   1.902 -1.0796 -0.2865  1.4088
 9568TIP3   OH228667   4.589   4.298   4.177 -0.6454  0.1581 -0.2172
 9568TIP3    H128668   4.541   4.376   4.204 -2.2451 -0.7301 -0.3582
 9568TIP3    H228669   4.613   4.255   4.259 -3.9995 -1.6464 -0.0032
 9569TIP3   OH228670   5.993   0.521   3.260  0.0045 -0.5221  0.2424
 9569TIP3    H128671   5.993   0.454   3.191  0.3455  0.6162 -0.9062
 9569TIP3    H228672   6.080   0.562   3.254 -0.8490  1.3132 -0.4178
 9570TIP3   OH228673   7.234   2.512   0.617 -0.2997 -0.1145  0.3641
 9570TIP3    H128674   7.199   2.434   0.574  1.6201 -2.0996  2.1509
 9570TIP3    H228675   7.192   2.514   0.703 -0.0370  0.5856  0.4898
 9571TIP3   OH228676   6.973   1.823   0.702 -0.4865  0.0262  0.3227
 9571TIP3    H128677   6.937   1.736   0.721 -2.5874  0.4742 -1.2053
 9571TIP3    H228678   7.008   1.853   0.786 -1.3958 -1.5504  1.3284
 9572TIP3   OH228679   5.023   1.153   4.202 -0.5978  0.5744 -0.2002
 9572TIP3    H128680   5.083   1.082   4.221 -1.5701 -0.3536 -0.4737
 9572TIP3    H228681   4.956   1.113   4.146 -0.9252  1.8107 -0.7225
 9573TIP3   OH228682   3.237   0.192   1.525  0.1268  0.2878 -0.2176
 9573TIP3    H128683   3.162   0.189   1.584 -0.9548  1.3226 -1.4862
 9573TIP3    H228684   3.257   0.285   1.515  0.6353  0.1066 -1.0431
 9574TIP3   OH228685   0.764   0.058   0.234 -0.2649 -0.0002 -0.1978
 9574TIP3    H128686   0.772  -0.038   0.230 -0.9207 -0.0061 -1.9406
 9574TIP3    H228687   0.672   0.074   0.252 -0.2232  0.3200 -0.2703
 9575TIP3   OH228688   2.197   3.786   2.651 -0.3113  0.1397 -0.0847
 9575TIP3    H128689   2.140   3.717   2.618 -2.0310  1.0809  0.7579
 9575TIP3    H228690   2.197   3.853   2.583 -1.2061  0.6455  0.3858
 9576TIP3   OH228691   4.334   5.507   4.956  0.3369  0.7179  0.3258
 9576TIP3    H128692   4.267   5.452   4.996 -1.9821  0.1364 -3.8037
 9576TIP3    H228693   4.302   5.596   4.965  0.0345  0.6279  0.1567
 9577TIP3   OH228694   1.297   2.483   2.587 -0.2841 -0.2609  0.5889
 9577TIP3    H128695   1.307   2.454   2.678  1.1277  0.6808  0.7832
 9577TIP3    H228696   1.262   2.407   2.541 -0.3857 -0.9777  1.7895
 9578TIP3   OH228697   3.008   3.314   5.314  0.4595  0.4371  0.5540
 9578TIP3    H128698   3.071   3.386   5.317  0.9685  0.3374 -3.0537
 9578TIP3    H228699   3.062   3.235   5.320  0.6995  0.3672 -1.6384
 9579TIP3   OH228700   6.252   4.494   2.277  0.1016  0.0441 -0.0840
 9579TIP3    H128701   6.293   4.416   2.314  0.1815  0.4802  0.7683
 9579TIP3    H228702   6.286   4.567   2.329 -0.4106  0.5961 -0.4985
 9580TIP3   OH228703   4.475   5.067   0.204  0.6423  0.0851  0.1365
 9580TIP3    H128704   4.404   5.009   0.177  0.9657 -0.3961  0.3123
 9580TIP3    H228705   4.445   5.154   0.179  0.7803 -0.2951 -1.4694
 9581TIP3   OH228706   6.880   0.772   0.101  0.3106  0.1434  0.0356
 9581TIP3    H128707   6.879   0.842   0.166 -0.9869 -0.1373  0.3524
 9581TIP3    H228708   6.915   0.696   0.148 -1.7626 -0.4017  0.8547
 9582TIP3   OH228709   4.889   5.115   0.596 -0.3090 -0.5272  0.5553
 9582TIP3    H128710   4.975   5.075   0.608  0.5612  0.7150 -1.0093
 9582TIP3    H228711   4.909   5.203   0.562 -2.1859  0.0860  0.9361
 9583TIP3   OH228712   3.819   0.225   3.938 -0.2422 -0.4680 -0.3088
 9583TIP3    H128713   3.907   0.213   3.903 -0.0048  1.4201 -0.4855
 9583TIP3    H228714   3.808   0.320   3.943 -1.5393 -0.6493  1.5613
 9584TIP3   OH228715   0.037   3.018   1.066  0.0999 -0.8471  0.1201
 9584TIP3    H128716   0.101   3.082   1.037  0.1062 -1.1636 -0.5780
 9584TIP3    H228717   0.041   3.021   1.162 -0.3898  0.6948  0.1277
 9585TIP3   OH228718   1.599   5.375   0.409  0.2849  0.1872  0.1869
 9585TIP3    H128719   1.668   5.310   0.391 -3.0364 -3.0505 -2.3399
 9585TIP3    H228720   1.569   5.354   0.497  0.4013 -0.6192  0.0470
 9586TIP3   OH228721   3.019   1.239   2.710  0.4807 -0.3280  0.5290
 9586TIP3    H128722   3.098   1.267   2.755  0.5820  1.9435 -0.8938
 9586TIP3    H228723   2.949   1.292   2.750  0.2675  0.2467 -0.5686
 9587TIP3   OH228724   0.744   1.169   5.381  0.4296 -0.1519  0.3043
 9587TIP3    H128725   0.768   1.250   5.425  1.1006 -0.5706  0.7310
 9587TIP3    H228726   0.683   1.196   5.312  2.3286  1.0019 -1.0260
 9588TIP3   OH228727   6.966   2.626   4.411 -0.5663  0.5157  0.0596
 9588TIP3    H128728   6.992   2.587   4.327  0.2381 -1.9983  1.3731
 9588TIP3    H228729   7.049   2.643   4.456 -0.9997  1.4915  0.5035
 9589TIP3   OH228730   4.913   6.469   0.240  0.6423  0.1925 -0.4021
 9589TIP3    H128731   4.920   6.565   0.240 -1.5482  0.4149 -0.7534
 9589TIP3    H228732   4.896   6.447   0.149 -1.7598 -0.2019  0.0854
 9590TIP3   OH228733   1.964   0.790   2.628 -0.5970  0.2231  0.2332
 9590TIP3    H128734   2.023   0.751   2.693 -0.2119  0.6250  0.1282
 9590TIP3    H228735   1.882   0.741   2.638  0.0690 -1.0591 -0.3534
 9591TIP3   OH228736   6.489   2.369   0.969 -0.9434 -0.1761  0.0704
 9591TIP3    H128737   6.440   2.403   1.044 -0.6990  3.4131 -1.1822
 9591TIP3    H228738   6.577   2.354   1.003 -0.3270  3.1681  0.3025
 9592TIP3   OH228739   4.729   2.906   3.553 -0.6188 -1.0470 -0.4637
 9592TIP3    H128740   4.692   2.819   3.567 -0.7951 -0.7354  1.1366
 9592TIP3    H228741   4.812   2.905   3.599 -0.4368 -0.4787 -0.7649
 9593TIP3   OH228742   4.674   4.740   0.717  0.0930 -0.0928  0.0416
 9593TIP3    H128743   4.722   4.811   0.759 -0.1202 -0.6966  1.3543
 9593TIP3    H228744   4.742   4.684   0.678  0.5182 -0.9801  1.9465
 9594TIP3   OH228745   3.013   4.270   0.074 -0.0519 -0.1078  0.0712
 9594TIP3    H128746   3.045   4.181   0.060 -1.3879 -0.6317  0.2142
 9594TIP3    H228747   2.922   4.268   0.044 -0.9785  0.4729  2.5924
 9595TIP3   OH228748   0.945   6.520   2.835 -0.1093 -0.2216 -0.3973
 9595TIP3    H128749   0.867   6.540   2.887  1.1461 -1.9182  2.4120
 9595TIP3    H228750   1.015   6.571   2.877  0.7623 -0.7531 -1.1573
 9596TIP3   OH228751   4.709   5.998   5.272  0.2669 -0.3891  0.0562
 9596TIP3    H128752   4.743   5.911   5.296  2.9270  0.3874 -0.5698
 9596TIP3    H228753   4.750   6.058   5.335 -1.8363  0.4153  0.7242
 9597TIP3   OH228754   2.416   5.679   5.202  0.0765  0.0802 -0.1112
 9597TIP3    H128755   2.412   5.686   5.297 -0.5820  0.2038 -0.1434
 9597TIP3    H228756   2.490   5.735   5.177  1.3569 -1.2890  0.4501
 9598TIP3   OH228757   5.633   2.087   1.197  0.7451 -0.1392 -0.0826
 9598TIP3    H128758   5.615   1.996   1.219 -2.0417  0.2230 -0.5170
 9598TIP3    H228759   5.602   2.137   1.273  2.3322  0.4939  0.1963
 9599TIP3   OH228760   6.005   0.385   5.538  0.4814  0.1037 -0.3795
 9599TIP3    H128761   5.976   0.425   5.620  0.1252  1.4539 -1.1250
 9599TIP3    H228762   5.932   0.397   5.478  0.2162 -2.0528 -0.5613
 9600TIP3   OH228763   0.811   2.238   0.433  0.2621  0.0571 -0.6318
 9600TIP3    H128764   0.892   2.189   0.419  1.2272  1.6059 -0.7737
 9600TIP3    H228765   0.747   2.197   0.375  1.0352 -0.9813 -0.7718
 9601TIP3   OH228766   1.175   0.242   5.679  0.4883  0.2710 -0.6770
 9601TIP3    H128767   1.161   0.153   5.645 -0.7028 -0.5950  1.7974
 9601TIP3    H228768   1.201   0.228   5.770 -0.2492  2.4812 -0.0711
 9602TIP3   OH228769   4.294   4.616   2.573  0.0918 -0.7825 -0.6475
 9602TIP3    H128770   4.308   4.658   2.658 -0.8393 -0.6383 -0.5557
 9602TIP3    H228771   4.263   4.687   2.516  2.1093 -0.5454 -1.5372
 9603TIP3   OH228772   5.888   2.262   4.741  0.8422  0.2070  0.1288
 9603TIP3    H128773   5.823   2.321   4.704  0.8368  0.3731  0.3991
 9603TIP3    H228774   5.861   2.250   4.832  1.1482  0.2215  0.2243
 9604TIP3   OH228775   5.336   4.735   1.563 -0.2959 -0.6034  0.1236
 9604TIP3    H128776   5.333   4.640   1.561 -1.8660 -0.5811 -0.0271
 9604TIP3    H228777   5.247   4.762   1.541  0.7357  0.9591 -2.6783
 9605TIP3   OH228778   6.797   3.189   0.235 -0.3596  0.4874 -0.7586
 9605TIP3    H128779   6.724   3.131   0.213 -0.7750  1.1278 -1.0968
 9605TIP3    H228780   6.842   3.145   0.307  0.1335 -0.9180 -1.8813
 9606TIP3   OH228781   6.908   6.443   0.736  0.0238 -0.6514 -0.2180
 9606TIP3    H128782   6.931   6.536   0.731  0.0242 -0.6045  0.6106
 9606TIP3    H228783   6.927   6.418   0.826 -0.8157 -1.2378 -0.1901
 9607TIP3   OH228784   6.475   3.347   1.303 -0.4190 -0.3064 -0.8054
 9607TIP3    H128785   6.510   3.305   1.224 -0.0518  1.6554 -1.7464
 9607TIP3    H228786   6.552   3.370   1.354 -0.5856 -0.2711 -0.5678
 9608TIP3   OH228787   7.012   2.419   4.782  0.2113  0.5372  0.5275
 9608TIP3    H128788   6.943   2.363   4.816 -1.0177  2.1567  0.8085
 9608TIP3    H228789   7.023   2.391   4.691  0.1973 -0.6627  0.8743
 9609TIP3   OH228790   5.807   5.861   4.534 -0.4233  0.0779 -0.0252
 9609TIP3    H128791   5.900   5.845   4.519  0.4491  1.3597  3.1554
 9609TIP3    H228792   5.800   5.957   4.538 -1.6057 -0.0376  1.1705
 9610TIP3   OH228793   3.416   4.273   4.126  0.8074  0.8014  0.1999
 9610TIP3    H128794   3.348   4.332   4.095  0.2438 -0.2717 -0.6746
 9610TIP3    H228795   3.495   4.327   4.129  0.4585  1.4363 -1.2211
 9611TIP3   OH228796   5.672   2.033   4.668 -0.3906  0.1996 -0.0850
 9611TIP3    H128797   5.722   1.970   4.719  1.0150  1.1447 -0.2397
 9611TIP3    H228798   5.589   1.989   4.650 -0.4360 -0.6433  1.9013
 9612TIP3   OH228799   7.067   0.077   5.701 -0.0164  0.5401 -0.2040
 9612TIP3    H128800   7.142   0.137   5.697  1.3973 -1.1770 -1.4357
 9612TIP3    H228801   7.104  -0.004   5.735 -1.0906 -0.6180 -1.6644
 9613TIP3   OH228802   1.933   0.670   4.135  0.1696 -0.0677  0.1406
 9613TIP3    H128803   1.951   0.600   4.073  1.2578 -2.5458  3.0250
 9613TIP3    H228804   1.926   0.627   4.220 -0.2499  3.2073  1.9686
 9614TIP3   OH228805   3.693   1.355   5.634  0.1418  0.2990  0.1636
 9614TIP3    H128806   3.764   1.416   5.613  0.4283  0.0090  0.2786
 9614TIP3    H228807   3.730   1.268   5.618  0.1331  0.0959  1.1742
 9615TIP3   OH228808   4.597   5.026   3.177  0.2472  0.4990 -0.2941
 9615TIP3    H128809   4.509   5.060   3.157 -0.0278  1.6843  2.5422
 9615TIP3    H228810   4.655   5.077   3.121 -0.7477  0.5031 -1.3820
 9616TIP3   OH228811   1.445   2.117   1.746  0.6419  0.0396  0.1225
 9616TIP3    H128812   1.507   2.168   1.797  1.8907 -1.9080  0.6714
 9616TIP3    H228813   1.402   2.059   1.810  1.5262 -1.7489 -0.8312
 9617TIP3   OH228814   0.067   5.205   2.278 -0.2512 -0.6703 -0.1777
 9617TIP3    H128815   0.017   5.167   2.206 -0.5594 -0.0098 -0.3261
 9617TIP3    H228816  -0.000   5.232   2.342  0.0775 -2.4928  1.0000
 9618TIP3   OH228817   1.184   3.284   1.824 -0.3190  0.6068 -0.4963
 9618TIP3    H128818   1.258   3.251   1.774 -0.4940  1.0019 -1.0280
 9618TIP3    H228819   1.202   3.377   1.835  0.9499  0.1351  2.3256
 9619TIP3   OH228820   1.034   4.946   1.307 -0.3002  0.1987  0.0986
 9619TIP3    H128821   1.115   4.972   1.262 -1.5141  2.5109 -0.9184
 9619TIP3    H228822   1.002   5.027   1.347 -0.9155 -1.1590  2.5525
 9620TIP3   OH228823   6.988   3.655   2.474 -0.4395  0.0997  0.1781
 9620TIP3    H128824   6.995   3.600   2.396 -1.5517 -1.0690  0.8564
 9620TIP3    H228825   7.052   3.618   2.535 -1.0755 -0.3684  0.5767
 9621TIP3   OH228826   3.900   1.851   3.031  0.2452  0.1190 -0.5718
 9621TIP3    H128827   3.899   1.823   2.939  1.2213 -0.6126 -0.3794
 9621TIP3    H228828   3.808   1.861   3.054 -0.0018  0.9402 -1.8102
 9622TIP3   OH228829   3.675   4.661   2.440  0.1307 -0.2310  0.0987
 9622TIP3    H128830   3.593   4.651   2.488  0.0102 -2.4296 -0.4706
 9622TIP3    H228831   3.741   4.620   2.496  0.3135 -1.1525 -0.7729
 9623TIP3   OH228832   4.006   3.304   4.748 -0.1904  0.4913  0.3793
 9623TIP3    H128833   4.006   3.387   4.701 -0.7073  0.8066  0.9140
 9623TIP3    H228834   3.919   3.299   4.789  0.0119 -0.0790  0.7577
 9624TIP3   OH228835   5.288   4.503   2.327 -0.2899  0.5222  0.0379
 9624TIP3    H128836   5.254   4.458   2.250 -0.7793 -0.0943  0.6016
 9624TIP3    H228837   5.209   4.529   2.376  0.0107  1.0917  0.2265
 9625TIP3   OH228838   0.814   3.074   3.531  0.3204 -0.3109 -0.3164
 9625TIP3    H128839   0.733   3.126   3.532  1.0261  0.7901  0.7037
 9625TIP3    H228840   0.822   3.045   3.440 -0.6292  0.5142 -0.6834
 9626TIP3   OH228841   7.131   4.263   1.553 -0.3562 -0.3751 -0.4034
 9626TIP3    H128842   7.210   4.315   1.565 -0.9123  0.6013 -0.7972
 9626TIP3    H228843   7.145   4.184   1.605  1.8162 -1.3044 -2.2660
 9627TIP3   OH228844   1.647   5.608   3.953  0.0949 -0.0504 -0.5978
 9627TIP3    H128845   1.634   5.514   3.937 -0.8653  0.1580 -1.1217
 9627TIP3    H228846   1.576   5.632   4.013 -0.0360  0.4704 -0.9588
 9628TIP3   OH228847   1.427   6.599   3.187  0.9779  0.1203 -0.3172
 9628TIP3    H128848   1.468   6.682   3.210 -0.2748  0.3638  1.1708
 9628TIP3    H228849   1.341   6.623   3.153  0.4014 -0.5781  0.6116
 9629TIP3   OH228850   4.183   4.246   2.965  0.8426  0.0452 -0.3986
 9629TIP3    H128851   4.111   4.289   2.919  1.0942  1.5454  0.5390
 9629TIP3    H228852   4.173   4.153   2.944 -1.7107  0.1143  0.1613
 9630TIP3   OH228853   0.661   4.160   0.811 -0.1407 -0.2978 -0.6079
 9630TIP3    H128854   0.640   4.177   0.903 -0.3089 -0.7623 -0.5588
 9630TIP3    H228855   0.664   4.247   0.771 -1.2928 -0.1526 -0.4221
 9631TIP3   OH228856   6.826   4.885   0.364  0.3171  0.2454 -0.0780
 9631TIP3    H128857   6.902   4.916   0.413 -0.0604  0.8209  0.1454
 9631TIP3    H228858   6.770   4.844   0.430  0.1799  0.3042 -0.1580
 9632TIP3   OH228859   6.256   5.814   2.659 -0.3256 -0.0828  0.0966
 9632TIP3    H128860   6.173   5.768   2.670 -0.5451  0.7771  2.7008
 9632TIP3    H228861   6.295   5.814   2.747  1.8604  0.5938 -0.8108
 9633TIP3   OH228862   6.223   0.791   2.237  0.4841 -0.6681  0.5631
 9633TIP3    H128863   6.299   0.739   2.211  0.8356 -0.1671  0.5735
 9633TIP3    H228864   6.168   0.795   2.159 -0.0760 -1.9486  0.8548
 9634TIP3   OH228865   1.866   5.318   1.180 -0.0058  0.0032 -0.1974
 9634TIP3    H128866   1.854   5.226   1.157 -0.6444  0.5743 -2.3580
 9634TIP3    H228867   1.955   5.323   1.213 -0.0725 -1.4392  0.2781
 9635TIP3   OH228868   7.111   4.294   4.974 -0.2898  0.2837 -0.2299
 9635TIP3    H128869   7.154   4.249   5.047  2.1591  1.6490 -0.7204
 9635TIP3    H228870   7.038   4.341   5.015  0.5709  0.4070  1.2503
 9636TIP3   OH228871   0.570   4.843   0.336 -0.6101  0.3178  0.4776
 9636TIP3    H128872   0.659   4.858   0.368 -0.5872 -1.6895  1.4819
 9636TIP3    H228873   0.552   4.751   0.356 -1.5023 -0.4560 -3.1825
 9637TIP3   OH228874   4.961   0.037   4.421  0.2246 -0.1667  0.6550
 9637TIP3    H128875   5.037   0.080   4.383 -0.2285 -0.2399 -0.3618
 9637TIP3    H228876   4.900   0.108   4.440 -0.0685 -0.2490  0.0327
 9638TIP3   OH228877   0.969   5.511   4.662  0.4159  0.4715 -0.7448
 9638TIP3    H128878   1.029   5.448   4.622  0.7699 -0.8177  1.6158
 9638TIP3    H228879   1.013   5.596   4.653  1.7258 -0.1863 -0.7182
 9639TIP3   OH228880   5.225   4.568   5.069 -0.1053 -1.0959  0.3587
 9639TIP3    H128881   5.210   4.592   5.161 -0.7414  2.1217 -0.4574
 9639TIP3    H228882   5.139   4.545   5.036  0.0216 -1.6403  0.4010
 9640TIP3   OH228883   0.753   1.265   4.100 -0.0861  0.0908 -0.2114
 9640TIP3    H128884   0.779   1.173   4.101 -0.8547 -0.1560 -1.0891
 9640TIP3    H228885   0.789   1.301   4.181  0.7483 -0.8307 -0.1524
 9641TIP3   OH228886   5.371   1.358   0.194 -0.2840 -0.4190  0.2845
 9641TIP3    H128887   5.283   1.359   0.231 -0.8714 -0.7670 -1.0417
 9641TIP3    H228888   5.371   1.427   0.128  1.0222  0.7845  1.4986
 9642TIP3   OH228889   0.171   0.586   4.846  0.3558 -0.7306  1.2419
 9642TIP3    H128890   0.138   0.507   4.804 -1.4402 -0.4635  2.0350
 9642TIP3    H228891   0.243   0.615   4.791 -0.6036 -1.5111 -0.5102
 9643TIP3   OH228892   2.488   3.245   1.015  0.5687  0.2236 -0.6009
 9643TIP3    H128893   2.580   3.227   1.036  0.3880  1.1653  1.1845
 9643TIP3    H228894   2.475   3.336   1.041 -0.7893  0.2126 -1.1859
 9644TIP3   OH228895   0.983   3.001   2.135 -0.1924 -0.2222  0.2248
 9644TIP3    H128896   1.030   2.970   2.212 -0.2944 -1.8828 -0.3459
 9644TIP3    H228897   1.017   2.948   2.063 -0.1172  1.2688 -0.9014
 9645TIP3   OH228898   2.314   5.896   3.952 -0.3524  0.3237  0.0323
 9645TIP3    H128899   2.409   5.886   3.956 -0.3739 -0.2668 -0.6989
 9645TIP3    H228900   2.281   5.808   3.935 -1.0255  0.5431  0.1609
 9646TIP3   OH228901   3.257   5.785   0.344  0.1217  0.1017  0.9317
 9646TIP3    H128902   3.232   5.693   0.334  0.6720 -0.0308  0.7333
 9646TIP3    H228903   3.178   5.828   0.375  0.1789 -0.6600  2.2073
 9647TIP3   OH228904   0.154   3.798   5.440  0.1423 -0.7078 -0.5948
 9647TIP3    H128905   0.210   3.838   5.373  0.2581 -0.1093 -0.1516
 9647TIP3    H228906   0.212   3.785   5.515  0.0899 -1.6630 -0.7101
 9648TIP3   OH228907   2.469   0.857   4.190  0.1221 -0.1584 -0.0726
 9648TIP3    H128908   2.562   0.835   4.183  0.4409  1.2221 -0.4314
 9648TIP3    H228909   2.446   0.831   4.279  0.9846 -0.0612  0.1923
 9649TIP3   OH228910   2.234   4.279   3.301 -0.4433 -0.4546 -0.1939
 9649TIP3    H128911   2.176   4.207   3.324 -0.0320 -0.9322 -0.6339
 9649TIP3    H228912   2.277   4.251   3.220  1.3045 -0.6312  0.7585
 9650TIP3   OH228913   1.929   1.568   2.195  0.2549  0.0169  0.0669
 9650TIP3    H128914   1.967   1.639   2.144 -0.6538  1.0928  0.8357
 9650TIP3    H228915   2.003   1.510   2.215  1.3449  1.6133  0.8260
 9651TIP3   OH228916   4.819   6.645   2.695  0.3804  0.0594 -0.5434
 9651TIP3    H128917   4.724   6.636   2.710  0.1467  0.7018 -1.5913
 9651TIP3    H228918   4.842   6.567   2.644  0.5113 -0.3096  0.0612
 9652TIP3   OH228919   4.380   1.529   2.803 -0.2499 -0.0954  0.0777
 9652TIP3    H128920   4.436   1.548   2.879 -0.5589  0.4028  0.1849
 9652TIP3    H228921   4.440   1.490   2.739  0.5123  1.5574 -0.2917
 9653TIP3   OH228922   6.366   6.159   1.392 -0.2817  0.8407  0.1816
 9653TIP3    H128923   6.343   6.172   1.300 -0.9186  2.0208  0.4740
 9653TIP3    H228924   6.321   6.079   1.417  0.4078  0.1680 -0.6899
 9654TIP3   OH228925   1.843   2.779   4.260 -0.1276  0.2520  0.3263
 9654TIP3    H128926   1.809   2.850   4.205 -2.3458 -0.3224  0.8744
 9654TIP3    H228927   1.837   2.701   4.205 -0.6052 -0.0158  0.7566
 9655TIP3   OH228928   1.896   6.202   4.797  0.3146  0.0834 -0.2048
 9655TIP3    H128929   1.954   6.198   4.721  0.3868  1.8184 -0.2771
 9655TIP3    H228930   1.855   6.289   4.792 -0.8008 -0.3470  0.9243
 9656TIP3   OH228931   7.074   2.450   3.695  0.1375  0.4107  0.1202
 9656TIP3    H128932   7.152   2.500   3.718  1.2406 -0.7728 -0.8423
 9656TIP3    H228933   7.091   2.418   3.606 -1.4506  0.1029 -0.1181
 9657TIP3   OH228934   6.138   0.728   4.261 -0.0176  0.1470  0.1463
 9657TIP3    H128935   6.056   0.778   4.255  0.0494  0.1563 -1.1078
 9657TIP3    H228936   6.148   0.689   4.174  2.3693  1.8735 -0.4695
 9658TIP3   OH228937   3.354   0.603   5.747  0.1693  0.1426 -0.4925
 9658TIP3    H128938   3.292   0.668   5.714  0.1719  0.2430 -0.3023
 9658TIP3    H228939   3.360   0.622   5.841 -1.1781 -1.2190 -0.0919
 9659TIP3   OH228940   6.976   3.622   3.673 -0.0452  0.1930  0.4814
 9659TIP3    H128941   6.902   3.681   3.689 -0.1907  0.1484 -0.0143
 9659TIP3    H228942   7.017   3.655   3.594  0.4380  0.1830  0.7219
 9660TIP3   OH228943   0.663   4.702   0.976 -0.1340 -0.0982  0.2412
 9660TIP3    H128944   0.733   4.697   1.042 -0.5261 -0.1314  0.6578
 9660TIP3    H228945   0.626   4.614   0.975 -1.2884  0.3527  1.2585
 9661TIP3   OH228946   0.772   3.197   2.172  0.3453  0.4863  0.2956
 9661TIP3    H128947   0.800   3.269   2.228  2.1687  0.2842 -0.2783
 9661TIP3    H228948   0.852   3.147   2.155 -0.9188 -1.9063  0.9553
 9662TIP3   OH228949   5.836   3.987   5.309 -0.2132  0.6777  0.2287
 9662TIP3    H128950   5.753   3.994   5.262  0.5008  1.4655 -0.9364
 9662TIP3    H228951   5.815   3.933   5.386 -0.9082 -2.8660 -2.2178
 9663TIP3   OH228952   1.354   6.264   0.265 -0.5451  0.0118  0.2226
 9663TIP3    H128953   1.445   6.275   0.239 -0.8370  0.4170 -0.6884
 9663TIP3    H228954   1.358   6.240   0.358  0.5503 -1.7639 -0.2325
 9664TIP3   OH228955   6.973   2.245   2.241  0.2650 -0.1896 -0.2310
 9664TIP3    H128956   6.953   2.161   2.283  1.7861  0.3530  1.7401
 9664TIP3    H228957   6.942   2.311   2.303  1.5028  0.6570 -0.4697
 9665TIP3   OH228958   2.295   3.972   1.476 -0.3149 -0.2393 -0.1077
 9665TIP3    H128959   2.372   4.023   1.500 -0.2986 -0.0252 -0.5989
 9665TIP3    H228960   2.313   3.942   1.386 -0.7989 -0.1963 -0.2214
 9666TIP3   OH228961   2.930   4.786   5.557 -0.0493 -0.0362  0.3024
 9666TIP3    H128962   2.838   4.765   5.572  0.1458  0.2367  2.1354
 9666TIP3    H228963   2.930   4.837   5.476 -1.6103  0.6850  0.7135
 9667TIP3   OH228964   1.350   5.134   1.821  0.1091  0.3757  0.8150
 9667TIP3    H128965   1.374   5.042   1.819 -0.6314  0.1450  1.7719
 9667TIP3    H228966   1.295   5.147   1.744  0.4008  0.0711  0.5563
 9668TIP3   OH228967   6.246   0.241   5.792 -0.0344  0.1415 -0.3305
 9668TIP3    H128968   6.225   0.169   5.732 -0.2286  0.0471 -0.1499
 9668TIP3    H228969   6.327   0.278   5.757  0.3120 -0.4557 -0.1711
 9669TIP3   OH228970   1.184   0.683   0.958 -0.0372  0.2968 -0.4242
 9669TIP3    H128971   1.280   0.683   0.963  0.0698  1.2392 -1.7789
 9669TIP3    H228972   1.161   0.774   0.938 -1.3348  0.3728  1.2172
 9670TIP3   OH228973   5.752   4.721   3.583 -0.3226  0.8770 -0.4572
 9670TIP3    H128974   5.751   4.629   3.610  0.7648  1.1561  0.6512
 9670TIP3    H228975   5.840   4.733   3.546 -0.0215  1.7525  0.5065
 9671TIP3   OH228976   2.380   1.847   0.847 -0.5346  0.2621  0.1310
 9671TIP3    H128977   2.318   1.847   0.774 -1.3418  0.6186  0.7917
 9671TIP3    H228978   2.336   1.796   0.915 -0.2659  0.8268  0.7404
 9672TIP3   OH228979   7.047   2.332   3.951  0.4514 -0.1776  0.2185
 9672TIP3    H128980   7.132   2.312   3.990  0.0887  0.3728  1.3526
 9672TIP3    H228981   7.068   2.378   3.870  1.2400 -0.0750  0.4694
 9673TIP3   OH228982   6.699   5.743   4.681 -0.7154  0.2017  0.5589
 9673TIP3    H128983   6.707   5.647   4.678  0.6043  0.2915 -1.6970
 9673TIP3    H228984   6.789   5.774   4.686 -1.0162  1.3127 -0.5049
 9674TIP3   OH228985   4.021   6.346   4.357 -0.5535 -0.9638  0.9453
 9674TIP3    H128986   4.031   6.413   4.425 -2.8414 -0.9439  1.3230
 9674TIP3    H228987   4.110   6.335   4.321  0.5002 -0.1463  3.1232
 9675TIP3   OH228988   6.500   2.356   2.743  0.1176  0.0688  0.3936
 9675TIP3    H128989   6.424   2.412   2.757 -1.6542 -2.6189  2.7568
 9675TIP3    H228990   6.574   2.406   2.779 -1.0839  1.4643  1.0384
 9676TIP3   OH228991   1.326   3.738   3.493 -0.2532  0.1988 -0.1429
 9676TIP3    H128992   1.399   3.787   3.453  1.0127  0.1725  1.9968
 9676TIP3    H228993   1.341   3.648   3.465 -0.3722  0.4189 -0.9596
 9677TIP3   OH228994   3.621   6.172   3.930  0.3767  0.7327 -0.1421
 9677TIP3    H128995   3.654   6.188   4.018  2.1121  0.4616 -0.6983
 9677TIP3    H228996   3.565   6.095   3.938  3.0814 -1.3774  0.2776
 9678TIP3   OH228997   1.225   1.665   3.159 -0.2491  0.7573  0.0356
 9678TIP3    H128998   1.235   1.653   3.253  1.3779  0.9276 -0.1003
 9678TIP3    H228999   1.255   1.755   3.143 -0.6695  0.7867 -0.6281
 9679TIP3   OH229000   1.233   5.552   2.832 -0.1141 -1.0015 -0.5266
 9679TIP3    H129001   1.311   5.529   2.883  1.2303  0.6529 -1.7120
 9679TIP3    H229002   1.246   5.644   2.809 -1.1104 -1.4091 -3.0463
 9680TIP3   OH229003   0.815   5.632   3.614  0.2618 -0.3073  0.2961
 9680TIP3    H129004   0.902   5.617   3.651  0.3255  0.5725  0.5306
 9680TIP3    H229005   0.831   5.661   3.524  0.3128  1.4245  0.8290
 9681TIP3   OH229006   5.016   5.107   3.075 -0.5681 -0.6425  0.3403
 9681TIP3    H129007   5.017   5.203   3.072 -0.0917 -0.5738  2.0270
 9681TIP3    H229008   4.923   5.084   3.078 -0.7111 -0.2855 -0.7316
 9682TIP3   OH229009   2.086   3.400   3.446 -0.2446  0.1075 -0.0770
 9682TIP3    H129010   2.016   3.380   3.385 -1.2617  1.4112  0.6154
 9682TIP3    H229011   2.153   3.443   3.392  0.0148 -1.0671 -0.7226
 9683TIP3   OH229012   1.107   3.480   2.834 -0.5240  0.1384 -0.1883
 9683TIP3    H129013   1.162   3.487   2.756 -0.3912  0.0015 -0.1074
 9683TIP3    H229014   1.102   3.569   2.868 -2.9185  0.7987 -1.9314
 9684TIP3   OH229015   2.076   3.030   2.401 -0.1584  0.0787 -0.2414
 9684TIP3    H129016   2.017   3.100   2.429 -1.1370 -0.3518 -1.1791
 9684TIP3    H229017   2.158   3.049   2.446 -0.2931  2.0143 -0.7484
 9685TIP3   OH229018   6.827   3.042   2.122 -0.2807 -0.0773  0.2453
 9685TIP3    H129019   6.918   3.014   2.119  0.3482  1.8803 -0.6042
 9685TIP3    H229020   6.780   2.967   2.159  1.4478 -1.6358 -0.5528
 9686TIP3   OH229021   2.497   0.350   5.829 -0.3584  0.0593 -0.2309
 9686TIP3    H129022   2.419   0.397   5.801 -0.2099  0.0903 -0.6070
 9686TIP3    H229023   2.464   0.276   5.880 -0.6072  0.3608  0.0444
 9687TIP3   OH229024   3.065   4.093   3.933 -0.8340  0.5699 -0.2973
 9687TIP3    H129025   3.078   4.095   3.839 -1.0495  0.7624 -0.3240
 9687TIP3    H229026   2.992   4.154   3.949  0.3361  1.9093  0.1725
 9688TIP3   OH229027   3.041   1.961   2.790  0.1908  0.2943  0.1498
 9688TIP3    H129028   3.105   2.030   2.771  1.5777 -1.0653 -0.3368
 9688TIP3    H229029   3.077   1.916   2.867 -0.8970  0.3385  0.7004
 9689TIP3   OH229030   0.727   0.002   5.696  0.5324 -0.2853 -0.0567
 9689TIP3    H129031   0.675  -0.012   5.775 -0.3875 -0.2681 -0.6448
 9689TIP3    H229032   0.728   0.097   5.684 -1.8415 -0.3672 -1.6505
 9690TIP3   OH229033   6.656   3.875   0.386  0.1253  0.0065  0.5285
 9690TIP3    H129034   6.619   3.962   0.401 -1.8791 -0.7520  0.2863
 9690TIP3    H229035   6.652   3.833   0.472 -0.4778 -0.3944  0.3115
 9691TIP3   OH229036   2.273   6.302   2.392 -0.3327 -0.8200 -0.2784
 9691TIP3    H129037   2.206   6.296   2.460 -1.5137  0.6515 -1.2466
 9691TIP3    H229038   2.294   6.211   2.371 -0.2428 -1.2946  1.7422
 9692TIP3   OH229039   0.416   6.249   2.886  0.1875  0.3325 -0.4205
 9692TIP3    H129040   0.481   6.245   2.817  0.1793  1.3704 -0.5106
 9692TIP3    H229041   0.461   6.292   2.959  0.3333 -1.1444  0.3904
 9693TIP3   OH229042   5.507   1.691   2.920 -0.3537 -0.0386  0.3163
 9693TIP3    H129043   5.430   1.709   2.866 -0.7506 -0.3910  0.7621
 9693TIP3    H229044   5.568   1.762   2.899 -1.1105  0.6981  0.5601
 9694TIP3   OH229045   6.694   1.849   0.358  0.2934 -0.2673 -0.3493
 9694TIP3    H129046   6.740   1.903   0.422  1.0614 -0.5699 -0.6363
 9694TIP3    H229047   6.718   1.887   0.273 -2.6398  1.6766 -0.4457
 9695TIP3   OH229048   5.533   6.196   5.173  0.3519 -0.7351  0.4736
 9695TIP3    H129049   5.468   6.146   5.224  0.2487 -0.0574  1.0255
 9695TIP3    H229050   5.584   6.129   5.128  0.8060 -1.4045  1.9123
 9696TIP3   OH229051   3.283   3.066   0.480 -0.7708  0.2576 -0.4619
 9696TIP3    H129052   3.240   3.143   0.443  1.4661  1.6753 -0.3023
 9696TIP3    H229053   3.215   2.999   0.482 -2.5151  1.8948 -1.6180
 9697TIP3   OH229054   7.210   2.359   2.303  0.0285  0.3186 -0.0572
 9697TIP3    H129055   7.133   2.315   2.267 -0.8944  0.4015  1.7148
 9697TIP3    H229056   7.213   2.443   2.257 -1.0418  0.3762 -0.0498
 9698TIP3   OH229057   1.314   4.664   0.337 -0.7560  0.0285 -0.1187
 9698TIP3    H129058   1.303   4.690   0.245 -0.3856 -1.0161 -0.4865
 9698TIP3    H229059   1.254   4.590   0.348 -0.4970 -0.1178  0.3534
 9699TIP3   OH229060   0.302   0.777   2.772 -0.2772 -0.1219  0.2580
 9699TIP3    H129061   0.357   0.700   2.782  0.9468  0.4594 -1.5200
 9699TIP3    H229062   0.299   0.793   2.678 -0.9472  1.6884  0.5420
 9700TIP3   OH229063   1.335   4.680   0.053 -0.3532  0.5420  0.3969
 9700TIP3    H129064   1.343   4.739  -0.022  0.2536  0.1981  0.1815
 9700TIP3    H229065   1.373   4.598   0.023  1.7702  0.9788  1.7036
 9701TIP3   OH229066   3.989   6.320   2.533  0.1630 -0.0024 -0.5139
 9701TIP3    H129067   3.957   6.255   2.471 -0.1070  0.9035 -1.3439
 9701TIP3    H229068   3.927   6.315   2.606 -0.4316  0.0111 -1.0093
 9702TIP3   OH229069   5.968   3.759   3.267  0.0605 -0.1205  0.5755
 9702TIP3    H129070   5.895   3.815   3.241 -0.7417 -2.2635 -2.2472
 9702TIP3    H229071   5.927   3.689   3.318  0.5600  0.0469  1.2183
 9703TIP3   OH229072   2.055   4.230   2.610 -0.2346  0.5474  0.1319
 9703TIP3    H129073   2.145   4.250   2.637 -0.6354  1.2534  0.9913
 9703TIP3    H229074   2.050   4.135   2.616  1.2938  0.1882 -2.7030
 9704TIP3   OH229075   6.554   6.634   4.732  0.1452  0.0484 -0.1846
 9704TIP3    H129076   6.641   6.601   4.753  0.3742  1.1417  0.6554
 9704TIP3    H229077   6.522   6.575   4.664  0.6497 -1.7160  1.0402
 9705TIP3   OH229078   5.899   6.709   1.943  0.3342 -0.2480 -0.2147
 9705TIP3    H129079   5.952   6.667   2.010 -0.7452  1.7315  2.0457
 9705TIP3    H229080   5.948   6.789   1.920  0.6217 -0.8263 -1.7563
 9706TIP3   OH229081   0.672   0.004   1.340  0.2375  0.0984  0.4979
 9706TIP3    H129082   0.678   0.088   1.386 -0.6660  0.0654  0.6948
 9706TIP3    H229083   0.692  -0.061   1.408  1.8082  0.1688  0.1479
 9707TIP3   OH229084   6.512   1.743   5.495  0.2437 -0.3769 -0.2974
 9707TIP3    H129085   6.498   1.732   5.401  2.4981 -1.1635 -0.5936
 9707TIP3    H229086   6.550   1.660   5.524 -0.3545 -0.1272  1.3190
 9708TIP3   OH229087   5.257   4.135   2.977 -0.0622  0.3422  0.4592
 9708TIP3    H129088   5.203   4.165   3.050 -1.2035 -3.0028  1.1395
 9708TIP3    H229089   5.341   4.112   3.017  1.3078  3.4687 -0.2681
 9709TIP3   OH229090   0.543   6.138   4.350 -0.0772  0.0910  0.2401
 9709TIP3    H129091   0.482   6.136   4.424 -0.1272 -0.6602  0.1803
 9709TIP3    H229092   0.609   6.072   4.371  2.1062  2.4829  1.4604
 9710TIP3   OH229093   2.698   1.546   4.973 -0.0965 -0.6686 -0.2325
 9710TIP3    H129094   2.616   1.500   4.992 -0.0958  0.2591  2.4056
 9710TIP3    H229095   2.742   1.553   5.058  1.9165  0.4104 -1.2838
 9711TIP3   OH229096   1.352   2.936  -0.011  0.2991 -0.3432 -0.0502
 9711TIP3    H129097   1.402   2.955   0.068 -0.3370 -0.7435  0.4687
 9711TIP3    H229098   1.400   2.866  -0.054 -0.0404 -1.0479  0.6868
 9712TIP3   OH229099   5.618   0.027   5.514  0.4130 -0.1422 -0.0252
 9712TIP3    H129100   5.629  -0.022   5.432 -0.8852  0.4929 -0.6123
 9712TIP3    H229101   5.597   0.116   5.486 -1.2016 -0.1748  0.9757
 9713TIP3   OH229102   4.801   0.650   0.994 -0.4991 -0.0063 -0.0454
 9713TIP3    H129103   4.855   0.727   0.975 -2.0295  1.1291 -0.0022
 9713TIP3    H229104   4.854   0.576   0.964  0.6890  1.1044 -0.8347
 9714TIP3   OH229105   3.532   1.548   1.370 -0.4042  0.2303 -0.3326
 9714TIP3    H129106   3.528   1.459   1.335  1.6095 -0.1635  0.3305
 9714TIP3    H229107   3.441   1.568   1.394 -0.8734 -1.7132 -0.3230
 9715TIP3   OH229108   0.674   4.816   3.764 -0.2959  0.2642  0.2362
 9715TIP3    H129109   0.754   4.763   3.762 -0.4191 -0.1429  2.8840
 9715TIP3    H229110   0.706   4.906   3.757  0.2947  0.0588  0.1874
 9716TIP3   OH229111   3.963   5.658   1.600 -0.0281 -0.1263 -0.2122
 9716TIP3    H129112   3.886   5.714   1.587  0.5705  0.8168  0.2086
 9716TIP3    H229113   4.037   5.718   1.595  0.9170 -1.3914 -3.3222
 9717TIP3   OH229114   2.726   0.200   4.070 -0.2199  0.4339 -0.3934
 9717TIP3    H129115   2.673   0.120   4.065 -0.7629  0.7036  0.8024
 9717TIP3    H229116   2.817   0.169   4.064 -0.3915 -0.3631  0.7851
 9718TIP3   OH229117   0.408   0.267   2.758 -0.0008 -0.2316  0.2370
 9718TIP3    H129118   0.483   0.218   2.724 -0.6894 -0.8028 -0.5093
 9718TIP3    H229119   0.375   0.213   2.830 -0.6640 -0.8301 -0.4848
 9719TIP3   OH229120   0.176   4.575   0.282 -0.3360  0.7487  0.1212
 9719TIP3    H129121   0.186   4.669   0.296 -0.6893  0.9677 -0.9458
 9719TIP3    H229122   0.185   4.537   0.369  0.2472  1.7257  0.5148
 9720TIP3   OH229123   5.186   3.283   4.001 -0.3201  0.0842  0.3119
 9720TIP3    H129124   5.268   3.318   3.965 -0.1402 -0.2898  0.3446
 9720TIP3    H229125   5.130   3.359   4.012 -0.4687  0.1925 -1.0024
 9721TIP3   OH229126   1.879   5.891   4.580 -0.4054  0.4720  0.5843
 9721TIP3    H129127   1.917   5.830   4.644  0.4764  0.2533 -0.1219
 9721TIP3    H229128   1.794   5.853   4.558  0.2716 -0.6972 -0.0903
 9722TIP3   OH229129   5.489   0.469   1.030  0.4188  0.2035  0.4757
 9722TIP3    H129130   5.528   0.399   0.978  0.0939 -0.0692  0.5979
 9722TIP3    H229131   5.533   0.549   1.000 -1.3802  0.4175 -1.8963
 9723TIP3   OH229132   2.795   5.677   1.828 -0.3651 -0.2277  0.1217
 9723TIP3    H129133   2.794   5.656   1.922  0.1747 -0.2884  0.1199
 9723TIP3    H229134   2.853   5.611   1.790  0.9997  0.9668  0.0396
 9724TIP3   OH229135   6.304   2.503   0.552  0.1508  0.3205 -0.0320
 9724TIP3    H129136   6.260   2.537   0.474  1.6073 -0.9485 -1.4739
 9724TIP3    H229137   6.290   2.408   0.548  1.3948  0.1041  0.5086
 9725TIP3   OH229138   5.632   4.881   5.812  0.0419 -0.1519  0.2858
 9725TIP3    H129139   5.573   4.811   5.840 -0.3702  0.6208  1.3940
 9725TIP3    H229140   5.705   4.835   5.770 -0.3735 -1.2279  0.7006
 9726TIP3   OH229141   6.112   2.640   4.962  0.6917  0.0193 -0.1062
 9726TIP3    H129142   6.169   2.564   4.968  1.8951  0.9289  0.4455
 9726TIP3    H229143   6.046   2.627   5.030  1.0235 -0.4212  0.1342
 9727TIP3   OH229144   1.028   5.637   1.682  0.5383  0.8114 -0.4762
 9727TIP3    H129145   0.989   5.608   1.764  2.3528 -1.2816 -0.2666
 9727TIP3    H229146   0.965   5.610   1.615  1.2030 -1.8867 -0.1018
 9728TIP3   OH229147   2.539   1.734   4.204  0.2366  0.2769 -0.1109
 9728TIP3    H129148   2.621   1.773   4.172  1.0331 -0.6567  0.7268
 9728TIP3    H229149   2.561   1.642   4.220 -0.4622  0.4205  1.8762
 9729TIP3   OH229150   1.733   1.705   3.481 -0.1568 -0.7240  0.7773
 9729TIP3    H129151   1.743   1.637   3.547  2.7141 -0.5240  0.6576
 9729TIP3    H229152   1.811   1.698   3.426 -0.7394  1.3985 -0.4493
 9730TIP3   OH229153   2.304   6.311   0.856 -0.2882 -0.4088  0.0844
 9730TIP3    H129154   2.374   6.332   0.919  0.7476 -1.7048 -0.5838
 9730TIP3    H229155   2.224   6.314   0.907  0.2569  0.9529  0.9222
 9731TIP3   OH229156   2.853   1.467   2.676 -0.8977 -0.0654 -0.1666
 9731TIP3    H129157   2.797   1.536   2.641 -0.5898  0.8116  1.0015
 9731TIP3    H229158   2.935   1.474   2.629 -1.5334 -0.9838 -1.4828
 9732TIP3   OH229159   1.711   5.325   2.345  0.0296 -0.2352 -0.0388
 9732TIP3    H129160   1.744   5.236   2.359  0.0079 -0.2798 -0.2673
 9732TIP3    H229161   1.681   5.326   2.254  2.7588  0.8343 -1.0436
 9733TIP3   OH229162   1.663   3.152   5.236  0.0321 -0.8362 -0.1155
 9733TIP3    H129163   1.748   3.119   5.210  0.1572  0.4376 -1.5037
 9733TIP3    H229164   1.675   3.185   5.325  0.7713 -1.3920 -0.0112
 9734TIP3   OH229165   2.314   0.260   0.765  0.2225 -0.1693  0.1549
 9734TIP3    H129166   2.249   0.228   0.828 -0.9330  1.7557  0.0248
 9734TIP3    H229167   2.268   0.260   0.681 -0.1046  2.3834  0.2621
 9735TIP3   OH229168   4.658   1.553   1.895 -0.3972 -0.4210  0.8553
 9735TIP3    H129169   4.660   1.494   1.820 -0.4827  0.8435 -0.1761
 9735TIP3    H229170   4.570   1.543   1.931  0.0995 -2.0849  1.6916
 9736TIP3   OH229171   4.272   4.624   0.948  0.4681  0.0699  0.0928
 9736TIP3    H129172   4.202   4.559   0.935  0.9422 -0.7023  1.2358
 9736TIP3    H229173   4.330   4.611   0.874 -0.1114  0.0716 -0.3707
 9737TIP3   OH229174   5.814   1.032   2.259 -0.0503  0.1938 -0.5418
 9737TIP3    H129175   5.831   1.075   2.176  0.1319 -0.7556 -1.0049
 9737TIP3    H229176   5.807   0.939   2.238  0.6466 -0.1406  0.5882
 9738TIP3   OH229177   1.403   1.038   1.003 -0.8400  0.2915  0.1743
 9738TIP3    H129178   1.390   1.045   1.097  2.4813  1.1917  0.6968
 9738TIP3    H229179   1.463   1.110   0.982  3.2134 -3.1719 -1.4877
 9739TIP3   OH229180   1.622   5.403   2.089  0.1696  0.3828 -0.3124
 9739TIP3    H129181   1.575   5.373   2.011 -0.0874 -0.1563  0.0469
 9739TIP3    H229182   1.553   5.428   2.151  0.3231 -1.1064  0.4890
 9740TIP3   OH229183   2.205   1.697   2.253  0.1817  0.2316  0.5330
 9740TIP3    H129184   2.239   1.617   2.293  2.2782  0.7450 -0.0882
 9740TIP3    H229185   2.283   1.739   2.215 -1.3622  0.7323 -2.3549
 9741TIP3   OH229186   4.790   5.210   2.605  0.1418 -0.5420 -0.5112
 9741TIP3    H129187   4.835   5.255   2.677 -0.7137  0.5522 -0.6460
 9741TIP3    H229188   4.792   5.118   2.630  0.4091 -0.2453  0.6164
 9742TIP3   OH229189   0.918   2.884   5.179 -0.0511 -0.3352 -0.4528
 9742TIP3    H129190   1.001   2.878   5.131 -0.7300 -0.2566 -1.6844
 9742TIP3    H229191   0.915   2.803   5.231  0.6291 -0.5149 -0.6809
 9743TIP3   OH229192   6.641   2.083   0.944 -0.3292 -0.2322  0.1830
 9743TIP3    H129193   6.682   2.094   1.029  0.2718  0.6052 -0.2007
 9743TIP3    H229194   6.561   2.034   0.962 -0.0937 -0.2605  1.1937
 9744TIP3   OH229195   6.091   5.506   4.928  0.1463 -0.4921 -0.4103
 9744TIP3    H129196   6.089   5.597   4.959 -2.1901 -0.3532 -0.7503
 9744TIP3    H229197   6.128   5.456   5.000 -3.0919  0.1024  1.9343
 9745TIP3   OH229198   1.387   0.528   4.551 -0.1554 -0.2112  0.3819
 9745TIP3    H129199   1.326   0.594   4.520 -0.1655 -0.3362  0.1373
 9745TIP3    H229200   1.379   0.456   4.489  1.0216  0.2019 -0.2734
 9746TIP3   OH229201   0.012   4.057   1.756  0.4859 -0.2431  0.1244
 9746TIP3    H129202   0.060   3.980   1.726  0.1594 -0.6829  0.6995
 9746TIP3    H229203   0.030   4.061   1.850  0.2974  0.2321  0.1427
 9747TIP3   OH229204   6.624   3.222   3.304 -0.3740 -0.0770 -0.1670
 9747TIP3    H129205   6.545   3.218   3.250  0.5589 -0.6867 -1.5456
 9747TIP3    H229206   6.599   3.180   3.386 -1.2486 -0.9864 -0.8783
 9748TIP3   OH229207   5.018   6.588   2.375 -0.2878 -0.2450  0.1920
 9748TIP3    H129208   4.961   6.548   2.441  1.5272 -1.2263  1.2400
 9748TIP3    H229209   5.091   6.624   2.425  0.6335 -0.1089 -1.1979
 9749TIP3   OH229210   1.260   5.558   1.896  0.3375  0.0183  0.7048
 9749TIP3    H129211   1.217   5.641   1.875  1.2326  0.6276  1.2210
 9749TIP3    H229212   1.229   5.537   1.984  0.4668  0.0435  0.7565
   7.21765   6.80487   5.89319   0.00000   0.00000  -2.40589   0.00000  -2.40589  -3.40243
