;;
;; Generated by CHARMM-GUI FF-Converter
;;
;; Correspondance:
;; jul316@lehigh.edu or wonpil@lehigh.edu
;;
;; GROMACS topology file for PROA
;;


[ moleculetype ]
; name	nrexcl
PROA	     3

[ atoms ]
; nr	type	resnr	residu	atom	cgnr	charge	mass
     1        NH3      1      ASP      N      1    -0.300000    14.0070   ; qtot -0.300
     2         HC      1      ASP    HT1      2     0.330000     1.0080   ; qtot  0.030
     3         HC      1      ASP    HT2      3     0.330000     1.0080   ; qtot  0.360
     4         HC      1      ASP    HT3      4     0.330000     1.0080   ; qtot  0.690
     5        CT1      1      ASP     CA      5     0.210000    12.0110   ; qtot  0.900
     6        HB1      1      ASP     HA      6     0.100000     1.0080   ; qtot  1.000
     7       CT2A      1      ASP     CB      7    -0.280000    12.0110   ; qtot  0.720
     8        HA2      1      ASP    HB1      8     0.090000     1.0080   ; qtot  0.810
     9        HA2      1      ASP    HB2      9     0.090000     1.0080   ; qtot  0.900
    10         CC      1      ASP     CG     10     0.620000    12.0110   ; qtot  1.520
    11         OC      1      ASP    OD1     11    -0.760000    15.9994   ; qtot  0.760
    12         OC      1      ASP    OD2     12    -0.760000    15.9994   ; qtot  0.000
    13          C      1      ASP      C     13     0.510000    12.0110   ; qtot  0.510
    14          O      1      ASP      O     14    -0.510000    15.9994   ; qtot  0.000
    15        NH1      2      SER      N     15    -0.470000    14.0070   ; qtot -0.470
    16          H      2      SER     HN     16     0.310000     1.0080   ; qtot -0.160
    17        CT1      2      SER     CA     17     0.070000    12.0110   ; qtot -0.090
    18        HB1      2      SER     HA     18     0.090000     1.0080   ; qtot  0.000
    19        CT2      2      SER     CB     19     0.050000    12.0110   ; qtot  0.050
    20        HA2      2      SER    HB1     20     0.090000     1.0080   ; qtot  0.140
    21        HA2      2      SER    HB2     21     0.090000     1.0080   ; qtot  0.230
    22        OH1      2      SER     OG     22    -0.660000    15.9994   ; qtot -0.430
    23          H      2      SER    HG1     23     0.430000     1.0080   ; qtot -0.000
    24          C      2      SER      C     24     0.510000    12.0110   ; qtot  0.510
    25          O      2      SER      O     25    -0.510000    15.9994   ; qtot  0.000
    26        NH1      3      GLY      N     26    -0.470000    14.0070   ; qtot -0.470
    27          H      3      GLY     HN     27     0.310000     1.0080   ; qtot -0.160
    28        CT2      3      GLY     CA     28    -0.020000    12.0110   ; qtot -0.180
    29        HB2      3      GLY    HA1     29     0.090000     1.0080   ; qtot -0.090
    30        HB2      3      GLY    HA2     30     0.090000     1.0080   ; qtot  0.000
    31          C      3      GLY      C     31     0.510000    12.0110   ; qtot  0.510
    32          O      3      GLY      O     32    -0.510000    15.9994   ; qtot  0.000
    33        NH1      4      ASP      N     33    -0.470000    14.0070   ; qtot -0.470
    34          H      4      ASP     HN     34     0.310000     1.0080   ; qtot -0.160
    35        CT1      4      ASP     CA     35     0.070000    12.0110   ; qtot -0.090
    36        HB1      4      ASP     HA     36     0.090000     1.0080   ; qtot  0.000
    37       CT2A      4      ASP     CB     37    -0.280000    12.0110   ; qtot -0.280
    38        HA2      4      ASP    HB1     38     0.090000     1.0080   ; qtot -0.190
    39        HA2      4      ASP    HB2     39     0.090000     1.0080   ; qtot -0.100
    40         CC      4      ASP     CG     40     0.620000    12.0110   ; qtot  0.520
    41         OC      4      ASP    OD1     41    -0.760000    15.9994   ; qtot -0.240
    42         OC      4      ASP    OD2     42    -0.760000    15.9994   ; qtot -1.000
    43          C      4      ASP      C     43     0.510000    12.0110   ; qtot -0.490
    44          O      4      ASP      O     44    -0.510000    15.9994   ; qtot -1.000
    45        NH1      5      SER      N     45    -0.470000    14.0070   ; qtot -1.470
    46          H      5      SER     HN     46     0.310000     1.0080   ; qtot -1.160
    47        CT1      5      SER     CA     47     0.070000    12.0110   ; qtot -1.090
    48        HB1      5      SER     HA     48     0.090000     1.0080   ; qtot -1.000
    49        CT2      5      SER     CB     49     0.050000    12.0110   ; qtot -0.950
    50        HA2      5      SER    HB1     50     0.090000     1.0080   ; qtot -0.860
    51        HA2      5      SER    HB2     51     0.090000     1.0080   ; qtot -0.770
    52        OH1      5      SER     OG     52    -0.660000    15.9994   ; qtot -1.430
    53          H      5      SER    HG1     53     0.430000     1.0080   ; qtot -1.000
    54          C      5      SER      C     54     0.510000    12.0110   ; qtot -0.490
    55          O      5      SER      O     55    -0.510000    15.9994   ; qtot -1.000
    56        NH1      6      GLY      N     56    -0.470000    14.0070   ; qtot -1.470
    57          H      6      GLY     HN     57     0.310000     1.0080   ; qtot -1.160
    58        CT2      6      GLY     CA     58    -0.020000    12.0110   ; qtot -1.180
    59        HB2      6      GLY    HA1     59     0.090000     1.0080   ; qtot -1.090
    60        HB2      6      GLY    HA2     60     0.090000     1.0080   ; qtot -1.000
    61          C      6      GLY      C     61     0.510000    12.0110   ; qtot -0.490
    62          O      6      GLY      O     62    -0.510000    15.9994   ; qtot -1.000
    63          N      7      PRO      N     63    -0.290000    14.0070   ; qtot -1.290
    64        CP3      7      PRO     CD     64     0.000000    12.0110   ; qtot -1.290
    65        HA2      7      PRO    HD1     65     0.090000     1.0080   ; qtot -1.200
    66        HA2      7      PRO    HD2     66     0.090000     1.0080   ; qtot -1.110
    67        CP1      7      PRO     CA     67     0.020000    12.0110   ; qtot -1.090
    68        HB1      7      PRO     HA     68     0.090000     1.0080   ; qtot -1.000
    69        CP2      7      PRO     CB     69    -0.180000    12.0110   ; qtot -1.180
    70        HA2      7      PRO    HB1     70     0.090000     1.0080   ; qtot -1.090
    71        HA2      7      PRO    HB2     71     0.090000     1.0080   ; qtot -1.000
    72        CP2      7      PRO     CG     72    -0.180000    12.0110   ; qtot -1.180
    73        HA2      7      PRO    HG1     73     0.090000     1.0080   ; qtot -1.090
    74        HA2      7      PRO    HG2     74     0.090000     1.0080   ; qtot -1.000
    75          C      7      PRO      C     75     0.510000    12.0110   ; qtot -0.490
    76          O      7      PRO      O     76    -0.510000    15.9994   ; qtot -1.000
    77        NH1      8      GLY      N     77    -0.470000    14.0070   ; qtot -1.470
    78          H      8      GLY     HN     78     0.310000     1.0080   ; qtot -1.160
    79        CT2      8      GLY     CA     79    -0.020000    12.0110   ; qtot -1.180
    80        HB2      8      GLY    HA1     80     0.090000     1.0080   ; qtot -1.090
    81        HB2      8      GLY    HA2     81     0.090000     1.0080   ; qtot -1.000
    82          C      8      GLY      C     82     0.510000    12.0110   ; qtot -0.490
    83          O      8      GLY      O     83    -0.510000    15.9994   ; qtot -1.000
    84        NH1      9      ASP      N     84    -0.470000    14.0070   ; qtot -1.470
    85          H      9      ASP     HN     85     0.310000     1.0080   ; qtot -1.160
    86        CT1      9      ASP     CA     86     0.070000    12.0110   ; qtot -1.090
    87        HB1      9      ASP     HA     87     0.090000     1.0080   ; qtot -1.000
    88       CT2A      9      ASP     CB     88    -0.280000    12.0110   ; qtot -1.280
    89        HA2      9      ASP    HB1     89     0.090000     1.0080   ; qtot -1.190
    90        HA2      9      ASP    HB2     90     0.090000     1.0080   ; qtot -1.100
    91         CC      9      ASP     CG     91     0.620000    12.0110   ; qtot -0.480
    92         OC      9      ASP    OD1     92    -0.760000    15.9994   ; qtot -1.240
    93         OC      9      ASP    OD2     93    -0.760000    15.9994   ; qtot -2.000
    94          C      9      ASP      C     94     0.510000    12.0110   ; qtot -1.490
    95          O      9      ASP      O     95    -0.510000    15.9994   ; qtot -2.000
    96          N     10      PRO      N     96    -0.290000    14.0070   ; qtot -2.290
    97        CP3     10      PRO     CD     97     0.000000    12.0110   ; qtot -2.290
    98        HA2     10      PRO    HD1     98     0.090000     1.0080   ; qtot -2.200
    99        HA2     10      PRO    HD2     99     0.090000     1.0080   ; qtot -2.110
   100        CP1     10      PRO     CA    100     0.020000    12.0110   ; qtot -2.090
   101        HB1     10      PRO     HA    101     0.090000     1.0080   ; qtot -2.000
   102        CP2     10      PRO     CB    102    -0.180000    12.0110   ; qtot -2.180
   103        HA2     10      PRO    HB1    103     0.090000     1.0080   ; qtot -2.090
   104        HA2     10      PRO    HB2    104     0.090000     1.0080   ; qtot -2.000
   105        CP2     10      PRO     CG    105    -0.180000    12.0110   ; qtot -2.180
   106        HA2     10      PRO    HG1    106     0.090000     1.0080   ; qtot -2.090
   107        HA2     10      PRO    HG2    107     0.090000     1.0080   ; qtot -2.000
   108          C     10      PRO      C    108     0.510000    12.0110   ; qtot -1.490
   109          O     10      PRO      O    109    -0.510000    15.9994   ; qtot -2.000
   110        NH1     11      GLY      N    110    -0.470000    14.0070   ; qtot -2.470
   111          H     11      GLY     HN    111     0.310000     1.0080   ; qtot -2.160
   112        CT2     11      GLY     CA    112    -0.020000    12.0110   ; qtot -2.180
   113        HB2     11      GLY    HA1    113     0.090000     1.0080   ; qtot -2.090
   114        HB2     11      GLY    HA2    114     0.090000     1.0080   ; qtot -2.000
   115          C     11      GLY      C    115     0.510000    12.0110   ; qtot -1.490
   116          O     11      GLY      O    116    -0.510000    15.9994   ; qtot -2.000
   117        NH1     12      ASP      N    117    -0.470000    14.0070   ; qtot -2.470
   118          H     12      ASP     HN    118     0.310000     1.0080   ; qtot -2.160
   119        CT1     12      ASP     CA    119     0.070000    12.0110   ; qtot -2.090
   120        HB1     12      ASP     HA    120     0.090000     1.0080   ; qtot -2.000
   121       CT2A     12      ASP     CB    121    -0.280000    12.0110   ; qtot -2.280
   122        HA2     12      ASP    HB1    122     0.090000     1.0080   ; qtot -2.190
   123        HA2     12      ASP    HB2    123     0.090000     1.0080   ; qtot -2.100
   124         CC     12      ASP     CG    124     0.620000    12.0110   ; qtot -1.480
   125         OC     12      ASP    OD1    125    -0.760000    15.9994   ; qtot -2.240
   126         OC     12      ASP    OD2    126    -0.760000    15.9994   ; qtot -3.000
   127          C     12      ASP      C    127     0.510000    12.0110   ; qtot -2.490
   128          O     12      ASP      O    128    -0.510000    15.9994   ; qtot -3.000
   129        NH1     13      SER      N    129    -0.470000    14.0070   ; qtot -3.470
   130          H     13      SER     HN    130     0.310000     1.0080   ; qtot -3.160
   131        CT1     13      SER     CA    131     0.070000    12.0110   ; qtot -3.090
   132        HB1     13      SER     HA    132     0.090000     1.0080   ; qtot -3.000
   133        CT2     13      SER     CB    133     0.050000    12.0110   ; qtot -2.950
   134        HA2     13      SER    HB1    134     0.090000     1.0080   ; qtot -2.860
   135        HA2     13      SER    HB2    135     0.090000     1.0080   ; qtot -2.770
   136        OH1     13      SER     OG    136    -0.660000    15.9994   ; qtot -3.430
   137          H     13      SER    HG1    137     0.430000     1.0080   ; qtot -3.000
   138          C     13      SER      C    138     0.510000    12.0110   ; qtot -2.490
   139          O     13      SER      O    139    -0.510000    15.9994   ; qtot -3.000
   140        NH1     14      GLY      N    140    -0.470000    14.0070   ; qtot -3.470
   141          H     14      GLY     HN    141     0.310000     1.0080   ; qtot -3.160
   142        CT2     14      GLY     CA    142    -0.020000    12.0110   ; qtot -3.180
   143        HB2     14      GLY    HA1    143     0.090000     1.0080   ; qtot -3.090
   144        HB2     14      GLY    HA2    144     0.090000     1.0080   ; qtot -3.000
   145          C     14      GLY      C    145     0.510000    12.0110   ; qtot -2.490
   146          O     14      GLY      O    146    -0.510000    15.9994   ; qtot -3.000
   147        NH1     15      SER      N    147    -0.470000    14.0070   ; qtot -3.470
   148          H     15      SER     HN    148     0.310000     1.0080   ; qtot -3.160
   149        CT1     15      SER     CA    149     0.070000    12.0110   ; qtot -3.090
   150        HB1     15      SER     HA    150     0.090000     1.0080   ; qtot -3.000
   151        CT2     15      SER     CB    151     0.050000    12.0110   ; qtot -2.950
   152        HA2     15      SER    HB1    152     0.090000     1.0080   ; qtot -2.860
   153        HA2     15      SER    HB2    153     0.090000     1.0080   ; qtot -2.770
   154        OH1     15      SER     OG    154    -0.660000    15.9994   ; qtot -3.430
   155          H     15      SER    HG1    155     0.430000     1.0080   ; qtot -3.000
   156         CC     15      SER      C    156     0.340000    12.0110   ; qtot -2.660
   157         OC     15      SER    OT1    157    -0.670000    15.9994   ; qtot -3.330
   158         OC     15      SER    OT2    158    -0.670000    15.9994   ; qtot -4.000

[ bonds ]
; ai	aj	funct	b0	Kb
    2     1     1
    3     1     1
    4     1     1
    1     5     1
    5     6     1
    7     5     1
   13     5     1
    7     8     1
    7     9     1
   10     7     1
   10    11     1
   12    10     1
   14    13     1
   13    15     1
   15    16     1
   15    17     1
   17    18     1
   19    17     1
   24    17     1
   19    20     1
   19    21     1
   22    19     1
   22    23     1
   25    24     1
   24    26     1
   26    27     1
   26    28     1
   28    29     1
   28    30     1
   31    28     1
   32    31     1
   31    33     1
   33    34     1
   33    35     1
   35    36     1
   37    35     1
   43    35     1
   37    38     1
   37    39     1
   40    37     1
   40    41     1
   42    40     1
   44    43     1
   43    45     1
   45    46     1
   45    47     1
   47    48     1
   49    47     1
   54    47     1
   49    50     1
   49    51     1
   52    49     1
   52    53     1
   55    54     1
   54    56     1
   56    57     1
   56    58     1
   58    59     1
   58    60     1
   61    58     1
   62    61     1
   61    63     1
   63    64     1
   63    67     1
   65    64     1
   66    64     1
   72    64     1
   68    67     1
   67    69     1
   75    67     1
   70    69     1
   71    69     1
   69    72     1
   73    72     1
   74    72     1
   76    75     1
   75    77     1
   77    78     1
   77    79     1
   79    80     1
   79    81     1
   82    79     1
   83    82     1
   82    84     1
   84    85     1
   84    86     1
   86    87     1
   88    86     1
   94    86     1
   88    89     1
   88    90     1
   91    88     1
   91    92     1
   93    91     1
   95    94     1
   94    96     1
   96    97     1
   96   100     1
   98    97     1
   99    97     1
  105    97     1
  101   100     1
  100   102     1
  108   100     1
  103   102     1
  104   102     1
  102   105     1
  106   105     1
  107   105     1
  109   108     1
  108   110     1
  110   111     1
  110   112     1
  112   113     1
  112   114     1
  115   112     1
  116   115     1
  115   117     1
  117   118     1
  117   119     1
  119   120     1
  121   119     1
  127   119     1
  121   122     1
  121   123     1
  124   121     1
  124   125     1
  126   124     1
  128   127     1
  127   129     1
  129   130     1
  129   131     1
  131   132     1
  133   131     1
  138   131     1
  133   134     1
  133   135     1
  136   133     1
  136   137     1
  139   138     1
  138   140     1
  140   141     1
  140   142     1
  142   143     1
  142   144     1
  145   142     1
  146   145     1
  145   147     1
  147   148     1
  147   149     1
  149   150     1
  151   149     1
  156   149     1
  151   152     1
  151   153     1
  154   151     1
  154   155     1
  156   157     1
  156   158     1

[ pairs ]
; ai	aj	funct	c6	c12 or
; ai	aj	funct	fudgeQQ	q1	q2	c6	c12
    1     8     1
    1     9     1
    1    10     1
    1    14     1
    1    15     1
    2     6     1
    2     7     1
    2    13     1
    3     6     1
    3     7     1
    3    13     1
    4     6     1
    4     7     1
    4    13     1
    5    11     1
    5    12     1
    5    16     1
    5    17     1
    6     8     1
    6     9     1
    6    10     1
    6    14     1
    6    15     1
    7    14     1
    7    15     1
    8    11     1
    8    12     1
    8    13     1
    9    11     1
    9    12     1
    9    13     1
   10    13     1
   13    18     1
   13    19     1
   13    24     1
   14    16     1
   14    17     1
   15    20     1
   15    21     1
   15    22     1
   15    25     1
   15    26     1
   16    18     1
   16    19     1
   16    24     1
   17    23     1
   17    27     1
   17    28     1
   18    20     1
   18    21     1
   18    22     1
   18    25     1
   18    26     1
   19    25     1
   19    26     1
   20    23     1
   20    24     1
   21    23     1
   21    24     1
   22    24     1
   24    29     1
   24    30     1
   24    31     1
   25    27     1
   25    28     1
   26    32     1
   26    33     1
   27    29     1
   27    30     1
   27    31     1
   28    34     1
   28    35     1
   29    32     1
   29    33     1
   30    32     1
   30    33     1
   31    36     1
   31    37     1
   31    43     1
   32    34     1
   32    35     1
   33    38     1
   33    39     1
   33    40     1
   33    44     1
   33    45     1
   34    36     1
   34    37     1
   34    43     1
   35    41     1
   35    42     1
   35    46     1
   35    47     1
   36    38     1
   36    39     1
   36    40     1
   36    44     1
   36    45     1
   37    44     1
   37    45     1
   38    41     1
   38    42     1
   38    43     1
   39    41     1
   39    42     1
   39    43     1
   40    43     1
   43    48     1
   43    49     1
   43    54     1
   44    46     1
   44    47     1
   45    50     1
   45    51     1
   45    52     1
   45    55     1
   45    56     1
   46    48     1
   46    49     1
   46    54     1
   47    53     1
   47    57     1
   47    58     1
   48    50     1
   48    51     1
   48    52     1
   48    55     1
   48    56     1
   49    55     1
   49    56     1
   50    53     1
   50    54     1
   51    53     1
   51    54     1
   52    54     1
   54    59     1
   54    60     1
   54    61     1
   55    57     1
   55    58     1
   56    62     1
   56    63     1
   57    59     1
   57    60     1
   57    61     1
   58    64     1
   58    67     1
   59    62     1
   59    63     1
   60    62     1
   60    63     1
   61    65     1
   61    66     1
   61    68     1
   61    69     1
   61    72     1
   61    75     1
   62    64     1
   62    67     1
   63    70     1
   63    71     1
   63    73     1
   63    74     1
   63    76     1
   63    77     1
   64    68     1
   64    70     1
   64    71     1
   64    75     1
   65    67     1
   65    69     1
   65    73     1
   65    74     1
   66    67     1
   66    69     1
   66    73     1
   66    74     1
   67    73     1
   67    74     1
   67    78     1
   67    79     1
   68    70     1
   68    71     1
   68    72     1
   68    76     1
   68    77     1
   69    76     1
   69    77     1
   70    73     1
   70    74     1
   70    75     1
   71    73     1
   71    74     1
   71    75     1
   72    75     1
   75    80     1
   75    81     1
   75    82     1
   76    78     1
   76    79     1
   77    83     1
   77    84     1
   78    80     1
   78    81     1
   78    82     1
   79    85     1
   79    86     1
   80    83     1
   80    84     1
   81    83     1
   81    84     1
   82    87     1
   82    88     1
   82    94     1
   83    85     1
   83    86     1
   84    89     1
   84    90     1
   84    91     1
   84    95     1
   84    96     1
   85    87     1
   85    88     1
   85    94     1
   86    92     1
   86    93     1
   86    97     1
   86   100     1
   87    89     1
   87    90     1
   87    91     1
   87    95     1
   87    96     1
   88    95     1
   88    96     1
   89    92     1
   89    93     1
   89    94     1
   90    92     1
   90    93     1
   90    94     1
   91    94     1
   94    98     1
   94    99     1
   94   101     1
   94   102     1
   94   105     1
   94   108     1
   95    97     1
   95   100     1
   96   103     1
   96   104     1
   96   106     1
   96   107     1
   96   109     1
   96   110     1
   97   101     1
   97   103     1
   97   104     1
   97   108     1
   98   100     1
   98   102     1
   98   106     1
   98   107     1
   99   100     1
   99   102     1
   99   106     1
   99   107     1
  100   106     1
  100   107     1
  100   111     1
  100   112     1
  101   103     1
  101   104     1
  101   105     1
  101   109     1
  101   110     1
  102   109     1
  102   110     1
  103   106     1
  103   107     1
  103   108     1
  104   106     1
  104   107     1
  104   108     1
  105   108     1
  108   113     1
  108   114     1
  108   115     1
  109   111     1
  109   112     1
  110   116     1
  110   117     1
  111   113     1
  111   114     1
  111   115     1
  112   118     1
  112   119     1
  113   116     1
  113   117     1
  114   116     1
  114   117     1
  115   120     1
  115   121     1
  115   127     1
  116   118     1
  116   119     1
  117   122     1
  117   123     1
  117   124     1
  117   128     1
  117   129     1
  118   120     1
  118   121     1
  118   127     1
  119   125     1
  119   126     1
  119   130     1
  119   131     1
  120   122     1
  120   123     1
  120   124     1
  120   128     1
  120   129     1
  121   128     1
  121   129     1
  122   125     1
  122   126     1
  122   127     1
  123   125     1
  123   126     1
  123   127     1
  124   127     1
  127   132     1
  127   133     1
  127   138     1
  128   130     1
  128   131     1
  129   134     1
  129   135     1
  129   136     1
  129   139     1
  129   140     1
  130   132     1
  130   133     1
  130   138     1
  131   137     1
  131   141     1
  131   142     1
  132   134     1
  132   135     1
  132   136     1
  132   139     1
  132   140     1
  133   139     1
  133   140     1
  134   137     1
  134   138     1
  135   137     1
  135   138     1
  136   138     1
  138   143     1
  138   144     1
  138   145     1
  139   141     1
  139   142     1
  140   146     1
  140   147     1
  141   143     1
  141   144     1
  141   145     1
  142   148     1
  142   149     1
  143   146     1
  143   147     1
  144   146     1
  144   147     1
  145   150     1
  145   151     1
  145   156     1
  146   148     1
  146   149     1
  147   152     1
  147   153     1
  147   154     1
  147   157     1
  147   158     1
  148   150     1
  148   151     1
  148   156     1
  149   155     1
  150   152     1
  150   153     1
  150   154     1
  150   157     1
  150   158     1
  151   157     1
  151   158     1
  152   155     1
  152   156     1
  153   155     1
  153   156     1
  154   156     1

[ angles ] 
; ai	aj	ak	funct	th0	cth	S0	Kub
    2     1     3     5
    2     1     4     5
    2     1     5     5
    3     1     4     5
    3     1     5     5
    4     1     5     5
    1     5     6     5
    1     5     7     5
    1     5    13     5
    6     5     7     5
    6     5    13     5
    7     5    13     5
    5     7     8     5
    5     7     9     5
    5     7    10     5
    8     7     9     5
    8     7    10     5
    9     7    10     5
    7    10    11     5
    7    10    12     5
   11    10    12     5
    5    13    14     5
    5    13    15     5
   14    13    15     5
   13    15    16     5
   13    15    17     5
   16    15    17     5
   15    17    18     5
   15    17    19     5
   15    17    24     5
   18    17    19     5
   18    17    24     5
   19    17    24     5
   17    19    20     5
   17    19    21     5
   17    19    22     5
   20    19    21     5
   20    19    22     5
   21    19    22     5
   19    22    23     5
   17    24    25     5
   17    24    26     5
   25    24    26     5
   24    26    27     5
   24    26    28     5
   27    26    28     5
   26    28    29     5
   26    28    30     5
   26    28    31     5
   29    28    30     5
   29    28    31     5
   30    28    31     5
   28    31    32     5
   28    31    33     5
   32    31    33     5
   31    33    34     5
   31    33    35     5
   34    33    35     5
   33    35    36     5
   33    35    37     5
   33    35    43     5
   36    35    37     5
   36    35    43     5
   37    35    43     5
   35    37    38     5
   35    37    39     5
   35    37    40     5
   38    37    39     5
   38    37    40     5
   39    37    40     5
   37    40    41     5
   37    40    42     5
   41    40    42     5
   35    43    44     5
   35    43    45     5
   44    43    45     5
   43    45    46     5
   43    45    47     5
   46    45    47     5
   45    47    48     5
   45    47    49     5
   45    47    54     5
   48    47    49     5
   48    47    54     5
   49    47    54     5
   47    49    50     5
   47    49    51     5
   47    49    52     5
   50    49    51     5
   50    49    52     5
   51    49    52     5
   49    52    53     5
   47    54    55     5
   47    54    56     5
   55    54    56     5
   54    56    57     5
   54    56    58     5
   57    56    58     5
   56    58    59     5
   56    58    60     5
   56    58    61     5
   59    58    60     5
   59    58    61     5
   60    58    61     5
   58    61    62     5
   58    61    63     5
   62    61    63     5
   61    63    64     5
   61    63    67     5
   64    63    67     5
   63    64    65     5
   63    64    66     5
   63    64    72     5
   65    64    66     5
   65    64    72     5
   66    64    72     5
   63    67    68     5
   63    67    69     5
   63    67    75     5
   68    67    69     5
   68    67    75     5
   69    67    75     5
   67    69    70     5
   67    69    71     5
   67    69    72     5
   70    69    71     5
   70    69    72     5
   71    69    72     5
   64    72    69     5
   64    72    73     5
   64    72    74     5
   69    72    73     5
   69    72    74     5
   73    72    74     5
   67    75    76     5
   67    75    77     5
   76    75    77     5
   75    77    78     5
   75    77    79     5
   78    77    79     5
   77    79    80     5
   77    79    81     5
   77    79    82     5
   80    79    81     5
   80    79    82     5
   81    79    82     5
   79    82    83     5
   79    82    84     5
   83    82    84     5
   82    84    85     5
   82    84    86     5
   85    84    86     5
   84    86    87     5
   84    86    88     5
   84    86    94     5
   87    86    88     5
   87    86    94     5
   88    86    94     5
   86    88    89     5
   86    88    90     5
   86    88    91     5
   89    88    90     5
   89    88    91     5
   90    88    91     5
   88    91    92     5
   88    91    93     5
   92    91    93     5
   86    94    95     5
   86    94    96     5
   95    94    96     5
   94    96    97     5
   94    96   100     5
   97    96   100     5
   96    97    98     5
   96    97    99     5
   96    97   105     5
   98    97    99     5
   98    97   105     5
   99    97   105     5
   96   100   101     5
   96   100   102     5
   96   100   108     5
  101   100   102     5
  101   100   108     5
  102   100   108     5
  100   102   103     5
  100   102   104     5
  100   102   105     5
  103   102   104     5
  103   102   105     5
  104   102   105     5
   97   105   102     5
   97   105   106     5
   97   105   107     5
  102   105   106     5
  102   105   107     5
  106   105   107     5
  100   108   109     5
  100   108   110     5
  109   108   110     5
  108   110   111     5
  108   110   112     5
  111   110   112     5
  110   112   113     5
  110   112   114     5
  110   112   115     5
  113   112   114     5
  113   112   115     5
  114   112   115     5
  112   115   116     5
  112   115   117     5
  116   115   117     5
  115   117   118     5
  115   117   119     5
  118   117   119     5
  117   119   120     5
  117   119   121     5
  117   119   127     5
  120   119   121     5
  120   119   127     5
  121   119   127     5
  119   121   122     5
  119   121   123     5
  119   121   124     5
  122   121   123     5
  122   121   124     5
  123   121   124     5
  121   124   125     5
  121   124   126     5
  125   124   126     5
  119   127   128     5
  119   127   129     5
  128   127   129     5
  127   129   130     5
  127   129   131     5
  130   129   131     5
  129   131   132     5
  129   131   133     5
  129   131   138     5
  132   131   133     5
  132   131   138     5
  133   131   138     5
  131   133   134     5
  131   133   135     5
  131   133   136     5
  134   133   135     5
  134   133   136     5
  135   133   136     5
  133   136   137     5
  131   138   139     5
  131   138   140     5
  139   138   140     5
  138   140   141     5
  138   140   142     5
  141   140   142     5
  140   142   143     5
  140   142   144     5
  140   142   145     5
  143   142   144     5
  143   142   145     5
  144   142   145     5
  142   145   146     5
  142   145   147     5
  146   145   147     5
  145   147   148     5
  145   147   149     5
  148   147   149     5
  147   149   150     5
  147   149   151     5
  147   149   156     5
  150   149   151     5
  150   149   156     5
  151   149   156     5
  149   151   152     5
  149   151   153     5
  149   151   154     5
  152   151   153     5
  152   151   154     5
  153   151   154     5
  151   154   155     5
  149   156   157     5
  149   156   158     5
  157   156   158     5

[ dihedrals ]
; ai	aj	ak	al	funct	phi0	cp	mult
    2     1     5     6     9
    2     1     5     7     9
    2     1     5    13     9
    3     1     5     6     9
    3     1     5     7     9
    3     1     5    13     9
    4     1     5     6     9
    4     1     5     7     9
    4     1     5    13     9
    1     5     7     8     9
    1     5     7     9     9
    1     5     7    10     9
    6     5     7     8     9
    6     5     7     9     9
    6     5     7    10     9
    1     5    13    14     9
    1     5    13    15     9
    6     5    13    14     9
    6     5    13    15     9
    7     5    13    14     9
    7     5    13    15     9
    8     7     5    13     9
    9     7     5    13     9
   10     7     5    13     9
    5     7    10    11     9
    5     7    10    12     9
    8     7    10    11     9
    8     7    10    12     9
    9     7    10    11     9
    9     7    10    12     9
    5    13    15    16     9
    5    13    15    17     9
   14    13    15    16     9
   14    13    15    17     9
   13    15    17    18     9
   13    15    17    19     9
   13    15    17    24     9
   16    15    17    18     9
   16    15    17    19     9
   16    15    17    24     9
   15    17    19    20     9
   15    17    19    21     9
   15    17    19    22     9
   18    17    19    20     9
   18    17    19    21     9
   18    17    19    22     9
   15    17    24    25     9
   15    17    24    26     9
   18    17    24    25     9
   18    17    24    26     9
   19    17    24    25     9
   19    17    24    26     9
   20    19    17    24     9
   21    19    17    24     9
   22    19    17    24     9
   17    19    22    23     9
   20    19    22    23     9
   21    19    22    23     9
   17    24    26    27     9
   17    24    26    28     9
   25    24    26    27     9
   25    24    26    28     9
   24    26    28    29     9
   24    26    28    30     9
   24    26    28    31     9
   27    26    28    29     9
   27    26    28    30     9
   27    26    28    31     9
   26    28    31    32     9
   26    28    31    33     9
   29    28    31    32     9
   29    28    31    33     9
   30    28    31    32     9
   30    28    31    33     9
   28    31    33    34     9
   28    31    33    35     9
   32    31    33    34     9
   32    31    33    35     9
   31    33    35    36     9
   31    33    35    37     9
   31    33    35    43     9
   34    33    35    36     9
   34    33    35    37     9
   34    33    35    43     9
   33    35    37    38     9
   33    35    37    39     9
   33    35    37    40     9
   36    35    37    38     9
   36    35    37    39     9
   36    35    37    40     9
   33    35    43    44     9
   33    35    43    45     9
   36    35    43    44     9
   36    35    43    45     9
   37    35    43    44     9
   37    35    43    45     9
   38    37    35    43     9
   39    37    35    43     9
   40    37    35    43     9
   35    37    40    41     9
   35    37    40    42     9
   38    37    40    41     9
   38    37    40    42     9
   39    37    40    41     9
   39    37    40    42     9
   35    43    45    46     9
   35    43    45    47     9
   44    43    45    46     9
   44    43    45    47     9
   43    45    47    48     9
   43    45    47    49     9
   43    45    47    54     9
   46    45    47    48     9
   46    45    47    49     9
   46    45    47    54     9
   45    47    49    50     9
   45    47    49    51     9
   45    47    49    52     9
   48    47    49    50     9
   48    47    49    51     9
   48    47    49    52     9
   45    47    54    55     9
   45    47    54    56     9
   48    47    54    55     9
   48    47    54    56     9
   49    47    54    55     9
   49    47    54    56     9
   50    49    47    54     9
   51    49    47    54     9
   52    49    47    54     9
   47    49    52    53     9
   50    49    52    53     9
   51    49    52    53     9
   47    54    56    57     9
   47    54    56    58     9
   55    54    56    57     9
   55    54    56    58     9
   54    56    58    59     9
   54    56    58    60     9
   54    56    58    61     9
   57    56    58    59     9
   57    56    58    60     9
   57    56    58    61     9
   56    58    61    62     9
   56    58    61    63     9
   59    58    61    62     9
   59    58    61    63     9
   60    58    61    62     9
   60    58    61    63     9
   58    61    63    64     9
   58    61    63    67     9
   62    61    63    64     9
   62    61    63    67     9
   61    63    64    65     9
   61    63    64    66     9
   61    63    64    72     9
   67    63    64    72     9
   61    63    67    68     9
   61    63    67    69     9
   61    63    67    75     9
   64    63    67    68     9
   64    63    67    69     9
   64    63    67    75     9
   65    64    63    67     9
   66    64    63    67     9
   63    64    72    69     9
   63    64    72    73     9
   63    64    72    74     9
   65    64    72    69     9
   65    64    72    73     9
   65    64    72    74     9
   66    64    72    69     9
   66    64    72    73     9
   66    64    72    74     9
   63    67    69    70     9
   63    67    69    71     9
   63    67    69    72     9
   68    67    69    70     9
   68    67    69    71     9
   68    67    69    72     9
   63    67    75    76     9
   63    67    75    77     9
   68    67    75    76     9
   68    67    75    77     9
   69    67    75    76     9
   69    67    75    77     9
   70    69    67    75     9
   71    69    67    75     9
   72    69    67    75     9
   67    69    72    73     9
   67    69    72    74     9
   70    69    72    73     9
   70    69    72    74     9
   71    69    72    73     9
   71    69    72    74     9
   64    72    69    67     9
   64    72    69    70     9
   64    72    69    71     9
   67    75    77    78     9
   67    75    77    79     9
   76    75    77    78     9
   76    75    77    79     9
   75    77    79    80     9
   75    77    79    81     9
   75    77    79    82     9
   78    77    79    80     9
   78    77    79    81     9
   78    77    79    82     9
   77    79    82    83     9
   77    79    82    84     9
   80    79    82    83     9
   80    79    82    84     9
   81    79    82    83     9
   81    79    82    84     9
   79    82    84    85     9
   79    82    84    86     9
   83    82    84    85     9
   83    82    84    86     9
   82    84    86    87     9
   82    84    86    88     9
   82    84    86    94     9
   85    84    86    87     9
   85    84    86    88     9
   85    84    86    94     9
   84    86    88    89     9
   84    86    88    90     9
   84    86    88    91     9
   87    86    88    89     9
   87    86    88    90     9
   87    86    88    91     9
   84    86    94    95     9
   84    86    94    96     9
   87    86    94    95     9
   87    86    94    96     9
   88    86    94    95     9
   88    86    94    96     9
   89    88    86    94     9
   90    88    86    94     9
   91    88    86    94     9
   86    88    91    92     9
   86    88    91    93     9
   89    88    91    92     9
   89    88    91    93     9
   90    88    91    92     9
   90    88    91    93     9
   86    94    96    97     9
   86    94    96   100     9
   95    94    96    97     9
   95    94    96   100     9
   94    96    97    98     9
   94    96    97    99     9
   94    96    97   105     9
  100    96    97   105     9
   94    96   100   101     9
   94    96   100   102     9
   94    96   100   108     9
   97    96   100   101     9
   97    96   100   102     9
   97    96   100   108     9
   98    97    96   100     9
   99    97    96   100     9
   96    97   105   102     9
   96    97   105   106     9
   96    97   105   107     9
   98    97   105   102     9
   98    97   105   106     9
   98    97   105   107     9
   99    97   105   102     9
   99    97   105   106     9
   99    97   105   107     9
   96   100   102   103     9
   96   100   102   104     9
   96   100   102   105     9
  101   100   102   103     9
  101   100   102   104     9
  101   100   102   105     9
   96   100   108   109     9
   96   100   108   110     9
  101   100   108   109     9
  101   100   108   110     9
  102   100   108   109     9
  102   100   108   110     9
  103   102   100   108     9
  104   102   100   108     9
  105   102   100   108     9
  100   102   105   106     9
  100   102   105   107     9
  103   102   105   106     9
  103   102   105   107     9
  104   102   105   106     9
  104   102   105   107     9
   97   105   102   100     9
   97   105   102   103     9
   97   105   102   104     9
  100   108   110   111     9
  100   108   110   112     9
  109   108   110   111     9
  109   108   110   112     9
  108   110   112   113     9
  108   110   112   114     9
  108   110   112   115     9
  111   110   112   113     9
  111   110   112   114     9
  111   110   112   115     9
  110   112   115   116     9
  110   112   115   117     9
  113   112   115   116     9
  113   112   115   117     9
  114   112   115   116     9
  114   112   115   117     9
  112   115   117   118     9
  112   115   117   119     9
  116   115   117   118     9
  116   115   117   119     9
  115   117   119   120     9
  115   117   119   121     9
  115   117   119   127     9
  118   117   119   120     9
  118   117   119   121     9
  118   117   119   127     9
  117   119   121   122     9
  117   119   121   123     9
  117   119   121   124     9
  120   119   121   122     9
  120   119   121   123     9
  120   119   121   124     9
  117   119   127   128     9
  117   119   127   129     9
  120   119   127   128     9
  120   119   127   129     9
  121   119   127   128     9
  121   119   127   129     9
  122   121   119   127     9
  123   121   119   127     9
  124   121   119   127     9
  119   121   124   125     9
  119   121   124   126     9
  122   121   124   125     9
  122   121   124   126     9
  123   121   124   125     9
  123   121   124   126     9
  119   127   129   130     9
  119   127   129   131     9
  128   127   129   130     9
  128   127   129   131     9
  127   129   131   132     9
  127   129   131   133     9
  127   129   131   138     9
  130   129   131   132     9
  130   129   131   133     9
  130   129   131   138     9
  129   131   133   134     9
  129   131   133   135     9
  129   131   133   136     9
  132   131   133   134     9
  132   131   133   135     9
  132   131   133   136     9
  129   131   138   139     9
  129   131   138   140     9
  132   131   138   139     9
  132   131   138   140     9
  133   131   138   139     9
  133   131   138   140     9
  134   133   131   138     9
  135   133   131   138     9
  136   133   131   138     9
  131   133   136   137     9
  134   133   136   137     9
  135   133   136   137     9
  131   138   140   141     9
  131   138   140   142     9
  139   138   140   141     9
  139   138   140   142     9
  138   140   142   143     9
  138   140   142   144     9
  138   140   142   145     9
  141   140   142   143     9
  141   140   142   144     9
  141   140   142   145     9
  140   142   145   146     9
  140   142   145   147     9
  143   142   145   146     9
  143   142   145   147     9
  144   142   145   146     9
  144   142   145   147     9
  142   145   147   148     9
  142   145   147   149     9
  146   145   147   148     9
  146   145   147   149     9
  145   147   149   150     9
  145   147   149   151     9
  145   147   149   156     9
  148   147   149   150     9
  148   147   149   151     9
  148   147   149   156     9
  147   149   151   152     9
  147   149   151   153     9
  147   149   151   154     9
  150   149   151   152     9
  150   149   151   153     9
  150   149   151   154     9
  147   149   156   157     9
  147   149   156   158     9
  150   149   156   157     9
  150   149   156   158     9
  151   149   156   157     9
  151   149   156   158     9
  152   151   149   156     9
  153   151   149   156     9
  154   151   149   156     9
  149   151   154   155     9
  152   151   154   155     9
  153   151   154   155     9

[ dihedrals ]
; ai	aj	ak	al	funct	q0	cq
   10     7    12    11     2
   13     5    15    14     2
   15    13    17    16     2
   24    17    26    25     2
   26    24    28    27     2
   31    28    33    32     2
   33    31    35    34     2
   40    37    42    41     2
   43    35    45    44     2
   45    43    47    46     2
   54    47    56    55     2
   56    54    58    57     2
   61    58    63    62     2
   63    61    67    64     2
   75    67    77    76     2
   77    75    79    78     2
   82    79    84    83     2
   84    82    86    85     2
   91    88    93    92     2
   94    86    96    95     2
   96    94   100    97     2
  108   100   110   109     2
  110   108   112   111     2
  115   112   117   116     2
  117   115   119   118     2
  124   121   126   125     2
  127   119   129   128     2
  129   127   131   130     2
  138   131   140   139     2
  140   138   142   141     2
  145   142   147   146     2
  147   145   149   148     2
  156   149   158   157     2

[ cmap ] 
; ai	aj	ak	al	am	funct
   13    15    17    24    26     1
   24    26    28    31    33     1
   31    33    35    43    45     1
   43    45    47    54    56     1
   54    56    58    61    63     1
   61    63    67    75    77     1
   75    77    79    82    84     1
   82    84    86    94    96     1
   94    96   100   108   110     1
  108   110   112   115   117     1
  115   117   119   127   129     1
  127   129   131   138   140     1
  138   140   142   145   147     1

#ifdef POSRES
[ position_restraints ]
    1     1    POSRES_FC_BB    POSRES_FC_BB    POSRES_FC_BB   
    5     1    POSRES_FC_BB    POSRES_FC_BB    POSRES_FC_BB   
    7     1    POSRES_FC_SC    POSRES_FC_SC    POSRES_FC_SC   
   10     1    POSRES_FC_SC    POSRES_FC_SC    POSRES_FC_SC   
   11     1    POSRES_FC_SC    POSRES_FC_SC    POSRES_FC_SC   
   12     1    POSRES_FC_SC    POSRES_FC_SC    POSRES_FC_SC   
   13     1    POSRES_FC_BB    POSRES_FC_BB    POSRES_FC_BB   
   14     1    POSRES_FC_BB    POSRES_FC_BB    POSRES_FC_BB   
   15     1    POSRES_FC_BB    POSRES_FC_BB    POSRES_FC_BB   
   17     1    POSRES_FC_BB    POSRES_FC_BB    POSRES_FC_BB   
   19     1    POSRES_FC_SC    POSRES_FC_SC    POSRES_FC_SC   
   22     1    POSRES_FC_SC    POSRES_FC_SC    POSRES_FC_SC   
   24     1    POSRES_FC_BB    POSRES_FC_BB    POSRES_FC_BB   
   25     1    POSRES_FC_BB    POSRES_FC_BB    POSRES_FC_BB   
   26     1    POSRES_FC_BB    POSRES_FC_BB    POSRES_FC_BB   
   28     1    POSRES_FC_BB    POSRES_FC_BB    POSRES_FC_BB   
   31     1    POSRES_FC_BB    POSRES_FC_BB    POSRES_FC_BB   
   32     1    POSRES_FC_BB    POSRES_FC_BB    POSRES_FC_BB   
   33     1    POSRES_FC_BB    POSRES_FC_BB    POSRES_FC_BB   
   35     1    POSRES_FC_BB    POSRES_FC_BB    POSRES_FC_BB   
   37     1    POSRES_FC_SC    POSRES_FC_SC    POSRES_FC_SC   
   40     1    POSRES_FC_SC    POSRES_FC_SC    POSRES_FC_SC   
   41     1    POSRES_FC_SC    POSRES_FC_SC    POSRES_FC_SC   
   42     1    POSRES_FC_SC    POSRES_FC_SC    POSRES_FC_SC   
   43     1    POSRES_FC_BB    POSRES_FC_BB    POSRES_FC_BB   
   44     1    POSRES_FC_BB    POSRES_FC_BB    POSRES_FC_BB   
   45     1    POSRES_FC_BB    POSRES_FC_BB    POSRES_FC_BB   
   47     1    POSRES_FC_BB    POSRES_FC_BB    POSRES_FC_BB   
   49     1    POSRES_FC_SC    POSRES_FC_SC    POSRES_FC_SC   
   52     1    POSRES_FC_SC    POSRES_FC_SC    POSRES_FC_SC   
   54     1    POSRES_FC_BB    POSRES_FC_BB    POSRES_FC_BB   
   55     1    POSRES_FC_BB    POSRES_FC_BB    POSRES_FC_BB   
   56     1    POSRES_FC_BB    POSRES_FC_BB    POSRES_FC_BB   
   58     1    POSRES_FC_BB    POSRES_FC_BB    POSRES_FC_BB   
   61     1    POSRES_FC_BB    POSRES_FC_BB    POSRES_FC_BB   
   62     1    POSRES_FC_BB    POSRES_FC_BB    POSRES_FC_BB   
   63     1    POSRES_FC_BB    POSRES_FC_BB    POSRES_FC_BB   
   64     1    POSRES_FC_SC    POSRES_FC_SC    POSRES_FC_SC   
   67     1    POSRES_FC_BB    POSRES_FC_BB    POSRES_FC_BB   
   69     1    POSRES_FC_SC    POSRES_FC_SC    POSRES_FC_SC   
   72     1    POSRES_FC_SC    POSRES_FC_SC    POSRES_FC_SC   
   75     1    POSRES_FC_BB    POSRES_FC_BB    POSRES_FC_BB   
   76     1    POSRES_FC_BB    POSRES_FC_BB    POSRES_FC_BB   
   77     1    POSRES_FC_BB    POSRES_FC_BB    POSRES_FC_BB   
   79     1    POSRES_FC_BB    POSRES_FC_BB    POSRES_FC_BB   
   82     1    POSRES_FC_BB    POSRES_FC_BB    POSRES_FC_BB   
   83     1    POSRES_FC_BB    POSRES_FC_BB    POSRES_FC_BB   
   84     1    POSRES_FC_BB    POSRES_FC_BB    POSRES_FC_BB   
   86     1    POSRES_FC_BB    POSRES_FC_BB    POSRES_FC_BB   
   88     1    POSRES_FC_SC    POSRES_FC_SC    POSRES_FC_SC   
   91     1    POSRES_FC_SC    POSRES_FC_SC    POSRES_FC_SC   
   92     1    POSRES_FC_SC    POSRES_FC_SC    POSRES_FC_SC   
   93     1    POSRES_FC_SC    POSRES_FC_SC    POSRES_FC_SC   
   94     1    POSRES_FC_BB    POSRES_FC_BB    POSRES_FC_BB   
   95     1    POSRES_FC_BB    POSRES_FC_BB    POSRES_FC_BB   
   96     1    POSRES_FC_BB    POSRES_FC_BB    POSRES_FC_BB   
   97     1    POSRES_FC_SC    POSRES_FC_SC    POSRES_FC_SC   
  100     1    POSRES_FC_BB    POSRES_FC_BB    POSRES_FC_BB   
  102     1    POSRES_FC_SC    POSRES_FC_SC    POSRES_FC_SC   
  105     1    POSRES_FC_SC    POSRES_FC_SC    POSRES_FC_SC   
  108     1    POSRES_FC_BB    POSRES_FC_BB    POSRES_FC_BB   
  109     1    POSRES_FC_BB    POSRES_FC_BB    POSRES_FC_BB   
  110     1    POSRES_FC_BB    POSRES_FC_BB    POSRES_FC_BB   
  112     1    POSRES_FC_BB    POSRES_FC_BB    POSRES_FC_BB   
  115     1    POSRES_FC_BB    POSRES_FC_BB    POSRES_FC_BB   
  116     1    POSRES_FC_BB    POSRES_FC_BB    POSRES_FC_BB   
  117     1    POSRES_FC_BB    POSRES_FC_BB    POSRES_FC_BB   
  119     1    POSRES_FC_BB    POSRES_FC_BB    POSRES_FC_BB   
  121     1    POSRES_FC_SC    POSRES_FC_SC    POSRES_FC_SC   
  124     1    POSRES_FC_SC    POSRES_FC_SC    POSRES_FC_SC   
  125     1    POSRES_FC_SC    POSRES_FC_SC    POSRES_FC_SC   
  126     1    POSRES_FC_SC    POSRES_FC_SC    POSRES_FC_SC   
  127     1    POSRES_FC_BB    POSRES_FC_BB    POSRES_FC_BB   
  128     1    POSRES_FC_BB    POSRES_FC_BB    POSRES_FC_BB   
  129     1    POSRES_FC_BB    POSRES_FC_BB    POSRES_FC_BB   
  131     1    POSRES_FC_BB    POSRES_FC_BB    POSRES_FC_BB   
  133     1    POSRES_FC_SC    POSRES_FC_SC    POSRES_FC_SC   
  136     1    POSRES_FC_SC    POSRES_FC_SC    POSRES_FC_SC   
  138     1    POSRES_FC_BB    POSRES_FC_BB    POSRES_FC_BB   
  139     1    POSRES_FC_BB    POSRES_FC_BB    POSRES_FC_BB   
  140     1    POSRES_FC_BB    POSRES_FC_BB    POSRES_FC_BB   
  142     1    POSRES_FC_BB    POSRES_FC_BB    POSRES_FC_BB   
  145     1    POSRES_FC_BB    POSRES_FC_BB    POSRES_FC_BB   
  146     1    POSRES_FC_BB    POSRES_FC_BB    POSRES_FC_BB   
  147     1    POSRES_FC_BB    POSRES_FC_BB    POSRES_FC_BB   
  149     1    POSRES_FC_BB    POSRES_FC_BB    POSRES_FC_BB   
  151     1    POSRES_FC_SC    POSRES_FC_SC    POSRES_FC_SC   
  154     1    POSRES_FC_SC    POSRES_FC_SC    POSRES_FC_SC   
  156     1    POSRES_FC_BB    POSRES_FC_BB    POSRES_FC_BB   
  157     1    POSRES_FC_SC    POSRES_FC_SC    POSRES_FC_SC   
  158     1    POSRES_FC_SC    POSRES_FC_SC    POSRES_FC_SC   
#endif
