Title
19927
    1ASP      N    1   1.507   4.821   1.787 -0.6481  0.2701  0.6621
    1ASP    HT1    2   1.434   4.884   1.825 -1.1081  2.0437 -2.7256
    1ASP    HT2    3   1.593   4.840   1.841  0.5853 -3.6367  0.4320
    1ASP    HT3    4   1.477   4.725   1.815 -1.5083 -0.2246 -1.6799
    1ASP     CA    5   1.522   4.851   1.636 -0.2385 -0.3247  1.2882
    1ASP     HA    6   1.579   4.938   1.609 -1.6653 -0.1511 -1.5311
    1ASP     CB    7   1.597   4.726   1.574  0.2676 -0.2412 -0.6102
    1ASP    HB1    8   1.596   4.721   1.463  0.1843 -0.6797 -0.5904
    1ASP    HB2    9   1.549   4.630   1.601 -2.0364  0.1006 -2.9684
    1ASP     CG   10   1.742   4.727   1.609 -0.0262  0.8179 -0.0528
    1ASP    OD1   11   1.780   4.804   1.702  0.0448  0.3451 -0.7180
    1ASP    OD2   12   1.825   4.669   1.527  0.3250  0.0784  0.0194
    1ASP      C   13   1.398   4.885   1.562  0.2171  0.0062  0.3620
    1ASP      O   14   1.287   4.869   1.612  0.1324  0.6126 -0.1848
    2ALA      N   15   1.408   4.931   1.430  0.0283 -0.1999 -0.4660
    2ALA     HN   16   1.498   4.931   1.386 -0.3172 -2.0848 -1.2666
    2ALA     CA   17   1.300   4.997   1.360  1.0606 -0.6331 -0.1189
    2ALA     HA   18   1.270   5.084   1.416  0.4924 -1.1843  0.4529
    2ALA     CB   19   1.347   5.036   1.225  0.6740  0.2571  0.6116
    2ALA    HB1   20   1.375   4.944   1.168 -2.8248 -0.9987  0.6481
    2ALA    HB2   21   1.430   5.109   1.223  0.8484  0.0468 -1.1902
    2ALA    HB3   22   1.266   5.084   1.167 -0.6447 -2.2257  0.2186
    2ALA      C   23   1.173   4.910   1.337  0.2551  0.1103  0.5211
    2ALA      O   24   1.175   4.788   1.305 -1.1353  0.0732  0.3845
    3ASP      N   25   1.058   4.973   1.347  0.3782 -0.3280  0.9518
    3ASP     HN   26   1.044   5.067   1.378 -5.1351 -0.5238  0.0399
    3ASP     CA   27   0.932   4.907   1.330  1.3107 -0.6677  0.6214
    3ASP     HA   28   0.929   4.811   1.379  1.4035 -1.8363 -1.5268
    3ASP     CB   29   0.820   4.985   1.391 -0.3199 -0.9411  0.0680
    3ASP    HB1   30   0.722   4.933   1.394 -0.4709 -0.7657 -1.4357
    3ASP    HB2   31   0.796   5.072   1.327 -0.7981 -0.8753  0.3294
    3ASP     CG   32   0.846   5.022   1.537 -0.3874 -0.1440 -0.3614
    3ASP    OD1   33   0.911   4.943   1.611 -0.5888  0.3206 -0.3369
    3ASP    OD2   34   0.792   5.129   1.575  0.0198  0.0779 -0.2423
    3ASP      C   35   0.899   4.877   1.184 -0.6121 -0.2969  0.8164
    3ASP      O   36   0.939   4.952   1.094 -0.0000  0.4232  0.1602
    4GLY      N   37   0.832   4.764   1.158  0.0073  0.0881 -0.4108
    4GLY     HN   38   0.816   4.702   1.235  0.2070 -0.7716 -1.0408
    4GLY     CA   39   0.768   4.737   1.029 -0.1137 -0.5935 -0.7430
    4GLY    HA1   40   0.754   4.630   1.021 -3.8051 -0.2895 -0.0332
    4GLY    HA2   41   0.818   4.794   0.952  1.4360 -1.0919 -0.1542
    4GLY      C   42   0.625   4.791   1.019 -0.1699 -0.3696 -0.6576
    4GLY      O   43   0.566   4.829   1.124  0.1916  0.2320  0.0860
    5PRO      N   44   0.564   4.792   0.905 -0.5464 -0.2726  0.4460
    5PRO     CD   45   0.610   4.732   0.777  0.3495 -0.0210 -0.0992
    5PRO    HD1   46   0.606   4.621   0.773 -0.1412  0.0198 -1.0449
    5PRO    HD2   47   0.712   4.768   0.754  0.6868 -0.6904  0.3092
    5PRO     CA   48   0.426   4.830   0.888  0.0678 -0.1127  0.1867
    5PRO     HA   49   0.431   4.937   0.900  2.8297  0.0154 -1.4687
    5PRO     CB   50   0.385   4.788   0.750 -0.3318  0.0432 -0.0854
    5PRO    HB1   51   0.314   4.864   0.710  1.2052  1.5530 -0.0720
    5PRO    HB2   52   0.347   4.684   0.749 -1.5272  0.4327  1.0621
    5PRO     CG   53   0.514   4.785   0.675 -0.7758  0.2023 -0.2215
    5PRO    HG1   54   0.501   4.723   0.583  0.6033  0.5059 -0.6437
    5PRO    HG2   55   0.543   4.887   0.642  1.4726 -0.4697 -0.4700
    5PRO      C   56   0.319   4.779   0.982 -0.2683  0.1808 -0.1642
    5PRO      O   57   0.317   4.661   1.020 -0.6788  0.6874  0.0537
    6GLY      N   58   0.221   4.862   1.029 -0.1173 -0.4785 -0.1761
    6GLY     HN   59   0.222   4.958   1.000 -0.8038 -0.3887  0.0767
    6GLY     CA   60   0.101   4.821   1.096 -0.3668  0.2588 -0.3573
    6GLY    HA1   61   0.058   4.907   1.144  1.3637  0.3232  1.2243
    6GLY    HA2   62   0.125   4.745   1.170 -1.0843 -0.9033 -1.2771
    6GLY      C   63   0.001   4.764   1.000  0.2245  0.2956 -0.1491
    6GLY      O   64   0.035   4.706   0.898 -0.5339 -0.0182  0.0774
    7ASP      N   65  -0.130   4.776   1.027  0.5131 -0.2908  0.3456
    7ASP     HN   66  -0.158   4.813   1.115 -0.0567  0.8523 -0.2948
    7ASP     CA   67  -0.241   4.742   0.933 -0.1778 -0.7708  0.0952
    7ASP     HA   68  -0.224   4.641   0.900 -0.9284 -0.3481 -1.7329
    7ASP     CB   69  -0.378   4.769   1.001 -0.2311  0.5468 -0.2482
    7ASP    HB1   70  -0.458   4.787   0.926 -2.1912  2.0806  2.0418
    7ASP    HB2   71  -0.389   4.863   1.059 -0.9127  0.8869 -0.9102
    7ASP     CG   72  -0.422   4.660   1.102  0.5453  0.1359 -0.1203
    7ASP    OD1   73  -0.525   4.687   1.175 -0.8426  0.3773  0.7101
    7ASP    OD2   74  -0.369   4.548   1.102 -0.1689  0.5697 -0.4355
    7ASP      C   75  -0.231   4.846   0.817 -0.1548 -0.4939 -0.6622
    7ASP      O   76  -0.212   4.965   0.849 -0.2154  0.3353  0.2669
    8PRO      N   77  -0.245   4.800   0.688 -0.2218 -0.2358  0.0850
    8PRO     CD   78  -0.287   4.665   0.644 -0.1076 -0.5132 -0.3398
    8PRO    HD1   79  -0.396   4.656   0.664  0.1963 -1.0010  1.2407
    8PRO    HD2   80  -0.249   4.583   0.709 -3.1648 -0.9959  1.0425
    8PRO     CA   81  -0.220   4.892   0.576  0.7789  0.2405 -0.2031
    8PRO     HA   82  -0.121   4.935   0.589  1.3338 -0.9471 -0.3827
    8PRO     CB   83  -0.225   4.804   0.453  0.0184 -0.0270  0.0498
    8PRO    HB1   84  -0.129   4.812   0.398 -0.7020 -0.5097 -1.3400
    8PRO    HB2   85  -0.307   4.825   0.380 -0.5638 -2.3236 -0.0228
    8PRO     CG   86  -0.248   4.659   0.501  0.2320 -0.0141  0.9250
    8PRO    HG1   87  -0.319   4.598   0.441  0.1803  0.4912  0.4678
    8PRO    HG2   88  -0.151   4.605   0.495  0.9070  1.1039  1.4296
    8PRO      C   89  -0.330   5.005   0.568 -1.1495 -0.1934 -0.2776
    8PRO      O   90  -0.444   4.987   0.613 -0.6395 -0.1018 -0.0409
    9ASP      N   91  -0.300   5.124   0.513 -0.4891  0.1276 -0.5307
    9ASP     HN   92  -0.206   5.152   0.495 -0.7799  1.1166 -0.5635
    9ASP     CA   93  -0.400   5.221   0.474 -0.0771  0.0183  0.1207
    9ASP     HA   94  -0.460   5.228   0.564  0.6535  1.2720  0.5322
    9ASP     CB   95  -0.338   5.357   0.426 -0.1424 -0.4980 -0.7856
    9ASP    HB1   96  -0.411   5.418   0.368  0.6205  0.7980 -0.4436
    9ASP    HB2   97  -0.247   5.332   0.367  0.4596 -0.7030  0.2103
    9ASP     CG   98  -0.280   5.437   0.542 -0.5007 -0.0209  0.1203
    9ASP    OD1   99  -0.211   5.542   0.513  0.4387 -0.3657 -0.1542
    9ASP    OD2  100  -0.312   5.405   0.659  0.3495 -0.3703  0.2243
    9ASP      C  101  -0.487   5.167   0.371  0.4367  0.3119 -0.0259
    9ASP      O  102  -0.441   5.087   0.289  0.5003  0.3479  0.0382
   10ALA      N  103  -0.613   5.214   0.364  0.1605 -0.5188  0.4032
   10ALA     HN  104  -0.650   5.270   0.438 -0.4709  0.2902 -0.5019
   10ALA     CA  105  -0.695   5.186   0.246 -0.0921  0.1776  0.0672
   10ALA     HA  106  -0.641   5.146   0.161  0.9987 -1.1361  1.3141
   10ALA     CB  107  -0.779   5.068   0.286  0.6353 -0.0003  0.2764
   10ALA    HB1  108  -0.821   5.012   0.200  2.7511 -1.4189  0.0765
   10ALA    HB2  109  -0.836   5.087   0.379  1.5257 -0.1182  0.8617
   10ALA    HB3  110  -0.710   4.995   0.333 -0.0511 -0.0334  1.2544
   10ALA      C  111  -0.774   5.311   0.199  0.3120 -0.1153  0.5444
   10ALA      O  112  -0.795   5.409   0.272  0.1565  0.6979 -0.5028
   11GLY      N  113  -0.830   5.311   0.071 -0.0858 -0.5815 -0.3118
   11GLY     HN  114  -0.831   5.227   0.018 -1.8225  1.3363 -3.6689
   11GLY     CA  115  -0.891   5.433   0.017 -0.1835  0.4567  0.5321
   11GLY    HA1  116  -0.814   5.493  -0.030 -0.0441 -1.6589 -2.1796
   11GLY    HA2  117  -0.942   5.487   0.096 -0.1124 -0.1645  1.0046
   11GLY      C  118  -0.990   5.382  -0.092 -0.0755 -0.8089  1.0531
   11GLY    OT1  119  -1.060   5.281  -0.080  0.0398 -0.3862  0.3169
   11GLY    OT2  120  -0.988   5.440  -0.207 -0.3647  0.7082 -0.7736
   12SOD    SOD  121   3.983   5.100   2.455  0.3863 -0.3397  0.3832
   13SOD    SOD  122   1.129   3.980   3.782  0.0085 -0.0249  0.1029
   14SOD    SOD  123   4.882   5.587   4.258 -0.5651 -0.1635  0.2463
   15SOD    SOD  124   3.155   3.202   1.802  0.3805 -0.3413  0.2126
   16SOD    SOD  125   0.079   3.766   2.709 -0.1856  0.0136  0.1052
   17SOD    SOD  126   6.095   0.644   4.748 -0.1944 -0.2127  0.3875
   18SOD    SOD  127   5.812   3.480   3.274 -0.1384  0.3184  0.3217
   19SOD    SOD  128   0.219   5.974   0.392  0.4228  0.1980 -0.2477
   20SOD    SOD  129   5.862   5.323   0.977  0.3398 -0.0520 -0.0904
   21SOD    SOD  130   3.961   1.565   1.502  0.1502 -0.3395 -0.2021
   22SOD    SOD  131   0.686   4.333   4.132  0.4573 -0.3599 -0.1715
   23SOD    SOD  132   2.783   2.165   3.478  0.0728  0.0780  0.2273
   24SOD    SOD  133   1.129   5.954   1.916 -0.8532  0.3253 -0.4489
   25SOD    SOD  134   0.958   0.196   4.644 -0.0141 -0.3584 -0.2419
   26SOD    SOD  135   1.424   3.379   0.529 -0.3001 -0.0122  0.2222
   27SOD    SOD  136   2.780   3.411   0.022  0.8876 -0.5962 -0.4739
   28SOD    SOD  137   2.922   4.482   1.323 -0.1228  0.2007 -0.0718
   29SOD    SOD  138   0.846   4.038   1.262  0.1355  0.1984 -0.0981
   30SOD    SOD  139   0.615   3.443   2.115  0.4148  0.4590  0.0550
   31SOD    SOD  140   3.406   1.912   4.684 -0.2704 -0.2946 -1.1328
   32SOD    SOD  141   4.085   0.690   3.964 -0.0694  0.7373 -0.3203
   33SOD    SOD  142   4.896   5.658   0.223  0.1585  0.4949 -0.0353
   34CLA    CLA  143   1.179   2.060   4.253 -0.0402 -0.2519  0.2395
   35CLA    CLA  144   6.277   1.387   4.606  0.1687 -0.1127  0.3380
   36CLA    CLA  145   4.659   5.770   1.757 -0.1109 -0.1597 -0.0483
   37CLA    CLA  146   3.422   1.143   2.814 -0.2073  0.1912 -0.0218
   38CLA    CLA  147   1.695   5.753   0.369  0.0388  0.0270  0.2926
   39CLA    CLA  148   0.122   3.856   3.243  0.2080  0.4047 -0.2137
   40CLA    CLA  149   5.409   3.818   2.590  0.3848 -0.4486  0.1494
   41CLA    CLA  150   3.647   0.634   2.104  0.1655  0.0853  0.1855
   42CLA    CLA  151   6.094   4.247   2.243 -0.3312 -0.0045 -0.2293
   43CLA    CLA  152   3.409   0.034   4.090  0.5532 -0.1913  0.1591
   44CLA    CLA  153   2.659   4.272   0.951 -0.0123  0.3618 -0.1612
   45CLA    CLA  154   2.982   1.770   0.422  0.1289 -0.1074 -0.1284
   46CLA    CLA  155   4.104   5.475   3.000 -0.1174 -0.1149 -0.3297
   47CLA    CLA  156   1.571   5.229   4.014  0.3957 -0.2355  0.4830
   48CLA    CLA  157   2.591   3.879   1.202 -0.0761 -0.2009  0.2887
   49CLA    CLA  158   0.283   3.911   1.747 -0.1101  0.1456 -0.3407
   50CLA    CLA  159   5.106   2.778   0.782  0.1938  0.0519  0.2456
   51CLA    CLA  160   6.210   0.608   4.491 -0.1592  0.0545 -0.0765
   52TIP3   OH2  161   2.705   1.301   2.886 -0.0330  0.3163  0.1031
   52TIP3    H1  162   2.634   1.359   2.859 -1.6235 -1.1134  1.0406
   52TIP3    H2  163   2.663   1.215   2.896  1.9223 -0.6667  0.2850
   53TIP3   OH2  164   3.660   5.082   2.155  0.3807 -0.0306 -0.5361
   53TIP3    H1  165   3.633   5.088   2.063 -0.7279  0.6536 -0.1934
   53TIP3    H2  166   3.585   5.117   2.203 -0.3676 -3.1843  0.8345
   54TIP3   OH2  167   6.298   1.410   3.697 -0.0257  0.2669  0.1024
   54TIP3    H1  168   6.381   1.427   3.742  0.0499  0.8647 -0.2580
   54TIP3    H2  169   6.252   1.349   3.755  0.7063 -0.1550  0.2576
   55TIP3   OH2  170   2.327   1.172   1.892  0.5355  0.3899 -0.1682
   55TIP3    H1  171   2.285   1.240   1.840  2.7190  1.8087 -0.2314
   55TIP3    H2  172   2.376   1.120   1.827 -1.1163 -1.3306 -0.1258
   56TIP3   OH2  173   5.535   2.097   1.021 -0.4348  0.1231 -0.4846
   56TIP3    H1  174   5.610   2.104   0.962 -0.7232  0.6399 -0.7873
   56TIP3    H2  175   5.574   2.090   1.108 -0.0336  0.2990 -0.6498
   57TIP3   OH2  176   4.203   2.712   4.523  0.4744  0.2219  0.0574
   57TIP3    H1  177   4.261   2.780   4.489  1.1023  0.3440  1.3187
   57TIP3    H2  178   4.234   2.696   4.612 -0.6325 -0.6244  0.3158
   58TIP3   OH2  179   3.957   4.178   3.473 -0.0026  0.4105  0.0903
   58TIP3    H1  180   3.900   4.254   3.479  0.1590  0.4535  1.7182
   58TIP3    H2  181   4.045   4.212   3.489  0.0384 -0.1211  1.1357
   59TIP3   OH2  182   0.433   0.921   1.273  0.2350  0.7895 -0.3360
   59TIP3    H1  183   0.445   0.833   1.309 -0.2636  2.0149  3.2183
   59TIP3    H2  184   0.516   0.940   1.229  0.2606 -1.4586 -1.4574
   60TIP3   OH2  185   3.911   2.807   4.662 -0.4565  0.0216 -0.1725
   60TIP3    H1  186   3.905   2.828   4.568  0.3073 -1.4471 -0.5811
   60TIP3    H2  187   3.827   2.765   4.682 -0.5237  0.1126 -0.2602
   61TIP3   OH2  188   5.815   2.764   4.009 -0.1014 -0.1849 -0.4273
   61TIP3    H1  189   5.748   2.715   4.057 -0.2603 -0.4494 -0.9158
   61TIP3    H2  190   5.837   2.837   4.066 -0.2586 -0.5209  0.0722
   62TIP3   OH2  191   5.099   5.877   3.762 -0.1889  0.8233  0.7627
   62TIP3    H1  192   5.073   5.818   3.691 -1.6771  0.5890  1.4733
   62TIP3    H2  193   5.160   5.938   3.721 -0.1564  0.0047 -0.4504
   63TIP3   OH2  194   0.695   0.611   5.084 -0.0791 -0.1949  0.5266
   63TIP3    H1  195   0.735   0.686   5.130  1.5189 -1.1267  0.7490
   63TIP3    H2  196   0.749   0.600   5.006 -1.5723  0.1326 -0.5953
   64TIP3   OH2  197   1.314   2.100   1.832 -0.0378 -0.1632 -0.3222
   64TIP3    H1  198   1.300   2.033   1.766 -1.4799 -0.1897 -0.0376
   64TIP3    H2  199   1.257   2.074   1.905  1.1212  0.1416  0.7218
   65TIP3   OH2  200   4.603   2.398   4.454  0.1565  0.0032  0.2804
   65TIP3    H1  201   4.597   2.325   4.515  1.0182  0.4307  0.8971
   65TIP3    H2  202   4.544   2.464   4.490 -0.5967 -0.3528 -0.2591
   66TIP3   OH2  203   1.706   0.681   1.817  0.3908 -0.2441 -0.1280
   66TIP3    H1  204   1.800   0.685   1.831  0.2700  0.5308  0.5018
   66TIP3    H2  205   1.694   0.717   1.729  0.6598 -0.1376 -0.1228
   67TIP3   OH2  206   5.514   4.448   1.291  0.2994 -0.4759 -0.5563
   67TIP3    H1  207   5.602   4.473   1.319 -0.1449 -0.8466  1.3476
   67TIP3    H2  208   5.485   4.520   1.236  1.4621  0.0849 -0.4582
   68TIP3   OH2  209   4.628   0.476   2.499 -0.1706 -0.0554 -0.4533
   68TIP3    H1  210   4.660   0.560   2.465 -1.0964  0.7460  0.5844
   68TIP3    H2  211   4.540   0.495   2.532 -1.2040 -1.8770 -1.9622
   69TIP3   OH2  212   3.181   2.093   2.625 -0.4858  1.3067 -0.3371
   69TIP3    H1  213   3.207   2.011   2.665 -0.9769  1.1540 -0.3249
   69TIP3    H2  214   3.158   2.150   2.698  0.3671  1.6452 -0.3137
   70TIP3   OH2  215   2.149   3.332   2.955  0.1198  0.6163  0.1601
   70TIP3    H1  216   2.176   3.331   2.863  0.2490  2.4403  0.1551
   70TIP3    H2  217   2.057   3.358   2.954  0.3369  1.4463  0.5739
   71TIP3   OH2  218   5.782   5.912   1.328  1.0725  0.3864  0.5521
   71TIP3    H1  219   5.782   6.005   1.351 -1.6502  1.2961 -2.4000
   71TIP3    H2  220   5.729   5.870   1.396  2.9919  0.7566  2.3576
   72TIP3   OH2  221   2.296   4.452   2.945  0.3136  0.4244  0.0463
   72TIP3    H1  222   2.300   4.366   2.988  1.8857  0.2283 -0.4088
   72TIP3    H2  223   2.386   4.484   2.949 -0.1258  1.7679 -0.3833
   73TIP3   OH2  224   2.273   1.511   0.043  0.1991  0.3175  0.1902
   73TIP3    H1  225   2.364   1.483   0.034 -0.1225 -1.4733  1.9643
   73TIP3    H2  226   2.236   1.453   0.109 -2.0382  1.5226  0.0896
   74TIP3   OH2  227   1.366   4.639   1.921 -0.4122  0.6399 -0.5923
   74TIP3    H1  228   1.356   4.644   2.016  0.7084 -0.1235 -0.4229
   74TIP3    H2  229   1.323   4.557   1.896 -0.0994  0.4965 -0.6601
   75TIP3   OH2  230   6.366   1.884   3.038 -0.2248 -0.2506  0.2743
   75TIP3    H1  231   6.271   1.877   3.046 -0.1204 -0.6274  1.3259
   75TIP3    H2  232   6.394   1.795   3.019 -0.0968 -0.0896 -0.3130
   76TIP3   OH2  233   1.553   1.710   0.617 -0.0312 -0.6421  0.8213
   76TIP3    H1  234   1.575   1.617   0.625 -2.0360 -1.1528  0.8364
   76TIP3    H2  235   1.475   1.721   0.670 -1.3387  0.4844 -1.1990
   77TIP3   OH2  236   1.712   3.338   1.765  0.0115 -0.1250 -0.1973
   77TIP3    H1  237   1.659   3.379   1.833  0.4006  0.6579 -0.3413
   77TIP3    H2  238   1.746   3.412   1.714  1.7197 -0.5554  0.2473
   78TIP3   OH2  239   3.778   3.154   4.169  0.6057  0.3448 -0.1387
   78TIP3    H1  240   3.842   3.115   4.110 -0.2598 -1.0920 -0.1638
   78TIP3    H2  241   3.713   3.086   4.183  0.8448  0.5486  2.5899
   79TIP3   OH2  242   5.238   1.711   4.643 -0.0605 -0.1366 -0.0813
   79TIP3    H1  243   5.258   1.659   4.566 -1.0329  1.6951 -1.6652
   79TIP3    H2  244   5.241   1.802   4.612 -3.9034  0.5752  1.1156
   80TIP3   OH2  245   4.653   3.090   3.741 -0.3415 -0.1183 -0.2336
   80TIP3    H1  246   4.562   3.067   3.721 -0.2994 -0.7841  0.3049
   80TIP3    H2  247   4.660   3.078   3.836  0.4052 -0.4149 -0.3222
   81TIP3   OH2  248   2.826   1.843   5.012  0.0903 -0.3789  0.3246
   81TIP3    H1  249   2.888   1.916   5.007 -1.3684  1.0159  1.4272
   81TIP3    H2  250   2.741   1.882   4.992 -0.7889 -1.6885  1.2961
   82TIP3   OH2  251   4.464   2.083   0.304 -0.6610  0.2643 -0.1421
   82TIP3    H1  252   4.511   2.011   0.346 -3.2410 -0.9105  0.9676
   82TIP3    H2  253   4.470   2.064   0.211  0.7699  0.0242 -0.0346
   83TIP3   OH2  254   5.841   1.341   0.364 -0.1447  0.7196 -0.1672
   83TIP3    H1  255   5.839   1.334   0.460 -0.9417 -0.7807 -0.2681
   83TIP3    H2  256   5.919   1.291   0.339 -1.0692 -0.6362 -0.4051
   84TIP3   OH2  257   2.057   3.888   0.659 -0.1866  0.1526  0.3549
   84TIP3    H1  258   2.064   3.940   0.738 -0.9223 -0.9334  1.1639
   84TIP3    H2  259   2.127   3.921   0.602  3.2045 -1.7402  3.0202
   85TIP3   OH2  260   6.203   0.757   1.618  0.1766 -0.2008  0.2375
   85TIP3    H1  261   6.119   0.730   1.580 -1.0452  1.2336  1.7518
   85TIP3    H2  262   6.213   0.848   1.593  1.5777 -0.4919 -0.3533
   86TIP3   OH2  263   5.013   5.512   2.777  0.2059 -0.1525  0.0230
   86TIP3    H1  264   5.009   5.605   2.798 -2.4826 -0.1016 -0.3283
   86TIP3    H2  265   5.009   5.509   2.682 -1.0698 -0.6183  0.0738
   87TIP3   OH2  266   4.373   3.116   2.580  0.6690  0.1252 -0.3088
   87TIP3    H1  267   4.419   3.112   2.664 -1.9962 -1.6204  1.2248
   87TIP3    H2  268   4.384   3.028   2.542  0.2764  0.3182 -0.8840
   88TIP3   OH2  269   5.286   4.202   1.291 -0.2904  0.0798  0.3668
   88TIP3    H1  270   5.338   4.122   1.299  0.0809  0.3833  1.0851
   88TIP3    H2  271   5.350   4.271   1.276 -0.1195  0.8946  3.9179
   89TIP3   OH2  272   4.969   3.037   1.269  0.3347  0.3059 -0.0018
   89TIP3    H1  273   4.930   3.074   1.189 -1.1982  1.2730  1.1445
   89TIP3    H2  274   4.914   3.069   1.340  1.3158 -1.0077  1.4228
   90TIP3   OH2  275   5.379   3.818   4.820  0.0776 -0.0566 -0.8355
   90TIP3    H1  276   5.430   3.792   4.743  0.8918  0.9922 -0.6745
   90TIP3    H2  277   5.401   3.754   4.887  0.0557 -0.4500 -1.1963
   91TIP3   OH2  278   0.267   5.810   1.063  0.2951 -0.8412  0.2762
   91TIP3    H1  279   0.297   5.739   1.007 -1.8104 -0.6582 -1.1797
   91TIP3    H2  280   0.176   5.789   1.085 -0.1124  0.9489  0.5308
   92TIP3   OH2  281   3.356   1.541   0.715  0.6657  0.0731  0.4968
   92TIP3    H1  282   3.271   1.552   0.674  0.0888  0.9086  1.8242
   92TIP3    H2  283   3.419   1.569   0.649 -0.2692  2.2512  0.4439
   93TIP3   OH2  284   5.549   3.370   2.472 -0.1709  0.3812  0.2379
   93TIP3    H1  285   5.556   3.295   2.413 -1.9187  0.7525 -0.4998
   93TIP3    H2  286   5.540   3.332   2.559  1.1675 -0.1953  0.1500
   94TIP3   OH2  287   3.183   0.376   4.421  0.3417 -0.0497 -0.0491
   94TIP3    H1  288   3.097   0.414   4.441 -0.0836 -0.7826 -0.4761
   94TIP3    H2  289   3.240   0.452   4.409 -0.5667  0.4848 -1.1961
   95TIP3   OH2  290   5.384   2.243   1.288  0.2418 -0.0006  0.4075
   95TIP3    H1  291   5.308   2.300   1.301  1.9469  1.9438  2.7373
   95TIP3    H2  292   5.438   2.288   1.224 -0.4140 -1.3128 -1.1445
   96TIP3   OH2  293   0.058   3.289   4.429  0.6335 -0.5238  0.4194
   96TIP3    H1  294   0.023   3.362   4.378 -0.9867 -2.5706 -1.5882
   96TIP3    H2  295   0.127   3.251   4.374  0.1738 -1.6123  0.5664
   97TIP3   OH2  296   6.202   1.551   0.571 -0.4320 -0.5989  0.0291
   97TIP3    H1  297   6.263   1.477   0.566 -0.4123 -0.6345  0.7363
   97TIP3    H2  298   6.198   1.573   0.664 -0.0301  0.6444 -0.2254
   98TIP3   OH2  299   6.290   1.995   0.093  0.3622  0.5102  0.0254
   98TIP3    H1  300   6.236   1.992   0.172  1.6324 -1.9260  0.9269
   98TIP3    H2  301   6.358   2.060   0.113 -1.5771  2.8941 -0.7502
   99TIP3   OH2  302   0.112   4.602   5.081  0.0186 -0.5833  0.1056
   99TIP3    H1  303   0.115   4.580   4.987 -0.9119  0.9167 -0.3016
   99TIP3    H2  304   0.059   4.681   5.085 -0.3616 -0.9029  1.9762
  100TIP3   OH2  305   3.030   3.009   0.367 -0.8004 -0.0680 -0.0785
  100TIP3    H1  306   3.078   3.067   0.308  0.8146 -0.6228  0.6227
  100TIP3    H2  307   3.018   3.060   0.447  1.1219 -0.8018  0.7475
  101TIP3   OH2  308   3.840   5.791   2.921 -0.1634 -0.1071  0.0773
  101TIP3    H1  309   3.747   5.800   2.940 -0.1284 -0.3317  0.3538
  101TIP3    H2  310   3.844   5.769   2.828 -0.3032  1.7757 -0.4343
  102TIP3   OH2  311   5.885   5.295   1.536 -0.0921 -0.6149  0.7280
  102TIP3    H1  312   5.975   5.323   1.552  0.2735 -2.2048  1.6535
  102TIP3    H2  313   5.849   5.361   1.478  1.9639 -0.4272 -0.4014
  103TIP3   OH2  314   2.913   0.972   5.166  0.1512  0.7666  0.2624
  103TIP3    H1  315   2.884   0.919   5.092  0.3194  0.2166  0.5821
  103TIP3    H2  316   2.914   0.911   5.240  1.0911  1.0265  0.4785
  104TIP3   OH2  317   2.064   0.383   4.082  0.8157 -0.1319  0.5014
  104TIP3    H1  318   2.038   0.474   4.068 -1.5351 -0.6541  1.0357
  104TIP3    H2  319   2.099   0.354   3.998 -1.5466  0.3453 -0.7274
  105TIP3   OH2  320   4.281   3.367   1.777  0.4074  0.1459  0.7086
  105TIP3    H1  321   4.202   3.340   1.825 -1.8510  3.0696 -1.0334
  105TIP3    H2  322   4.340   3.401   1.845 -0.1973 -1.1686  1.9492
  106TIP3   OH2  323   0.043   0.061   5.044 -0.1232  0.6522 -0.0683
  106TIP3    H1  324  -0.002  -0.017   5.011  0.3284  0.0147  0.7623
  106TIP3    H2  325   0.120   0.026   5.090  0.4238  1.6312 -0.2076
  107TIP3   OH2  326   2.745   5.278   0.932 -0.6377 -0.4028 -0.2739
  107TIP3    H1  327   2.710   5.189   0.929 -1.2486 -0.1909  0.4696
  107TIP3    H2  328   2.715   5.313   1.015  4.1243 -1.3709  2.2656
  108TIP3   OH2  329   0.261   0.472   3.356  0.3594  0.1985 -0.0759
  108TIP3    H1  330   0.310   0.428   3.426  0.0772  0.6358  0.4031
  108TIP3    H2  331   0.277   0.565   3.370  2.0355  0.2535 -1.8668
  109TIP3   OH2  332   6.176   5.582   4.973  0.0964  0.3471  0.0208
  109TIP3    H1  333   6.243   5.522   4.941 -0.7459  0.3001 -1.7770
  109TIP3    H2  334   6.161   5.555   5.064  1.9561 -0.1029  0.2445
  110TIP3   OH2  335   0.861   1.794   3.503 -0.4743 -0.8033  0.4574
  110TIP3    H1  336   0.888   1.722   3.446  1.6098 -0.0653  0.4261
  110TIP3    H2  337   0.848   1.753   3.589 -0.2858 -1.3823  0.2132
  111TIP3   OH2  338   6.261   0.874   2.606 -0.4302  0.6096 -0.4665
  111TIP3    H1  339   6.183   0.823   2.625 -0.5533  0.8029 -0.4541
  111TIP3    H2  340   6.229   0.955   2.565 -0.3031  1.0975  0.3698
  112TIP3   OH2  341   1.700   3.410   4.751 -0.1052  0.3974  0.0696
  112TIP3    H1  342   1.773   3.349   4.750 -1.1293 -0.8653 -0.7697
  112TIP3    H2  343   1.640   3.374   4.817 -1.7007 -0.7996 -1.9039
  113TIP3   OH2  344   4.083   2.439   2.807 -0.3815  0.0306 -0.1207
  113TIP3    H1  345   3.995   2.418   2.774 -0.0115  0.0379 -1.1284
  113TIP3    H2  346   4.099   2.373   2.874 -0.3394 -1.2519 -1.3589
  114TIP3   OH2  347   3.037   0.809   2.153  0.1844  0.1811  0.1884
  114TIP3    H1  348   3.130   0.824   2.166 -0.2415  2.3043  1.1714
  114TIP3    H2  349   3.031   0.761   2.070  2.1474 -0.4038  0.3464
  115TIP3   OH2  350   2.598   4.649   0.507 -0.3021  0.0740 -0.1026
  115TIP3    H1  351   2.627   4.730   0.549  0.4274 -0.1114 -0.2283
  115TIP3    H2  352   2.612   4.581   0.573 -2.8647  0.3101  0.7600
  116TIP3   OH2  353   4.191   0.739   3.132 -0.4673 -0.0567  0.2922
  116TIP3    H1  354   4.216   0.760   3.222 -1.1547 -1.4140  0.8312
  116TIP3    H2  355   4.235   0.805   3.079 -0.1750  0.8726  1.6331
  117TIP3   OH2  356   5.191   0.270   3.900 -0.0114  0.8223 -0.4377
  117TIP3    H1  357   5.100   0.243   3.913  0.3162  0.1621  0.5587
  117TIP3    H2  358   5.212   0.241   3.811  0.4094 -2.6414  0.6576
  118TIP3   OH2  359   4.220   5.309   0.540  0.1939 -0.6912 -0.3656
  118TIP3    H1  360   4.312   5.332   0.532  0.0175 -0.2461 -1.2146
  118TIP3    H2  361   4.218   5.241   0.608  1.2389 -1.2482 -0.8674
  119TIP3   OH2  362   1.812   1.598   0.563  0.0461  0.4896 -0.1921
  119TIP3    H1  363   1.809   1.638   0.650  0.3158  0.1848 -0.0386
  119TIP3    H2  364   1.724   1.611   0.527  0.3672  1.9607 -0.4921
  120TIP3   OH2  365   0.798   2.353   0.827  0.6598  0.0027  0.0212
  120TIP3    H1  366   0.776   2.387   0.741  1.0844 -0.9124 -0.4676
  120TIP3    H2  367   0.861   2.416   0.863  0.3606  0.4698 -0.2687
  121TIP3   OH2  368   2.171   4.778   2.423 -0.3879 -0.3149 -0.3626
  121TIP3    H1  369   2.221   4.708   2.380  0.1721  1.0679 -2.0748
  121TIP3    H2  370   2.236   4.826   2.474  0.0318  1.2320 -2.2562
  122TIP3   OH2  371   3.004   1.598   5.109  0.0251 -0.5774  0.4155
  122TIP3    H1  372   3.091   1.606   5.068  0.2774 -1.6274  0.7414
  122TIP3    H2  373   2.956   1.673   5.074  1.0440  0.0003  0.1914
  123TIP3   OH2  374   4.617   1.626   2.034 -0.3398  0.1983 -0.0549
  123TIP3    H1  375   4.611   1.716   2.067 -1.3082 -0.1312  0.7109
  123TIP3    H2  376   4.692   1.589   2.080 -1.7728 -0.3085  1.9923
  124TIP3   OH2  377   5.493   1.007   4.147  0.1566 -0.5670  0.3255
  124TIP3    H1  378   5.432   0.937   4.127  0.6864 -0.5012 -1.6670
  124TIP3    H2  379   5.460   1.083   4.101  1.2548 -0.3086 -0.0779
  125TIP3   OH2  380   1.285   3.495   4.726  0.5765  0.2012  0.0480
  125TIP3    H1  381   1.203   3.539   4.750  1.3897  0.7217  2.1003
  125TIP3    H2  382   1.274   3.405   4.756  0.6233  0.1711 -0.0240
  126TIP3   OH2  383   0.084   3.559   4.787 -0.2632  0.0114 -0.3131
  126TIP3    H1  384   0.073   3.469   4.755  1.4844 -0.3696  0.0254
  126TIP3    H2  385   0.145   3.551   4.860 -0.4989  1.4319  0.0766
  127TIP3   OH2  386   1.610   0.816   1.028 -0.1338 -0.0510 -0.5274
  127TIP3    H1  387   1.638   0.786   0.941  2.3639 -2.7797  1.0294
  127TIP3    H2  388   1.542   0.881   1.010 -0.4690 -1.2250 -4.4756
  128TIP3   OH2  389   5.136   4.682   4.581 -0.1114  0.2229  0.3414
  128TIP3    H1  390   5.078   4.748   4.542 -0.1659  0.3464  0.6286
  128TIP3    H2  391   5.097   4.598   4.555  0.8347  0.2569 -1.3631
  129TIP3   OH2  392   5.593   2.650   3.066 -0.3875  0.2562 -0.2939
  129TIP3    H1  393   5.534   2.633   2.992  0.5384 -0.7130 -0.8391
  129TIP3    H2  394   5.680   2.652   3.028  0.1240 -0.3697  0.7789
  130TIP3   OH2  395   5.083   3.698   3.741 -0.2565 -0.2596 -0.6293
  130TIP3    H1  396   4.998   3.659   3.762 -0.3114  0.1572 -0.0501
  130TIP3    H2  397   5.061   3.779   3.695 -0.1822  0.1028 -0.0264
  131TIP3   OH2  398   1.658   1.926   2.680 -0.2559  0.3705 -0.0608
  131TIP3    H1  399   1.699   1.839   2.673  1.5566  1.0498  1.2685
  131TIP3    H2  400   1.651   1.957   2.590  2.0049  0.0889 -0.3937
  132TIP3   OH2  401   2.352   4.784   4.488 -0.5932  0.1391 -0.0457
  132TIP3    H1  402   2.366   4.839   4.565  0.9160  1.1449 -0.9961
  132TIP3    H2  403   2.258   4.793   4.470 -0.6725  1.1542  0.7621
  133TIP3   OH2  404   2.078   1.377   3.873  0.3497 -0.2819  0.1263
  133TIP3    H1  405   2.106   1.440   3.807  1.9768  0.0137  1.0495
  133TIP3    H2  406   2.054   1.299   3.823  0.3424  0.3550 -0.8885
  134TIP3   OH2  407   5.478   0.176   1.167 -0.1632  0.0623 -0.3239
  134TIP3    H1  408   5.412   0.119   1.127 -0.5695 -0.0990  0.5588
  134TIP3    H2  409   5.551   0.176   1.105 -0.5899 -0.5630 -0.8323
  135TIP3   OH2  410   2.965   1.111   4.295  0.1567 -0.1537  0.6858
  135TIP3    H1  411   2.954   1.189   4.241  1.0783  0.0624  0.7947
  135TIP3    H2  412   3.039   1.064   4.255 -0.8648 -1.3791  0.1523
  136TIP3   OH2  413   5.001   6.012   1.015  0.3959 -0.2181 -0.5454
  136TIP3    H1  414   4.941   5.957   1.065  2.0648 -1.2609  0.3934
  136TIP3    H2  415   4.998   5.975   0.926 -0.3815 -0.2075 -0.5310
  137TIP3   OH2  416   5.594   2.966   3.590 -0.4934 -0.1848  0.3388
  137TIP3    H1  417   5.626   2.957   3.680 -0.1488 -0.3323  0.2056
  137TIP3    H2  418   5.516   2.911   3.586  0.1446 -1.1068  0.2363
  138TIP3   OH2  419   1.591   0.178   0.861 -0.4178  0.5446 -0.3232
  138TIP3    H1  420   1.634   0.093   0.862  0.4380  0.9688 -0.1261
  138TIP3    H2  421   1.502   0.161   0.893  0.6125  0.1641  2.6412
  139TIP3   OH2  422   2.954   4.235   2.601  0.2085  0.0952 -0.1760
  139TIP3    H1  423   2.943   4.235   2.506 -1.8617 -1.6325 -0.0132
  139TIP3    H2  424   3.041   4.196   2.615  0.5992  0.5198 -1.3519
  140TIP3   OH2  425   2.988   5.687   2.600 -0.1478  0.0470 -0.2113
  140TIP3    H1  426   2.947   5.601   2.605 -1.1936  0.4988 -0.6846
  140TIP3    H2  427   2.981   5.722   2.690  0.2175 -0.3270 -0.0353
  141TIP3   OH2  428   2.630   1.818   2.217  0.0804 -0.4721  0.0208
  141TIP3    H1  429   2.594   1.816   2.128  0.5793  1.1923 -0.2705
  141TIP3    H2  430   2.723   1.836   2.204 -0.1727  1.8245  0.8683
  142TIP3   OH2  431   0.300   5.551   4.876  0.1583  0.1660  0.0325
  142TIP3    H1  432   0.272   5.637   4.909  1.6319  0.5713  0.3026
  142TIP3    H2  433   0.391   5.564   4.850 -0.1977 -0.7937 -1.8810
  143TIP3   OH2  434   5.803   2.582   2.900 -0.3815 -0.3713 -0.7404
  143TIP3    H1  435   5.748   2.511   2.866 -3.5758  1.9805 -1.0063
  143TIP3    H2  436   5.826   2.633   2.822  0.3066 -0.1156 -0.3706
  144TIP3   OH2  437   4.822   3.635   1.433 -0.4932 -0.7472  0.4346
  144TIP3    H1  438   4.831   3.564   1.369  1.2343 -0.6511  0.5268
  144TIP3    H2  439   4.798   3.591   1.515  2.1120 -1.4695  0.8822
  145TIP3   OH2  440   3.379   0.148   1.958  0.4012 -0.3290  0.3692
  145TIP3    H1  441   3.370   0.235   1.997 -2.8372 -1.2542  2.0169
  145TIP3    H2  442   3.436   0.101   2.019  0.6232  0.0898  0.4894
  146TIP3   OH2  443   5.287   2.775   4.508  0.2476 -0.0742  0.2703
  146TIP3    H1  444   5.220   2.800   4.444  0.5739 -0.7606 -0.3529
  146TIP3    H2  445   5.350   2.847   4.507  0.8839 -0.6216 -1.0919
  147TIP3   OH2  446   2.293   2.403   3.181 -0.0999  0.1706 -0.1254
  147TIP3    H1  447   2.342   2.389   3.100  1.1381  1.1971  0.4132
  147TIP3    H2  448   2.267   2.495   3.177 -1.6284 -0.2298 -0.1715
  148TIP3   OH2  449   4.293   3.670   2.687  0.0914  0.4575  0.4149
  148TIP3    H1  450   4.383   3.657   2.719  1.3224  2.4419 -1.8767
  148TIP3    H2  451   4.294   3.633   2.599 -0.8904  1.7716 -0.1721
  149TIP3   OH2  452   3.471   4.585   0.307  0.3413  0.0047 -0.3609
  149TIP3    H1  453   3.462   4.544   0.221 -0.7245 -2.1444  0.6798
  149TIP3    H2  454   3.527   4.525   0.357  0.2201  0.7414  0.6992
  150TIP3   OH2  455   4.908   3.729   0.577  0.2342  0.2513  0.0490
  150TIP3    H1  456   4.859   3.735   0.659 -0.0515  1.6818 -0.2101
  150TIP3    H2  457   4.996   3.703   0.603 -0.2274 -0.7969  0.6543
  151TIP3   OH2  458   4.140   4.541   1.260  0.6401  0.5461  0.6223
  151TIP3    H1  459   4.156   4.507   1.349  0.0113 -2.3561 -0.2571
  151TIP3    H2  460   4.045   4.548   1.254  0.6450  0.0906 -0.0216
  152TIP3   OH2  461   1.273   2.613   5.063 -0.0239  0.0215  0.1006
  152TIP3    H1  462   1.300   2.596   5.153  1.5831  0.3871 -0.2801
  152TIP3    H2  463   1.289   2.530   5.017  0.5882  0.2842 -0.1615
  153TIP3   OH2  464   6.283   3.051   4.814 -0.1290 -0.0887  0.2915
  153TIP3    H1  465   6.341   2.988   4.771  0.0429  1.1142 -1.3290
  153TIP3    H2  466   6.229   2.998   4.873  0.8024 -1.5820 -0.1488
  154TIP3   OH2  467   0.802   0.760   1.454 -0.5285 -0.2318 -0.6206
  154TIP3    H1  468   0.850   0.677   1.449  1.6827  0.9909 -0.4630
  154TIP3    H2  469   0.766   0.771   1.366  2.2573  0.3641 -1.7875
  155TIP3   OH2  470   0.819   2.880   0.865 -0.0902  0.2913  0.2690
  155TIP3    H1  471   0.881   2.810   0.884 -0.9380 -0.8483 -1.0188
  155TIP3    H2  472   0.734   2.845   0.893 -0.6169  0.5611 -0.9502
  156TIP3   OH2  473   1.056   3.143   4.616  0.2725  0.0136 -0.0724
  156TIP3    H1  474   1.108   3.085   4.560 -0.4945 -0.7941  0.0395
  156TIP3    H2  475   0.975   3.095   4.633  0.2359  0.4965  1.2407
  157TIP3   OH2  476   3.383   1.033   5.183 -0.2654  0.4690 -0.3477
  157TIP3    H1  477   3.372   0.948   5.140 -1.6508  1.0812 -1.2955
  157TIP3    H2  478   3.477   1.039   5.202 -0.1883 -1.3774  0.0061
  158TIP3   OH2  479   4.671   5.943   4.474  0.2973  0.7412 -0.0224
  158TIP3    H1  480   4.707   6.022   4.434  1.3427  1.6101  2.4452
  158TIP3    H2  481   4.699   5.947   4.565 -1.2496 -1.5296  0.6490
  159TIP3   OH2  482   2.743   2.129   0.136 -0.2296  0.2547 -0.3949
  159TIP3    H1  483   2.809   2.171   0.191 -0.7652  0.0106  0.4706
  159TIP3    H2  484   2.663   2.180   0.152 -0.7511 -0.7165  0.2237
  160TIP3   OH2  485   3.549   2.150   0.651 -0.7987 -0.1723  0.2562
  160TIP3    H1  486   3.459   2.170   0.674 -0.4236  1.1000  0.7352
  160TIP3    H2  487   3.549   2.058   0.627 -2.2189 -0.1806  0.2470
  161TIP3   OH2  488   5.336   5.380   4.766  0.8165  0.6917  0.0639
  161TIP3    H1  489   5.300   5.292   4.758  1.2062  0.5685 -0.3187
  161TIP3    H2  490   5.320   5.421   4.681 -1.5344  1.8231  0.9583
  162TIP3   OH2  491   4.440   3.859   5.074  0.2052 -0.2480 -0.0984
  162TIP3    H1  492   4.505   3.851   5.144 -0.2998  2.3623  0.7656
  162TIP3    H2  493   4.489   3.893   4.999  0.3571 -1.1210 -0.4107
  163TIP3   OH2  494   0.331   3.115   2.011 -0.0014 -0.2141  0.5255
  163TIP3    H1  495   0.409   3.085   1.965 -0.9789 -1.6925 -0.2413
  163TIP3    H2  496   0.325   3.209   1.991  1.6559 -0.0306  0.7761
  164TIP3   OH2  497   2.548   5.144   0.108  0.1570  0.2528 -0.1650
  164TIP3    H1  498   2.500   5.223   0.131  0.4535  0.2352  0.5507
  164TIP3    H2  499   2.640   5.169   0.117  0.2477 -0.2344  0.2670
  165TIP3   OH2  500   4.365   5.690   3.769 -0.2366  0.2379 -0.1183
  165TIP3    H1  501   4.275   5.659   3.778 -0.3437  0.9062  1.3444
  165TIP3    H2  502   4.388   5.724   3.855  0.7987  1.7546 -0.9351
  166TIP3   OH2  503   0.043   2.859   4.653  0.6264  0.4545 -0.5550
  166TIP3    H1  504  -0.013   2.909   4.594 -0.2955  0.0794 -0.0090
  166TIP3    H2  505   0.132   2.884   4.627  0.2895 -0.3650 -2.6957
  167TIP3   OH2  506   0.052   0.529   1.430 -0.5099  0.1231  0.1180
  167TIP3    H1  507   0.077   0.448   1.386  2.2684  1.9558 -1.9759
  167TIP3    H2  508   0.116   0.539   1.501 -0.3139  0.8696 -0.1543
  168TIP3   OH2  509   5.191   2.457   1.524  0.2016  0.2165 -0.3346
  168TIP3    H1  510   5.240   2.448   1.442  1.5912  0.8670  0.4077
  168TIP3    H2  511   5.166   2.549   1.527  0.3237  0.2362  0.0654
  169TIP3   OH2  512   4.578   3.699   2.996 -0.2218  0.2310  0.1741
  169TIP3    H1  513   4.564   3.674   3.087  0.1180  0.3448  0.2568
  169TIP3    H2  514   4.582   3.795   2.997 -2.4745  0.3920 -0.2661
  170TIP3   OH2  515   6.288   0.156   0.954 -0.3031  0.4212 -0.2556
  170TIP3    H1  516   6.370   0.107   0.962 -0.2122  0.1321 -2.5215
  170TIP3    H2  517   6.257   0.164   1.044  2.3851  0.8559  0.7325
  171TIP3   OH2  518   0.229   3.056   4.281  0.4665 -0.1583  0.3049
  171TIP3    H1  519   0.161   2.988   4.277 -1.7835  1.9432  0.2923
  171TIP3    H2  520   0.275   3.049   4.197 -3.1752  1.5517 -2.0685
  172TIP3   OH2  521   1.870   5.797   2.734 -0.7346  0.3259 -0.0609
  172TIP3    H1  522   1.783   5.780   2.696  0.5388 -2.5336 -2.0641
  172TIP3    H2  523   1.919   5.839   2.664  0.3370 -0.8312 -0.0390
  173TIP3   OH2  524   1.094   1.184   4.251 -0.3409  0.3593  0.5541
  173TIP3    H1  525   1.138   1.268   4.252  1.0016 -0.3006  2.8341
  173TIP3    H2  526   1.015   1.197   4.304 -1.2020  0.6407 -0.7316
  174TIP3   OH2  527   1.777   4.057   1.477 -0.0820 -0.1958 -0.3021
  174TIP3    H1  528   1.699   4.007   1.502  0.4713 -0.9139  0.0348
  174TIP3    H2  529   1.803   4.102   1.557  1.5784 -2.3425  0.4918
  175TIP3   OH2  530   5.134   4.097   1.687  0.4473  0.1389 -0.1365
  175TIP3    H1  531   5.051   4.065   1.722  0.6523 -0.9990 -0.6669
  175TIP3    H2  532   5.117   4.116   1.595  1.2888 -2.2301 -0.8465
  176TIP3   OH2  533   5.288   4.447   2.471  0.2507 -0.3828 -0.4121
  176TIP3    H1  534   5.284   4.424   2.564  0.0796 -2.5167 -0.9045
  176TIP3    H2  535   5.210   4.408   2.433 -0.1962  1.3036 -1.3213
  177TIP3   OH2  536   0.775   0.361   4.589  0.5951  0.1840  0.0792
  177TIP3    H1  537   0.716   0.381   4.662  0.4425  0.8075 -0.2123
  177TIP3    H2  538   0.744   0.416   4.517  0.5956 -0.5962 -0.5362
  178TIP3   OH2  539   1.513   2.479   3.645  0.3922  0.0781  0.0366
  178TIP3    H1  540   1.570   2.537   3.695  1.3828 -0.3736 -0.5550
  178TIP3    H2  541   1.512   2.517   3.557 -1.7712  1.1829  0.4475
  179TIP3   OH2  542   3.746   4.991   3.523  0.2668 -0.5865  0.2870
  179TIP3    H1  543   3.805   5.036   3.463  1.3715 -2.5500 -0.1884
  179TIP3    H2  544   3.792   4.910   3.545 -1.2278 -1.0737  1.8199
  180TIP3   OH2  545   1.702   1.120   0.745  0.6524 -0.3332 -0.0164
  180TIP3    H1  546   1.754   1.192   0.710 -0.0663  0.1375 -0.1414
  180TIP3    H2  547   1.740   1.041   0.706  1.2514 -0.0005 -0.1194
  181TIP3   OH2  548   5.636   5.230   3.935 -0.3552 -0.4009 -0.0526
  181TIP3    H1  549   5.547   5.266   3.940  0.7103  2.5970 -0.5652
  181TIP3    H2  550   5.693   5.305   3.953  2.2117 -0.7228 -5.1703
  182TIP3   OH2  551   0.842   2.857   2.338  0.0112  0.0199  0.1210
  182TIP3    H1  552   0.817   2.888   2.251 -0.0079 -0.6552 -0.1237
  182TIP3    H2  553   0.864   2.936   2.387 -1.5188  0.5486  0.0042
  183TIP3   OH2  554   3.165   2.478   3.333 -0.4262 -0.6297  0.1107
  183TIP3    H1  555   3.243   2.521   3.297  0.3612 -1.6602  0.5437
  183TIP3    H2  556   3.170   2.495   3.428 -1.3942  0.3159  0.0260
  184TIP3   OH2  557   5.106   1.840   0.916  0.4865 -0.2366 -0.1121
  184TIP3    H1  558   5.146   1.904   0.975  0.2231  0.0913 -0.2909
  184TIP3    H2  559   5.107   1.882   0.830 -0.5717 -0.0755 -0.0561
  185TIP3   OH2  560   1.776   0.093   3.182  0.0005  0.2667  1.2429
  185TIP3    H1  561   1.684   0.076   3.203  0.1437 -1.2665  0.7401
  185TIP3    H2  562   1.798   0.170   3.234 -1.8740  1.3849  0.4813
  186TIP3   OH2  563   0.155   5.294   3.496 -0.5212 -0.4026 -0.5364
  186TIP3    H1  564   0.200   5.309   3.413  0.1017 -2.2443 -0.5764
  186TIP3    H2  565   0.215   5.239   3.546 -0.3802  1.5736  1.6213
  187TIP3   OH2  566   4.292   5.267   4.807  0.8114  0.2516 -0.9409
  187TIP3    H1  567   4.257   5.227   4.887  1.5885 -0.8238 -1.1137
  187TIP3    H2  568   4.326   5.352   4.836  0.5332  0.1391 -0.2551
  188TIP3   OH2  569   1.004   5.229   4.724  0.0306  0.3986  0.0568
  188TIP3    H1  570   1.055   5.310   4.715 -0.3418  0.6622  0.2886
  188TIP3    H2  571   0.975   5.229   4.815 -2.5799  1.5877 -0.6909
  189TIP3   OH2  572   0.467   1.632   2.430  0.3794  0.1896  0.0679
  189TIP3    H1  573   0.496   1.541   2.421 -0.1628  0.2225 -3.9708
  189TIP3    H2  574   0.391   1.627   2.487 -0.2576 -2.0940 -0.8445
  190TIP3   OH2  575   2.351   3.737   2.330 -0.2947 -0.4913  0.1507
  190TIP3    H1  576   2.411   3.809   2.349 -0.0958 -0.8815  1.0530
  190TIP3    H2  577   2.297   3.769   2.257  0.0841  0.3907  0.2449
  191TIP3   OH2  578   4.644   0.516   0.072 -0.5962  0.2333  0.3530
  191TIP3    H1  579   4.650   0.610   0.091  0.3092 -0.2045  2.4554
  191TIP3    H2  580   4.602   0.478   0.149 -0.5852 -1.1460 -0.2910
  192TIP3   OH2  581   3.943   2.506   1.242  0.2891  0.2618 -1.0294
  192TIP3    H1  582   3.943   2.429   1.184  1.0048 -0.3282 -0.2735
  192TIP3    H2  583   3.856   2.505   1.282  0.7138 -0.9383 -0.0527
  193TIP3   OH2  584   5.724   4.223   4.695  0.1958 -0.3511 -0.5133
  193TIP3    H1  585   5.721   4.203   4.789 -0.4886  1.1490 -0.1773
  193TIP3    H2  586   5.810   4.261   4.681 -0.1632  0.6232 -0.1945
  194TIP3   OH2  587   2.624   2.707   1.598  0.5213 -0.2310 -0.3479
  194TIP3    H1  588   2.587   2.673   1.517 -0.9040  1.3157 -0.3846
  194TIP3    H2  589   2.711   2.738   1.574  0.3062 -0.2511 -1.1708
  195TIP3   OH2  590   2.215   4.017   1.561  0.5021  0.1630  0.0010
  195TIP3    H1  591   2.302   3.979   1.549  0.1499 -1.2894  1.5480
  195TIP3    H2  592   2.228   4.088   1.624  0.6075  0.0497  0.1085
  196TIP3   OH2  593   0.739   1.648   4.291  0.0376  0.0905  0.6783
  196TIP3    H1  594   0.829   1.680   4.299 -0.6793  2.4427  0.1808
  196TIP3    H2  595   0.685   1.727   4.289 -1.9680 -1.2025 -0.1345
  197TIP3   OH2  596   5.710   3.170   1.864 -0.4000  0.2168 -0.2203
  197TIP3    H1  597   5.647   3.170   1.936 -1.6885  0.3479 -1.2984
  197TIP3    H2  598   5.794   3.187   1.906 -0.8209 -1.5038  1.4593
  198TIP3   OH2  599   6.032   2.026   2.719  0.1499 -0.3255  0.6467
  198TIP3    H1  600   6.068   2.079   2.647 -0.0120 -2.6039 -1.2555
  198TIP3    H2  601   6.013   2.089   2.788 -1.2473  2.2965 -1.8875
  199TIP3   OH2  602   5.892   5.217   3.221 -0.3335 -0.0213  0.0498
  199TIP3    H1  603   5.831   5.144   3.223  0.1996 -0.5110 -0.7624
  199TIP3    H2  604   5.837   5.295   3.217 -0.9183 -0.3230  1.5802
  200TIP3   OH2  605   1.116   2.417   0.730  0.1480 -0.2103  0.3121
  200TIP3    H1  606   1.034   2.461   0.707  0.4004  0.3334  0.4477
  200TIP3    H2  607   1.120   2.341   0.671  0.1626  0.4642 -0.5731
  201TIP3   OH2  608   0.405   5.115   0.517 -0.1330 -0.0971 -0.6777
  201TIP3    H1  609   0.366   5.027   0.515  0.4050 -0.3238 -1.2851
  201TIP3    H2  610   0.493   5.104   0.480  0.8801  0.2259  1.4447
  202TIP3   OH2  611   1.567   1.463   0.117  0.5475 -0.0034 -0.3931
  202TIP3    H1  612   1.620   1.397   0.161  0.9014  1.5280  1.6216
  202TIP3    H2  613   1.490   1.474   0.172  0.5561  1.3313 -0.6064
  203TIP3   OH2  614   5.711   1.913   0.596  0.9232  0.5831  1.1437
  203TIP3    H1  615   5.670   1.838   0.639 -0.2580 -0.2517 -1.2162
  203TIP3    H2  616   5.777   1.874   0.538  0.2568  1.3085 -0.1615
  204TIP3   OH2  617   3.918   3.008   3.918 -0.3398 -0.1766  0.5570
  204TIP3    H1  618   3.887   2.991   3.829  0.8090 -0.0563  0.1251
  204TIP3    H2  619   3.973   2.934   3.940  0.8907  0.6680  0.4413
  205TIP3   OH2  620   2.368   5.827   2.156 -0.2652  0.3831 -0.3672
  205TIP3    H1  621   2.446   5.881   2.172 -0.5070  1.2925 -1.9682
  205TIP3    H2  622   2.296   5.876   2.195 -0.1803  0.0211  0.2592
  206TIP3   OH2  623   1.061   5.281   1.370 -0.3628 -0.1322  0.3283
  206TIP3    H1  624   0.996   5.311   1.307  0.0521  0.8665  0.3496
  206TIP3    H2  625   1.141   5.329   1.347  0.2621 -1.0532  0.5371
  207TIP3   OH2  626   0.970   4.700   4.155 -0.1479  0.1442  0.0406
  207TIP3    H1  627   1.023   4.687   4.076  1.0348 -1.0943  0.9828
  207TIP3    H2  628   1.004   4.635   4.217 -0.7497  1.3647  1.7137
  208TIP3   OH2  629   6.089   0.881   3.206 -0.4998 -0.5542 -0.3279
  208TIP3    H1  630   6.125   0.797   3.177 -1.7560 -1.2402  0.0170
  208TIP3    H2  631   6.012   0.895   3.149 -0.8972 -0.1579  0.2965
  209TIP3   OH2  632   5.830   5.771   4.271 -0.3432  0.4208  0.2498
  209TIP3    H1  633   5.885   5.811   4.203 -1.4340  0.4069 -0.6756
  209TIP3    H2  634   5.795   5.692   4.229  0.0993 -0.3714  1.3323
  210TIP3   OH2  635   5.381   2.116   3.521  0.3616 -0.0851 -0.1508
  210TIP3    H1  636   5.426   2.112   3.437 -1.3460  3.0054 -1.3643
  210TIP3    H2  637   5.441   2.163   3.579  0.8587 -0.7505 -0.1190
  211TIP3   OH2  638   1.965   4.724   3.095  0.1772 -0.1401 -0.6098
  211TIP3    H1  639   1.944   4.681   3.012 -0.0962 -2.1978  0.4504
  211TIP3    H2  640   2.060   4.710   3.106  0.0320 -0.7979 -0.1133
  212TIP3   OH2  641   4.890   5.701   2.123  0.1172  0.3342  0.5208
  212TIP3    H1  642   4.981   5.727   2.135  0.1695  0.4554 -0.0991
  212TIP3    H2  643   4.842   5.783   2.109 -0.0042  0.2305  0.3223
  213TIP3   OH2  644   3.913   3.865   4.490 -0.5419  0.1081 -0.1131
  213TIP3    H1  645   3.877   3.885   4.403  0.1328  0.6564 -0.2803
  213TIP3    H2  646   3.970   3.790   4.476  0.2339  0.7216 -0.3245
  214TIP3   OH2  647   1.173   1.599   0.392 -0.0324 -1.0549 -0.0838
  214TIP3    H1  648   1.088   1.574   0.356 -0.2994  0.3197 -0.4690
  214TIP3    H2  649   1.152   1.654   0.467  0.4891  0.1077 -0.7594
  215TIP3   OH2  650   2.181   0.025   2.608  0.3926  0.7456 -0.2528
  215TIP3    H1  651   2.214   0.084   2.676  1.0367  0.2111 -0.0945
  215TIP3    H2  652   2.167  -0.058   2.653  1.1658  0.2847 -0.8430
  216TIP3   OH2  653   6.086   2.385   4.022 -0.3252  0.0455  0.2959
  216TIP3    H1  654   6.113   2.342   4.103  0.6285 -1.9157 -1.0001
  216TIP3    H2  655   6.162   2.378   3.964 -0.9327  1.5451 -0.7278
  217TIP3   OH2  656   2.601   3.051   3.999  0.1657  0.3930  0.3354
  217TIP3    H1  657   2.681   3.073   4.047 -0.3397 -0.2161  1.4847
  217TIP3    H2  658   2.530   3.086   4.052 -0.3956  0.0726 -0.1854
  218TIP3   OH2  659   4.125   2.546   3.235 -0.1880  0.3114 -0.3493
  218TIP3    H1  660   4.141   2.488   3.309 -0.7105  0.7655  0.1316
  218TIP3    H2  661   4.031   2.566   3.240 -0.1699  0.5699 -0.9670
  219TIP3   OH2  662   4.666   1.819   2.468  0.5533  0.6259  0.3921
  219TIP3    H1  663   4.578   1.791   2.492  0.7111 -0.5684 -0.2927
  219TIP3    H2  664   4.716   1.737   2.464  1.4487  1.1795 -0.1756
  220TIP3   OH2  665   3.958   5.070   4.712  0.0339  0.5530  0.0216
  220TIP3    H1  666   3.896   5.077   4.640 -2.7754 -3.7393  1.6385
  220TIP3    H2  667   4.039   5.037   4.671 -1.9279 -3.2244 -1.2487
  221TIP3   OH2  668   4.400   5.515   4.236 -0.3217 -0.6081 -0.3616
  221TIP3    H1  669   4.429   5.534   4.325 -1.5642 -0.4802  0.0359
  221TIP3    H2  670   4.329   5.451   4.247 -0.9903 -0.0326 -1.1954
  222TIP3   OH2  671   2.942   3.311   1.204  0.1763  0.0062  0.3039
  222TIP3    H1  672   2.914   3.244   1.141  0.9981 -1.4069  1.3659
  222TIP3    H2  673   2.861   3.342   1.244 -0.4507  1.5059 -1.9226
  223TIP3   OH2  674   2.824   3.476   2.952 -0.3969  0.2191  0.1045
  223TIP3    H1  675   2.829   3.555   2.899 -0.1210  1.4424  1.8466
  223TIP3    H2  676   2.887   3.491   3.023 -2.0523 -0.4787  1.8184
  224TIP3   OH2  677   3.712   1.308   1.840 -0.2415 -0.1544  0.4418
  224TIP3    H1  678   3.634   1.317   1.895 -1.1132  0.7434 -0.8767
  224TIP3    H2  679   3.726   1.214   1.833 -0.2894 -0.2912  1.9256
  225TIP3   OH2  680   1.640   4.747   2.700 -0.5776  0.2291  0.0282
  225TIP3    H1  681   1.619   4.791   2.618 -1.6875  1.9924  1.1789
  225TIP3    H2  682   1.719   4.792   2.732  0.3899 -1.0558 -0.4675
  226TIP3   OH2  683   1.140   1.671   2.690  0.0679  0.3183  0.4791
  226TIP3    H1  684   1.228   1.708   2.697  0.8979 -1.6912  1.7440
  226TIP3    H2  685   1.146   1.609   2.618 -0.1160 -0.2439  0.9369
  227TIP3   OH2  686   4.959   5.770   4.505  0.0432 -0.4177  0.3141
  227TIP3    H1  687   4.966   5.688   4.554  1.1638 -0.1962  0.5372
  227TIP3    H2  688   4.888   5.754   4.443  0.6708 -1.7936 -0.0876
  228TIP3   OH2  689   4.097   0.598   1.549 -0.3510  0.3013 -0.0166
  228TIP3    H1  690   4.188   0.566   1.552 -0.4935 -0.0424  0.8872
  228TIP3    H2  691   4.081   0.633   1.637 -2.1104 -2.5252  0.9396
  229TIP3   OH2  692   3.230   2.632   1.593 -0.8525  0.1609  0.5211
  229TIP3    H1  693   3.316   2.621   1.633 -0.5165 -1.2418 -0.5115
  229TIP3    H2  694   3.200   2.543   1.576 -1.5450  0.6792 -1.1454
  230TIP3   OH2  695   2.165   4.299   2.440  0.2120  0.7797 -0.1900
  230TIP3    H1  696   2.220   4.365   2.398 -0.4140  0.7537 -1.0705
  230TIP3    H2  697   2.184   4.308   2.534  0.4589  1.9140 -0.3344
  231TIP3   OH2  698   1.696   0.313   2.840  0.4039  0.2565 -0.3344
  231TIP3    H1  699   1.701   0.232   2.891 -2.6463 -0.7116 -1.3516
  231TIP3    H2  700   1.707   0.383   2.905 -0.2551 -0.9673  1.1614
  232TIP3   OH2  701   6.008   4.407   0.882  0.0556 -0.6829 -0.5541
  232TIP3    H1  702   6.013   4.479   0.945  1.6441  0.0188 -1.4252
  232TIP3    H2  703   6.058   4.336   0.921  1.2812 -0.1514 -1.0881
  233TIP3   OH2  704   2.693   5.662   4.261  0.3388 -0.3714  0.5339
  233TIP3    H1  705   2.682   5.682   4.354 -0.8047 -1.2120  0.6125
  233TIP3    H2  706   2.610   5.689   4.221  0.8778  0.1209 -0.2686
  234TIP3   OH2  707   4.040   5.875   0.991  0.7096 -0.5209  0.4244
  234TIP3    H1  708   4.001   5.963   0.982  1.4574 -0.2375 -0.1754
  234TIP3    H2  709   3.976   5.826   1.043 -1.2740 -0.5532 -1.8503
  235TIP3   OH2  710   3.608   2.381   1.380 -0.1859 -0.1772  0.2399
  235TIP3    H1  711   3.521   2.397   1.345  0.3728  2.2233 -0.1729
  235TIP3    H2  712   3.630   2.460   1.429  2.0254 -0.4341 -0.2372
  236TIP3   OH2  713   5.835   3.349   3.932 -0.3912  0.2823  0.5361
  236TIP3    H1  714   5.740   3.352   3.938 -0.6291 -1.7605 -1.2143
  236TIP3    H2  715   5.861   3.280   3.993 -0.3645 -1.3042 -1.1926
  237TIP3   OH2  716   1.666   5.599   5.011 -0.4021 -0.0781 -0.7980
  237TIP3    H1  717   1.684   5.601   5.105  1.2133  2.2114 -1.0775
  237TIP3    H2  718   1.617   5.680   4.994  0.0789 -0.0266 -2.0441
  238TIP3   OH2  719   5.448   2.855   3.898  0.0531 -0.0474  0.3995
  238TIP3    H1  720   5.376   2.799   3.868  0.8873 -0.5888 -0.6769
  238TIP3    H2  721   5.483   2.811   3.975 -0.3491 -0.1424  0.5278
  239TIP3   OH2  722   4.970   0.831   1.745 -0.5712  0.0547  0.6507
  239TIP3    H1  723   5.025   0.753   1.750 -0.5715  0.0507  0.6007
  239TIP3    H2  724   4.883   0.798   1.725 -0.1223  0.1810 -2.0043
  240TIP3   OH2  725   1.116   4.891   3.499  0.6213 -0.2681  0.1676
  240TIP3    H1  726   1.066   4.972   3.498 -1.4855 -1.4463  1.4526
  240TIP3    H2  727   1.161   4.889   3.415 -1.1682  1.0924 -0.8780
  241TIP3   OH2  728   4.727   5.235   2.450 -0.5716 -0.4493 -0.4812
  241TIP3    H1  729   4.785   5.162   2.471  1.4206  1.0514 -0.5678
  241TIP3    H2  730   4.749   5.259   2.360 -1.2356  0.2396 -0.4745
  242TIP3   OH2  731   6.318   1.095   4.782 -0.3256  0.0065 -0.7060
  242TIP3    H1  732   6.369   1.059   4.709  0.8411  0.6270 -0.2380
  242TIP3    H2  733   6.287   1.179   4.750  2.5596  1.6141  0.3661
  243TIP3   OH2  734   4.123   5.433   2.054 -0.2751 -0.0668 -0.4621
  243TIP3    H1  735   4.126   5.474   1.967 -2.0519 -1.0123 -1.0201
  243TIP3    H2  736   4.142   5.504   2.115 -0.8719  1.0466 -1.5284
  244TIP3   OH2  737   1.760   4.326   3.477 -0.0751  0.0151  0.2547
  244TIP3    H1  738   1.812   4.334   3.556 -2.9214 -1.3690  2.4453
  244TIP3    H2  739   1.795   4.394   3.418  1.5192  1.8017  3.0334
  245TIP3   OH2  740   4.169   2.167   4.532  0.2582  0.2830 -0.5871
  245TIP3    H1  741   4.137   2.236   4.474  2.2379  1.1977 -0.6962
  245TIP3    H2  742   4.162   2.205   4.620 -0.9470 -0.3564 -0.3950
  246TIP3   OH2  743   4.028   2.131   1.540 -0.0746  0.6668  0.3026
  246TIP3    H1  744   3.938   2.159   1.558 -0.1702  1.1986 -0.8830
  246TIP3    H2  745   4.073   2.210   1.511  0.4639  0.1785 -0.2321
  247TIP3   OH2  746   3.243   6.000   4.390 -0.3068  0.6505 -0.2446
  247TIP3    H1  747   3.237   6.007   4.485 -1.7311  1.2000 -0.3568
  247TIP3    H2  748   3.257   5.907   4.374  1.1269  0.7004  0.5272
  248TIP3   OH2  749   1.916   2.793   4.105 -0.0213 -0.4356 -0.3562
  248TIP3    H1  750   1.989   2.821   4.160 -0.9449 -0.5670  1.0072
  248TIP3    H2  751   1.839   2.835   4.144 -0.8227 -1.2248 -1.0421
  249TIP3   OH2  752   0.796   2.316   2.590 -0.3085  0.8710 -0.2457
  249TIP3    H1  753   0.827   2.342   2.677 -1.9215 -0.2067  0.7045
  249TIP3    H2  754   0.706   2.347   2.587 -1.0977 -1.3404 -0.5108
  250TIP3   OH2  755   0.264   3.002   1.139  0.0818  0.7725 -0.6331
  250TIP3    H1  756   0.335   2.938   1.136 -0.9480 -0.3658 -2.4013
  250TIP3    H2  757   0.239   3.015   1.048 -1.4871  1.7308 -0.1130
  251TIP3   OH2  758   3.760   3.311   1.127  0.0009  0.0730 -0.3035
  251TIP3    H1  759   3.843   3.342   1.162 -1.0441 -0.2141  2.7324
  251TIP3    H2  760   3.758   3.218   1.149 -0.7394 -0.1325 -1.1739
  252TIP3   OH2  761   3.470   4.116   0.269 -0.9129  0.3095  1.2314
  252TIP3    H1  762   3.441   4.030   0.239 -2.0273  0.3683  2.0750
  252TIP3    H2  763   3.529   4.098   0.341  0.0853  0.2291  0.4188
  253TIP3   OH2  764   6.248   5.801   1.946 -0.3031 -0.2800  0.1147
  253TIP3    H1  765   6.237   5.726   2.004  0.2581 -1.0993 -0.7997
  253TIP3    H2  766   6.303   5.862   1.995 -1.3179 -0.1481  1.1310
  254TIP3   OH2  767   4.962   0.773   2.560  0.1034  0.2013  0.2106
  254TIP3    H1  768   4.979   0.679   2.570  2.3178  0.6293  1.1668
  254TIP3    H2  769   4.921   0.799   2.643  1.2585  0.3878  0.7450
  255TIP3   OH2  770   0.914   5.947   3.014 -0.2723 -0.0579 -0.2059
  255TIP3    H1  771   0.903   5.852   3.009 -0.4663 -0.0390 -0.1660
  255TIP3    H2  772   0.998   5.960   3.057 -1.3326 -0.2156  2.0547
  256TIP3   OH2  773   2.237   3.049   3.602 -0.5143  0.5756 -0.1351
  256TIP3    H1  774   2.286   3.101   3.666 -0.8689 -0.6055  1.1433
  256TIP3    H2  775   2.204   3.114   3.540  1.4538  1.5531 -0.2538
  257TIP3   OH2  776   0.984   3.411   5.054  0.3891 -0.0793 -0.0127
  257TIP3    H1  777   1.020   3.338   5.103  2.1215  0.4651 -0.4060
  257TIP3    H2  778   0.998   3.487   5.111 -0.4925  0.1060 -0.0248
  258TIP3   OH2  779   5.426   1.407   0.511  0.6368  0.0616  0.2491
  258TIP3    H1  780   5.466   1.480   0.464  1.1063 -1.0689 -1.1946
  258TIP3    H2  781   5.338   1.399   0.473  0.4866  0.0477  0.5987
  259TIP3   OH2  782   2.221   2.652   3.121  0.2243  0.2635 -0.1431
  259TIP3    H1  783   2.167   2.613   3.052  1.6704 -1.0590 -0.5914
  259TIP3    H2  784   2.194   2.744   3.123 -1.3786 -0.1537 -0.9588
  260TIP3   OH2  785   5.972   3.245   4.147  0.0636 -0.0445 -0.1484
  260TIP3    H1  786   5.999   3.336   4.160  1.4923 -0.7377  2.4186
  260TIP3    H2  787   5.907   3.229   4.216  1.0289 -1.3961  0.4978
  261TIP3   OH2  788   1.751   5.161   4.276 -0.0614  0.1914 -0.1525
  261TIP3    H1  789   1.820   5.225   4.261  0.2784  0.0037  0.5545
  261TIP3    H2  790   1.690   5.174   4.204 -1.2358  2.9156  1.1845
  262TIP3   OH2  791   5.620   0.996   1.991  0.3907  0.1316  0.1642
  262TIP3    H1  792   5.526   0.979   1.997  0.3567 -0.1313 -0.8574
  262TIP3    H2  793   5.659   0.947   2.064 -0.0880 -1.2980 -0.5104
  263TIP3   OH2  794   3.100   2.091   4.291  0.0111 -0.3309  0.5584
  263TIP3    H1  795   3.025   2.150   4.296  1.2825  1.7150 -1.9089
  263TIP3    H2  796   3.063   2.003   4.295 -2.3989  0.6112  0.4550
  264TIP3   OH2  797   0.154   1.698   3.398 -0.2073 -0.0961 -0.3156
  264TIP3    H1  798   0.067   1.658   3.398 -0.1251 -0.2755 -0.2388
  264TIP3    H2  799   0.139   1.788   3.428  0.0242 -0.9884  2.9202
  265TIP3   OH2  800   4.829   3.112   4.531 -0.4571  0.8254  0.2880
  265TIP3    H1  801   4.850   3.044   4.595  0.5164 -0.5419 -1.3993
  265TIP3    H2  802   4.863   3.192   4.570  0.2477  0.0108  1.4191
  266TIP3   OH2  803   0.009   1.516   2.531  0.2695 -0.4080 -0.1571
  266TIP3    H1  804  -0.001   1.577   2.457  1.9276  0.8768  0.6119
  266TIP3    H2  805   0.088   1.545   2.575 -1.1369 -0.5437  2.6698
  267TIP3   OH2  806   3.530   2.220   4.002 -0.6191  0.4763  0.4789
  267TIP3    H1  807   3.585   2.178   4.068 -3.6596  0.7921  3.4996
  267TIP3    H2  808   3.552   2.313   4.009  3.0430  0.1952 -3.2072
  268TIP3   OH2  809   2.900   5.529   0.486 -0.1331  0.4844  0.2693
  268TIP3    H1  810   2.895   5.503   0.579  0.2648 -0.0299  0.1570
  268TIP3    H2  811   2.812   5.558   0.464 -0.4199 -0.0980  0.6118
  269TIP3   OH2  812   2.690   2.981   3.394 -0.2327  0.1067 -0.2882
  269TIP3    H1  813   2.635   3.046   3.350 -2.1576 -2.2087 -1.5488
  269TIP3    H2  814   2.749   2.950   3.325 -1.0685 -1.2664 -0.4000
  270TIP3   OH2  815   2.627   1.822   1.937  0.1398 -0.5302  0.1758
  270TIP3    H1  816   2.585   1.798   1.854  1.2050 -1.1685 -0.2070
  270TIP3    H2  817   2.713   1.779   1.933  0.6996  0.4619  1.0635
  271TIP3   OH2  818   1.940   3.698  -0.013  0.1689  0.4749  0.2637
  271TIP3    H1  819   1.964   3.616   0.031  0.8759  0.6651  0.2421
  271TIP3    H2  820   1.910   3.755   0.058  0.1199  0.3576  0.3379
  272TIP3   OH2  821   5.469   4.516   3.547  0.3329 -0.1196  0.2218
  272TIP3    H1  822   5.429   4.448   3.601  1.2468 -0.2998  0.6964
  272TIP3    H2  823   5.540   4.551   3.601  0.0573  1.0260 -0.1238
  273TIP3   OH2  824   0.740   3.329   1.958 -0.7857 -0.1941 -0.3845
  273TIP3    H1  825   0.776   3.248   1.993  0.7536  0.4527 -0.3906
  273TIP3    H2  826   0.764   3.329   1.865 -0.1471  0.5668 -0.2368
  274TIP3   OH2  827   5.772   0.921   0.870  0.1752 -0.0887  0.1822
  274TIP3    H1  828   5.776   0.969   0.788  0.5853  0.7244  0.6669
  274TIP3    H2  829   5.681   0.932   0.899  0.1765  0.1075  0.1174
  275TIP3   OH2  830   0.255   3.724   4.280 -0.3950  0.3533 -0.1391
  275TIP3    H1  831   0.327   3.671   4.247  0.4412  1.1794  0.2966
  275TIP3    H2  832   0.234   3.685   4.365 -0.1602  0.3575 -0.0758
  276TIP3   OH2  833   2.047   0.943   0.394 -0.3096  0.4720 -0.4950
  276TIP3    H1  834   2.126   0.915   0.440 -0.9956 -2.3964 -0.8495
  276TIP3    H2  835   2.069   0.935   0.301 -1.8698 -3.8077 -0.7105
  277TIP3   OH2  836   4.179   0.739   4.973 -0.0113 -0.1259  0.3029
  277TIP3    H1  837   4.100   0.685   4.963  0.5853 -0.8765 -0.6076
  277TIP3    H2  838   4.251   0.676   4.971  0.6845  0.6602 -0.3686
  278TIP3   OH2  839   0.114   5.536   0.236  0.2931 -0.3484 -1.0150
  278TIP3    H1  840   0.114   5.619   0.188  0.0318 -0.3994 -1.1011
  278TIP3    H2  841   0.114   5.562   0.328  0.6407 -0.2514 -1.0401
  279TIP3   OH2  842   0.825   5.495   4.763 -0.3769  0.2905 -0.4894
  279TIP3    H1  843   0.901   5.548   4.786  0.2192 -0.8212  0.1854
  279TIP3    H2  844   0.776   5.549   4.701  0.6631  1.2549 -0.5023
  280TIP3   OH2  845   1.506   4.686   3.874 -0.1692  0.5299 -0.1352
  280TIP3    H1  846   1.432   4.686   3.814 -1.2129  0.6485  1.1272
  280TIP3    H2  847   1.519   4.778   3.896 -0.5348  0.3865  0.7040
  281TIP3   OH2  848   3.734   2.402   0.302  0.7761  0.2185  0.4936
  281TIP3    H1  849   3.698   2.379   0.387  0.3202 -0.1131  0.2207
  281TIP3    H2  850   3.821   2.362   0.301  1.4473  1.5936  1.4167
  282TIP3   OH2  851   5.333   3.419   4.681  0.0975 -0.1769 -0.4316
  282TIP3    H1  852   5.381   3.452   4.757  0.5006 -0.4468 -0.5639
  282TIP3    H2  853   5.275   3.491   4.656 -0.7322 -0.4273  0.7101
  283TIP3   OH2  854   2.740   3.563   0.393  0.5336 -0.4114 -0.0133
  283TIP3    H1  855   2.728   3.627   0.323  3.0310  0.8427  0.5670
  283TIP3    H2  856   2.709   3.609   0.472 -0.7418 -1.1935 -0.0476
  284TIP3   OH2  857   6.249   5.900   0.970  0.1718 -0.1973  0.0803
  284TIP3    H1  858   6.299   5.845   0.910  1.0324  2.2068 -1.5423
  284TIP3    H2  859   6.162   5.861   0.971  1.4898 -3.4358  1.5847
  285TIP3   OH2  860   4.063   4.449   3.258 -0.1573  0.1264 -1.0328
  285TIP3    H1  861   4.023   4.506   3.192  0.4624  0.6486 -0.9714
  285TIP3    H2  862   4.086   4.369   3.211  1.4710  0.9828 -1.7972
  286TIP3   OH2  863   2.247   1.622   5.177  0.1104  0.0257  0.2923
  286TIP3    H1  864   2.266   1.662   5.093  1.6987 -0.8067  0.2012
  286TIP3    H2  865   2.176   1.561   5.160 -0.8913  1.2487 -0.0072
  287TIP3   OH2  866   3.513   1.532   1.462  0.2107 -0.0246 -0.5015
  287TIP3    H1  867   3.442   1.593   1.485 -0.0786 -0.4735 -0.1833
  287TIP3    H2  868   3.523   1.542   1.367 -1.3509 -1.0720 -0.8198
  288TIP3   OH2  869   1.177   0.878   2.149 -0.4692 -0.6848  0.1285
  288TIP3    H1  870   1.153   0.787   2.168 -0.6195 -0.5808  0.4518
  288TIP3    H2  871   1.150   0.891   2.058  0.0775 -1.1335 -0.1078
  289TIP3   OH2  872   3.406   0.172   0.883 -0.1817  0.6661 -0.3519
  289TIP3    H1  873   3.475   0.173   0.949 -0.7506  0.1769  0.2576
  289TIP3    H2  874   3.355   0.093   0.902 -1.9721  1.9253  0.3034
  290TIP3   OH2  875   2.747   2.242   1.562  0.0106  0.0202  0.3704
  290TIP3    H1  876   2.726   2.149   1.571  2.6151 -0.5912  1.0088
  290TIP3    H2  877   2.664   2.287   1.578 -1.0432 -2.1292  1.4182
  291TIP3   OH2  878   4.626   3.165   0.976 -0.0457 -0.0257 -0.1180
  291TIP3    H1  879   4.534   3.140   0.975 -0.1928  0.3385  1.2282
  291TIP3    H2  880   4.640   3.197   1.065  1.3617  0.0105 -0.3345
  292TIP3   OH2  881   2.992   4.717   1.293 -0.3939  0.2911  0.6808
  292TIP3    H1  882   2.954   4.790   1.244 -1.5425 -1.0638 -0.5264
  292TIP3    H2  883   3.084   4.741   1.302 -0.6326  1.6509 -0.1273
  293TIP3   OH2  884   1.315   2.593   3.918 -0.2317  0.2351 -0.1327
  293TIP3    H1  885   1.265   2.578   3.838 -1.8270 -1.4006  1.0895
  293TIP3    H2  886   1.253   2.634   3.978 -0.5010 -2.6187  1.7050
  294TIP3   OH2  887   0.954   0.323   0.556 -0.0128 -0.3553 -0.0286
  294TIP3    H1  888   0.874   0.326   0.609  0.4499 -1.3946  0.7656
  294TIP3    H2  889   1.024   0.306   0.619  0.7985  0.1740 -0.7595
  295TIP3   OH2  890   5.011   0.376   4.891 -0.4511 -0.2613  0.4344
  295TIP3    H1  891   4.998   0.288   4.926  1.4527 -0.7849 -0.0635
  295TIP3    H2  892   5.087   0.368   4.833  0.6073  1.9714  1.3892
  296TIP3   OH2  893   3.827   2.088   4.762  0.0620 -0.8622 -0.0881
  296TIP3    H1  894   3.835   2.161   4.824  1.2293 -0.8604 -0.2111
  296TIP3    H2  895   3.735   2.086   4.739 -0.1559 -0.0207  0.6470
  297TIP3   OH2  896   1.986   3.877   1.471 -0.3271 -0.7246 -0.5146
  297TIP3    H1  897   1.918   3.944   1.475 -1.5251 -1.9433  0.9394
  297TIP3    H2  898   2.067   3.924   1.492 -1.1201  0.2672  0.4440
  298TIP3   OH2  899   0.434   3.607   1.403 -0.0225  0.4544 -0.6004
  298TIP3    H1  900   0.495   3.547   1.360 -0.2531  0.7674 -1.3713
  298TIP3    H2  901   0.428   3.574   1.493 -0.1695 -0.7020 -1.0146
  299TIP3   OH2  902   5.054   2.080   0.478  0.0104 -0.0910  0.6268
  299TIP3    H1  903   4.993   2.152   0.460  0.3910  0.1131  0.1324
  299TIP3    H2  904   5.134   2.123   0.509  0.5330 -0.2366 -0.4743
  300TIP3   OH2  905   0.066   2.970   1.357  0.5896 -0.1717  0.0873
  300TIP3    H1  906   0.040   3.061   1.373  2.0633  0.5491 -1.3602
  300TIP3    H2  907   0.132   2.975   1.289  0.3077 -2.4034 -0.4399
  301TIP3   OH2  908   6.351   4.494   1.198  0.3667  0.1238  0.6108
  301TIP3    H1  909   6.378   4.418   1.146  0.2012 -0.5071  1.4263
  301TIP3    H2  910   6.256   4.495   1.191  0.4416  1.0941 -0.5321
  302TIP3   OH2  911   0.141   3.762   0.576  0.5824 -0.4589  0.1603
  302TIP3    H1  912   0.174   3.814   0.650 -0.0759  0.4254 -0.1473
  302TIP3    H2  913   0.138   3.672   0.608  1.1477 -0.2164  0.9156
  303TIP3   OH2  914   3.466   5.689   3.838 -0.3658  0.2308  0.1517
  303TIP3    H1  915   3.504   5.730   3.760 -0.3603 -0.9845 -0.5186
  303TIP3    H2  916   3.433   5.605   3.806  1.3502 -1.1647  1.8388
  304TIP3   OH2  917   3.046   1.408   1.066  0.3029  1.0198 -0.2637
  304TIP3    H1  918   3.127   1.423   1.114  0.3065  0.5368 -0.1116
  304TIP3    H2  919   3.052   1.317   1.035  1.4995  2.0714 -3.5269
  305TIP3   OH2  920   2.621   1.490   2.250  1.0122 -0.0647 -0.0860
  305TIP3    H1  921   2.614   1.433   2.327  0.0239 -1.2666 -1.0129
  305TIP3    H2  922   2.541   1.473   2.201  1.1836  1.4037 -0.9115
  306TIP3   OH2  923   3.787   4.405   3.540  0.0399 -0.8306  0.4203
  306TIP3    H1  924   3.709   4.455   3.515  0.5349  0.5687  1.5445
  306TIP3    H2  925   3.760   4.356   3.618  0.6030  0.6575  1.5964
  307TIP3   OH2  926   0.827   0.044   4.275  0.2037  0.3263 -0.9095
  307TIP3    H1  927   0.901   0.025   4.217  0.3517  0.7761 -0.8664
  307TIP3    H2  928   0.866   0.090   4.350 -0.0643  0.2217 -0.7029
  308TIP3   OH2  929   2.495   5.593   2.077 -0.1042 -0.0645  0.0361
  308TIP3    H1  930   2.534   5.584   1.990 -0.2870 -2.5457  0.1507
  308TIP3    H2  931   2.441   5.672   2.071  1.1843  0.7544 -1.5637
  309TIP3   OH2  932   5.150   5.258   4.303 -0.0007 -0.6553 -0.2238
  309TIP3    H1  933   5.223   5.208   4.265  0.3923 -1.4205  1.4351
  309TIP3    H2  934   5.157   5.242   4.397 -0.7436  1.4095  0.2207
  310TIP3   OH2  935   5.268   3.060   3.650 -0.8448  0.2799 -0.6891
  310TIP3    H1  936   5.311   2.993   3.597  1.5294  0.8174  0.4157
  310TIP3    H2  937   5.303   3.143   3.616 -0.6198  0.7122  0.5545
  311TIP3   OH2  938   2.391   6.006   0.650  0.1111 -0.1063  0.1976
  311TIP3    H1  939   2.456   5.991   0.719 -0.6734 -2.0384  0.5843
  311TIP3    H2  940   2.361   5.918   0.627 -1.4635  0.6773 -0.8434
  312TIP3   OH2  941   1.506   0.541   2.905  0.3019  0.5762  0.1831
  312TIP3    H1  942   1.433   0.482   2.886  0.4579  0.4309  0.0334
  312TIP3    H2  943   1.528   0.579   2.820  0.6475  0.3336  0.1628
  313TIP3   OH2  944   3.094   4.925   2.422 -0.4188 -0.3423 -0.1146
  313TIP3    H1  945   3.131   4.852   2.472  1.9623  0.5848 -0.4170
  313TIP3    H2  946   3.152   4.934   2.346 -0.7734  1.7421 -0.1876
  314TIP3   OH2  947   2.538   1.790   3.361 -0.5605  0.3595 -0.2870
  314TIP3    H1  948   2.518   1.777   3.454  3.7612  0.0835  0.8463
  314TIP3    H2  949   2.597   1.718   3.339  0.6242  1.8708 -2.4157
  315TIP3   OH2  950   0.956   3.455   2.685  0.7879 -0.7089  0.0634
  315TIP3    H1  951   0.961   3.545   2.653 -1.7976 -0.4818  0.0982
  315TIP3    H2  952   1.023   3.408   2.634 -0.7803  0.3497 -3.2320
  316TIP3   OH2  953   4.256   3.491   4.313  0.1961  0.2024  0.2296
  316TIP3    H1  954   4.246   3.400   4.342  0.6876  0.0044 -0.2015
  316TIP3    H2  955   4.253   3.486   4.218 -0.6192  0.7473  0.2258
  317TIP3   OH2  956   2.507   3.265   1.461 -0.4320 -0.4660  0.0215
  317TIP3    H1  957   2.509   3.175   1.427  0.3164 -0.5265  0.2101
  317TIP3    H2  958   2.415   3.291   1.455 -0.9462 -1.8152  1.4447
  318TIP3   OH2  959   1.247   1.378   1.912  0.4544 -0.0933  0.0304
  318TIP3    H1  960   1.274   1.369   2.003  0.0818  1.4961  0.3261
  318TIP3    H2  961   1.299   1.452   1.879 -1.9484  1.7185  0.0429
  319TIP3   OH2  962   0.903   3.080   3.718  0.1252 -0.2897 -0.1160
  319TIP3    H1  963   0.987   3.051   3.682 -0.1781 -0.7223 -0.4900
  319TIP3    H2  964   0.891   3.026   3.796  0.7907  0.6599  0.6725
  320TIP3   OH2  965   3.762   3.026   0.934  0.0786 -0.1505  0.7207
  320TIP3    H1  966   3.801   3.040   1.020  1.3002 -0.5559  0.2552
  320TIP3    H2  967   3.833   3.041   0.872  0.1302 -2.9405 -0.0700
  321TIP3   OH2  968   6.358   2.807   1.563  0.3750  0.7925 -0.2922
  321TIP3    H1  969   6.266   2.785   1.553  0.0185  0.5241  2.7666
  321TIP3    H2  970   6.376   2.868   1.491 -2.2335  1.0332 -0.8268
  322TIP3   OH2  971   2.220   1.739   4.361  0.1224  0.0505 -0.2404
  322TIP3    H1  972   2.201   1.821   4.314 -2.2848  0.5517  1.4256
  322TIP3    H2  973   2.300   1.707   4.320 -0.2181  1.9327 -2.6626
  323TIP3   OH2  974   2.585   2.659   1.035  0.5492 -0.1210 -0.1520
  323TIP3    H1  975   2.519   2.633   1.099  0.3398 -1.9926 -1.0662
  323TIP3    H2  976   2.575   2.755   1.028 -1.8630 -0.2922 -0.0228
  324TIP3   OH2  977   1.076   2.108   2.750  0.2392  0.0398 -0.5088
  324TIP3    H1  978   1.028   2.153   2.820 -0.8894  1.1649 -1.9357
  324TIP3    H2  979   1.028   2.026   2.737  0.2614 -0.0277 -0.1592
  325TIP3   OH2  980   1.534   5.420   1.400  0.2037  0.2335  0.0795
  325TIP3    H1  981   1.529   5.491   1.464 -0.6987  0.5241 -0.2908
  325TIP3    H2  982   1.443   5.407   1.372  0.3537 -1.0681  0.1339
  326TIP3   OH2  983   4.059   1.815   1.044  0.1873 -0.6036 -0.1270
  326TIP3    H1  984   4.106   1.899   1.037 -0.3738 -0.3738 -1.3735
  326TIP3    H2  985   4.111   1.764   1.105 -0.9324  1.6505  3.0001
  327TIP3   OH2  986   4.880   4.863   5.010  0.2925  0.1832  0.4130
  327TIP3    H1  987   4.975   4.875   5.019  0.2141  1.6226 -0.2818
  327TIP3    H2  988   4.867   4.851   4.916 -0.2731  0.8292  0.3969
  328TIP3   OH2  989   3.091   0.093   1.814 -0.3160  0.4339  0.1357
  328TIP3    H1  990   2.997   0.084   1.831 -0.6508  1.7334 -0.8440
  328TIP3    H2  991   3.101   0.184   1.786  1.4422  0.6729  1.3962
  329TIP3   OH2  992   0.181   0.238   1.638 -0.5400  0.3352  0.1936
  329TIP3    H1  993   0.174   0.317   1.691 -1.7391 -0.4586  1.2720
  329TIP3    H2  994   0.222   0.174   1.696 -1.0805 -0.3036 -0.1195
  330TIP3   OH2  995   1.860   4.106   0.575 -0.1426 -0.3253  0.2340
  330TIP3    H1  996   1.921   4.033   0.586 -1.5959 -1.9800 -1.8302
  330TIP3    H2  997   1.793   4.092   0.642 -0.4545 -1.0053 -0.1980
  331TIP3   OH2  998   0.287   2.287   4.687 -0.1876  0.1210  0.2309
  331TIP3    H1  999   0.314   2.273   4.596  0.3888  0.1633  0.3942
  331TIP3    H2 1000   0.200   2.248   4.692  1.5226 -4.2570  0.8472
  332TIP3   OH2 1001   2.168   0.049   2.296  0.0656  0.1424  0.0884
  332TIP3    H1 1002   2.208   0.054   2.383  0.3773  1.0004 -0.0958
  332TIP3    H2 1003   2.142   0.139   2.277  0.8560  0.1332 -1.1072
  333TIP3   OH2 1004   4.158   0.628   0.429 -0.1767 -0.5322 -0.4942
  333TIP3    H1 1005   4.092   0.686   0.392 -0.2253 -1.2550 -1.5855
  333TIP3    H2 1006   4.113   0.580   0.497 -0.8241 -1.1057 -1.3132
  334TIP3   OH2 1007   5.642  -0.024   4.568 -0.0950 -0.2807  0.0130
  334TIP3    H1 1008   5.716   0.006   4.621 -0.3344 -0.6188  0.5480
  334TIP3    H2 1009   5.573   0.039   4.586 -0.6889 -1.2708  1.3551
  335TIP3   OH2 1010   0.879   4.536   2.458  0.1284 -0.1565  0.1166
  335TIP3    H1 1011   0.808   4.543   2.393  1.4237 -0.0027 -1.3373
  335TIP3    H2 1012   0.876   4.620   2.505 -1.6180 -0.7455  1.1807
  336TIP3   OH2 1013   4.943   4.391   1.571  0.2878 -0.4681 -0.1371
  336TIP3    H1 1014   4.920   4.432   1.654 -0.5614 -0.4855 -0.3581
  336TIP3    H2 1015   5.009   4.450   1.534 -1.0432  0.8410 -0.5341
  337TIP3   OH2 1016   1.209   3.146   4.225 -0.3065  0.4862 -0.2029
  337TIP3    H1 1017   1.209   3.102   4.310 -1.9436 -0.4848 -0.6644
  337TIP3    H2 1018   1.146   3.217   4.235  0.9427  1.6101 -0.0411
  338TIP3   OH2 1019   1.933   3.604   4.794  0.4834  0.1611 -0.0704
  338TIP3    H1 1020   1.908   3.512   4.799 -0.7218  0.5462  2.1311
  338TIP3    H2 1021   1.853   3.652   4.816  1.2551  1.7233 -0.5064
  339TIP3   OH2 1022   4.062   2.953   2.281 -0.0546  0.7451 -0.1543
  339TIP3    H1 1023   4.085   2.861   2.272 -2.7773  0.0329 -0.7234
  339TIP3    H2 1024   4.129   3.000   2.231  2.9123 -0.6094  2.2401
  340TIP3   OH2 1025   2.531   0.765   2.870  0.7217 -0.3518 -0.1066
  340TIP3    H1 1026   2.554   0.814   2.791 -1.6032  0.4702 -0.3247
  340TIP3    H2 1027   2.444   0.729   2.852  1.6372 -3.2789  0.6830
  341TIP3   OH2 1028   0.389   4.347   1.453  0.0232 -0.0640 -0.4721
  341TIP3    H1 1029   0.471   4.370   1.495 -1.4396  0.1992  2.4889
  341TIP3    H2 1030   0.343   4.430   1.443  0.0775 -0.1912 -2.2081
  342TIP3   OH2 1031   3.541   3.497   1.913 -0.2054 -0.2617  0.7081
  342TIP3    H1 1032   3.617   3.440   1.898  0.1968  0.6526 -1.0454
  342TIP3    H2 1033   3.547   3.520   2.006  2.8333  1.3486  0.2502
  343TIP3   OH2 1034   5.227   1.574   2.996  0.0256 -0.2047 -0.0613
  343TIP3    H1 1035   5.218   1.528   2.913 -1.7372 -0.1529  0.0592
  343TIP3    H2 1036   5.163   1.645   2.991 -0.6800 -0.6704  1.6201
  344TIP3   OH2 1037   1.328   4.684   3.657  0.1309 -0.8577  0.2066
  344TIP3    H1 1038   1.344   4.620   3.588  1.4637  0.7973 -1.0715
  344TIP3    H2 1039   1.247   4.728   3.631 -0.1273 -1.1834  0.4501
  345TIP3   OH2 1040   2.964   5.907   4.430 -0.2174  0.1400 -0.4114
  345TIP3    H1 1041   2.905   5.980   4.449  0.5239  0.7722 -0.4936
  345TIP3    H2 1042   2.958   5.896   4.335  1.3060  1.5636 -0.7314
  346TIP3   OH2 1043   1.550   2.729   3.792 -0.1175 -0.6662 -0.3345
  346TIP3    H1 1044   1.473   2.675   3.809  1.2375 -2.5527  0.2912
  346TIP3    H2 1045   1.564   2.777   3.874 -0.9952  0.2050 -0.6865
  347TIP3   OH2 1046   5.451   3.176   4.821 -0.3028 -0.0546 -0.1650
  347TIP3    H1 1047   5.538   3.147   4.850  0.0484 -0.6075 -1.6705
  347TIP3    H2 1048   5.420   3.233   4.891  0.3212 -1.6275  1.4404
  348TIP3   OH2 1049   3.415   0.026   1.221  0.3271  0.9398 -0.8548
  348TIP3    H1 1050   3.454  -0.042   1.276  2.3922  1.5989 -1.4102
  348TIP3    H2 1051   3.440   0.108   1.263 -0.9511  1.4098 -0.9574
  349TIP3   OH2 1052   2.615   5.015   0.889 -0.1386  0.6298 -0.0951
  349TIP3    H1 1053   2.549   4.952   0.860  0.6991 -0.1592 -0.3345
  349TIP3    H2 1054   2.670   4.966   0.949 -0.8613  1.8021  1.6114
  350TIP3   OH2 1055   3.858   2.278   3.116  0.0125  0.5403  0.0918
  350TIP3    H1 1056   3.827   2.214   3.051  0.5723  2.1285 -1.8065
  350TIP3    H2 1057   3.811   2.358   3.095  2.0903  1.7956 -0.0440
  351TIP3   OH2 1058   3.628   1.728   1.643 -0.2750 -0.7013  0.2481
  351TIP3    H1 1059   3.678   1.647   1.645 -0.6086 -0.9301 -0.4794
  351TIP3    H2 1060   3.593   1.733   1.554 -1.4774 -0.5052  0.7115
  352TIP3   OH2 1061   1.189   0.505   3.061  0.3618  0.1368 -0.0859
  352TIP3    H1 1062   1.186   0.486   2.967 -0.7402  1.5399 -0.3629
  352TIP3    H2 1063   1.200   0.419   3.102 -0.0355 -0.6015 -1.4573
  353TIP3   OH2 1064   4.743   5.729   5.134  0.0710  0.4849  0.1651
  353TIP3    H1 1065   4.729   5.645   5.091  2.3839  0.2216 -0.2126
  353TIP3    H2 1066   4.742   5.793   5.063  0.6763  0.4556  0.1221
  354TIP3   OH2 1067   1.157   2.353   2.078  0.3569 -0.1762 -0.0549
  354TIP3    H1 1068   1.204   2.371   1.997  1.2863 -0.2318  0.4561
  354TIP3    H2 1069   1.226   2.335   2.142 -0.3872 -1.3379  0.4626
  355TIP3   OH2 1070   4.014   3.783   3.394  0.1966  0.3597 -0.1963
  355TIP3    H1 1071   3.930   3.826   3.377  0.0910 -0.1724 -1.1117
  355TIP3    H2 1072   4.061   3.790   3.310  0.2359 -1.1599 -0.3212
  356TIP3   OH2 1073   2.108   5.058   2.628 -0.8445 -0.6985 -0.3724
  356TIP3    H1 1074   2.191   5.076   2.672 -0.5529 -3.0740  0.1891
  356TIP3    H2 1075   2.127   5.074   2.535 -0.1863  0.1141 -0.1124
  357TIP3   OH2 1076   3.750   1.289   4.173 -0.2631 -0.6681 -0.0508
  357TIP3    H1 1077   3.685   1.234   4.216 -1.3489 -0.0917 -0.9096
  357TIP3    H2 1078   3.776   1.353   4.240  0.4929 -1.7419  0.7309
  358TIP3   OH2 1079   1.982   1.382   4.141 -0.7250 -0.0117 -0.1316
  358TIP3    H1 1080   1.920   1.310   4.152 -1.3099  0.6325  1.0358
  358TIP3    H2 1081   2.006   1.380   4.048 -1.2304 -1.2853 -0.2550
  359TIP3   OH2 1082   1.043   2.691   4.356 -0.7392 -0.4832 -0.5011
  359TIP3    H1 1083   1.069   2.600   4.370 -1.6878 -0.8906 -1.2166
  359TIP3    H2 1084   0.958   2.698   4.400 -0.7103  0.0300 -0.5218
  360TIP3   OH2 1085   2.944   1.925   0.709 -0.1468 -0.4046 -0.1277
  360TIP3    H1 1086   2.953   1.893   0.620 -1.8048 -0.1072 -0.4449
  360TIP3    H2 1087   2.881   1.997   0.702  1.1007  0.8515  1.0188
  361TIP3   OH2 1088   4.170   5.078   2.589  0.3614  0.7870  0.1164
  361TIP3    H1 1089   4.168   5.063   2.683  0.7804  0.2353  0.0402
  361TIP3    H2 1090   4.262   5.070   2.564  0.0523 -0.8785 -0.6129
  362TIP3   OH2 1091   0.408   2.853   2.754  0.5234  0.0541 -0.1955
  362TIP3    H1 1092   0.403   2.848   2.849 -0.4856 -0.0700 -0.2460
  362TIP3    H2 1093   0.388   2.764   2.724  1.5618 -0.0821 -0.5023
  363TIP3   OH2 1094   5.760   4.230   1.538  0.1559 -0.5386  0.3874
  363TIP3    H1 1095   5.697   4.295   1.568  2.1630  1.7197  0.0899
  363TIP3    H2 1096   5.766   4.167   1.611 -0.8337  0.3990  1.3171
  364TIP3   OH2 1097   0.998   5.698   3.143 -0.3581  0.5370  0.4862
  364TIP3    H1 1098   1.035   5.730   3.226 -1.7157 -1.4595  1.9618
  364TIP3    H2 1099   1.010   5.603   3.146 -0.3889  0.4247 -1.6693
  365TIP3   OH2 1100   1.759   1.001   4.448 -0.1213  0.3124  0.0896
  365TIP3    H1 1101   1.819   1.054   4.395  0.0522  1.8833  1.7494
  365TIP3    H2 1102   1.775   1.030   4.538 -2.7282  0.1702  0.6865
  366TIP3   OH2 1103   2.343   1.995   4.988 -0.2624  0.3551  0.1091
  366TIP3    H1 1104   2.261   1.954   4.961 -0.0870 -2.0515  2.7577
  366TIP3    H2 1105   2.331   2.012   5.082  2.1987  0.0081  0.5436
  367TIP3   OH2 1106   0.662   2.569   4.998 -0.2229  0.1970  0.5667
  367TIP3    H1 1107   0.689   2.512   5.070  2.0835 -0.7157 -0.9094
  367TIP3    H2 1108   0.597   2.518   4.950 -2.4693  1.1652  2.3971
  368TIP3   OH2 1109   2.792   2.573   0.859 -0.3504 -0.1226  0.0893
  368TIP3    H1 1110   2.861   2.556   0.922  1.2184  2.1551 -0.8701
  368TIP3    H2 1111   2.724   2.618   0.910 -0.0322 -0.1841  0.5736
  369TIP3   OH2 1112   5.621   4.750   0.429  0.1641 -0.2576  0.0865
  369TIP3    H1 1113   5.617   4.660   0.461 -0.1642 -0.5037 -0.6351
  369TIP3    H2 1114   5.638   4.802   0.507 -3.9663 -0.4513  1.3831
  370TIP3   OH2 1115   4.834   3.340   2.780  0.2082 -0.1374 -0.1267
  370TIP3    H1 1116   4.860   3.395   2.706 -2.1260  0.2140 -0.7446
  370TIP3    H2 1117   4.773   3.276   2.743 -0.2735 -0.5576  1.3182
  371TIP3   OH2 1118   3.722   0.874   5.001 -0.6214  0.4216 -0.4833
  371TIP3    H1 1119   3.809   0.867   5.042 -1.1198  0.5586  0.6443
  371TIP3    H2 1120   3.714   0.966   4.976 -0.3088  0.3358 -0.9106
  372TIP3   OH2 1121   5.018   2.668   1.196  0.4421  0.1494 -0.3924
  372TIP3    H1 1122   4.996   2.738   1.258  0.3461 -0.5776  0.4260
  372TIP3    H2 1123   4.933   2.632   1.170  0.4799 -2.1642  2.1870
  373TIP3   OH2 1124   2.952   0.916   1.772 -0.5822  0.1302 -0.5817
  373TIP3    H1 1125   2.866   0.910   1.730 -1.0900  0.7388  0.3329
  373TIP3    H2 1126   2.943   0.987   1.836 -0.0547 -1.2002  1.0476
  374TIP3   OH2 1127   1.826   4.716   0.466  0.0436  0.2676  0.2706
  374TIP3    H1 1128   1.802   4.648   0.403  0.2342 -0.2712  0.7723
  374TIP3    H2 1129   1.921   4.719   0.463  0.0429  0.4069  0.3616
  375TIP3   OH2 1130   5.557   3.743   4.198  0.0304  1.0521  0.6340
  375TIP3    H1 1131   5.485   3.769   4.255 -1.9783 -0.4421 -1.0475
  375TIP3    H2 1132   5.541   3.789   4.115  0.0965 -0.4610 -0.2586
  376TIP3   OH2 1133   0.541   2.344   1.865 -0.9072  0.0557  0.0560
  376TIP3    H1 1134   0.596   2.416   1.895  0.8604 -1.3190  0.2684
  376TIP3    H2 1135   0.554   2.341   1.770 -0.1997 -0.6003  0.1731
  377TIP3   OH2 1136   5.971   1.563   1.357  0.5290 -0.2773 -0.0151
  377TIP3    H1 1137   5.954   1.638   1.300  0.5882 -1.0000 -1.0190
  377TIP3    H2 1138   6.058   1.532   1.330  0.2812 -1.0150  0.0273
  378TIP3   OH2 1139   5.847   0.063   4.411 -0.0154 -0.3137 -0.3551
  378TIP3    H1 1140   5.779   0.006   4.448  0.2092 -0.6225 -0.4152
  378TIP3    H2 1141   5.911   0.073   4.481  0.2491 -0.6355 -0.5495
  379TIP3   OH2 1142   5.942   3.422   3.703 -0.2183 -0.5713  0.3500
  379TIP3    H1 1143   6.004   3.485   3.739  2.4368 -3.1633  0.6688
  379TIP3    H2 1144   5.889   3.395   3.778  0.1213 -0.3429  0.6765
  380TIP3   OH2 1145   0.562   3.034   3.818  0.1255 -0.3960 -0.7936
  380TIP3    H1 1146   0.638   2.980   3.840  0.3680  1.1207  2.8779
  380TIP3    H2 1147   0.600   3.112   3.776  0.4176 -0.4305 -0.6015
  381TIP3   OH2 1148   5.858   2.591   0.575  0.7454  0.1500 -0.2163
  381TIP3    H1 1149   5.811   2.671   0.550  1.6369  0.4556 -0.9806
  381TIP3    H2 1150   5.790   2.526   0.590  0.0477  0.8152 -0.4635
  382TIP3   OH2 1151   3.713   0.212   1.792 -0.5804  0.2803 -0.1547
  382TIP3    H1 1152   3.775   0.281   1.817  0.2893 -0.6063  0.2138
  382TIP3    H2 1153   3.680   0.178   1.875 -1.7670  0.9122 -0.3544
  383TIP3   OH2 1154   1.639   2.377   1.465  0.0372  0.0940 -0.0422
  383TIP3    H1 1155   1.601   2.316   1.528  2.2152 -0.0732  1.2271
  383TIP3    H2 1156   1.730   2.347   1.455  0.5746  1.9040 -0.9856
  384TIP3   OH2 1157   0.773   5.395   2.291  0.1806 -0.2496  0.4193
  384TIP3    H1 1158   0.792   5.302   2.302 -1.7983 -0.9017 -1.1052
  384TIP3    H2 1159   0.730   5.401   2.206 -1.1860  1.8198  1.1769
  385TIP3   OH2 1160   2.335   2.472   1.038 -0.4872  0.2210  0.0564
  385TIP3    H1 1161   2.345   2.442   1.128 -0.1756  0.4597  0.1026
  385TIP3    H2 1162   2.258   2.528   1.039  0.3989  1.4804  0.5048
  386TIP3   OH2 1163   3.189   2.667   4.849 -0.4284  0.6568 -0.0598
  386TIP3    H1 1164   3.096   2.688   4.851 -0.6651 -0.3339 -0.0795
  386TIP3    H2 1165   3.198   2.593   4.910  0.6984  2.0298  1.5290
  387TIP3   OH2 1166   3.092   2.852   2.117 -0.5155 -0.1209 -0.0148
  387TIP3    H1 1167   3.121   2.813   2.035  0.2694 -0.5368  0.4510
  387TIP3    H2 1168   3.150   2.815   2.184 -0.7093  0.7088  0.6390
  388TIP3   OH2 1169   5.418   5.811   3.237  0.4334 -0.3329  0.1151
  388TIP3    H1 1170   5.348   5.862   3.195 -0.0915 -0.6054  0.6331
  388TIP3    H2 1171   5.381   5.786   3.322  0.5795 -1.7524 -0.2081
  389TIP3   OH2 1172   1.973   4.995   2.351  0.0126  0.6296 -0.2669
  389TIP3    H1 1173   2.051   5.044   2.326  0.3819  0.5543  0.6762
  389TIP3    H2 1174   1.999   4.903   2.345 -0.1737  0.5910 -0.4857
  390TIP3   OH2 1175   0.121   4.761   0.040  0.3796  0.1820 -0.2498
  390TIP3    H1 1176   0.181   4.795   0.105  0.3278  0.4922 -0.3650
  390TIP3    H2 1177   0.034   4.773   0.078  0.3298  0.6589 -0.5131
  391TIP3   OH2 1178   4.990   0.507   2.559 -0.4277  0.0997 -0.3958
  391TIP3    H1 1179   5.078   0.468   2.561  0.0930  1.2280  1.2524
  391TIP3    H2 1180   4.932   0.437   2.587  0.0499 -0.4191 -0.6786
  392TIP3   OH2 1181   5.004   3.011   3.049  0.1153  0.4449 -0.0846
  392TIP3    H1 1182   5.048   3.043   2.970 -0.8715  0.5556 -0.6023
  392TIP3    H2 1183   5.020   2.917   3.050  1.7936  0.7047  0.6572
  393TIP3   OH2 1184   6.213   5.608   0.020 -0.1404  0.3979  0.0360
  393TIP3    H1 1185   6.137   5.633  -0.031 -0.2256 -1.0597 -0.6069
  393TIP3    H2 1186   6.178   5.588   0.107 -0.7976 -1.8038 -0.6763
  394TIP3   OH2 1187   5.235   5.488   2.226 -0.2717  0.3627 -0.6982
  394TIP3    H1 1188   5.235   5.537   2.143 -0.3647  0.4974 -0.6182
  394TIP3    H2 1189   5.288   5.540   2.285 -2.8742  2.0331  0.3675
  395TIP3   OH2 1190   3.287   4.395   0.563  0.8949 -0.1429 -0.1424
  395TIP3    H1 1191   3.270   4.397   0.657  1.4470  0.9624 -0.0410
  395TIP3    H2 1192   3.381   4.376   0.556  0.7215 -0.9182 -0.5058
  396TIP3   OH2 1193   0.399   0.971   3.639  0.3159 -0.3691  0.0449
  396TIP3    H1 1194   0.347   0.897   3.608 -0.1635 -0.0975  0.1858
  396TIP3    H2 1195   0.334   1.034   3.669  0.7048  0.3423 -0.5862
  397TIP3   OH2 1196   5.587   0.246   3.327 -0.2479 -0.0186  0.0648
  397TIP3    H1 1197   5.573   0.321   3.385  0.2007  0.3541 -0.3035
  397TIP3    H2 1198   5.669   0.266   3.281  0.0912 -0.9156  0.2503
  398TIP3   OH2 1199   5.551   1.949   3.907 -0.2189 -0.0466 -0.2676
  398TIP3    H1 1200   5.474   1.992   3.869 -0.0996 -0.4307 -0.9619
  398TIP3    H2 1201   5.538   1.856   3.889 -0.3709 -0.2908  1.0446
  399TIP3   OH2 1202   1.347   5.067   1.882  0.2760  0.2196 -0.1250
  399TIP3    H1 1203   1.255   5.061   1.855  0.2280  0.7394 -0.0991
  399TIP3    H2 1204   1.375   5.153   1.849  0.9505 -0.2228 -0.7299
  400TIP3   OH2 1205   1.763   5.659   2.082 -0.3120  0.5331  0.0844
  400TIP3    H1 1206   1.706   5.639   2.156 -0.2456  1.1085  0.2980
  400TIP3    H2 1207   1.742   5.593   2.016  0.4314 -0.6794  1.0375
  401TIP3   OH2 1208   2.241   1.601   4.591  0.0023  0.4887  0.6141
  401TIP3    H1 1209   2.312   1.545   4.560  1.2090  2.0610  0.4041
  401TIP3    H2 1210   2.231   1.667   4.523 -0.9221  0.9450  1.1674
  402TIP3   OH2 1211   1.784   2.831   4.967  0.0135  0.1661  0.1555
  402TIP3    H1 1212   1.820   2.859   5.051  1.8378 -1.3076 -0.0672
  402TIP3    H2 1213   1.705   2.781   4.990 -0.2858  0.9547  0.8780
  403TIP3   OH2 1214   0.983   2.659   1.843 -0.4564 -0.0963 -0.2018
  403TIP3    H1 1215   1.078   2.670   1.849 -0.2855 -1.6520  0.2659
  403TIP3    H2 1216   0.961   2.603   1.917 -1.9227  1.1908  0.3758
  404TIP3   OH2 1217   3.454   4.024   2.575  0.1044 -0.5859 -0.3628
  404TIP3    H1 1218   3.479   3.947   2.523 -1.5662 -0.6236 -1.1777
  404TIP3    H2 1219   3.527   4.084   2.565  0.1609 -0.8961 -2.2043
  405TIP3   OH2 1220   6.198   5.179   2.061  0.0077  0.4400 -0.1861
  405TIP3    H1 1221   6.182   5.237   1.986  1.0667  1.0424  0.0295
  405TIP3    H2 1222   6.192   5.236   2.138  3.4729  0.9081 -0.0998
  406TIP3   OH2 1223   1.659   0.294   3.376 -0.1651 -0.0964 -0.3404
  406TIP3    H1 1224   1.586   0.338   3.418  0.1169  1.0516 -1.0186
  406TIP3    H2 1225   1.625   0.207   3.354 -0.7045 -0.2706  1.0710
  407TIP3   OH2 1226   4.815   0.724   3.491 -1.0619 -0.1309  0.7033
  407TIP3    H1 1227   4.726   0.690   3.488 -0.3133 -2.2078 -2.0988
  407TIP3    H2 1228   4.814   0.800   3.433 -0.8036 -0.8517 -0.2699
  408TIP3   OH2 1229   0.040   5.039   4.121 -0.0625  0.5207 -0.1007
  408TIP3    H1 1230   0.109   4.973   4.132 -0.7703 -0.1626  0.3375
  408TIP3    H2 1231  -0.007   5.012   4.042 -0.1943  0.6460 -0.0645
  409TIP3   OH2 1232   1.772   2.271   3.523 -0.5215 -0.0637 -0.0131
  409TIP3    H1 1233   1.784   2.252   3.616 -1.7298 -1.2364 -0.0773
  409TIP3    H2 1234   1.678   2.268   3.509 -0.5049  1.9855 -0.9147
  410TIP3   OH2 1235   6.016   5.735   1.157  0.6422 -0.3477 -0.0201
  410TIP3    H1 1236   5.949   5.775   1.212 -0.0387 -0.5423 -0.6953
  410TIP3    H2 1237   6.098   5.770   1.190  0.1067  1.0874 -0.1587
  411TIP3   OH2 1238   4.096   0.344   0.969  0.5454  0.2492  0.2290
  411TIP3    H1 1239   4.078   0.282   0.898  0.8838  0.8524 -0.3878
  411TIP3    H2 1240   4.114   0.288   1.045 -1.2736 -0.4050  0.2416
  412TIP3   OH2 1241   6.247   2.618   3.765  0.6205  0.4459  0.0543
  412TIP3    H1 1242   6.312   2.611   3.835  0.9345  0.6272 -0.2207
  412TIP3    H2 1243   6.298   2.630   3.685  0.3940 -1.8904 -0.5370
  413TIP3   OH2 1244   3.303   3.454   1.611  0.0671  0.5227  0.0328
  413TIP3    H1 1245   3.297   3.424   1.701  0.1372  0.7276  0.1070
  413TIP3    H2 1246   3.283   3.377   1.558  1.4941  0.0049  0.1918
  414TIP3   OH2 1247   4.447   2.778   3.233  0.3434 -0.2339 -0.3102
  414TIP3    H1 1248   4.383   2.734   3.289 -0.5117 -0.4338 -1.4213
  414TIP3    H2 1249   4.531   2.737   3.255 -0.0740 -0.7411  0.3661
  415TIP3   OH2 1250   5.104   0.033   3.323  0.1177  0.7951 -0.3416
  415TIP3    H1 1251   5.090   0.124   3.350  0.1163 -0.0669  3.0085
  415TIP3    H2 1252   5.186   0.007   3.364 -0.5487 -1.1002 -0.0997
  416TIP3   OH2 1253   4.425   2.326   1.720 -0.7441 -0.3588 -0.0143
  416TIP3    H1 1254   4.335   2.334   1.749 -0.4314  1.3880  0.5845
  416TIP3    H2 1255   4.454   2.241   1.754 -1.2975  0.3194  2.3056
  417TIP3   OH2 1256   2.060   2.536   2.875 -0.1227 -0.3604 -0.1052
  417TIP3    H1 1257   2.047   2.595   2.801  0.1969  0.7871  0.7448
  417TIP3    H2 1258   2.011   2.457   2.851  0.6474 -0.3324 -1.9097
  418TIP3   OH2 1259   2.177   1.437   4.335  0.3088  0.3169 -0.1226
  418TIP3    H1 1260   2.122   1.415   4.260  0.5672 -0.2474 -0.1524
  418TIP3    H2 1261   2.127   1.502   4.383 -1.1943 -1.4347  0.7916
  419TIP3   OH2 1262   2.382   4.450   1.841 -0.1222  0.7960 -0.4054
  419TIP3    H1 1263   2.474   4.477   1.840 -0.1862  1.0069 -0.7173
  419TIP3    H2 1264   2.346   4.484   1.759 -0.3518  0.2532 -0.5313
  420TIP3   OH2 1265   5.143   1.357   3.925  1.0757  0.1880 -0.0800
  420TIP3    H1 1266   5.078   1.417   3.960 -1.4198 -2.7498  0.7418
  420TIP3    H2 1267   5.122   1.351   3.831  1.2128  0.3912 -0.1267
  421TIP3   OH2 1268   5.608   0.725   4.730 -0.2318  0.6227  0.1439
  421TIP3    H1 1269   5.593   0.632   4.748  1.8452  0.3699  0.8418
  421TIP3    H2 1270   5.557   0.743   4.651 -1.3850 -0.8571  0.4955
  422TIP3   OH2 1271   0.474   3.025   0.775  0.2624 -0.2716  0.0907
  422TIP3    H1 1272   0.553   3.079   0.784 -0.1154  0.2140  0.5891
  422TIP3    H2 1273   0.467   3.009   0.681 -0.2021  1.4895 -0.2234
  423TIP3   OH2 1274   5.738   4.652   2.279 -0.7029  0.4051  0.2699
  423TIP3    H1 1275   5.678   4.604   2.336  0.7262 -1.3846  0.3740
  423TIP3    H2 1276   5.745   4.597   2.201  0.7386  0.5843  0.2419
  424TIP3   OH2 1277   2.158   2.552   3.732  0.5753  0.9325 -0.3223
  424TIP3    H1 1278   2.178   2.588   3.645  1.4434  0.2430 -0.4189
  424TIP3    H2 1279   2.136   2.628   3.785  1.7271  1.5442 -0.6959
  425TIP3   OH2 1280   5.575   5.011   1.096  0.2915  0.7545 -0.2756
  425TIP3    H1 1281   5.479   5.013   1.087  0.2779 -1.3580 -1.0171
  425TIP3    H2 1282   5.606   5.072   1.028 -0.4829 -0.6015 -1.9189
  426TIP3   OH2 1283   0.547   0.360   3.844 -0.2242  0.1083  0.0418
  426TIP3    H1 1284   0.467   0.315   3.872  1.0305 -2.1528  0.2615
  426TIP3    H2 1285   0.597   0.292   3.797  3.2914  0.2203  3.1938
  427TIP3   OH2 1286   0.400   5.474   2.607 -0.5671  0.0517  0.1811
  427TIP3    H1 1287   0.309   5.472   2.578 -0.5948 -1.3250  0.3228
  427TIP3    H2 1288   0.451   5.452   2.529 -0.2122  2.3835 -0.3100
  428TIP3   OH2 1289   4.630   3.441   4.758 -0.1106  0.4972  1.3303
  428TIP3    H1 1290   4.599   3.401   4.676 -0.0246  1.3771  0.8529
  428TIP3    H2 1291   4.602   3.380   4.826 -1.5429  0.4971  0.7816
  429TIP3   OH2 1292   4.193   5.193   0.792  0.5375  0.4878  0.0609
  429TIP3    H1 1293   4.164   5.102   0.801  2.5244 -0.2693 -0.7493
  429TIP3    H2 1294   4.213   5.221   0.882  1.0360 -0.2707  0.1905
  430TIP3   OH2 1295   4.768   5.500   4.083 -0.7804  0.9041 -0.4065
  430TIP3    H1 1296   4.741   5.408   4.073 -0.3718  0.6555  0.6646
  430TIP3    H2 1297   4.761   5.536   3.995 -0.0089 -0.4195 -1.0430
  431TIP3   OH2 1298   2.847   5.894   4.181  0.1205  0.4333  0.2670
  431TIP3    H1 1299   2.769   5.923   4.228 -0.2743 -0.2017  0.0207
  431TIP3    H2 1300   2.829   5.802   4.160 -0.4950  1.1668 -2.7334
  432TIP3   OH2 1301   0.532   2.612   1.739 -0.1525 -0.3115  0.2133
  432TIP3    H1 1302   0.484   2.543   1.693 -1.2384  1.1533 -0.9548
  432TIP3    H2 1303   0.464   2.666   1.779  0.6482  0.3614  0.7073
  433TIP3   OH2 1304   4.429   2.646   3.679  0.3280 -0.0709 -0.5169
  433TIP3    H1 1305   4.463   2.643   3.769 -2.5564  1.5598  0.7783
  433TIP3    H2 1306   4.358   2.582   3.678 -1.6016  1.9265 -0.6029
  434TIP3   OH2 1307   4.835   5.184   0.025 -0.0604 -0.0596 -0.1378
  434TIP3    H1 1308   4.861   5.148   0.110  0.6499  3.4018  1.3212
  434TIP3    H2 1309   4.918   5.198  -0.021 -0.1153  1.2740  0.1194
  435TIP3   OH2 1310   0.661   0.364   0.415 -0.3454 -0.0441 -0.3817
  435TIP3    H1 1311   0.637   0.374   0.507 -0.2681 -0.2370 -0.3396
  435TIP3    H2 1312   0.646   0.450   0.377 -2.9775 -0.5878 -0.7933
  436TIP3   OH2 1313   0.567   0.679   2.488  0.5999  0.2239 -1.3625
  436TIP3    H1 1314   0.589   0.600   2.438 -0.7784 -1.5585  0.6656
  436TIP3    H2 1315   0.623   0.676   2.565 -2.4505 -1.3840  1.0277
  437TIP3   OH2 1316   5.815   3.797   4.291  0.3197 -0.2600  0.9011
  437TIP3    H1 1317   5.871   3.795   4.214  0.1468  0.1428  0.7629
  437TIP3    H2 1318   5.745   3.734   4.271  0.1708 -0.0171  0.6462
  438TIP3   OH2 1319   4.516   0.402   4.384 -0.6357  0.0654  0.0694
  438TIP3    H1 1320   4.567   0.357   4.452 -0.0027  1.6337  0.6824
  438TIP3    H2 1321   4.577   0.410   4.311 -0.6388  0.2328  0.0857
  439TIP3   OH2 1322   4.076   4.710   3.162 -0.3529  0.2591 -0.1981
  439TIP3    H1 1323   4.163   4.688   3.194 -1.5864 -2.8879  1.5873
  439TIP3    H2 1324   4.028   4.737   3.241 -1.1100  1.5526 -1.0740
  440TIP3   OH2 1325   3.427   1.848   3.856 -0.0319  0.5773 -0.4265
  440TIP3    H1 1326   3.447   1.874   3.766  1.2093  0.9162 -0.0627
  440TIP3    H2 1327   3.360   1.910   3.884  2.0614  2.7435  0.0381
  441TIP3   OH2 1328   0.703   5.132   3.399  0.1834  0.1139  0.1981
  441TIP3    H1 1329   0.762   5.207   3.388 -0.4491  0.3314 -2.3858
  441TIP3    H2 1330   0.759   5.055   3.387  0.2712  0.2767 -0.4694
  442TIP3   OH2 1331   4.683   2.883   1.562  0.1421  0.1284  0.1087
  442TIP3    H1 1332   4.678   2.932   1.480  0.6400 -1.1063 -0.6865
  442TIP3    H2 1333   4.683   2.951   1.630 -1.4563  1.1410 -0.8255
  443TIP3   OH2 1334   1.024   5.598   2.846  0.2297  0.1346  0.2875
  443TIP3    H1 1335   0.931   5.611   2.866 -1.0697 -3.8984 -1.8502
  443TIP3    H2 1336   1.059   5.554   2.924  0.9695  3.1957  1.8168
  444TIP3   OH2 1337   5.988   0.984   3.747  0.3842  0.0408 -0.2108
  444TIP3    H1 1338   5.971   0.895   3.777 -1.8742  0.9397  1.4024
  444TIP3    H2 1339   5.974   1.039   3.824  0.9829  1.8700 -1.3488
  445TIP3   OH2 1340   5.771   4.318   3.769 -0.1344 -0.8575 -0.1396
  445TIP3    H1 1341   5.866   4.324   3.759 -0.0398 -1.9212 -0.0899
  445TIP3    H2 1342   5.742   4.271   3.691 -0.8428  0.8622 -0.9520
  446TIP3   OH2 1343   3.602   2.357   3.352  0.3361  0.3044 -0.5413
  446TIP3    H1 1344   3.546   2.292   3.310 -0.7256 -0.6704  2.1479
  446TIP3    H2 1345   3.634   2.411   3.280 -0.3500 -1.9406 -2.6787
  447TIP3   OH2 1346   2.203   5.477   3.547 -0.0785  0.7145  0.2258
  447TIP3    H1 1347   2.165   5.539   3.608 -1.2216 -0.3334  0.6042
  447TIP3    H2 1348   2.157   5.395   3.563  1.4836 -0.2966 -0.1589
  448TIP3   OH2 1349   2.400   5.107   3.356 -0.4072  0.2222 -0.4780
  448TIP3    H1 1350   2.316   5.066   3.375 -0.1503  0.2493  0.7847
  448TIP3    H2 1351   2.465   5.041   3.379  0.0279  1.3853  1.9903
  449TIP3   OH2 1352   2.112   1.105   4.252 -0.0769 -0.0425  0.2090
  449TIP3    H1 1353   2.022   1.136   4.243 -0.5350 -0.6775  2.1298
  449TIP3    H2 1354   2.152   1.164   4.315  1.3244  1.0499 -1.5894
  450TIP3   OH2 1355   0.936   3.834   0.411  0.0774 -0.0022 -0.3778
  450TIP3    H1 1356   1.000   3.798   0.349  1.1579 -0.7376  1.1225
  450TIP3    H2 1357   0.929   3.768   0.479 -2.2559  0.0988 -0.4415
  451TIP3   OH2 1358   2.841   2.578   2.072 -0.1677  0.8036 -0.1818
  451TIP3    H1 1359   2.821   2.671   2.085 -1.6203  0.5810 -0.6606
  451TIP3    H2 1360   2.843   2.541   2.160  3.2460  1.7704  0.2781
  452TIP3   OH2 1361   3.622   3.137   2.927 -0.7594  0.3838 -0.0873
  452TIP3    H1 1362   3.660   3.187   2.854 -0.6215 -0.8482 -0.8918
  452TIP3    H2 1363   3.530   3.166   2.930 -0.8402  0.2570 -0.9469
  453TIP3   OH2 1364   1.977   4.127   1.978 -0.1366 -0.0193  0.2241
  453TIP3    H1 1365   1.987   4.220   1.958 -1.1306 -0.0776 -0.6254
  453TIP3    H2 1366   1.897   4.101   1.932 -0.5413 -1.0166  1.4446
  454TIP3   OH2 1367   4.119   5.859   3.823  0.0666  0.3299 -0.6770
  454TIP3    H1 1368   4.184   5.919   3.859  0.0840  1.6313 -2.6691
  454TIP3    H2 1369   4.039   5.876   3.873  0.6027  0.5852  0.0961
  455TIP3   OH2 1370   1.406   4.290   3.229 -0.5170  0.3760  0.0060
  455TIP3    H1 1371   1.317   4.257   3.216  0.2795 -1.6694 -0.6731
  455TIP3    H2 1372   1.412   4.366   3.171 -1.5847  0.0566 -0.5555
  456TIP3   OH2 1373   3.289   0.073   3.102  0.6553 -0.6493 -0.1734
  456TIP3    H1 1374   3.347   0.082   3.177 -1.4094  1.1995  1.3413
  456TIP3    H2 1375   3.335   0.117   3.030  1.5960 -0.1933  0.6847
  457TIP3   OH2 1376   3.178   1.769   2.207 -0.4899 -0.1027  0.2674
  457TIP3    H1 1377   3.205   1.723   2.127 -0.4268  1.4825 -0.6725
  457TIP3    H2 1378   3.092   1.806   2.184 -2.9171 -3.6156  2.6052
  458TIP3   OH2 1379   0.589   0.106   3.378 -0.6054  0.7141 -0.0004
  458TIP3    H1 1380   0.555   0.050   3.308  0.5688  0.5775 -0.4850
  458TIP3    H2 1381   0.585   0.194   3.341  0.5606  0.5766 -0.4733
  459TIP3   OH2 1382   2.743   0.727   2.456  0.2010  0.4122 -0.3985
  459TIP3    H1 1383   2.824   0.698   2.499  1.1985 -0.0186 -2.4541
  459TIP3    H2 1384   2.772   0.793   2.393 -1.3888  2.0180  0.4805
  460TIP3   OH2 1385   5.618   0.477   3.077  0.0164 -0.2923 -0.5085
  460TIP3    H1 1386   5.642   0.554   3.026  1.0143  0.7645  1.4512
  460TIP3    H2 1387   5.525   0.488   3.097  0.3028  0.7591  0.3069
  461TIP3   OH2 1388   1.115   2.684   0.383  0.0703 -0.1763  0.2178
  461TIP3    H1 1389   1.081   2.714   0.468 -0.5151  0.2859 -0.1780
  461TIP3    H2 1390   1.042   2.695   0.323  0.7969  0.4442 -0.5658
  462TIP3   OH2 1391   0.028   3.540   2.418  0.5258 -0.2083  0.1769
  462TIP3    H1 1392  -0.041   3.605   2.410  2.2505  1.7469  0.1774
  462TIP3    H2 1393   0.108   3.586   2.393  2.0319 -1.9914  1.3423
  463TIP3   OH2 1394   1.405   2.551   3.077  0.2311 -0.3146  0.4918
  463TIP3    H1 1395   1.327   2.501   3.100  0.1687 -1.2160 -1.4554
  463TIP3    H2 1396   1.375   2.642   3.073 -0.5812 -0.5803  0.3519
  464TIP3   OH2 1397   0.163   5.561   2.133 -0.3003  0.6246 -0.3970
  464TIP3    H1 1398   0.135   5.496   2.067 -0.2068  0.8239 -0.6361
  464TIP3    H2 1399   0.258   5.566   2.122 -0.1037 -0.3714  0.7100
  465TIP3   OH2 1400   0.211   0.885   1.082  0.0387 -0.3929 -0.1401
  465TIP3    H1 1401   0.220   0.980   1.089 -1.7077 -0.2236  0.3046
  465TIP3    H2 1402   0.239   0.852   1.167 -0.4016 -0.1700  0.0975
  466TIP3   OH2 1403   3.867   5.014   4.128  0.0749 -0.3342 -0.4579
  466TIP3    H1 1404   3.773   5.005   4.142  0.3745 -0.9420  1.5260
  466TIP3    H2 1405   3.907   4.966   4.201  1.9062  2.3836  0.4955
  467TIP3   OH2 1406   6.314   1.882   1.287 -0.3511 -0.4590  0.6115
  467TIP3    H1 1407   6.360   1.962   1.262 -1.2024 -0.6432 -1.6783
  467TIP3    H2 1408   6.256   1.909   1.358  2.0791  0.0817  2.5848
  468TIP3   OH2 1409   1.806   2.613   4.482  0.3577 -0.3548 -0.4568
  468TIP3    H1 1410   1.850   2.528   4.483  0.4642 -0.2959  0.2808
  468TIP3    H2 1411   1.862   2.670   4.534  0.1523  0.1018 -0.7270
  469TIP3   OH2 1412   1.933   4.356   2.723 -0.4361  0.3104 -0.2251
  469TIP3    H1 1413   2.027   4.342   2.726 -0.3786  0.7202 -0.0860
  469TIP3    H2 1414   1.902   4.298   2.652 -0.0250  0.5033 -0.5611
  470TIP3   OH2 1415   3.249   5.957   3.447  0.2082  0.1850 -0.4278
  470TIP3    H1 1416   3.327   5.964   3.392 -0.1215 -1.7927 -1.2286
  470TIP3    H2 1417   3.238   5.863   3.461 -1.4091  0.4895  0.5917
  471TIP3   OH2 1418   4.867   1.453   2.767  0.2117  0.1684  0.1382
  471TIP3    H1 1419   4.953   1.414   2.749 -0.0786  0.2340 -1.5062
  471TIP3    H2 1420   4.804   1.391   2.731 -0.3677  0.7730  0.0914
  472TIP3   OH2 1421   5.216   1.311   0.073  0.1776 -0.2310 -0.5903
  472TIP3    H1 1422   5.244   1.277  -0.012 -0.0383  1.2277 -1.2741
  472TIP3    H2 1423   5.122   1.295   0.075 -0.0979  1.0873 -1.3291
  473TIP3   OH2 1424   5.483   5.092   0.658  0.3259 -0.2084 -0.5668
  473TIP3    H1 1425   5.541   5.016   0.653 -1.9086 -2.3346  2.5330
  473TIP3    H2 1426   5.408   5.068   0.602 -0.0127  0.0771 -0.2351
  474TIP3   OH2 1427   6.302   5.896   4.071  0.1830 -0.8814  0.4792
  474TIP3    H1 1428   6.311   5.932   4.159  2.4563 -1.0970  0.4029
  474TIP3    H2 1429   6.385   5.916   4.028 -1.3355  0.3914 -2.1059
  475TIP3   OH2 1430   1.609   2.855   4.029  0.0588 -0.5945  0.0610
  475TIP3    H1 1431   1.592   2.773   4.075 -0.3432 -0.2611  0.5187
  475TIP3    H2 1432   1.559   2.920   4.077 -2.0797 -0.5534 -2.0484
  476TIP3   OH2 1433   3.007   0.535   2.338  0.3947 -0.1225 -0.2340
  476TIP3    H1 1434   2.984   0.575   2.254 -1.6595 -1.0129 -0.1552
  476TIP3    H2 1435   3.033   0.609   2.394  0.8391  0.5823 -1.3494
  477TIP3   OH2 1436   0.967   3.974   2.437  0.2704  0.4435 -0.6128
  477TIP3    H1 1437   0.992   3.907   2.374 -0.4846 -2.2775  1.7403
  477TIP3    H2 1438   0.884   4.008   2.405  0.6057  0.1709 -1.8069
  478TIP3   OH2 1439   3.086   3.638   2.899  0.1627 -0.1389 -0.6380
  478TIP3    H1 1440   3.084   3.723   2.943 -0.0045 -0.1301 -0.6606
  478TIP3    H2 1441   3.162   3.593   2.937 -0.3505 -0.3766  0.1310
  479TIP3   OH2 1442   4.996   4.331   2.012  0.3736  0.0918 -0.5074
  479TIP3    H1 1443   4.936   4.332   2.087 -2.4417  4.6924 -2.3396
  479TIP3    H2 1444   5.082   4.347   2.050 -0.3131 -1.4327  1.9159
  480TIP3   OH2 1445   0.701   1.401   4.496 -0.5386  0.0994  0.3386
  480TIP3    H1 1446   0.704   1.496   4.483 -2.4691  0.0957 -0.4819
  480TIP3    H2 1447   0.641   1.388   4.570  2.2355 -0.3991  2.6567
  481TIP3   OH2 1448   2.745   0.820   0.560 -0.6273  0.2851 -0.1663
  481TIP3    H1 1449   2.736   0.881   0.487 -2.3648  0.5260  0.2104
  481TIP3    H2 1450   2.801   0.750   0.526 -0.6855  0.8321 -1.4384
  482TIP3   OH2 1451   2.764   3.486   1.782 -0.1430 -0.0969 -0.1422
  482TIP3    H1 1452   2.823   3.518   1.713  0.4646  0.2422  0.5220
  482TIP3    H2 1453   2.724   3.408   1.745  0.5035 -0.1647 -0.7206
  483TIP3   OH2 1454   4.253   2.403   0.928  0.2945 -0.4128 -0.0668
  483TIP3    H1 1455   4.324   2.467   0.926 -0.0232 -0.0041  1.1212
  483TIP3    H2 1456   4.290   2.328   0.975  0.2389 -0.5735 -0.2800
  484TIP3   OH2 1457   4.681   3.966   2.081 -0.3292  0.2083 -0.1020
  484TIP3    H1 1458   4.771   3.979   2.110 -0.4580  3.5763 -0.7684
  484TIP3    H2 1459   4.688   3.918   1.999  0.8809  0.4041 -0.1241
  485TIP3   OH2 1460   0.364   4.050   4.877  0.0557  0.0156 -0.0978
  485TIP3    H1 1461   0.392   3.992   4.947 -4.1942 -1.9218  0.3316
  485TIP3    H2 1462   0.389   4.005   4.796  0.1445 -0.5079  0.2172
  486TIP3   OH2 1463   1.600   2.013   2.415  0.1595  0.4187 -0.1340
  486TIP3    H1 1464   1.577   1.922   2.399 -1.4188  0.3830  1.9009
  486TIP3    H2 1465   1.524   2.063   2.385  0.2528  0.8935  0.3992
  487TIP3   OH2 1466   5.732   2.570   3.312 -0.0588  0.3483 -0.2582
  487TIP3    H1 1467   5.695   2.630   3.248 -3.8794 -0.3409  1.0098
  487TIP3    H2 1468   5.730   2.618   3.395 -0.8659 -0.6644  0.3415
  488TIP3   OH2 1469   1.066   3.074   2.993 -0.8082 -0.3914 -0.2962
  488TIP3    H1 1470   1.019   3.020   3.057 -1.2351 -1.6848 -1.6261
  488TIP3    H2 1471   1.001   3.091   2.925 -0.4041  1.0739 -0.3371
  489TIP3   OH2 1472   4.565   4.443   1.355 -0.2546 -0.0631  0.1000
  489TIP3    H1 1473   4.516   4.404   1.283 -1.4307  1.4361  0.0294
  489TIP3    H2 1474   4.655   4.450   1.322 -0.9955  1.7884 -1.7949
  490TIP3   OH2 1475   3.536   2.991   3.194  0.1040  0.2053 -0.1388
  490TIP3    H1 1476   3.477   3.060   3.223 -1.5536 -0.0632 -2.6184
  490TIP3    H2 1477   3.491   2.949   3.121  2.3091 -1.6393 -0.5623
  491TIP3   OH2 1478   3.738   3.290   1.898  0.1114  0.0691 -0.6148
  491TIP3    H1 1479   3.680   3.279   1.822  2.3663  2.0878 -2.7989
  491TIP3    H2 1480   3.826   3.280   1.863  1.3334  2.6282  1.3745
  492TIP3   OH2 1481   4.686   1.321   3.411  0.4509 -0.5845 -0.0850
  492TIP3    H1 1482   4.614   1.369   3.454  2.0907 -0.1286  2.3636
  492TIP3    H2 1483   4.725   1.386   3.352  1.3258  0.5230  1.6228
  493TIP3   OH2 1484   3.042   5.313   0.381  0.1206 -0.2260  0.2563
  493TIP3    H1 1485   3.076   5.345   0.297  1.4147 -0.4438  0.6689
  493TIP3    H2 1486   3.008   5.391   0.424 -2.7334 -0.4446 -1.3960
  494TIP3   OH2 1487   4.851   2.943   3.980  0.3820 -0.3079  0.5649
  494TIP3    H1 1488   4.898   2.869   4.017  1.0582  0.3830  1.1233
  494TIP3    H2 1489   4.881   2.947   3.889  0.7387 -0.4077  0.6758
  495TIP3   OH2 1490   0.833   1.198   2.788 -0.1124  0.0782  0.0587
  495TIP3    H1 1491   0.810   1.105   2.800 -1.0036  0.4281  1.2463
  495TIP3    H2 1492   0.764   1.246   2.833  0.4361  1.3287 -0.3876
  496TIP3   OH2 1493   3.021   3.613   3.780 -0.3831 -0.0536  0.4925
  496TIP3    H1 1494   3.012   3.565   3.862 -1.0963  2.1676  1.7874
  496TIP3    H2 1495   2.946   3.585   3.728  0.1690 -1.6155  0.4584
  497TIP3   OH2 1496   4.812   5.391   5.022  0.1903  0.2634 -0.1596
  497TIP3    H1 1497   4.790   5.399   4.929  0.6963  0.3178 -0.2761
  497TIP3    H2 1498   4.794   5.299   5.043  0.5825  0.1171 -0.4472
  498TIP3   OH2 1499   3.848   3.972   1.582 -0.1602 -0.0290  0.9778
  498TIP3    H1 1500   3.839   4.021   1.664  1.8656  2.5667 -0.2247
  498TIP3    H2 1501   3.761   3.977   1.542 -0.7534 -0.0060  2.2058
  499TIP3   OH2 1502   4.433   0.114   1.453  0.1042 -0.0803  0.4177
  499TIP3    H1 1503   4.490   0.165   1.395  1.1735 -2.1563 -0.4461
  499TIP3    H2 1504   4.381   0.060   1.394 -1.4881  0.4417  1.2876
  500TIP3   OH2 1505   1.198   3.730   1.183  0.0438  0.4905 -0.6483
  500TIP3    H1 1506   1.171   3.735   1.091 -1.5976  0.8759 -0.1834
  500TIP3    H2 1507   1.282   3.775   1.186  0.3249  0.1012 -2.0235
  501TIP3   OH2 1508   1.151   1.363   2.191  0.4087 -0.4174  0.7541
  501TIP3    H1 1509   1.115   1.451   2.203  0.1295 -0.5014  0.5490
  501TIP3    H2 1510   1.075   1.309   2.167  0.5408 -0.7564  1.0886
  502TIP3   OH2 1511   1.417   5.609   3.752 -0.4234  0.4903  0.3868
  502TIP3    H1 1512   1.387   5.607   3.843  0.4881 -1.8299  0.6967
  502TIP3    H2 1513   1.364   5.544   3.707 -1.5659  2.2938 -1.0554
  503TIP3   OH2 1514   2.337   2.603   2.834  0.8555  0.0563  0.0131
  503TIP3    H1 1515   2.314   2.638   2.920 -0.5553  0.9070 -0.6530
  503TIP3    H2 1516   2.295   2.517   2.831 -0.5611  0.7311 -0.4158
  504TIP3   OH2 1517   3.726   3.564   1.577  0.6376  0.4178 -0.6584
  504TIP3    H1 1518   3.663   3.496   1.553  2.0127 -1.0614 -0.2275
  504TIP3    H2 1519   3.803   3.545   1.523  0.8458  2.0180 -0.9729
  505TIP3   OH2 1520   1.679   4.867   0.940  0.7342  0.0585 -0.0754
  505TIP3    H1 1521   1.645   4.874   0.851 -0.2485 -0.6256  0.2294
  505TIP3    H2 1522   1.697   4.958   0.966 -1.5298  0.5526 -0.0163
  506TIP3   OH2 1523   5.267   4.128   2.620 -0.1559  0.2170  0.3990
  506TIP3    H1 1524   5.322   4.059   2.657  0.7008  1.3054  1.2103
  506TIP3    H2 1525   5.241   4.094   2.534  0.9123 -0.7604  0.4340
  507TIP3   OH2 1526   1.366   2.821   3.060  0.2592  0.2113  0.0595
  507TIP3    H1 1527   1.441   2.851   3.112  0.4837  0.5277 -0.4387
  507TIP3    H2 1528   1.404   2.798   2.975 -0.0337 -0.7401  0.1816
  508TIP3   OH2 1529   5.268   5.082   2.967  0.0083 -0.2442 -0.2722
  508TIP3    H1 1530   5.222   5.013   3.015 -0.3397  0.1715 -0.0001
  508TIP3    H2 1531   5.220   5.162   2.989  0.7087  0.1591 -0.1956
  509TIP3   OH2 1532   4.910   2.416   5.038  0.1027 -0.8106 -0.4492
  509TIP3    H1 1533   4.879   2.355   4.971 -0.1679 -0.8597 -0.2818
  509TIP3    H2 1534   4.861   2.392   5.117  3.3650 -3.5576  0.9808
  510TIP3   OH2 1535   0.872   5.301   0.472 -0.0964  0.0595  0.3745
  510TIP3    H1 1536   0.949   5.300   0.414 -0.4820  2.7675 -0.2974
  510TIP3    H2 1537   0.831   5.215   0.457  1.1962 -0.3244 -1.4559
  511TIP3   OH2 1538   3.348   4.745   3.092 -0.0152  0.3779  0.2785
  511TIP3    H1 1539   3.264   4.768   3.052 -0.9379 -1.8250  0.7823
  511TIP3    H2 1540   3.337   4.768   3.184  0.0690  0.3812  0.2876
  512TIP3   OH2 1541   2.086   5.247   4.807  0.0958  0.0137 -0.2934
  512TIP3    H1 1542   2.168   5.273   4.848 -0.0699  0.4208 -0.2176
  512TIP3    H2 1543   2.018   5.283   4.864 -0.1884 -2.5134  1.1426
  513TIP3   OH2 1544   4.400   5.551   3.023  0.1750 -0.3440  0.5911
  513TIP3    H1 1545   4.305   5.543   3.036  0.4032 -0.9466  2.1057
  513TIP3    H2 1546   4.424   5.631   3.069  0.1880  0.7710 -1.2574
  514TIP3   OH2 1547   1.142   5.738   3.936 -0.5021  0.2487  0.0591
  514TIP3    H1 1548   1.195   5.665   3.968 -2.1642 -1.7752 -1.5508
  514TIP3    H2 1549   1.179   5.815   3.979  2.1851 -1.3411  0.8220
  515TIP3   OH2 1550   5.897   1.718   1.844  0.4838 -0.1627  0.1173
  515TIP3    H1 1551   5.830   1.774   1.805 -0.3907 -0.5507  1.0231
  515TIP3    H2 1552   5.864   1.698   1.931  1.7697 -0.3983  0.5713
  516TIP3   OH2 1553   3.984   0.080   2.581 -0.5523 -0.3900  0.0316
  516TIP3    H1 1554   3.920   0.116   2.641  1.0882  1.8957  0.5826
  516TIP3    H2 1555   4.006   0.154   2.523  1.1581 -1.2206 -0.4559
  517TIP3   OH2 1556   2.270   1.787   1.237 -0.2395  0.0039  0.1579
  517TIP3    H1 1557   2.223   1.864   1.207  1.6195  0.7725 -0.9714
  517TIP3    H2 1558   2.314   1.816   1.317 -0.2185 -0.1470  0.2014
  518TIP3   OH2 1559   6.320   1.813   0.611 -0.5469 -0.0316 -0.4645
  518TIP3    H1 1560   6.298   1.744   0.549  1.8923 -0.1787 -1.2768
  518TIP3    H2 1561   6.331   1.768   0.695 -0.2098 -0.4647 -0.7320
  519TIP3   OH2 1562   3.592   3.644   3.734  0.1879  0.2052 -0.5304
  519TIP3    H1 1563   3.542   3.702   3.676 -0.0596 -0.3772 -0.9069
  519TIP3    H2 1564   3.556   3.557   3.717  0.1533  0.0196  0.4603
  520TIP3   OH2 1565   2.571   4.636   4.397  0.0678  0.6100  0.0844
  520TIP3    H1 1566   2.652   4.687   4.404 -0.2758  0.9739  1.9829
  520TIP3    H2 1567   2.502   4.700   4.413 -0.4671 -0.1065  0.6641
  521TIP3   OH2 1568   4.622   0.531   5.063  0.2478 -0.4856 -0.0203
  521TIP3    H1 1569   4.661   0.614   5.090 -0.8562  0.0450 -0.0089
  521TIP3    H2 1570   4.630   0.474   5.139  0.9522 -0.3712 -0.0076
  522TIP3   OH2 1571   3.753   0.600   1.517 -0.1453  0.6639 -0.6949
  522TIP3    H1 1572   3.836   0.566   1.550  0.8075  2.0435 -1.6066
  522TIP3    H2 1573   3.687   0.559   1.573  1.2340  0.7946  1.1117
  523TIP3   OH2 1574   1.419   4.286   2.037  0.5339  0.0622 -0.2105
  523TIP3    H1 1575   1.336   4.326   2.012 -0.2482 -1.3883 -0.0420
  523TIP3    H2 1576   1.478   4.360   2.052 -0.8688  1.1438  0.1992
  524TIP3   OH2 1577   4.801   4.980   0.571  0.1165  0.2108 -0.6578
  524TIP3    H1 1578   4.868   4.937   0.517  0.1147  0.2026 -0.6534
  524TIP3    H2 1579   4.780   4.916   0.639  0.5019  0.4279 -0.3295
  525TIP3   OH2 1580   5.370   5.135   4.190  0.7194 -0.6168  0.3933
  525TIP3    H1 1581   5.451   5.147   4.241  0.5500 -2.9182  1.3016
  525TIP3    H2 1582   5.359   5.040   4.185 -0.8271 -0.3838 -1.5343
  526TIP3   OH2 1583   1.114   4.220   3.826 -0.0216 -0.3815 -0.0554
  526TIP3    H1 1584   1.114   4.281   3.752  1.5990 -1.1197 -0.7141
  526TIP3    H2 1585   1.164   4.265   3.894 -1.4358  0.2594  0.6072
  527TIP3   OH2 1586   2.712   3.219   4.546  0.4991  0.1330  0.1976
  527TIP3    H1 1587   2.627   3.261   4.533  0.3946  1.8079  4.7212
  527TIP3    H2 1588   2.691   3.127   4.561 -0.3253  0.2669 -0.0892
  528TIP3   OH2 1589   6.144   4.509   2.758 -0.0176  0.5320  0.0945
  528TIP3    H1 1590   6.199   4.431   2.762 -0.5909  0.0920 -0.2769
  528TIP3    H2 1591   6.056   4.475   2.738 -0.6179  1.1204  1.5991
  529TIP3   OH2 1592   2.624   2.044   4.985  0.0158 -0.1487 -0.4430
  529TIP3    H1 1593   2.662   2.095   5.057 -0.3331  1.5740 -1.4399
  529TIP3    H2 1594   2.530   2.041   5.005 -0.0017 -0.1613 -0.5300
  530TIP3   OH2 1595   0.236   1.313   4.341  0.2404 -0.1584  0.2640
  530TIP3    H1 1596   0.329   1.320   4.318  1.1077  0.0012  3.2768
  530TIP3    H2 1597   0.206   1.403   4.351 -0.9383 -0.1163 -2.7364
  531TIP3   OH2 1598   5.828   0.484   2.488 -0.1600 -0.3568 -0.2412
  531TIP3    H1 1599   5.772   0.534   2.428  0.0011 -0.2085 -0.2693
  531TIP3    H2 1600   5.917   0.511   2.465 -0.0652 -0.7368 -0.3270
  532TIP3   OH2 1601   4.602   0.814   2.214 -0.0108 -0.7034 -0.3172
  532TIP3    H1 1602   4.640   0.900   2.195  0.7493 -1.1059 -0.6613
  532TIP3    H2 1603   4.657   0.779   2.284  0.4083 -1.3874 -0.9755
  533TIP3   OH2 1604   5.889   3.348   5.056  0.1264  0.4916 -0.0748
  533TIP3    H1 1605   5.907   3.383   5.143 -1.1338 -1.3003  0.9979
  533TIP3    H2 1606   5.970   3.305   5.030 -0.6762 -2.9687  2.3588
  534TIP3   OH2 1607   0.663   3.849   3.545  0.7186  0.3055 -0.0592
  534TIP3    H1 1608   0.694   3.905   3.473  1.0570  0.9170  0.5584
  534TIP3    H2 1609   0.587   3.805   3.508  2.4972 -1.5586 -1.7643
  535TIP3   OH2 1610   5.617   2.288   3.025  0.4197 -0.2189  0.1009
  535TIP3    H1 1611   5.560   2.237   2.968 -0.8006  0.0190  1.0650
  535TIP3    H2 1612   5.625   2.373   2.981 -0.9401  0.1452  0.4919
  536TIP3   OH2 1613   2.342   1.968   0.922  0.4342  0.4808 -0.1733
  536TIP3    H1 1614   2.395   1.968   1.001  0.9467  2.6066 -0.4608
  536TIP3    H2 1615   2.390   1.913   0.860 -0.1731 -1.5362  1.0499
  537TIP3   OH2 1616   3.867   4.915   0.042 -0.3484 -0.1830 -0.2969
  537TIP3    H1 1617   3.834   4.826   0.030 -0.5183 -0.0390 -0.9391
  537TIP3    H2 1618   3.962   4.908   0.034 -0.4471 -0.0797 -1.9736
  538TIP3   OH2 1619   2.631   2.343   2.338  0.2415  0.1320  0.3045
  538TIP3    H1 1620   2.557   2.399   2.361 -0.3992 -0.0430 -1.1952
  538TIP3    H2 1621   2.594   2.255   2.333  0.7142 -0.0686  0.2696
  539TIP3   OH2 1622   2.738   1.271   3.396 -0.0242 -0.7989  0.7775
  539TIP3    H1 1623   2.729   1.305   3.308 -0.0881  0.4288  1.2435
  539TIP3    H2 1624   2.792   1.192   3.386  0.7636 -0.1552 -0.2414
  540TIP3   OH2 1625   4.060   3.892   3.137  0.2784  0.3241  0.4012
  540TIP3    H1 1626   4.015   3.870   3.056  1.3284  1.6034 -0.5657
  540TIP3    H2 1627   4.010   3.964   3.174 -0.7170 -0.8273  1.3970
  541TIP3   OH2 1628   4.255   4.462   1.536 -0.2300 -0.1736 -0.1943
  541TIP3    H1 1629   4.274   4.555   1.546 -2.6812  0.3311  0.4097
  541TIP3    H2 1630   4.283   4.423   1.619 -0.1698  0.2108 -0.0321
  542TIP3   OH2 1631   5.045   1.314   1.286 -0.3473  0.6945  0.6321
  542TIP3    H1 1632   5.033   1.220   1.298 -0.8366  0.8087  1.1004
  542TIP3    H2 1633   4.960   1.352   1.309  0.3561  1.3957  2.2425
  543TIP3   OH2 1634   3.193   5.790   1.675  0.2054 -0.2066 -0.2348
  543TIP3    H1 1635   3.171   5.803   1.583 -0.5135 -1.8280 -0.3166
  543TIP3    H2 1636   3.198   5.695   1.686 -0.4143 -0.0721  1.5521
  544TIP3   OH2 1637   5.445   0.479   2.409 -0.2421 -0.1166  0.1221
  544TIP3    H1 1638   5.456   0.457   2.502 -0.4407 -0.4514  0.0704
  544TIP3    H2 1639   5.423   0.395   2.368 -0.6687  0.1200 -0.1410
  545TIP3   OH2 1640   2.443   1.398   4.508 -0.0382 -0.0267 -0.0446
  545TIP3    H1 1641   2.495   1.468   4.469  0.4755 -0.1484  0.4137
  545TIP3    H2 1642   2.505   1.348   4.561 -0.4355 -0.7142 -0.2104
  546TIP3   OH2 1643   5.277   5.018   3.675  0.0923  0.3830 -0.3120
  546TIP3    H1 1644   5.360   4.971   3.678 -0.9764 -1.5259  0.5833
  546TIP3    H2 1645   5.299   5.106   3.707  1.4245 -0.6437  1.7975
  547TIP3   OH2 1646   5.021   4.718   2.835  1.0224 -0.1295 -0.2617
  547TIP3    H1 1647   5.084   4.651   2.808  0.0108 -1.4616  0.5041
  547TIP3    H2 1648   4.953   4.714   2.767 -1.0923 -2.8750  1.7731
  548TIP3   OH2 1649   5.123   2.637   5.088 -0.2227 -0.1912 -0.3475
  548TIP3    H1 1650   5.214   2.612   5.070  0.8861  1.2737  2.5646
  548TIP3    H2 1651   5.072   2.560   5.062  1.8118 -1.0740 -2.0614
  549TIP3   OH2 1652   5.143   4.031   0.324  0.4051  0.6134 -0.3328
  549TIP3    H1 1653   5.228   4.062   0.292  1.1981 -0.2592  0.8230
  549TIP3    H2 1654   5.150   4.036   0.419 -1.8972  3.1763 -0.1843
  550TIP3   OH2 1655   5.125   4.783   4.895 -0.2369 -0.3864  0.4716
  550TIP3    H1 1656   5.214   4.803   4.925 -0.0797  1.2718 -0.9051
  550TIP3    H2 1657   5.126   4.689   4.878  1.7508 -0.1865 -0.8767
  551TIP3   OH2 1658   3.897   1.033   4.101 -0.2986  0.3036  0.0187
  551TIP3    H1 1659   3.843   1.028   4.022  0.0600 -2.0970 -0.1496
  551TIP3    H2 1660   3.853   1.098   4.156 -1.5517  0.7286 -1.4297
  552TIP3   OH2 1661   2.650   2.128   2.020 -0.2227 -0.0929 -0.6494
  552TIP3    H1 1662   2.565   2.149   2.058 -0.1852  0.4081 -0.8325
  552TIP3    H2 1663   2.642   2.038   1.991 -0.2746 -0.4788  0.4984
  553TIP3   OH2 1664   3.951   2.088   2.730  0.2796  0.1283 -0.4118
  553TIP3    H1 1665   3.877   2.108   2.787 -0.5517 -1.3588 -0.8907
  553TIP3    H2 1666   3.914   2.086   2.642  0.9863 -0.1668 -0.7142
  554TIP3   OH2 1667   2.171   3.129   0.768  0.1981  0.3836  0.2437
  554TIP3    H1 1668   2.084   3.133   0.730 -0.5743  0.3974  1.9211
  554TIP3    H2 1669   2.201   3.040   0.749 -0.7521 -0.0726  0.8142
  555TIP3   OH2 1670   4.658   3.898   1.794 -0.0170  0.0536  0.1579
  555TIP3    H1 1671   4.627   3.895   1.704  2.3932 -1.3283 -0.7140
  555TIP3    H2 1672   4.746   3.937   1.788  0.7159 -1.2242  1.6959
  556TIP3   OH2 1673   0.827   0.564   4.861 -0.0889 -0.3827 -0.3356
  556TIP3    H1 1674   0.907   0.526   4.824 -0.0348  1.1454 -1.9014
  556TIP3    H2 1675   0.771   0.578   4.785 -1.3025 -0.1409  0.5896
  557TIP3   OH2 1676   0.353   4.748   2.938  0.2734 -0.3050 -0.1943
  557TIP3    H1 1677   0.295   4.823   2.953  1.8957  0.9958 -0.1602
  557TIP3    H2 1678   0.328   4.685   3.005 -1.2998  0.0767 -0.3843
  558TIP3   OH2 1679   2.248   4.066   2.821  0.0050 -0.4058  0.7766
  558TIP3    H1 1680   2.160   4.059   2.783  0.3637  0.1225 -0.1785
  558TIP3    H2 1681   2.236   4.116   2.902 -0.4333  0.5341  0.1405
  559TIP3   OH2 1682   5.146   4.123   2.322 -0.4471  0.2922  0.1247
  559TIP3    H1 1683   5.229   4.128   2.273 -1.0068  0.7840 -0.7981
  559TIP3    H2 1684   5.112   4.212   2.320 -1.3261 -0.0416 -0.0913
  560TIP3   OH2 1685   0.301   5.134   2.948 -0.1244  0.2634  0.0583
  560TIP3    H1 1686   0.273   5.221   2.922 -2.4317  0.5245  2.9002
  560TIP3    H2 1687   0.396   5.141   2.956 -0.1867  2.2807 -0.4688
  561TIP3   OH2 1688   0.086   1.572   1.917  0.3339  0.3442 -0.1236
  561TIP3    H1 1689  -0.008   1.578   1.900 -0.3019  0.4913  2.8107
  561TIP3    H2 1690   0.101   1.480   1.940  1.2150  0.0332 -1.7676
  562TIP3   OH2 1691   1.140   4.833   2.218 -0.3871 -0.0788 -0.2555
  562TIP3    H1 1692   1.055   4.808   2.254 -1.0665  1.8746 -0.4128
  562TIP3    H2 1693   1.123   4.913   2.168  1.6787  0.7940  0.3378
  563TIP3   OH2 1694   3.927   1.524   3.161  0.0643  0.3118 -0.1889
  563TIP3    H1 1695   3.981   1.602   3.145  1.1489 -0.6415 -1.4456
  563TIP3    H2 1696   3.947   1.466   3.088 -0.0786 -1.5161  1.1642
  564TIP3   OH2 1697   3.828   4.671   4.382 -0.0718  0.0450  0.4617
  564TIP3    H1 1698   3.914   4.637   4.409 -1.1517 -2.8003  0.5825
  564TIP3    H2 1699   3.783   4.690   4.465 -0.1976 -0.2018  0.4509
  565TIP3   OH2 1700   6.072   4.482   1.345 -0.5148 -0.2234 -0.0736
  565TIP3    H1 1701   6.063   4.561   1.398 -0.5302 -1.0454  1.1888
  565TIP3    H2 1702   6.043   4.509   1.257  1.3961  1.6817 -0.1899
  566TIP3   OH2 1703   3.662   5.326   2.498  0.0880  0.0200  0.9165
  566TIP3    H1 1704   3.665   5.288   2.586  2.1269  0.8348  1.2771
  566TIP3    H2 1705   3.754   5.342   2.477 -0.4521  1.1003 -0.8139
  567TIP3   OH2 1706   3.582   4.950   1.386  0.3649 -0.4487 -0.6534
  567TIP3    H1 1707   3.667   4.952   1.342  0.6504 -0.1674 -0.1052
  567TIP3    H2 1708   3.572   4.859   1.414  1.4116 -0.0929  1.0050
  568TIP3   OH2 1709   5.110   2.856   4.174 -0.1500  0.3618  0.2824
  568TIP3    H1 1710   5.063   2.935   4.198  0.5840  1.1019 -0.6385
  568TIP3    H2 1711   5.072   2.787   4.228 -2.5589  0.8347 -0.6917
  569TIP3   OH2 1712   2.743   5.117   3.372 -0.0657 -0.3872 -0.1508
  569TIP3    H1 1713   2.723   5.188   3.432  0.4878 -0.2093 -0.1806
  569TIP3    H2 1714   2.702   5.143   3.289  0.1514 -0.0964 -0.1672
  570TIP3   OH2 1715   4.859   5.868   1.505 -0.7770  0.0415 -0.3938
  570TIP3    H1 1716   4.907   5.794   1.469  0.0522  0.3155  0.1332
  570TIP3    H2 1717   4.806   5.830   1.576  0.6323  0.1284  0.7557
  571TIP3   OH2 1718   2.289   2.620   1.828 -0.0635  0.0629 -0.4465
  571TIP3    H1 1719   2.291   2.671   1.909  1.0079  0.0567 -0.4518
  571TIP3    H2 1720   2.285   2.686   1.759  0.3153  0.1125 -0.4229
  572TIP3   OH2 1721   1.195   2.358   1.566  0.3675 -0.0831  0.7893
  572TIP3    H1 1722   1.243   2.331   1.644  0.1038  0.8383  1.2782
  572TIP3    H2 1723   1.168   2.276   1.525  1.7868 -0.6096  0.8575
  573TIP3   OH2 1724   4.719   5.491   1.521 -0.2030  0.0295 -0.3332
  573TIP3    H1 1725   4.686   5.421   1.464  0.3887 -0.7078  0.2121
  573TIP3    H2 1726   4.652   5.500   1.589 -1.6458  1.9331 -1.9039
  574TIP3   OH2 1727   5.152   0.073   1.779  0.4524  0.2865 -0.3345
  574TIP3    H1 1728   5.187  -0.015   1.765 -0.9998 -0.1799 -1.2254
  574TIP3    H2 1729   5.119   0.073   1.869  1.5059  0.3162  0.0658
  575TIP3   OH2 1730   4.568   1.757   0.069 -0.0024  0.0262  0.0093
  575TIP3    H1 1731   4.581   1.696  -0.004  3.5773 -0.5722  0.9522
  575TIP3    H2 1732   4.518   1.707   0.133  0.0822 -0.7905 -0.5407
  576TIP3   OH2 1733   5.837   1.680   2.986  0.1974 -0.3270 -0.1467
  576TIP3    H1 1734   5.807   1.589   2.989  1.5971 -0.9233 -1.9814
  576TIP3    H2 1735   5.824   1.707   2.895 -1.6609  1.8957  0.7041
  577TIP3   OH2 1736   0.423   1.345   0.510  0.6653 -0.0975 -0.7252
  577TIP3    H1 1737   0.374   1.362   0.591  0.4237 -1.5307 -0.5436
  577TIP3    H2 1738   0.394   1.258   0.483  0.7181  0.3858 -2.3932
  578TIP3   OH2 1739   2.908   4.925   0.089 -0.0609 -0.1340  0.5362
  578TIP3    H1 1740   3.004   4.926   0.088 -0.0538  0.0803  0.9348
  578TIP3    H2 1741   2.883   5.016   0.103 -0.2994 -0.3219  1.3970
  579TIP3   OH2 1742   2.977   3.592   1.603  0.2632  0.1842 -0.3451
  579TIP3    H1 1743   3.025   3.650   1.662 -0.1937  0.3150 -0.1011
  579TIP3    H2 1744   2.945   3.650   1.533  0.7213  0.0458 -0.6774
  580TIP3   OH2 1745   1.913   0.403   3.331  0.4540 -0.1728  0.5091
  580TIP3    H1 1746   1.825   0.366   3.319  0.0960  0.0048  2.3142
  580TIP3    H2 1747   1.922   0.414   3.426  2.3193  0.1044  0.3388
  581TIP3   OH2 1748   1.465   3.578   0.648  0.2101 -0.0451  0.4605
  581TIP3    H1 1749   1.491   3.597   0.738  1.1695  0.6052  0.0590
  581TIP3    H2 1750   1.455   3.663   0.607 -3.4545 -0.1424  0.7550
  582TIP3   OH2 1751   5.250   0.246   5.082 -0.2178  0.1941 -0.1647
  582TIP3    H1 1752   5.210   0.194   5.151 -0.0978  0.1953 -0.0937
  582TIP3    H2 1753   5.299   0.183   5.029 -0.0717  0.2340 -0.0780
  583TIP3   OH2 1754   4.779   4.364   2.175 -0.0601 -0.0783 -0.4284
  583TIP3    H1 1755   4.720   4.379   2.248  1.2608 -0.3768  0.7356
  583TIP3    H2 1756   4.749   4.425   2.107 -1.0762  0.4605  0.4740
  584TIP3   OH2 1757   4.320   3.377   3.638 -0.7167  0.1044  0.2410
  584TIP3    H1 1758   4.332   3.468   3.611 -0.9682  0.0979  0.0991
  584TIP3    H2 1759   4.408   3.339   3.637 -0.6473  0.2706  0.0302
  585TIP3   OH2 1760   2.045   0.256   0.644 -0.6398  0.6163 -0.0775
  585TIP3    H1 1761   2.001   0.327   0.597 -1.2213  0.4016  0.1319
  585TIP3    H2 1762   1.979   0.223   0.705  0.0166  0.6988  0.6875
  586TIP3   OH2 1763   5.051   0.320   0.285 -0.5440  0.0066 -0.0679
  586TIP3    H1 1764   4.980   0.384   0.290 -0.8943 -0.3805 -0.0891
  586TIP3    H2 1765   5.009   0.240   0.253 -0.2745 -0.4921  0.8176
  587TIP3   OH2 1766   1.638   4.889   1.239 -0.2196 -0.2323  0.1013
  587TIP3    H1 1767   1.706   4.822   1.251  0.8976  0.7673 -0.4798
  587TIP3    H2 1768   1.620   4.887   1.145 -0.0563  0.3899  0.0544
  588TIP3   OH2 1769   4.352   3.808   1.998 -0.5260 -0.7744 -0.3150
  588TIP3    H1 1770   4.442   3.779   2.015 -0.3031 -0.3643 -0.7696
  588TIP3    H2 1771   4.306   3.790   2.080 -0.1448 -1.4142 -0.2278
  589TIP3   OH2 1772   3.968   4.420   4.489  0.4846 -0.2127  0.0593
  589TIP3    H1 1773   3.931   4.393   4.573  2.3984  1.6159  1.5868
  589TIP3    H2 1774   3.977   4.338   4.439 -1.4626 -1.2270  1.2676
  590TIP3   OH2 1775   0.709   1.251   1.842  0.0000 -0.8500 -0.0157
  590TIP3    H1 1776   0.664   1.176   1.880 -1.8289 -0.6703 -1.6931
  590TIP3    H2 1777   0.699   1.321   1.907 -1.7495 -0.9670 -0.1231
  591TIP3   OH2 1778   5.467   4.537   1.794 -0.1326 -0.0588 -0.4653
  591TIP3    H1 1779   5.374   4.559   1.790 -0.1200 -0.1795 -2.1772
  591TIP3    H2 1780   5.483   4.519   1.887 -0.8953  3.7773  0.5982
  592TIP3   OH2 1781   2.028   3.820   2.387 -0.2721  0.0632 -0.6431
  592TIP3    H1 1782   1.938   3.807   2.416 -0.4723  3.3187  0.4972
  592TIP3    H2 1783   2.021   3.871   2.307  0.5723 -0.3841 -1.0263
  593TIP3   OH2 1784   5.710   5.445   1.090 -0.2767 -0.4321  0.7340
  593TIP3    H1 1785   5.665   5.419   1.170 -1.1270  0.7299  0.6687
  593TIP3    H2 1786   5.654   5.513   1.052  0.7745 -0.0263 -0.1590
  594TIP3   OH2 1787   0.545   3.574   2.679 -0.4682  0.1754  0.2247
  594TIP3    H1 1788   0.473   3.511   2.677 -1.2173  1.0236 -0.3250
  594TIP3    H2 1789   0.519   3.643   2.618  1.1908  0.1039 -0.6353
  595TIP3   OH2 1790   6.001   2.607   1.988  0.2923  0.3649  0.2375
  595TIP3    H1 1791   5.979   2.675   2.051 -1.0575  0.0928  0.0978
  595TIP3    H2 1792   6.081   2.637   1.947  0.1826  1.4480  0.7859
  596TIP3   OH2 1793   3.252   3.427   4.723 -0.6221 -0.0853  0.2389
  596TIP3    H1 1794   3.211   3.484   4.658 -2.4951 -0.8411  0.6852
  596TIP3    H2 1795   3.272   3.486   4.797 -0.2603  0.4228 -0.2564
  597TIP3   OH2 1796   5.992   4.224   1.724 -0.1097  0.0019  0.2320
  597TIP3    H1 1797   6.024   4.134   1.735 -0.3333 -0.0333  0.6567
  597TIP3    H2 1798   5.936   4.220   1.646  0.7946  0.0383 -0.4339
  598TIP3   OH2 1799   1.505   4.832   5.119 -0.1865  0.1686  0.7258
  598TIP3    H1 1800   1.566   4.896   5.084 -1.4394  1.1534  0.2796
  598TIP3    H2 1801   1.428   4.838   5.062 -1.3963  0.2059  2.2934
  599TIP3   OH2 1802   4.504   0.593   3.600 -0.0416  0.0048 -0.2294
  599TIP3    H1 1803   4.529   0.685   3.601  1.3257 -0.2485 -2.4358
  599TIP3    H2 1804   4.576   0.549   3.646 -1.3687  0.0938  2.0647
  600TIP3   OH2 1805   5.701   5.760   3.418  0.1723  0.6348 -0.2762
  600TIP3    H1 1806   5.637   5.702   3.461  0.5310 -0.5166 -1.2382
  600TIP3    H2 1807   5.784   5.713   3.425  0.2226  0.3082 -2.3159
  601TIP3   OH2 1808   2.313   2.535   0.423  0.0436  0.3456  0.8774
  601TIP3    H1 1809   2.400   2.562   0.396  0.0041 -1.1691 -0.9937
  601TIP3    H2 1810   2.328   2.472   0.494  0.6395 -1.1795 -0.5256
  602TIP3   OH2 1811   1.642   1.143   3.914  0.4373  0.7725  0.1143
  602TIP3    H1 1812   1.568   1.172   3.861  0.1843  0.1646  0.1279
  602TIP3    H2 1813   1.718   1.151   3.857  0.5374  2.3589  0.4072
  603TIP3   OH2 1814   0.775   1.881   4.702  0.3384  0.4510  0.3254
  603TIP3    H1 1815   0.780   1.786   4.714  1.7127  0.4383 -0.1302
  603TIP3    H2 1816   0.863   1.912   4.722 -0.2011  1.6877  0.8487
  604TIP3   OH2 1817   1.553   3.872   4.167  0.2354  0.0327 -0.2738
  604TIP3    H1 1818   1.648   3.858   4.170  0.3754  1.0040  0.8395
  604TIP3    H2 1819   1.525   3.862   4.258 -0.2593  2.4771 -0.0832
  605TIP3   OH2 1820   2.317   5.220   2.826  0.2945 -0.1329 -0.6278
  605TIP3    H1 1821   2.255   5.235   2.897 -0.5756  1.1815 -1.6254
  605TIP3    H2 1822   2.359   5.306   2.813  1.0687 -0.5758 -1.1316
  606TIP3   OH2 1823   6.161   4.858   2.759 -0.1699 -0.0529 -0.1705
  606TIP3    H1 1824   6.076   4.836   2.799 -0.8779  1.8504 -0.5109
  606TIP3    H2 1825   6.138   4.912   2.683  1.3545  1.0086  0.0664
  607TIP3   OH2 1826   0.415   5.466   3.553  0.0845 -0.1544 -0.1009
  607TIP3    H1 1827   0.453   5.379   3.560  0.3558 -0.0429 -0.1947
  607TIP3    H2 1828   0.328   5.457   3.593 -0.3855 -0.7736 -1.2102
  608TIP3   OH2 1829   2.722   1.683   3.042 -0.4492 -0.3178 -0.0695
  608TIP3    H1 1830   2.707   1.653   3.132 -0.6503 -0.0381 -0.0068
  608TIP3    H2 1831   2.776   1.615   3.002 -0.0077 -0.2432  0.3929
  609TIP3   OH2 1832   3.281   1.370   4.755  0.3640 -0.0450 -0.0934
  609TIP3    H1 1833   3.344   1.380   4.683 -1.3120 -0.1300 -1.6328
  609TIP3    H2 1834   3.209   1.320   4.717 -1.2734  1.2432  1.1810
  610TIP3   OH2 1835   1.645   5.573   2.316 -0.5556  0.2944 -0.6468
  610TIP3    H1 1836   1.616   5.488   2.349 -0.8578  0.1988 -1.1528
  610TIP3    H2 1837   1.735   5.581   2.346 -1.0807  0.5973  0.9531
  611TIP3   OH2 1838   2.168   5.451   3.274 -0.4962  0.3579  0.2556
  611TIP3    H1 1839   2.255   5.412   3.274 -1.2268 -1.3498 -0.6386
  611TIP3    H2 1840   2.156   5.483   3.363  0.8840  0.3000  0.4880
  612TIP3   OH2 1841   1.738   5.486   0.032 -0.3052  0.1877 -0.1673
  612TIP3    H1 1842   1.806   5.432   0.072 -0.2976  0.0876 -0.3146
  612TIP3    H2 1843   1.686   5.424  -0.021 -1.5913 -0.0812  1.3196
  613TIP3   OH2 1844   4.180   2.426   2.167  0.3088 -0.0301 -0.4501
  613TIP3    H1 1845   4.104   2.427   2.110  0.7155 -0.9834 -1.0258
  613TIP3    H2 1846   4.247   2.474   2.118 -0.2530  1.9494  0.5893
  614TIP3   OH2 1847   4.942   2.884   4.665 -0.2706  0.4649 -0.2807
  614TIP3    H1 1848   4.947   2.813   4.600  0.2553  2.0563 -2.0909
  614TIP3    H2 1849   5.007   2.861   4.731  0.2375 -0.4983 -1.0880
  615TIP3   OH2 1850   0.610   4.637   1.900  0.0648 -0.1326  0.0317
  615TIP3    H1 1851   0.662   4.679   1.831  0.6858  0.4407  0.8225
  615TIP3    H2 1852   0.544   4.587   1.853  0.3685  0.3780 -0.9777
  616TIP3   OH2 1853   0.176   2.265   3.241 -0.1059  0.1013 -0.8015
  616TIP3    H1 1854   0.262   2.258   3.283 -1.1958 -3.2310  1.2949
  616TIP3    H2 1855   0.174   2.192   3.179 -1.1458  0.5928 -1.3552
  617TIP3   OH2 1856   4.878   5.452   2.525 -0.0848 -0.2323  0.1044
  617TIP3    H1 1857   4.816   5.384   2.549  0.2568 -0.6248 -0.1169
  617TIP3    H2 1858   4.942   5.408   2.469 -0.0063  0.3229 -0.2539
  618TIP3   OH2 1859   5.793   2.586   1.747  0.9089 -0.4789 -0.4363
  618TIP3    H1 1860   5.794   2.678   1.775  1.0346 -0.4899 -0.4037
  618TIP3    H2 1861   5.815   2.537   1.826  0.2832 -0.5740 -0.3171
  619TIP3   OH2 1862   3.642   3.722   1.791  0.3701 -0.2084 -0.3474
  619TIP3    H1 1863   3.592   3.651   1.830  0.2931  0.3986  0.6858
  619TIP3    H2 1864   3.682   3.683   1.714  1.2321 -1.6902  0.7967
  620TIP3   OH2 1865   5.766   2.336   5.125 -0.4949  0.0344 -0.2696
  620TIP3    H1 1866   5.674   2.311   5.135 -0.5406  0.0887 -0.5649
  620TIP3    H2 1867   5.783   2.331   5.031  0.6314 -2.8066 -0.0092
  621TIP3   OH2 1868   3.906   3.180   0.427  0.0220  0.4320  0.1658
  621TIP3    H1 1869   3.951   3.096   0.430  2.9625  1.9271  1.0716
  621TIP3    H2 1870   3.919   3.211   0.337 -3.0621 -0.9369 -0.9174
  622TIP3   OH2 1871   4.231   0.262   3.016 -0.0298  0.0115 -0.1349
  622TIP3    H1 1872   4.282   0.332   2.975 -2.0536  0.4894 -2.0610
  622TIP3    H2 1873   4.258   0.183   2.970  0.5328 -0.1034  0.3818
  623TIP3   OH2 1874   6.061   4.505   3.977 -0.1880 -0.3540  0.2921
  623TIP3    H1 1875   6.100   4.507   4.065 -0.7453  0.5777  0.5343
  623TIP3    H2 1876   5.996   4.575   3.979 -0.0005 -0.1250 -0.9610
  624TIP3   OH2 1877   4.852   4.723   0.130  0.3788 -0.5112  0.0603
  624TIP3    H1 1878   4.795   4.725   0.052 -2.0902 -0.9916  1.7315
  624TIP3    H2 1879   4.899   4.640   0.123 -0.7452 -1.1391 -0.3388
  625TIP3   OH2 1880   5.370   4.836   4.990  0.2141  0.5239 -0.0818
  625TIP3    H1 1881   5.402   4.751   5.022  0.0952  0.9579  1.2385
  625TIP3    H2 1882   5.450   4.889   4.980  0.0540  1.4793  2.8370
  626TIP3   OH2 1883   1.215   5.013   3.264  0.8785 -0.2605  0.4688
  626TIP3    H1 1884   1.243   5.103   3.272 -0.6160  0.1553  1.5135
  626TIP3    H2 1885   1.264   4.978   3.190  0.9518  1.6169 -0.4026
  627TIP3   OH2 1886   0.882   4.135   1.481 -0.2061 -0.3005  0.1784
  627TIP3    H1 1887   0.957   4.129   1.540  0.7499  2.3835 -0.6089
  627TIP3    H2 1888   0.825   4.201   1.521 -0.2102  0.5443 -1.1459
  628TIP3   OH2 1889   3.146   1.071   1.436  0.2721 -0.6350  0.2591
  628TIP3    H1 1890   3.091   1.040   1.508 -1.2174 -0.1662 -0.6239
  628TIP3    H2 1891   3.182   1.153   1.467 -2.1823  0.7455 -0.2777
  629TIP3   OH2 1892   0.379   2.412   2.999 -0.2675 -0.3865  0.5740
  629TIP3    H1 1893   0.294   2.416   3.042 -0.0448  0.3360  0.9579
  629TIP3    H2 1894   0.424   2.492   3.025  1.2439 -1.5703  1.8533
  630TIP3   OH2 1895   3.664   4.970   0.758  0.3216 -0.1153  0.4039
  630TIP3    H1 1896   3.620   4.891   0.788  0.6762 -0.0918  0.9985
  630TIP3    H2 1897   3.600   5.040   0.771 -0.5557 -0.4916 -1.5135
  631TIP3   OH2 1898   5.852   3.347   4.583  0.1235 -0.5621 -0.6095
  631TIP3    H1 1899   5.756   3.342   4.588  0.1523 -1.2466 -0.6909
  631TIP3    H2 1900   5.882   3.275   4.639  0.5989 -0.0718 -0.2288
  632TIP3   OH2 1901   6.094   5.643   2.389 -0.2954  0.1701  0.4969
  632TIP3    H1 1902   6.108   5.731   2.426  0.4675 -0.3316  1.4483
  632TIP3    H2 1903   6.155   5.637   2.316  0.5254  0.0090  1.1813
  633TIP3   OH2 1904   1.970   2.138   2.619 -0.6010 -1.0171 -0.6028
  633TIP3    H1 1905   1.937   2.197   2.687 -0.7183  0.0446 -1.5518
  633TIP3    H2 1906   2.059   2.117   2.648  0.0557  0.9378 -0.9999
  634TIP3   OH2 1907   1.540   1.101   0.979  0.5994 -0.1449 -0.2629
  634TIP3    H1 1908   1.594   1.136   0.908 -0.3932  0.9417 -0.5195
  634TIP3    H2 1909   1.537   1.172   1.043  0.1886 -0.5205  0.1356
  635TIP3   OH2 1910   5.014   0.477   3.629  0.9491  0.4912  0.0826
  635TIP3    H1 1911   5.088   0.484   3.690  0.0518  1.4532  1.1177
  635TIP3    H2 1912   5.021   0.554   3.573  0.5601  0.7575  0.3945
  636TIP3   OH2 1913   1.563   5.834   4.923 -0.2490  0.5062  0.2296
  636TIP3    H1 1914   1.486   5.887   4.941 -0.7844  0.2216 -1.1345
  636TIP3    H2 1915   1.540   5.782   4.847  1.1193  0.0396  0.0959
  637TIP3   OH2 1916   1.978   5.245   0.371 -0.3870 -0.0463 -0.6298
  637TIP3    H1 1917   1.995   5.252   0.465  0.6034  0.9130 -0.8649
  637TIP3    H2 1918   1.896   5.195   0.366 -1.4140  1.3623  0.8226
  638TIP3   OH2 1919   4.315   2.884   4.961 -0.1189  0.3313  0.1182
  638TIP3    H1 1920   4.248   2.863   4.895 -0.0820  1.1313 -0.1764
  638TIP3    H2 1921   4.363   2.802   4.972 -2.7250 -1.0787  2.2170
  639TIP3   OH2 1922   5.972   3.019   4.491  0.7773 -0.7725 -0.6883
  639TIP3    H1 1923   5.979   3.015   4.587  0.8065 -0.5473 -0.6801
  639TIP3    H2 1924   5.878   3.032   4.475  0.9148  0.3261 -0.6466
  640TIP3   OH2 1925   5.593   1.606   4.096  0.2612 -0.1192 -0.1657
  640TIP3    H1 1926   5.555   1.618   4.009  0.5664  0.3859 -0.2361
  640TIP3    H2 1927   5.680   1.645   4.089  0.3979 -0.3409  0.2846
  641TIP3   OH2 1928   1.593   4.337  -0.016  0.3216  0.1640 -0.1704
  641TIP3    H1 1929   1.574   4.331   0.078  0.5647  0.3881 -0.1038
  641TIP3    H2 1930   1.626   4.427  -0.027 -1.4050  0.7649 -0.7723
  642TIP3   OH2 1931   1.267   4.461   3.951 -0.5490  0.5896 -0.2164
  642TIP3    H1 1932   1.362   4.449   3.945 -0.3657  1.7880  0.1387
  642TIP3    H2 1933   1.255   4.555   3.961 -1.6983  0.3193  1.3289
  643TIP3   OH2 1934   3.276   5.105   1.640 -0.2574 -0.3033  0.3327
  643TIP3    H1 1935   3.246   5.153   1.718 -1.5337  1.2092 -1.0158
  643TIP3    H2 1936   3.372   5.105   1.647 -0.3439 -0.2202  1.8882
  644TIP3   OH2 1937   2.078   3.040   1.697  0.3071 -0.2361 -0.3314
  644TIP3    H1 1938   2.144   2.997   1.752 -0.2354  0.0803  0.5794
  644TIP3    H2 1939   2.029   3.096   1.757  0.4618  1.0295 -1.3539
  645TIP3   OH2 1940   3.832   5.131   1.525 -0.4526 -0.0131  0.0445
  645TIP3    H1 1941   3.923   5.104   1.541 -0.7596 -0.9343  0.3038
  645TIP3    H2 1942   3.835   5.176   1.441  0.2226 -0.1940 -0.0357
  646TIP3   OH2 1943   4.433   5.529   2.208  0.4077 -0.0701 -0.1537
  646TIP3    H1 1944   4.431   5.602   2.147  1.1217  1.0801  1.1457
  646TIP3    H2 1945   4.526   5.506   2.215  0.4178  0.2481  0.9637
  647TIP3   OH2 1946   1.739   5.269   1.859 -0.4903  0.1689  0.1681
  647TIP3    H1 1947   1.814   5.286   1.916 -0.5706 -0.6910  0.5515
  647TIP3    H2 1948   1.775   5.217   1.788 -0.6118  0.2611  0.0403
  648TIP3   OH2 1949   4.903   0.841   3.733 -0.0393 -0.1716 -0.3273
  648TIP3    H1 1950   4.882   0.778   3.664  1.1591 -0.2393 -0.6652
  648TIP3    H2 1951   4.976   0.892   3.696 -0.7948  1.2233  0.0437
  649TIP3   OH2 1952   4.087   4.478   2.388  0.1536  0.0696  0.8352
  649TIP3    H1 1953   4.116   4.565   2.415 -0.6251  0.2325  1.1828
  649TIP3    H2 1954   4.064   4.487   2.296  1.7106 -0.2017  0.3888
  650TIP3   OH2 1955   5.524   1.795   2.597  0.0164  0.3606 -0.3551
  650TIP3    H1 1956   5.457   1.854   2.563 -1.0781 -0.0797  0.9690
  650TIP3    H2 1957   5.532   1.819   2.690 -1.7766 -2.7016  0.7191
  651TIP3   OH2 1958   4.818   3.250   4.112 -0.1933  0.3144 -0.2008
  651TIP3    H1 1959   4.884   3.281   4.050  0.5078  1.8974  1.2409
  651TIP3    H2 1960   4.859   3.176   4.157  0.8856  1.6037  1.0455
  652TIP3   OH2 1961   3.654   2.461   4.005 -0.1106 -0.4689 -0.2906
  652TIP3    H1 1962   3.652   2.555   4.023  0.3346 -0.1642 -1.7279
  652TIP3    H2 1963   3.746   2.437   4.013  0.0815 -0.3532 -1.9004
  653TIP3   OH2 1964   2.150   5.322   3.029 -0.4153 -0.0900  0.1096
  653TIP3    H1 1965   2.144   5.386   3.100  0.4149  1.2668 -0.9840
  653TIP3    H2 1966   2.082   5.348   2.968  0.2560  0.0639 -0.5831
  654TIP3   OH2 1967   1.752   0.900   2.662 -0.1456 -0.0853 -0.2566
  654TIP3    H1 1968   1.724   0.987   2.633 -2.3000 -0.8266 -0.5841
  654TIP3    H2 1969   1.832   0.916   2.712  0.4980  1.8701 -1.7712
  655TIP3   OH2 1970   3.866   2.587   3.356 -0.1530 -0.2275  0.0609
  655TIP3    H1 1971   3.846   2.559   3.445  0.4799 -0.1767  0.2253
  655TIP3    H2 1972   3.787   2.631   3.326 -0.6203 -0.8664  0.3417
  656TIP3   OH2 1973   5.443   2.073   2.353  0.2286  0.0276 -0.6060
  656TIP3    H1 1974   5.353   2.100   2.338  0.0819 -0.8625 -1.3867
  656TIP3    H2 1975   5.465   2.111   2.438 -0.0811  2.2373 -1.4587
  657TIP3   OH2 1976   0.471   1.296   1.255 -0.1194 -0.2818 -0.1195
  657TIP3    H1 1977   0.423   1.367   1.297  0.1149  0.4188 -0.9952
  657TIP3    H2 1978   0.563   1.321   1.264 -0.0035 -0.7850  0.1104
  658TIP3   OH2 1979   5.715   3.856   4.846 -0.2767 -0.3515  0.0016
  658TIP3    H1 1980   5.682   3.805   4.921  0.1526  0.4984  0.7823
  658TIP3    H2 1981   5.701   3.947   4.871 -0.6559 -0.0613 -1.2133
  659TIP3   OH2 1982   4.185   0.559   2.368 -0.6104  0.5474 -0.3511
  659TIP3    H1 1983   4.201   0.468   2.393 -0.5051  1.0768  1.6895
  659TIP3    H2 1984   4.164   0.555   2.274 -2.0611 -1.7477 -0.0110
  660TIP3   OH2 1985   3.949   1.036   3.682 -0.5016 -0.2058 -0.0454
  660TIP3    H1 1986   3.911   1.057   3.597 -1.3794  0.5845  0.5162
  660TIP3    H2 1987   3.901   1.091   3.744 -1.3678 -2.2863  1.2403
  661TIP3   OH2 1988   4.039   4.826   2.925 -0.5914  0.4648 -0.6495
  661TIP3    H1 1989   4.108   4.891   2.915 -1.2307  1.2431 -0.1191
  661TIP3    H2 1990   4.047   4.797   3.016 -0.8322  0.4085 -0.6469
  662TIP3   OH2 1991   6.282   5.954   0.058 -0.4083 -0.2894 -0.1011
  662TIP3    H1 1992   6.297   5.968  -0.036 -1.8026 -1.4008 -0.5299
  662TIP3    H2 1993   6.187   5.958   0.068 -0.3358 -0.9973  1.1203
  663TIP3   OH2 1994   2.126   2.845   2.382  0.4768 -0.7708 -0.0274
  663TIP3    H1 1995   2.105   2.774   2.322 -0.1418 -1.0333  0.4840
  663TIP3    H2 1996   2.067   2.917   2.357  0.1624 -0.9080  0.3073
  664TIP3   OH2 1997   2.886   3.811   2.304  0.4137 -0.0225 -0.0204
  664TIP3    H1 1998   2.863   3.725   2.341 -1.0211 -0.4780 -1.8365
  664TIP3    H2 1999   2.832   3.873   2.353 -0.5021 -0.4686 -0.4382
  665TIP3   OH2 2000   0.026   5.383   0.725 -0.0255  0.6194  0.3441
  665TIP3    H1 2001   0.105   5.430   0.699  0.3129 -0.4659 -0.7424
  665TIP3    H2 2002  -0.040   5.451   0.737  1.3868  1.6747  2.6664
  666TIP3   OH2 2003   4.174   0.779   0.921  0.1054  0.4305  0.1180
  666TIP3    H1 2004   4.198   0.762   0.830  1.1269 -0.0123  0.4547
  666TIP3    H2 2005   4.195   0.871   0.935 -0.6891  0.6783 -0.2792
  667TIP3   OH2 2006   6.202   5.898   3.128  0.4874  0.0180  0.3971
  667TIP3    H1 2007   6.147   5.965   3.168 -0.1198 -0.8123  0.9860
  667TIP3    H2 2008   6.289   5.912   3.167  0.7376  1.3587 -0.5687
  668TIP3   OH2 2009   4.543   5.991   3.523  0.2017 -0.2226 -0.3411
  668TIP3    H1 2010   4.571   5.906   3.488 -2.4524 -1.2518 -0.2261
  668TIP3    H2 2011   4.565   6.054   3.454  1.0281 -1.1908 -0.9859
  669TIP3   OH2 2012   0.940   2.467   3.991  0.0190 -0.6789  0.1561
  669TIP3    H1 2013   0.918   2.401   3.925 -0.7283 -1.6727  1.3515
  669TIP3    H2 2014   1.018   2.432   4.034  1.8659  1.0364 -1.5989
  670TIP3   OH2 2015   2.926   1.047   3.836  0.4033 -0.2138  0.6685
  670TIP3    H1 2016   2.952   0.994   3.760  0.7866  1.1254 -0.1612
  670TIP3    H2 2017   2.886   0.984   3.896 -1.1675 -1.1327 -1.2219
  671TIP3   OH2 2018   1.897   5.645   2.369  0.4796  0.6467  0.1397
  671TIP3    H1 2019   1.914   5.739   2.365  2.3546  0.4324  1.4808
  671TIP3    H2 2020   1.928   5.619   2.456  1.8865 -1.5327 -0.9186
  672TIP3   OH2 2021   0.155   1.054   0.766 -0.6490  0.0719  0.2054
  672TIP3    H1 2022   0.143   1.049   0.861  0.2461 -0.5087  0.2956
  672TIP3    H2 2023   0.249   1.068   0.755 -0.6146 -0.7748 -0.6219
  673TIP3   OH2 2024   5.834   2.722   4.610 -0.0360  0.0570 -0.6090
  673TIP3    H1 2025   5.791   2.805   4.631 -0.4765 -0.0347 -1.1141
  673TIP3    H2 2026   5.848   2.726   4.515  0.0422 -0.3992 -0.6195
  674TIP3   OH2 2027   4.302   3.676   4.738 -0.3874  0.3547 -0.0483
  674TIP3    H1 2028   4.310   3.770   4.759  2.0276  0.1827  0.1210
  674TIP3    H2 2029   4.316   3.632   4.821 -0.6709 -0.1879 -0.2856
  675TIP3   OH2 2030   3.675   3.443   2.365 -0.6726  0.6057  0.0553
  675TIP3    H1 2031   3.701   3.457   2.274  0.9056 -1.9215  0.0121
  675TIP3    H2 2032   3.580   3.435   2.361 -0.4679 -4.0137 -2.2924
  676TIP3   OH2 2033   5.784   1.816   2.730 -0.0923  0.3480  0.1535
  676TIP3    H1 2034   5.780   1.762   2.651 -0.5204  0.2018  0.2764
  676TIP3    H2 2035   5.851   1.881   2.710  0.1883 -0.0202 -0.1229
  677TIP3   OH2 2036   4.346   1.811   4.517 -0.2191  0.1510 -0.5834
  677TIP3    H1 2037   4.329   1.834   4.608 -0.3990 -0.1068 -0.5508
  677TIP3    H2 2038   4.398   1.731   4.522 -0.6938 -0.1649 -0.7170
  678TIP3   OH2 2039   3.120   1.153   2.419  0.1134  0.2994  0.1146
  678TIP3    H1 2040   3.080   1.223   2.366  1.0055  1.9347  1.4975
  678TIP3    H2 2041   3.212   1.181   2.429 -0.0492  0.1265  2.5684
  679TIP3   OH2 2042   3.024   0.772   0.421 -0.3295 -0.4030 -0.3978
  679TIP3    H1 2043   3.053   0.819   0.343 -0.0236 -0.8499 -0.5600
  679TIP3    H2 2044   3.087   0.699   0.430 -1.7847 -1.8042 -1.1453
  680TIP3   OH2 2045   6.195   1.353   1.553  0.0174 -0.0145 -0.4199
  680TIP3    H1 2046   6.119   1.318   1.601  0.9669 -1.1598  0.3020
  680TIP3    H2 2047   6.213   1.437   1.595 -0.2856 -0.1573  0.0081
  681TIP3   OH2 2048   2.895   4.902   1.784 -0.3977 -0.0293  0.1654
  681TIP3    H1 2049   2.963   4.847   1.822  0.2306  0.0113 -0.8653
  681TIP3    H2 2050   2.814   4.871   1.825  0.1604 -0.4654  0.9779
  682TIP3   OH2 2051   0.808   1.954   1.878  0.5023  0.2856  0.1020
  682TIP3    H1 2052   0.867   1.888   1.914  1.5849  0.9848 -0.3203
  682TIP3    H2 2053   0.847   2.037   1.904 -1.7068  0.8075  2.0111
  683TIP3   OH2 2054   1.010   0.602   3.411  0.0276 -0.5810 -0.3457
  683TIP3    H1 2055   0.965   0.646   3.484  0.0074 -0.5770 -0.3603
  683TIP3    H2 2056   1.089   0.653   3.397  0.0197 -0.5677 -0.3422
  684TIP3   OH2 2057   5.821   3.046   3.441  0.9289 -0.7223  0.4469
  684TIP3    H1 2058   5.793   3.035   3.532  2.6392 -0.9720  0.9692
  684TIP3    H2 2059   5.906   3.090   3.447  0.4859  0.4258 -1.0990
  685TIP3   OH2 2060   5.113   0.577   0.678  0.4020  0.5972 -0.0556
  685TIP3    H1 2061   5.178   0.622   0.731 -0.8859  1.0005  1.2389
  685TIP3    H2 2062   5.031   0.624   0.694 -0.8649 -1.7247  0.7890
  686TIP3   OH2 2063   1.867   3.924   4.840  0.2780 -0.8492  1.0255
  686TIP3    H1 2064   1.812   3.849   4.864  1.4963 -2.3207 -0.6017
  686TIP3    H2 2065   1.956   3.897   4.862  1.2521 -1.5467 -3.0437
  687TIP3   OH2 2066   0.729   2.570   2.362 -0.8768  0.0859  0.2851
  687TIP3    H1 2067   0.780   2.633   2.412 -2.8524  1.5148  0.6160
  687TIP3    H2 2068   0.639   2.604   2.365 -1.5593 -1.3365 -1.7698
  688TIP3   OH2 2069   3.169   4.505   4.087 -0.3906  0.0994  0.2512
  688TIP3    H1 2070   3.205   4.467   4.167  0.8851 -0.6943 -0.6668
  688TIP3    H2 2071   3.128   4.587   4.116  1.5335  0.7066  1.5003
  689TIP3   OH2 2072   5.743   4.033   0.150  0.1116 -0.6057  0.1195
  689TIP3    H1 2073   5.778   4.117   0.181 -1.5564  0.4737 -0.7484
  689TIP3    H2 2074   5.820   3.979   0.134  1.2767  0.9719  0.1388
  690TIP3   OH2 2075   0.727   3.650   5.093  0.3414  0.1038 -0.1072
  690TIP3    H1 2076   0.691   3.562   5.077 -0.0392  0.1440  0.4587
  690TIP3    H2 2077   0.676   3.707   5.036  0.0910  0.0411  0.0460
  691TIP3   OH2 2078   1.405   1.050   4.267 -0.4838  0.1146  0.0850
  691TIP3    H1 2079   1.387   1.133   4.312 -1.8191  0.9607 -1.8554
  691TIP3    H2 2080   1.370   0.983   4.325  1.8193  0.7216  2.3335
  692TIP3   OH2 2081   0.646   0.886   3.359  0.0679  0.0133  0.2954
  692TIP3    H1 2082   0.672   0.965   3.312  0.6602  0.5453  1.4742
  692TIP3    H2 2083   0.681   0.814   3.306  1.3850  0.6176  0.3136
  693TIP3   OH2 2084   4.168   5.650   2.214  0.2722  0.2194 -0.1892
  693TIP3    H1 2085   4.180   5.716   2.146  0.4399 -0.6066 -0.9880
  693TIP3    H2 2086   4.230   5.673   2.283  0.9614  0.3923 -0.8551
  694TIP3   OH2 2087   5.049   2.472   0.832 -0.4689  0.0900 -0.3009
  694TIP3    H1 2088   5.072   2.565   0.827 -2.5201  0.6427 -0.4948
  694TIP3    H2 2089   5.051   2.442   0.742 -0.8740  0.2480 -0.3658
  695TIP3   OH2 2090   2.317   3.312   0.609 -0.3224 -0.3775  0.1400
  695TIP3    H1 2091   2.256   3.385   0.622 -0.3869 -0.4006 -0.0202
  695TIP3    H2 2092   2.288   3.245   0.670 -0.8263 -0.6134 -0.3457
  696TIP3   OH2 2093   4.017   3.696   4.054  0.1604 -0.8779 -0.4479
  696TIP3    H1 2094   3.974   3.610   4.064 -0.7307 -0.2975  1.0209
  696TIP3    H2 2095   4.110   3.675   4.047 -0.0600 -1.9776 -0.4019
  697TIP3   OH2 2096   0.359   5.542   1.415  0.0636 -0.1704 -0.2915
  697TIP3    H1 2097   0.305   5.531   1.337 -1.6269  1.9984  0.4697
  697TIP3    H2 2098   0.297   5.561   1.485  1.6458 -0.4272  1.2563
  698TIP3   OH2 2099   4.403   3.466   1.054 -0.4296 -0.2388 -0.2108
  698TIP3    H1 2100   4.346   3.392   1.076  1.3281 -1.4630  0.4540
  698TIP3    H2 2101   4.370   3.497   0.970 -0.9488 -2.0969 -0.7610
  699TIP3   OH2 2102   1.269   3.392   0.993 -0.2080  0.2729 -0.2035
  699TIP3    H1 2103   1.173   3.397   1.003 -0.2367 -0.0564 -0.3004
  699TIP3    H2 2104   1.303   3.412   1.081 -0.3688  0.2776 -0.1415
  700TIP3   OH2 2105   1.207   1.562   3.814  0.2664 -0.1728  0.0391
  700TIP3    H1 2106   1.133   1.556   3.874  0.1907  3.0815  0.4534
  700TIP3    H2 2107   1.282   1.529   3.864 -0.5835 -2.0758  0.1308
  701TIP3   OH2 2108   5.191   1.891   0.652 -0.1066 -0.2361 -0.4094
  701TIP3    H1 2109   5.143   1.949   0.591  0.6657  1.1326  0.2314
  701TIP3    H2 2110   5.280   1.889   0.618  0.5972  1.3580  1.1389
  702TIP3   OH2 2111   4.019   1.427   4.696 -0.3705 -0.2647  0.8345
  702TIP3    H1 2112   4.039   1.358   4.759 -1.6441 -0.2792  1.2501
  702TIP3    H2 2113   4.037   1.508   4.743  0.0511 -0.2985  0.7300
  703TIP3   OH2 2114   4.510   4.558   4.719 -0.2263  0.6231 -0.1081
  703TIP3    H1 2115   4.507   4.590   4.809  1.5214  0.2958  0.1087
  703TIP3    H2 2116   4.509   4.462   4.728 -0.7715  0.5862 -0.4912
  704TIP3   OH2 2117   5.096   5.402   5.063 -0.4267 -0.5278 -0.4787
  704TIP3    H1 2118   5.080   5.418   5.156  1.5566  1.3655 -0.3743
  704TIP3    H2 2119   5.034   5.460   5.018 -0.5174 -0.4963 -0.3148
  705TIP3   OH2 2120   4.807   0.352   2.702 -0.7830  0.0555  0.3568
  705TIP3    H1 2121   4.733   0.405   2.673 -1.9313 -0.5952  1.9067
  705TIP3    H2 2122   4.846   0.403   2.773 -0.3628 -0.0518  0.2013
  706TIP3   OH2 2123   0.339   4.862   0.186 -0.1480 -0.4380 -0.0938
  706TIP3    H1 2124   0.382   4.873   0.101 -0.6323 -2.1792 -0.6260
  706TIP3    H2 2125   0.387   4.789   0.227 -1.0708 -0.8241  0.3180
  707TIP3   OH2 2126   4.800   4.641   1.190  0.1031 -0.3891  0.0427
  707TIP3    H1 2127   4.806   4.678   1.278  0.6303 -0.4681  0.0417
  707TIP3    H2 2128   4.813   4.547   1.203 -0.8231 -0.5299 -0.0025
  708TIP3   OH2 2129   3.830   3.861   2.489 -0.2132 -0.1273  0.1920
  708TIP3    H1 2130   3.896   3.803   2.451  0.3689  0.9709 -0.5197
  708TIP3    H2 2131   3.865   3.887   2.574  0.3495  0.5559 -0.2403
  709TIP3   OH2 2132   1.268   3.868   4.856 -0.7226 -0.0294 -0.3822
  709TIP3    H1 2133   1.260   3.962   4.844 -0.7056  0.0473  0.2204
  709TIP3    H2 2134   1.224   3.850   4.939 -1.6601 -0.6942 -0.9976
  710TIP3   OH2 2135   5.693   2.118   3.498  0.1111 -0.4095  0.6539
  710TIP3    H1 2136   5.773   2.164   3.526 -0.5345 -0.1328  2.1709
  710TIP3    H2 2137   5.661   2.168   3.424  1.8175 -1.0571 -0.5921
  711TIP3   OH2 2138   3.853   2.546   0.636  0.0775 -0.3738 -0.3150
  711TIP3    H1 2139   3.925   2.542   0.698  0.4234  2.6457 -0.4022
  711TIP3    H2 2140   3.890   2.510   0.555  0.2897 -2.2722  0.5746
  712TIP3   OH2 2141   5.589   3.279   4.589 -0.2561 -0.4241  0.3743
  712TIP3    H1 2142   5.526   3.262   4.659  1.6068 -0.3560  2.1483
  712TIP3    H2 2143   5.538   3.326   4.522 -1.6804  1.3510  2.5534
  713TIP3   OH2 2144   2.266   0.150   1.227  0.0106 -0.4194  0.0372
  713TIP3    H1 2145   2.243   0.160   1.135 -1.1233 -0.4264  0.3139
  713TIP3    H2 2146   2.261   0.239   1.264  1.5365 -0.2287 -0.1250
  714TIP3   OH2 2147   4.708   0.755   2.454 -0.3191 -0.0440 -0.1782
  714TIP3    H1 2148   4.657   0.824   2.498 -2.5193 -1.4323 -0.3691
  714TIP3    H2 2149   4.799   0.775   2.476 -1.0668  1.2957  2.1399
  715TIP3   OH2 2150   5.776   5.762   3.155 -0.2123 -0.5879 -0.1114
  715TIP3    H1 2151   5.720   5.737   3.228  0.2391 -0.9090  0.1341
  715TIP3    H2 2152   5.737   5.720   3.078 -1.2420  0.5344 -0.2300
  716TIP3   OH2 2153   0.628   4.301   4.636  0.0955  0.1518  0.7351
  716TIP3    H1 2154   0.689   4.373   4.623  0.2802 -0.2499 -0.7475
  716TIP3    H2 2155   0.546   4.331   4.598 -0.2705  0.1594  1.5018
  717TIP3   OH2 2156   4.903   0.816   0.682 -0.0648 -0.7726 -0.4609
  717TIP3    H1 2157   4.855   0.859   0.753 -0.2770 -0.8629 -0.5496
  717TIP3    H2 2158   4.975   0.876   0.663 -0.1245 -0.6502 -0.3056
  718TIP3   OH2 2159   4.066   1.558   0.268 -0.2520 -0.3454  0.5589
  718TIP3    H1 2160   4.107   1.472   0.280  1.6698  0.1406 -1.8811
  718TIP3    H2 2161   4.050   1.564   0.174 -1.6624  1.4465  0.8554
  719TIP3   OH2 2162   3.989   1.765   1.604  0.6064  0.5157  0.3639
  719TIP3    H1 2163   4.066   1.819   1.625  0.1146  0.7934  1.5211
  719TIP3    H2 2164   3.916   1.811   1.645 -0.0745 -0.1644 -0.0617
  720TIP3   OH2 2165   3.921   1.666   4.187 -0.0170  0.1386 -0.0810
  720TIP3    H1 2166   4.008   1.635   4.164 -0.6608  0.2230 -2.9525
  720TIP3    H2 2167   3.936   1.751   4.230  1.3625 -0.9044  1.6324
  721TIP3   OH2 2168   6.057   2.625   3.589 -0.0687 -0.4528 -0.3239
  721TIP3    H1 2169   5.989   2.665   3.644  1.1936  1.5799 -0.1422
  721TIP3    H2 2170   6.127   2.603   3.651  1.1193  1.3145 -0.9559
  722TIP3   OH2 2171   0.076   2.925   2.757  0.1881 -0.2038 -0.1453
  722TIP3    H1 2172   0.054   2.854   2.696 -1.0603  0.5309 -0.5974
  722TIP3    H2 2173   0.135   2.982   2.707 -0.1080 -0.0830 -0.3639
  723TIP3   OH2 2174   6.179   1.088   4.448  0.5870 -0.3731  0.3821
  723TIP3    H1 2175   6.094   1.116   4.414 -0.9703 -1.6534  2.9219
  723TIP3    H2 2176   6.212   1.163   4.497  2.0658  0.8930 -2.3220
  724TIP3   OH2 2177   0.396   4.206   1.858  0.0369  0.0203  0.2532
  724TIP3    H1 2178   0.376   4.113   1.847 -0.2078 -0.0525  1.1871
  724TIP3    H2 2179   0.485   4.216   1.826 -0.2736 -0.3334 -0.7814
  725TIP3   OH2 2180   2.092   2.605   1.083 -0.0203  0.4589 -0.1284
  725TIP3    H1 2181   2.094   2.699   1.099  1.4988  0.6099 -1.0648
  725TIP3    H2 2182   1.999   2.582   1.092 -0.4015  2.0020  0.2657
  726TIP3   OH2 2183   4.358   2.197   1.058 -0.2761  0.2428  0.2041
  726TIP3    H1 2184   4.406   2.248   1.123 -0.5131 -0.6946  1.1641
  726TIP3    H2 2185   4.420   2.130   1.030 -0.3409  0.3327 -0.1505
  727TIP3   OH2 2186   2.185   5.925   1.271 -0.2119  0.8358 -0.6649
  727TIP3    H1 2187   2.242   5.916   1.195  0.3930 -0.2821 -0.1065
  727TIP3    H2 2188   2.189   5.839   1.314 -0.4638  1.4813  0.6897
  728TIP3   OH2 2189   4.498   0.729   0.471  0.0467  0.1999  0.3608
  728TIP3    H1 2190   4.473   0.784   0.545 -1.2818 -0.5063  0.4717
  728TIP3    H2 2191   4.580   0.767   0.439  0.2346  0.9927  1.6941
  729TIP3   OH2 2192   1.263   0.812   4.335 -0.1209 -0.6118 -0.1474
  729TIP3    H1 2193   1.337   0.763   4.370  0.3021 -0.5043 -0.8902
  729TIP3    H2 2194   1.246   0.773   4.249 -0.7732 -0.4791 -0.0880
  730TIP3   OH2 2195   0.593   5.505   2.825  0.5877  1.0971 -0.3265
  730TIP3    H1 2196   0.653   5.447   2.777 -0.6613 -0.2049 -0.4118
  730TIP3    H2 2197   0.523   5.522   2.762 -0.6964 -0.0149  0.7324
  731TIP3   OH2 2198   1.049   2.897   1.627 -0.0506  0.0541 -0.1150
  731TIP3    H1 2199   0.991   2.829   1.662 -0.8341  1.1434  0.7599
  731TIP3    H2 2200   1.047   2.884   1.532 -1.3262 -0.2473 -0.0623
  732TIP3   OH2 2201   6.206   1.853   2.050  0.4309  0.1030  0.1279
  732TIP3    H1 2202   6.294   1.832   2.080 -0.1559 -0.8650  1.2626
  732TIP3    H2 2203   6.158   1.770   2.056 -0.4767  0.5416 -0.7624
  733TIP3   OH2 2204   4.596   0.469   2.852 -0.3708  1.1261 -0.0870
  733TIP3    H1 2205   4.514   0.453   2.899 -0.4597  0.1141 -0.5559
  733TIP3    H2 2206   4.649   0.392   2.870 -0.5210  0.5791 -1.8652
  734TIP3   OH2 2207   5.629   0.472   2.107  0.0507 -0.5265 -0.3279
  734TIP3    H1 2208   5.576   0.412   2.055 -0.8482 -0.3362  0.3400
  734TIP3    H2 2209   5.608   0.450   2.198  0.4845  0.1166 -0.0640
  735TIP3   OH2 2210   2.233   1.150   1.524 -0.0147 -0.1665 -0.0854
  735TIP3    H1 2211   2.213   1.059   1.505 -1.1369 -0.0371  0.4028
  735TIP3    H2 2212   2.148   1.195   1.522  0.1010  0.3292  2.4347
  736TIP3   OH2 2213   2.924   2.944   4.829 -0.6463  0.4287  0.3265
  736TIP3    H1 2214   2.831   2.938   4.850 -0.2257 -1.0408  2.0382
  736TIP3    H2 2215   2.966   2.972   4.910  0.3937  1.6287 -0.5646
  737TIP3   OH2 2216   2.552   1.157   4.403 -0.3119  0.0620  0.5121
  737TIP3    H1 2217   2.492   1.229   4.422 -1.3857 -0.6397 -0.0981
  737TIP3    H2 2218   2.615   1.159   4.475 -1.1327  0.7500  1.2426
  738TIP3   OH2 2219   0.625   2.326   1.491 -0.6152 -0.4757  0.1905
  738TIP3    H1 2220   0.689   2.297   1.426 -0.9104 -0.0674 -0.2929
  738TIP3    H2 2221   0.609   2.249   1.546  2.8993  0.2243  2.5849
  739TIP3   OH2 2222   4.716   2.622   1.800 -0.5843 -0.1574  0.2397
  739TIP3    H1 2223   4.699   2.666   1.717 -1.9038  1.2598  1.2124
  739TIP3    H2 2224   4.763   2.686   1.853  2.5954 -1.9041 -0.1907
  740TIP3   OH2 2225   5.663   2.495   0.812 -0.5321  0.5301 -0.0626
  740TIP3    H1 2226   5.582   2.537   0.784 -1.7235 -1.7611 -0.3396
  740TIP3    H2 2227   5.680   2.530   0.900 -3.2081 -0.6334  1.0400
  741TIP3   OH2 2228   1.968   1.204   0.465  0.3089  0.6008 -0.6649
  741TIP3    H1 2229   2.013   1.123   0.441 -0.4553 -0.3598  0.9344
  741TIP3    H2 2230   1.893   1.207   0.407  0.1731 -0.0239 -0.5369
  742TIP3   OH2 2231   0.999   0.575   1.256 -0.2536 -0.4883  0.5203
  742TIP3    H1 2232   0.930   0.604   1.196  2.0821 -0.5589 -2.4155
  742TIP3    H2 2233   1.043   0.656   1.281  0.6694 -0.6892 -0.3954
  743TIP3   OH2 2234   2.203   0.366   4.640  0.4321 -0.0310 -0.4366
  743TIP3    H1 2235   2.288   0.407   4.621  0.9485 -0.8815 -0.0005
  743TIP3    H2 2236   2.162   0.356   4.554  0.6994  0.5240 -0.6374
  744TIP3   OH2 2237   1.846   0.882   2.350  0.1847 -0.3383  0.2206
  744TIP3    H1 2238   1.766   0.930   2.329  0.9311  0.7542 -0.2237
  744TIP3    H2 2239   1.856   0.894   2.445 -0.2589 -0.6233  0.3080
  745TIP3   OH2 2240   6.024   4.100   2.700 -0.6284  0.1823 -0.3034
  745TIP3    H1 2241   6.000   4.139   2.617 -1.2735 -0.3864 -0.3961
  745TIP3    H2 2242   6.096   4.154   2.733  0.2465 -0.1260 -1.6545
  746TIP3   OH2 2243   3.409   4.730   3.751  0.5567 -0.1725  0.3134
  746TIP3    H1 2244   3.487   4.779   3.774 -1.1058  2.2902  1.0738
  746TIP3    H2 2245   3.396   4.748   3.658  1.5397 -1.6258 -0.1347
  747TIP3   OH2 2246   1.784   3.606   2.712 -0.7694 -0.0471 -0.0590
  747TIP3    H1 2247   1.794   3.701   2.715 -0.0945 -0.0738 -0.9776
  747TIP3    H2 2248   1.865   3.572   2.751 -1.1943 -0.2475  0.6607
  748TIP3   OH2 2249   3.924   0.171   3.806 -0.0009  0.7959  0.0245
  748TIP3    H1 2250   3.858   0.191   3.873 -0.9942  0.1004 -0.7028
  748TIP3    H2 2251   3.873   0.164   3.725  1.0864  0.9595 -0.6870
  749TIP3   OH2 2252   0.946   1.370   0.563 -0.3314 -0.4628 -0.7318
  749TIP3    H1 2253   0.956   1.393   0.471  0.1373 -1.4676 -0.9534
  749TIP3    H2 2254   0.855   1.342   0.571 -0.6037  0.4091 -0.6943
  750TIP3   OH2 2255   1.923   2.905   2.689 -0.1982  0.2223  0.3057
  750TIP3    H1 2256   1.923   2.810   2.676 -1.9662  0.2590 -0.2086
  750TIP3    H2 2257   1.921   2.916   2.784 -0.7626 -0.2941  0.3638
  751TIP3   OH2 2258   0.578   0.648   1.582  0.1786 -0.2526 -0.1229
  751TIP3    H1 2259   0.653   0.706   1.568 -0.0527  0.3165  0.8774
  751TIP3    H2 2260   0.568   0.644   1.677 -0.2370 -1.4007 -0.1998
  752TIP3   OH2 2261   1.935   2.332   3.140 -0.0284 -0.0065 -0.4844
  752TIP3    H1 2262   1.975   2.345   3.226 -1.3737 -0.9665  0.3109
  752TIP3    H2 2263   1.853   2.381   3.144 -0.8478 -1.3262 -0.6442
  753TIP3   OH2 2264   2.977   2.969   3.747  0.0829  0.3219  0.3112
  753TIP3    H1 2265   2.974   3.054   3.790 -0.3515  0.6927 -0.4239
  753TIP3    H2 2266   2.925   2.912   3.803 -0.1120  0.6868  0.5077
  754TIP3   OH2 2267   2.717   4.699   2.115 -0.5952 -0.1479  0.0171
  754TIP3    H1 2268   2.757   4.691   2.202 -0.5769  0.7042  0.0933
  754TIP3    H2 2269   2.703   4.793   2.103 -1.8131 -0.3487 -0.3536
  755TIP3   OH2 2270   1.361   0.601   1.488  0.3712  0.0050  0.2315
  755TIP3    H1 2271   1.268   0.579   1.491  0.0972  1.1250  0.2276
  755TIP3    H2 2272   1.375   0.636   1.400  0.7386  0.0951  0.3228
  756TIP3   OH2 2273   1.433   2.028   4.013 -0.2702 -0.0741  0.4183
  756TIP3    H1 2274   1.357   2.047   4.068 -2.0632 -1.4831 -1.4143
  756TIP3    H2 2275   1.424   2.087   3.938 -0.0554 -0.8237 -0.2150
  757TIP3   OH2 2276   6.357   4.002   1.124  0.2492 -0.0707  0.4052
  757TIP3    H1 2277   6.320   4.013   1.212 -0.4414 -0.1658  0.1295
  757TIP3    H2 2278   6.300   3.938   1.082  0.4268  0.1648 -0.1986
  758TIP3   OH2 2279   2.224   3.946   0.892  0.2013 -0.3719 -0.4452
  758TIP3    H1 2280   2.180   3.901   0.964 -1.7190  0.4993 -1.0018
  758TIP3    H2 2281   2.310   3.970   0.928 -0.2125 -1.0783  1.1122
  759TIP3   OH2 2282   3.369   0.545   4.087  0.5132 -0.1890 -0.3035
  759TIP3    H1 2283   3.386   0.590   4.004  0.4476  1.0956  0.3632
  759TIP3    H2 2284   3.275   0.525   4.084 -0.2560  2.8022  0.8169
  760TIP3   OH2 2285   3.136   2.616   2.956  0.0575  0.2538 -0.1053
  760TIP3    H1 2286   3.070   2.669   2.911  0.4268  0.1910 -0.7245
  760TIP3    H2 2287   3.213   2.621   2.900  1.5198  2.5783  1.9429
  761TIP3   OH2 2288   2.275   1.512   2.366  0.7396 -0.1902  0.1853
  761TIP3    H1 2289   2.320   1.445   2.416 -1.3604 -0.0219  2.4879
  761TIP3    H2 2290   2.185   1.480   2.357  0.4473  0.9035 -1.4612
  762TIP3   OH2 2291   4.568   3.209   0.149 -0.4833  0.1259 -0.2357
  762TIP3    H1 2292   4.605   3.178   0.231 -0.9786 -1.8108 -0.7035
  762TIP3    H2 2293   4.637   3.263   0.110  0.7113 -0.9788  0.3013
  763TIP3   OH2 2294   6.176   3.436   4.015  0.3366 -0.5927  0.8810
  763TIP3    H1 2295   6.205   3.411   3.927 -1.3323  2.1470 -0.5517
  763TIP3    H2 2296   6.084   3.412   4.018 -0.2965  1.6137  0.8542
  764TIP3   OH2 2297   3.390   3.601   2.646  0.2236 -0.3954 -0.2547
  764TIP3    H1 2298   3.361   3.513   2.624  0.5919 -0.3755 -0.8202
  764TIP3    H2 2299   3.439   3.590   2.727 -0.9857 -0.4886  0.5004
  765TIP3   OH2 2300   1.250   3.900   1.834 -0.6060  0.4367  0.1633
  765TIP3    H1 2301   1.323   3.924   1.891  1.0265 -0.2693 -1.5029
  765TIP3    H2 2302   1.206   3.829   1.879  1.4847 -1.0529 -0.0003
  766TIP3   OH2 2303   2.306   3.266   0.139 -0.0474 -0.0300  0.2888
  766TIP3    H1 2304   2.258   3.187   0.165 -1.4956  0.5520 -0.4988
  766TIP3    H2 2305   2.356   3.290   0.216 -1.7758 -0.1313  1.5112
  767TIP3   OH2 2306   5.933   3.063   0.722  0.9432 -0.1312  0.3970
  767TIP3    H1 2307   5.849   3.105   0.707  0.8842 -0.1086  0.7782
  767TIP3    H2 2308   5.940   2.997   0.654  0.1896 -0.7833  0.9298
  768TIP3   OH2 2309   4.537   4.140   0.491 -0.2092 -0.7571  0.2402
  768TIP3    H1 2310   4.525   4.122   0.398 -0.0383 -0.4149  0.1485
  768TIP3    H2 2311   4.499   4.227   0.504  2.0987  0.3889 -0.0804
  769TIP3   OH2 2312   3.106   3.806   0.588 -0.3401 -0.3602 -0.3795
  769TIP3    H1 2313   3.060   3.766   0.663 -0.2205 -1.8906 -1.0778
  769TIP3    H2 2314   3.045   3.872   0.555 -0.0415  0.9852  1.5668
  770TIP3   OH2 2315   2.736   0.196   1.242  0.2111 -0.1937  0.3182
  770TIP3    H1 2316   2.695   0.277   1.272  0.5971  0.5260 -0.9944
  770TIP3    H2 2317   2.669   0.129   1.254  0.2589  0.0629  2.4751
  771TIP3   OH2 2318   3.891   1.761   0.235 -0.1471  0.3648  0.4711
  771TIP3    H1 2319   3.949   1.690   0.258 -0.0519  0.1795 -0.3095
  771TIP3    H2 2320   3.854   1.736   0.150 -1.3134  0.5058  0.9177
  772TIP3   OH2 2321   3.364   2.747   4.647  0.5205  0.2045  0.4318
  772TIP3    H1 2322   3.319   2.790   4.575  1.9428 -1.6682 -1.7153
  772TIP3    H2 2323   3.294   2.719   4.706 -1.0456 -0.9638 -1.8361
  773TIP3   OH2 2324   6.156   3.878   0.988  0.2757  0.5592 -0.2641
  773TIP3    H1 2325   6.123   3.920   0.908 -0.7445 -1.1986 -0.8105
  773TIP3    H2 2326   6.077   3.863   1.040  0.7095 -0.0874  0.2063
  774TIP3   OH2 2327   3.878   4.325   4.728 -0.0603  0.0670  0.6087
  774TIP3    H1 2328   3.814   4.283   4.785 -0.5195  1.3632  1.0809
  774TIP3    H2 2329   3.889   4.413   4.765  1.8541 -0.0536  0.4249
  775TIP3   OH2 2330   2.217   1.104   2.287 -0.2930  0.0204 -0.1970
  775TIP3    H1 2331   2.286   1.163   2.316  1.1836 -1.2113 -1.0200
  775TIP3    H2 2332   2.153   1.160   2.244  1.6355  0.9583 -2.0250
  776TIP3   OH2 2333   5.458   4.100   0.685  0.0160  0.4167  0.0162
  776TIP3    H1 2334   5.501   4.108   0.770  0.4932 -0.2838 -0.1447
  776TIP3    H2 2335   5.513   4.038   0.637 -2.5625 -2.7583  0.7601
  777TIP3   OH2 2336   2.632   0.257   0.959 -0.7684 -0.4833 -0.3395
  777TIP3    H1 2337   2.684   0.271   1.038 -1.4495 -2.3903  0.4850
  777TIP3    H2 2338   2.691   0.213   0.898 -0.3245  0.7533 -0.8513
  778TIP3   OH2 2339   2.687   0.350   3.874 -0.1232 -0.2799  0.6720
  778TIP3    H1 2340   2.752   0.420   3.884 -0.5639  0.1604  0.5089
  778TIP3    H2 2341   2.602   0.396   3.876 -0.3863 -0.6291 -0.8819
  779TIP3   OH2 2342   4.615   2.604   2.396  0.2764  0.6285 -0.1009
  779TIP3    H1 2343   4.697   2.556   2.388  1.2377  2.3172 -0.9944
  779TIP3    H2 2344   4.564   2.578   2.319  0.7459  0.9421 -0.5227
  780TIP3   OH2 2345   5.184   1.310   1.798  0.2724 -0.0284  0.1648
  780TIP3    H1 2346   5.231   1.394   1.804  0.5610 -0.2699  1.7536
  780TIP3    H2 2347   5.241   1.255   1.745  0.5527  0.4707 -0.0638
  781TIP3   OH2 2348   5.187   5.288   1.884  0.1898 -0.3262 -0.3029
  781TIP3    H1 2349   5.142   5.345   1.946  1.3434 -0.5516  0.7887
  781TIP3    H2 2350   5.130   5.286   1.808 -0.0676  1.9832 -0.2439
  782TIP3   OH2 2351   2.767   3.206   2.967 -0.4915 -0.3603 -0.1769
  782TIP3    H1 2352   2.783   3.194   3.060 -0.3749  0.1083 -0.1296
  782TIP3    H2 2353   2.772   3.301   2.954  0.0267 -0.4597 -0.7548
  783TIP3   OH2 2354   5.033   1.442   2.355 -0.3379  0.8023  0.7513
  783TIP3    H1 2355   5.020   1.503   2.428  0.3928  0.6457  1.0224
  783TIP3    H2 2356   5.127   1.425   2.355  0.0765  2.5360 -1.6344
  784TIP3   OH2 2357   2.324   1.035   3.096  0.5459 -0.0792  0.2684
  784TIP3    H1 2358   2.294   1.030   3.187  1.0616  1.5696  0.5692
  784TIP3    H2 2359   2.318   1.128   3.074  0.7611 -0.4036 -1.2794
  785TIP3   OH2 2360   5.288   4.705   1.105 -0.1458 -0.5354  0.6979
  785TIP3    H1 2361   5.318   4.721   1.015 -3.3988 -0.5585 -0.5212
  785TIP3    H2 2362   5.231   4.628   1.098  1.8455 -2.4711  3.4211
  786TIP3   OH2 2363   3.011   1.841   1.650  0.6166 -0.0260 -0.7551
  786TIP3    H1 2364   3.010   1.746   1.638  1.6762  0.0980 -2.1099
  786TIP3    H2 2365   2.995   1.877   1.562  2.7424  1.0070 -0.7950
  787TIP3   OH2 2366   1.797   4.969   2.592 -1.0403  0.4640 -0.4411
  787TIP3    H1 2367   1.848   4.969   2.672 -1.7290 -0.5220  0.0175
  787TIP3    H2 2368   1.860   4.948   2.523 -0.6844  0.0752  0.0006
  788TIP3   OH2 2369   3.450   5.316   2.747  0.0184  0.0066 -0.0015
  788TIP3    H1 2370   3.500   5.278   2.819  1.4635  0.4960 -0.7020
  788TIP3    H2 2371   3.431   5.242   2.689 -1.5555 -0.4736  1.0550
  789TIP3   OH2 2372   4.734   2.720   3.300  0.1304  0.1282 -0.2367
  789TIP3    H1 2373   4.823   2.734   3.269 -0.4931 -0.0707 -2.2099
  789TIP3    H2 2374   4.722   2.786   3.369  1.0529  1.6734 -1.4993
  790TIP3   OH2 2375   0.364   3.953   3.408  0.4107  0.1309 -0.1615
  790TIP3    H1 2376   0.282   3.936   3.362  0.9962  0.3844 -1.3502
  790TIP3    H2 2377   0.406   3.867   3.416  1.0873  0.2905 -1.6793
  791TIP3   OH2 2378   1.953   4.482   0.732 -0.8428  0.2889  0.0510
  791TIP3    H1 2379   1.971   4.399   0.777 -0.1993  0.1572 -0.4310
  791TIP3    H2 2380   1.870   4.512   0.769 -1.5942 -1.0606 -0.4643
  792TIP3   OH2 2381   5.566   3.461   1.365  0.1795  0.3399  0.0244
  792TIP3    H1 2382   5.506   3.386   1.363 -0.1312  0.5859  0.1335
  792TIP3    H2 2383   5.614   3.451   1.447 -0.9154  1.0838  0.7681
  793TIP3   OH2 2384   1.605   1.016   2.335  0.4003  0.0365  0.3508
  793TIP3    H1 2385   1.549   0.987   2.264  0.2095 -0.1574  0.5781
  793TIP3    H2 2386   1.545   1.045   2.403  0.5775  0.0463  0.5058
  794TIP3   OH2 2387   0.954   4.437   3.427  0.1422 -0.0263 -0.4895
  794TIP3    H1 2388   0.869   4.479   3.443  1.1415  1.7177  0.5901
  794TIP3    H2 2389   0.969   4.384   3.505  0.3175  0.1428 -0.4086
  795TIP3   OH2 2390   5.212   1.377   0.341  0.2898 -0.1627  0.1503
  795TIP3    H1 2391   5.146   1.315   0.373  0.1073  0.0691  0.2183
  795TIP3    H2 2392   5.243   1.338   0.259 -1.3821  0.7406 -0.9531
  796TIP3   OH2 2393   0.534   3.239   2.209  0.4221 -0.2165  0.3655
  796TIP3    H1 2394   0.604   3.213   2.270  0.1485 -0.5721  0.5338
  796TIP3    H2 2395   0.480   3.160   2.200  1.5329 -0.8202 -1.8572
  797TIP3   OH2 2396   1.830   4.526   5.078 -0.0067  0.6473 -0.4354
  797TIP3    H1 2397   1.895   4.505   5.145 -0.7104  0.1069  0.0967
  797TIP3    H2 2398   1.880   4.564   5.006  0.5912  3.0816  1.1363
  798TIP3   OH2 2399   5.287   3.662   4.367 -0.2360  0.0244 -0.2352
  798TIP3    H1 2400   5.312   3.706   4.448 -0.3493 -1.2612  0.5295
  798TIP3    H2 2401   5.201   3.624   4.385 -0.0765 -0.6416 -0.7973
  799TIP3   OH2 2402   2.988   4.821   2.840 -0.1220 -0.2128 -0.2307
  799TIP3    H1 2403   2.975   4.742   2.893 -1.3730  0.3223  0.2849
  799TIP3    H2 2404   3.079   4.847   2.858 -0.2727 -0.4929  1.0365
  800TIP3   OH2 2405   3.187   3.123   4.428  0.3040  0.4424 -0.1722
  800TIP3    H1 2406   3.136   3.143   4.507 -0.6757 -0.8453 -0.4434
  800TIP3    H2 2407   3.273   3.160   4.446 -0.0145  0.5372  1.3375
  801TIP3   OH2 2408   0.643   5.312   1.337  0.2800 -0.5283 -0.2340
  801TIP3    H1 2409   0.595   5.385   1.375  0.3385 -0.1576 -0.8632
  801TIP3    H2 2410   0.709   5.290   1.403  0.8800  0.6056 -0.4287
  802TIP3   OH2 2411   0.189   1.059   4.544  0.2936  0.0338  0.0940
  802TIP3    H1 2412   0.168   1.145   4.507 -1.6271  0.8035  2.6557
  802TIP3    H2 2413   0.269   1.073   4.594  2.2161 -0.7216 -2.5865
  803TIP3   OH2 2414   2.047   4.255   3.197 -0.0855  0.3918  0.3419
  803TIP3    H1 2415   2.088   4.170   3.218  1.4075  0.8647 -0.5072
  803TIP3    H2 2416   1.953   4.236   3.194  0.2736 -1.4179 -0.6195
  804TIP3   OH2 2417   5.543   4.855   1.515  0.6345  0.2053  0.1262
  804TIP3    H1 2418   5.569   4.882   1.603  1.8774 -1.3227  0.2853
  804TIP3    H2 2419   5.619   4.876   1.460  0.0224  0.7830 -0.5200
  805TIP3   OH2 2420   0.104   4.592   1.723 -0.3580  0.2843 -0.2204
  805TIP3    H1 2421   0.085   4.498   1.719 -0.7744  0.3423  0.3008
  805TIP3    H2 2422   0.027   4.633   1.684  0.5250  0.3588 -1.9972
  806TIP3   OH2 2423   4.074   2.811   4.023  0.6846 -0.1451  0.2652
  806TIP3    H1 2424   4.087   2.716   4.021  1.9343 -0.0007  0.7074
  806TIP3    H2 2425   4.050   2.830   4.114  2.9895  0.2264  0.8659
  807TIP3   OH2 2426   0.431   0.436   3.135 -0.7126 -0.0870  0.1945
  807TIP3    H1 2427   0.378   0.459   3.211  0.0727  1.2885  0.3482
  807TIP3    H2 2428   0.516   0.413   3.170 -0.2776  0.7641 -0.2535
  808TIP3   OH2 2429   5.254   4.924   0.573  0.3913  0.1815 -0.6045
  808TIP3    H1 2430   5.184   4.978   0.609 -0.9379 -1.2952 -0.8485
  808TIP3    H2 2431   5.233   4.835   0.602  0.1531 -0.8563 -3.6037
  809TIP3   OH2 2432   0.523   5.359   3.072  0.6156  0.3219 -0.2707
  809TIP3    H1 2433   0.545   5.281   3.020  0.1488  0.2320 -0.3359
  809TIP3    H2 2434   0.529   5.432   3.010  0.9478  0.3267 -0.2349
  810TIP3   OH2 2435   4.909   0.922   2.944  0.1001 -0.6194  0.4554
  810TIP3    H1 2436   4.844   0.856   2.921  1.0133 -1.4973  0.3323
  810TIP3    H2 2437   4.865   0.976   3.010 -0.9698 -0.7997 -0.0902
  811TIP3   OH2 2438   2.543   0.110   3.828 -0.2127  0.0682  0.6542
  811TIP3    H1 2439   2.584   0.196   3.821  1.3356 -0.7361 -1.0180
  811TIP3    H2 2440   2.614   0.048   3.811 -1.6081 -1.4956  0.2252
  812TIP3   OH2 2441   3.065   0.779   2.428 -0.3058  0.1115 -0.0432
  812TIP3    H1 2442   3.061   0.834   2.506 -2.3201 -1.1944  0.8575
  812TIP3    H2 2443   3.108   0.833   2.362  0.9081  1.4761  1.7680
  813TIP3   OH2 2444   5.122   5.317   3.592 -0.1809  0.2689  0.5639
  813TIP3    H1 2445   5.202   5.321   3.644 -0.3423  0.0671  0.8278
  813TIP3    H2 2446   5.140   5.372   3.515  0.2957  0.0357  0.5065
  814TIP3   OH2 2447   2.686   4.226   0.444  0.0239 -0.0084  0.7373
  814TIP3    H1 2448   2.662   4.291   0.510 -0.1245  0.1657  0.5103
  814TIP3    H2 2449   2.771   4.253   0.412 -1.0867  1.4878 -1.1315
  815TIP3   OH2 2450   4.334   1.603   2.024  0.1799  0.0151 -0.0689
  815TIP3    H1 2451   4.325   1.685   1.975 -0.3556  1.1003  1.7475
  815TIP3    H2 2452   4.428   1.587   2.027  0.4188  1.4245  0.8396
  816TIP3   OH2 2453   6.241   3.153   0.592  0.1188  0.0294 -0.1173
  816TIP3    H1 2454   6.182   3.086   0.627 -0.7054 -0.0198 -1.5390
  816TIP3    H2 2455   6.196   3.236   0.608 -0.6432 -0.0476 -1.7174
  817TIP3   OH2 2456   0.061   0.194   2.269  0.4404  0.0487  0.2467
  817TIP3    H1 2457   0.138   0.180   2.213  0.7807 -0.8153  0.8993
  817TIP3    H2 2458   0.071   0.283   2.302  0.7447  0.2211 -0.2889
  818TIP3   OH2 2459   3.178   0.082   3.490 -0.9730 -0.4698  0.4359
  818TIP3    H1 2460   3.140   0.029   3.560 -1.9142  0.2186  0.4589
  818TIP3    H2 2461   3.262   0.111   3.526  0.2372 -3.0364 -0.0897
  819TIP3   OH2 2462   2.533   0.711   3.163 -0.0454  0.1552  0.3032
  819TIP3    H1 2463   2.539   0.615   3.163 -1.9467 -0.0080 -0.8401
  819TIP3    H2 2464   2.517   0.734   3.072 -0.4915  1.4960  0.7046
  820TIP3   OH2 2465   4.267   3.561   0.454  0.0897 -0.1082 -0.1231
  820TIP3    H1 2466   4.355   3.595   0.471  1.1755 -2.4722 -0.6168
  820TIP3    H2 2467   4.272   3.523   0.366 -1.1729 -0.9692  0.1429
  821TIP3   OH2 2468   2.689   0.414   4.920  0.2587  0.6448 -0.1404
  821TIP3    H1 2469   2.663   0.469   4.846  1.5850  1.3287 -0.1291
  821TIP3    H2 2470   2.607   0.378   4.954 -0.7457  3.2120  0.3222
  822TIP3   OH2 2471   2.916   4.059   3.756 -0.8103 -0.4924 -0.1959
  822TIP3    H1 2472   2.975   4.126   3.721 -0.2096 -1.1194 -0.3990
  822TIP3    H2 2473   2.964   4.019   3.827 -0.6937 -1.4933 -0.8233
  823TIP3   OH2 2474   5.358   4.278   0.434 -0.4018 -0.7267 -0.5666
  823TIP3    H1 2475   5.268   4.299   0.408  0.4709  0.3518 -3.0359
  823TIP3    H2 2476   5.375   4.192   0.396 -0.2844 -0.7713 -0.4150
  824TIP3   OH2 2477   4.282   5.156   1.761 -0.2424 -0.2598 -0.0632
  824TIP3    H1 2478   4.285   5.130   1.853 -1.2553 -0.3920 -0.0534
  824TIP3    H2 2479   4.317   5.081   1.713 -1.7250 -1.0932  0.0761
  825TIP3   OH2 2480   1.517   0.751   4.861  0.4590  0.3704 -0.0840
  825TIP3    H1 2481   1.592   0.692   4.869 -0.3723 -0.6497  0.3796
  825TIP3    H2 2482   1.546   0.817   4.799  1.5753 -0.2865 -0.2950
  826TIP3   OH2 2483   3.431   5.296   4.167  0.2371 -0.1291 -0.1065
  826TIP3    H1 2484   3.502   5.308   4.103  0.0949 -0.0530 -0.2485
  826TIP3    H2 2485   3.362   5.251   4.119 -0.0009  0.2183 -0.0989
  827TIP3   OH2 2486   4.274   0.367   0.401 -0.0355  0.1723  0.1225
  827TIP3    H1 2487   4.244   0.456   0.385  0.1485  0.3566  0.7667
  827TIP3    H2 2488   4.254   0.351   0.493  1.1706  0.0474  0.3829
  828TIP3   OH2 2489   0.276   5.377   2.845  0.5758  0.0371  0.5935
  828TIP3    H1 2490   0.242   5.437   2.911 -1.9519  0.2120 -0.7442
  828TIP3    H2 2491   0.297   5.432   2.771 -1.6325 -0.5826 -0.5962
  829TIP3   OH2 2492   4.434   0.661   4.305 -0.3535 -0.4478  0.7668
  829TIP3    H1 2493   4.468   0.585   4.352 -0.7514 -1.0523  0.1034
  829TIP3    H2 2494   4.512   0.706   4.272 -0.1101 -0.4602  1.3161
  830TIP3   OH2 2495   2.413   0.246   3.629  0.1274  0.3104  0.3265
  830TIP3    H1 2496   2.483   0.189   3.661  0.5499 -1.2376 -2.9379
  830TIP3    H2 2497   2.350   0.186   3.589 -2.5677  1.7565  2.0498
  831TIP3   OH2 2498   5.947   3.831   0.198  0.6407  0.3447 -0.5184
  831TIP3    H1 2499   6.020   3.769   0.201  2.0453  1.9078 -0.5858
  831TIP3    H2 2500   5.884   3.797   0.261  2.5022  0.2082  1.3841
  832TIP3   OH2 2501   5.671   2.250   4.539 -0.2020 -0.0562  0.3462
  832TIP3    H1 2502   5.744   2.254   4.477 -0.7003 -0.1687 -0.2598
  832TIP3    H2 2503   5.648   2.342   4.556 -0.1830 -0.0299  0.2266
  833TIP3   OH2 2504   0.508   4.123   2.886  0.4554  0.4627  0.3035
  833TIP3    H1 2505   0.591   4.139   2.840  0.0032  0.0052 -0.6777
  833TIP3    H2 2506   0.468   4.210   2.893  0.7046  0.5898  0.1875
  834TIP3   OH2 2507   5.681   3.084   4.144  0.3766  0.4168 -0.1496
  834TIP3    H1 2508   5.695   3.125   4.229  0.7178  0.9977 -0.4748
  834TIP3    H2 2509   5.586   3.072   4.139  0.2506  1.2867 -0.0845
  835TIP3   OH2 2510   3.644   1.529   2.491  0.2103 -0.0855  0.2149
  835TIP3    H1 2511   3.584   1.540   2.418 -1.4568 -0.6880  1.4437
  835TIP3    H2 2512   3.651   1.616   2.531 -0.5146 -0.1854  0.5642
  836TIP3   OH2 2513   3.858   5.859   4.719 -0.8018 -0.4467  0.4831
  836TIP3    H1 2514   3.840   5.773   4.681 -0.1677  0.1468 -1.2364
  836TIP3    H2 2515   3.946   5.882   4.688  0.2974 -0.4027  3.3049
  837TIP3   OH2 2516   4.196   5.832   0.685  0.3559  0.2636 -0.0578
  837TIP3    H1 2517   4.237   5.788   0.760 -0.2039  0.1904  0.2043
  837TIP3    H2 2518   4.119   5.779   0.665  0.2414  0.5531 -0.3888
  838TIP3   OH2 2519   0.616   2.357   4.621 -0.3758 -0.5323 -0.1261
  838TIP3    H1 2520   0.699   2.311   4.609 -0.0098 -0.0510  0.5299
  838TIP3    H2 2521   0.585   2.328   4.706 -0.5634 -0.2071 -0.0831
  839TIP3   OH2 2522   0.420   2.497   0.222  0.0705  0.2400 -0.3487
  839TIP3    H1 2523   0.330   2.480   0.247  0.2748 -0.4768 -0.0874
  839TIP3    H2 2524   0.414   2.546   0.140 -0.5751  1.2803  0.2921
  840TIP3   OH2 2525   4.125   1.032   2.887  0.3907  0.2464 -0.2250
  840TIP3    H1 2526   4.036   1.006   2.913  0.5682  0.4058  0.5540
  840TIP3    H2 2527   4.113   1.071   2.800 -0.2583  0.0155 -0.2513
  841TIP3   OH2 2528   4.033   0.311   1.510 -0.2220 -0.4767 -0.0669
  841TIP3    H1 2529   4.096   0.240   1.503  1.4183  1.0010 -1.1958
  841TIP3    H2 2530   4.083   0.390   1.490 -2.0104  1.0018  0.9062
  842TIP3   OH2 2531   5.224   1.695   3.336 -0.0010 -0.3664  0.0700
  842TIP3    H1 2532   5.285   1.668   3.266 -0.3285 -0.7713 -0.0609
  842TIP3    H2 2533   5.281   1.736   3.401  0.2104  0.8032 -0.8164
  843TIP3   OH2 2534   5.591   5.368   0.595 -0.1651 -0.1301  0.4923
  843TIP3    H1 2535   5.535   5.291   0.595 -0.1364 -0.4863 -4.1198
  843TIP3    H2 2536   5.550   5.429   0.656 -3.0618 -1.9786  0.5670
  844TIP3   OH2 2537   0.104   4.726   4.243  0.1325 -0.2739 -0.1115
  844TIP3    H1 2538   0.156   4.806   4.256 -1.2222  1.4151 -3.6496
  844TIP3    H2 2539   0.150   4.679   4.173 -1.0262 -0.7035 -0.6060
  845TIP3   OH2 2540   0.965   5.431   4.083  0.2395  0.8818 -0.1265
  845TIP3    H1 2541   1.015   5.460   4.159  0.6840  1.3978 -0.6134
  845TIP3    H2 2542   0.874   5.452   4.105  0.4496  1.7253 -0.0544
  846TIP3   OH2 2543   0.103   5.709   3.418 -0.3446  0.2674 -0.2713
  846TIP3    H1 2544   0.023   5.733   3.465 -0.9819  1.0338 -1.6972
  846TIP3    H2 2545   0.075   5.696   3.327  1.3028  1.4731 -0.9964
  847TIP3   OH2 2546   4.479   3.991   3.145 -0.0170 -0.1277  0.4749
  847TIP3    H1 2547   4.498   4.067   3.089 -1.2118  0.4764  0.8578
  847TIP3    H2 2548   4.428   4.027   3.217  0.8226 -1.0380  1.5520
  848TIP3   OH2 2549   4.191   1.931   4.970 -0.0800  0.4821 -0.2361
  848TIP3    H1 2550   4.142   2.011   4.990  0.8790  0.6431  1.7033
  848TIP3    H2 2551   4.150   1.864   5.024 -0.6657 -0.2991 -1.6050
  849TIP3   OH2 2552   5.353   1.235   5.129  0.6446  0.1870  0.0079
  849TIP3    H1 2553   5.309   1.235   5.044 -0.8256  1.9160  0.6931
  849TIP3    H2 2554   5.429   1.293   5.117  2.0681 -1.7278 -0.8031
  850TIP3   OH2 2555   1.357   0.959   2.475  0.6122 -0.3496  0.0865
  850TIP3    H1 2556   1.340   0.938   2.383  0.4756 -0.0757  0.0489
  850TIP3    H2 2557   1.327   0.882   2.523  0.9121 -0.5964 -0.1160
  851TIP3   OH2 2558   2.053   5.845   2.525  0.3451 -0.5180  0.2185
  851TIP3    H1 2559   2.022   5.935   2.535 -0.7132 -0.8733  0.3127
  851TIP3    H2 2560   2.116   5.849   2.454 -1.6498 -0.1255 -1.6592
  852TIP3   OH2 2561   5.023   5.255   4.568 -0.4034 -0.4107 -0.0041
  852TIP3    H1 2562   5.113   5.227   4.586  0.0535  0.8393 -0.2441
  852TIP3    H2 2563   4.970   5.204   4.629  0.5483 -0.5564  0.7280
  853TIP3   OH2 2564   0.138   4.559   2.837 -1.1081 -0.2501 -0.6555
  853TIP3    H1 2565   0.180   4.634   2.880 -0.1443  0.4519 -2.7088
  853TIP3    H2 2566   0.095   4.597   2.760  0.4189 -1.8982 -2.4234
  854TIP3   OH2 2567   2.427   3.840   0.357  0.0329 -0.3474 -0.1160
  854TIP3    H1 2568   2.353   3.886   0.397  1.0733  0.2945  1.1555
  854TIP3    H2 2569   2.415   3.749   0.383 -1.5311 -0.6931 -1.8575
  855TIP3   OH2 2570   4.160   4.751   3.634 -0.2765 -0.3915  0.2267
  855TIP3    H1 2571   4.099   4.824   3.620  1.5030  0.7421 -2.4460
  855TIP3    H2 2572   4.114   4.675   3.599 -1.4169 -0.2380  1.3115
  856TIP3   OH2 2573   2.807   3.637   1.027  0.3289 -0.5724 -0.6816
  856TIP3    H1 2574   2.845   3.661   1.112  1.1708 -0.0411 -1.1839
  856TIP3    H2 2575   2.713   3.653   1.038  0.2881 -1.4209  0.4366
  857TIP3   OH2 2576  -0.007   0.366   3.538 -0.5965 -0.1397  0.0171
  857TIP3    H1 2577   0.050   0.361   3.461  0.3471  0.8702  0.6129
  857TIP3    H2 2578   0.004   0.282   3.582  0.8231  0.2044  0.3670
  858TIP3   OH2 2579   4.151   3.500   2.513  0.2721  0.2544  0.0376
  858TIP3    H1 2580   4.125   3.465   2.598  0.9331  0.3452  0.2826
  858TIP3    H2 2581   4.188   3.425   2.466 -0.1988  0.1786 -0.2137
  859TIP3   OH2 2582   3.675   3.200   0.582  0.5738 -0.2329 -0.1874
  859TIP3    H1 2583   3.644   3.116   0.550  0.7041 -0.8826  1.2992
  859TIP3    H2 2584   3.769   3.200   0.562  0.7700 -0.8830  0.6493
  860TIP3   OH2 2585   4.936   0.100   3.096 -0.2398 -0.0510  0.2247
  860TIP3    H1 2586   4.871   0.080   3.163 -0.2282 -3.1056 -0.5444
  860TIP3    H2 2587   5.019   0.103   3.144 -0.2586 -2.0145  0.4670
  861TIP3   OH2 2588   1.544   1.361   3.489  0.0346  0.0547  0.3501
  861TIP3    H1 2589   1.484   1.430   3.460 -0.4943 -0.1075  1.0358
  861TIP3    H2 2590   1.623   1.407   3.516  0.3051  0.2572 -0.7229
  862TIP3   OH2 2591   1.379   1.284   0.766  0.3474 -0.5395  0.2508
  862TIP3    H1 2592   1.348   1.206   0.812  0.3240 -0.2361  0.7539
  862TIP3    H2 2593   1.317   1.296   0.695  1.2153 -1.8722 -0.7744
  863TIP3   OH2 2594   1.403   2.326   4.218 -0.6706 -0.4598 -0.3102
  863TIP3    H1 2595   1.403   2.297   4.309  0.3246 -1.5163 -0.6231
  863TIP3    H2 2596   1.311   2.320   4.191 -0.8920 -0.6505  0.4717
  864TIP3   OH2 2597   2.409   2.156   2.174  0.0929 -0.1201 -0.0122
  864TIP3    H1 2598   2.331   2.102   2.159 -0.3007  0.1467  0.9970
  864TIP3    H2 2599   2.395   2.233   2.118 -1.1840  0.7054  1.3724
  865TIP3   OH2 2600   1.857   2.482   1.207 -0.0383  0.2597  0.0204
  865TIP3    H1 2601   1.822   2.431   1.134  2.3963  0.9163 -1.7606
  865TIP3    H2 2602   1.789   2.546   1.227 -1.6355 -1.3116 -0.1654
  866TIP3   OH2 2603   6.003   5.511   2.923 -0.1301  0.0035 -0.6981
  866TIP3    H1 2604   6.086   5.463   2.920 -1.6730 -3.1099  1.2074
  866TIP3    H2 2605   5.999   5.547   3.011 -0.0093  1.8399 -1.4056
  867TIP3   OH2 2606   1.116   5.590   1.457 -0.0582 -0.4557  0.0053
  867TIP3    H1 2607   1.153   5.578   1.370 -1.4691  0.1709 -0.7111
  867TIP3    H2 2608   1.025   5.615   1.442 -0.4073 -0.5596  1.6668
  868TIP3   OH2 2609   3.107   0.991   4.534  0.2964  0.1627  0.6989
  868TIP3    H1 2610   3.057   1.038   4.467  3.0362  0.5904 -1.2360
  868TIP3    H2 2611   3.147   1.061   4.586  1.1832 -0.0863  0.3628
  869TIP3   OH2 2612   5.784   3.981   1.678 -0.2493 -0.4776 -0.1587
  869TIP3    H1 2613   5.773   3.925   1.601 -0.5786 -0.4985 -0.0969
  869TIP3    H2 2614   5.823   3.924   1.744 -0.1316 -0.5065 -0.2546
  870TIP3   OH2 2615   0.353   0.599   2.932  0.2937 -0.3755  0.4528
  870TIP3    H1 2616   0.362   0.537   3.004  0.7937 -0.4821  0.2997
  870TIP3    H2 2617   0.348   0.544   2.853  2.8106 -0.2084  0.0920
  871TIP3   OH2 2618   2.604   2.756   3.186 -0.2424 -0.4118  0.2052
  871TIP3    H1 2619   2.641   2.706   3.113  0.0077 -0.4282  0.3390
  871TIP3    H2 2620   2.553   2.825   3.146 -0.1522 -0.4563  0.0138
  872TIP3   OH2 2621   4.017   3.542   4.935 -0.1700  0.1916  0.5817
  872TIP3    H1 2622   4.106   3.554   4.968  0.1395  0.6875 -0.3811
  872TIP3    H2 2623   3.964   3.605   4.984  0.0173 -0.0525  1.1065
  873TIP3   OH2 2624   6.183   4.095   1.975 -0.3074 -0.1907 -0.3170
  873TIP3    H1 2625   6.155   4.158   2.041 -0.7250 -1.6193  0.9009
  873TIP3    H2 2626   6.278   4.110   1.967  0.0200 -0.8957  1.6470
  874TIP3   OH2 2627   1.761   4.820   3.976 -0.3004 -0.1232  0.1116
  874TIP3    H1 2628   1.762   4.894   3.915 -0.4313 -0.6095 -0.4927
  874TIP3    H2 2629   1.784   4.858   4.061  1.4705  0.3084 -0.5186
  875TIP3   OH2 2630   3.050   4.333   3.306  0.4675  0.2442  0.0163
  875TIP3    H1 2631   3.089   4.285   3.234  1.3875 -0.7659  1.1382
  875TIP3    H2 2632   2.998   4.268   3.353 -1.0746  1.1435 -0.3535
  876TIP3   OH2 2633   5.564   1.204   0.581  0.0259  0.4248  0.6100
  876TIP3    H1 2634   5.620   1.263   0.631  0.8177  0.2782 -0.0938
  876TIP3    H2 2635   5.509   1.261   0.528  0.7423  0.5373 -0.0189
  877TIP3   OH2 2636   2.670   0.547   0.364  0.1441 -0.8879  0.1835
  877TIP3    H1 2637   2.692   0.482   0.431 -1.7129 -2.6329 -0.7901
  877TIP3    H2 2638   2.755   0.580   0.334  1.3314 -3.9378 -0.2582
  878TIP3   OH2 2639   0.314   3.328   0.074 -0.3021 -0.1769 -0.5156
  878TIP3    H1 2640   0.344   3.291   0.156 -0.1033 -1.4044 -1.1238
  878TIP3    H2 2641   0.225   3.359   0.092 -0.6087 -1.2743 -0.0844
  879TIP3   OH2 2642   5.674   2.637   3.610 -0.1367  0.6227  0.0489
  879TIP3    H1 2643   5.654   2.561   3.663  0.0849 -0.7356 -1.7085
  879TIP3    H2 2644   5.740   2.686   3.660  1.8327 -1.8239  0.0085
  880TIP3   OH2 2645   5.548   1.532   2.527  0.2171 -0.2750 -0.2384
  880TIP3    H1 2646   5.522   1.611   2.573  0.7685 -0.2830  0.0993
  880TIP3    H2 2647   5.642   1.544   2.510 -0.0306 -0.1601 -1.5914
  881TIP3   OH2 2648   2.033   5.665   0.808  0.2725  0.3024  0.5423
  881TIP3    H1 2649   2.062   5.585   0.852  0.8414  0.3386  0.2329
  881TIP3    H2 2650   1.988   5.633   0.729 -0.4139  0.2533  0.9438
  882TIP3   OH2 2651   1.322   0.377   0.117 -0.2282  0.1075 -0.0263
  882TIP3    H1 2652   1.337   0.466   0.084 -2.2225  0.0247 -1.2993
  882TIP3    H2 2653   1.309   0.389   0.211 -1.1910  1.2859 -0.2853
  883TIP3   OH2 2654   3.153   5.690   1.304 -0.1000  0.7786 -0.1996
  883TIP3    H1 2655   3.245   5.684   1.329  0.0351 -0.2344 -0.8794
  883TIP3    H2 2656   3.111   5.617   1.350 -0.3834  0.6746 -0.6159
  884TIP3   OH2 2657   2.998   5.511   4.822 -0.2592 -0.5693 -0.5201
  884TIP3    H1 2658   3.055   5.577   4.782 -1.0709  0.8224  0.5231
  884TIP3    H2 2659   2.999   5.532   4.916 -1.4187 -1.3575 -0.3099
  885TIP3   OH2 2660   1.094   2.117   1.508  0.5740 -0.2163  0.0624
  885TIP3    H1 2661   0.999   2.112   1.495  0.8355  0.8415 -2.8876
  885TIP3    H2 2662   1.117   2.032   1.545 -1.3134 -1.2363 -0.9500
  886TIP3   OH2 2663   5.790   3.171   1.275 -0.7684 -0.2304  0.2161
  886TIP3    H1 2664   5.822   3.157   1.186 -0.6551 -1.0492  0.3769
  886TIP3    H2 2665   5.695   3.161   1.269 -0.6902 -1.1886  0.3316
  887TIP3   OH2 2666   1.713   4.864   1.982  0.0664 -0.3402  0.2175
  887TIP3    H1 2667   1.771   4.940   1.979 -0.2457 -0.1098 -0.0477
  887TIP3    H2 2668   1.722   4.830   2.071 -1.4245  1.3031  1.0669
  888TIP3   OH2 2669   1.922   5.033   2.037 -0.0027  0.2256 -0.1335
  888TIP3    H1 2670   1.977   5.108   2.014  0.4414 -0.2639 -0.7279
  888TIP3    H2 2671   1.974   4.984   2.101  0.2261 -0.1741 -0.6081
  889TIP3   OH2 2672   3.076   2.502   4.329 -0.3822  0.1799  0.1662
  889TIP3    H1 2673   3.068   2.593   4.300  1.3071  0.9157  1.7679
  889TIP3    H2 2674   3.150   2.467   4.280  0.4695  0.4574  1.1907
  890TIP3   OH2 2675   1.136   5.079   1.687 -0.3647 -0.3402 -0.4322
  890TIP3    H1 2676   1.042   5.061   1.682 -0.0386 -1.8917 -1.7123
  890TIP3    H2 2677   1.177   5.014   1.631  1.5248  0.1484  0.2666
  891TIP3   OH2 2678   5.193   4.254   4.777  0.0856  0.8916 -0.1056
  891TIP3    H1 2679   5.178   4.165   4.744 -0.1269  0.7044  0.4831
  891TIP3    H2 2680   5.113   4.275   4.825  1.0849  0.4566  1.8342
  892TIP3   OH2 2681   3.270   3.855   4.727 -0.2692  0.1892  0.1297
  892TIP3    H1 2682   3.314   3.884   4.646  0.7333 -1.7309 -0.0614
  892TIP3    H2 2683   3.181   3.836   4.700 -0.2125  0.5240 -0.3117
  893TIP3   OH2 2684   0.126   1.607   3.012  0.6448 -0.0174 -0.5355
  893TIP3    H1 2685   0.093   1.529   3.057 -0.5184  0.6101 -0.2677
  893TIP3    H2 2686   0.103   1.594   2.920 -0.2324  0.3381 -0.3763
  894TIP3   OH2 2687   3.210   1.809   1.919 -0.4195  0.1267 -0.4133
  894TIP3    H1 2688   3.141   1.875   1.919 -0.2565  0.3270  1.0036
  894TIP3    H2 2689   3.290   1.858   1.904 -0.4412  0.0720 -0.7090
  895TIP3   OH2 2690   5.411   5.349   3.992  0.1278  0.0574 -0.4355
  895TIP3    H1 2691   5.339   5.410   4.005  0.8052  0.6404  0.8549
  895TIP3    H2 2692   5.400   5.284   4.062  0.5894 -0.0978 -0.5044
  896TIP3   OH2 2693   3.346   1.821   1.223 -0.3312  0.0178  0.2786
  896TIP3    H1 2694   3.286   1.831   1.296 -0.6486 -0.9527  0.1679
  896TIP3    H2 2695   3.341   1.904   1.176  0.1527  0.7883  1.5430
  897TIP3   OH2 2696   4.247   1.005   1.295  0.7217  0.5479 -0.2014
  897TIP3    H1 2697   4.165   0.961   1.272  1.8352 -0.8956 -1.5857
  897TIP3    H2 2698   4.244   1.088   1.248  0.8992 -0.3688 -1.9204
  898TIP3   OH2 2699   4.794   1.083   3.591 -0.2212 -0.3950 -0.0917
  898TIP3    H1 2700   4.822   1.008   3.645 -0.9918  0.3259  1.3778
  898TIP3    H2 2701   4.810   1.055   3.501  0.8561 -1.7671  0.4830
  899TIP3   OH2 2702   5.397   2.087   1.744  0.0137  0.2574  0.0741
  899TIP3    H1 2703   5.390   2.084   1.839  1.3659 -0.1436  0.1718
  899TIP3    H2 2704   5.448   2.166   1.727  2.1048 -1.0821 -0.1475
  900TIP3   OH2 2705   0.426   2.276   3.340  0.1285  0.4124 -0.0254
  900TIP3    H1 2706   0.485   2.334   3.292  0.5047  1.1497  1.2636
  900TIP3    H2 2707   0.482   2.233   3.405  0.2008 -2.7751 -2.0301
  901TIP3   OH2 2708   2.061   5.653   2.056 -0.2300 -0.3504  0.1380
  901TIP3    H1 2709   1.969   5.632   2.074 -0.3645 -0.5381 -0.7028
  901TIP3    H2 2710   2.057   5.717   1.985  0.2755  0.2151  0.6090
  902TIP3   OH2 2711   1.730   0.002   3.774 -0.3521  0.1856 -0.3719
  902TIP3    H1 2712   1.686   0.076   3.815  0.0237  0.7225 -0.9168
  902TIP3    H2 2713   1.823   0.024   3.779 -0.3327  0.7915 -2.4630
  903TIP3   OH2 2714   1.676   2.211   4.370 -0.4015 -0.0866 -0.5239
  903TIP3    H1 2715   1.745   2.194   4.434  0.9296  0.3898 -1.7982
  903TIP3    H2 2716   1.700   2.160   4.293 -0.4259  1.5439 -1.6662
  904TIP3   OH2 2717   0.694   1.293   0.528  0.4056  0.5047 -0.0808
  904TIP3    H1 2718   0.675   1.222   0.466  1.3952  1.4128 -1.4933
  904TIP3    H2 2719   0.608   1.323   0.557 -0.1580  0.7859 -1.8996
  905TIP3   OH2 2720   5.739   4.211   3.522  0.0904 -0.1718  0.4203
  905TIP3    H1 2721   5.819   4.159   3.524  1.2486  1.5264  0.0664
  905TIP3    H2 2722   5.713   4.212   3.430 -0.0717 -0.3093  0.4631
  906TIP3   OH2 2723   4.071   5.542   4.229  0.0293 -0.0034  0.7932
  906TIP3    H1 2724   4.120   5.460   4.224  1.5865  0.9718 -2.0799
  906TIP3    H2 2725   3.980   5.514   4.243  0.4868 -2.2755 -0.2150
  907TIP3   OH2 2726   5.710   1.400   3.054 -0.2536 -0.2365 -0.1542
  907TIP3    H1 2727   5.774   1.355   2.999  0.4143  2.1863 -1.5060
  907TIP3    H2 2728   5.714   1.354   3.138  0.5178 -2.4725 -1.3330
  908TIP3   OH2 2729   3.120   1.778   3.815 -0.5595 -0.3311 -0.0445
  908TIP3    H1 2730   3.188   1.718   3.848 -1.6443  0.3218  3.8915
  908TIP3    H2 2731   3.040   1.726   3.815 -1.2570  0.6119  2.1364
  909TIP3   OH2 2732   2.624   5.961   1.275  0.1105 -0.5813 -0.2647
  909TIP3    H1 2733   2.568   6.032   1.244  2.5343  1.1728 -0.8249
  909TIP3    H2 2734   2.574   5.881   1.255 -2.0444  0.8556 -0.9597
  910TIP3   OH2 2735   4.703   3.149   0.688 -0.4397  0.0060  0.1828
  910TIP3    H1 2736   4.755   3.228   0.678  0.2242 -0.5292 -0.7237
  910TIP3    H2 2737   4.767   3.080   0.704 -0.9313 -0.5194 -0.0721
  911TIP3   OH2 2738   6.299   4.101   1.393  0.2700  0.2729 -0.6905
  911TIP3    H1 2739   6.387   4.139   1.398  1.0068 -1.4330 -0.1514
  911TIP3    H2 2740   6.287   4.057   1.477 -0.7695 -0.2024 -1.0771
  912TIP3   OH2 2741   2.383   4.700   0.101  0.7492 -0.3498 -0.6189
  912TIP3    H1 2742   2.374   4.782   0.051 -0.9540 -0.6395 -0.8521
  912TIP3    H2 2743   2.359   4.632   0.038  0.7818 -0.9101 -0.0285
  913TIP3   OH2 2744   0.812   3.585   0.328 -0.1238  0.1744 -0.1012
  913TIP3    H1 2745   0.767   3.567   0.246 -0.7467  0.3844  0.1878
  913TIP3    H2 2746   0.750   3.637   0.379  0.3223  0.1994  0.4340
  914TIP3   OH2 2747   3.539   2.948   4.548 -0.2023 -0.4327  0.6120
  914TIP3    H1 2748   3.497   2.902   4.621  0.1518 -0.0673  1.0513
  914TIP3    H2 2749   3.531   2.887   4.475 -3.0797  0.3190  0.1770
  915TIP3   OH2 2750   0.465   0.339   3.521 -0.2885  0.1691  0.1520
  915TIP3    H1 2751   0.520   0.263   3.542  0.6950  1.0531  0.9344
  915TIP3    H2 2752   0.405   0.346   3.595  0.4859  0.8895  0.7396
  916TIP3   OH2 2753   0.954   1.240   3.114 -0.1775  0.0508  0.1747
  916TIP3    H1 2754   1.045   1.225   3.138  0.0079  2.1190  0.9576
  916TIP3    H2 2755   0.955   1.321   3.064 -1.6878  0.6721  1.0629
  917TIP3   OH2 2756   3.580   4.213   4.977 -0.2620  0.1157 -0.2065
  917TIP3    H1 2757   3.612   4.173   4.896  0.2482 -2.4592  1.1448
  917TIP3    H2 2758   3.643   4.283   4.995  0.5350 -0.3053 -1.2249
  918TIP3   OH2 2759   4.180   1.222   4.869  0.1556 -0.2791 -0.4586
  918TIP3    H1 2760   4.269   1.215   4.904  0.3027  1.5631 -0.3833
  918TIP3    H2 2761   4.145   1.133   4.876  1.8045 -0.9324 -0.0133
  919TIP3   OH2 2762   5.922   1.143   3.974  0.2083 -0.0595 -0.0740
  919TIP3    H1 2763   5.879   1.228   3.972 -0.3467 -0.3483 -1.8746
  919TIP3    H2 2764   5.855   1.083   4.008  0.6920  0.2200  1.4819
  920TIP3   OH2 2765   1.385   1.432   1.498 -0.4233 -0.3061 -0.1000
  920TIP3    H1 2766   1.459   1.444   1.557  1.1049  1.9164 -2.2744
  920TIP3    H2 2767   1.387   1.509   1.441 -4.0745 -0.4474 -0.6767
  921TIP3   OH2 2768   5.075   4.087   4.387 -0.3680 -0.1658 -0.1313
  921TIP3    H1 2769   5.035   4.011   4.430 -0.3811 -1.1508 -1.7974
  921TIP3    H2 2770   5.168   4.082   4.409 -0.7099  0.6980  1.6776
  922TIP3   OH2 2771   0.663   2.815   5.112  0.3061  0.3296 -0.1041
  922TIP3    H1 2772   0.677   2.725   5.084 -0.8627 -1.2907  3.8492
  922TIP3    H2 2773   0.568   2.825   5.115  0.4098  1.2650  0.6733
  923TIP3   OH2 2774   4.448   3.752   1.394 -0.2237 -0.2344  0.0671
  923TIP3    H1 2775   4.386   3.734   1.465  0.2741  1.7109  1.0648
  923TIP3    H2 2776   4.509   3.815   1.431  1.7132 -1.2183 -1.2560
  924TIP3   OH2 2777   0.915   4.544   2.868  0.4300 -0.6938 -0.2103
  924TIP3    H1 2778   0.933   4.613   2.931 -0.7979 -1.4501  1.0332
  924TIP3    H2 2779   0.880   4.472   2.920  1.2402 -2.1071 -1.5194
  925TIP3   OH2 2780   5.521   5.599   3.523  0.2471  0.4988 -0.0125
  925TIP3    H1 2781   5.474   5.605   3.606  2.3649 -0.7542  1.3512
  925TIP3    H2 2782   5.527   5.505   3.505  0.8165  0.7084 -1.0018
  926TIP3   OH2 2783   1.330   5.189   4.748  0.5008  0.3850  0.0720
  926TIP3    H1 2784   1.346   5.282   4.736 -1.8794  1.0796  1.5188
  926TIP3    H2 2785   1.256   5.169   4.692 -0.4220 -0.0777  1.3982
  927TIP3   OH2 2786   0.330   1.662   3.874 -0.3554  0.3546 -0.5008
  927TIP3    H1 2787   0.313   1.755   3.883  0.9864  0.6174 -0.5546
  927TIP3    H2 2788   0.366   1.652   3.786  1.2512  0.0809  0.1476
  928TIP3   OH2 2789   4.090   3.001   4.404 -0.2465  0.0147  0.1384
  928TIP3    H1 2790   4.092   3.046   4.488  0.1971  0.0814  0.0920
  928TIP3    H2 2791   4.156   3.045   4.351  2.2582 -2.4299  0.9736
  929TIP3   OH2 2792   5.798   5.002   4.123  0.5967 -0.1371 -0.4715
  929TIP3    H1 2793   5.816   5.026   4.032  0.3060 -0.1124 -0.5241
  929TIP3    H2 2794   5.727   4.938   4.118  0.1962  0.2858 -0.2283
  930TIP3   OH2 2795   5.420   1.358   3.391  0.6909 -0.2184 -0.3722
  930TIP3    H1 2796   5.475   1.281   3.382  0.3228 -0.2672 -2.8562
  930TIP3    H2 2797   5.482   1.431   3.399  1.0528 -0.5676  0.0732
  931TIP3   OH2 2798   3.704   3.737   0.624  0.3274 -0.1884 -0.4439
  931TIP3    H1 2799   3.715   3.777   0.711 -0.7092 -0.5778 -0.1253
  931TIP3    H2 2800   3.613   3.754   0.601  0.5547 -0.2184 -1.4008
  932TIP3   OH2 2801   5.281   0.205   3.658  0.0524  0.3223  0.2790
  932TIP3    H1 2802   5.328   0.283   3.628  0.6211  0.2279  0.9114
  932TIP3    H2 2803   5.324   0.132   3.612  1.4400  0.0925  1.8262
  933TIP3   OH2 2804   1.758   4.575   0.880 -0.6119 -0.2581 -0.4356
  933TIP3    H1 2805   1.748   4.520   0.958 -0.2568 -1.1952 -1.0419
  933TIP3    H2 2806   1.702   4.651   0.898 -2.2044 -1.4409 -0.1686
  934TIP3   OH2 2807   0.502   0.028   0.060 -0.1760 -0.1434  0.3077
  934TIP3    H1 2808   0.512  -0.048   0.118  1.6271  0.3590  0.7022
  934TIP3    H2 2809   0.485   0.101   0.119 -0.8623 -0.0401 -0.0037
  935TIP3   OH2 2810   4.818   2.365   0.079 -0.2990 -0.6373  0.0243
  935TIP3    H1 2811   4.814   2.435   0.013  0.1246 -1.1655 -0.5835
  935TIP3    H2 2812   4.767   2.294   0.041  2.4320 -2.0894 -1.2021
  936TIP3   OH2 2813   4.929   0.085  -0.000  0.2923  0.0094  0.5054
  936TIP3    H1 2814   5.000   0.081   0.064  2.5301 -1.0777 -1.8946
  936TIP3    H2 2815   4.920  -0.004  -0.033 -1.2947  0.3940 -0.2006
  937TIP3   OH2 2816   3.561   0.495   1.676 -0.5761  0.0728 -0.5706
  937TIP3    H1 2817   3.490   0.521   1.735 -0.2989 -0.3564 -0.0409
  937TIP3    H2 2818   3.546   0.402   1.660  1.6688 -0.9013  2.1679
  938TIP3   OH2 2819   1.565   4.282   4.153  0.3142  0.4032 -0.2571
  938TIP3    H1 2820   1.504   4.226   4.106  2.2390 -0.4576 -1.8783
  938TIP3    H2 2821   1.633   4.223   4.184  1.4522  1.5910 -0.4160
  939TIP3   OH2 2822   4.543   1.840   0.389  0.0509  0.7484 -0.2439
  939TIP3    H1 2823   4.459   1.836   0.435  0.4208  1.1305  0.4639
  939TIP3    H2 2824   4.552   1.753   0.349 -0.8581  0.8289 -0.6479
  940TIP3   OH2 2825   6.161   0.684   1.987 -0.1753 -0.3269 -0.2062
  940TIP3    H1 2826   6.250   0.688   1.953 -0.0229  0.0241  0.2200
  940TIP3    H2 2827   6.166   0.618   2.056 -0.3438 -0.6105 -0.4659
  941TIP3   OH2 2828   1.505   4.893   2.319  0.0443  0.1935 -0.5823
  941TIP3    H1 2829   1.423   4.903   2.366 -0.1367 -0.4136 -0.7606
  941TIP3    H2 2830   1.540   4.982   2.313 -0.8668  0.5387 -0.9848
  942TIP3   OH2 2831   0.305   2.816   2.025  0.2698 -0.1221 -0.0183
  942TIP3    H1 2832   0.220   2.807   1.983  0.0177 -1.1000  0.6794
  942TIP3    H2 2833   0.326   2.910   2.017 -0.6810  0.0560 -0.5315
  943TIP3   OH2 2834   2.798   3.422   3.649  0.1622  0.0134 -0.0358
  943TIP3    H1 2835   2.766   3.441   3.737  0.0735 -0.5132  0.0531
  943TIP3    H2 2836   2.728   3.371   3.609  0.8825 -1.2096  0.1795
  944TIP3   OH2 2837   4.358   0.371   4.656  0.5416  0.1241  0.1226
  944TIP3    H1 2838   4.313   0.387   4.573 -1.2396 -1.3604  0.7174
  944TIP3    H2 2839   4.405   0.289   4.642 -1.4246 -1.2838  1.0812
  945TIP3   OH2 2840   4.961   4.210   0.177  0.6667 -0.1371  0.1481
  945TIP3    H1 2841   5.039   4.155   0.176 -0.3769 -1.6893 -0.5555
  945TIP3    H2 2842   4.888   4.148   0.169 -0.6510  1.2459  0.9937
  946TIP3   OH2 2843   1.097   1.809   0.096  0.5457  0.9811 -0.5086
  946TIP3    H1 2844   1.112   1.729   0.146 -0.1861  1.2232  0.1214
  946TIP3    H2 2845   1.160   1.805   0.024  0.3533 -0.2802 -0.6301
  947TIP3   OH2 2846   1.248   1.913   1.619  0.2350 -0.2256 -0.6005
  947TIP3    H1 2847   1.224   1.821   1.608  0.7868 -0.2724 -1.5165
  947TIP3    H2 2848   1.334   1.920   1.578  1.7775 -0.0226  2.3632
  948TIP3   OH2 2849   1.706   3.119   3.896  0.2751 -0.6376 -0.1080
  948TIP3    H1 2850   1.613   3.127   3.872  0.7993 -0.5266 -2.2364
  948TIP3    H2 2851   1.715   3.028   3.925 -0.7439 -0.3010  1.3969
  949TIP3   OH2 2852   0.750   3.292   4.430  0.1010 -0.3743 -0.4099
  949TIP3    H1 2853   0.740   3.293   4.525 -0.3294 -0.5726 -0.4477
  949TIP3    H2 2854   0.683   3.353   4.398  1.9667  1.7680 -0.4724
  950TIP3   OH2 2855   4.274   5.754   0.947  0.1868 -0.0754  0.2398
  950TIP3    H1 2856   4.324   5.835   0.955 -0.4199  0.2701  0.5350
  950TIP3    H2 2857   4.185   5.778   0.970 -0.1538 -0.6592 -0.4475
  951TIP3   OH2 2858   3.123   1.163   5.173 -0.7898  0.1795 -0.2521
  951TIP3    H1 2859   3.046   1.107   5.171  0.4004 -1.9716  3.5453
  951TIP3    H2 2860   3.194   1.107   5.141  0.4047 -0.7435  3.5148
  952TIP3   OH2 2861   1.398   1.983   0.105 -0.1093 -0.1564 -0.1735
  952TIP3    H1 2862   1.336   1.957   0.172 -0.7190 -1.5688 -1.2304
  952TIP3    H2 2863   1.481   1.995   0.151 -0.3488 -1.7838  0.7525
  953TIP3   OH2 2864   4.364   1.186   3.377  0.1541 -0.1184 -0.0855
  953TIP3    H1 2865   4.387   1.274   3.404 -0.2864  0.2450 -0.8477
  953TIP3    H2 2866   4.279   1.169   3.419  0.0891 -0.0559 -0.1907
  954TIP3   OH2 2867   3.562   3.699   1.098 -0.8039 -1.0833 -0.3978
  954TIP3    H1 2868   3.558   3.607   1.072  1.6003 -1.9744  1.9071
  954TIP3    H2 2869   3.646   3.729   1.063 -0.6268 -0.3971  0.5910
  955TIP3   OH2 2870   5.018   2.253   3.985 -0.5937  0.3741 -0.1197
  955TIP3    H1 2871   4.935   2.211   3.965  0.0516 -0.4835 -1.0774
  955TIP3    H2 2872   5.084   2.190   3.959  0.3734  0.8610  1.0207
  956TIP3   OH2 2873   2.730   1.141   0.694  0.0009 -0.0563  0.2621
  956TIP3    H1 2874   2.722   1.161   0.788 -0.1700  1.8812 -0.1290
  956TIP3    H2 2875   2.805   1.083   0.689  1.5549  1.7317  1.4023
  957TIP3   OH2 2876   1.124   2.344   4.172 -0.0508  0.4569  0.0593
  957TIP3    H1 2877   1.118   2.249   4.176  1.1405  0.4011  2.3826
  957TIP3    H2 2878   1.081   2.374   4.253  0.9455  1.7921  0.1240
  958TIP3   OH2 2879   1.223   0.605   4.130 -0.0730 -0.7588  0.2156
  958TIP3    H1 2880   1.133   0.637   4.134 -0.0922 -0.5491 -1.3019
  958TIP3    H2 2881   1.248   0.615   4.038  1.6704 -0.3659  0.6904
  959TIP3   OH2 2882   0.131   5.771   0.102  0.1436 -0.2505  0.2889
  959TIP3    H1 2883   0.059   5.821   0.065  0.0308 -0.0215  0.8137
  959TIP3    H2 2884   0.208   5.799   0.052 -0.2611 -1.2165 -0.9483
  960TIP3   OH2 2885   1.308   0.329   0.648 -0.2721 -0.3378 -0.5502
  960TIP3    H1 2886   1.321   0.239   0.679  0.2360  0.0087  0.2678
  960TIP3    H2 2887   1.231   0.360   0.696 -1.6378 -0.9608 -2.2527
  961TIP3   OH2 2888   2.435   0.911   1.008 -0.5961  0.1236 -0.4334
  961TIP3    H1 2889   2.473   0.951   0.929  2.7000 -3.2349 -0.8368
  961TIP3    H2 2890   2.351   0.875   0.978 -1.8441  3.0943 -0.9481
  962TIP3   OH2 2891   2.913   2.669   4.929  0.1989 -0.2870 -0.0993
  962TIP3    H1 2892   2.856   2.681   5.005  1.1891  1.8325  0.3920
  962TIP3    H2 2893   2.872   2.722   4.860  0.6450 -0.1243 -0.2461
  963TIP3   OH2 2894   1.198   1.182   3.386 -0.5257 -0.0635  0.5849
  963TIP3    H1 2895   1.201   1.090   3.363 -1.1309  0.4778 -1.9594
  963TIP3    H2 2896   1.222   1.228   3.305 -0.0370  2.0174  1.8337
  964TIP3   OH2 2897   4.098   3.918   1.744  0.2249 -0.3719 -0.4798
  964TIP3    H1 2898   4.174   3.973   1.761 -0.5992  1.0545 -1.2390
  964TIP3    H2 2899   4.023   3.977   1.752 -0.6098 -1.0312 -2.7089
  965TIP3   OH2 2900   1.555   3.187   1.463  0.4994  0.1074  0.1170
  965TIP3    H1 2901   1.644   3.157   1.447 -0.6276 -3.7927  0.0983
  965TIP3    H2 2902   1.511   3.179   1.378 -0.2385  0.7068  0.4237
  966TIP3   OH2 2903   0.371   1.456   3.025 -0.0004  0.0289 -0.4219
  966TIP3    H1 2904   0.379   1.393   3.097 -0.5989  0.2084 -0.1933
  966TIP3    H2 2905   0.289   1.503   3.043  0.6233  1.1353 -0.3835
  967TIP3   OH2 2906   1.116   3.046   0.780  0.2899 -0.3703  0.0760
  967TIP3    H1 2907   1.175   2.971   0.767  1.4923  0.4730  0.5244
  967TIP3    H2 2908   1.055   3.042   0.706  1.9634 -0.2819 -1.3662
  968TIP3   OH2 2909   4.733   0.337   4.836 -0.2637  0.1898  0.0544
  968TIP3    H1 2910   4.815   0.304   4.873 -0.7119 -0.8947  0.0983
  968TIP3    H2 2911   4.700   0.398   4.902  0.2825  0.3099  0.2277
  969TIP3   OH2 2912   2.703   3.761   0.204 -0.0314  0.6599 -0.7838
  969TIP3    H1 2913   2.764   3.828   0.172 -0.1164 -0.3108 -3.1518
  969TIP3    H2 2914   2.643   3.810   0.261  1.0475  2.2174 -0.8953
  970TIP3   OH2 2915   3.275   0.880   2.258 -0.1534 -0.3237  0.2159
  970TIP3    H1 2916   3.352   0.879   2.202 -0.8047 -1.0954 -0.6978
  970TIP3    H2 2917   3.279   0.964   2.304  0.7692  0.0086 -0.4587
  971TIP3   OH2 2918   0.478   1.440   4.310  0.0064  0.7087  0.2203
  971TIP3    H1 2919   0.466   1.531   4.339  1.5757  1.0326 -0.0565
  971TIP3    H2 2920   0.538   1.403   4.375 -0.1510  0.0519 -0.0092
  972TIP3   OH2 2921   4.299   4.832   4.339 -0.2987  0.0769  0.0781
  972TIP3    H1 2922   4.240   4.792   4.402  1.1565 -2.0096  0.1987
  972TIP3    H2 2923   4.379   4.780   4.344 -0.3260 -0.6573 -3.9607
  973TIP3   OH2 2924   3.348   0.234   2.588 -0.6217 -0.3782 -0.1213
  973TIP3    H1 2925   3.280   0.301   2.601 -0.2692 -0.1904  0.8522
  973TIP3    H2 2926   3.392   0.228   2.673  0.4899 -0.5955 -0.6950
  974TIP3   OH2 2927   0.552   4.848   2.242 -0.3602 -0.3296  0.3841
  974TIP3    H1 2928   0.584   4.887   2.324  3.3684 -0.2469 -0.9648
  974TIP3    H2 2929   0.595   4.763   2.236 -0.4596 -0.2909 -1.5443
  975TIP3   OH2 2930   5.067   5.067   0.746  0.0654  0.0352  0.1616
  975TIP3    H1 2931   5.132   5.138   0.742  0.0767  0.1418  1.5788
  975TIP3    H2 2932   4.985   5.109   0.721  0.3134  0.2149 -0.3673
  976TIP3   OH2 2933   1.210   3.031   3.933 -0.2497 -0.3949 -0.1658
  976TIP3    H1 2934   1.148   3.104   3.933 -0.5852 -0.6736 -0.5178
  976TIP3    H2 2935   1.232   3.018   4.025  2.0066  1.9691 -0.2650
  977TIP3   OH2 2936   0.256   5.447   4.609  0.0485  0.2518  0.3210
  977TIP3    H1 2937   0.277   5.496   4.689  0.7853  0.4219  0.0396
  977TIP3    H2 2938   0.323   5.475   4.547 -0.2761 -0.1874 -0.2299
  978TIP3   OH2 2939   0.076   4.460   4.382 -0.0466  0.1220 -0.2238
  978TIP3    H1 2940   0.071   4.554   4.366  0.4335  0.0911 -0.5723
  978TIP3    H2 2941   0.157   4.432   4.339  0.9626 -0.0810  1.6938
  979TIP3   OH2 2942   3.577   3.474   4.431  0.0409 -0.6385  0.7612
  979TIP3    H1 2943   3.664   3.459   4.393  0.3310  0.4288  0.9747
  979TIP3    H2 2944   3.589   3.545   4.493 -1.2870  0.7311 -0.4452
  980TIP3   OH2 2945   2.333   1.639   0.515  0.0366 -0.9229 -0.2987
  980TIP3    H1 2946   2.239   1.638   0.501  0.1974  0.5849 -1.7880
  980TIP3    H2 2947   2.369   1.586   0.444  0.3699 -0.2918 -0.6169
  981TIP3   OH2 2948   2.422   3.876   4.150  0.4573 -0.1998  0.0516
  981TIP3    H1 2949   2.515   3.893   4.137 -0.1625  1.8566 -2.6702
  981TIP3    H2 2950   2.416   3.781   4.161  2.8511 -0.3558  0.5708
  982TIP3   OH2 2951   2.119   3.928   1.829 -0.4060  0.5067 -0.0542
  982TIP3    H1 2952   2.083   4.007   1.870  0.7041  0.5982  0.8039
  982TIP3    H2 2953   2.129   3.951   1.737 -1.6556  0.7731 -0.1500
  983TIP3   OH2 2954   3.742   1.027   2.722  0.0240 -0.1372 -0.3137
  983TIP3    H1 2955   3.652   1.039   2.749  0.4543  2.2260  0.2269
  983TIP3    H2 2956   3.785   0.988   2.798 -0.1749  0.3752  0.0638
  984TIP3   OH2 2957   3.314   4.264   1.433 -0.0828 -0.3691  0.0390
  984TIP3    H1 2958   3.298   4.291   1.524  1.4975  0.1826  0.1941
  984TIP3    H2 2959   3.252   4.316   1.382 -1.0952 -0.7886  0.7963
  985TIP3   OH2 2960   1.160   2.515   3.732  0.1605 -0.2481  0.2827
  985TIP3    H1 2961   1.097   2.449   3.761 -0.0053 -0.5438 -0.6967
  985TIP3    H2 2962   1.188   2.485   3.645 -0.9430  1.6210 -0.8025
  986TIP3   OH2 2963   0.951   4.890   3.942  0.3935  0.3140  0.0743
  986TIP3    H1 2964   0.909   4.839   4.011  0.1132 -1.5902 -1.4379
  986TIP3    H2 2965   0.977   4.972   3.986  2.6115 -1.7810  3.1486
  987TIP3   OH2 2966   0.484   0.271   1.898  0.1376  0.1953 -0.0508
  987TIP3    H1 2967   0.535   0.194   1.873  1.9491  1.8615 -1.9079
  987TIP3    H2 2968   0.513   0.291   1.987 -2.6344 -2.8970  1.7752
  988TIP3   OH2 2969   2.234   2.024   3.797  0.7256 -0.4525 -0.2615
  988TIP3    H1 2970   2.261   2.113   3.773 -0.4048 -0.6557 -2.6479
  988TIP3    H2 2971   2.165   2.036   3.862  2.5450  0.2608  1.6155
  989TIP3   OH2 2972   4.000   5.752   1.906 -0.0243  0.3043  0.2222
  989TIP3    H1 2973   3.913   5.749   1.946 -1.5194  0.5006 -2.7018
  989TIP3    H2 2974   3.983   5.767   1.813  3.2052  1.2700 -0.3565
  990TIP3   OH2 2975   0.508   2.777   4.379 -0.1009  0.4270 -0.1690
  990TIP3    H1 2976   0.436   2.721   4.347  1.9720 -2.4027 -0.3160
  990TIP3    H2 2977   0.522   2.748   4.469  1.3586  0.3133 -0.4143
  991TIP3   OH2 2978   3.456   0.735   0.863 -0.0958 -0.2149 -0.5102
  991TIP3    H1 2979   3.414   0.727   0.949 -1.0207  0.3737 -0.8977
  991TIP3    H2 2980   3.428   0.658   0.815 -1.6000  0.6734 -1.1169
  992TIP3   OH2 2981   3.382   1.933   0.169  0.1983 -0.0007 -0.3080
  992TIP3    H1 2982   3.295   1.964   0.144 -0.2436 -0.5294  0.5066
  992TIP3    H2 2983   3.419   2.005   0.221 -0.1906 -0.1976  0.2503
  993TIP3   OH2 2984   1.698   3.729   4.905  0.0115  0.1175 -0.4750
  993TIP3    H1 2985   1.643   3.796   4.945  1.6134  1.8838 -1.0596
  993TIP3    H2 2986   1.642   3.685   4.842 -1.2031  0.5845  0.2509
  994TIP3   OH2 2987   2.433   1.880   2.955  0.6948 -0.2870 -0.0790
  994TIP3    H1 2988   2.502   1.845   2.898  0.4058 -1.7995  0.4579
  994TIP3    H2 2989   2.352   1.856   2.912  0.4573 -1.9588  1.2011
  995TIP3   OH2 2990   5.712   5.471   4.142 -0.1711 -0.2008 -0.1236
  995TIP3    H1 2991   5.621   5.468   4.173 -0.6492  0.5826 -1.3703
  995TIP3    H2 2992   5.752   5.392   4.177 -1.3220 -0.5373  0.4882
  996TIP3   OH2 2993   4.336   5.256   3.410  0.0771  0.1925 -0.2871
  996TIP3    H1 2994   4.404   5.316   3.380  0.5033 -1.0104 -1.8729
  996TIP3    H2 2995   4.257   5.282   3.363  0.2432 -0.4109 -0.9158
  997TIP3   OH2 2996   3.930   1.021   3.258  0.2709  0.2888  0.6986
  997TIP3    H1 2997   3.866   1.089   3.279  0.9550  1.0549  0.3255
  997TIP3    H2 2998   4.011   1.068   3.239  1.7125 -0.7380  3.6466
  998TIP3   OH2 2999   4.674   5.690   0.251 -0.4622 -0.0900  0.0980
  998TIP3    H1 3000   4.600   5.655   0.202 -1.6862 -1.4485  2.6836
  998TIP3    H2 3001   4.637   5.762   0.303  0.4233  0.3132  0.2002
  999TIP3   OH2 3002   0.367   4.996   4.942  0.4348  0.8256 -0.4242
  999TIP3    H1 3003   0.278   5.010   4.973  0.7281 -1.1363  1.5012
  999TIP3    H2 3004   0.360   4.919   4.885  0.8176  1.0715 -0.8100
 1000TIP3   OH2 3005   4.186   4.749   2.414 -0.3059 -0.3749  0.5883
 1000TIP3    H1 3006   4.141   4.777   2.494  0.3608 -2.2428  1.6765
 1000TIP3    H2 3007   4.279   4.749   2.437 -0.1716 -1.9381  0.2031
 1001TIP3   OH2 3008   1.059   5.543   0.221 -0.5868  0.0903 -0.4539
 1001TIP3    H1 3009   1.096   5.483   0.156  0.6079 -0.2365  0.4874
 1001TIP3    H2 3010   1.121   5.540   0.294 -0.0108  3.0870 -0.6643
 1002TIP3   OH2 3011   2.025   2.592   1.691 -0.8151 -0.9063  0.0565
 1002TIP3    H1 3012   2.114   2.618   1.714 -1.1106  0.4573 -0.2731
 1002TIP3    H2 3013   1.998   2.535   1.763 -0.5787  0.7223  1.5031
 1003TIP3   OH2 3014   2.742   3.486   3.321 -0.9945 -0.7938  0.4449
 1003TIP3    H1 3015   2.781   3.413   3.369  0.3538  1.0516  2.3094
 1003TIP3    H2 3016   2.810   3.511   3.257 -1.6082 -1.3652 -0.4579
 1004TIP3   OH2 3017   4.735   4.028   0.279  0.4228 -0.0984 -0.0322
 1004TIP3    H1 3018   4.728   3.938   0.312  0.2225  0.0883  0.4383
 1004TIP3    H2 3019   4.804   4.068   0.332  0.8443 -0.1060 -0.5566
 1005TIP3   OH2 3020   3.725   4.349   1.939 -0.4278 -0.2792  0.5646
 1005TIP3    H1 3021   3.633   4.365   1.960 -0.8142 -1.1002 -0.4321
 1005TIP3    H2 3022   3.771   4.365   2.021 -1.4115  0.5042  0.9898
 1006TIP3   OH2 3023   5.315   1.183   3.587 -0.3059 -0.3929 -0.0732
 1006TIP3    H1 3024   5.335   1.274   3.563 -0.8554 -0.3714 -0.4630
 1006TIP3    H2 3025   5.398   1.136   3.573  0.8887  0.5486  2.9330
 1007TIP3   OH2 3026   5.779   0.467   1.865  0.2373 -0.5318 -0.4569
 1007TIP3    H1 3027   5.722   0.462   1.942  0.3231 -3.8151 -0.4657
 1007TIP3    H2 3028   5.718   0.473   1.791 -0.1345 -2.7155 -0.3844
 1008TIP3   OH2 3029   2.481   1.084   1.610  0.1554  0.4680 -0.5473
 1008TIP3    H1 3030   2.391   1.106   1.588 -0.1097 -0.1446 -0.0951
 1008TIP3    H2 3031   2.534   1.142   1.555 -0.5091  0.7835 -0.8636
 1009TIP3   OH2 3032   2.602   4.578   3.002 -0.1342  0.6639 -0.5852
 1009TIP3    H1 3033   2.623   4.665   2.966  0.7136 -0.1224 -2.0963
 1009TIP3    H2 3034   2.567   4.529   2.928  0.3197 -0.5829 -0.0063
 1010TIP3   OH2 3035   2.352   5.149   1.478  0.2154 -0.4081 -0.2314
 1010TIP3    H1 3036   2.374   5.110   1.394  0.2133 -0.7905 -0.0589
 1010TIP3    H2 3037   2.411   5.106   1.540 -1.4426 -1.9924  0.3623
 1011TIP3   OH2 3038   3.458   0.193   4.801  0.1220  0.3896 -0.0343
 1011TIP3    H1 3039   3.392   0.241   4.750  0.1851  0.2343 -0.2616
 1011TIP3    H2 3040   3.488   0.256   4.866 -2.4158 -0.3930  2.0519
 1012TIP3   OH2 3041   4.453   1.556   5.062  0.0989 -0.4981  0.0367
 1012TIP3    H1 3042   4.496   1.489   5.114  1.4265  0.4503  0.2095
 1012TIP3    H2 3043   4.433   1.626   5.124 -1.8031 -0.9435 -0.0268
 1013TIP3   OH2 3044   1.197   0.997   4.092  0.0180  0.3776  0.0225
 1013TIP3    H1 3045   1.149   1.069   4.133 -0.5540  0.0302 -0.0322
 1013TIP3    H2 3046   1.286   1.004   4.128 -0.1399  0.8640  0.3263
 1014TIP3   OH2 3047   3.542   1.282   0.515 -0.1880  0.6205 -0.0339
 1014TIP3    H1 3048   3.589   1.298   0.597  0.0703  2.8073 -0.5499
 1014TIP3    H2 3049   3.492   1.363   0.501 -1.7108 -0.4638 -1.0724
 1015TIP3   OH2 3050   5.339   2.599   3.737  0.2519 -0.2735  0.6342
 1015TIP3    H1 3051   5.286   2.521   3.724 -0.5141  0.2391  0.6040
 1015TIP3    H2 3052   5.422   2.566   3.771  0.3492 -1.1888 -0.4177
 1016TIP3   OH2 3053   5.158   2.608   3.172 -0.3096  0.0130 -0.3533
 1016TIP3    H1 3054   5.250   2.629   3.185  0.0786 -1.6979  0.0196
 1016TIP3    H2 3055   5.126   2.585   3.260 -0.9593  0.1128 -0.5556
 1017TIP3   OH2 3056   3.364   0.460   2.934  0.0398 -0.2145  0.4348
 1017TIP3    H1 3057   3.322   0.541   2.904  0.9703  0.1411  0.0673
 1017TIP3    H2 3058   3.344   0.456   3.027  0.5300  0.7816  0.5970
 1018TIP3   OH2 3059   3.057   5.456   1.467  0.5057 -0.0298  0.6047
 1018TIP3    H1 3060   3.023   5.538   1.504 -2.2937  0.3305 -2.2736
 1018TIP3    H2 3061   3.002   5.388   1.505  0.0307 -0.0533 -0.0984
 1019TIP3   OH2 3062   6.088   5.950   1.406 -0.1939  0.2896 -0.2572
 1019TIP3    H1 3063   6.086   5.949   1.310  0.8312  1.5341 -0.3109
 1019TIP3    H2 3064   6.106   6.041   1.428 -0.1085 -0.0519  1.1246
 1020TIP3   OH2 3065   5.900   2.772   3.755 -0.1103 -0.3081  0.0539
 1020TIP3    H1 3066   5.889   2.771   3.850  1.4235 -2.5491  0.3062
 1020TIP3    H2 3067   5.892   2.864   3.730 -2.0179  0.1709  2.1279
 1021TIP3   OH2 3068   3.814   0.917   0.802 -0.4999 -0.3974  0.2068
 1021TIP3    H1 3069   3.894   0.967   0.817 -0.5812  0.6896 -2.4161
 1021TIP3    H2 3070   3.825   0.836   0.852 -0.3755  2.1188  4.6808
 1022TIP3   OH2 3071   0.201   5.059   0.749  0.9218 -0.0587 -0.4146
 1022TIP3    H1 3072   0.253   5.075   0.670  0.9957  0.8088 -0.1934
 1022TIP3    H2 3073   0.112   5.044   0.717  0.8131  0.9900 -0.6169
 1023TIP3   OH2 3074   4.882   4.316   3.721 -0.5259  0.0489  0.3128
 1023TIP3    H1 3075   4.931   4.310   3.639 -0.7443  2.3244 -0.0443
 1023TIP3    H2 3076   4.900   4.233   3.765  2.3965  0.1475 -0.4688
 1024TIP3   OH2 3077   4.326   5.607   1.526 -0.1099 -0.0339  0.5091
 1024TIP3    H1 3078   4.409   5.635   1.488 -0.4300  1.7648  1.0463
 1024TIP3    H2 3079   4.343   5.518   1.558  2.0160  0.7305  1.7371
 1025TIP3   OH2 3080   2.570   1.684   4.726 -0.4980 -0.4384 -0.0359
 1025TIP3    H1 3081   2.496   1.642   4.770 -1.3321  0.8657 -0.1386
 1025TIP3    H2 3082   2.648   1.646   4.768 -1.2268 -1.2022  0.6622
 1026TIP3   OH2 3083   2.510   4.769   1.665 -0.3033  0.2021  0.2862
 1026TIP3    H1 3084   2.524   4.718   1.585  2.6187 -0.4570  1.1073
 1026TIP3    H2 3085   2.416   4.758   1.684 -0.9754 -0.1086 -2.6591
 1027TIP3   OH2 3086   3.547   3.916   0.845  0.0510  0.7141  0.0939
 1027TIP3    H1 3087   3.618   3.859   0.876  1.9046  1.7800 -1.8604
 1027TIP3    H2 3088   3.469   3.861   0.848  1.5458 -1.5919 -0.6408
 1028TIP3   OH2 3089   3.138   2.518   3.758 -0.0435 -0.6044 -0.0532
 1028TIP3    H1 3090   3.226   2.555   3.754  0.7016 -2.3081 -2.9629
 1028TIP3    H2 3091   3.150   2.425   3.737 -2.4501 -1.1115  0.4518
 1029TIP3   OH2 3092   2.546   1.425   3.120  0.1244 -0.1141 -0.5798
 1029TIP3    H1 3093   2.517   1.420   3.212 -0.9483 -0.0244 -0.9061
 1029TIP3    H2 3094   2.641   1.412   3.125 -0.0251 -1.0241  0.4673
 1030TIP3   OH2 3095   0.830   3.674   4.178  0.0067  0.1486  0.0824
 1030TIP3    H1 3096   0.924   3.656   4.175  0.1147  0.6896 -2.8356
 1030TIP3    H2 3097   0.789   3.595   4.143 -0.7633 -0.3862  2.0349
 1031TIP3   OH2 3098   1.121   5.939   2.145 -0.0045 -0.2312 -0.1252
 1031TIP3    H1 3099   1.148   5.994   2.219 -2.5328  1.0597 -0.0749
 1031TIP3    H2 3100   1.126   5.849   2.179  0.1386  0.2479  1.1601
 1032TIP3   OH2 3101   4.684   1.995   2.667 -0.1154 -0.3227 -0.4960
 1032TIP3    H1 3102   4.693   1.935   2.594  0.6174 -1.2153  0.3137
 1032TIP3    H2 3103   4.655   1.941   2.740 -0.0684  0.4147  0.0888
 1033TIP3   OH2 3104   5.684   1.442   3.574 -0.1550  0.0161 -0.7839
 1033TIP3    H1 3105   5.758   1.391   3.607 -0.9101 -1.9971 -2.0321
 1033TIP3    H2 3106   5.715   1.533   3.579  2.2258 -0.7038 -0.8070
 1034TIP3   OH2 3107   4.464   1.160   4.521  0.5562  0.1566  0.0014
 1034TIP3    H1 3108   4.452   1.244   4.476 -0.0272 -0.5130 -1.1233
 1034TIP3    H2 3109   4.532   1.116   4.470 -1.2092 -1.2643 -1.2275
 1035TIP3   OH2 3110   1.587   3.897   2.156  0.3283 -0.0580 -0.6401
 1035TIP3    H1 3111   1.546   3.954   2.222  0.1536 -0.0250 -0.7779
 1035TIP3    H2 3112   1.522   3.829   2.139 -0.1115  0.5979 -1.6551
 1036TIP3   OH2 3113   5.030   5.346   2.326 -0.2741 -0.5457  0.6813
 1036TIP3    H1 3114   5.078   5.416   2.282  0.1922 -0.1162  1.8250
 1036TIP3    H2 3115   5.074   5.265   2.299  1.4868 -0.1327  2.0821
 1037TIP3   OH2 3116   2.496   2.326   0.162 -0.2056  0.6876  0.1070
 1037TIP3    H1 3117   2.493   2.418   0.136  1.5230  0.9723  0.8106
 1037TIP3    H2 3118   2.488   2.328   0.257 -1.6327 -0.0172  0.0256
 1038TIP3   OH2 3119   3.654   1.912   2.047  0.0549 -0.0384 -0.2178
 1038TIP3    H1 3120   3.701   1.833   2.020 -1.3091 -1.1530  0.5434
 1038TIP3    H2 3121   3.594   1.930   1.975 -1.2860 -1.1039  0.5935
 1039TIP3   OH2 3122   4.525   4.410   2.680  0.3171 -0.2704  0.6026
 1039TIP3    H1 3123   4.466   4.411   2.605  1.9010 -0.1309 -0.7060
 1039TIP3    H2 3124   4.476   4.367   2.749 -1.3866  0.0629 -0.3449
 1040TIP3   OH2 3125   3.873   1.267   2.652  0.0422 -0.6945  0.3056
 1040TIP3    H1 3126   3.878   1.175   2.679  0.4213 -0.2384  1.9264
 1040TIP3    H2 3127   3.779   1.286   2.650 -0.0165 -0.9286  0.6997
 1041TIP3   OH2 3128   2.113   4.380   4.227  0.0130  0.5363  0.1467
 1041TIP3    H1 3129   2.125   4.297   4.274 -1.3771  0.5714  0.6074
 1041TIP3    H2 3130   2.187   4.384   4.167 -1.1498 -2.2520 -1.6803
 1042TIP3   OH2 3131   3.567   0.943   0.171 -0.0483  0.3798 -0.1660
 1042TIP3    H1 3132   3.480   0.972   0.143 -0.1293  0.0537 -0.2471
 1042TIP3    H2 3133   3.627   0.998   0.120 -0.1934 -0.1761 -0.9534
 1043TIP3   OH2 3134   3.904   5.240   0.699 -0.4401 -0.4811 -0.1905
 1043TIP3    H1 3135   3.870   5.238   0.610  1.9187  0.7418 -1.2087
 1043TIP3    H2 3136   3.994   5.206   0.692 -0.3474 -0.8260  1.8202
 1044TIP3   OH2 3137   5.895   3.070   1.040 -0.1512  0.5266 -0.1649
 1044TIP3    H1 3138   5.935   2.988   1.068 -0.9731  0.0893 -0.2327
 1044TIP3    H2 3139   5.917   3.078   0.947  1.0350  1.0571  0.1466
 1045TIP3   OH2 3140   2.372   0.117   4.600 -0.1791  0.2016  0.2044
 1045TIP3    H1 3141   2.428   0.118   4.522  1.3255 -0.0679  1.2226
 1045TIP3    H2 3142   2.423   0.166   4.666 -1.1479 -0.0683  1.1813
 1046TIP3   OH2 3143   3.754   1.340   1.288  0.0698 -0.0087 -0.2955
 1046TIP3    H1 3144   3.659   1.325   1.291 -0.0087  0.3320 -0.8104
 1046TIP3    H2 3145   3.793   1.260   1.321 -0.3772 -0.5424 -1.0327
 1047TIP3   OH2 3146   4.199   4.279   3.556 -0.5513 -0.5091  0.2872
 1047TIP3    H1 3147   4.241   4.238   3.631  0.3818  0.6237  0.4104
 1047TIP3    H2 3148   4.180   4.368   3.584  0.2923  0.0963 -0.9790
 1048TIP3   OH2 3149   1.952   5.509   2.590  0.5913  0.1126  0.1460
 1048TIP3    H1 3150   1.944   5.414   2.597  0.7715  0.1709  1.1762
 1048TIP3    H2 3151   1.992   5.537   2.672 -1.3016  1.2923  0.7465
 1049TIP3   OH2 3152   3.296   3.158   1.570  0.2406  0.1891  0.0089
 1049TIP3    H1 3153   3.320   3.066   1.571  3.3539  0.8857 -0.2652
 1049TIP3    H2 3154   3.272   3.176   1.479 -0.1547 -0.2918  0.0165
 1050TIP3   OH2 3155   5.975   4.622   1.694  0.8707  0.3869 -0.6057
 1050TIP3    H1 3156   5.882   4.611   1.672  1.1388 -2.6431 -0.6200
 1050TIP3    H2 3157   5.974   4.661   1.782 -0.2880  3.0262 -1.6544
 1051TIP3   OH2 3158   0.530   3.480   4.399 -0.2721  0.8338  0.1583
 1051TIP3    H1 3159   0.486   3.455   4.318  0.1812 -1.3269  0.5092
 1051TIP3    H2 3160   0.516   3.574   4.406 -3.6287  0.4981 -0.4673
 1052TIP3   OH2 3161   3.450   2.524   4.841  0.2777 -0.0886  0.0154
 1052TIP3    H1 3162   3.371   2.496   4.889  0.4897  0.8791  0.9598
 1052TIP3    H2 3163   3.416   2.574   4.767 -0.0281  2.4209  1.7261
 1053TIP3   OH2 3164   2.913   0.186   2.193  0.2747  0.0664  0.1901
 1053TIP3    H1 3165   2.877   0.255   2.249  0.5029 -0.5186  1.0867
 1053TIP3    H2 3166   2.883   0.207   2.105  2.3193  2.6991  0.0043
 1054TIP3   OH2 3167   3.752   5.396   3.302 -0.3180 -0.4866 -0.3664
 1054TIP3    H1 3168   3.780   5.469   3.358  0.5630 -2.3278  1.7717
 1054TIP3    H2 3169   3.779   5.422   3.214  0.8710  1.3200  0.4619
 1055TIP3   OH2 3170   4.188   2.350   4.341  0.4608 -0.1468  0.7154
 1055TIP3    H1 3171   4.235   2.430   4.317  2.3127 -0.8863  1.6244
 1055TIP3    H2 3172   4.160   2.311   4.258  3.0986 -0.5788 -0.0661
 1056TIP3   OH2 3173   4.299   4.307   1.769 -0.0175 -0.1433 -0.4296
 1056TIP3    H1 3174   4.298   4.216   1.799 -2.2690  0.8153  2.9172
 1056TIP3    H2 3175   4.388   4.319   1.734  0.9182 -3.1442  0.5951
 1057TIP3   OH2 3176   1.012   0.504   1.780  0.3143 -0.1337 -0.4787
 1057TIP3    H1 3177   0.945   0.485   1.715  0.2694  1.5733 -0.9730
 1057TIP3    H2 3178   1.093   0.508   1.729  0.0969  2.6088 -0.7607
 1058TIP3   OH2 3179   0.523   0.299   2.875  0.0036 -0.6859 -0.0137
 1058TIP3    H1 3180   0.455   0.297   2.808  0.8550  3.6050 -1.3098
 1058TIP3    H2 3181   0.477   0.332   2.953 -0.0589 -1.0796  0.1164
 1059TIP3   OH2 3182   0.191   0.483   4.811 -0.4069  0.0335  0.1459
 1059TIP3    H1 3183   0.180   0.418   4.880 -2.3654  1.8680  1.6911
 1059TIP3    H2 3184   0.280   0.516   4.823 -0.4592 -0.2088  1.3191
 1060TIP3   OH2 3185   0.782   4.553   1.360  0.6788  0.1909 -0.0065
 1060TIP3    H1 3186   0.702   4.521   1.319  0.9724 -0.2459 -0.2481
 1060TIP3    H2 3187   0.753   4.598   1.439  0.2657 -0.8515  0.4497
 1061TIP3   OH2 3188   1.287   1.635   3.225 -0.3047 -0.0031 -0.4653
 1061TIP3    H1 3189   1.205   1.685   3.218 -0.3051 -0.0133 -0.5380
 1061TIP3    H2 3190   1.290   1.607   3.316  0.4509  1.4172 -0.0250
 1062TIP3   OH2 3191   1.287   2.348   3.529 -0.6862 -0.2106  0.0336
 1062TIP3    H1 3192   1.291   2.259   3.565 -1.0641 -0.1085  0.3341
 1062TIP3    H2 3193   1.371   2.387   3.554 -1.0735 -0.0350  1.1066
 1063TIP3   OH2 3194   4.691   1.478   1.675 -0.3358  0.1980  0.0718
 1063TIP3    H1 3195   4.690   1.396   1.626 -1.7730  0.6473 -0.7285
 1063TIP3    H2 3196   4.607   1.479   1.721  0.4309  0.4095  1.5094
 1064TIP3   OH2 3197   1.035   3.712   2.001  0.2188  0.0277 -0.4188
 1064TIP3    H1 3198   1.021   3.644   1.935 -0.8337 -0.5692  0.3657
 1064TIP3    H2 3199   0.967   3.777   1.983 -0.2806 -0.2940  0.2391
 1065TIP3   OH2 3200   5.942   1.018   1.082  0.3648  0.0632  0.7472
 1065TIP3    H1 3201   5.886   1.045   1.156  1.0066  1.8228  0.6361
 1065TIP3    H2 3202   5.881   1.009   1.009 -0.2818 -1.6971  1.4366
 1066TIP3   OH2 3203   5.173   4.895   1.618 -0.2187  0.0912 -0.1816
 1066TIP3    H1 3204   5.199   4.842   1.543  0.5564 -0.0693  0.1923
 1066TIP3    H2 3205   5.226   4.975   1.611 -0.6324  0.3679 -0.1756
 1067TIP3   OH2 3206   0.942   5.122   0.878  0.4563  0.4859  0.1501
 1067TIP3    H1 3207   0.966   5.049   0.934 -0.5771  1.1952  1.5905
 1067TIP3    H2 3208   0.892   5.181   0.935  2.4580  3.0482 -0.5331
 1068TIP3   OH2 3209   3.582   2.186   1.882 -0.6651 -0.1441  0.2978
 1068TIP3    H1 3210   3.565   2.242   1.806 -1.5907 -0.1461  0.4911
 1068TIP3    H2 3211   3.502   2.193   1.934 -0.2559 -0.5965  0.9863
 1069TIP3   OH2 3212   1.906   3.166   0.682  0.3423  0.2128  0.3894
 1069TIP3    H1 3213   1.826   3.214   0.660  1.4907  1.2197 -1.9050
 1069TIP3    H2 3214   1.875   3.078   0.702 -1.4096  0.7111  0.0854
 1070TIP3   OH2 3215   3.561   3.491   2.806 -0.8842 -0.0249  0.1059
 1070TIP3    H1 3216   3.613   3.520   2.732 -1.8960  0.9941 -0.2372
 1070TIP3    H2 3217   3.554   3.396   2.795 -1.1803  0.1331 -1.2059
 1071TIP3   OH2 3218   4.079   4.777   4.756  0.2087  0.3147  0.0052
 1071TIP3    H1 3219   3.998   4.814   4.719  0.9274  0.5478 -1.4129
 1071TIP3    H2 3220   4.148   4.837   4.728  1.0123 -0.4605  0.2703
 1072TIP3   OH2 3221   6.160   3.442   2.913  0.1872  0.1988 -0.4241
 1072TIP3    H1 3222   6.194   3.423   3.000 -1.6989 -0.6090  0.2072
 1072TIP3    H2 3223   6.112   3.524   2.923 -2.5111 -1.3330  0.1203
 1073TIP3   OH2 3224   5.042   3.942   3.581  0.0620 -0.1708 -0.0398
 1073TIP3    H1 3225   4.967   3.947   3.522  0.1883  0.2578 -0.1644
 1073TIP3    H2 3226   5.112   3.904   3.528  0.3275  0.6963 -0.3254
 1074TIP3   OH2 3227   1.279   4.347   2.479 -0.3369  0.6580  0.9514
 1074TIP3    H1 3228   1.206   4.409   2.482 -1.1721 -0.2160 -0.2395
 1074TIP3    H2 3229   1.246   4.269   2.524  0.3850  0.7362  1.6465
 1075TIP3   OH2 3230   5.495   2.765   0.268  0.2691  0.6146 -0.3101
 1075TIP3    H1 3231   5.460   2.853   0.281  0.3508  0.8279 -1.3947
 1075TIP3    H2 3232   5.429   2.721   0.213  0.9080  0.4871 -0.9949
 1076TIP3   OH2 3233   1.387   2.603   1.005  0.0764 -0.0255  0.5136
 1076TIP3    H1 3234   1.350   2.616   1.092  0.5720 -0.4167  0.7863
 1076TIP3    H2 3235   1.357   2.516   0.979  1.3711 -0.6506  1.0363
 1077TIP3   OH2 3236   2.208   3.061   1.422  0.2860  0.6387 -0.3216
 1077TIP3    H1 3237   2.170   3.055   1.509  0.3272  0.2939 -0.3239
 1077TIP3    H2 3238   2.245   3.149   1.417 -0.3033  0.8952 -0.2335
 1078TIP3   OH2 3239   6.051   1.389   0.889  0.0811 -0.1208 -0.0212
 1078TIP3    H1 3240   6.011   1.303   0.899  1.5724 -0.8224  0.0607
 1078TIP3    H2 3241   6.141   1.372   0.863  0.3227  1.4243 -0.3137
 1079TIP3   OH2 3242   4.627   5.125   2.732  0.3629 -0.4674 -0.2992
 1079TIP3    H1 3243   4.620   5.068   2.809  0.7019 -1.0153 -0.6665
 1079TIP3    H2 3244   4.651   5.210   2.767 -1.5827 -0.1435  0.4137
 1080TIP3   OH2 3245   6.023   3.836   2.796 -0.1297 -0.2998 -0.4550
 1080TIP3    H1 3246   6.011   3.856   2.889 -2.7839  0.5052 -0.8740
 1080TIP3    H2 3247   6.020   3.922   2.752 -0.0542 -0.7495 -1.3663
 1081TIP3   OH2 3248   5.093   1.842   4.912 -0.0755  0.2330 -0.0169
 1081TIP3    H1 3249   5.169   1.832   4.969 -0.5819  1.2262  0.8513
 1081TIP3    H2 3250   5.129   1.845   4.824  0.8818  0.5450  0.3804
 1082TIP3   OH2 3251   2.433   2.033   3.560 -0.1804  0.3700 -0.2920
 1082TIP3    H1 3252   2.386   2.013   3.641  1.8618  0.2741  0.9248
 1082TIP3    H2 3253   2.372   2.088   3.510 -1.0627  1.3862  1.7945
 1083TIP3   OH2 3254   5.932   3.174   0.368  0.1854  0.3546  0.3150
 1083TIP3    H1 3255   6.001   3.156   0.304 -0.5100 -0.7996 -0.1275
 1083TIP3    H2 3256   5.852   3.139   0.329 -0.4342  0.5235  1.3884
 1084TIP3   OH2 3257   3.596   5.172   4.345  0.0758  0.6174  0.7548
 1084TIP3    H1 3258   3.536   5.208   4.280 -0.0184 -0.6474  0.1031
 1084TIP3    H2 3259   3.547   5.100   4.385  1.1618 -0.4786  0.1737
 1085TIP3   OH2 3260   1.386   4.602   1.326 -0.1820  0.2518 -0.2831
 1085TIP3    H1 3261   1.332   4.676   1.298  0.1094  0.0723 -1.3735
 1085TIP3    H2 3262   1.361   4.587   1.417 -0.5265  1.4356 -0.1711
 1086TIP3   OH2 3263   4.874   0.976   1.163 -0.2745  0.2630 -0.3839
 1086TIP3    H1 3264   4.912   0.889   1.151 -0.0075  0.3202  0.0362
 1086TIP3    H2 3265   4.891   1.021   1.080  0.6347  0.3089 -0.1865
 1087TIP3   OH2 3266   0.411   1.028   4.298  0.3334  0.0164  0.1354
 1087TIP3    H1 3267   0.319   1.045   4.315 -0.0891 -1.5956 -0.3737
 1087TIP3    H2 3268   0.425   1.055   4.207 -0.0893 -1.3207 -0.3490
 1088TIP3   OH2 3269   3.542   2.411   2.381  0.1474  0.1809 -0.4900
 1088TIP3    H1 3270   3.495   2.331   2.404 -0.3650  0.0681 -1.8704
 1088TIP3    H2 3271   3.627   2.402   2.424 -0.6573 -0.1160  1.1260
 1089TIP3   OH2 3272   2.416   0.742   4.826 -0.6300 -0.3454  0.3123
 1089TIP3    H1 3273   2.475   0.672   4.800 -0.4498  0.6604 -2.3474
 1089TIP3    H2 3274   2.462   0.788   4.896  0.9146 -0.6940 -0.4403
 1090TIP3   OH2 3275   5.085   1.322   3.658 -0.6512  0.5212 -0.4639
 1090TIP3    H1 3276   5.138   1.244   3.645 -0.6597  0.4596 -0.1598
 1090TIP3    H2 3277   5.080   1.363   3.572  0.9243  1.1991 -0.2691
 1091TIP3   OH2 3278   6.055   2.617   4.184  0.4306 -0.4211 -0.2014
 1091TIP3    H1 3279   6.034   2.557   4.112 -1.0766  1.0749 -1.0821
 1091TIP3    H2 3280   5.976   2.617   4.238  1.2916 -0.9947  1.1013
 1092TIP3   OH2 3281   4.682   3.657   1.904 -0.3483 -0.2753 -0.0359
 1092TIP3    H1 3282   4.773   3.637   1.883 -0.7916  0.0547 -2.6180
 1092TIP3    H2 3283   4.668   3.746   1.869 -1.1927  0.4517  1.9693
 1093TIP3   OH2 3284   2.101   0.590   3.855  0.0305  0.4818  0.4993
 1093TIP3    H1 3285   2.143   0.518   3.808 -0.6171  0.1357  0.4466
 1093TIP3    H2 3286   2.092   0.659   3.790  0.6073  0.5945  0.5355
 1094TIP3   OH2 3287   3.568   0.661   4.981  0.0751 -0.0839  0.0060
 1094TIP3    H1 3288   3.630   0.734   4.987 -0.6545  0.4983  0.6747
 1094TIP3    H2 3289   3.496   0.685   5.039 -0.5169 -1.0173 -0.3060
 1095TIP3   OH2 3290   5.088   3.259   1.459  0.0947 -0.5606  0.1917
 1095TIP3    H1 3291   5.010   3.204   1.450 -0.3696 -0.0381  0.8298
 1095TIP3    H2 3292   5.094   3.306   1.375 -0.7515 -0.0223  0.4164
 1096TIP3   OH2 3293   5.602   1.690   0.734 -0.0813 -0.1077 -0.0526
 1096TIP3    H1 3294   5.510   1.707   0.714  0.3509  3.6603  0.4238
 1096TIP3    H2 3295   5.605   1.680   0.829 -0.1734 -2.3516 -0.2318
 1097TIP3   OH2 3296   2.288   3.302   4.959  0.0647  0.0887  0.0348
 1097TIP3    H1 3297   2.233   3.252   5.019  0.4103 -0.1015  0.1936
 1097TIP3    H2 3298   2.357   3.339   5.014  0.9092 -0.8283 -0.3711
 1098TIP3   OH2 3299   0.177   5.955   3.864 -0.0621  0.2037  0.0915
 1098TIP3    H1 3300   0.195   5.923   3.775  0.3968 -1.2459  0.6672
 1098TIP3    H2 3301   0.231   6.034   3.873 -0.9902  1.0302 -1.2873
 1099TIP3   OH2 3302   2.630   2.855   0.625 -0.2925  0.2219  0.6368
 1099TIP3    H1 3303   2.569   2.917   0.584 -1.5929 -1.5222 -0.1567
 1099TIP3    H2 3304   2.597   2.846   0.715 -0.3029  0.3892  0.6515
 1100TIP3   OH2 3305   2.586   2.076   2.333 -0.4642  0.3491 -0.7553
 1100TIP3    H1 3306   2.597   1.982   2.317 -0.0714  0.4330 -0.9926
 1100TIP3    H2 3307   2.513   2.101   2.277 -1.1016  0.0306 -0.0894
 1101TIP3   OH2 3308   1.837   2.869   0.711  0.0164  0.6947 -0.6039
 1101TIP3    H1 3309   1.891   2.792   0.727  0.7837  1.4689  0.7152
 1101TIP3    H2 3310   1.747   2.837   0.714  0.2769  0.0351  1.1166
 1102TIP3   OH2 3311   4.694   1.124   0.548  0.1775 -0.1833  1.1270
 1102TIP3    H1 3312   4.736   1.192   0.601 -0.8056  1.5513 -0.2068
 1102TIP3    H2 3313   4.607   1.114   0.587  0.1145 -0.2576  0.9653
 1103TIP3   OH2 3314   0.389   0.122   3.885 -0.2007 -0.3052 -0.4602
 1103TIP3    H1 3315   0.409   0.072   3.964  0.9692  0.0578 -0.5134
 1103TIP3    H2 3316   0.400   0.060   3.813 -1.2610 -0.6343 -0.3629
 1104TIP3   OH2 3317   1.632   1.487   2.207 -0.5860 -0.5687 -0.3045
 1104TIP3    H1 3318   1.652   1.463   2.116 -0.2339 -0.9075 -0.1393
 1104TIP3    H2 3319   1.593   1.408   2.244  0.3741 -0.8229  0.1794
 1105TIP3   OH2 3320   3.795   5.264   0.435 -0.0424  0.2630 -0.3591
 1105TIP3    H1 3321   3.852   5.201   0.391  0.7992  0.3310  0.6043
 1105TIP3    H2 3322   3.707   5.244   0.402  0.3807 -0.5778 -1.0160
 1106TIP3   OH2 3323   3.987   2.629   0.198  0.4251  0.3176 -0.1409
 1106TIP3    H1 3324   4.075   2.617   0.162 -0.1443 -1.5953 -1.0568
 1106TIP3    H2 3325   3.942   2.685   0.134  0.6475  0.3795 -0.2438
 1107TIP3   OH2 3326   3.934   1.115   2.346 -0.0614  0.4082 -0.3402
 1107TIP3    H1 3327   4.020   1.138   2.311  0.5524  0.6367  1.2088
 1107TIP3    H2 3328   3.953   1.055   2.418 -1.2289  0.1813 -0.2080
 1108TIP3   OH2 3329   5.530   4.708   0.168 -0.8539 -0.5375  0.5218
 1108TIP3    H1 3330   5.508   4.620   0.196 -2.2458 -0.0213  1.1480
 1108TIP3    H2 3331   5.572   4.748   0.245 -1.9518 -0.0765  0.9084
 1109TIP3   OH2 3332   1.781   2.030   4.914  0.5761 -0.4026  0.2769
 1109TIP3    H1 3333   1.810   2.002   5.001  1.3372  1.0159  0.5173
 1109TIP3    H2 3334   1.793   2.125   4.915 -2.0450  0.0037 -0.4141
 1110TIP3   OH2 3335   5.064   3.940   3.190  0.2053 -0.0928  0.0479
 1110TIP3    H1 3336   5.015   3.892   3.256 -1.5286  0.4212 -0.8194
 1110TIP3    H2 3337   5.042   3.896   3.107 -0.1295  1.1789 -0.5532
 1111TIP3   OH2 3338   2.540   1.288   1.011 -0.0136 -0.3401 -0.2029
 1111TIP3    H1 3339   2.613   1.227   1.013  0.2923  0.0081 -0.6080
 1111TIP3    H2 3340   2.568   1.358   0.952 -0.6177 -0.1378 -0.2620
 1112TIP3   OH2 3341   3.157   0.842   4.910 -0.4381  0.0101 -0.6897
 1112TIP3    H1 3342   3.209   0.802   4.980 -2.4399 -0.5613  0.5725
 1112TIP3    H2 3343   3.221   0.870   4.845  1.5199  0.3943  1.2799
 1113TIP3   OH2 3344   6.005   2.994   2.538  0.5676 -0.1096  0.0543
 1113TIP3    H1 3345   6.064   3.069   2.527 -0.1326  0.7907  1.9676
 1113TIP3    H2 3346   5.921   3.025   2.502  1.1748 -1.4090 -2.7277
 1114TIP3   OH2 3347   5.442   3.555   0.484  0.3140  0.2575  0.1630
 1114TIP3    H1 3348   5.401   3.520   0.563 -0.8413  1.0024 -0.0855
 1114TIP3    H2 3349   5.535   3.562   0.506  0.3002 -1.2085  0.8368
 1115TIP3   OH2 3350   5.556   5.043   2.610 -0.0549  0.4706  0.2167
 1115TIP3    H1 3351   5.573   5.056   2.517  2.9381 -0.3221  0.5521
 1115TIP3    H2 3352   5.536   5.131   2.643 -1.1135  0.7694 -1.1105
 1116TIP3   OH2 3353   0.407   4.200   3.526 -0.1079  0.1803  0.2921
 1116TIP3    H1 3354   0.398   4.108   3.500  0.4821  0.5655 -1.3583
 1116TIP3    H2 3355   0.417   4.248   3.444 -0.2682  1.7206  1.1331
 1117TIP3   OH2 3356   4.941   1.012   1.938 -0.3377 -0.2850  0.7408
 1117TIP3    H1 3357   4.861   1.063   1.928  0.3508  0.5079 -1.1972
 1117TIP3    H2 3358   4.942   0.952   1.864  1.0977  0.0763  0.4240
 1118TIP3   OH2 3359   4.949   0.975   2.269  0.0980  0.6956 -0.2349
 1118TIP3    H1 3360   4.906   0.951   2.187 -2.3981  1.9739  0.5895
 1118TIP3    H2 3361   5.039   0.997   2.244 -0.1827 -0.3410 -2.3633
 1119TIP3   OH2 3362   5.248   0.519   3.362 -0.0234  0.8418 -0.0572
 1119TIP3    H1 3363   5.190   0.589   3.391  0.1442  1.4629 -1.1443
 1119TIP3    H2 3364   5.284   0.551   3.279  0.6831 -0.1902 -0.1699
 1120TIP3   OH2 3365   2.281   0.856   5.158 -0.0113 -0.2042  0.3132
 1120TIP3    H1 3366   2.257   0.948   5.154 -1.9441 -0.4891  2.7083
 1120TIP3    H2 3367   2.213   0.811   5.108  1.5767 -0.3303 -1.8666
 1121TIP3   OH2 3368   0.957   4.581   2.035  0.7135 -0.0799 -0.1036
 1121TIP3    H1 3369   0.979   4.670   2.009  1.6443 -0.4950 -0.7710
 1121TIP3    H2 3370   0.876   4.591   2.087  1.4227  1.2658  0.8066
 1122TIP3   OH2 3371   4.290   1.803   3.471 -0.1858 -0.2745 -0.2981
 1122TIP3    H1 3372   4.282   1.818   3.565 -0.5122 -0.6873 -0.2613
 1122TIP3    H2 3373   4.384   1.791   3.457 -0.0800  0.2575 -0.1020
 1123TIP3   OH2 3374   4.715   0.152   0.503  0.2514  0.1389  0.0473
 1123TIP3    H1 3375   4.675   0.146   0.590  0.8003 -2.2489  0.2067
 1123TIP3    H2 3376   4.644   0.183   0.446 -1.1937 -1.6989  0.7462
 1124TIP3   OH2 3377   3.996   4.010   3.962 -0.0362 -0.4879  0.1954
 1124TIP3    H1 3378   4.045   3.996   3.880 -0.7556  0.0421 -0.3421
 1124TIP3    H2 3379   4.032   4.091   3.997  1.4983 -1.6124  1.3446
 1125TIP3   OH2 3380   5.668   0.001   2.097  0.7054  0.0827 -1.3706
 1125TIP3    H1 3381   5.646  -0.058   2.169 -0.3419  1.4289 -0.5424
 1125TIP3    H2 3382   5.704   0.079   2.140 -0.4599  1.1368 -2.2254
 1126TIP3   OH2 3383   1.610   5.623   0.988 -0.3511 -0.0669  0.1617
 1126TIP3    H1 3384   1.576   5.603   0.901  2.3988 -0.8169 -0.8538
 1126TIP3    H2 3385   1.635   5.716   0.983 -0.6270  0.0183  0.3278
 1127TIP3   OH2 3386   3.406   5.079   0.545  0.8362  0.1911  0.4030
 1127TIP3    H1 3387   3.390   4.990   0.576  0.5891  0.2937  0.5648
 1127TIP3    H2 3388   3.497   5.076   0.514  0.7705 -0.1657  0.2311
 1128TIP3   OH2 3389   4.231   4.023   4.902 -0.2617  0.4294  0.6560
 1128TIP3    H1 3390   4.154   3.970   4.884 -0.6258  0.6983  1.4000
 1128TIP3    H2 3391   4.290   4.006   4.828 -1.9496  1.9741 -1.1867
 1129TIP3   OH2 3392   2.850   0.895   0.879 -0.3890 -0.4926  0.0557
 1129TIP3    H1 3393   2.787   0.822   0.881  0.4928 -1.2909 -0.5502
 1129TIP3    H2 3394   2.866   0.909   0.786 -0.8880  0.7949  0.1516
 1130TIP3   OH2 3395   4.249   1.862   2.653  0.0818  0.4945  0.0450
 1130TIP3    H1 3396   4.240   1.939   2.710 -1.6879  0.8225 -0.6031
 1130TIP3    H2 3397   4.161   1.848   2.618  0.0597 -2.4995  0.9893
 1131TIP3   OH2 3398   2.458   5.019   3.091 -0.4214  0.1456  0.3971
 1131TIP3    H1 3399   2.437   4.930   3.121  0.2714  0.0769  0.7258
 1131TIP3    H2 3400   2.461   5.071   3.172  2.6329 -0.2797  0.7117
 1132TIP3   OH2 3401   5.863   4.383   5.105 -0.3718 -0.3113 -0.2265
 1132TIP3    H1 3402   5.796   4.326   5.066  0.3619 -2.0592  0.9533
 1132TIP3    H2 3403   5.912   4.416   5.030  0.9305 -3.4819 -0.9615
 1133TIP3   OH2 3404   4.039   2.134   5.049  0.0947  0.0026  0.4404
 1133TIP3    H1 3405   4.022   2.182   5.130  0.6279 -1.3351  1.3753
 1133TIP3    H2 3406   3.970   2.068   5.045  1.0537 -1.0626  0.7474
 1134TIP3   OH2 3407   1.448   3.052   4.177  0.5827 -0.0567 -0.1112
 1134TIP3    H1 3408   1.512   3.107   4.133 -0.2589 -0.4316 -1.8976
 1134TIP3    H2 3409   1.372   3.108   4.190  1.0423  0.2388  1.5275
 1135TIP3   OH2 3410   5.361   3.544   2.434 -0.5983  0.4070 -0.3421
 1135TIP3    H1 3411   5.435   3.498   2.473  0.2656  1.0629 -1.1514
 1135TIP3    H2 3412   5.368   3.634   2.467 -1.7508  0.2017  0.5285
 1136TIP3   OH2 3413   4.063   0.016   5.039 -0.4277  0.3366  0.2333
 1136TIP3    H1 3414   4.037   0.002   4.948  2.5322 -1.0529 -0.5172
 1136TIP3    H2 3415   4.119   0.093   5.037  0.7040 -0.4536  0.6134
 1137TIP3   OH2 3416   4.688   4.175   5.009  0.1362  0.3453  0.5581
 1137TIP3    H1 3417   4.660   4.131   5.090  0.0300  0.9587  0.8659
 1137TIP3    H2 3418   4.626   4.248   5.000  0.5246  0.6401  0.2545
 1138TIP3   OH2 3419   4.808   0.972   4.946  0.0821  0.1248  0.0093
 1138TIP3    H1 3420   4.900   0.959   4.970 -0.0361  0.0093  0.4025
 1138TIP3    H2 3421   4.811   1.004   4.855  0.4809 -0.4248 -0.1708
 1139TIP3   OH2 3422   3.246   2.738   0.304 -0.2290 -0.0485 -0.4292
 1139TIP3    H1 3423   3.336   2.768   0.294  0.9686 -2.7601  1.0789
 1139TIP3    H2 3424   3.225   2.753   0.396 -0.7924 -0.7003 -0.4360
 1140TIP3   OH2 3425   5.858   0.215   2.892 -0.0320  0.3962 -0.2480
 1140TIP3    H1 3426   5.944   0.255   2.878  0.5359 -0.5592  0.4049
 1140TIP3    H2 3427   5.833   0.183   2.805 -1.3899  3.7567 -1.2298
 1141TIP3   OH2 3428   3.860   1.348   5.070  0.3662 -0.2185  0.1819
 1141TIP3    H1 3429   3.894   1.317   5.154 -0.4558 -0.0060  0.6039
 1141TIP3    H2 3430   3.882   1.441   5.067 -0.8510  0.1232  0.8363
 1142TIP3   OH2 3431   4.474   0.893   0.721  0.2947  0.4721  0.3741
 1142TIP3    H1 3432   4.449   0.986   0.719 -1.3408  0.0539 -0.8252
 1142TIP3    H2 3433   4.391   0.846   0.712  1.2017 -1.1047 -0.1250
 1143TIP3   OH2 3434   2.534   1.445  -0.010 -0.1452  0.5190 -0.4488
 1143TIP3    H1 3435   2.602   1.378  -0.004 -0.7909 -0.0912  0.4235
 1143TIP3    H2 3436   2.578   1.526   0.015 -0.0708 -0.1400  1.8335
 1144TIP3   OH2 3437   5.390   3.975   1.667 -0.2807  0.1217 -0.0091
 1144TIP3    H1 3438   5.299   4.006   1.670 -0.7323 -1.0896 -0.5144
 1144TIP3    H2 3439   5.437   4.034   1.725 -1.3688  0.8693  0.1420
 1145TIP3   OH2 3440   1.547   4.654   0.102  0.3452  0.5928  0.7054
 1145TIP3    H1 3441   1.642   4.663   0.098  0.2664  1.1728 -0.5199
 1145TIP3    H2 3442   1.517   4.681   0.015 -1.0496  1.7303  1.4848
 1146TIP3   OH2 3443   5.171   2.867   4.830 -0.2070 -0.5252  0.0637
 1146TIP3    H1 3444   5.216   2.924   4.768 -0.0975 -0.4867  0.1766
 1146TIP3    H2 3445   5.203   2.897   4.916  0.1649 -1.0299  0.1051
 1147TIP3   OH2 3446   2.957   3.435   3.975  0.2283  0.4913 -0.2315
 1147TIP3    H1 3447   3.025   3.371   3.997  0.3353  0.4973 -0.5423
 1147TIP3    H2 3448   2.919   3.459   4.060  1.1798  1.1160  0.0464
 1148TIP3   OH2 3449   4.517   2.624   4.614 -0.6905  0.5198  0.2048
 1148TIP3    H1 3450   4.438   2.609   4.665 -0.8319 -3.2824 -0.7891
 1148TIP3    H2 3451   4.588   2.589   4.669 -0.2176  0.6226 -0.3289
 1149TIP3   OH2 3452   6.226   1.382   4.060 -0.1672  0.5355  0.3075
 1149TIP3    H1 3453   6.226   1.329   4.140  0.9879  0.1885  0.0872
 1149TIP3    H2 3454   6.197   1.321   3.991  0.6652  0.3156  0.1433
 1150TIP3   OH2 3455   3.478   4.161   0.740 -0.3682 -0.4062  0.2889
 1150TIP3    H1 3456   3.527   4.082   0.763 -0.8548 -0.9495 -0.4931
 1150TIP3    H2 3457   3.404   4.161   0.802  0.3259  0.1504  1.1431
 1151TIP3   OH2 3458   4.068   2.857   3.286 -0.6104  0.6571 -0.1679
 1151TIP3    H1 3459   3.981   2.819   3.299 -0.5467  1.0547  1.7588
 1151TIP3    H2 3460   4.127   2.799   3.334  0.0633  0.9348 -0.6413
 1152TIP3   OH2 3461   4.058   3.846   0.188 -0.1184 -0.2536 -0.3711
 1152TIP3    H1 3462   4.010   3.833   0.270 -1.8839 -1.1917 -1.4635
 1152TIP3    H2 3463   4.001   3.903   0.136  2.0107  2.1988 -0.1703
 1153TIP3   OH2 3464   3.441   5.200   2.288 -0.8377  0.2750 -0.0156
 1153TIP3    H1 3465   3.393   5.234   2.212 -0.8623  0.6915  0.1815
 1153TIP3    H2 3466   3.466   5.278   2.337  1.7523  0.2177 -1.1015
 1154TIP3   OH2 3467   5.212   2.248   2.752  0.1014 -0.2193  0.0390
 1154TIP3    H1 3468   5.168   2.312   2.809  2.8237  0.1890  1.8551
 1154TIP3    H2 3469   5.140   2.196   2.716 -2.2658  3.4237 -1.1173
 1155TIP3   OH2 3470   2.015   0.982   3.401 -0.2274  0.0449 -0.5802
 1155TIP3    H1 3471   2.032   1.074   3.381 -0.9636  0.6069  1.1798
 1155TIP3    H2 3472   1.954   0.953   3.333  0.0151  0.8492 -1.1539
 1156TIP3   OH2 3473   0.001   4.019   1.649 -0.2214  0.6471  0.1531
 1156TIP3    H1 3474  -0.060   4.004   1.721  0.0307  1.2648  0.5094
 1156TIP3    H2 3475   0.067   3.951   1.658 -0.6591  0.1890 -0.0266
 1157TIP3   OH2 3476   1.616   5.095   4.495  0.1988  0.4786  0.3311
 1157TIP3    H1 3477   1.673   5.139   4.432 -0.1985  1.1718  0.4551
 1157TIP3    H2 3478   1.570   5.166   4.540 -0.0756 -0.0406  0.8814
 1158TIP3   OH2 3479   0.356   4.935   2.014 -0.3539 -0.2504 -0.0057
 1158TIP3    H1 3480   0.395   4.865   2.066 -1.1213 -0.7609 -0.1104
 1158TIP3    H2 3481   0.347   4.898   1.926  1.6460  0.8591 -0.7617
 1159TIP3   OH2 3482   5.253   1.458   1.387  0.1023 -0.1075 -0.5638
 1159TIP3    H1 3483   5.189   1.412   1.334  1.0582 -2.5810  0.2881
 1159TIP3    H2 3484   5.257   1.409   1.469  0.2336  2.3344  1.0077
 1160TIP3   OH2 3485   5.969   2.405   1.089 -0.0287 -0.3470 -0.1240
 1160TIP3    H1 3486   5.884   2.426   1.128 -1.2839 -0.0629 -2.7997
 1160TIP3    H2 3487   5.997   2.325   1.134 -2.0944 -0.8956  0.2831
 1161TIP3   OH2 3488   6.075   3.413   1.742 -0.3360  0.7010 -0.2024
 1161TIP3    H1 3489   6.033   3.452   1.665  1.9713  1.9758 -0.9334
 1161TIP3    H2 3490   6.099   3.325   1.714 -0.3807  0.8167 -0.6200
 1162TIP3   OH2 3491   1.138   4.692   2.675 -0.0640 -0.3317  0.0519
 1162TIP3    H1 3492   1.148   4.630   2.747 -0.0261 -0.8180 -0.3647
 1162TIP3    H2 3493   1.192   4.656   2.605  1.7147  1.2939  0.4997
 1163TIP3   OH2 3494   5.570   5.086   2.328 -0.7676 -0.2649 -0.0959
 1163TIP3    H1 3495   5.524   5.162   2.293 -1.8626 -0.7208  0.3345
 1163TIP3    H2 3496   5.627   5.058   2.256 -2.2097 -0.5535 -1.1622
 1164TIP3   OH2 3497   3.613   1.077   4.280 -0.0575 -0.5710 -0.1781
 1164TIP3    H1 3498   3.678   1.049   4.344 -1.6937 -2.1028  0.9458
 1164TIP3    H2 3499   3.593   0.997   4.231  1.3044  0.6076 -2.8404
 1165TIP3   OH2 3500   4.983   0.550   2.255  0.4191  0.6668 -0.0616
 1165TIP3    H1 3501   4.908   0.519   2.204  0.2310  1.5496 -0.3287
 1165TIP3    H2 3502   4.957   0.536   2.346  0.3287  0.0762 -0.1689
 1166TIP3   OH2 3503   1.415   3.030   5.186  0.2861  0.0131 -0.0094
 1166TIP3    H1 3504   1.347   3.062   5.245 -0.0473 -1.3852  0.4166
 1166TIP3    H2 3505   1.380   3.044   5.098 -0.1631  0.1279  0.1843
 1167TIP3   OH2 3506   0.531   1.618   5.155 -0.6614  0.3459  0.4707
 1167TIP3    H1 3507   0.515   1.659   5.240 -2.0294  1.8550 -0.4702
 1167TIP3    H2 3508   0.445   1.585   5.128  0.1204 -1.9059  0.5049
 1168TIP3   OH2 3509   5.183   1.903   2.109  0.2901  0.7064  0.7118
 1168TIP3    H1 3510   5.100   1.917   2.156  0.5748 -2.3054  2.3910
 1168TIP3    H2 3511   5.156   1.873   2.022 -0.4249  0.1098  1.1205
 1169TIP3   OH2 3512   1.531   4.073   1.241 -0.1234  0.0645  0.2956
 1169TIP3    H1 3513   1.592   4.143   1.221 -1.6952  0.8523 -2.3141
 1169TIP3    H2 3514   1.487   4.100   1.322  1.0802  0.7763  0.7297
 1170TIP3   OH2 3515   3.683   0.917   0.429  0.1379 -0.1689  0.0818
 1170TIP3    H1 3516   3.715   1.004   0.450  1.0839 -0.7037  0.9762
 1170TIP3    H2 3517   3.645   0.925   0.342 -1.2435  1.4810  0.7770
 1171TIP3   OH2 3518   0.263   0.888   2.889 -0.2662 -0.1062  0.3397
 1171TIP3    H1 3519   0.340   0.845   2.926 -0.7956 -0.9412  0.5110
 1171TIP3    H2 3520   0.280   0.893   2.795  0.1874  0.1227  0.4339
 1172TIP3   OH2 3521   2.867   2.862   3.191 -0.1996  0.5364 -0.4808
 1172TIP3    H1 3522   2.929   2.790   3.202 -1.8440 -0.7774  0.6802
 1172TIP3    H2 3523   2.805   2.831   3.126 -0.8871  0.9162 -0.0196
 1173TIP3   OH2 3524   2.816   2.532   2.339  0.1140 -0.4574 -0.2181
 1173TIP3    H1 3525   2.743   2.469   2.346 -0.4212 -0.3390 -3.3970
 1173TIP3    H2 3526   2.774   2.617   2.349  0.0549 -0.4469 -0.5452
 1174TIP3   OH2 3527   2.486   3.905   2.612 -0.2692 -0.1972 -0.2507
 1174TIP3    H1 3528   2.409   3.940   2.568 -1.1183 -1.9853 -0.2744
 1174TIP3    H2 3529   2.509   3.972   2.676 -0.6047  1.2634 -1.5844
 1175TIP3   OH2 3530   3.644   1.184   3.051 -0.5110  0.5263  0.3197
 1175TIP3    H1 3531   3.589   1.177   2.974 -0.1207 -0.1325  0.0894
 1175TIP3    H2 3532   3.726   1.221   3.019 -0.2506 -0.0043  0.3605
 1176TIP3   OH2 3533   0.331   1.926   0.034 -0.2370  0.4625 -0.3226
 1176TIP3    H1 3534   0.265   1.941  -0.033 -1.2471 -0.2779  0.4830
 1176TIP3    H2 3535   0.391   2.000   0.025  1.5389 -1.1650 -4.1749
 1177TIP3   OH2 3536   2.742   1.614   3.316 -0.3112 -0.0107  0.2916
 1177TIP3    H1 3537   2.833   1.611   3.347  0.0782  0.9938 -0.6970
 1177TIP3    H2 3538   2.695   1.555   3.375  0.9830 -0.5607  0.8106
 1178TIP3   OH2 3539   5.394   3.637   1.020  0.0665 -0.1949  0.9375
 1178TIP3    H1 3540   5.357   3.704   0.964  0.5646 -0.7907 -0.1287
 1178TIP3    H2 3541   5.319   3.590   1.055 -0.2615  0.4906  1.1653
 1179TIP3   OH2 3542   3.693   1.009   2.342 -0.3628  0.1075  0.0050
 1179TIP3    H1 3543   3.782   1.030   2.368 -0.9409  0.7368  1.6178
 1179TIP3    H2 3544   3.664   1.085   2.291 -0.2653  0.2843  0.2152
 1180TIP3   OH2 3545   1.829   3.075   1.357  0.4927 -0.2218  0.2112
 1180TIP3    H1 3546   1.863   3.018   1.426  1.0020  0.0663  0.2024
 1180TIP3    H2 3547   1.894   3.145   1.349 -1.2298  1.6915  1.8602
 1181TIP3   OH2 3548   4.598   5.338   0.787 -0.0320  0.0718  0.4269
 1181TIP3    H1 3549   4.529   5.404   0.791 -0.3622 -0.1776 -0.7604
 1181TIP3    H2 3550   4.556   5.261   0.750  1.5744  0.9810 -3.8454
 1182TIP3   OH2 3551   5.659   1.593   2.175 -0.2865 -0.7268  0.0357
 1182TIP3    H1 3552   5.637   1.662   2.238 -0.7496 -0.6430 -0.2062
 1182TIP3    H2 3553   5.731   1.629   2.124 -1.3761  0.1496 -0.9655
 1183TIP3   OH2 3554   4.560   0.203   2.945  0.1890 -0.0281  0.1038
 1183TIP3    H1 3555   4.498   0.198   2.873 -0.1727  1.3294  0.3067
 1183TIP3    H2 3556   4.564   0.113   2.979  0.7433 -0.8027 -1.8739
 1184TIP3   OH2 3557   3.862   3.553   4.491 -0.5028  0.2937  0.1804
 1184TIP3    H1 3558   3.867   3.515   4.403  0.6233 -0.4648  0.5462
 1184TIP3    H2 3559   3.952   3.580   4.510 -0.6861  0.2077  1.2078
 1185TIP3   OH2 3560   1.956   1.446   0.255 -0.2045  0.2121 -0.2373
 1185TIP3    H1 3561   1.873   1.409   0.283  1.7732 -2.0380  3.3947
 1185TIP3    H2 3562   1.982   1.504   0.327  1.7827  0.0610 -0.7676
 1186TIP3   OH2 3563   4.223   2.118   2.777  0.3528  0.2217  0.1476
 1186TIP3    H1 3564   4.186   2.145   2.861 -1.5938  1.7125 -1.1092
 1186TIP3    H2 3565   4.148   2.113   2.718  1.6293 -1.0974 -1.4570
 1187TIP3   OH2 3566   1.228   0.183   2.003  0.3926 -0.1889 -0.8316
 1187TIP3    H1 3567   1.323   0.194   1.996  0.3845  0.0952 -0.5543
 1187TIP3    H2 3568   1.202   0.248   2.068 -0.1638  0.6392 -1.8455
 1188TIP3   OH2 3569   2.021   1.121   2.556  0.1004  0.5660 -0.3641
 1188TIP3    H1 3570   2.026   1.144   2.649  2.5901  1.2495 -0.5978
 1188TIP3    H2 3571   2.040   1.027   2.555  0.9475  0.7269 -0.2253
 1189TIP3   OH2 3572   0.240   1.608   0.104 -0.1476  0.2134 -0.8393
 1189TIP3    H1 3573   0.309   1.660   0.062 -1.3902  0.4308 -2.7777
 1189TIP3    H2 3574   0.261   1.517   0.081  0.2271  0.1462 -0.2513
 1190TIP3   OH2 3575   4.269   1.833   4.231 -0.6775 -0.0990 -0.4095
 1190TIP3    H1 3576   4.263   1.831   4.326  0.5163 -0.2238 -0.3207
 1190TIP3    H2 3577   4.231   1.749   4.202 -0.9855 -0.0850 -0.0450
 1191TIP3   OH2 3578   1.861   0.939   3.191  0.2985 -0.1152  0.2607
 1191TIP3    H1 3579   1.900   0.928   3.104  1.2746 -0.8202  0.7795
 1191TIP3    H2 3580   1.784   0.883   3.190  1.2964 -1.5194  0.4476
 1192TIP3   OH2 3581   5.751   1.485   4.633 -0.2790  0.2297  0.0514
 1192TIP3    H1 3582   5.701   1.426   4.577  0.0131 -0.3010  0.3409
 1192TIP3    H2 3583   5.795   1.427   4.695  2.1278  0.5072 -1.2897
 1193TIP3   OH2 3584   5.952   4.003   2.356 -0.4055 -0.8532 -0.2866
 1193TIP3    H1 3585   5.917   4.051   2.431  0.1514  0.0050 -0.5690
 1193TIP3    H2 3586   6.011   4.064   2.313  0.5352 -1.8852 -0.5039
 1194TIP3   OH2 3587   4.610   2.087   0.928 -0.7472 -0.4994 -0.3107
 1194TIP3    H1 3588   4.633   2.180   0.920  0.5352 -0.7694  0.0048
 1194TIP3    H2 3589   4.569   2.065   0.844 -1.1789  0.3670 -0.3429
 1195TIP3   OH2 3590   4.145   5.722   2.816  0.1407  0.1214  0.4388
 1195TIP3    H1 3591   4.127   5.652   2.878  2.3017 -2.2177 -1.3265
 1195TIP3    H2 3592   4.082   5.707   2.744 -0.0173  0.6029  0.4727
 1196TIP3   OH2 3593   3.535   2.042   0.949  0.2274  0.6439 -0.0855
 1196TIP3    H1 3594   3.585   2.086   1.019  0.0391  0.3521  0.2367
 1196TIP3    H2 3595   3.600   1.989   0.903  0.0261 -0.6684  1.0728
 1197TIP3   OH2 3596   2.711   2.032   3.669 -0.3287  0.5534  0.2430
 1197TIP3    H1 3597   2.616   2.038   3.665 -0.2803  1.3904  0.1625
 1197TIP3    H2 3598   2.729   1.966   3.736 -0.9570  1.0906  0.9526
 1198TIP3   OH2 3599   5.920   0.192   2.143  0.0671  0.3323 -0.4398
 1198TIP3    H1 3600   5.854   0.226   2.204  0.4420  0.6740 -0.2125
 1198TIP3    H2 3601   6.003   0.199   2.192  0.4572  1.1443 -1.1741
 1199TIP3   OH2 3602   5.767   3.907   2.108  0.4292  0.2161  0.7471
 1199TIP3    H1 3603   5.764   3.865   2.022 -0.0355  3.1133 -0.7757
 1199TIP3    H2 3604   5.806   3.841   2.165 -1.2927 -2.6613 -1.1182
 1200TIP3   OH2 3605   2.749   1.054   2.473  0.3250 -0.3273 -0.7313
 1200TIP3    H1 3606   2.742   1.019   2.384 -0.5074  0.3857 -0.9666
 1200TIP3    H2 3607   2.814   1.124   2.466  1.0423 -0.9759 -0.5443
 1201TIP3   OH2 3608   2.855   5.400   1.197  0.4113 -0.1642 -0.3383
 1201TIP3    H1 3609   2.828   5.439   1.113 -0.6608 -0.9044 -0.3582
 1201TIP3    H2 3610   2.859   5.474   1.257  0.3630  0.2599 -0.8483
 1202TIP3   OH2 3611   3.927   0.703   2.210 -0.2564  0.1482 -0.2726
 1202TIP3    H1 3612   3.846   0.660   2.181 -1.0327  1.8010 -0.7031
 1202TIP3    H2 3613   3.910   0.725   2.302 -0.2606  0.4230 -0.3396
 1203TIP3   OH2 3614   4.804   5.119   5.049  0.5061  0.5251 -0.3485
 1203TIP3    H1 3615   4.800   5.023   5.053 -3.0124  0.5305  0.2731
 1203TIP3    H2 3616   4.824   5.146   5.138 -0.9563  0.3082  0.0765
 1204TIP3   OH2 3617   3.015   0.124   4.327 -0.2165  0.0906  0.2376
 1204TIP3    H1 3618   3.037   0.139   4.235 -0.0051  1.3131  0.4660
 1204TIP3    H2 3619   3.056   0.197   4.374 -0.9347 -0.1088  1.2107
 1205TIP3   OH2 3620   4.955   0.096   2.812  0.5550  0.3004  0.1419
 1205TIP3    H1 3621   4.889   0.155   2.774  2.6181  3.1343  0.5998
 1205TIP3    H2 3622   4.936   0.096   2.906  0.9293  0.7917  0.2226
 1206TIP3   OH2 3623   4.447   5.057   2.557 -0.5760 -0.4370  0.1311
 1206TIP3    H1 3624   4.508   5.096   2.619 -0.9797  0.9389 -0.3044
 1206TIP3    H2 3625   4.463   4.963   2.564  2.9196 -0.0979 -1.2726
 1207TIP3   OH2 3626   3.860   2.184   1.936 -0.0363 -0.1837  0.2924
 1207TIP3    H1 3627   3.777   2.189   1.888  1.2294  0.0031 -2.0363
 1207TIP3    H2 3628   3.835   2.180   2.028 -2.5887  4.2040  0.0652
 1208TIP3   OH2 3629   0.499   2.046   2.869  0.2193 -0.2354  0.3074
 1208TIP3    H1 3630   0.445   2.062   2.946  0.5637 -1.5329  0.8428
 1208TIP3    H2 3631   0.512   2.133   2.830  1.0224  0.6179  2.3434
 1209TIP3   OH2 3632   4.322   1.304   3.798  0.2962  0.1446 -0.0752
 1209TIP3    H1 3633   4.243   1.309   3.853 -0.6429 -1.2783 -1.2089
 1209TIP3    H2 3634   4.322   1.387   3.749  2.2174  2.3576  3.2779
 1210TIP3   OH2 3635   0.262   1.531   5.100  0.1495  1.0919 -0.1554
 1210TIP3    H1 3636   0.240   1.516   5.008 -0.3921 -0.8854  0.2443
 1210TIP3    H2 3637   0.269   1.443   5.137  0.5854  1.8520  1.6456
 1211TIP3   OH2 3638   5.879   0.088   1.605 -0.0337 -0.1954 -0.1397
 1211TIP3    H1 3639   5.853   0.107   1.695  1.9771 -2.0466  0.9255
 1211TIP3    H2 3640   5.798   0.099   1.554 -0.9518  2.1184  1.6351
 1212TIP3   OH2 3641   4.256   0.556   0.107  0.1452 -0.9159  0.2853
 1212TIP3    H1 3642   4.169   0.564   0.146  0.3994 -1.5178  0.9789
 1212TIP3    H2 3643   4.306   0.629   0.144  0.8985 -2.4701  2.4817
 1213TIP3   OH2 3644   3.395   2.474   2.864 -0.0838 -0.1496 -0.4901
 1213TIP3    H1 3645   3.445   2.555   2.861  0.2047 -0.1826  1.8227
 1213TIP3    H2 3646   3.459   2.406   2.842  0.1589  0.0813 -0.5045
 1214TIP3   OH2 3647   3.611   4.075   0.487 -0.1370 -0.1601 -0.2204
 1214TIP3    H1 3648   3.691   4.089   0.537  0.1461 -0.2409 -0.6570
 1214TIP3    H2 3649   3.541   4.104   0.546  0.2772  0.8775 -0.2283
 1215TIP3   OH2 3650   4.344   4.877   0.709  0.4382  0.6096 -0.0889
 1215TIP3    H1 3651   4.333   4.782   0.702 -3.9760  1.0004 -1.6119
 1215TIP3    H2 3652   4.420   4.896   0.654  0.1502 -1.8653 -1.5141
 1216TIP3   OH2 3653   2.013   4.385   2.170  0.2965  0.0036  0.0999
 1216TIP3    H1 3654   1.973   4.381   2.084 -0.2155 -1.2614  0.3635
 1216TIP3    H2 3655   2.102   4.416   2.155  0.2501 -0.3303 -0.9027
 1217TIP3   OH2 3656   2.486   0.442   2.955  0.3096  0.3528  0.0941
 1217TIP3    H1 3657   2.481   0.491   2.873  2.6250  0.0205 -0.3122
 1217TIP3    H2 3658   2.578   0.420   2.964 -0.1731 -1.1805  1.9008
 1218TIP3   OH2 3659   5.599   0.499   0.236  0.0056 -0.5432 -0.0155
 1218TIP3    H1 3660   5.558   0.423   0.278  0.4586 -1.0202 -0.4187
 1218TIP3    H2 3661   5.686   0.467   0.209  1.3523  0.8693  2.2972
 1219TIP3   OH2 3662   3.617   1.737   5.130  0.4842 -0.0331  0.1583
 1219TIP3    H1 3663   3.536   1.686   5.137  1.5185 -1.7545  0.2597
 1219TIP3    H2 3664   3.634   1.766   5.220 -0.1533  0.6017  0.0880
 1220TIP3   OH2 3665   3.402   0.434   2.075  0.0356 -0.1168  1.0176
 1220TIP3    H1 3666   3.459   0.510   2.085  1.0282 -0.8856  1.4605
 1220TIP3    H2 3667   3.349   0.433   2.155  0.3387 -0.1264  1.2237
 1221TIP3   OH2 3668   3.692   1.066   3.520  0.3085 -0.2241 -0.5004
 1221TIP3    H1 3669   3.717   1.123   3.448  0.0985  1.4199  0.6820
 1221TIP3    H2 3670   3.601   1.088   3.538  0.4449 -0.4031  0.4544
 1222TIP3   OH2 3671   0.991   3.491   1.038 -0.2310  0.2418 -0.6165
 1222TIP3    H1 3672   1.017   3.553   1.107 -1.4928  0.7285 -0.5483
 1222TIP3    H2 3673   0.895   3.495   1.037 -0.3468 -1.5839 -0.7436
 1223TIP3   OH2 3674   2.171   0.418   1.249 -0.1059  0.4432  0.2139
 1223TIP3    H1 3675   2.087   0.372   1.247 -0.0561  0.3795 -0.8163
 1223TIP3    H2 3676   2.170   0.474   1.172  0.5869  0.8278  0.4778
 1224TIP3   OH2 3677   0.968   3.739   2.275  0.0321  0.1611  0.1596
 1224TIP3    H1 3678   1.022   3.686   2.334  0.9832 -0.6892 -1.3938
 1224TIP3    H2 3679   1.007   3.726   2.189 -1.5273  1.0625 -0.7325
 1225TIP3   OH2 3680   6.192   3.714   4.726 -0.3498  0.2093  0.2788
 1225TIP3    H1 3681   6.157   3.764   4.800 -0.3643 -2.0503  1.9067
 1225TIP3    H2 3682   6.277   3.682   4.756 -0.5567 -1.1288 -0.4684
 1226TIP3   OH2 3683   2.504   4.035   1.918  0.4402  0.1377 -0.2807
 1226TIP3    H1 3684   2.579   4.086   1.889  1.2996 -0.6248  0.5401
 1226TIP3    H2 3685   2.528   3.944   1.900  0.4825 -0.2579  1.5605
 1227TIP3   OH2 3686   2.238   4.642   3.696 -0.4938  0.0281 -0.2353
 1227TIP3    H1 3687   2.329   4.672   3.694 -0.9452  1.4387 -0.7043
 1227TIP3    H2 3688   2.212   4.639   3.604 -1.0933  0.1773 -0.0728
 1228TIP3   OH2 3689   0.820   1.216   1.328  0.1112 -0.1610  0.2429
 1228TIP3    H1 3690   0.915   1.230   1.331  0.2587 -1.1821  1.1518
 1228TIP3    H2 3691   0.794   1.212   1.420 -0.6760 -0.7516  0.0078
 1229TIP3   OH2 3692   6.099   0.129   0.194  0.4748 -0.5437 -0.3596
 1229TIP3    H1 3693   6.085   0.124   0.288  2.3334  0.5825  0.0280
 1229TIP3    H2 3694   6.011   0.138   0.157 -0.2108  0.0983  1.3509
 1230TIP3   OH2 3695   5.544   3.378   0.763  0.3905 -0.7189 -0.6029
 1230TIP3    H1 3696   5.597   3.450   0.798 -2.6090  0.6666  1.5147
 1230TIP3    H2 3697   5.459   3.417   0.746 -1.0979 -3.5798 -0.2759
 1231TIP3   OH2 3698   5.984   2.706   1.109  0.0003  0.5408  0.9389
 1231TIP3    H1 3699   6.007   2.614   1.100  1.0245  0.9121 -0.6488
 1231TIP3    H2 3700   5.890   2.709   1.091 -0.0998 -0.2172  1.2974
 1232TIP3   OH2 3701   1.844   1.163   4.137  0.1008  0.1809 -0.2703
 1232TIP3    H1 3702   1.868   1.132   4.050 -2.9624  0.3897 -1.3079
 1232TIP3    H2 3703   1.761   1.118   4.156  0.7656 -0.0198  2.6575
 1233TIP3   OH2 3704   5.576   0.541   0.942  0.0792  1.2598  0.0321
 1233TIP3    H1 3705   5.553   0.631   0.919 -0.0895  1.2320  0.0932
 1233TIP3    H2 3706   5.670   0.543   0.958 -0.1717  1.7500  1.5900
 1234TIP3   OH2 3707   4.141   0.139   3.265  0.3026 -0.7694 -0.0310
 1234TIP3    H1 3708   4.179   0.171   3.184 -1.3173 -2.1616 -1.4423
 1234TIP3    H2 3709   4.076   0.205   3.289 -0.3236 -1.0815 -0.7931
 1235TIP3   OH2 3710   5.548   3.827   2.320 -0.2711  0.9441 -0.0990
 1235TIP3    H1 3711   5.576   3.918   2.329  1.5016  0.4947 -0.6965
 1235TIP3    H2 3712   5.527   3.800   2.409  4.1611  0.4927  1.0523
 1236TIP3   OH2 3713   5.466   1.217   1.899  1.2523 -0.0841  0.6853
 1236TIP3    H1 3714   5.518   1.184   1.972  0.7093  0.1118  1.1663
 1236TIP3    H2 3715   5.380   1.176   1.910  0.6214  1.3182  1.1856
 1237TIP3   OH2 3716   2.617   1.377   2.505 -0.1071  0.0044  0.0972
 1237TIP3    H1 3717   2.701   1.330   2.506  0.1626  0.4797  0.5139
 1237TIP3    H2 3718   2.551   1.309   2.514  0.1634 -0.5019 -1.4920
 1238TIP3   OH2 3719   6.189   1.772   3.833 -0.0895  0.1061  0.2980
 1238TIP3    H1 3720   6.130   1.846   3.820 -0.4643 -0.4080 -0.9831
 1238TIP3    H2 3721   6.268   1.795   3.785  0.5123  0.4622  1.4055
 1239TIP3   OH2 3722   4.858   0.289   2.119  0.0961  0.3726  0.5127
 1239TIP3    H1 3723   4.838   0.290   2.213  1.1848 -2.9437  0.9145
 1239TIP3    H2 3724   4.775   0.268   2.077 -0.1431  0.6461  0.8424
 1240TIP3   OH2 3725   2.397   2.807   0.760 -1.1293  0.1713 -0.2983
 1240TIP3    H1 3726   2.434   2.892   0.780 -1.2274  0.1654 -0.0886
 1240TIP3    H2 3727   2.326   2.796   0.823  0.8344 -1.4248  1.8333
 1241TIP3   OH2 3728   1.535   3.436   0.310 -0.3547 -0.5373 -0.0305
 1241TIP3    H1 3729   1.496   3.491   0.242  0.9876  0.7014  0.1361
 1241TIP3    H2 3730   1.595   3.378   0.262 -0.7221 -0.8827 -0.0720
 1242TIP3   OH2 3731   0.240   4.303   3.052 -0.4316  0.6731 -0.0664
 1242TIP3    H1 3732   0.268   4.388   3.017  1.4839  0.3413  0.5192
 1242TIP3    H2 3733   0.272   4.303   3.142 -1.9800  0.0100  0.5200
 1243TIP3   OH2 3734   0.619   4.867   3.530  0.7922  0.2843 -0.6208
 1243TIP3    H1 3735   0.574   4.887   3.612 -0.0263  0.5678 -1.1351
 1243TIP3    H2 3736   0.702   4.828   3.558 -0.4349 -1.8327  0.3499
 1244TIP3   OH2 3737   3.431   3.787   3.569 -0.6819 -0.5955 -0.1863
 1244TIP3    H1 3738   3.348   3.806   3.614 -1.3904  2.1326 -2.3584
 1244TIP3    H2 3739   3.475   3.872   3.563  0.8154 -1.4304 -1.8438
 1245TIP3   OH2 3740   1.409   4.361   1.678 -0.2223  0.6104  0.6550
 1245TIP3    H1 3741   1.379   4.271   1.666  1.2099  0.4085 -2.4419
 1245TIP3    H2 3742   1.330   4.414   1.674 -0.8685 -0.3653  0.0627
 1246TIP3   OH2 3743   3.301   3.317   2.616  0.1858 -0.0445 -0.0696
 1246TIP3    H1 3744   3.213   3.308   2.581  0.1394 -1.4023  0.3348
 1246TIP3    H2 3745   3.295   3.286   2.706  1.3158 -1.3387 -0.4043
 1247TIP3   OH2 3746   4.712   5.448   4.781 -0.1005  0.2034  0.1828
 1247TIP3    H1 3747   4.669   5.393   4.715  0.3119 -1.2426  1.0776
 1247TIP3    H2 3748   4.654   5.523   4.791 -0.0266  0.6343 -2.0307
 1248TIP3   OH2 3749   6.031   3.698   3.834 -0.0599 -0.0120  0.6102
 1248TIP3    H1 3750   6.121   3.716   3.807 -0.2698  0.1950  0.0434
 1248TIP3    H2 3751   6.033   3.708   3.929  0.3743  0.6158  0.5463
 1249TIP3   OH2 3752   6.113   2.916   1.224  0.2858  0.0053  0.3527
 1249TIP3    H1 3753   6.173   2.898   1.296  2.3127  0.0573 -1.2374
 1249TIP3    H2 3754   6.079   2.829   1.200  0.5084 -0.1597  0.6271
 1250TIP3   OH2 3755   3.829   5.195   4.482  0.6579  0.1159  0.1467
 1250TIP3    H1 3756   3.736   5.193   4.458  0.1439 -1.5007  1.9784
 1250TIP3    H2 3757   3.872   5.141   4.415  0.2429  0.6235 -0.5425
 1251TIP3   OH2 3758   2.324   5.209   4.390 -0.0523  0.1674 -0.0501
 1251TIP3    H1 3759   2.283   5.129   4.356 -1.2710  0.4601  0.6767
 1251TIP3    H2 3760   2.404   5.178   4.433 -0.0509 -0.5439 -0.5388
 1252TIP3   OH2 3761   5.171   5.959   1.491  0.0541 -0.2435  0.6445
 1252TIP3    H1 3762   5.114   5.942   1.416  0.5118 -0.4275  0.3338
 1252TIP3    H2 3763   5.207   5.873   1.514  1.2073  0.0447  0.0234
 1253TIP3   OH2 3764   6.024   4.092   3.232 -0.2277  0.1951  0.1853
 1253TIP3    H1 3765   5.959   4.066   3.296 -0.9578  1.4952  0.0169
 1253TIP3    H2 3766   5.976   4.148   3.171  1.0493  1.2418  0.0936
 1254TIP3   OH2 3767   4.426   1.587   0.247  0.1846 -0.4169 -0.2205
 1254TIP3    H1 3768   4.486   1.537   0.302  0.2868 -1.7219 -1.4623
 1254TIP3    H2 3769   4.417   1.535   0.168 -0.0726  1.3198 -1.3969
 1255TIP3   OH2 3770   3.152   1.696   4.112  0.0727 -0.1477  0.3007
 1255TIP3    H1 3771   3.184   1.784   4.134 -1.5857  0.5520  0.0469
 1255TIP3    H2 3772   3.082   1.680   4.175 -0.2330 -0.9162 -0.2264
 1256TIP3   OH2 3773   5.826   4.286   0.188  0.1340  0.4197 -0.8488
 1256TIP3    H1 3774   5.920   4.283   0.201 -0.1704 -0.7963  1.7733
 1256TIP3    H2 3775   5.800   4.373   0.219  0.0963 -0.4486  1.8283
 1257TIP3   OH2 3776   5.561   0.905   2.304 -0.3442  0.4422 -0.1985
 1257TIP3    H1 3777   5.614   0.830   2.277 -0.2131  0.4140  0.1373
 1257TIP3    H2 3778   5.484   0.866   2.345  0.2742  0.4877  1.0473
 1258TIP3   OH2 3779   5.663   2.805   0.496 -0.0107 -0.4115  0.2970
 1258TIP3    H1 3780   5.596   2.751   0.453 -0.9719 -0.0499  1.2762
 1258TIP3    H2 3781   5.651   2.892   0.459 -1.5145  0.1373  1.9254
 1259TIP3   OH2 3782   5.967   4.698   2.925 -0.0553  0.0336  0.0529
 1259TIP3    H1 3783   5.941   4.712   2.834  1.1696  1.0005 -0.1789
 1259TIP3    H2 3784   6.044   4.640   2.918  0.4065  0.5961  0.4246
 1260TIP3   OH2 3785   6.153   0.234   2.595  0.1255  0.2470  0.2289
 1260TIP3    H1 3786   6.191   0.184   2.668 -1.9628 -1.1903  0.4072
 1260TIP3    H2 3787   6.148   0.324   2.628  2.5261  0.3689  0.4714
 1261TIP3   OH2 3788   1.551   2.312   0.153 -0.0920  0.0971  0.1843
 1261TIP3    H1 3789   1.478   2.253   0.174 -0.0229  0.3854  1.3321
 1261TIP3    H2 3790   1.522   2.361   0.076 -0.2407 -1.2647 -0.6488
 1262TIP3   OH2 3791   2.571   0.366   3.460  0.0793  0.3934  0.1648
 1262TIP3    H1 3792   2.504   0.331   3.519  0.7704  0.4515  0.9913
 1262TIP3    H2 3793   2.526   0.372   3.375 -0.7182 -0.3538  0.5119
 1263TIP3   OH2 3794   5.888   3.724   5.069 -0.2843 -0.1455 -0.0751
 1263TIP3    H1 3795   5.940   3.720   5.149  0.0182  3.5074  0.0647
 1263TIP3    H2 3796   5.943   3.774   5.008 -1.3033 -1.1979 -1.9474
 1264TIP3   OH2 3797   0.539   3.422   0.428 -0.2779 -0.8971 -0.6155
 1264TIP3    H1 3798   0.611   3.404   0.488 -0.5165 -0.8148 -0.2972
 1264TIP3    H2 3799   0.537   3.517   0.420  1.0527 -0.9681 -2.3861
 1265TIP3   OH2 3800   3.419   3.293   3.970  0.1501  0.2308  0.5012
 1265TIP3    H1 3801   3.467   3.214   3.995  0.1737 -0.5311 -1.7318
 1265TIP3    H2 3802   3.331   3.280   4.006  0.0250 -1.0452 -0.2055
 1266TIP3   OH2 3803   4.533   1.674   3.545  0.4141 -0.6029  0.0708
 1266TIP3    H1 3804   4.566   1.764   3.540 -0.8696 -0.1344 -0.3082
 1266TIP3    H2 3805   4.612   1.620   3.550  1.2119  0.5304  0.1658
 1267TIP3   OH2 3806   2.321   1.003   2.796  0.4212  0.4457 -0.0754
 1267TIP3    H1 3807   2.261   1.054   2.850 -1.5237 -1.7450  0.0197
 1267TIP3    H2 3808   2.379   0.960   2.860 -1.2738 -1.4020  0.3358
 1268TIP3   OH2 3809   2.119   0.878   0.099 -0.2947  0.1848 -0.3395
 1268TIP3    H1 3810   2.053   0.947   0.086 -1.1621 -0.1864  1.7018
 1268TIP3    H2 3811   2.175   0.884   0.022 -0.9458  2.5053 -0.7161
 1269TIP3   OH2 3812   1.285   1.988   2.425  0.0102  0.0285 -0.3375
 1269TIP3    H1 3813   1.273   2.000   2.519 -0.6077  0.7996 -0.4966
 1269TIP3    H2 3814   1.284   1.893   2.413  0.7999 -0.0977  0.5111
 1270TIP3   OH2 3815   0.439   4.075   2.410  0.0946  0.6862 -0.2495
 1270TIP3    H1 3816   0.381   4.013   2.454 -0.5181  1.0201 -0.5677
 1270TIP3    H2 3817   0.398   4.160   2.425  0.5920  0.9444 -0.3483
 1271TIP3   OH2 3818   6.154   2.911   4.995  0.4070 -0.2393  0.4424
 1271TIP3    H1 3819   6.139   2.816   4.998  0.5168 -0.2404  1.4914
 1271TIP3    H2 3820   6.207   2.929   5.073  2.0271  0.4236 -0.7671
 1272TIP3   OH2 3821   0.673   0.108   2.154 -0.2530  0.0154  0.5238
 1272TIP3    H1 3822   0.731   0.060   2.094  0.0818  1.5304 -0.4295
 1272TIP3    H2 3823   0.601   0.048   2.170  0.9153 -1.4053  0.6627
 1273TIP3   OH2 3824   4.412   0.801   1.183 -0.3303 -0.3719  0.3890
 1273TIP3    H1 3825   4.364   0.857   1.243 -0.1079 -1.6802  1.8406
 1273TIP3    H2 3826   4.354   0.726   1.166 -0.3704 -0.0627 -1.0090
 1274TIP3   OH2 3827   1.030   0.845   3.021  0.0343  0.2254  0.3789
 1274TIP3    H1 3828   1.077   0.770   2.983 -0.2670  0.1156  0.2228
 1274TIP3    H2 3829   1.082   0.921   2.996  0.9905 -0.0198  1.5255
 1275TIP3   OH2 3830   2.358   2.110   0.041  0.1388 -0.0618  0.3193
 1275TIP3    H1 3831   2.276   2.146   0.006  0.4695 -0.9990 -1.5573
 1275TIP3    H2 3832   2.395   2.182   0.093 -0.8419  1.1218 -0.5415
 1276TIP3   OH2 3833   0.818   5.784   5.071 -0.3774  0.0156  0.1587
 1276TIP3    H1 3834   0.786   5.759   4.983  1.2936 -1.7100 -0.0182
 1276TIP3    H2 3835   0.887   5.848   5.054  1.5926 -2.0262 -0.0419
 1277TIP3   OH2 3836   2.670   1.787   0.550  0.4909 -0.2093 -0.0280
 1277TIP3    H1 3837   2.753   1.799   0.596  0.5807  1.3854 -0.5521
 1277TIP3    H2 3838   2.694   1.743   0.468  0.7893 -0.0197 -0.0442
 1278TIP3   OH2 3839   2.426   3.757   3.014 -0.2918  0.5071  0.7071
 1278TIP3    H1 3840   2.456   3.672   3.046 -0.9239  0.2249  0.5624
 1278TIP3    H2 3841   2.368   3.736   2.940  0.3226  1.1056  0.0435
 1279TIP3   OH2 3842   2.015   0.698   4.639  0.2148  0.0968  0.1303
 1279TIP3    H1 3843   2.092   0.715   4.585  0.5358 -0.7789  0.2806
 1279TIP3    H2 3844   1.992   0.607   4.618 -0.8852  0.4054 -0.0376
 1280TIP3   OH2 3845   4.634   3.381   3.683  0.4159 -0.1548  0.7049
 1280TIP3    H1 3846   4.594   3.405   3.767 -1.0872 -1.0147  0.2636
 1280TIP3    H2 3847   4.653   3.288   3.690 -1.0778 -0.5849 -0.3920
 1281TIP3   OH2 3848   3.533   5.521   4.277  0.3300 -0.1631  0.2002
 1281TIP3    H1 3849   3.493   5.449   4.229 -0.8261  1.1245 -0.8260
 1281TIP3    H2 3850   3.553   5.586   4.210  3.1416 -0.2597  0.8220
 1282TIP3   OH2 3851   5.296   1.956   2.599  0.4684  0.5810 -0.2737
 1282TIP3    H1 3852   5.228   2.008   2.558 -1.2584 -1.1567  0.2344
 1282TIP3    H2 3853   5.273   1.954   2.692  0.1569 -1.4614 -0.3491
 1283TIP3   OH2 3854   0.464   4.593   2.383  0.1111 -0.2024 -0.1537
 1283TIP3    H1 3855   0.422   4.616   2.467  0.5274  0.9226 -0.2389
 1283TIP3    H2 3856   0.391   4.580   2.323 -0.1537  1.0592 -0.1255
 1284TIP3   OH2 3857   0.121   1.369   4.924 -0.0031  0.0717  0.0446
 1284TIP3    H1 3858   0.102   1.292   4.977  2.0141 -1.1451 -0.9053
 1284TIP3    H2 3859   0.059   1.363   4.851 -1.5645  0.7846  1.2399
 1285TIP3   OH2 3860   4.075   0.448   3.636 -0.1954 -0.0486 -0.0486
 1285TIP3    H1 3861   4.170   0.449   3.630 -0.2491  0.8675 -1.1717
 1285TIP3    H2 3862   4.057   0.428   3.728  1.0664 -0.4235  0.1361
 1286TIP3   OH2 3863   2.833   4.682   4.801  0.0928  0.2218  0.6568
 1286TIP3    H1 3864   2.916   4.656   4.761 -0.3165  1.1449 -0.8835
 1286TIP3    H2 3865   2.858   4.742   4.872  0.7346  1.7876 -0.8180
 1287TIP3   OH2 3866   4.582   2.524   0.290  0.1389 -0.0592 -0.2580
 1287TIP3    H1 3867   4.538   2.445   0.320 -1.1912  1.0645  0.9376
 1287TIP3    H2 3868   4.615   2.502   0.203 -0.1921 -1.9066  0.0426
 1288TIP3   OH2 3869   2.039   4.585   1.656 -0.2712 -0.1211 -0.0055
 1288TIP3    H1 3870   1.997   4.596   1.740 -0.7224 -2.0207  0.0555
 1288TIP3    H2 3871   1.971   4.606   1.591  0.0872  1.3742  0.0696
 1289TIP3   OH2 3872   5.908   1.227   3.478 -0.5422 -0.3539 -0.1477
 1289TIP3    H1 3873   5.973   1.159   3.461  2.0874  1.5610  1.4762
 1289TIP3    H2 3874   5.929   1.258   3.566 -0.5334  3.5991 -1.3627
 1290TIP3   OH2 3875   4.264   3.498   4.027 -0.4316  0.0112  0.0960
 1290TIP3    H1 3876   4.359   3.504   4.034 -0.4181  0.4157 -0.4033
 1290TIP3    H2 3877   4.249   3.415   3.981 -0.3540 -0.3702  0.7340
 1291TIP3   OH2 3878   4.433   2.407   1.468 -0.0714  0.3261  0.0282
 1291TIP3    H1 3879   4.437   2.351   1.546  1.9448 -0.5683 -0.6594
 1291TIP3    H2 3880   4.488   2.482   1.489 -1.0607  1.0349  0.1502
 1292TIP3   OH2 3881   3.897   5.136   2.923  0.3925 -0.5555  0.2143
 1292TIP3    H1 3882   3.857   5.124   3.009  0.3294  0.6321  0.3694
 1292TIP3    H2 3883   3.986   5.103   2.932  1.6666  2.8074  1.8828
 1293TIP3   OH2 3884   0.384   1.213   1.542 -0.0882 -0.1982  0.2376
 1293TIP3    H1 3885   0.396   1.163   1.461 -0.9042  0.8721 -0.5718
 1293TIP3    H2 3886   0.310   1.169   1.585 -0.4089 -0.0653 -0.1702
 1294TIP3   OH2 3887   0.604   1.096   4.939  0.1771 -0.4135 -0.1753
 1294TIP3    H1 3888   0.564   1.165   4.993  0.3277 -0.5138  0.0666
 1294TIP3    H2 3889   0.697   1.116   4.940  0.1907 -0.4689 -0.3262
 1295TIP3   OH2 3890   5.723   0.234   5.109 -0.5501  0.7206  0.0595
 1295TIP3    H1 3891   5.776   0.154   5.106 -2.7896 -0.8527 -1.6619
 1295TIP3    H2 3892   5.780   0.303   5.078  1.0510 -0.4975  0.1827
 1296TIP3   OH2 3893   1.550   0.863   0.108 -0.1513  0.0897  0.3375
 1296TIP3    H1 3894   1.525   0.912   0.030 -1.1368 -1.3508 -0.2987
 1296TIP3    H2 3895   1.473   0.866   0.164 -0.0266 -0.2643  0.5322
 1297TIP3   OH2 3896   5.742   3.101   0.165 -0.3661 -0.7015  0.0612
 1297TIP3    H1 3897   5.722   3.016   0.125  0.0139 -1.1766  0.8601
 1297TIP3    H2 3898   5.697   3.164   0.109  1.3329 -1.2026 -1.9983
 1298TIP3   OH2 3899   4.521   0.698   3.223 -0.0098 -0.0958  0.0293
 1298TIP3    H1 3900   4.473   0.653   3.292 -0.8363  1.8509  0.7892
 1298TIP3    H2 3901   4.497   0.790   3.232  2.7603  0.7966 -0.4669
 1299TIP3   OH2 3902   5.141   3.265   4.470 -0.1140  0.0936  0.5181
 1299TIP3    H1 3903   5.070   3.277   4.533 -0.0221  0.1376  0.6135
 1299TIP3    H2 3904   5.154   3.352   4.432 -1.2956 -0.2519 -0.7770
 1300TIP3   OH2 3905   0.748   3.819   2.648  0.0059 -0.6224  0.6993
 1300TIP3    H1 3906   0.705   3.740   2.682  0.0019 -1.3066 -0.7810
 1300TIP3    H2 3907   0.694   3.891   2.680 -1.4931 -1.3877  0.0189
 1301TIP3   OH2 3908   0.331   4.713   4.069 -0.1312 -0.4030  0.0933
 1301TIP3    H1 3909   0.306   4.700   3.977  2.2169 -0.9291 -0.5516
 1301TIP3    H2 3910   0.361   4.804   4.073  0.3327 -0.5564  0.1743
 1302TIP3   OH2 3911   3.830   0.348   2.079 -0.3446 -0.6439 -0.5554
 1302TIP3    H1 3912   3.773   0.408   2.128 -0.0421 -0.6939 -0.1356
 1302TIP3    H2 3913   3.849   0.394   1.997 -1.4949 -0.8896 -0.9762
 1303TIP3   OH2 3914   4.576   0.349   3.225  0.4363 -0.0587  0.0062
 1303TIP3    H1 3915   4.561   0.322   3.135  0.3560  0.5434 -0.1666
 1303TIP3    H2 3916   4.606   0.440   3.218 -0.8485  0.4451  0.6436
 1304TIP3   OH2 3917   2.146   5.774   4.721 -0.0807 -0.2732 -0.1059
 1304TIP3    H1 3918   2.120   5.863   4.743 -0.6489 -0.4151 -0.1803
 1304TIP3    H2 3919   2.167   5.734   4.806  0.8646  0.1386 -0.1405
 1305TIP3   OH2 3920   2.673   0.121   5.126 -0.1528 -0.6956  0.8796
 1305TIP3    H1 3921   2.679   0.093   5.035 -0.5315  1.8929 -0.0383
 1305TIP3    H2 3922   2.617   0.056   5.168 -1.6001 -0.9111 -1.2298
 1306TIP3   OH2 3923   4.148   5.013   3.246  0.1391  0.1073 -0.2934
 1306TIP3    H1 3924   4.070   5.062   3.270  0.7473  0.9608 -0.0146
 1306TIP3    H2 3925   4.185   4.985   3.330  0.3281  0.0143 -0.4071
 1307TIP3   OH2 3926   2.234   1.349   0.996  0.0033 -0.8666  0.7423
 1307TIP3    H1 3927   2.213   1.334   1.088  1.2483  1.2636  1.4557
 1307TIP3    H2 3928   2.329   1.358   0.994 -0.1472  1.3765 -0.2932
 1308TIP3   OH2 3929   4.358   2.562   1.818  0.9077 -0.1647 -0.1901
 1308TIP3    H1 3930   4.381   2.644   1.774  1.3953  0.1587  0.6457
 1308TIP3    H2 3931   4.415   2.496   1.778  1.2266  0.0938 -0.1641
 1309TIP3   OH2 3932   6.165   2.935   0.907  0.7313  0.0276 -0.3159
 1309TIP3    H1 3933   6.121   2.860   0.867 -1.1888  0.9859 -0.0932
 1309TIP3    H2 3934   6.132   3.011   0.859  2.7292  0.7656 -0.6106
 1310TIP3   OH2 3935   1.539   3.692   4.650  0.1236 -0.1504 -0.0821
 1310TIP3    H1 3936   1.466   3.661   4.703 -0.4884  0.0327 -0.8032
 1310TIP3    H2 3937   1.555   3.622   4.587 -1.5364  1.0723 -1.9856
 1311TIP3   OH2 3938   0.289   0.832   4.793  0.5404 -0.1223  0.0953
 1311TIP3    H1 3939   0.315   0.771   4.725  1.2650  1.8103 -1.4708
 1311TIP3    H2 3940   0.202   0.862   4.767  0.7133  0.4369  0.1372
 1312TIP3   OH2 3941   3.418   5.422   2.442  0.4626  0.0529 -0.1110
 1312TIP3    H1 3942   3.507   5.434   2.475  1.1983 -0.0477 -1.9316
 1312TIP3    H2 3943   3.407   5.491   2.376 -1.8063  1.7351  1.8811
 1313TIP3   OH2 3944   2.877   0.568   2.761  0.0295  0.3537  0.2302
 1313TIP3    H1 3945   2.965   0.536   2.740 -0.3966  1.0285 -3.0708
 1313TIP3    H2 3946   2.886   0.663   2.763 -0.6410  0.4327 -0.2082
 1314TIP3   OH2 3947   4.721   3.458   0.339  0.0640  0.1733  0.3086
 1314TIP3    H1 3948   4.769   3.471   0.258 -1.3709 -2.1949 -1.0669
 1314TIP3    H2 3949   4.736   3.366   0.361 -1.4008  0.1735  1.4601
 1315TIP3   OH2 3950   4.181   4.782   0.353  0.0556  0.6180 -0.5561
 1315TIP3    H1 3951   4.203   4.874   0.364 -0.6219  0.8326 -0.9011
 1315TIP3    H2 3952   4.258   4.744   0.312  1.2019  0.5457  1.5709
 1316TIP3   OH2 3953   3.658   4.458   1.675 -0.8500  0.6370 -0.2987
 1316TIP3    H1 3954   3.663   4.381   1.731 -0.6828 -0.5103 -1.8464
 1316TIP3    H2 3955   3.747   4.473   1.645 -1.0161  0.9650 -0.6434
 1317TIP3   OH2 3956   3.804   0.691   0.595 -0.1245  0.0077 -0.7078
 1317TIP3    H1 3957   3.805   0.774   0.644  0.3152 -0.9949  1.0823
 1317TIP3    H2 3958   3.839   0.626   0.657 -0.9534 -1.6228 -1.8730
 1318TIP3   OH2 3959   4.771   4.058   2.457 -0.0788  0.2860 -0.1910
 1318TIP3    H1 3960   4.743   4.131   2.401  0.9799 -0.4931 -1.8165
 1318TIP3    H2 3961   4.837   4.096   2.515 -1.6699  1.2614  1.0612
 1319TIP3   OH2 3962   1.133   1.821   0.584  0.1811 -0.1672  0.0591
 1319TIP3    H1 3963   1.151   1.823   0.678  0.7413 -1.3122 -0.0089
 1319TIP3    H2 3964   1.073   1.894   0.569  0.8079  0.5926  1.1559
 1320TIP3   OH2 3965   0.610   5.678   1.346 -0.2572 -0.1243 -0.7519
 1320TIP3    H1 3966   0.600   5.668   1.252 -1.0684 -4.0901 -0.3874
 1320TIP3    H2 3967   0.527   5.649   1.383 -0.4681  2.6187  1.2658
 1321TIP3   OH2 3968   0.862   2.984   4.687  0.2379 -0.3602  0.0618
 1321TIP3    H1 3969   0.856   2.895   4.722 -0.1199 -0.8002 -1.0568
 1321TIP3    H2 3970   0.790   2.990   4.624  1.0411  0.2734 -0.8343
 1322TIP3   OH2 3971   5.933   4.246   4.457 -0.2267 -0.1895 -0.1432
 1322TIP3    H1 3972   5.874   4.208   4.391  0.7640  0.2075 -1.2944
 1322TIP3    H2 3973   5.930   4.340   4.439 -0.4282 -0.0119  0.8003
 1323TIP3   OH2 3974   2.399   5.249   4.663  0.3325  0.1401 -0.4029
 1323TIP3    H1 3975   2.411   5.341   4.688 -1.0259  0.3016 -0.2877
 1323TIP3    H2 3976   2.361   5.253   4.575  2.0960 -0.3745 -1.2480
 1324TIP3   OH2 3977   4.953   1.996   5.078 -0.1999 -0.1210  0.5670
 1324TIP3    H1 3978   5.009   2.009   5.154  0.4366  1.8355 -0.1804
 1324TIP3    H2 3979   4.994   1.924   5.030  0.5708  0.0034  1.0232
 1325TIP3   OH2 3980   0.263   3.216   3.890 -0.6094  0.0298 -0.2877
 1325TIP3    H1 3981   0.281   3.166   3.970  0.0573  1.4573  0.4928
 1325TIP3    H2 3982   0.241   3.150   3.825 -1.0909 -1.1882  1.0491
 1326TIP3   OH2 3983   3.002   3.245   1.986  0.1809 -0.0385  1.0041
 1326TIP3    H1 3984   2.922   3.198   1.965  0.9541 -0.7622 -0.5383
 1326TIP3    H2 3985   2.973   3.334   2.006 -1.0273 -0.3298  0.6306
 1327TIP3   OH2 3986   4.199   3.921   0.884  0.2282  0.2985 -0.1792
 1327TIP3    H1 3987   4.191   3.899   0.977  0.4736 -0.4088 -0.3265
 1327TIP3    H2 3988   4.276   3.977   0.879  0.3879  0.0920 -0.0040
 1328TIP3   OH2 3989   1.075   4.427   2.298  0.3655 -0.3515 -0.2985
 1328TIP3    H1 3990   1.142   4.495   2.300  0.1885 -0.1924  0.2952
 1328TIP3    H2 3991   1.006   4.459   2.355 -0.1286 -0.6160 -0.7366
 1329TIP3   OH2 3992   3.319   3.830   4.203  0.5689 -0.5076 -0.0859
 1329TIP3    H1 3993   3.298   3.851   4.112 -1.5841 -2.0189 -0.0242
 1329TIP3    H2 3994   3.250   3.769   4.230  2.4181 -1.9006  1.8526
 1330TIP3   OH2 3995   4.731   0.718   2.853 -0.0704 -1.0857 -0.4602
 1330TIP3    H1 3996   4.660   0.769   2.815 -1.5658 -1.2512  1.8776
 1330TIP3    H2 3997   4.697   0.628   2.854  1.2345 -1.6227 -1.5930
 1331TIP3   OH2 3998   4.711   0.046   4.255  0.1207 -0.2647  0.1909
 1331TIP3    H1 3999   4.633   0.001   4.287  0.7447 -1.3134  0.2753
 1331TIP3    H2 4000   4.680   0.133   4.232 -0.5697  0.2056  2.6387
 1332TIP3   OH2 4001   2.892   5.474   0.159  0.0086  0.2357 -0.5590
 1332TIP3    H1 4002   2.860   5.481   0.249  0.8222 -0.7563 -0.1720
 1332TIP3    H2 4003   2.925   5.561   0.139  0.0416  0.4037  0.1892
 1333TIP3   OH2 4004   4.872   5.248   0.387  0.4718 -0.4705  0.4529
 1333TIP3    H1 4005   4.917   5.238   0.470  1.3277 -2.1323 -0.1561
 1333TIP3    H2 4006   4.870   5.342   0.371 -0.4807 -0.0448  2.7256
 1334TIP3   OH2 4007   6.251   0.236   1.216  0.4354 -0.0845  0.6869
 1334TIP3    H1 4008   6.219   0.324   1.199  0.3046 -0.4193 -0.9519
 1334TIP3    H2 4009   6.208   0.211   1.299 -1.2253  0.5935  0.0797
 1335TIP3   OH2 4010   4.959   1.077   1.404 -0.6530  0.2315 -0.1609
 1335TIP3    H1 4011   4.920   1.045   1.323  0.7704 -1.0692 -0.3636
 1335TIP3    H2 4012   5.026   1.013   1.427  0.2645  1.5388  1.0465
 1336TIP3   OH2 4013   5.942   3.506   4.237  0.3863  0.1243 -0.0946
 1336TIP3    H1 4014   5.850   3.518   4.262  0.3167  0.0903 -0.3305
 1336TIP3    H2 4015   5.990   3.568   4.292  0.3363 -0.6107  0.8003
 1337TIP3   OH2 4016   5.387   1.826   3.571  0.1540 -0.1238  0.0892
 1337TIP3    H1 4017   5.370   1.918   3.550 -1.8019 -0.2575  0.8588
 1337TIP3    H2 4018   5.481   1.823   3.590  0.5563  1.3857 -1.4448
 1338TIP3   OH2 4019   0.333   5.930   5.117  0.1816 -0.1300 -0.6334
 1338TIP3    H1 4020   0.245   5.907   5.147  0.0466  0.6434 -0.4166
 1338TIP3    H2 4021   0.392   5.885   5.177 -0.0781  0.4419  0.0601
 1339TIP3   OH2 4022   6.188   4.159   4.974  0.0155 -0.4662  0.5339
 1339TIP3    H1 4023   6.159   4.187   4.887 -0.3451  0.5090  0.9489
 1339TIP3    H2 4024   6.282   4.178   4.975 -0.0611 -0.0704  0.4991
 1340TIP3   OH2 4025   4.320   5.156   3.663  0.1033 -0.2766  0.1038
 1340TIP3    H1 4026   4.339   5.207   3.584 -1.0140 -1.1515 -0.7728
 1340TIP3    H2 4027   4.363   5.072   3.647 -0.9310 -0.7945 -0.0265
 1341TIP3   OH2 4028   0.959   1.413   1.857  0.1406  0.0250  0.0878
 1341TIP3    H1 4029   0.911   1.330   1.863 -0.7670  0.6076  1.5865
 1341TIP3    H2 4030   1.051   1.388   1.861 -0.0679 -0.9910 -0.9895
 1342TIP3   OH2 4031   4.834   3.386   0.641 -0.0016 -0.4714  0.2049
 1342TIP3    H1 4032   4.789   3.469   0.622  0.9440  0.2885  1.1120
 1342TIP3    H2 4033   4.895   3.409   0.711  1.3939 -1.5871 -0.6029
 1343TIP3   OH2 4034   1.058   0.717   4.777 -0.4178  0.2020  0.3796
 1343TIP3    H1 4035   1.042   0.684   4.688 -1.1619  0.4204  0.4290
 1343TIP3    H2 4036   0.977   0.761   4.801 -0.5198 -0.5468  1.4872
 1344TIP3   OH2 4037   5.487   2.282   4.974  0.1639 -1.0661 -0.4496
 1344TIP3    H1 4038   5.496   2.271   4.879  0.6540 -0.2396 -0.5128
 1344TIP3    H2 4039   5.399   2.251   4.993 -0.9528  1.1253 -1.5993
 1345TIP3   OH2 4040   0.020   2.644   3.536 -0.2994 -0.0814 -0.1861
 1345TIP3    H1 4041   0.071   2.564   3.523 -1.1419 -0.6568 -0.0421
 1345TIP3    H2 4042   0.073   2.713   3.495  0.4102 -0.7129 -0.3670
 1346TIP3   OH2 4043   5.704   2.958   4.642  0.1075 -0.3173 -0.1679
 1346TIP3    H1 4044   5.696   2.956   4.737  0.6644 -1.0054 -0.1290
 1346TIP3    H2 4045   5.643   3.027   4.614 -2.1435 -1.9313  0.4800
 1347TIP3   OH2 4046   2.343   4.804   1.187 -0.2153  0.0433  0.3371
 1347TIP3    H1 4047   2.397   4.783   1.263  1.8758  1.2430 -0.7481
 1347TIP3    H2 4048   2.369   4.739   1.121  0.6396  1.2012 -0.4986
 1348TIP3   OH2 4049   0.009   1.585   1.625 -0.7795  0.7156  0.2359
 1348TIP3    H1 4050   0.067   1.539   1.686  0.1966  0.3693 -0.9341
 1348TIP3    H2 4051  -0.067   1.608   1.679 -0.5017 -0.6626  1.2832
 1349TIP3   OH2 4052   2.929   3.233   3.794  0.3716 -0.6567 -0.4769
 1349TIP3    H1 4053   2.899   3.276   3.874  0.7604  0.1225 -0.7385
 1349TIP3    H2 4054   2.900   3.291   3.723 -2.2781 -2.6029 -1.1358
 1350TIP3   OH2 4055   3.823   5.487   0.789 -0.0735  0.7295  0.3681
 1350TIP3    H1 4056   3.847   5.403   0.751 -1.4224  0.1822  0.6485
 1350TIP3    H2 4057   3.769   5.530   0.722 -0.7315  0.6618  0.8465
 1351TIP3   OH2 4058   3.623   4.904   2.679  0.2803  0.2962 -0.3552
 1351TIP3    H1 4059   3.609   4.882   2.771  0.5745  0.1793 -0.3390
 1351TIP3    H2 4060   3.625   4.820   2.634  2.0292  0.2269 -0.2073
 1352TIP3   OH2 4061   1.042   3.713   4.456 -0.6511 -0.4587  0.1157
 1352TIP3    H1 4062   1.036   3.620   4.475  0.3966 -0.7425 -0.8492
 1352TIP3    H2 4063   1.031   3.756   4.541 -1.9655 -1.3977  0.4537
 1353TIP3   OH2 4064   0.891   4.431   1.614  0.0247  0.0029  0.6556
 1353TIP3    H1 4065   0.797   4.446   1.606 -0.3218 -1.9342  0.5340
 1353TIP3    H2 4066   0.927   4.459   1.531 -0.6967 -0.8043  0.0530
 1354TIP3   OH2 4067   3.042   4.634   4.635  0.0911 -0.5564 -0.8664
 1354TIP3    H1 4068   3.034   4.582   4.556 -2.4843 -3.2427  0.9413
 1354TIP3    H2 4069   3.132   4.667   4.633  0.4287 -1.3231 -4.3199
 1355TIP3   OH2 4070   4.423   1.528   1.744  0.0006 -0.3915 -0.0834
 1355TIP3    H1 4071   4.407   1.596   1.810 -1.0039  0.9892 -1.6622
 1355TIP3    H2 4072   4.351   1.466   1.753 -1.0962  0.7049 -0.9301
 1356TIP3   OH2 4073   5.963   0.693   4.954 -0.2484 -0.8758  0.0001
 1356TIP3    H1 4074   5.895   0.758   4.937 -1.3790 -1.7011  1.1426
 1356TIP3    H2 4075   6.003   0.721   5.036 -0.8167 -1.6397  0.5576
 1357TIP3   OH2 4076   3.326   0.717   5.129  0.4107 -0.2733 -0.0425
 1357TIP3    H1 4077   3.272   0.639   5.119  0.1444 -0.0767 -0.1595
 1357TIP3    H2 4078   3.321   0.739   5.222  2.4535 -1.7950  0.5065
 1358TIP3   OH2 4079   4.650   2.856   0.888  0.3536  0.1078  0.1233
 1358TIP3    H1 4080   4.694   2.942   0.892  0.1993  0.2185 -0.4313
 1358TIP3    H2 4081   4.583   2.867   0.820  0.9488 -0.7244 -0.6227
 1359TIP3   OH2 4082   1.071   1.808   3.121  0.2924  0.2352 -0.1155
 1359TIP3    H1 4083   1.068   1.856   3.203 -0.7334  0.6191 -0.3579
 1359TIP3    H2 4084   0.982   1.774   3.109  0.0693  1.2565 -1.6771
 1360TIP3   OH2 4085   1.854   0.555   4.011  0.5059  0.2668  0.2465
 1360TIP3    H1 4086   1.930   0.606   3.982 -0.1869  1.7319  0.9155
 1360TIP3    H2 4087   1.779   0.604   3.978 -0.1927 -0.2335  1.0810
 1361TIP3   OH2 4088   2.855   1.943   3.386  0.2887  0.6956 -0.1614
 1361TIP3    H1 4089   2.926   1.909   3.441  0.4520  1.3627  0.0483
 1361TIP3    H2 4090   2.779   1.890   3.410  0.0474  1.7773  1.6344
 1362TIP3   OH2 4091   3.252   5.054   4.466 -0.5870 -0.0693  0.0999
 1362TIP3    H1 4092   3.189   5.125   4.476  0.7788  1.2770 -0.2857
 1362TIP3    H2 4093   3.238   5.022   4.377 -2.6453 -1.8038  0.9787
 1363TIP3   OH2 4094   0.053   1.903   4.645 -0.4674  0.0981  0.3049
 1363TIP3    H1 4095   0.084   1.839   4.709 -0.2259 -0.6854 -0.5816
 1363TIP3    H2 4096   0.022   1.851   4.571  1.1070  0.9798 -1.0635
 1364TIP3   OH2 4097   2.004   1.376   4.614 -0.0426 -0.6302  0.2329
 1364TIP3    H1 4098   1.993   1.284   4.640  2.2593 -0.7617  0.9522
 1364TIP3    H2 4099   2.098   1.387   4.607 -0.2930  1.6324 -0.1298
 1365TIP3   OH2 4100   3.768   5.861   2.492 -0.6981  0.1656  0.1906
 1365TIP3    H1 4101   3.680   5.856   2.455 -1.1852  2.2256  0.9125
 1365TIP3    H2 4102   3.824   5.887   2.418 -0.7234 -0.8151 -0.1924
 1366TIP3   OH2 4103   3.147   3.708   2.497 -0.3152  0.1291 -0.2714
 1366TIP3    H1 4104   3.230   3.699   2.545  0.2052  2.0540 -0.7098
 1366TIP3    H2 4105   3.099   3.776   2.545 -0.7568  0.4725 -1.1814
 1367TIP3   OH2 4106   2.443   3.212   4.192  0.1068 -0.2192  0.7079
 1367TIP3    H1 4107   2.373   3.214   4.127  0.6956 -1.8724 -0.0366
 1367TIP3    H2 4108   2.398   3.194   4.275 -0.3519 -2.0292  0.1227
 1368TIP3   OH2 4109   2.372   3.800   3.365 -0.3328 -0.7195  0.3157
 1368TIP3    H1 4110   2.446   3.859   3.357  0.0241 -0.9880  1.4804
 1368TIP3    H2 4111   2.399   3.721   3.319  0.8309 -1.4627  2.1569
 1369TIP3   OH2 4112   0.161   2.396   4.453 -0.0469 -0.1855  0.2511
 1369TIP3    H1 4113   0.202   2.462   4.508  0.4439 -0.3261  0.0624
 1369TIP3    H2 4114   0.085   2.367   4.502 -0.2923  0.5512  0.3164
 1370TIP3   OH2 4115   2.044   0.727   5.109  0.1800 -0.4316 -0.2418
 1370TIP3    H1 4116   1.956   0.766   5.106 -0.8295 -2.5886 -0.1539
 1370TIP3    H2 4117   2.053   0.696   5.199  0.8721 -0.6027 -0.3692
 1371TIP3   OH2 4118   2.881   1.180   1.847 -0.7007 -0.0684 -0.3211
 1371TIP3    H1 4119   2.916   1.261   1.884  0.6032 -0.5336 -0.4595
 1371TIP3    H2 4120   2.894   1.190   1.752  0.4886 -0.8553 -0.2690
 1372TIP3   OH2 4121   1.339   2.124   2.715 -0.3826  0.1336  0.3187
 1372TIP3    H1 4122   1.362   2.133   2.807 -0.3287  0.3158  0.2879
 1372TIP3    H2 4123   1.243   2.130   2.713 -0.3811  0.1635  0.3579
 1373TIP3   OH2 4124   6.232   0.440   0.734  0.5407 -0.2587 -0.6023
 1373TIP3    H1 4125   6.224   0.527   0.694  0.3419 -0.8502 -1.8999
 1373TIP3    H2 4126   6.172   0.385   0.684 -0.9609 -0.7061  1.5838
 1374TIP3   OH2 4127   0.643   0.177   3.667 -0.5870  0.2784 -0.1870
 1374TIP3    H1 4128   0.648   0.146   3.577 -1.4360 -0.7309  0.0800
 1374TIP3    H2 4129   0.727   0.151   3.706 -0.7912 -0.6279 -0.3107
 1375TIP3   OH2 4130   5.313   0.948   5.077 -0.5153  0.2188  0.6887
 1375TIP3    H1 4131   5.407   0.931   5.067 -0.7137 -0.0586 -1.0537
 1375TIP3    H2 4132   5.307   1.043   5.088 -0.0223  0.2045  1.1254
 1376TIP3   OH2 4133   0.014   3.219   1.446  0.1708 -0.1181 -0.0953
 1376TIP3    H1 4134  -0.009   3.264   1.365 -1.2858 -1.8568 -0.7214
 1376TIP3    H2 4135   0.109   3.233   1.455  0.2779  0.5287 -1.8131
 1377TIP3   OH2 4136   2.669   2.846   1.827  0.0086 -0.4014  0.2710
 1377TIP3    H1 4137   2.654   2.773   1.767  1.0729 -0.2794 -0.1735
 1377TIP3    H2 4138   2.648   2.924   1.776 -0.3294 -0.3524  0.4810
 1378TIP3   OH2 4139   1.530   0.813   1.406 -0.1759  0.2209 -0.5980
 1378TIP3    H1 4140   1.463   0.832   1.471  1.7497  0.5210  1.4054
 1378TIP3    H2 4141   1.491   0.745   1.351 -2.3928  0.9361 -0.0293
 1379TIP3   OH2 4142   5.672   4.205   4.995  0.7117 -0.0635 -0.2196
 1379TIP3    H1 4143   5.702   4.161   5.074  0.9670 -0.2625 -0.4244
 1379TIP3    H2 4144   5.622   4.138   4.948 -1.1728  0.6176  0.7236
 1380TIP3   OH2 4145   4.652   3.944   3.906  0.0599 -0.4221  0.4015
 1380TIP3    H1 4146   4.585   3.948   3.837  0.3614  0.5422  0.1397
 1380TIP3    H2 4147   4.625   3.871   3.961 -0.2300 -1.1820 -0.6978
 1381TIP3   OH2 4148   4.523   4.348   0.964 -0.2042  0.0388  0.4911
 1381TIP3    H1 4149   4.545   4.302   1.045  1.5702  1.2225  0.7382
 1381TIP3    H2 4150   4.480   4.429   0.994  2.3014  1.4877  0.4521
 1382TIP3   OH2 4151   5.352   0.875   3.443  0.4355  0.5163  0.2797
 1382TIP3    H1 4152   5.364   0.859   3.536 -0.3080 -0.9629  0.1596
 1382TIP3    H2 4153   5.436   0.853   3.403 -0.2253 -2.4477  0.2535
 1383TIP3   OH2 4154   1.545   1.238   2.970  0.3683 -0.1435 -0.5221
 1383TIP3    H1 4155   1.505   1.283   2.896 -0.2695  0.5378  0.2219
 1383TIP3    H2 4156   1.493   1.159   2.982  0.3416 -0.1467 -0.6548
 1384TIP3   OH2 4157   3.301   3.167   3.289  0.2653 -0.1341 -0.0344
 1384TIP3    H1 4158   3.269   3.198   3.204  0.0641  0.7662  0.3568
 1384TIP3    H2 4159   3.223   3.162   3.344  0.6969  1.9690  0.8906
 1385TIP3   OH2 4160   5.204   5.296   0.188  0.6190 -0.0956 -0.7997
 1385TIP3    H1 4161   5.212   5.207   0.221 -3.0866 -0.1734  0.2885
 1385TIP3    H2 4162   5.249   5.295   0.104  0.5606 -3.0164 -0.8894
 1386TIP3   OH2 4163   5.726   5.938   0.153 -0.0556 -0.1778  0.1625
 1386TIP3    H1 4164   5.752   6.017   0.105  1.2666 -0.7067 -0.0391
 1386TIP3    H2 4165   5.777   5.942   0.234  0.8834 -1.3587 -0.3374
 1387TIP3   OH2 4166   6.017   3.330   3.278 -0.4758 -0.2844  0.9787
 1387TIP3    H1 4167   6.041   3.259   3.219 -0.0645 -0.9542  1.9132
 1387TIP3    H2 4168   6.044   3.299   3.365 -0.6652  0.8460  1.4627
 1388TIP3   OH2 4169   5.581   5.674   0.911 -0.1616  0.2343  0.2355
 1388TIP3    H1 4170   5.554   5.752   0.862  0.1254 -0.5852 -1.3072
 1388TIP3    H2 4171   5.567   5.697   1.003  0.9362  2.4707 -0.1020
 1389TIP3   OH2 4172   3.443   5.690   3.299 -0.0703  0.1579 -0.0992
 1389TIP3    H1 4173   3.498   5.638   3.241 -0.8930 -0.0378 -0.7249
 1389TIP3    H2 4174   3.457   5.780   3.271  1.4660  0.3265  1.0795
 1390TIP3   OH2 4175   5.725   3.758   1.515 -0.4866  0.1807 -0.2832
 1390TIP3    H1 4176   5.698   3.768   1.423  0.1920 -0.1934 -0.5322
 1390TIP3    H2 4177   5.820   3.761   1.512 -0.4303 -0.6523  0.3097
 1391TIP3   OH2 4178   3.206   1.511   3.923  0.5502  0.5698 -0.0682
 1391TIP3    H1 4179   3.131   1.455   3.902  0.6579 -0.2361  1.5266
 1391TIP3    H2 4180   3.169   1.581   3.976  0.7316  0.8616 -0.3309
 1392TIP3   OH2 4181   3.107   3.249   2.458  0.0063  0.1410  0.6128
 1392TIP3    H1 4182   3.097   3.320   2.395  1.6200  0.2868  0.4674
 1392TIP3    H2 4183   3.152   3.180   2.410  2.1668  0.6221  1.7744
 1393TIP3   OH2 4184   4.087   2.606   1.749 -0.6546 -0.3541  0.0038
 1393TIP3    H1 4185   4.107   2.637   1.660 -1.3115  1.4552  0.4388
 1393TIP3    H2 4186   4.171   2.573   1.782 -0.2205 -0.2934 -0.9887
 1394TIP3   OH2 4187   3.368   4.809   1.554  0.1692  0.0232  0.5303
 1394TIP3    H1 4188   3.404   4.832   1.639  0.7980  0.2144  0.2200
 1394TIP3    H2 4189   3.273   4.815   1.565  0.2557  2.7756  0.5094
 1395TIP3   OH2 4190   0.672   2.813   4.182 -0.0364 -0.2482  0.3369
 1395TIP3    H1 4191   0.623   2.778   4.257  1.3633 -0.4155  1.2277
 1395TIP3    H2 4192   0.709   2.895   4.214 -0.4164  0.3021 -0.5946
 1396TIP3   OH2 4193   4.443   2.545   2.101 -0.5274 -0.3317 -0.0016
 1396TIP3    H1 4194   4.422   2.558   2.008 -0.0828  2.8717  0.2452
 1396TIP3    H2 4195   4.538   2.556   2.106 -0.5090 -0.7806  0.8215
 1397TIP3   OH2 4196   0.314   4.016   0.000  0.1712 -0.2240  0.4066
 1397TIP3    H1 4197   0.385   3.987  -0.056  0.0117 -0.9050  0.5408
 1397TIP3    H2 4198   0.345   3.999   0.089 -0.0989 -0.3854  0.4718
 1398TIP3   OH2 4199   4.265   0.896   0.370 -0.0350  0.3657 -0.3909
 1398TIP3    H1 4200   4.185   0.884   0.420 -0.8768  0.1375 -1.7244
 1398TIP3    H2 4201   4.312   0.813   0.379 -0.5411  0.0538 -0.5767
 1399TIP3   OH2 4202   3.083   1.844   3.533 -0.9294  0.0012 -0.0055
 1399TIP3    H1 4203   3.130   1.873   3.611  0.1145  2.3537 -1.3979
 1399TIP3    H2 4204   3.151   1.837   3.465 -1.9257 -1.1332 -0.9253
 1400TIP3   OH2 4205   2.902   4.177   2.321 -0.3834  0.0637 -0.3186
 1400TIP3    H1 4206   2.916   4.270   2.302 -0.6841  0.2943  0.5629
 1400TIP3    H2 4207   2.990   4.138   2.314 -0.0332  0.6616  0.5999
 1401TIP3   OH2 4208   3.728   1.770   2.886  0.1195  0.0090 -1.0466
 1401TIP3    H1 4209   3.748   1.738   2.797  0.4408 -0.0443 -0.9560
 1401TIP3    H2 4210   3.740   1.693   2.942  3.2629  0.7959 -0.4896
 1402TIP3   OH2 4211   0.168   1.569   4.321 -0.0545  0.2895 -0.0672
 1402TIP3    H1 4212   0.234   1.629   4.287 -0.4192  0.1637 -1.0289
 1402TIP3    H2 4213   0.085   1.612   4.304 -0.3055 -0.3491 -0.4816
 1403TIP3   OH2 4214   5.490   2.947   4.441  0.5224  0.5198  0.7479
 1403TIP3    H1 4215   5.579   2.924   4.465  0.5784  0.3319  0.3588
 1403TIP3    H2 4216   5.496   3.036   4.408  0.5380  0.5683  0.8806
 1404TIP3   OH2 4217   3.829   3.062   1.198  0.1518 -1.0140 -0.6043
 1404TIP3    H1 4218   3.887   2.987   1.214  2.7587  1.2972  1.9377
 1404TIP3    H2 4219   3.779   3.071   1.279 -0.4273 -0.2051 -1.0423
 1405TIP3   OH2 4220   6.212   0.681   0.590 -0.2240  0.2812 -0.1213
 1405TIP3    H1 4221   6.278   0.750   0.581 -0.2118  0.4162  0.8610
 1405TIP3    H2 4222   6.139   0.724   0.635  0.0786 -0.5225  1.1705
 1406TIP3   OH2 4223   0.621   1.409   2.909  0.4005 -0.2104 -0.0258
 1406TIP3    H1 4224   0.543   1.373   2.952  1.3950  0.1410  2.2047
 1406TIP3    H2 4225   0.602   1.503   2.902 -0.0883 -0.3707 -1.1865
 1407TIP3   OH2 4226   1.716   0.588   2.380  0.0941  0.2079  0.5933
 1407TIP3    H1 4227   1.737   0.507   2.334 -1.8946 -1.4773  2.4745
 1407TIP3    H2 4228   1.791   0.604   2.437 -0.2832 -1.3805  1.5745
 1408TIP3   OH2 4229   1.693   1.896   1.655  0.1088  0.3349  0.1004
 1408TIP3    H1 4230   1.647   1.883   1.738 -1.6891 -1.9927 -1.1418
 1408TIP3    H2 4231   1.786   1.890   1.678 -0.3480 -0.6221  1.9013
 1409TIP3   OH2 4232   4.461   2.787   0.712 -0.2998  0.5600  0.1065
 1409TIP3    H1 4233   4.521   2.781   0.637 -1.0230  0.3679 -0.4644
 1409TIP3    H2 4234   4.379   2.820   0.675 -0.8423 -0.0760  0.7063
 1410TIP3   OH2 4235   0.534   4.845   2.723  0.1014  0.2802 -0.2140
 1410TIP3    H1 4236   0.495   4.916   2.673  1.2947  0.3311 -1.1269
 1410TIP3    H2 4237   0.483   4.841   2.804 -2.2714 -0.2009 -1.6520
 1411TIP3   OH2 4238   2.765   3.297   0.439 -0.3382  0.7078  0.1761
 1411TIP3    H1 4239   2.769   3.389   0.412 -0.7879  1.0864  1.3295
 1411TIP3    H2 4240   2.852   3.277   0.473 -0.0184  0.4768 -0.7611
 1412TIP3   OH2 4241   1.291   2.242   0.327  0.0026 -0.2718 -0.0200
 1412TIP3    H1 4242   1.327   2.330   0.339 -0.0982 -0.5604  3.5153
 1412TIP3    H2 4243   1.205   2.256   0.288 -0.5424  1.3791  1.6012
 1413TIP3   OH2 4244   5.814   1.079   2.722  0.1088 -0.2995 -0.2899
 1413TIP3    H1 4245   5.777   1.081   2.634  0.7888 -0.9290 -0.6013
 1413TIP3    H2 4246   5.739   1.090   2.780 -0.4533 -0.6895 -0.9281
 1414TIP3   OH2 4247   4.732   0.450   3.705  0.5515 -0.0713  0.4370
 1414TIP3    H1 4248   4.828   0.453   3.707  0.6047  0.9206 -1.1266
 1414TIP3    H2 4249   4.711   0.404   3.623 -0.3122 -0.5924  0.9396
 1415TIP3   OH2 4250   5.835   0.334   3.131 -0.9240 -0.2792  0.1054
 1415TIP3    H1 4251   5.762   0.391   3.109 -1.7481 -1.8543 -1.5175
 1415TIP3    H2 4252   5.857   0.289   3.049 -1.0785 -3.0918  1.4824
 1416TIP3   OH2 4253   3.121   2.768   1.854 -0.0441  0.6287 -0.2201
 1416TIP3    H1 4254   3.073   2.850   1.842  0.3135  0.5950 -2.2074
 1416TIP3    H2 4255   3.131   2.733   1.766 -0.4937 -1.7615  0.5946
 1417TIP3   OH2 4256   0.042   0.382   3.934 -0.5487 -0.5473  0.2710
 1417TIP3    H1 4257   0.015   0.365   4.024 -0.7174 -1.3821  0.0669
 1417TIP3    H2 4258   0.046   0.478   3.928 -0.3817 -0.4861  1.2037
 1418TIP3   OH2 4259   1.121   0.985   4.455 -0.1297  0.0256  0.1358
 1418TIP3    H1 4260   1.108   1.041   4.378  0.7837  0.2795  0.1559
 1418TIP3    H2 4261   1.171   0.911   4.422  0.3173  0.1675  0.4980
 1419TIP3   OH2 4262   4.728   0.344   4.573  0.5218 -0.3567  0.1836
 1419TIP3    H1 4263   4.725   0.321   4.666 -1.5402 -1.7014 -0.1720
 1419TIP3    H2 4264   4.725   0.440   4.572  2.6954 -0.1904  1.5003
 1420TIP3   OH2 4265   2.733   5.328   2.899 -0.0732  0.2664  0.3056
 1420TIP3    H1 4266   2.735   5.247   2.951 -0.6513  1.4557  2.2872
 1420TIP3    H2 4267   2.820   5.367   2.913  0.0011  0.2739 -0.1737
 1421TIP3   OH2 4268   1.795   1.442   3.644  0.1250  0.1855  0.0878
 1421TIP3    H1 4269   1.868   1.380   3.635  0.5824  0.7987 -0.4378
 1421TIP3    H2 4270   1.832   1.527   3.619 -1.4168  0.1174 -2.8600
 1422TIP3   OH2 4271   0.652   4.359   1.868  0.5305 -0.0332  0.7007
 1422TIP3    H1 4272   0.676   4.321   1.952  1.1921 -0.5374  0.2982
 1422TIP3    H2 4273   0.707   4.437   1.860  1.4509 -0.6982  0.1789
 1423TIP3   OH2 4274   4.266   5.209   3.068  0.0041 -0.0870  0.0734
 1423TIP3    H1 4275   4.213   5.146   3.118  1.1297 -0.2214  1.1604
 1423TIP3    H2 4276   4.220   5.292   3.077 -0.5659 -0.4039  0.1184
 1424TIP3   OH2 4277   1.026   0.179   3.388  0.0353  0.0625  0.6205
 1424TIP3    H1 4278   1.101   0.225   3.351  0.3462 -1.1561 -0.3513
 1424TIP3    H2 4279   0.974   0.153   3.312 -0.1260 -1.1400  1.1192
 1425TIP3   OH2 4280   4.455   2.249   3.493 -0.3480  0.8317 -0.3414
 1425TIP3    H1 4281   4.365   2.216   3.493  0.2220 -0.8497  0.6354
 1425TIP3    H2 4282   4.446   2.342   3.475 -2.3810  0.9257  0.7927
 1426TIP3   OH2 4283   1.727   5.573   1.260  0.2447 -0.2934 -0.1052
 1426TIP3    H1 4284   1.736   5.554   1.167 -0.7231 -0.0158 -0.2705
 1426TIP3    H2 4285   1.653   5.520   1.288 -0.7140  1.0694  0.0533
 1427TIP3   OH2 4286   4.568   3.733   4.025  0.1883  0.2931 -0.2784
 1427TIP3    H1 4287   4.584   3.656   4.081 -0.8524  1.1022  1.2081
 1427TIP3    H2 4288   4.482   3.717   3.987  1.7280 -1.2776 -3.5384
 1428TIP3   OH2 4289   3.539   4.429   2.597  0.3164 -0.0068 -0.8036
 1428TIP3    H1 4290   3.551   4.345   2.553  2.1093 -0.9215  1.2420
 1428TIP3    H2 4291   3.619   4.441   2.648  0.2288  3.0746 -1.1482
 1429TIP3   OH2 4292   5.667   4.465   4.860 -0.1415 -0.5831  0.0874
 1429TIP3    H1 4293   5.663   4.451   4.766 -0.9558  0.7951 -0.1114
 1429TIP3    H2 4294   5.662   4.378   4.898  0.4268 -1.1751 -1.1343
 1430TIP3   OH2 4295   5.679   1.063   3.251  0.1705 -0.1627 -0.0491
 1430TIP3    H1 4296   5.714   1.033   3.167  3.2227  1.0886  0.6174
 1430TIP3    H2 4297   5.720   1.148   3.265  0.0403 -0.4566  2.8520
 1431TIP3   OH2 4298   4.279   1.920   2.254  0.2240  0.0943 -0.0068
 1431TIP3    H1 4299   4.298   1.982   2.183 -1.2621  0.4858 -0.1011
 1431TIP3    H2 4300   4.309   1.963   2.333  3.4368 -1.0169 -0.4669
 1432TIP3   OH2 4301   3.041   2.020   2.376 -0.1015 -0.2340  0.1110
 1432TIP3    H1 4302   2.951   2.028   2.408  0.5303  2.2841  1.5571
 1432TIP3    H2 4303   3.092   1.996   2.453  0.9056  2.0622  0.2654
 1433TIP3   OH2 4304   4.935   4.389  -0.014  0.0474 -0.1786  0.0180
 1433TIP3    H1 4305   4.941   4.331   0.062 -1.3605  0.6428  0.7924
 1433TIP3    H2 4306   5.013   4.445  -0.006 -0.4517  0.3857  1.2962
 1434TIP3   OH2 4307   1.833   1.661   1.988 -0.2763 -0.9793 -0.4307
 1434TIP3    H1 4308   1.744   1.637   1.965 -0.2243  0.1382 -1.9647
 1434TIP3    H2 4309   1.888   1.594   1.947 -0.3674 -1.4776  0.2339
 1435TIP3   OH2 4310   4.934   5.086   4.765 -0.3051 -0.8276 -0.1774
 1435TIP3    H1 4311   4.915   5.003   4.720  0.2652 -0.9842 -0.1316
 1435TIP3    H2 4312   4.889   5.078   4.849  2.0571 -2.3018  1.0440
 1436TIP3   OH2 4313   5.369   3.688   1.628 -0.2937 -0.1264 -0.8490
 1436TIP3    H1 4314   5.370   3.781   1.605 -0.8635 -0.2438 -1.3840
 1436TIP3    H2 4315   5.462   3.663   1.631 -0.1580  0.2456 -1.6375
 1437TIP3   OH2 4316   4.013   4.848   3.926  0.0636 -0.2377 -0.0683
 1437TIP3    H1 4317   4.054   4.851   3.840  0.2076 -1.1696 -0.0472
 1437TIP3    H2 4318   3.961   4.928   3.932 -1.6397 -1.1239 -1.8988
 1438TIP3   OH2 4319   4.462   5.391   0.520 -0.2252  0.0052  0.3701
 1438TIP3    H1 4320   4.424   5.472   0.553  1.5892  0.5640  1.1956
 1438TIP3    H2 4321   4.548   5.385   0.562  0.4582 -1.4082 -1.0901
 1439TIP3   OH2 4322   4.113   1.205   3.482  0.0177 -0.4769 -0.5454
 1439TIP3    H1 4323   4.084   1.261   3.554  1.1010 -0.7592  0.1115
 1439TIP3    H2 4324   4.055   1.230   3.409 -1.3383 -0.4532  0.4921
 1440TIP3   OH2 4325   3.702   1.756   0.461 -0.5114  0.2334 -0.3297
 1440TIP3    H1 4326   3.758   1.768   0.384 -0.7758  0.0076 -0.5625
 1440TIP3    H2 4327   3.736   1.818   0.525  1.2125 -1.2033  0.2134
 1441TIP3   OH2 4328   0.662   1.234   1.565  0.0758  0.5674  0.0270
 1441TIP3    H1 4329   0.568   1.240   1.550  0.2345  3.3462 -0.2733
 1441TIP3    H2 4330   0.672   1.241   1.660 -0.0200 -0.1587  0.0966
 1442TIP3   OH2 4331   4.474   2.147   4.550 -0.1696  0.3201 -0.0800
 1442TIP3    H1 4332   4.469   2.130   4.456  1.7831  4.2373 -1.1050
 1442TIP3    H2 4333   4.396   2.199   4.570  0.7454  1.8496 -0.2723
 1443TIP3   OH2 4334   4.028   1.209   4.499 -0.3483 -0.4969  0.3532
 1443TIP3    H1 4335   4.071   1.150   4.561  0.0766 -0.4089  0.1492
 1443TIP3    H2 4336   4.002   1.284   4.552 -2.3783 -1.5597  0.9491
 1444TIP3   OH2 4337   5.909   3.985   3.469  0.1024  0.9527 -0.4291
 1444TIP3    H1 4338   5.986   3.987   3.527 -1.2793 -0.3836  1.5641
 1444TIP3    H2 4339   5.884   3.893   3.465 -0.8785  1.2486 -1.8008
 1445TIP3   OH2 4340   1.295   3.905   3.062  0.3781  0.0309 -0.3529
 1445TIP3    H1 4341   1.230   3.974   3.074  0.1002 -0.0758 -1.1880
 1445TIP3    H2 4342   1.260   3.852   2.990 -1.1323 -2.9633  2.3067
 1446TIP3   OH2 4343   1.132   3.133   5.050  0.0527 -0.3658 -0.0547
 1446TIP3    H1 4344   1.088   3.052   5.022 -0.0040 -0.4304  0.2164
 1446TIP3    H2 4345   1.100   3.147   5.139  0.1066 -0.0730 -0.0831
 1447TIP3   OH2 4346   5.663   2.581   1.086  0.3374  0.1680  0.1997
 1447TIP3    H1 4347   5.638   2.672   1.104  0.4054  0.4467 -1.0541
 1447TIP3    H2 4348   5.686   2.546   1.172  0.9341  1.5261  0.6275
 1448TIP3   OH2 4349   6.206   2.534   0.971 -0.2070  0.3455 -0.3973
 1448TIP3    H1 4350   6.230   2.618   1.010 -0.8998 -0.1863  1.2689
 1448TIP3    H2 4351   6.156   2.490   1.039  0.3186 -1.5167 -1.1608
 1449TIP3   OH2 4352   5.472   5.266   5.191  0.4328  0.1791 -0.6099
 1449TIP3    H1 4353   5.558   5.298   5.215  0.2019 -0.2734  0.8854
 1449TIP3    H2 4354   5.451   5.313   5.110  2.1334  0.1643 -1.1013
 1450TIP3   OH2 4355   5.298   3.050   4.105 -0.7389  0.0832  0.0519
 1450TIP3    H1 4356   5.231   2.982   4.102  1.1243 -1.8780  0.3719
 1450TIP3    H2 4357   5.343   3.043   4.021 -0.5786  1.0102  0.0505
 1451TIP3   OH2 4358   1.818   5.342   5.055  0.5022 -0.3769 -0.0075
 1451TIP3    H1 4359   1.788   5.409   4.995  1.4828  0.1488  0.0677
 1451TIP3    H2 4360   1.747   5.331   5.118  0.0657  0.0995 -0.4200
 1452TIP3   OH2 4361   3.157   5.183   0.610  0.5105  0.3443  0.3816
 1452TIP3    H1 4362   3.244   5.147   0.593  0.4697 -0.3328  1.5005
 1452TIP3    H2 4363   3.117   5.192   0.524  1.4542  0.0517 -0.0932
 1453TIP3   OH2 4364   1.762   5.950   2.922 -0.6195  0.0577  0.1249
 1453TIP3    H1 4365   1.730   5.866   2.954  0.6838 -0.9460 -1.0857
 1453TIP3    H2 4366   1.827   5.928   2.856  0.0231  2.0273  0.0193
 1454TIP3   OH2 4367   2.825   0.119   4.719 -0.5540  0.1199  0.5681
 1454TIP3    H1 4368   2.841   0.199   4.770  1.0201  1.1627 -1.3801
 1454TIP3    H2 4369   2.912   0.083   4.703 -1.1553 -1.2877  0.3380
 1455TIP3   OH2 4370   1.282   3.067   2.778 -0.4106  0.1707  0.5409
 1455TIP3    H1 4371   1.231   3.102   2.851 -2.2841 -2.2909  0.5522
 1455TIP3    H2 4372   1.355   3.021   2.820 -1.6976 -1.5709  0.9845
 1456TIP3   OH2 4373   5.951   5.613   3.426 -0.2664 -0.4872 -0.2469
 1456TIP3    H1 4374   5.958   5.659   3.510 -0.5499 -1.9499  0.6046
 1456TIP3    H2 4375   6.038   5.621   3.387  0.0169 -0.2135  0.4189
 1457TIP3   OH2 4376   5.504   1.581   1.631 -0.2317  0.0863  0.1188
 1457TIP3    H1 4377   5.546   1.567   1.546 -2.3477  0.2253 -0.9982
 1457TIP3    H2 4378   5.559   1.532   1.693  2.2424  1.2570 -1.0267
 1458TIP3   OH2 4379   4.804   3.661   3.794  0.0043 -0.2437  0.5865
 1458TIP3    H1 4380   4.737   3.707   3.844  1.2413 -0.1534  2.2424
 1458TIP3    H2 4381   4.798   3.698   3.706  0.3272  2.4623  1.6200
 1459TIP3   OH2 4382   2.429   1.318   2.129 -0.4577 -0.2347  0.5785
 1459TIP3    H1 4383   2.388   1.260   2.065 -1.1820 -0.6614  1.4041
 1459TIP3    H2 4384   2.523   1.304   2.118 -0.5476 -0.0140 -0.6395
 1460TIP3   OH2 4385   0.358   0.836   2.636  0.6786  0.1695 -0.2526
 1460TIP3    H1 4386   0.426   0.782   2.596  0.0120 -0.1194 -1.0278
 1460TIP3    H2 4387   0.309   0.873   2.562  0.2624  0.7210  0.2814
 1461TIP3   OH2 4388   4.130   3.203   4.634  0.1726  0.0865  0.3500
 1461TIP3    H1 4389   4.060   3.224   4.695  1.6130  3.9365  0.9980
 1461TIP3    H2 4390   4.209   3.239   4.675  2.0970 -1.6746 -1.5504
 1462TIP3   OH2 4391   1.973   4.504   2.436 -0.5357  0.4104  0.2396
 1462TIP3    H1 4392   2.000   4.457   2.357  1.0920  2.7789 -0.7620
 1462TIP3    H2 4393   2.016   4.458   2.508 -0.2500 -0.5253 -0.5104
 1463TIP3   OH2 4394   6.262   2.365   0.356  0.2420  0.4546 -0.0284
 1463TIP3    H1 4395   6.223   2.309   0.423  2.1223  2.0690  2.6442
 1463TIP3    H2 4396   6.201   2.438   0.347 -1.2523 -0.9311 -2.0863
 1464TIP3   OH2 4397   2.059   4.815   0.988  0.0289 -0.0093  0.3240
 1464TIP3    H1 4398   2.063   4.885   1.053 -0.8540 -0.1081  0.4987
 1464TIP3    H2 4399   1.970   4.821   0.952  0.7041  0.4550 -1.3464
 1465TIP3   OH2 4400   0.445   1.174   2.769 -0.3563 -0.1839  0.0892
 1465TIP3    H1 4401   0.371   1.114   2.764 -1.4923  1.2264 -0.8118
 1465TIP3    H2 4402   0.473   1.171   2.861 -2.0113 -0.2034  0.6191
 1466TIP3   OH2 4403   1.149   4.371   3.069  0.3807  0.1220  0.1382
 1466TIP3    H1 4404   1.171   4.438   3.134  1.2327  0.0376 -0.0438
 1466TIP3    H2 4405   1.161   4.415   2.985  0.9529 -0.2575  0.0187
 1467TIP3   OH2 4406   1.987   0.404   3.600 -0.1376  0.8242 -0.0909
 1467TIP3    H1 4407   2.058   0.343   3.622  0.2549  1.6920  1.1668
 1467TIP3    H2 4408   1.931   0.404   3.677 -2.6250 -1.2627 -1.7534
 1468TIP3   OH2 4409   4.119   4.676   4.501 -0.1535 -0.1818 -0.1046
 1468TIP3    H1 4410   4.149   4.587   4.484 -1.3334 -0.7290  0.5699
 1468TIP3    H2 4411   4.092   4.675   4.593 -0.6172  0.7399 -0.2216
 1469TIP3   OH2 4412   4.246   5.731   4.359  0.3371  0.9858  0.6998
 1469TIP3    H1 4413   4.264   5.807   4.303 -2.6167  0.9419 -0.4743
 1469TIP3    H2 4414   4.204   5.668   4.300  0.8489 -0.7561  2.1163
 1470TIP3   OH2 4415   4.110   2.212   3.003  0.1620  0.3722 -0.1569
 1470TIP3    H1 4416   4.026   2.226   3.048 -0.2876  0.1070 -0.8979
 1470TIP3    H2 4417   4.176   2.244   3.065 -0.3187 -1.4719  1.3963
 1471TIP3   OH2 4418   3.301   2.275   4.241  0.2937 -0.1904 -0.2324
 1471TIP3    H1 4419   3.231   2.228   4.286 -0.0275  2.0376  1.7956
 1471TIP3    H2 4420   3.378   2.219   4.251 -0.5855 -1.4024 -0.0929
 1472TIP3   OH2 4421   3.322   3.209   2.873  0.0626 -0.3721  0.2615
 1472TIP3    H1 4422   3.309   3.119   2.905 -1.7569 -0.5491 -0.8297
 1472TIP3    H2 4423   3.263   3.262   2.926 -1.9078 -0.4639 -1.6940
 1473TIP3   OH2 4424   1.274   4.509   2.853 -0.1545  0.2557  1.1548
 1473TIP3    H1 4425   1.340   4.557   2.903  0.4086  0.8106 -0.0831
 1473TIP3    H2 4426   1.322   4.440   2.809 -0.3471  0.7486  0.1321
 1474TIP3   OH2 4427   4.759   5.558   3.173 -0.1319  0.1960 -0.3648
 1474TIP3    H1 4428   4.690   5.504   3.136 -0.2392  0.5177 -0.6341
 1474TIP3    H2 4429   4.713   5.625   3.224 -0.0408  0.7118 -0.9524
 1475TIP3   OH2 4430   1.557   3.800   0.492  0.0639 -0.2249 -0.5449
 1475TIP3    H1 4431   1.650   3.820   0.502  0.6265 -2.4324 -0.9583
 1475TIP3    H2 4432   1.512   3.880   0.519  2.0001  0.2241  1.5727
 1476TIP3   OH2 4433   2.204   0.566   0.483  0.1757 -0.4139 -0.1073
 1476TIP3    H1 4434   2.121   0.518   0.495 -0.1865 -0.0931 -1.2387
 1476TIP3    H2 4435   2.201   0.596   0.393  0.6808  1.2360  0.3991
 1477TIP3   OH2 4436   2.947   3.120   0.645 -0.3043  0.1282 -0.5268
 1477TIP3    H1 4437   3.034   3.141   0.677  0.3718 -1.9037 -0.8967
 1477TIP3    H2 4438   2.930   3.031   0.676 -2.1017  0.3390 -0.7724
 1478TIP3   OH2 4439   1.781   1.347   2.884  0.0389  0.3758 -0.0694
 1478TIP3    H1 4440   1.719   1.295   2.936  1.6378  0.0913  1.6603
 1478TIP3    H2 4441   1.848   1.374   2.947  1.4195  1.0838 -1.7609
 1479TIP3   OH2 4442   1.010   2.131   4.497 -0.7838 -0.5299 -0.1753
 1479TIP3    H1 4443   1.056   2.091   4.423  1.2635  0.9749  0.1847
 1479TIP3    H2 4444   1.069   2.120   4.571 -1.2324  1.0008  0.4493
 1480TIP3   OH2 4445   0.608   0.122   3.083 -0.1372 -0.4000  0.7373
 1480TIP3    H1 4446   0.610   0.195   3.022  2.7924 -0.4074  0.6858
 1480TIP3    H2 4447   0.555   0.055   3.039 -0.7631  0.7588 -0.3157
 1481TIP3   OH2 4448   5.837   5.904   4.505 -0.2654  0.2744 -0.2924
 1481TIP3    H1 4449   5.856   5.854   4.426  0.1487 -3.9701  2.1665
 1481TIP3    H2 4450   5.908   5.968   4.510  0.4741 -0.2636 -2.6137
 1482TIP3   OH2 4451   4.015   1.331   3.979 -0.2838  0.3631  0.0591
 1482TIP3    H1 4452   3.925   1.359   3.997 -0.3944  0.0015  0.0871
 1482TIP3    H2 4453   4.049   1.303   4.064  0.3780  1.9258  0.3349
 1483TIP3   OH2 4454   3.582   4.167   3.481 -0.7191 -0.3482 -0.1381
 1483TIP3    H1 4455   3.527   4.173   3.403 -0.4143  0.5797 -0.2825
 1483TIP3    H2 4456   3.559   4.245   3.533  0.5661  0.1296 -0.2690
 1484TIP3   OH2 4457   0.988   4.099   0.537  0.4459 -0.6563  0.5458
 1484TIP3    H1 4458   0.946   4.158   0.474 -0.7091 -0.6216  1.3015
 1484TIP3    H2 4459   0.943   4.015   0.524  0.7370 -0.8531  0.8015
 1485TIP3   OH2 4460   1.995   0.036   3.822  0.0456 -0.1164  0.0140
 1485TIP3    H1 4461   2.070   0.048   3.764  1.0740  0.2867  1.3690
 1485TIP3    H2 4462   2.023  -0.032   3.884 -1.5373 -1.5381 -0.7531
 1486TIP3   OH2 4463   1.315   0.663   0.509  0.1982  0.7747  0.3585
 1486TIP3    H1 4464   1.272   0.620   0.583 -0.6009 -0.7040 -0.9049
 1486TIP3    H2 4465   1.358   0.739   0.548 -1.5261  0.9610  2.0859
 1487TIP3   OH2 4466   1.806   0.235   4.782 -0.6040 -0.2353 -0.0379
 1487TIP3    H1 4467   1.788   0.173   4.853 -3.3521  2.4140  1.7977
 1487TIP3    H2 4468   1.886   0.280   4.809  0.1631 -1.3656 -0.3090
 1488TIP3   OH2 4469   0.720   3.374   5.042 -0.1577  0.1309 -0.0189
 1488TIP3    H1 4470   0.708   3.285   5.073  0.7863 -0.2264 -0.6397
 1488TIP3    H2 4471   0.815   3.383   5.030 -0.4537  0.0474 -3.2916
 1489TIP3   OH2 4472   2.432   3.008   2.407 -0.7625  0.3508  0.1408
 1489TIP3    H1 4473   2.365   3.075   2.393 -1.1116  0.1727  0.8901
 1489TIP3    H2 4474   2.496   3.050   2.465 -0.8945  0.0915  0.4731
 1490TIP3   OH2 4475   4.932   5.304   1.307  0.2189  0.7594 -0.1221
 1490TIP3    H1 4476   4.972   5.309   1.220  0.3674  0.6811 -0.0589
 1490TIP3    H2 4477   4.838   5.303   1.290  0.2405  1.0162 -0.2705
 1491TIP3   OH2 4478   0.166   5.172   0.345  0.1412 -0.1814  0.4143
 1491TIP3    H1 4479   0.230   5.230   0.386 -0.7922  0.3006  1.2434
 1491TIP3    H2 4480   0.188   5.085   0.379 -0.2782  0.1323  1.5375
 1492TIP3   OH2 4481   4.460   5.161   1.194 -0.2365  0.0840  0.2774
 1492TIP3    H1 4482   4.369   5.191   1.185 -0.8070 -2.1135 -2.2719
 1492TIP3    H2 4483   4.480   5.118   1.111  3.1317  0.3442  0.8169
 1493TIP3   OH2 4484   0.742   2.491   1.966 -0.2583 -0.6320  0.8337
 1493TIP3    H1 4485   0.802   2.517   2.036  1.4796  0.2665 -0.8900
 1493TIP3    H2 4486   0.767   2.401   1.944  0.6247 -0.1939 -0.0091
 1494TIP3   OH2 4487  -0.009   5.476   4.025  0.0816  0.6173  0.3234
 1494TIP3    H1 4488   0.036   5.425   3.957 -0.9679  1.0656 -0.7521
 1494TIP3    H2 4489   0.024   5.441   4.107 -0.6536 -1.8491 -0.3677
 1495TIP3   OH2 4490   0.175   1.959   4.382 -0.2596 -0.1586 -0.0996
 1495TIP3    H1 4491   0.161   1.922   4.470 -1.6510  0.7602  0.0927
 1495TIP3    H2 4492   0.244   2.025   4.394 -1.1993  0.7320  0.5400
 1496TIP3   OH2 4493   0.596   1.451   3.547  0.1091 -0.0689  0.1355
 1496TIP3    H1 4494   0.509   1.485   3.524  0.0256  0.2066  0.8136
 1496TIP3    H2 4495   0.601   1.464   3.642  1.4086  1.1339 -0.0710
 1497TIP3   OH2 4496   5.422   1.865   1.540  0.6582 -0.2728  0.1110
 1497TIP3    H1 4497   5.464   1.925   1.603  0.9613 -0.8828  0.4969
 1497TIP3    H2 4498   5.445   1.778   1.572  0.6254 -0.5897 -0.7265
 1498TIP3   OH2 4499   3.911   4.252   3.019 -0.3122 -0.3549  0.2754
 1498TIP3    H1 4500   3.908   4.206   3.103 -1.4655  0.7885  0.9152
 1498TIP3    H2 4501   4.004   4.262   3.000  0.0213  0.5120  2.1059
 1499TIP3   OH2 4502   2.158   1.723   0.972 -0.0113 -0.4398 -0.4507
 1499TIP3    H1 4503   2.234   1.779   0.954  0.1325 -0.6969 -0.6477
 1499TIP3    H2 4504   2.148   1.726   1.067 -0.6941  0.8258 -0.5394
 1500TIP3   OH2 4505   2.850   1.553   2.750 -0.2692  0.0354  0.0637
 1500TIP3    H1 4506   2.873   1.461   2.737 -1.0154 -0.2451  0.6471
 1500TIP3    H2 4507   2.771   1.566   2.697  0.2141  0.5361 -0.5635
 1501TIP3   OH2 4508   2.402   3.580   0.423 -0.9613  0.5560  0.0596
 1501TIP3    H1 4509   2.398   3.486   0.406 -2.5362  0.5235  0.4018
 1501TIP3    H2 4510   2.452   3.588   0.504 -0.0809  0.0888 -0.4292
 1502TIP3   OH2 4511   1.762   2.297   1.041 -0.0182  0.3912 -0.2033
 1502TIP3    H1 4512   1.693   2.251   1.090  0.7303 -0.4459  0.0939
 1502TIP3    H2 4513   1.737   2.288   0.950  0.8639 -1.9484 -0.2687
 1503TIP3   OH2 4514   6.340   4.763   4.641  0.3325  0.2866  0.5240
 1503TIP3    H1 4515   6.378   4.823   4.576  1.0104 -0.4839  0.1857
 1503TIP3    H2 4516   6.245   4.776   4.633  0.4693  2.6705  1.7889
 1504TIP3   OH2 4517   2.717   5.163   2.637  0.9143 -0.3522 -0.6500
 1504TIP3    H1 4518   2.727   5.200   2.724  1.7225 -0.3412 -0.7313
 1504TIP3    H2 4519   2.769   5.082   2.640 -0.5192 -1.3131 -0.5813
 1505TIP3   OH2 4520   5.301   2.688   2.457 -0.1822 -0.5277  0.5276
 1505TIP3    H1 4521   5.218   2.654   2.425 -0.4816 -1.0921  1.8354
 1505TIP3    H2 4522   5.363   2.670   2.386 -0.6855 -2.2747  0.4834
 1506TIP3   OH2 4523   1.349   3.659   4.336 -0.3300 -0.2537 -0.2703
 1506TIP3    H1 4524   1.400   3.738   4.357 -0.3574 -0.1203 -0.7002
 1506TIP3    H2 4525   1.259   3.681   4.361 -0.5567  0.3018 -1.5138
 1507TIP3   OH2 4526   4.416   1.155   0.610  0.2405  0.4207 -0.0142
 1507TIP3    H1 4527   4.372   1.207   0.677  0.7241 -1.6731  2.0193
 1507TIP3    H2 4528   4.373   1.181   0.528 -1.3621  1.9972  1.2454
 1508TIP3   OH2 4529   3.908   1.218   0.944 -0.0180 -0.4016 -0.5541
 1508TIP3    H1 4530   3.907   1.311   0.968  0.9644 -0.8360  1.3665
 1508TIP3    H2 4531   3.947   1.216   0.857  0.9661  0.9172 -0.1839
 1509TIP3   OH2 4532   3.468   5.373   0.241 -0.2353  0.2722 -0.2366
 1509TIP3    H1 4533   3.379   5.379   0.208 -0.0442  0.7116 -0.6882
 1509TIP3    H2 4534   3.520   5.344   0.166 -0.1211 -0.8054  0.2380
 1510TIP3   OH2 4535   4.942   1.836   2.317  0.7918  0.0726  0.7559
 1510TIP3    H1 4536   4.904   1.830   2.229  0.4994 -2.4820  0.9602
 1510TIP3    H2 4537   4.874   1.878   2.370 -0.3348 -1.1242  0.3405
 1511TIP3   OH2 4538   3.639   0.792   3.561  0.4555 -0.2789  0.1596
 1511TIP3    H1 4539   3.688   0.874   3.549  0.5786 -0.2856  0.5696
 1511TIP3    H2 4540   3.703   0.732   3.598  0.5060 -0.7322 -0.6566
 1512TIP3   OH2 4541   1.282   4.551   0.169 -0.2658  0.1511  0.1568
 1512TIP3    H1 4542   1.365   4.578   0.129 -1.1769  0.1591 -1.9051
 1512TIP3    H2 4543   1.304   4.478   0.226  1.7768  2.8184  3.1665
 1513TIP3   OH2 4544   0.238   2.050   0.940 -0.6848  0.1183 -0.0147
 1513TIP3    H1 4545   0.325   2.027   0.907  0.2350  2.5811  0.4534
 1513TIP3    H2 4546   0.195   2.092   0.866 -1.7899 -1.6449 -0.4377
 1514TIP3   OH2 4547   6.076   0.470   0.357 -0.2115  0.6738  0.2200
 1514TIP3    H1 4548   6.047   0.485   0.447  0.2197  1.0966  0.2904
 1514TIP3    H2 4549   5.995   0.451   0.309 -0.4008  0.0712  0.7653
 1515TIP3   OH2 4550   1.306   3.322   5.128 -0.4833 -0.1005  0.1428
 1515TIP3    H1 4551   1.259   3.359   5.202 -0.6594  0.2643 -0.1455
 1515TIP3    H2 4552   1.240   3.276   5.077 -1.1937  2.7706 -1.8019
 1516TIP3   OH2 4553   1.992   2.480   5.102 -0.0163 -0.2527 -0.0698
 1516TIP3    H1 4554   1.982   2.510   5.012 -3.6515 -0.3531  0.1458
 1516TIP3    H2 4555   2.062   2.415   5.098  3.7148  3.4181 -1.6767
 1517TIP3   OH2 4556   4.736   1.598   4.791  0.2562 -0.7358 -0.4584
 1517TIP3    H1 4557   4.732   1.692   4.804  0.0602 -0.8238  0.1259
 1517TIP3    H2 4558   4.827   1.575   4.812 -0.0739 -0.8875  0.8784
 1518TIP3   OH2 4559   3.474   1.398   4.573  0.4600  0.5084  0.4093
 1518TIP3    H1 4560   3.473   1.330   4.505 -0.9328  1.4045 -0.5082
 1518TIP3    H2 4561   3.566   1.403   4.600  1.4737  1.4234 -2.7623
 1519TIP3   OH2 4562   4.961   1.157   0.952  0.2303  0.1511  0.0386
 1519TIP3    H1 4563   5.049   1.137   0.984  1.5933  1.6713 -2.4965
 1519TIP3    H2 4564   4.928   1.224   1.012  1.3546  0.5577  0.2161
 1520TIP3   OH2 4565   3.058   4.535   0.896 -0.1786 -0.5157  0.2988
 1520TIP3    H1 4566   3.138   4.483   0.900 -0.0183 -0.2324  1.0470
 1520TIP3    H2 4567   3.086   4.624   0.918 -0.3804 -0.0131 -1.3473
 1521TIP3   OH2 4568   3.935   4.132   1.809  0.3988 -0.2369 -0.1130
 1521TIP3    H1 4569   3.943   4.217   1.852 -1.5502  0.3983 -0.8816
 1521TIP3    H2 4570   3.861   4.089   1.853 -0.1304 -0.5341 -1.2515
 1522TIP3   OH2 4571   1.732   5.148   2.261 -0.0184 -0.3152 -0.0501
 1522TIP3    H1 4572   1.696   5.092   2.192  0.7392  1.4985 -1.9947
 1522TIP3    H2 4573   1.826   5.137   2.254  0.0501 -1.4101  1.8957
 1523TIP3   OH2 4574   4.338   2.793   2.755 -0.0524  0.3586  0.3055
 1523TIP3    H1 4575   4.332   2.739   2.835 -2.4585 -1.7447 -1.1248
 1523TIP3    H2 4576   4.273   2.862   2.769  2.0343  2.1936  1.5427
 1524TIP3   OH2 4577   4.211   5.040   2.864  0.2969 -0.2709 -0.3050
 1524TIP3    H1 4578   4.294   5.021   2.819  0.2697  2.4850 -1.6880
 1524TIP3    H2 4579   4.236   5.093   2.939 -0.1108 -0.6866  0.1320
 1525TIP3   OH2 4580   1.335   1.588   1.781 -0.0160  0.3216  0.0629
 1525TIP3    H1 4581   1.268   1.611   1.716 -1.3489  0.3464  1.3926
 1525TIP3    H2 4582   1.331   1.659   1.845  0.7768 -0.0659  0.5519
 1526TIP3   OH2 4583   1.267   4.150   0.877 -0.2016  0.3635  0.4579
 1526TIP3    H1 4584   1.262   4.141   0.972  1.3807  1.3551  0.6603
 1526TIP3    H2 4585   1.343   4.206   0.861  0.6962 -1.2566 -1.4684
 1527TIP3   OH2 4586   0.534   2.107   1.598  0.6618 -0.0909  0.2482
 1527TIP3    H1 4587   0.446   2.073   1.613  0.5965  0.7438  2.1108
 1527TIP3    H2 4588   0.588   2.029   1.586 -0.0046 -0.7376  1.2236
 1528TIP3   OH2 4589   3.179   3.284   4.110 -0.3338 -0.7620  0.1463
 1528TIP3    H1 4590   3.125   3.261   4.186  0.6562 -2.7238  0.3176
 1528TIP3    H2 4591   3.199   3.377   4.122 -0.1254 -1.0498  2.3384
 1529TIP3   OH2 4592   4.742   3.632   4.582 -0.1855 -0.3664 -0.1091
 1529TIP3    H1 4593   4.674   3.575   4.545 -1.7398  1.6903 -0.5699
 1529TIP3    H2 4594   4.793   3.573   4.638 -1.4414 -2.2983 -0.8524
 1530TIP3   OH2 4595   2.844   1.416  -0.006  0.1704 -0.1196  0.6434
 1530TIP3    H1 4596   2.930   1.378   0.010  0.7878 -0.2217 -2.2976
 1530TIP3    H2 4597   2.852   1.507   0.021  2.4679  0.8643 -2.7447
 1531TIP3   OH2 4598   1.995   3.476   0.587  0.3130  0.8208 -0.2158
 1531TIP3    H1 4599   1.904   3.449   0.574  0.3957  0.9936 -1.2581
 1531TIP3    H2 4600   2.002   3.491   0.681 -0.2630 -0.8627  0.1438
 1532TIP3   OH2 4601   3.774   4.094   0.199  0.1012  0.3906 -0.1872
 1532TIP3    H1 4602   3.720   4.018   0.222 -0.1170  0.1328 -1.4879
 1532TIP3    H2 4603   3.822   4.067   0.121  2.5376  0.4431  1.2159
 1533TIP3   OH2 4604   1.402   0.411   0.420  0.3026 -0.0318 -0.0775
 1533TIP3    H1 4605   1.378   0.502   0.436 -0.1497  0.0485 -1.1221
 1533TIP3    H2 4606   1.401   0.370   0.506  0.3375  0.9033  0.3842
 1534TIP3   OH2 4607   2.455   0.628   0.034  0.0684  0.4704  0.1617
 1534TIP3    H1 4608   2.522   0.563   0.055  0.7913  1.0526 -0.2776
 1534TIP3    H2 4609   2.456   0.633  -0.062 -0.8457  0.2501  0.1300
 1535TIP3   OH2 4610   1.907   2.825   1.583  0.5507 -0.4586  0.3410
 1535TIP3    H1 4611   1.949   2.745   1.615 -2.1628 -1.0897  2.8014
 1535TIP3    H2 4612   1.948   2.895   1.635  1.4896 -0.4790 -0.3464
 1536TIP3   OH2 4613   1.735   4.057   0.831  0.1176  0.4702  0.5985
 1536TIP3    H1 4614   1.771   4.037   0.917  1.3676  0.1991  0.0300
 1536TIP3    H2 4615   1.659   4.113   0.849  0.4739  0.5720  1.8548
 1537TIP3   OH2 4616   6.114   2.547   4.605 -0.1446 -0.1021 -0.1827
 1537TIP3    H1 4617   6.103   2.629   4.558 -0.4458 -0.3200 -0.4992
 1537TIP3    H2 4618   6.205   2.549   4.636 -0.2053  0.4304 -0.0261
 1538TIP3   OH2 4619   4.196   0.231   0.171 -0.4229  0.7386 -0.1337
 1538TIP3    H1 4620   4.234   0.273   0.248 -0.0357  1.3603 -0.6579
 1538TIP3    H2 4621   4.244   0.267   0.097  0.5069 -1.2365 -0.5666
 1539TIP3   OH2 4622   3.813   1.822   3.664 -0.0902  0.1749  0.4391
 1539TIP3    H1 4623   3.810   1.785   3.753 -1.3044  0.5839  0.5793
 1539TIP3    H2 4624   3.736   1.786   3.620 -0.7494  1.7082  0.2641
 1540TIP3   OH2 4625   4.108   1.538   4.451 -0.4098  0.0990  0.4862
 1540TIP3    H1 4626   4.085   1.631   4.447  0.6761  0.3605  0.1198
 1540TIP3    H2 4627   4.046   1.501   4.514  0.4770  1.4992  2.2789
 1541TIP3   OH2 4628   3.312   0.984   0.807 -0.4889  0.5710  0.2535
 1541TIP3    H1 4629   3.369   0.953   0.737 -2.6655  1.0786 -1.8877
 1541TIP3    H2 4630   3.267   0.905   0.838  0.1734  0.4034  0.7914
 1542TIP3   OH2 4631   3.807   3.464   4.778 -0.3549 -0.1730  0.1736
 1542TIP3    H1 4632   3.810   3.483   4.684 -0.3928  0.7455  0.3505
 1542TIP3    H2 4633   3.891   3.497   4.812 -0.1771 -0.8427  0.4093
 1543TIP3   OH2 4634   2.799   1.940   1.283 -0.0147  0.2380  0.1097
 1543TIP3    H1 4635   2.807   1.913   1.192 -1.9943 -2.2810  0.5645
 1543TIP3    H2 4636   2.819   1.861   1.334  1.4285  1.6683  1.9319
 1544TIP3   OH2 4637   5.463   4.512   2.071  0.1946  0.7622  0.4658
 1544TIP3    H1 4638   5.548   4.476   2.096  0.7392 -0.4225 -2.6159
 1544TIP3    H2 4639   5.470   4.605   2.091  2.6934  0.9146 -0.6857
 1545TIP3   OH2 4640   1.548   1.837   1.889  0.1182  0.4659  0.2941
 1545TIP3    H1 4641   1.566   1.912   1.945  1.1754 -0.5496  1.3761
 1545TIP3    H2 4642   1.480   1.788   1.935  1.5672 -0.8078  1.1749
 1546TIP3   OH2 4643   1.611   2.891   2.115  0.4255 -0.1238 -0.1853
 1546TIP3    H1 4644   1.639   2.922   2.202 -1.3833  0.6217  0.1698
 1546TIP3    H2 4645   1.585   2.800   2.130  1.7524 -0.5561 -0.3445
 1547TIP3   OH2 4646   1.801   5.871   4.314  0.3576 -0.3303  0.5251
 1547TIP3    H1 4647   1.755   5.936   4.261 -0.0081 -1.6494 -0.8269
 1547TIP3    H2 4648   1.737   5.843   4.379 -0.5486 -1.5231 -0.8068
 1548TIP3   OH2 4649   4.236   0.842   1.905  0.7588 -0.1475  0.4659
 1548TIP3    H1 4650   4.297   0.889   1.962  0.7699  0.8323 -0.3182
 1548TIP3    H2 4651   4.292   0.794   1.844  0.7798  0.8919 -0.3666
 1549TIP3   OH2 4652   2.966   2.588   3.984 -0.0583 -0.0525 -0.5688
 1549TIP3    H1 4653   2.992   2.583   3.891  2.4980  2.0002 -0.0820
 1549TIP3    H2 4654   3.040   2.549   4.031  0.0042  1.5400  0.7210
 1550TIP3   OH2 4655   2.085   1.670   3.803  0.1460 -0.2062 -0.1677
 1550TIP3    H1 4656   1.998   1.704   3.786 -0.0187 -1.4873 -2.0919
 1550TIP3    H2 4657   2.144   1.734   3.763 -0.0024 -0.4268 -0.7368
 1551TIP3   OH2 4658   4.063   1.965   4.678 -0.2115 -0.2905  0.0628
 1551TIP3    H1 4659   4.112   2.027   4.623 -0.9220 -1.6971 -2.2969
 1551TIP3    H2 4660   3.983   2.012   4.702 -0.5564 -0.1029 -1.3521
 1552TIP3   OH2 4661   0.555   1.951   1.236  0.1965 -1.0999  0.3262
 1552TIP3    H1 4662   0.527   1.883   1.298  1.7762 -1.7314  0.4078
 1552TIP3    H2 4663   0.492   2.022   1.247 -0.7224 -2.0216  1.2031
 1553TIP3   OH2 4664   1.057   2.232   3.395 -0.0455 -0.0849 -0.5631
 1553TIP3    H1 4665   1.149   2.252   3.408  0.0855  0.4972 -2.1430
 1553TIP3    H2 4666   1.010   2.305   3.436  0.1088 -1.0394  1.4177
 1554TIP3   OH2 4667   4.602   5.290   4.214 -0.0179  0.4131  0.1519
 1554TIP3    H1 4668   4.599   5.230   4.289 -0.3161 -0.5778 -0.6175
 1554TIP3    H2 4669   4.536   5.356   4.233 -0.1177  0.1465  0.7508
 1555TIP3   OH2 4670   2.831   2.200   1.838  0.4013 -0.2336 -0.6286
 1555TIP3    H1 4671   2.779   2.174   1.914 -0.3566  0.4301 -0.9099
 1555TIP3    H2 4672   2.769   2.203   1.766  0.9775 -0.1560 -1.1302
 1556TIP3   OH2 4673   0.254   1.126   1.275  0.4743  0.0897 -1.1322
 1556TIP3    H1 4674   0.316   1.053   1.281  1.6225  1.1200  0.6390
 1556TIP3    H2 4675   0.305   1.197   1.235 -0.4833  0.1024 -2.4007
 1557TIP3   OH2 4676   0.699   0.025   5.159  0.3155  0.1141 -0.6126
 1557TIP3    H1 4677   0.781  -0.019   5.137 -0.7674 -2.6261  0.3773
 1557TIP3    H2 4678   0.710   0.054   5.250  0.6388  0.9516 -0.9118
 1558TIP3   OH2 4679   4.489   2.372   1.203  0.0472 -0.2988 -0.0749
 1558TIP3    H1 4680   4.469   2.376   1.297  1.0981  0.5756  0.1256
 1558TIP3    H2 4681   4.575   2.413   1.195 -0.0437 -0.3441 -1.4317
 1559TIP3   OH2 4682   2.473   4.299   0.043 -0.4931  0.8650 -0.7057
 1559TIP3    H1 4683   2.464   4.206   0.021  0.6480  0.8591 -1.2159
 1559TIP3    H2 4684   2.460   4.303   0.137 -0.9175  0.2407 -0.7323
 1560TIP3   OH2 4685   2.686   1.687   4.486  0.7777  0.2088  0.9287
 1560TIP3    H1 4686   2.624   1.697   4.558  0.1132  1.8510  0.1804
 1560TIP3    H2 4687   2.749   1.758   4.498  1.7148 -0.5936  0.8799
 1561TIP3   OH2 4688   0.820   3.264   0.368  0.5237  0.4500  0.6311
 1561TIP3    H1 4689   0.745   3.242   0.312 -0.4711 -0.1410  2.1035
 1561TIP3    H2 4690   0.807   3.356   0.391  1.8778  1.2265 -1.4061
 1562TIP3   OH2 4691   4.519   3.514   1.306 -0.4771 -0.0176  0.1737
 1562TIP3    H1 4692   4.468   3.501   1.226 -0.3573  1.4137 -0.1578
 1562TIP3    H2 4693   4.473   3.584   1.352 -0.5562 -0.8471  1.3856
 1563TIP3   OH2 4694   4.523   3.479   2.795  0.4398  0.1489  0.0539
 1563TIP3    H1 4695   4.552   3.534   2.867 -0.1591  1.0833 -0.3988
 1563TIP3    H2 4696   4.439   3.443   2.823  0.9875 -0.8298  0.4873
 1564TIP3   OH2 4697   4.261   3.408   2.863 -0.2438  0.0954  0.5171
 1564TIP3    H1 4698   4.226   3.483   2.911 -1.6866 -0.8056  0.9463
 1564TIP3    H2 4699   4.223   3.332   2.906  0.5536 -0.8651 -0.4040
 1565TIP3   OH2 4700   5.582   1.358   5.041  0.3500  0.0828 -0.4679
 1565TIP3    H1 4701   5.664   1.331   5.083 -0.4368  0.6410  1.5507
 1565TIP3    H2 4702   5.598   1.447   5.011  0.7914 -0.1639 -0.9670
 1566TIP3   OH2 4703   4.790   2.539   1.108  0.3735 -0.3008 -0.5141
 1566TIP3    H1 4704   4.787   2.489   1.026  0.8159  0.3341 -0.9260
 1566TIP3    H2 4705   4.828   2.478   1.171 -1.4341 -1.3300 -0.3746
 1567TIP3   OH2 4706   1.138   1.959   2.001 -0.6582 -0.0858 -0.8335
 1567TIP3    H1 4707   1.102   1.871   2.012 -1.5870  0.0025 -2.7868
 1567TIP3    H2 4708   1.062   2.017   2.003 -0.0914  0.6598 -0.0030
 1568TIP3   OH2 4709   2.962   4.267   0.338 -0.0275  0.1049 -0.2177
 1568TIP3    H1 4710   2.998   4.327   0.404  0.3965 -0.8955  0.4872
 1568TIP3    H2 4711   2.999   4.298   0.255  1.8164 -0.3473  0.3677
 1569TIP3   OH2 4712   0.763   4.221   0.685 -0.0392 -0.6641  0.3977
 1569TIP3    H1 4713   0.850   4.193   0.712  0.9758  0.7418 -1.2187
 1569TIP3    H2 4714   0.777   4.270   0.604 -2.3296 -0.3196  0.1285
 1570TIP3   OH2 4715   4.141   0.208   1.233 -0.2626  0.0050 -0.5476
 1570TIP3    H1 4716   4.051   0.239   1.243 -0.9102 -1.0756 -2.4169
 1570TIP3    H2 4717   4.135   0.113   1.248  0.4474 -0.1517 -1.1847
 1571TIP3   OH2 4718   4.198   2.613   4.243 -0.1590  0.0703 -0.5601
 1571TIP3    H1 4719   4.106   2.589   4.245  0.0065 -0.6917 -1.3846
 1571TIP3    H2 4720   4.213   2.659   4.326 -1.0173 -0.7839  0.0843
 1572TIP3   OH2 4721   4.165   2.911   4.719  0.6135 -1.0247  0.1134
 1572TIP3    H1 4722   4.075   2.883   4.706  0.4909  0.0455 -1.6034
 1572TIP3    H2 4723   4.161   3.007   4.718  1.5138 -0.9112  2.1459
 1573TIP3   OH2 4724   1.968   3.946   3.248 -1.0300 -0.1368 -0.2809
 1573TIP3    H1 4725   2.029   3.892   3.199  0.4056  1.5518 -0.4568
 1573TIP3    H2 4726   1.993   3.934   3.340 -0.9035  0.0063 -0.2969
 1574TIP3   OH2 4727   1.534   2.977   4.895  0.1156  0.1829 -0.4670
 1574TIP3    H1 4728   1.590   2.950   4.966 -0.4961  0.7752  0.2604
 1574TIP3    H2 4729   1.474   2.903   4.881 -0.5187  0.5124  0.4327
 1575TIP3   OH2 4730   5.384   0.434   3.581  0.0126 -0.2737 -0.4833
 1575TIP3    H1 4731   5.319   0.490   3.537  1.4641  1.4667 -0.5252
 1575TIP3    H2 4732   5.463   0.442   3.527  1.5571  1.1620  1.8643
 1576TIP3   OH2 4733   3.553   0.368   2.383 -0.2099 -0.3861  0.4542
 1576TIP3    H1 4734   3.512   0.411   2.308 -0.2536 -1.3258 -0.0760
 1576TIP3    H2 4735   3.482   0.355   2.445 -0.9518 -2.7614 -0.8007
 1577TIP3   OH2 4736   0.489   5.405   2.120 -0.5292 -0.0217 -0.2708
 1577TIP3    H1 4737   0.437   5.325   2.116 -0.6770  0.0696 -0.2115
 1577TIP3    H2 4738   0.443   5.466   2.062  0.1519 -0.2992 -1.1298
 1578TIP3   OH2 4739   5.367   1.272   4.494 -0.0540 -0.0840  0.2662
 1578TIP3    H1 4740   5.275   1.298   4.491 -0.0343  0.1108  1.0903
 1578TIP3    H2 4741   5.364   1.176   4.501 -0.1539 -0.2115 -1.2429
 1579TIP3   OH2 4742   2.801   0.102   0.809 -0.2639 -0.4108 -0.4677
 1579TIP3    H1 4743   2.863   0.029   0.803  0.4490  0.0370  0.8770
 1579TIP3    H2 4744   2.802   0.141   0.722 -0.7034 -2.0253 -1.2281
 1580TIP3   OH2 4745   3.496   4.853   0.291 -0.5274  0.0234  0.5689
 1580TIP3    H1 4746   3.552   4.880   0.363  0.3922  1.2740 -0.5542
 1580TIP3    H2 4747   3.477   4.760   0.308  1.3161 -0.2421  1.3504
 1581TIP3   OH2 4748   0.559   1.813   4.146  0.0620  0.2648  0.0107
 1581TIP3    H1 4749   0.615   1.875   4.099  2.0257  0.6967  2.6493
 1581TIP3    H2 4750   0.546   1.741   4.085  3.9168 -0.0285 -0.7281
 1582TIP3   OH2 4751   2.644   1.839   3.872  0.1987 -0.0975 -0.1411
 1582TIP3    H1 4752   2.663   1.753   3.910 -1.0701 -0.2611  0.1826
 1582TIP3    H2 4753   2.608   1.890   3.945 -1.0469 -0.0007 -0.7888
 1583TIP3   OH2 4754   0.841   0.309   0.065  0.2814  0.2366  0.6308
 1583TIP3    H1 4755   0.839   0.318  -0.031  0.3777  1.5295  0.7284
 1583TIP3    H2 4756   0.933   0.289   0.085 -0.2709 -3.0997  0.2624
 1584TIP3   OH2 4757   3.164   0.327   2.280  0.3700  0.0758 -0.3601
 1584TIP3    H1 4758   3.121   0.409   2.302  0.3511 -0.2186  0.7739
 1584TIP3    H2 4759   3.106   0.285   2.217  1.3194  1.7737 -2.4908
 1585TIP3   OH2 4760   3.933   5.622   3.981  0.0861 -0.6946 -0.1290
 1585TIP3    H1 4761   3.974   5.581   4.057 -1.4302  0.3292  1.3087
 1585TIP3    H2 4762   3.955   5.715   3.990 -0.6671 -0.4656 -0.5682
 1586TIP3   OH2 4763   5.131   4.409   3.052  0.0834  0.1387  0.1459
 1586TIP3    H1 4764   5.105   4.474   2.987 -1.2281 -0.2102  0.2742
 1586TIP3    H2 4765   5.226   4.404   3.046 -0.0220 -0.0671 -1.9017
 1587TIP3   OH2 4766   5.491   3.610   3.448 -0.3148  0.2283  0.2248
 1587TIP3    H1 4767   5.488   3.530   3.500 -0.7856 -0.1399 -0.3469
 1587TIP3    H2 4768   5.583   3.620   3.424 -0.3823 -0.6917 -0.5071
 1588TIP3   OH2 4769   3.997   0.790   3.417 -0.1174 -0.0486 -1.1249
 1588TIP3    H1 4770   3.982   0.861   3.354  0.4271  1.1392  0.0378
 1588TIP3    H2 4771   4.090   0.770   3.409 -0.0247  0.1828 -0.6095
 1589TIP3   OH2 4772   2.384   0.172   2.757 -0.0010  0.5206  0.1832
 1589TIP3    H1 4773   2.457   0.220   2.795  0.1517 -0.8323  1.7056
 1589TIP3    H2 4774   2.419   0.085   2.739 -0.9954  0.1088  0.1484
 1590TIP3   OH2 4775   2.196   1.570   1.536 -0.7945 -0.2120 -0.4876
 1590TIP3    H1 4776   2.173   1.526   1.454 -0.2029 -0.6020 -0.4532
 1590TIP3    H2 4777   2.277   1.617   1.516  0.3346 -1.7017  0.3011
 1591TIP3   OH2 4778   3.385   5.740   5.071 -0.3324  0.5126 -0.2377
 1591TIP3    H1 4779   3.479   5.732   5.055 -0.0657 -0.9006  1.6139
 1591TIP3    H2 4780   3.344   5.691   5.000  0.4610 -0.4967 -0.0240
 1592TIP3   OH2 4781   1.488   4.820   2.939 -0.0528  0.1533  0.0704
 1592TIP3    H1 4782   1.568   4.850   2.981 -0.0941  2.3461 -1.2732
 1592TIP3    H2 4783   1.517   4.787   2.853 -0.4103 -0.7294  0.2711
 1593TIP3   OH2 4784   1.630   5.364   4.824 -0.0436 -0.0010  1.0128
 1593TIP3    H1 4785   1.643   5.400   4.736 -1.6185 -0.6085  0.4883
 1593TIP3    H2 4786   1.617   5.441   4.879 -1.3026  0.3360  0.2799
 1594TIP3   OH2 4787   5.221   0.470   0.992 -0.1549  0.2647 -0.2557
 1594TIP3    H1 4788   5.149   0.447   0.935 -1.3789  0.9061  0.9709
 1594TIP3    H2 4789   5.222   0.566   0.992  0.9226  0.2716 -0.5122
 1595TIP3   OH2 4790   0.792   3.655   1.210  0.1566  0.1466  0.1828
 1595TIP3    H1 4791   0.728   3.592   1.244  0.4382 -0.5543 -0.5797
 1595TIP3    H2 4792   0.782   3.731   1.268 -1.4696  0.1121 -0.0042
 1596TIP3   OH2 4793   3.259   0.603   0.360  0.1549  0.3023 -0.0827
 1596TIP3    H1 4794   3.330   0.632   0.417 -0.0991  2.7846 -0.8835
 1596TIP3    H2 4795   3.303   0.558   0.288  0.6374 -0.8715  0.9164
 1597TIP3   OH2 4796   2.599   0.358   2.195 -0.8623 -0.0620 -0.2553
 1597TIP3    H1 4797   2.653   0.365   2.274  0.5032  0.4293 -1.1944
 1597TIP3    H2 4798   2.588   0.264   2.182  0.9808 -0.2428 -0.7997
 1598TIP3   OH2 4799   5.234   5.801   1.809 -0.4348  0.7283 -0.3075
 1598TIP3    H1 4800   5.321   5.839   1.817  0.3466 -1.2299  1.5538
 1598TIP3    H2 4801   5.236   5.755   1.725  0.1848  1.0344 -0.4652
 1599TIP3   OH2 4802   1.183   1.511   1.122 -0.4190 -0.0061 -0.6873
 1599TIP3    H1 4803   1.149   1.560   1.047  0.8294  0.2066 -1.1455
 1599TIP3    H2 4804   1.255   1.565   1.155 -0.2126 -0.6535 -0.0598
 1600TIP3   OH2 4805   4.070   1.535   5.074  0.1811  0.3140  0.4236
 1600TIP3    H1 4806   4.130   1.560   5.004  0.2140 -1.0315 -0.0614
 1600TIP3    H2 4807   4.065   1.611   5.131  0.2150  1.4161 -1.0045
 1601TIP3   OH2 4808   5.783   3.672   3.951  0.3261 -0.4157  0.3607
 1601TIP3    H1 4809   5.791   3.582   3.982  2.0834 -1.1912 -2.0278
 1601TIP3    H2 4810   5.869   3.692   3.914 -0.1774  2.0934  0.3825
 1602TIP3   OH2 4811   3.354   1.403   3.468  0.0215 -0.1294  0.4988
 1602TIP3    H1 4812   3.263   1.374   3.472 -0.1793  0.5289  0.9353
 1602TIP3    H2 4813   3.374   1.428   3.558  0.4613  0.2358  0.3006
 1603TIP3   OH2 4814   3.787   0.119   4.643  0.0582 -0.3159  0.4916
 1603TIP3    H1 4815   3.803   0.033   4.682 -0.2759 -0.1323  1.0588
 1603TIP3    H2 4816   3.793   0.180   4.717 -1.4763 -0.0518  0.4383
 1604TIP3   OH2 4817   0.294   5.630   4.336  0.4168 -0.1366  0.3837
 1604TIP3    H1 4818   0.263   5.552   4.291  0.5996 -0.7061  1.2050
 1604TIP3    H2 4819   0.390   5.625   4.330  0.4572 -0.4021  1.1017
 1605TIP3   OH2 4820   3.340   2.655   3.141 -0.0534 -0.1778  0.0709
 1605TIP3    H1 4821   3.394   2.725   3.105  0.1839 -1.1645 -1.5819
 1605TIP3    H2 4822   3.281   2.630   3.070 -0.4718 -1.3191  0.7900
 1606TIP3   OH2 4823   0.341   3.330   3.561  0.2480  0.0105 -0.2837
 1606TIP3    H1 4824   0.364   3.335   3.654 -0.1907 -0.1359 -0.1642
 1606TIP3    H2 4825   0.425   3.331   3.516  0.4418  3.4039 -0.0657
 1607TIP3   OH2 4826   0.601   5.637   1.071 -0.5960  0.3003  0.4659
 1607TIP3    H1 4827   0.644   5.710   1.026  0.0111 -0.4137 -0.1483
 1607TIP3    H2 4828   0.526   5.616   1.016 -0.2711 -0.1023  0.1764
 1608TIP3   OH2 4829   2.238   3.337   1.465 -0.0732  0.0296  0.1289
 1608TIP3    H1 4830   2.267   3.429   1.467 -0.0444  0.0054  1.0174
 1608TIP3    H2 4831   2.215   3.317   1.556  1.9697 -1.4982  0.3832
 1609TIP3   OH2 4832   2.913   2.360   5.043  0.2577  0.1292 -0.8441
 1609TIP3    H1 4833   2.912   2.446   5.001 -0.6805  1.6481  2.0243
 1609TIP3    H2 4834   2.997   2.357   5.089  0.5023 -0.7245 -1.3273
 1610TIP3   OH2 4835   3.415   1.505   0.435 -0.1745 -0.2758 -0.0935
 1610TIP3    H1 4836   3.325   1.516   0.465 -1.3030 -3.7780 -1.7341
 1610TIP3    H2 4837   3.434   1.587   0.389 -0.7810  2.4015  3.8221
 1611TIP3   OH2 4838   6.187   0.155   1.741 -0.1798  0.3568 -0.1169
 1611TIP3    H1 4839   6.246   0.231   1.746  1.4405 -0.8740  0.1897
 1611TIP3    H2 4840   6.142   0.166   1.657  2.1518  0.2187 -1.4881
 1612TIP3   OH2 4841   3.363   0.986   0.444  0.0833 -0.0131  0.0981
 1612TIP3    H1 4842   3.349   0.895   0.468 -0.1779  0.5405  2.2525
 1612TIP3    H2 4843   3.449   1.008   0.481  0.3362  0.5028 -0.7678
 1613TIP3   OH2 4844   6.021   6.005   5.017  0.0194  0.4370 -0.0145
 1613TIP3    H1 4845   6.075   6.009   5.096 -2.1381 -0.2940  1.5877
 1613TIP3    H2 4846   6.047   5.924   4.974  1.4917  1.0385 -0.3047
 1614TIP3   OH2 4847   2.267   3.632   0.757  0.1041 -0.7664 -0.2268
 1614TIP3    H1 4848   2.216   3.637   0.676 -0.0370  1.8157 -0.0823
 1614TIP3    H2 4849   2.201   3.628   0.826  0.1395 -0.0817 -0.1463
 1615TIP3   OH2 4850   4.666   5.593   0.593 -0.0204 -0.2056  0.7689
 1615TIP3    H1 4851   4.650   5.687   0.603  1.3986 -0.0136  1.5579
 1615TIP3    H2 4852   4.674   5.561   0.683 -0.1758 -1.0217  0.4993
 1616TIP3   OH2 4853   2.885   2.276   4.324 -0.7782  0.1436  0.1268
 1616TIP3    H1 4854   2.933   2.358   4.318 -0.9257  0.2380  0.2640
 1616TIP3    H2 4855   2.849   2.275   4.412 -0.9186  0.0106  0.0681
 1617TIP3   OH2 4856   6.113   5.353   1.867  0.1784 -0.0791  0.2153
 1617TIP3    H1 4857   6.147   5.366   1.779 -0.0280  0.9874  0.2798
 1617TIP3    H2 4858   6.033   5.301   1.854 -0.4268  0.9582 -0.3432
 1618TIP3   OH2 4859   0.324   1.726   3.198 -0.7213 -0.5620 -0.1393
 1618TIP3    H1 4860   0.276   1.717   3.116  0.0816 -1.5232 -0.5249
 1618TIP3    H2 4861   0.258   1.709   3.266 -0.7899 -2.7073 -0.6758
 1619TIP3   OH2 4862   1.499   3.567   1.891 -0.1503 -0.4543 -0.0719
 1619TIP3    H1 4863   1.479   3.629   1.821  0.1086  0.2306  0.4474
 1619TIP3    H2 4864   1.437   3.495   1.878 -1.8467  0.8382  0.5205
 1620TIP3   OH2 4865   3.980   2.606   2.514  0.1300  0.3059 -0.2876
 1620TIP3    H1 4866   3.995   2.520   2.474 -1.3964 -0.6525  1.0696
 1620TIP3    H2 4867   3.991   2.590   2.608  0.8398  1.8515 -0.0764
 1621TIP3   OH2 4868   5.713   4.419   2.887  0.3418 -0.2161  0.2336
 1621TIP3    H1 4869   5.636   4.471   2.911  1.2611  1.3553 -0.1366
 1621TIP3    H2 4870   5.716   4.424   2.792  0.6976 -0.5763  0.2257
 1622TIP3   OH2 4871   3.722   2.660   2.879  0.6690  0.0359  0.0038
 1622TIP3    H1 4872   3.789   2.725   2.901 -0.9812  1.2811  1.7034
 1622TIP3    H2 4873   3.668   2.702   2.812  0.0395  0.1274  0.5602
 1623TIP3   OH2 4874   3.573   4.845   2.941  0.0721 -0.5119  0.1138
 1623TIP3    H1 4875   3.633   4.772   2.956  1.0733  0.0370 -1.1215
 1623TIP3    H2 4876   3.494   4.821   2.991  0.1962 -2.6501 -0.6184
 1624TIP3   OH2 4877   2.519   5.713   1.242  0.0019 -0.1745  0.2199
 1624TIP3    H1 4878   2.593   5.669   1.284 -1.2609  0.3023  3.2332
 1624TIP3    H2 4879   2.484   5.647   1.182  1.5741 -1.1787  0.3348
 1625TIP3   OH2 4880   2.724   2.125   0.669  0.1503 -0.0456 -0.0229
 1625TIP3    H1 4881   2.634   2.106   0.641  0.9959 -1.4034 -2.1193
 1625TIP3    H2 4882   2.720   2.213   0.705 -1.8168  0.4132 -1.2060
 1626TIP3   OH2 4883   3.070   5.670   3.258  0.1628  0.4578  0.8255
 1626TIP3    H1 4884   2.997   5.713   3.214  0.0821 -0.4561  0.0297
 1626TIP3    H2 4885   3.131   5.648   3.188  0.9279  0.6812  1.4111
 1627TIP3   OH2 4886   1.145   3.747   0.892  0.4039  0.1353  0.0411
 1627TIP3    H1 4887   1.111   3.678   0.835  0.6698 -0.3007  0.3950
 1627TIP3    H2 4888   1.224   3.778   0.848  0.5345 -0.1060  0.1001
 1628TIP3   OH2 4889   0.554   4.535   4.145  0.8634  0.0288 -0.1258
 1628TIP3    H1 4890   0.475   4.563   4.099  1.8758  1.1993 -1.2251
 1628TIP3    H2 4891   0.569   4.603   4.211  0.7152 -0.4309  0.3914
 1629TIP3   OH2 4892   5.417   0.525   3.846  0.0488  0.4758 -0.2314
 1629TIP3    H1 4893   5.378   0.496   3.763  0.2059 -1.7738  0.4152
 1629TIP3    H2 4894   5.368   0.479   3.914  0.2677  1.8709  0.9295
 1630TIP3   OH2 4895   0.314   2.036   3.508 -0.0702 -0.2188  0.6702
 1630TIP3    H1 4896   0.357   2.067   3.429  0.1020 -1.3510  0.2961
 1630TIP3    H2 4897   0.235   1.992   3.477 -1.9287  2.3690  1.3797
 1631TIP3   OH2 4898   0.672   3.328   1.669 -0.0933 -0.3800 -0.0434
 1631TIP3    H1 4899   0.658   3.237   1.641  1.0144 -0.0626 -1.7833
 1631TIP3    H2 4900   0.762   3.347   1.642  0.1635  0.8239  1.5368
 1632TIP3   OH2 4901   3.008   2.013   4.777  0.3940  0.5904  0.1872
 1632TIP3    H1 4902   3.031   2.095   4.735 -0.7680  0.5265 -0.6010
 1632TIP3    H2 4903   3.091   1.966   4.785  1.0675  1.8185  0.6517
 1633TIP3   OH2 4904   3.932   5.296   3.720 -0.4106 -0.0805 -0.0109
 1633TIP3    H1 4905   3.904   5.387   3.733  0.1669  0.1407 -0.3025
 1633TIP3    H2 4906   3.935   5.260   3.809  0.3840  0.4950  0.2082
 1634TIP3   OH2 4907   5.030   3.117   4.959  0.3660 -0.0955 -0.3218
 1634TIP3    H1 4908   5.112   3.136   4.914  0.6610  0.3424  0.3883
 1634TIP3    H2 4909   5.056   3.074   5.041 -0.0641  0.7373  0.2661
 1635TIP3   OH2 4910   4.462   4.115   2.160  0.0103 -0.2663 -0.0557
 1635TIP3    H1 4911   4.502   4.174   2.224  0.2832  0.8829 -1.2381
 1635TIP3    H2 4912   4.535   4.082   2.108 -0.2324 -0.9891  0.0544
 1636TIP3   OH2 4913   5.102   4.824   3.915  0.6211 -0.2843  0.2031
 1636TIP3    H1 4914   5.152   4.768   3.856  0.6088 -0.2406  0.1515
 1636TIP3    H2 4915   5.135   4.912   3.899  1.1037 -0.3596  0.7573
 1637TIP3   OH2 4916   0.044   5.113   2.889  0.4228 -0.1887  0.0208
 1637TIP3    H1 4917   0.032   5.150   2.802 -1.2520  1.2798  0.8204
 1637TIP3    H2 4918   0.129   5.146   2.918 -0.4691  2.1246  0.2090
 1638TIP3   OH2 4919   2.482   1.063   0.087  0.5543 -0.3140 -0.3964
 1638TIP3    H1 4920   2.544   1.003   0.127 -0.3498 -0.1048  1.4338
 1638TIP3    H2 4921   2.429   1.096   0.161 -1.4821 -0.2270 -1.8010
 1639TIP3   OH2 4922   4.938   3.861   4.475 -0.2789 -0.8478  0.2323
 1639TIP3    H1 4923   4.874   3.847   4.406 -1.7249  1.3136  1.0164
 1639TIP3    H2 4924   4.901   3.817   4.552 -1.1582  0.8354  0.8189
 1640TIP3   OH2 4925   0.657   2.860   3.491  0.2387 -0.5592  0.0315
 1640TIP3    H1 4926   0.703   2.930   3.444  0.0640 -2.2545 -2.9488
 1640TIP3    H2 4927   0.718   2.832   3.559  1.1118  1.1142 -0.0080
 1641TIP3   OH2 4928   3.926   5.886   4.301 -0.0686  0.5149  0.1854
 1641TIP3    H1 4929   3.842   5.931   4.310 -0.1622  0.0604  2.0946
 1641TIP3    H2 4930   3.915   5.806   4.353  1.7835  0.8025  1.0853
 1642TIP3   OH2 4931   5.221   1.219   4.878  0.2479 -0.2336  0.8897
 1642TIP3    H1 4932   5.262   1.148   4.828  2.5051  1.2295  0.5472
 1642TIP3    H2 4933   5.143   1.241   4.828 -0.1473 -1.9858  0.6448
 1643TIP3   OH2 4934   2.740   2.667   2.955  0.5260  0.6456 -0.4408
 1643TIP3    H1 4935   2.820   2.706   2.920  0.5163 -0.3371 -1.6022
 1643TIP3    H2 4936   2.694   2.633   2.878  0.0352 -0.7132  0.4241
 1644TIP3   OH2 4937   3.722   4.074   4.801  0.7887  0.1918  0.2370
 1644TIP3    H1 4938   3.684   3.987   4.805 -0.1703  0.6478  1.9129
 1644TIP3    H2 4939   3.719   4.097   4.708  1.1439 -1.5734 -0.2460
 1645TIP3   OH2 4940   4.995   1.681   1.165  0.1413 -0.1020  0.2455
 1645TIP3    H1 4941   5.037   1.723   1.240 -0.2683 -0.1302  0.4915
 1645TIP3    H2 4942   4.912   1.728   1.154 -0.5239 -1.1049  0.7913
 1646TIP3   OH2 4943   5.918   5.432   5.083 -0.1745 -0.7056 -0.2089
 1646TIP3    H1 4944   5.994   5.386   5.119  0.1437  0.5953  0.9021
 1646TIP3    H2 4945   5.942   5.525   5.088 -1.1057 -0.3516 -1.5933
 1647TIP3   OH2 4946   3.273   4.312   2.084 -0.1031 -0.1294  0.4764
 1647TIP3    H1 4947   3.356   4.341   2.046  0.2394 -1.2278  0.3547
 1647TIP3    H2 4948   3.261   4.223   2.050 -1.8820  0.3957 -0.4137
 1648TIP3   OH2 4949   1.312   2.516   2.346  0.0343  0.2470  0.1710
 1648TIP3    H1 4950   1.368   2.465   2.289 -0.4736  0.7059 -0.7562
 1648TIP3    H2 4951   1.266   2.451   2.399  1.6427 -0.1269  1.1908
 1649TIP3   OH2 4952   5.222   3.077   0.738  0.1776 -0.8085 -0.2286
 1649TIP3    H1 4953   5.295   3.032   0.781 -0.8794 -1.8572  0.5363
 1649TIP3    H2 4954   5.162   3.006   0.713 -1.3511  0.1197  0.6433
 1650TIP3   OH2 4955   3.503   4.505   0.024  0.2397  0.7552  0.5847
 1650TIP3    H1 4956   3.589   4.469   0.049  0.3647  0.9741  0.4704
 1650TIP3    H2 4957   3.465   4.437  -0.033  0.0233  0.3293  1.2307
 1651TIP3   OH2 4958   0.308   3.429   0.983  0.4390 -0.1979 -0.1006
 1651TIP3    H1 4959   0.357   3.470   0.912  2.8336 -0.5162  1.2578
 1651TIP3    H2 4960   0.307   3.495   1.053 -0.5458 -0.4404  0.1332
 1652TIP3   OH2 4961   4.958   1.819   1.986 -0.0668 -0.2591  0.0174
 1652TIP3    H1 4962   4.980   1.730   2.011 -0.5629 -0.5368 -0.5236
 1652TIP3    H2 4963   4.981   1.825   1.893 -0.8514 -0.1015 -0.1760
 1653TIP3   OH2 4964   4.777   3.453   1.709 -0.1709  0.0358  0.4553
 1653TIP3    H1 4965   4.812   3.364   1.710 -0.3078 -0.0331 -0.3066
 1653TIP3    H2 4966   4.814   3.494   1.787 -0.4234 -0.8057  1.0308
 1654TIP3   OH2 4967   3.652   4.323   2.938  0.3905 -0.8128  0.1863
 1654TIP3    H1 4968   3.737   4.304   2.978  0.6164 -1.3092 -0.5147
 1654TIP3    H2 4969   3.674   4.359   2.852 -0.0991 -2.4840 -0.6913
 1655TIP3   OH2 4970   0.763   1.100   0.111 -0.3002  0.4334  0.1049
 1655TIP3    H1 4971   0.841   1.061   0.152 -0.0549 -0.6408 -1.3143
 1655TIP3    H2 4972   0.781   1.194   0.110  1.6284  0.1054 -1.4213
 1656TIP3   OH2 4973   1.477   1.879   1.469 -0.1749 -0.6567 -0.4894
 1656TIP3    H1 4974   1.530   1.903   1.394  1.3013  2.0785  1.2437
 1656TIP3    H2 4975   1.538   1.835   1.529 -1.3042 -2.7186 -0.7584
 1657TIP3   OH2 4976   4.929   4.056   5.061 -0.1359  0.6431 -0.1791
 1657TIP3    H1 4977   4.904   4.068   5.153 -0.6464  0.0530 -0.2335
 1657TIP3    H2 4978   4.863   4.104   5.011 -0.0103  0.7439 -0.2499
 1658TIP3   OH2 4979   1.415   4.096   1.677  0.1179  0.1626  1.1304
 1658TIP3    H1 4980   1.435   4.012   1.635 -1.2811 -0.4115  1.5484
 1658TIP3    H2 4981   1.399   4.073   1.769 -0.5716  0.8370  1.1875
 1659TIP3   OH2 4982   0.595   4.004   0.841 -0.4112  0.1058  0.4087
 1659TIP3    H1 4983   0.590   4.097   0.866 -0.5785  0.7225 -1.6842
 1659TIP3    H2 4984   0.669   4.001   0.780  0.5175 -1.4501  1.5573
 1660TIP3   OH2 4985   1.244   0.350   2.228  0.9420  0.1430 -0.4939
 1660TIP3    H1 4986   1.313   0.411   2.202  0.8686 -0.1628 -1.4615
 1660TIP3    H2 4987   1.280   0.306   2.305  1.3453  0.8037 -0.2935
 1661TIP3   OH2 4988   1.486   5.193   3.429  0.3749  0.4087  0.3013
 1661TIP3    H1 4989   1.415   5.152   3.479  0.0069 -0.3845 -0.8273
 1661TIP3    H2 4990   1.554   5.212   3.494 -1.2081  2.0465  1.5927
 1662TIP3   OH2 4991   2.423   1.574   3.629 -0.1895  0.4145  0.2413
 1662TIP3    H1 4992   2.415   1.656   3.678  2.8794  0.2926  1.1425
 1662TIP3    H2 4993   2.516   1.566   3.610 -0.0244 -3.7233  1.7812
 1663TIP3   OH2 4994   5.714   3.016   2.860 -0.2694 -0.0103 -0.8813
 1663TIP3    H1 4995   5.647   3.006   2.927  0.4516 -0.8869 -0.2785
 1663TIP3    H2 4996   5.783   3.068   2.901 -0.1319  0.0477 -1.1755
 1664TIP3   OH2 4997   0.705   4.114   2.425 -0.0318  0.0125  0.1919
 1664TIP3    H1 4998   0.616   4.082   2.408 -0.1470  1.1059 -1.5177
 1664TIP3    H2 4999   0.694   4.206   2.449  0.6590  0.2898 -0.5222
 1665TIP3   OH2 5000   5.149   3.691   5.141  0.3629 -0.1740  0.3172
 1665TIP3    H1 5001   5.132   3.758   5.208  1.6059 -1.4659  2.0096
 1665TIP3    H2 5002   5.090   3.714   5.069  0.6252  2.6382  0.8818
 1666TIP3   OH2 5003   5.745   1.666   5.013 -0.2207  0.4256 -0.1806
 1666TIP3    H1 5004   5.655   1.678   4.982  0.4401 -1.0737 -2.9317
 1666TIP3    H2 5005   5.800   1.685   4.937  1.5888 -2.2711  0.3082
 1667TIP3   OH2 5006   5.347   5.098   0.904 -0.3472  0.3077 -0.1265
 1667TIP3    H1 5007   5.396   5.123   0.826  1.9253 -1.2666  0.6924
 1667TIP3    H2 5008   5.357   5.003   0.909 -2.0126  0.1436  1.0968
 1668TIP3   OH2 5009   5.524   4.371   1.583  0.1653 -0.1747 -0.5598
 1668TIP3    H1 5010   5.487   4.452   1.617  0.0971  0.3716 -1.8735
 1668TIP3    H2 5011   5.490   4.365   1.494 -0.4388 -2.0541 -0.2365
 1669TIP3   OH2 5012   0.346   5.166   0.072 -0.4467 -0.2558 -0.1291
 1669TIP3    H1 5013   0.402   5.094   0.042  2.2239  1.2132  0.9650
 1669TIP3    H2 5014   0.278   5.123   0.125  0.2731 -2.0613 -0.6025
 1670TIP3   OH2 5015   3.537   5.762   2.893  0.0414 -0.4492 -0.2873
 1670TIP3    H1 5016   3.448   5.770   2.859  0.4401  2.4929 -0.9294
 1670TIP3    H2 5017   3.540   5.824   2.966  1.6701 -0.1136 -0.6071
 1671TIP3   OH2 5018   1.561   0.453   3.821  0.2601  0.5748 -0.2276
 1671TIP3    H1 5019   1.520   0.406   3.893 -1.8525 -0.1214 -1.7792
 1671TIP3    H2 5020   1.567   0.544   3.852 -2.0755  0.6116  0.3067
 1672TIP3   OH2 5021   2.293   2.816   1.308  0.6294  0.4422 -0.7392
 1672TIP3    H1 5022   2.275   2.901   1.348  0.6205  0.4050 -0.6651
 1672TIP3    H2 5023   2.318   2.837   1.218 -0.1903  0.4615 -0.9629
 1673TIP3   OH2 5024   2.437   5.877   3.297  0.7416 -0.3171  0.9826
 1673TIP3    H1 5025   2.422   5.910   3.209  4.5502  1.4276  0.7578
 1673TIP3    H2 5026   2.357   5.899   3.345 -0.2785  1.4567 -1.3160
 1674TIP3   OH2 5027   3.016   0.801   3.679 -0.2648 -0.3031  0.0434
 1674TIP3    H1 5028   3.100   0.828   3.716 -0.0568 -0.8766 -0.0014
 1674TIP3    H2 5029   3.038   0.729   3.620 -0.6193  0.4340 -1.0143
 1675TIP3   OH2 5030   2.963   3.984   1.539  0.0627  0.5909 -0.0808
 1675TIP3    H1 5031   3.049   3.947   1.522 -0.9501 -2.5723  0.8603
 1675TIP3    H2 5032   2.980   4.068   1.581  2.5900  1.4786 -2.5606
 1676TIP3   OH2 5033   2.029   2.064   3.977 -0.3565 -0.2719 -0.3667
 1676TIP3    H1 5034   2.070   2.120   4.044 -0.9253 -0.0125 -0.2258
 1676TIP3    H2 5035   1.942   2.102   3.965  0.5921  1.2947 -3.1591
 1677TIP3   OH2 5036   6.100   3.943   1.767  0.0258 -0.1286 -0.2559
 1677TIP3    H1 5037   6.135   3.998   1.837  0.2009 -0.6569  0.0729
 1677TIP3    H2 5038   6.093   3.856   1.806 -1.2606 -0.1203 -0.4506
 1678TIP3   OH2 5039   3.094   4.800   1.574  0.1234  0.1847  0.1660
 1678TIP3    H1 5040   3.071   4.886   1.538  0.3868  1.0393  1.9086
 1678TIP3    H2 5041   3.070   4.806   1.666  1.5805 -1.0722  0.6728
 1679TIP3   OH2 5042   3.602   0.838   3.950 -0.4772 -0.2026  0.1557
 1679TIP3    H1 5043   3.567   0.855   4.037  0.1628 -1.0108  0.5876
 1679TIP3    H2 5044   3.597   0.743   3.940 -1.9324 -0.0122 -1.3062
 1680TIP3   OH2 5045   3.431   4.519   2.953  0.4316 -0.3420 -0.2551
 1680TIP3    H1 5046   3.525   4.503   2.946  1.2229  1.5435  3.3285
 1680TIP3    H2 5047   3.424   4.613   2.965 -1.8599 -0.5019  0.0803
 1681TIP3   OH2 5048   3.813   3.395   5.153 -0.1790 -0.0780  0.0667
 1681TIP3    H1 5049   3.781   3.426   5.238  1.5318  0.4016  0.5692
 1681TIP3    H2 5050   3.786   3.463   5.091  0.2326  0.5313  0.5467
 1682TIP3   OH2 5051   3.439   2.848   3.551 -0.3485 -0.0636  0.0601
 1682TIP3    H1 5052   3.344   2.839   3.543 -0.3474  1.0764 -1.7871
 1682TIP3    H2 5053   3.450   2.926   3.606 -0.5151  0.2997 -0.4075
 1683TIP3   OH2 5054   4.005   0.322   2.291  0.0912 -0.3551 -0.1965
 1683TIP3    H1 5055   3.967   0.341   2.205  1.0586 -1.4408 -0.8872
 1683TIP3    H2 5056   3.932   0.332   2.352 -0.6698  0.1875 -1.1669
 1684TIP3   OH2 5057   0.811   4.386   1.006  0.0539 -0.5080 -0.1853
 1684TIP3    H1 5058   0.731   4.430   0.979 -1.0798 -3.0424 -1.2695
 1684TIP3    H2 5059   0.802   4.297   0.973  2.1577 -1.6310  1.9257
 1685TIP3   OH2 5060   0.372   0.335   4.261 -0.3598 -0.2147  0.0516
 1685TIP3    H1 5061   0.378   0.269   4.192 -1.3697  0.9521 -1.2100
 1685TIP3    H2 5062   0.359   0.418   4.214  2.0687  1.1097  1.5260
 1686TIP3   OH2 5063   1.538   1.635   3.740  0.4805  0.0179 -0.3241
 1686TIP3    H1 5064   1.561   1.552   3.781  0.9468  1.0063  1.5066
 1686TIP3    H2 5065   1.529   1.697   3.812  1.8573  1.9861 -1.7182
 1687TIP3   OH2 5066   0.183   0.146   2.542  0.4250  0.1021 -0.4769
 1687TIP3    H1 5067   0.155   0.225   2.588 -1.9236 -0.5685 -0.6292
 1687TIP3    H2 5068   0.103   0.112   2.502  1.4541 -2.0901 -0.8213
 1688TIP3   OH2 5069   2.836   0.817   1.297 -0.0927  0.4078  0.7031
 1688TIP3    H1 5070   2.834   0.730   1.337  1.7319 -0.4719 -0.9389
 1688TIP3    H2 5071   2.925   0.826   1.263 -1.0204  1.7133 -1.6587
 1689TIP3   OH2 5072   0.699   1.136   3.188  0.1627  0.0418  0.1541
 1689TIP3    H1 5073   0.790   1.163   3.174  0.2332 -1.0848 -1.8506
 1689TIP3    H2 5074   0.673   1.180   3.269  1.4368  3.0181 -0.9447
 1690TIP3   OH2 5075   5.635   5.233   1.890  0.2064  0.0584  0.1361
 1690TIP3    H1 5076   5.567   5.279   1.842 -0.8801  0.5151  2.0220
 1690TIP3    H2 5077   5.660   5.293   1.960  1.2285 -0.8527  0.5816
 1691TIP3   OH2 5078   0.299   0.928   3.223  0.2109 -0.1757 -0.8319
 1691TIP3    H1 5079   0.366   0.919   3.156  0.2024 -0.5247 -0.7968
 1691TIP3    H2 5080   0.222   0.960   3.176  1.0582  2.5835 -0.5001
 1692TIP3   OH2 5081   1.023   4.712   1.601  0.7177  0.3275 -0.3529
 1692TIP3    H1 5082   1.111   4.748   1.610  0.3894  0.7224  2.2236
 1692TIP3    H2 5083   0.965   4.787   1.614  0.0124 -0.2186 -0.3159
 1693TIP3   OH2 5084   6.106   4.240   0.184 -0.2576  0.0474 -0.0082
 1693TIP3    H1 5085   6.150   4.178   0.126  0.1640 -0.0309  0.3833
 1693TIP3    H2 5086   6.151   4.229   0.268 -0.3030  0.7514  0.1134
 1694TIP3   OH2 5087   2.368   1.147   0.314  0.0818 -0.1006 -0.0047
 1694TIP3    H1 5088   2.339   1.125   0.403  0.4675  0.0829  0.1673
 1694TIP3    H2 5089   2.297   1.201   0.279 -1.1190 -1.9789 -0.6120
 1695TIP3   OH2 5090   2.767   3.084   2.390  0.7840  0.3490 -0.7502
 1695TIP3    H1 5091   2.839   3.030   2.358  0.9928  0.0182  0.2540
 1695TIP3    H2 5092   2.788   3.101   2.482 -1.7458 -2.0616  0.4286
 1696TIP3   OH2 5093   1.951   3.038   2.263 -0.4269  0.2643  0.2101
 1696TIP3    H1 5094   2.007   3.092   2.208 -1.6399 -0.4743 -1.8535
 1696TIP3    H2 5095   1.874   3.094   2.280 -0.5858  0.0665  0.1418
 1697TIP3   OH2 5096   4.786   2.088   1.948  0.0667  0.4066  0.0091
 1697TIP3    H1 5097   4.839   2.101   1.869  1.1632  0.6976  0.7598
 1697TIP3    H2 5098   4.706   2.136   1.932  0.3265  0.5515 -0.8843
 1698TIP3   OH2 5099   5.666   5.099   3.462  0.4685  0.2833  0.2546
 1698TIP3    H1 5100   5.712   5.045   3.398  1.9397  2.2313 -0.4329
 1698TIP3    H2 5101   5.735   5.135   3.517 -0.5021  1.0686  0.9950
 1699TIP3   OH2 5102   3.743   2.639   1.944 -0.0357  0.0353 -0.1097
 1699TIP3    H1 5103   3.787   2.701   2.001 -0.6695  0.2152  0.1935
 1699TIP3    H2 5104   3.692   2.583   2.003 -0.4833  0.0497 -0.4744
 1700TIP3   OH2 5105   3.988   4.170   4.350 -0.5604 -0.4982 -0.0321
 1700TIP3    H1 5106   3.936   4.098   4.315 -0.1587 -1.6750  1.7224
 1700TIP3    H2 5107   4.064   4.176   4.292 -0.7166 -1.3282 -0.3258
 1701TIP3   OH2 5108   6.024   0.820   0.704  0.3413 -0.0682 -0.0418
 1701TIP3    H1 5109   6.010   0.907   0.741 -3.7100  0.9874 -3.3759
 1701TIP3    H2 5110   5.944   0.772   0.724  0.4496 -1.3529 -2.3398
 1702TIP3   OH2 5111   1.761   2.930   1.088 -0.0692 -0.1726  0.6784
 1702TIP3    H1 5112   1.745   2.964   1.176 -1.1971 -1.6241  1.0756
 1702TIP3    H2 5113   1.696   2.861   1.077  0.8443 -0.8385 -0.8400
 1703TIP3   OH2 5114   6.199   0.612   3.182 -0.1502 -0.4671 -0.0877
 1703TIP3    H1 5115   6.156   0.555   3.245  1.5416 -0.1816  1.4057
 1703TIP3    H2 5116   6.293   0.600   3.198  0.3307  3.3561  0.9704
 1704TIP3   OH2 5117   4.892   4.084   4.179 -0.1837  0.5810  0.0233
 1704TIP3    H1 5118   4.845   4.004   4.204 -0.2881  0.3681 -0.8129
 1704TIP3    H2 5119   4.937   4.112   4.259  0.0406 -0.4453  0.2723
 1705TIP3   OH2 5120   1.685   1.540   4.636  0.0661 -0.0360  0.4032
 1705TIP3    H1 5121   1.771   1.563   4.601 -0.1106  0.3119  0.1958
 1705TIP3    H2 5122   1.685   1.577   4.725  1.0459 -2.1123  1.3351
 1706TIP3   OH2 5123   0.721   0.156   0.248  0.3787  0.1994 -0.1616
 1706TIP3    H1 5124   0.727   0.234   0.304 -2.3251  0.8054 -0.5616
 1706TIP3    H2 5125   0.715   0.191   0.159 -0.3318 -0.4875 -0.3890
 1707TIP3   OH2 5126   1.016   3.274   1.880  0.2356 -1.0888  0.5542
 1707TIP3    H1 5127   0.960   3.222   1.938 -0.9194 -0.8905 -0.3187
 1707TIP3    H2 5128   1.038   3.214   1.808 -1.5898 -0.2880 -0.7624
 1708TIP3   OH2 5129   2.630   5.237   0.682 -0.1586 -0.1199 -0.1509
 1708TIP3    H1 5130   2.696   5.170   0.664 -0.6589 -0.7738  0.3517
 1708TIP3    H2 5131   2.645   5.261   0.774 -1.8788 -1.7882  0.6410
 1709TIP3   OH2 5132   4.810   1.575   5.151  0.3439 -0.1021  0.1404
 1709TIP3    H1 5133   4.732   1.582   5.095  0.0679 -1.0416  0.3783
 1709TIP3    H2 5134   4.875   1.532   5.096 -0.1812 -1.7653  0.7299
 1710TIP3   OH2 5135   4.434   2.086   2.407 -0.1489 -0.0817 -0.1406
 1710TIP3    H1 5136   4.453   2.134   2.326  2.5197  0.0432  0.4603
 1710TIP3    H2 5137   4.424   2.155   2.473  0.6095 -0.2621  0.1639
 1711TIP3   OH2 5138   3.753   4.536   3.235  0.2085 -0.4215 -0.1615
 1711TIP3    H1 5139   3.762   4.469   3.304  1.0548  0.4562  0.6101
 1711TIP3    H2 5140   3.660   4.556   3.233  0.1484 -0.5798  0.6178
 1712TIP3   OH2 5141   5.399   2.417   2.638  0.2757 -0.4212  0.1103
 1712TIP3    H1 5142   5.334   2.487   2.627 -0.7744 -1.5655 -1.5304
 1712TIP3    H2 5143   5.352   2.348   2.684  0.8033 -0.6561  0.2984
 1713TIP3   OH2 5144   3.180   5.976   0.418 -0.2351 -0.7795  0.0441
 1713TIP3    H1 5145   3.127   5.899   0.438 -0.7312  0.1907  2.8745
 1713TIP3    H2 5146   3.156   6.040   0.484  1.3041  1.2909 -1.2667
 1714TIP3   OH2 5147   0.720   3.295   3.059 -0.1465 -0.2830 -0.1385
 1714TIP3    H1 5148   0.647   3.328   3.111  0.0477 -0.5769  0.3192
 1714TIP3    H2 5149   0.681   3.229   3.002 -0.2875 -0.2325 -0.1012
 1715TIP3   OH2 5150   0.056   1.298   1.903  0.4170  0.0888  0.3623
 1715TIP3    H1 5151   0.016   1.216   1.875 -0.2744  0.5298  0.0262
 1715TIP3    H2 5152   0.097   1.278   1.987  0.3348 -0.6160  0.2373
 1716TIP3   OH2 5153   3.614   4.407   0.472 -0.3819 -0.2190 -0.0982
 1716TIP3    H1 5154   3.668   4.334   0.443 -1.9923 -2.1154  1.4190
 1716TIP3    H2 5155   3.665   4.448   0.541  0.1524 -0.4552 -0.3466
 1717TIP3   OH2 5156   5.919   3.755   1.090  0.3039 -0.2797  0.0460
 1717TIP3    H1 5157   5.836   3.727   1.130 -0.8432 -0.5943 -2.3649
 1717TIP3    H2 5158   5.984   3.742   1.159 -1.2943 -2.1826  1.3362
 1718TIP3   OH2 5159   5.206   2.762   2.114 -0.1856  0.1563  0.5659
 1718TIP3    H1 5160   5.175   2.750   2.203  0.1199 -0.2159  0.6278
 1718TIP3    H2 5161   5.293   2.798   2.123  0.4159 -1.1908  0.4687
 1719TIP3   OH2 5162   5.409   4.055   0.266  0.1730 -0.6535 -0.2016
 1719TIP3    H1 5163   5.465   4.012   0.331 -0.5125 -0.0631  0.8184
 1719TIP3    H2 5164   5.460   4.055   0.186  0.7164 -2.1707  0.1142
 1720TIP3   OH2 5165   0.503   1.591   0.444 -0.0819 -0.1953 -0.2304
 1720TIP3    H1 5166   0.458   1.514   0.479 -0.1098  0.1106  0.4226
 1720TIP3    H2 5167   0.552   1.558   0.369  1.2518 -1.2083  1.0164
 1721TIP3   OH2 5168   0.807   4.036   1.893 -0.3763  0.2665  0.1707
 1721TIP3    H1 5169   0.871   4.104   1.871 -1.9572  2.0150  0.6993
 1721TIP3    H2 5170   0.780   4.056   1.982  0.0716 -1.8956  0.8435
 1722TIP3   OH2 5171   2.145   3.436   4.004 -0.0255 -0.2706 -0.5873
 1722TIP3    H1 5172   2.173   3.485   4.081  1.2524  0.6370 -1.5902
 1722TIP3    H2 5173   2.182   3.348   4.017  2.2705  0.5349 -1.2394
 1723TIP3   OH2 5174   4.068   3.329   1.516  0.5268  0.4108 -0.1464
 1723TIP3    H1 5175   4.163   3.322   1.511  0.8428  0.6095  3.2241
 1723TIP3    H2 5176   4.048   3.314   1.608 -2.5245  2.5272 -0.3313
 1724TIP3   OH2 5177   2.996   1.469   1.346  0.1268 -0.4860  0.4641
 1724TIP3    H1 5178   3.080   1.435   1.377  0.4101 -0.2577 -0.0529
 1724TIP3    H2 5179   2.999   1.461   1.251  0.3619  1.3326  0.2822
 1725TIP3   OH2 5180   1.096   0.866   5.054  0.1241  0.5000  0.0819
 1725TIP3    H1 5181   1.079   0.843   5.145  1.0451 -0.1702  0.1019
 1725TIP3    H2 5182   1.016   0.841   5.007 -0.0666  0.1336  0.5958
 1726TIP3   OH2 5183   3.633   4.299   1.145  0.0068  0.8325 -0.3390
 1726TIP3    H1 5184   3.700   4.268   1.207 -0.7159  2.2819  1.2434
 1726TIP3    H2 5185   3.566   4.231   1.147  0.6241  0.2077 -0.5938
 1727TIP3   OH2 5186   4.264   3.244   1.149  0.5996 -0.2278  0.3148
 1727TIP3    H1 5187   4.316   3.181   1.098  0.4756 -0.6559  0.7055
 1727TIP3    H2 5188   4.201   3.189   1.196  0.3741  0.2100  0.5214
 1728TIP3   OH2 5189   3.969   2.571   4.402  0.3462  0.7661  0.5928
 1728TIP3    H1 5190   4.030   2.586   4.475  2.2460 -2.2049 -0.2119
 1728TIP3    H2 5191   3.904   2.510   4.436 -1.3603  2.6592  0.9460
 1729TIP3   OH2 5192   3.677   3.504   4.009  0.1540  0.0508  0.3171
 1729TIP3    H1 5193   3.639   3.587   3.981  0.4396  0.8435  2.1215
 1729TIP3    H2 5194   3.603   3.443   4.013 -0.1388  0.3349 -0.5575
 1730TIP3   OH2 5195   1.233   2.091   1.260  0.1954  0.1592  0.3258
 1730TIP3    H1 5196   1.157   2.066   1.313 -0.9545  0.7876 -0.9814
 1730TIP3    H2 5197   1.309   2.068   1.315 -0.8462 -2.3295  0.8545
 1731TIP3   OH2 5198   0.771   5.019   4.698  0.2316  0.3340  0.0913
 1731TIP3    H1 5199   0.798   5.090   4.640  1.0420  0.0790  0.1540
 1731TIP3    H2 5200   0.842   4.955   4.693  0.1829  0.1891  1.1602
 1732TIP3   OH2 5201   1.238   2.444   2.758  0.0675 -0.3431 -0.0563
 1732TIP3    H1 5202   1.185   2.378   2.802  0.1866 -1.0844 -1.0089
 1732TIP3    H2 5203   1.217   2.526   2.804 -0.6970 -0.8895  0.5947
 1733TIP3   OH2 5204   2.188   3.853   4.022  0.0342 -0.7145 -0.2951
 1733TIP3    H1 5205   2.239   3.878   4.098  0.4632 -2.0769 -0.1138
 1733TIP3    H2 5206   2.137   3.777   4.050  0.4149 -1.4179 -1.4311
 1734TIP3   OH2 5207   4.694   4.729   0.360 -0.1186  0.2099  0.2128
 1734TIP3    H1 5208   4.738   4.756   0.279 -0.4610  1.1869  0.3465
 1734TIP3    H2 5209   4.757   4.670   0.402 -0.8815 -2.2805 -1.8912
 1735TIP3   OH2 5210   5.994   5.757   0.563 -0.1437 -0.0704  0.1105
 1735TIP3    H1 5211   6.078   5.802   0.557 -0.7471  1.2441  1.0097
 1735TIP3    H2 5212   6.017   5.664   0.575  1.1326 -0.0022 -1.4780
 1736TIP3   OH2 5213   4.127   5.833   4.947  0.4038 -0.6903  0.1602
 1736TIP3    H1 5214   4.199   5.797   4.896 -0.3234 -2.0582  0.0391
 1736TIP3    H2 5215   4.108   5.764   5.012 -0.8992 -0.4395  0.0628
 1737TIP3   OH2 5216   4.111   5.412   3.345  0.4736  0.5048 -0.5076
 1737TIP3    H1 5217   4.107   5.457   3.261 -1.0984  0.3583 -0.5452
 1737TIP3    H2 5218   4.098   5.481   3.410  0.2300  0.4168 -0.4611
 1738TIP3   OH2 5219   3.518   1.996   1.560  0.8904 -0.9200  0.3169
 1738TIP3    H1 5220   3.588   1.996   1.496  0.3432  1.7135 -0.4081
 1738TIP3    H2 5221   3.457   2.063   1.529 -0.5113 -1.1176  2.4176
 1739TIP3   OH2 5222   2.882   1.048   3.285  0.2677 -0.4880  0.2901
 1739TIP3    H1 5223   2.968   1.072   3.251  0.7709 -1.5037  0.8190
 1739TIP3    H2 5224   2.849   0.982   3.224  0.0199 -0.3716  0.2967
 1740TIP3   OH2 5225   5.172   3.214   1.793 -0.3502 -0.2754  0.1906
 1740TIP3    H1 5226   5.190   3.300   1.831  0.5574 -0.5634  0.4192
 1740TIP3    H2 5227   5.197   3.152   1.860  3.3758 -0.8949 -1.5368
 1741TIP3   OH2 5228   1.773   4.108   0.106 -0.3622  0.6364 -0.0159
 1741TIP3    H1 5229   1.725   4.068   0.033 -0.9018 -0.8638  1.0815
 1741TIP3    H2 5230   1.825   4.177   0.067 -0.9050  0.1024 -1.7589
 1742TIP3   OH2 5231   3.536   0.363   3.358 -0.0786  0.6074  0.4298
 1742TIP3    H1 5232   3.494   0.379   3.274 -1.7502 -0.6470  0.9787
 1742TIP3    H2 5233   3.626   0.391   3.345 -0.3058  0.5024 -1.7549
 1743TIP3   OH2 5234   5.286   3.346   2.722 -0.2409 -0.4532  0.5914
 1743TIP3    H1 5235   5.311   3.437   2.738 -1.6941  0.9419 -3.6303
 1743TIP3    H2 5236   5.369   3.300   2.710  0.4954  0.5887  1.4840
 1744TIP3   OH2 5237   3.831   1.866   0.864  0.5428  0.3247  0.4365
 1744TIP3    H1 5238   3.842   1.891   0.772 -0.9646  1.8906  0.6370
 1744TIP3    H2 5239   3.919   1.874   0.902  1.1187 -0.0231 -0.7780
 1745TIP3   OH2 5240   1.318   1.675   2.292 -0.7395 -0.1102 -0.3075
 1745TIP3    H1 5241   1.380   1.678   2.365  0.3306 -0.5773 -1.1654
 1745TIP3    H2 5242   1.265   1.597   2.309 -2.0182  1.0143  1.1222
 1746TIP3   OH2 5243   3.599   2.750   0.737 -0.7276  0.8251 -0.2282
 1746TIP3    H1 5244   3.567   2.700   0.811 -0.4931 -1.4059 -1.5594
 1746TIP3    H2 5245   3.680   2.790   0.768  0.4995 -1.7799  0.1731
 1747TIP3   OH2 5246   4.490   0.586   2.096  0.0828 -0.2859 -0.5530
 1747TIP3    H1 5247   4.418   0.643   2.122 -0.5999 -0.7736 -1.3190
 1747TIP3    H2 5248   4.562   0.609   2.155 -1.5136 -1.7209  2.1700
 1748TIP3   OH2 5249   0.619   0.361   1.221  0.2063  0.5048  0.1278
 1748TIP3    H1 5250   0.539   0.318   1.252  1.0186 -1.1719  0.0432
 1748TIP3    H2 5251   0.688   0.328   1.280  1.0027  1.1073 -0.4418
 1749TIP3   OH2 5252   3.802   2.920   4.935  0.1852  0.1832 -0.2375
 1749TIP3    H1 5253   3.862   2.968   4.879  0.3237 -0.1797 -0.4047
 1749TIP3    H2 5254   3.716   2.957   4.915  0.0084 -0.9489 -1.8247
 1750TIP3   OH2 5255   3.183   1.432   2.113  0.3003  0.4644 -0.0713
 1750TIP3    H1 5256   3.153   1.345   2.089  0.5616  0.1632  0.6691
 1750TIP3    H2 5257   3.213   1.471   2.031  2.7204 -1.1410 -0.0274
 1751TIP3   OH2 5258   1.061   3.066   2.239  0.1569  0.0977  0.2947
 1751TIP3    H1 5259   1.136   3.023   2.279  1.1475  1.2763 -0.2544
 1751TIP3    H2 5260   1.011   3.101   2.314  0.2090 -0.5589  0.6480
 1752TIP3   OH2 5261   2.552   4.819   4.025 -0.1408 -0.0734 -0.0212
 1752TIP3    H1 5262   2.564   4.731   4.062  0.5320 -0.1949 -0.5134
 1752TIP3    H2 5263   2.641   4.849   4.005 -0.3157  1.0048  0.7864
 1753TIP3   OH2 5264   2.754   2.702   4.276  0.0176  0.2205 -0.2077
 1753TIP3    H1 5265   2.725   2.647   4.203  0.1508 -0.0794 -0.0351
 1753TIP3    H2 5266   2.693   2.776   4.277 -1.9068 -1.3112  1.3225
 1754TIP3   OH2 5267   4.719   1.956   0.181  0.0361  0.2805 -0.0639
 1754TIP3    H1 5268   4.805   1.914   0.176  0.4663  1.1733 -0.4712
 1754TIP3    H2 5269   4.657   1.887   0.160  0.7741  0.0050 -1.4674
 1755TIP3   OH2 5270   6.210   1.910   1.544 -0.3366  0.0843 -0.0730
 1755TIP3    H1 5271   6.160   1.863   1.611  0.3335 -0.5436  0.0004
 1755TIP3    H2 5272   6.229   1.995   1.583 -0.1802 -0.1795  0.4370
 1756TIP3   OH2 5273   6.211   1.743   0.340 -0.3088  0.2369  0.4016
 1756TIP3    H1 5274   6.206   1.654   0.373  2.2538 -0.0326  0.3127
 1756TIP3    H2 5275   6.128   1.784   0.364 -1.9241 -2.3944 -0.3412
 1757TIP3   OH2 5276   6.097   1.484   2.512  0.3334 -0.2528 -0.4814
 1757TIP3    H1 5277   6.182   1.509   2.549 -0.4629  2.9520 -0.4804
 1757TIP3    H2 5278   6.119   1.436   2.432  2.1363  0.3859 -0.4246
 1758TIP3   OH2 5279   5.885   5.932   0.400  0.5548 -0.7450  0.1670
 1758TIP3    H1 5280   5.941   5.869   0.444  0.9905 -0.0430  0.6232
 1758TIP3    H2 5281   5.909   6.017   0.437  1.4987 -0.0146 -1.9536
 1759TIP3   OH2 5282   3.163   1.764   0.806 -0.3566  0.2822  0.2057
 1759TIP3    H1 5283   3.101   1.823   0.763 -1.1921 -0.1090  0.8589
 1759TIP3    H2 5284   3.112   1.686   0.827 -0.2576  0.8324  2.8027
 1760TIP3   OH2 5285   1.573   5.564   1.640  0.2002 -0.0925  0.0392
 1760TIP3    H1 5286   1.635   5.633   1.663  0.4373 -0.2060 -0.2562
 1760TIP3    H2 5287   1.562   5.514   1.721 -1.6637  1.5678  0.9275
 1761TIP3   OH2 5288   4.610   4.922   4.176  0.0314  0.2796 -1.2730
 1761TIP3    H1 5289   4.614   4.981   4.252 -1.1312  1.2569 -1.9226
 1761TIP3    H2 5290   4.595   4.836   4.214  3.1387  0.0923 -0.2073
 1762TIP3   OH2 5291   5.067   0.633   4.902  0.9075  0.3260 -1.1444
 1762TIP3    H1 5292   5.042   0.543   4.880  1.9486  0.0500 -1.2420
 1762TIP3    H2 5293   5.161   0.637   4.885  1.0555  1.1655 -0.2306
 1763TIP3   OH2 5294   2.220   4.578   2.093  0.0125 -0.4473 -0.5687
 1763TIP3    H1 5295   2.283   4.628   2.145 -0.8117  0.7364 -0.6630
 1763TIP3    H2 5296   2.269   4.550   2.016  0.1374  1.4854 -1.2277
 1764TIP3   OH2 5297   1.959   1.401   2.571  0.1504  0.1994 -0.8327
 1764TIP3    H1 5298   1.865   1.412   2.585  0.0647 -0.0491 -1.2121
 1764TIP3    H2 5299   1.966   1.326   2.512  0.6671 -1.1746  0.8619
 1765TIP3   OH2 5300   1.622   0.986   3.620  0.6593 -0.3095 -0.1027
 1765TIP3    H1 5301   1.661   1.033   3.546  2.5049  0.1371  1.0636
 1765TIP3    H2 5302   1.545   1.038   3.643  1.1922  0.6796 -0.4712
 1766TIP3   OH2 5303   3.588   5.595   0.119  0.1554 -0.0207 -0.3926
 1766TIP3    H1 5304   3.670   5.597   0.170 -0.2398  0.7931  0.2418
 1766TIP3    H2 5305   3.536   5.526   0.161 -0.6486  1.4351  1.1383
 1767TIP3   OH2 5306   2.943   2.774   2.818  0.4850 -0.1576  1.1416
 1767TIP3    H1 5307   2.882   2.848   2.810 -1.1749 -1.6000 -0.2967
 1767TIP3    H2 5308   2.984   2.768   2.732  1.0512 -0.5541  1.4357
 1768TIP3   OH2 5309   1.456   2.883   0.922 -0.1847  0.4364 -0.0738
 1768TIP3    H1 5310   1.456   2.876   1.018  0.7671  0.0831 -0.0813
 1768TIP3    H2 5311   1.443   2.976   0.905 -2.6822  0.2270  0.3191
 1769TIP3   OH2 5312   2.891   2.695   4.629 -0.0203  0.1926  0.3192
 1769TIP3    H1 5313   2.795   2.704   4.624  0.0332  0.6861  0.1566
 1769TIP3    H2 5314   2.925   2.766   4.574  0.4448  0.2817  0.7179
 1770TIP3   OH2 5315   5.377   2.115   0.204  0.6582 -0.3498 -0.0521
 1770TIP3    H1 5316   5.326   2.141   0.281  1.2055 -0.3576  0.3226
 1770TIP3    H2 5317   5.416   2.196   0.172  1.7994 -0.5760  0.6995
 1771TIP3   OH2 5318   1.163   3.319   2.549  0.3987  0.0302 -0.0802
 1771TIP3    H1 5319   1.145   3.228   2.528  0.6282  0.4538 -2.4446
 1771TIP3    H2 5320   1.236   3.343   2.492  0.3827  1.6686  0.5334
 1772TIP3   OH2 5321   1.968   1.723   1.603  0.8227  0.2144  0.2987
 1772TIP3    H1 5322   1.957   1.779   1.679 -3.2155 -0.5457  0.4602
 1772TIP3    H2 5323   2.043   1.668   1.625  1.3482  1.7065  2.5799
 1773TIP3   OH2 5324   1.014   4.401   2.635  0.2889 -0.0289 -0.0383
 1773TIP3    H1 5325   0.957   4.440   2.569  0.2706  0.1677  0.0942
 1773TIP3    H2 5326   0.985   4.439   2.718  1.4110  1.0201 -0.0941
 1774TIP3   OH2 5327   4.138   1.187   3.183  0.0987 -0.5670  0.5829
 1774TIP3    H1 5328   4.211   1.215   3.239 -0.9230 -0.9266  2.1693
 1774TIP3    H2 5329   4.172   1.194   3.094  0.9996  2.4007  1.0591
 1775TIP3   OH2 5330   3.264   4.287   0.296  0.4879 -0.0941  0.2428
 1775TIP3    H1 5331   3.347   4.239   0.286  1.4416  1.5774 -0.2979
 1775TIP3    H2 5332   3.263   4.315   0.387  1.4236  1.3821 -0.1655
 1776TIP3   OH2 5333   3.472   0.021   5.030  0.4897 -0.1400 -0.1688
 1776TIP3    H1 5334   3.472   0.090   5.096 -0.4419 -1.3023  1.0926
 1776TIP3    H2 5335   3.433   0.062   4.953 -1.5517  0.3267  1.0481
 1777TIP3   OH2 5336   0.511   3.072   3.348  0.3525 -0.2371  0.1249
 1777TIP3    H1 5337   0.549   3.152   3.384  0.5696  0.4116 -1.4710
 1777TIP3    H2 5338   0.486   3.095   3.258 -0.0570 -1.8150 -0.2025
 1778TIP3   OH2 5339   2.278   0.838   0.505  0.8502  0.1052 -0.4957
 1778TIP3    H1 5340   2.276   0.742   0.509  2.1459  0.0553 -0.4895
 1778TIP3    H2 5341   2.371   0.859   0.502  0.6165  1.4260  0.8394
 1779TIP3   OH2 5342   3.412   1.263   4.340  0.3296  0.2874  0.0787
 1779TIP3    H1 5343   3.455   1.179   4.323 -1.1655 -0.3026 -0.9003
 1779TIP3    H2 5344   3.395   1.300   4.254  1.1756  1.7463  0.4938
 1780TIP3   OH2 5345   2.387   1.898   4.603  0.3093  0.8749  0.0624
 1780TIP3    H1 5346   2.432   1.819   4.634  1.4015  1.1148 -0.8486
 1780TIP3    H2 5347   2.420   1.968   4.659  2.6855  1.4009 -1.8354
 1781TIP3   OH2 5348   2.037   2.900   1.083  0.3505 -0.7897  0.6050
 1781TIP3    H1 5349   2.051   2.868   1.172 -0.1888  1.1799  1.4466
 1781TIP3    H2 5350   1.943   2.912   1.076  0.4144 -0.6445 -0.1411
 1782TIP3   OH2 5351   0.747   2.567   1.131  0.6878 -0.0019 -0.0178
 1782TIP3    H1 5352   0.697   2.491   1.102 -0.5242  1.4414 -2.0577
 1782TIP3    H2 5353   0.755   2.557   1.226 -2.8409 -0.7215  0.3130
 1783TIP3   OH2 5354   0.416   5.195   5.143  0.0301  0.0337  0.2487
 1783TIP3    H1 5355   0.353   5.128   5.169  0.6125 -1.0074 -0.9133
 1783TIP3    H2 5356   0.449   5.165   5.058 -0.0268  2.0332 -0.5293
 1784TIP3   OH2 5357   5.017   3.277   3.170  0.6703 -0.4651  0.1975
 1784TIP3    H1 5358   5.019   3.187   3.138 -0.4903 -0.2318 -0.6074
 1784TIP3    H2 5359   5.089   3.320   3.125  1.1934 -0.9570  0.5384
 1785TIP3   OH2 5360   0.883   2.727   0.190 -0.2813  0.0344 -0.0651
 1785TIP3    H1 5361   0.805   2.776   0.164  0.4324  3.9620  3.8079
 1785TIP3    H2 5362   0.955   2.769   0.142 -0.0900 -0.0081  0.1777
 1786TIP3   OH2 5363   4.508   3.720   2.412  0.7926 -0.4034  0.1291
 1786TIP3    H1 5364   4.520   3.630   2.444 -0.0935 -0.6432 -0.1786
 1786TIP3    H2 5365   4.537   3.775   2.484  0.1668 -0.9421  0.8066
 1787TIP3   OH2 5366   5.918   2.091   4.445 -0.3124  0.4447 -0.7819
 1787TIP3    H1 5367   5.913   2.125   4.535 -1.4301 -0.1936 -0.5831
 1787TIP3    H2 5368   6.003   2.120   4.413 -0.2527  1.3971  0.1971
 1788TIP3   OH2 5369   2.010   1.038   5.047 -0.2848  0.3043  0.1439
 1788TIP3    H1 5370   2.078   1.087   5.095 -1.5664  1.3120  1.0057
 1788TIP3    H2 5371   2.023   1.063   4.956  0.1013  1.0071  0.3782
 1789TIP3   OH2 5372   1.681   1.766  -0.001  0.5227 -0.5764 -0.6192
 1789TIP3    H1 5373   1.689   1.832   0.069 -0.4395  0.1067 -1.1342
 1789TIP3    H2 5374   1.747   1.701   0.021  2.3140  1.0999 -0.7055
 1790TIP3   OH2 5375   4.368   2.476   2.861  0.0144 -0.0011  0.3354
 1790TIP3    H1 5376   4.300   2.478   2.794  1.7631 -0.8436 -1.5986
 1790TIP3    H2 5377   4.358   2.558   2.909 -0.1279  1.5671 -2.2245
 1791TIP3   OH2 5378   1.773   2.841   1.904  0.2961  0.8142  0.4710
 1791TIP3    H1 5379   1.727   2.886   1.975 -0.6427 -0.1186  0.4872
 1791TIP3    H2 5380   1.736   2.878   1.824 -0.5679  0.0176  0.4841
 1792TIP3   OH2 5381   5.615   5.918   4.126  0.0031 -0.2166  0.1218
 1792TIP3    H1 5382   5.700   5.962   4.121 -0.0255 -0.0111  1.1502
 1792TIP3    H2 5383   5.620   5.849   4.060  0.2081  1.0422 -1.2537
 1793TIP3   OH2 5384   3.521   5.354   1.196 -0.2024  0.5927 -0.0949
 1793TIP3    H1 5385   3.457   5.379   1.263  0.1572  3.1638 -0.6316
 1793TIP3    H2 5386   3.496   5.404   1.119 -0.4712 -2.1296 -1.9167
 1794TIP3   OH2 5387   0.677   0.779   0.313  0.1983 -0.5647 -0.2500
 1794TIP3    H1 5388   0.702   0.726   0.237 -0.3183 -0.3640 -0.5626
 1794TIP3    H2 5389   0.719   0.735   0.387  1.4321 -0.2726 -0.7392
 1795TIP3   OH2 5390   0.277   5.103   3.708 -0.0721 -0.3563  0.6616
 1795TIP3    H1 5391   0.239   5.163   3.772  0.4502  0.5716  0.1161
 1795TIP3    H2 5392   0.362   5.141   3.686 -0.3567 -0.4975 -0.7783
 1796TIP3   OH2 5393   2.896   3.036   5.093  0.6539 -0.2843  0.6198
 1796TIP3    H1 5394   2.900   3.125   5.058 -0.2884  0.5984  2.5965
 1796TIP3    H2 5395   2.803   3.016   5.096  0.8669 -1.4076  0.0955
 1797TIP3   OH2 5396   2.222   0.367   2.394 -0.3230  0.3682 -0.0675
 1797TIP3    H1 5397   2.261   0.420   2.463 -1.2381  0.8031  0.1285
 1797TIP3    H2 5398   2.162   0.427   2.349 -0.2071 -0.0822 -0.8395
 1798TIP3   OH2 5399   3.631   5.509   2.028  0.1450  0.0617  0.1522
 1798TIP3    H1 5400   3.601   5.511   1.938 -1.7915  1.3351  0.7624
 1798TIP3    H2 5401   3.697   5.440   2.030 -0.0259 -0.2294 -2.1364
 1799TIP3   OH2 5402   2.652   3.496   4.996 -0.5483  0.1793  0.3592
 1799TIP3    H1 5403   2.685   3.586   4.997 -0.4303  0.1700 -1.3109
 1799TIP3    H2 5404   2.564   3.503   5.032 -1.1069  1.2184 -1.1197
 1800TIP3   OH2 5405   3.620   0.379   0.915 -0.1562  0.2741 -0.1230
 1800TIP3    H1 5406   3.579   0.443   0.974  0.4758 -0.0422  0.6735
 1800TIP3    H2 5407   3.642   0.305   0.972  0.2752 -0.1248 -0.8015
 1801TIP3   OH2 5408   2.396   0.406   1.423 -0.1262  0.1293  0.0269
 1801TIP3    H1 5409   2.336   0.434   1.354 -0.8068 -0.4013  0.3855
 1801TIP3    H2 5410   2.338   0.380   1.495  0.5707  0.7844  0.8394
 1802TIP3   OH2 5411   3.755   4.367   0.116  0.2893  0.5638 -0.4500
 1802TIP3    H1 5412   3.840   4.372   0.073  0.9341  0.7155  0.8055
 1802TIP3    H2 5413   3.750   4.277   0.148  0.6388  0.9485  0.7476
 1803TIP3   OH2 5414   3.030   5.250   4.472 -0.1520 -0.4989  0.9285
 1803TIP3    H1 5415   2.975   5.274   4.397  0.7987  0.5284  0.5420
 1803TIP3    H2 5416   2.985   5.288   4.548 -1.2417 -1.7374  0.9540
 1804TIP3   OH2 5417   1.129   0.466   1.466 -0.2493 -0.6283  0.1312
 1804TIP3    H1 5418   1.071   0.496   1.396  2.1621 -1.2482 -2.3277
 1804TIP3    H2 5419   1.106   0.374   1.479 -2.5432  0.1391  2.2569
 1805TIP3   OH2 5420   6.197   1.608   4.859 -0.1446 -0.2822 -0.4560
 1805TIP3    H1 5421   6.208   1.568   4.772  1.1982 -0.2427 -0.3135
 1805TIP3    H2 5422   6.176   1.534   4.916  0.9199 -0.5877 -0.4562
 1806TIP3   OH2 5423   4.398   2.593   2.583 -0.0919 -0.2218  0.5529
 1806TIP3    H1 5424   4.369   2.681   2.608 -0.0653 -0.2492  0.6814
 1806TIP3    H2 5425   4.467   2.607   2.518 -0.9585 -0.1618 -0.3843
 1807TIP3   OH2 5426   4.741   0.415   4.230  0.2305 -0.2224 -0.1144
 1807TIP3    H1 5427   4.733   0.510   4.236  0.1815 -0.2395  0.1154
 1807TIP3    H2 5428   4.716   0.394   4.140 -0.8560 -0.1296  0.1571
 1808TIP3   OH2 5429   3.983   1.805   2.025 -0.2752  0.0303  0.0839
 1808TIP3    H1 5430   3.917   1.780   1.960  0.4052  0.4146 -0.7845
 1808TIP3    H2 5431   4.055   1.745   2.010 -0.6110 -0.7135  1.3683
 1809TIP3   OH2 5432   4.760   0.742   1.616  0.0133 -0.2281  0.8247
 1809TIP3    H1 5433   4.706   0.665   1.602  1.8981 -1.4425 -0.2039
 1809TIP3    H2 5434   4.698   0.814   1.623 -1.8308 -1.8854  2.4524
 1810TIP3   OH2 5435   4.469   3.272   0.657  0.3372  0.1856  0.5232
 1810TIP3    H1 5436   4.542   3.218   0.690 -0.4433 -0.8359  0.6485
 1810TIP3    H2 5437   4.392   3.218   0.673 -0.4043  1.0825  0.0081
 1811TIP3   OH2 5438   2.973   3.400   0.133  0.0459 -0.0455 -0.5656
 1811TIP3    H1 5439   3.051   3.345   0.126 -0.8511 -1.3186 -0.8968
 1811TIP3    H2 5440   2.977   3.438   0.220  1.4937  0.6435 -0.9003
 1812TIP3   OH2 5441   1.654   4.914   4.721 -0.2516 -0.4919 -0.0548
 1812TIP3    H1 5442   1.685   4.961   4.798  1.6785 -0.0473 -1.0151
 1812TIP3    H2 5443   1.631   4.983   4.658 -0.8645 -0.8443 -0.2261
 1813TIP3   OH2 5444   1.073   4.799   2.916  0.3012 -0.1129 -0.1488
 1813TIP3    H1 5445   1.102   4.815   2.827  0.6307 -0.6907 -0.1532
 1813TIP3    H2 5446   1.154   4.795   2.968  0.2621 -1.6446 -0.1478
 1814TIP3   OH2 5447   1.010   1.715   1.999  0.1753  0.0097 -0.1026
 1814TIP3    H1 5448   1.031   1.641   1.942  0.5980  0.1189 -0.0882
 1814TIP3    H2 5449   0.981   1.675   2.081  2.7599 -0.1751  0.8053
 1815TIP3   OH2 5450   2.795   4.963   3.902  0.0894  0.3570  0.3546
 1815TIP3    H1 5451   2.831   4.982   3.816  2.2567  2.2407  1.5593
 1815TIP3    H2 5452   2.787   5.048   3.945 -0.9796 -0.5111  2.0344
 1816TIP3   OH2 5453   2.475   2.722   3.685 -0.3486 -0.3909  0.3210
 1816TIP3    H1 5454   2.456   2.743   3.777  0.2398  0.7978  0.1954
 1816TIP3    H2 5455   2.564   2.753   3.671  0.4855 -2.7682 -0.0255
 1817TIP3   OH2 5456   4.880   0.817   4.510  0.5005 -0.0720  0.1481
 1817TIP3    H1 5457   4.963   0.801   4.466  1.7449  1.7702  1.6602
 1817TIP3    H2 5458   4.873   0.745   4.574  0.8998 -0.2688 -0.0252
 1818TIP3   OH2 5459   4.578   4.587   0.697 -0.3162  0.1111  0.1483
 1818TIP3    H1 5460   4.532   4.542   0.626 -0.5055  0.7339 -0.1343
 1818TIP3    H2 5461   4.586   4.521   0.766  0.7390 -0.7994 -0.8054
 1819TIP3   OH2 5462   1.592   0.956   4.106 -0.4368  0.3418 -0.6418
 1819TIP3    H1 5463   1.589   1.022   4.036 -2.0522  0.8648 -0.1081
 1819TIP3    H2 5464   1.528   0.985   4.170 -2.0294 -2.2950 -0.8786
 1820TIP3   OH2 5465   3.445   3.054   3.736  0.3932 -0.1690 -0.4354
 1820TIP3    H1 5466   3.482   3.039   3.822 -1.4300 -0.3757  0.3659
 1820TIP3    H2 5467   3.383   3.126   3.749  1.5541  1.1963 -2.0299
 1821TIP3   OH2 5468   1.340   5.690   1.572  0.0706  0.8564  0.3906
 1821TIP3    H1 5469   1.387   5.628   1.628  0.2768  1.4037  0.8290
 1821TIP3    H2 5470   1.266   5.639   1.538  0.3557  0.3091  0.5742
 1822TIP3   OH2 5471   3.320   5.159   1.949  0.3267  0.1363 -0.2169
 1822TIP3    H1 5472   3.249   5.103   1.982  0.0633  0.0744 -0.8818
 1822TIP3    H2 5473   3.284   5.248   1.954  0.0896  0.0810 -0.8139
 1823TIP3   OH2 5474   1.622   0.780   3.123 -0.0587 -0.5477  0.5735
 1823TIP3    H1 5475   1.626   0.738   3.037 -0.7998 -1.0009  0.7582
 1823TIP3    H2 5476   1.656   0.714   3.184 -1.1834 -0.8789  0.8591
 1824TIP3   OH2 5477   4.743   3.923   0.990 -0.2985 -0.3265 -0.2025
 1824TIP3    H1 5478   4.670   3.985   1.000 -0.1482  0.0304 -1.2017
 1824TIP3    H2 5479   4.728   3.857   1.057 -1.0371  0.2394  0.2044
 1825TIP3   OH2 5480   4.971   1.224   0.432 -0.0645  0.1591 -0.0378
 1825TIP3    H1 5481   4.920   1.199   0.354  1.8750  0.7775 -1.5875
 1825TIP3    H2 5482   4.981   1.143   0.480 -1.4614 -0.2111 -0.3047
 1826TIP3   OH2 5483   5.076   2.662   3.945  0.0714 -0.1083  0.2219
 1826TIP3    H1 5484   5.138   2.725   3.982  0.6424 -0.4140 -0.1943
 1826TIP3    H2 5485   5.055   2.603   4.017 -0.3097  0.4282  0.5616
 1827TIP3   OH2 5486   3.836   5.669   3.410  0.4507  0.6176 -0.0503
 1827TIP3    H1 5487   3.839   5.676   3.314  0.8221  0.3878 -0.0595
 1827TIP3    H2 5488   3.928   5.655   3.435  0.3832  0.9091  0.3581
 1828TIP3   OH2 5489   4.914   0.418   1.626 -0.1653  0.4600 -0.3700
 1828TIP3    H1 5490   4.892   0.375   1.544  0.6067 -2.9917  1.0610
 1828TIP3    H2 5491   5.008   0.433   1.622  0.0836 -0.7961  0.2794
 1829TIP3   OH2 5492   1.305   1.436   0.200 -0.0724  0.4542  0.3366
 1829TIP3    H1 5493   1.302   1.490   0.122  2.0982  0.8842  0.5055
 1829TIP3    H2 5494   1.241   1.477   0.260 -1.6532  0.1883 -1.0928
 1830TIP3   OH2 5495   3.458   0.251   5.181 -0.5625  0.4445 -0.0378
 1830TIP3    H1 5496   3.400   0.319   5.215 -0.3781  1.2024 -1.1865
 1830TIP3    H2 5497   3.531   0.298   5.141  1.1769 -0.4995  1.8316
 1831TIP3   OH2 5498   1.046   4.426   4.133 -0.6615  0.9813 -0.1469
 1831TIP3    H1 5499   0.961   4.406   4.095 -1.1577  0.0403  1.3811
 1831TIP3    H2 5500   1.104   4.437   4.057 -1.7007 -0.3348 -1.1840
 1832TIP3   OH2 5501   5.177   0.327   2.375  0.1386  0.2442  0.4493
 1832TIP3    H1 5502   5.115   0.310   2.304 -0.2374  1.0500  0.5700
 1832TIP3    H2 5503   5.161   0.257   2.438 -0.9845  0.6875  0.6877
 1833TIP3   OH2 5504   5.727   4.886   1.313  0.6838  0.1022 -0.5320
 1833TIP3    H1 5505   5.737   4.809   1.258 -0.5704  1.3337 -2.6430
 1833TIP3    H2 5506   5.654   4.934   1.274 -0.2987  1.0891  2.2644
 1834TIP3   OH2 5507   2.090   0.877   1.004  0.2545 -0.3866 -0.0416
 1834TIP3    H1 5508   2.052   0.873   0.917  0.1579 -0.8101  0.0186
 1834TIP3    H2 5509   2.055   0.957   1.042  2.1362  1.0843 -1.2332
 1835TIP3   OH2 5510   0.122   3.043   0.508  0.1770  0.4996 -0.2092
 1835TIP3    H1 5511   0.058   3.107   0.540  0.6211  0.9800 -0.2628
 1835TIP3    H2 5512   0.195   3.049   0.569  0.0951 -0.1857 -0.0372
 1836TIP3   OH2 5513   0.234   1.611   2.607 -0.1751 -0.5324  0.1015
 1836TIP3    H1 5514   0.256   1.530   2.653  1.1140  0.1733  0.8140
 1836TIP3    H2 5515   0.246   1.680   2.674 -2.9133  0.1335  0.0259
 1837TIP3   OH2 5516   4.704   2.171   3.365  0.0123 -0.0303  0.4620
 1837TIP3    H1 5517   4.628   2.178   3.423 -0.1507 -0.2762  0.2850
 1837TIP3    H2 5518   4.764   2.239   3.394 -1.0651  1.4380 -0.5637
 1838TIP3   OH2 5519   4.000   0.527   1.233 -0.0916  0.4721  0.6431
 1838TIP3    H1 5520   3.915   0.566   1.256 -0.1253  0.4996  0.4719
 1838TIP3    H2 5521   3.985   0.433   1.242 -0.3957  0.4259 -0.2277
 1839TIP3   OH2 5522   2.426   0.368   0.569  0.3592  0.2207  0.7540
 1839TIP3    H1 5523   2.360   0.437   0.565 -0.5437 -0.6524  0.1829
 1839TIP3    H2 5524   2.466   0.367   0.482  0.7876  0.3963  0.9403
 1840TIP3   OH2 5525   2.001   2.849   2.057  0.6860  0.3269 -0.6476
 1840TIP3    H1 5526   1.970   2.907   2.126  0.9694 -1.3213  0.9381
 1840TIP3    H2 5527   1.935   2.857   1.988  1.1067  3.0454 -0.8214
 1841TIP3   OH2 5528   4.631   3.846   3.321  0.4435 -0.0508  0.1767
 1841TIP3    H1 5529   4.605   3.907   3.252 -0.6106  1.3621  1.7725
 1841TIP3    H2 5530   4.574   3.770   3.308  2.1442 -1.0810 -2.1680
 1842TIP3   OH2 5531   6.011   5.813   2.146  0.1139 -0.3117  0.4620
 1842TIP3    H1 5532   6.100   5.828   2.179  0.9398  1.1800 -2.1632
 1842TIP3    H2 5533   6.014   5.725   2.108  0.1116 -0.7184  1.3863
 1843TIP3   OH2 5534   2.270   4.456   4.843 -0.2631 -0.4230 -0.1292
 1843TIP3    H1 5535   2.292   4.413   4.760 -1.2036 -0.6464 -0.2688
 1843TIP3    H2 5536   2.346   4.511   4.862  0.3065 -0.9879 -0.7224
 1844TIP3   OH2 5537   5.627   3.084   1.596  0.1591 -0.8240  0.1584
 1844TIP3    H1 5538   5.554   3.134   1.560  0.4705 -0.7884 -0.4404
 1844TIP3    H2 5539   5.625   3.102   1.690 -0.2779 -0.4017  0.0705
 1845TIP3   OH2 5540   3.764   3.749   0.322 -0.5391 -0.0245  0.6014
 1845TIP3    H1 5541   3.824   3.782   0.389 -1.3033  1.6590  0.5279
 1845TIP3    H2 5542   3.677   3.777   0.353 -0.8224  1.7958 -1.5858
 1846TIP3   OH2 5543   5.519   0.979   0.347  0.0402 -0.8773  0.1067
 1846TIP3    H1 5544   5.593   0.918   0.352  0.0409 -0.8739  0.1375
 1846TIP3    H2 5545   5.557   1.060   0.312  0.2292 -0.6003  0.9252
 1847TIP3   OH2 5546   3.458   5.102   2.561  0.4429 -0.2500  0.1731
 1847TIP3    H1 5547   3.513   5.118   2.484 -1.3584 -1.2899 -1.4004
 1847TIP3    H2 5548   3.483   5.015   2.590 -0.6928 -0.9649 -0.8927
 1848TIP3   OH2 5549   3.124   4.103   0.110 -0.2389 -0.0122 -0.1888
 1848TIP3    H1 5550   3.219   4.103   0.108 -0.2525  0.2798 -1.1747
 1848TIP3    H2 5551   3.101   4.024   0.160  0.5184  0.9875  1.8089
 1849TIP3   OH2 5552   1.488   1.744   4.015  0.4109 -0.5307  0.5912
 1849TIP3    H1 5553   1.450   1.828   3.992  0.8603 -0.5565 -0.2857
 1849TIP3    H2 5554   1.412   1.685   4.024  0.1307 -0.1515  0.7416
 1850TIP3   OH2 5555   5.035   2.905   1.767 -0.2776  0.1563 -0.0479
 1850TIP3    H1 5556   5.083   2.984   1.739  0.9464 -0.6352 -0.2355
 1850TIP3    H2 5557   4.986   2.878   1.689 -1.3341  1.1476  0.2351
 1851TIP3   OH2 5558   5.370   1.648   0.017  0.0926 -0.0506 -0.0361
 1851TIP3    H1 5559   5.279   1.675   0.005  0.1457  0.3599  0.4696
 1851TIP3    H2 5560   5.400   1.698   0.092  0.2785 -1.3194  0.7579
 1852TIP3   OH2 5561   4.724   3.991   0.659  0.2514  0.2049 -0.1181
 1852TIP3    H1 5562   4.704   3.903   0.692  0.5947  0.3277  0.4307
 1852TIP3    H2 5563   4.640   4.024   0.626 -0.2781  0.3423  1.2772
 1853TIP3   OH2 5564   2.866   4.179   3.476  0.0386 -0.0032 -0.5231
 1853TIP3    H1 5565   2.813   4.114   3.521  1.5377 -0.8762  0.0136
 1853TIP3    H2 5566   2.836   4.263   3.512  0.4325 -0.6023  1.3008
 1854TIP3   OH2 5567   3.019   1.752   2.489 -0.2290 -0.3545  0.0916
 1854TIP3    H1 5568   3.025   1.770   2.395  0.5548 -3.3677 -0.5209
 1854TIP3    H2 5569   2.928   1.726   2.503 -0.0396 -1.1240 -0.0910
 1855TIP3   OH2 5570   1.320   5.061   2.867  0.1185 -0.4548 -0.1051
 1855TIP3    H1 5571   1.362   4.978   2.889  1.0992 -0.1401 -0.7130
 1855TIP3    H2 5572   1.389   5.127   2.878  0.0296 -0.0148 -1.8055
 1856TIP3   OH2 5573   1.829   3.943   5.164 -0.1186 -0.4350  0.2349
 1856TIP3    H1 5574   1.833   3.848   5.170  0.2934 -0.3839  0.8259
 1856TIP3    H2 5575   1.813   3.961   5.071 -0.3933 -1.0835  0.1545
 1857TIP3   OH2 5576   1.246   0.122   0.125 -0.1366 -0.4563 -0.2084
 1857TIP3    H1 5577   1.331   0.091   0.157 -0.1889 -1.3736 -0.8949
 1857TIP3    H2 5578   1.255   0.217   0.119  0.5275 -0.4573  0.6052
 1858TIP3   OH2 5579   3.618   3.949   3.185 -0.1775 -0.1557  0.0217
 1858TIP3    H1 5580   3.526   3.943   3.157 -0.6201 -1.1712  1.5997
 1858TIP3    H2 5581   3.666   3.899   3.119 -0.9027 -0.6014 -0.1846
 1859TIP3   OH2 5582   4.660   4.826   0.777 -0.4156  0.1223 -0.7016
 1859TIP3    H1 5583   4.635   4.737   0.753 -2.1191  0.1759  0.6460
 1859TIP3    H2 5584   4.639   4.833   0.871  0.7367  1.5987 -0.5053
 1860TIP3   OH2 5585   2.114   1.958   0.736 -0.2970  0.0708 -0.1187
 1860TIP3    H1 5586   2.186   2.006   0.778  1.0060 -1.5359 -0.3903
 1860TIP3    H2 5587   2.059   2.026   0.698 -0.0564  1.4544  1.8387
 1861TIP3   OH2 5588   1.358   1.522   4.055 -0.5292 -0.1676  0.2280
 1861TIP3    H1 5589   1.314   1.508   4.138 -2.0290  1.8583 -0.1489
 1861TIP3    H2 5590   1.451   1.509   4.075 -0.7567  1.0526  2.4319
 1862TIP3   OH2 5591   2.744   2.578   3.391  0.0100  0.3228 -0.2693
 1862TIP3    H1 5592   2.681   2.627   3.338 -1.2781 -0.8574  0.1068
 1862TIP3    H2 5593   2.773   2.640   3.458 -1.2844  0.7156 -0.0428
 1863TIP3   OH2 5594   5.895   4.702   5.159  0.1580 -0.1708 -0.1949
 1863TIP3    H1 5595   5.924   4.739   5.076 -1.4216  0.4376 -0.5238
 1863TIP3    H2 5596   5.808   4.740   5.173  0.0239 -0.9352  1.3099
 1864TIP3   OH2 5597   5.472   5.862   4.354 -0.0105 -0.2204  0.4504
 1864TIP3    H1 5598   5.518   5.900   4.429 -0.9448  0.8754  0.4982
 1864TIP3    H2 5599   5.528   5.884   4.279 -0.2343  0.7601  0.5509
 1865TIP3   OH2 5600   0.394   1.659   3.587  0.1287 -0.6686  0.1202
 1865TIP3    H1 5601   0.452   1.728   3.553  0.5592 -1.1854 -0.2034
 1865TIP3    H2 5602   0.341   1.633   3.512 -0.4382 -0.2942  0.3820
 1866TIP3   OH2 5603   5.767   0.632   4.103  0.3630  0.3924 -0.1718
 1866TIP3    H1 5604   5.755   0.594   4.016  2.7950  0.5629 -0.6696
 1866TIP3    H2 5605   5.857   0.609   4.127 -0.1620  0.5691  2.2075
 1867TIP3   OH2 5606   3.027   2.053   5.053  0.3726  0.3144 -0.0760
 1867TIP3    H1 5607   3.017   2.048   4.958  0.4035 -0.6553 -0.0382
 1867TIP3    H2 5608   3.077   2.133   5.068  0.6003  0.3314 -0.8953
 1868TIP3   OH2 5609   6.221   4.723   2.397  0.2481  0.4395  0.0118
 1868TIP3    H1 5610   6.236   4.715   2.303  0.5986 -0.9090  0.1658
 1868TIP3    H2 5611   6.126   4.730   2.406 -0.0039 -1.9249 -0.3149
 1869TIP3   OH2 5612   3.363   1.845   3.565 -0.2918  0.6098 -0.1655
 1869TIP3    H1 5613   3.396   1.935   3.571  1.3851  0.0996 -1.0917
 1869TIP3    H2 5614   3.344   1.833   3.471  0.9935 -0.4884 -0.2987
 1870TIP3   OH2 5615   1.096   0.588   0.713 -0.2035 -0.4505 -0.3905
 1870TIP3    H1 5616   1.038   0.650   0.758  0.8484  0.1113  0.2333
 1870TIP3    H2 5617   1.126   0.529   0.782  0.5943 -0.2409 -0.5490
 1871TIP3   OH2 5618   2.906   0.064   1.468  0.5321 -0.0862 -0.5436
 1871TIP3    H1 5619   2.851   0.140   1.449  1.2693  0.9122  1.0649
 1871TIP3    H2 5620   2.847   0.002   1.511  0.9040  1.8452  3.2066
 1872TIP3   OH2 5621   3.816   3.428   4.242  0.3839 -0.4383  0.7360
 1872TIP3    H1 5622   3.775   3.461   4.162  2.1701 -1.9290 -0.8643
 1872TIP3    H2 5623   3.825   3.334   4.227  1.6174 -0.5986  2.3005
 1873TIP3   OH2 5624   6.101   5.565   2.030  0.1380  0.5405  0.7079
 1873TIP3    H1 5625   6.133   5.532   2.114  0.0946  0.7414  0.8052
 1873TIP3    H2 5626   6.112   5.492   1.969  1.4688  0.8322  0.5689
 1874TIP3   OH2 5627   4.744   0.602   1.330 -0.1721  0.3755 -0.4662
 1874TIP3    H1 5628   4.708   0.691   1.326  0.6154  0.8880  1.9714
 1874TIP3    H2 5629   4.838   0.614   1.328 -0.0603 -0.5496 -1.5757
 1875TIP3   OH2 5630   4.340   1.836   1.832  0.0194  0.3855 -0.1486
 1875TIP3    H1 5631   4.403   1.907   1.846 -0.4739  0.8232 -0.1356
 1875TIP3    H2 5632   4.286   1.866   1.759 -0.2991  0.0938 -0.0347
 1876TIP3   OH2 5633   2.363   4.874   0.882  0.0961  0.2348 -0.3706
 1876TIP3    H1 5634   2.404   4.789   0.866  0.6267  0.4619 -0.2278
 1876TIP3    H2 5635   2.325   4.867   0.969  0.8591  0.4197 -0.0183
 1877TIP3   OH2 5636   6.114   4.656   3.477  0.0983 -0.0201 -0.6022
 1877TIP3    H1 5637   6.195   4.608   3.456  0.2952 -0.3585  0.8656
 1877TIP3    H2 5638   6.088   4.695   3.393  1.5270 -0.2844 -1.2072
 1878TIP3   OH2 5639   5.359   0.757   4.145 -0.0440 -0.2980 -0.0633
 1878TIP3    H1 5640   5.274   0.731   4.108 -0.7840  1.7334  0.0763
 1878TIP3    H2 5641   5.400   0.674   4.172 -2.1605 -1.2945  0.2813
 1879TIP3   OH2 5642   3.776   2.204   1.568  0.5112  0.8125  0.2901
 1879TIP3    H1 5643   3.727   2.219   1.649 -1.7730 -1.0725 -0.6297
 1879TIP3    H2 5644   3.730   2.255   1.501 -0.3131 -1.0183 -0.6039
 1880TIP3   OH2 5645   2.669   3.355   4.157  0.2674 -0.0058 -0.7659
 1880TIP3    H1 5646   2.591   3.305   4.179  0.0333  1.0851  1.1055
 1880TIP3    H2 5647   2.738   3.317   4.212  0.4782  0.6106 -0.5985
 1881TIP3   OH2 5648   3.258   1.423   1.365  0.5212  0.2847 -0.0770
 1881TIP3    H1 5649   3.324   1.484   1.332  1.0238  0.2081  0.7437
 1881TIP3    H2 5650   3.295   1.336   1.346  0.3528  0.2417 -0.2046
 1882TIP3   OH2 5651   1.392   1.310   2.753 -0.2178 -0.0031 -1.2995
 1882TIP3    H1 5652   1.302   1.298   2.782  0.1849 -2.2891 -0.7576
 1882TIP3    H2 5653   1.391   1.279   2.662  0.1297 -0.6878 -1.0774
 1883TIP3   OH2 5654   1.152   1.761   0.990  0.1841 -0.0258 -0.2388
 1883TIP3    H1 5655   1.151   1.828   1.058  1.0619  0.3845 -0.6162
 1883TIP3    H2 5656   1.062   1.758   0.957  0.2120  1.2209 -0.4617
 1884TIP3   OH2 5657   3.340   1.052   4.032 -0.3161  0.1143 -0.1660
 1884TIP3    H1 5658   3.271   1.026   4.093 -0.7104 -1.8490 -1.3914
 1884TIP3    H2 5659   3.349   1.147   4.047 -2.7970  0.3272  0.5032
 1885TIP3   OH2 5660   1.412   5.556   0.079 -0.5360  0.4141  0.5333
 1885TIP3    H1 5661   1.473   5.509   0.022  0.2072  2.4027 -0.4231
 1885TIP3    H2 5662   1.390   5.493   0.148 -0.5691 -1.7029 -1.2860
 1886TIP3   OH2 5663   0.414   1.745   0.665 -0.6198  0.4878  0.1141
 1886TIP3    H1 5664   0.434   1.836   0.645 -3.3549  1.0476 -0.4654
 1886TIP3    H2 5665   0.440   1.697   0.586 -1.6518  1.1977 -0.6880
 1887TIP3   OH2 5666   5.811   3.344   3.067 -0.1117 -0.4319 -0.2732
 1887TIP3    H1 5667   5.724   3.304   3.070 -1.0546  1.5268 -0.0798
 1887TIP3    H2 5668   5.866   3.278   3.024 -1.6552 -1.7481 -0.3151
 1888TIP3   OH2 5669   2.468   3.892   1.478  0.4245  0.2696  0.2033
 1888TIP3    H1 5670   2.538   3.931   1.531  1.1379  0.9691 -1.1817
 1888TIP3    H2 5671   2.501   3.897   1.388 -1.1496  0.0375 -0.4190
 1889TIP3   OH2 5672   5.785   4.116   2.822  0.0598  0.1264  0.0925
 1889TIP3    H1 5673   5.873   4.120   2.783  0.1433  0.3416  0.2985
 1889TIP3    H2 5674   5.728   4.090   2.749  0.4386 -1.0611  0.1957
 1890TIP3   OH2 5675   3.016   2.755   4.217 -0.3232  0.0066 -0.5511
 1890TIP3    H1 5676   3.001   2.721   4.129  0.1574  0.0058 -0.6379
 1890TIP3    H2 5677   2.931   2.751   4.259 -0.1906 -1.7457 -0.4013
 1891TIP3   OH2 5678   5.930   5.917   0.838  0.1412  0.1610  0.0865
 1891TIP3    H1 5679   5.980   5.925   0.756 -0.3794  1.7676 -0.1242
 1891TIP3    H2 5680   5.889   5.831   0.832  1.0677 -0.2498 -0.7845
 1892TIP3   OH2 5681   1.304   0.572   4.804  0.3427 -0.4441 -0.3218
 1892TIP3    H1 5682   1.223   0.622   4.793 -1.5182 -2.3856  2.8751
 1892TIP3    H2 5683   1.369   0.637   4.830 -0.7139  0.8843 -0.8729
 1893TIP3   OH2 5684   4.274   2.775   3.458  0.2495 -0.4359 -0.3499
 1893TIP3    H1 5685   4.356   2.780   3.507  0.1627  2.2645 -0.3188
 1893TIP3    H2 5686   4.209   2.748   3.522  0.6094  0.4297  0.4051
 1894TIP3   OH2 5687   4.096   5.928   4.539 -0.3265  0.0291  0.3244
 1894TIP3    H1 5688   4.123   5.855   4.483 -2.2474 -0.5157  0.0379
 1894TIP3    H2 5689   4.038   5.980   4.484 -0.8636  0.4541  1.2734
 1895TIP3   OH2 5690   2.984   2.263   0.857  0.7522  0.0575  0.0825
 1895TIP3    H1 5691   2.940   2.251   0.772 -2.8575  1.1054  1.5997
 1895TIP3    H2 5692   3.065   2.309   0.835  1.5454 -2.4427 -3.0229
 1896TIP3   OH2 5693   2.701   3.980   1.589 -0.3870 -0.6079  0.1703
 1896TIP3    H1 5694   2.702   4.020   1.676  0.6487  0.0146 -0.1129
 1896TIP3    H2 5695   2.789   3.996   1.554 -1.4799  1.3679 -1.9797
 1897TIP3   OH2 5696   3.009   4.101   0.739  0.0570  0.5268 -0.3086
 1897TIP3    H1 5697   2.938   4.049   0.702 -0.3608  0.0101  1.1498
 1897TIP3    H2 5698   2.978   4.192   0.734 -0.7904  0.2940  0.4317
 1898TIP3   OH2 5699   3.910   2.245   4.328 -0.2132 -0.6639 -0.2540
 1898TIP3    H1 5700   3.993   2.204   4.352  0.2181  0.1636 -0.3380
 1898TIP3    H2 5701   3.876   2.281   4.410 -0.8380 -1.5948 -0.0820
 1899TIP3   OH2 5702   4.872   1.314   1.950 -0.3125 -0.6404 -0.4208
 1899TIP3    H1 5703   4.950   1.302   1.896 -1.0314 -0.2789 -1.5864
 1899TIP3    H2 5704   4.813   1.243   1.924 -0.2968 -1.0529  0.6187
 1900TIP3   OH2 5705   3.850   3.803   3.681  0.6225  0.4889 -0.2590
 1900TIP3    H1 5706   3.822   3.844   3.600  1.1256  0.8881 -0.2310
 1900TIP3    H2 5707   3.794   3.726   3.689  0.5950  0.4268 -0.9970
 1901TIP3   OH2 5708   3.213   6.004   4.963  0.0138  0.2457 -0.3648
 1901TIP3    H1 5709   3.246   5.947   4.894  0.0827 -1.3436  0.9083
 1901TIP3    H2 5710   3.118   6.003   4.954  0.0299  0.1493 -0.5095
 1902TIP3   OH2 5711   1.066   0.413   1.030 -0.3443 -0.1018  0.1014
 1902TIP3    H1 5712   1.032   0.351   1.095  1.8574 -1.0139  0.4728
 1902TIP3    H2 5713   1.080   0.494   1.079  0.7921 -0.6254  0.6764
 1903TIP3   OH2 5714   1.672   4.636   3.635 -0.1727  0.5352 -0.4862
 1903TIP3    H1 5715   1.604   4.636   3.702 -0.9620  0.9811 -1.2669
 1903TIP3    H2 5716   1.748   4.675   3.679 -0.6449  0.7443  0.1756
 1904TIP3   OH2 5717   2.043   5.059   1.211 -0.4371 -0.2040  0.6614
 1904TIP3    H1 5718   1.992   5.009   1.275  1.2530  0.5703  2.7267
 1904TIP3    H2 5719   2.021   5.150   1.230  1.4074  0.1342  1.4276
 1905TIP3   OH2 5720   2.330   2.250   3.674  0.9043 -0.0617 -0.2251
 1905TIP3    H1 5721   2.321   2.309   3.599 -2.9315 -0.7657 -0.5524
 1905TIP3    H2 5722   2.322   2.307   3.750 -0.2511  0.1624 -0.4944
 1906TIP3   OH2 5723   5.471   0.885   1.348 -0.1913 -0.0150  0.3066
 1906TIP3    H1 5724   5.525   0.925   1.416  1.4688  1.2830 -1.6555
 1906TIP3    H2 5725   5.505   0.796   1.340  2.2909  0.9835 -1.3694
 1907TIP3   OH2 5726   2.092   3.354   4.362 -0.8725 -0.3994  0.4463
 1907TIP3    H1 5727   2.129   3.366   4.450 -0.3579  0.9670  0.0750
 1907TIP3    H2 5728   2.044   3.436   4.346  1.0162  0.4215 -1.4713
 1908TIP3   OH2 5729   0.911   4.129   2.666 -0.5566 -0.6738 -0.2084
 1908TIP3    H1 5730   0.946   4.211   2.632 -1.1824  0.0149  0.7725
 1908TIP3    H2 5731   0.896   4.075   2.588 -1.9238  0.8381 -1.0487
 1909TIP3   OH2 5732   4.082  -0.033   0.099  0.1646  0.3987 -0.0706
 1909TIP3    H1 5733   3.999   0.013   0.087  0.2190  0.3943 -0.5064
 1909TIP3    H2 5734   4.148   0.031   0.074  0.1900 -0.2961 -1.9912
 1910TIP3   OH2 5735   2.476   5.794   0.854  0.0039 -0.3347 -0.6701
 1910TIP3    H1 5736   2.417   5.734   0.810 -0.7997  1.5362 -2.3250
 1910TIP3    H2 5737   2.420   5.843   0.915  0.1466  0.3349 -1.0659
 1911TIP3   OH2 5738   5.787   2.003   2.003 -0.1021 -0.4387  0.4810
 1911TIP3    H1 5739   5.866   1.991   2.056 -0.8641  2.6736  2.5732
 1911TIP3    H2 5740   5.814   2.062   1.933 -0.5318  0.7864  1.3104
 1912TIP3   OH2 5741   3.547   0.319   4.048  0.2011  0.1675  0.7620
 1912TIP3    H1 5742   3.478   0.383   4.068  0.1472 -0.0404  1.2599
 1912TIP3    H2 5743   3.505   0.234   4.058 -0.0178  0.0364 -0.9348
 1913TIP3   OH2 5744   0.318   5.293   3.261  0.3903  0.0485 -0.7469
 1913TIP3    H1 5745   0.372   5.325   3.189  0.7240  0.0130 -0.5100
 1913TIP3    H2 5746   0.364   5.217   3.295 -1.1687 -1.6953 -2.3085
 1914TIP3   OH2 5747   1.217   0.748   2.822  0.2408  0.4706 -0.2544
 1914TIP3    H1 5748   1.221   0.841   2.846 -0.5630  0.1078  1.4772
 1914TIP3    H2 5749   1.265   0.704   2.891 -0.9078 -0.5411 -0.0724
 1915TIP3   OH2 5750   0.774   2.766   2.699  0.3564  0.1205 -0.0398
 1915TIP3    H1 5751   0.801   2.749   2.790 -1.4651  1.3080  0.7816
 1915TIP3    H2 5752   0.707   2.700   2.682  1.1466 -0.5082 -0.7773
 1916TIP3   OH2 5753   2.745   5.866   3.494  0.7933  0.5855  0.1291
 1916TIP3    H1 5754   2.732   5.783   3.449  1.5917 -0.9230  2.4721
 1916TIP3    H2 5755   2.762   5.929   3.424  1.8120 -1.5475 -1.6635
 1917TIP3   OH2 5756   6.368   5.980   2.884  0.3800 -0.0291 -0.0178
 1917TIP3    H1 5757   6.397   5.901   2.838  0.6953 -0.0401  0.1973
 1917TIP3    H2 5758   6.276   5.988   2.862  0.8072  0.6894 -1.7084
 1918TIP3   OH2 5759   3.097   0.653   4.014 -0.1589 -0.0605 -0.1057
 1918TIP3    H1 5760   3.048   0.636   3.934 -2.1238  0.5019  0.9061
 1918TIP3    H2 5761   3.060   0.593   4.078  1.0077 -0.1163  0.5408
 1919TIP3   OH2 5762   1.576   5.647   4.256  0.1912  0.6395  0.7621
 1919TIP3    H1 5763   1.657   5.643   4.306  1.2892 -0.1462 -0.9784
 1919TIP3    H2 5764   1.590   5.718   4.193  0.2514 -0.5904 -0.6711
 1920TIP3   OH2 5765   0.574   1.724   0.892  0.9370  0.2833  0.2608
 1920TIP3    H1 5766   0.517   1.721   0.815  2.7574  1.9962 -1.2660
 1920TIP3    H2 5767   0.546   1.804   0.938 -0.1408 -0.7312  1.4302
 1921TIP3   OH2 5768   1.672   5.079   1.423  0.2135  0.0505 -0.1795
 1921TIP3    H1 5769   1.666   5.051   1.331 -1.0854  1.2497 -0.4933
 1921TIP3    H2 5770   1.750   5.034   1.456  1.7054  0.8792 -2.3317
 1922TIP3   OH2 5771   1.878   4.821   3.689  0.1702 -0.2522  0.0049
 1922TIP3    H1 5772   1.839   4.907   3.708  0.3592 -0.2959  0.6109
 1922TIP3    H2 5773   1.948   4.812   3.754 -0.5688 -1.3562  0.6617
 1923TIP3   OH2 5774   3.886   0.725   4.119 -0.3662 -0.0787  0.3109
 1923TIP3    H1 5775   3.925   0.775   4.191  1.3856  0.4139 -0.9071
 1923TIP3    H2 5776   3.827   0.664   4.161  0.4524  0.3404  2.1515
 1924TIP3   OH2 5777   4.409   0.582   4.893 -0.1268  0.4497 -0.4873
 1924TIP3    H1 5778   4.440   0.526   4.821  3.8375  1.6132  0.0909
 1924TIP3    H2 5779   4.454   0.549   4.971 -1.6862  1.3373  0.8600
 1925TIP3   OH2 5780   1.668   3.482   2.140  0.3156 -0.6977 -0.2916
 1925TIP3    H1 5781   1.641   3.455   2.228  1.4696 -1.6389 -0.1992
 1925TIP3    H2 5782   1.596   3.537   2.109 -0.9515 -1.7932  0.5474
 1926TIP3   OH2 5783   5.869   1.376   3.761 -1.0741  0.1713 -0.3792
 1926TIP3    H1 5784   5.826   1.350   3.843 -3.4690  1.1512 -1.2410
 1926TIP3    H2 5785   5.936   1.438   3.788 -1.5848  0.2190  0.8793
 1927TIP3   OH2 5786   3.005   4.461   2.270  0.3338  0.0203 -0.0172
 1927TIP3    H1 5787   3.092   4.500   2.257 -0.4715  1.7459 -0.5680
 1927TIP3    H2 5788   2.947   4.536   2.282 -1.0451 -1.1075  0.7056
 1928TIP3   OH2 5789   3.508   2.500   4.241 -0.6244 -0.2040  0.2250
 1928TIP3    H1 5790   3.433   2.441   4.233 -0.7682 -0.0092  0.1259
 1928TIP3    H2 5791   3.566   2.475   4.169  0.0927 -1.3297  1.1474
 1929TIP3   OH2 5792   2.826   4.815   3.382 -0.2839 -0.0204 -0.0628
 1929TIP3    H1 5793   2.804   4.827   3.290  1.7130  0.3657 -0.5393
 1929TIP3    H2 5794   2.894   4.880   3.400 -1.6053  0.8807  2.0872
 1930TIP3   OH2 5795   2.128   1.198   0.795 -0.1044  0.0935 -0.6022
 1930TIP3    H1 5796   2.055   1.254   0.772 -0.5484 -0.4228 -0.4768
 1930TIP3    H2 5797   2.183   1.252   0.852  0.3944  0.9828 -1.8830
 1931TIP3   OH2 5798   6.260   4.208   4.183  0.7718  0.2941 -0.0066
 1931TIP3    H1 5799   6.206   4.283   4.207  0.6979  0.2768 -0.1213
 1931TIP3    H2 5800   6.260   4.207   4.088 -0.8506 -1.0080 -0.0507
 1932TIP3   OH2 5801   5.521   4.600   5.109 -0.2350 -0.1229 -0.1937
 1932TIP3    H1 5802   5.452   4.575   5.170  0.4518  1.1721  1.1770
 1932TIP3    H2 5803   5.515   4.537   5.038 -2.8201 -0.0390 -0.1194
 1933TIP3   OH2 5804   5.945   4.802   2.357 -0.2826 -0.1330 -0.0548
 1933TIP3    H1 5805   5.873   4.746   2.327 -0.5499 -0.6576  1.4472
 1933TIP3    H2 5806   5.925   4.889   2.323 -1.1901 -0.4521 -0.3495
 1934TIP3   OH2 5807   0.645   5.926   1.040 -0.2231  0.6233 -0.4235
 1934TIP3    H1 5808   0.580   5.958   1.103  1.3510  1.6885  0.7088
 1934TIP3    H2 5809   0.637   5.985   0.965 -0.0301  1.2205  0.0263
 1935TIP3   OH2 5810   2.648   4.790   2.837 -0.1273 -0.2614  0.4102
 1935TIP3    H1 5811   2.563   4.833   2.831  0.0810  0.1586  0.4497
 1935TIP3    H2 5812   2.702   4.834   2.772 -0.5815 -2.0600 -1.2602
 1936TIP3   OH2 5813   6.005   0.168   4.638 -0.3449  0.2955  0.1368
 1936TIP3    H1 5814   6.044   0.116   4.708 -1.5693 -0.9446 -0.0615
 1936TIP3    H2 5815   5.916   0.187   4.668 -1.2244 -1.0651 -1.4413
 1937TIP3   OH2 5816   0.879   5.960   3.671 -0.4441 -0.4913  0.2401
 1937TIP3    H1 5817   0.804   5.932   3.724 -2.1662  2.1671 -0.6197
 1937TIP3    H2 5818   0.895   6.051   3.697  1.2620 -0.3714 -1.0057
 1938TIP3   OH2 5819   2.531   5.815   0.255  0.4782  0.2222 -0.4709
 1938TIP3    H1 5820   2.444   5.854   0.262  0.4758  0.4489 -1.5641
 1938TIP3    H2 5821   2.531   5.771   0.170  0.8898 -1.1522  0.2093
 1939TIP3   OH2 5822   0.003   0.678   4.807  0.4827 -0.2603 -1.1487
 1939TIP3    H1 5823   0.070   0.610   4.799  0.1878 -0.6477 -0.4566
 1939TIP3    H2 5824   0.017   0.735   4.731  1.4479 -0.4570 -1.1343
 1940TIP3   OH2 5825   5.742   1.338   3.320  0.0810  0.6786  0.3987
 1940TIP3    H1 5826   5.806   1.283   3.366 -1.3747 -0.3966  1.2078
 1940TIP3    H2 5827   5.688   1.375   3.389 -0.2948  1.4285 -0.2829
 1941TIP3   OH2 5828   3.862   0.290   1.241 -0.9057  0.0831 -0.5301
 1941TIP3    H1 5829   3.837   0.248   1.323 -0.0798  1.7373  0.6451
 1941TIP3    H2 5830   3.780   0.321   1.203 -1.3541 -1.2223 -0.6447
 1942TIP3   OH2 5831   6.115   2.727   1.478 -0.4480 -0.1957  0.0218
 1942TIP3    H1 5832   6.159   2.648   1.447 -0.3657 -0.0527 -0.2277
 1942TIP3    H2 5833   6.024   2.715   1.452 -0.3241  0.0529 -0.5286
 1943TIP3   OH2 5834   0.962   0.348   2.336 -0.2466  0.1396  0.0578
 1943TIP3    H1 5835   1.047   0.391   2.346 -0.7876  1.0402  0.8594
 1943TIP3    H2 5836   0.984   0.256   2.317  0.9128  0.1244  1.3146
 1944TIP3   OH2 5837   0.757   2.057   3.138  0.3279  0.0546  0.0029
 1944TIP3    H1 5838   0.668   2.031   3.164  1.1455 -4.9378 -1.0998
 1944TIP3    H2 5839   0.801   2.077   3.221 -0.9887 -0.8022  0.9556
 1945TIP3   OH2 5840   4.390   1.835   4.787  0.2575  0.0511 -0.2190
 1945TIP3    H1 5841   4.359   1.749   4.816 -1.3714 -0.0771 -2.1386
 1945TIP3    H2 5842   4.330   1.897   4.827 -0.4682  0.0518 -1.2923
 1946TIP3   OH2 5843   5.519   3.782   3.678  0.3368 -0.0324 -0.3342
 1946TIP3    H1 5844   5.520   3.728   3.599  2.1355  2.5333 -2.2337
 1946TIP3    H2 5845   5.609   3.778   3.711  0.2620  0.9870  0.0357
 1947TIP3   OH2 5846   2.580   1.731   1.645  0.0534  0.3625  0.1339
 1947TIP3    H1 5847   2.665   1.687   1.639  0.0259  0.3435 -0.1463
 1947TIP3    H2 5848   2.525   1.671   1.696  0.1935  0.3496  0.2691
 1948TIP3   OH2 5849   0.344   2.325   2.095 -0.3639  0.4864  0.1970
 1948TIP3    H1 5850   0.408   2.309   2.164 -0.9221 -0.4902  0.5091
 1948TIP3    H2 5851   0.395   2.327   2.014  0.0543 -0.2940  0.4396
 1949TIP3   OH2 5852   0.639   1.596   4.928 -0.3045  0.2178 -0.3078
 1949TIP3    H1 5853   0.612   1.624   5.016 -0.2083 -0.0043 -0.2079
 1949TIP3    H2 5854   0.559   1.605   4.875  0.2311  2.8018 -0.7987
 1950TIP3   OH2 5855   4.563   3.004   1.282 -0.3755  0.1596 -0.0434
 1950TIP3    H1 5856   4.486   2.946   1.288 -0.5226  0.4638  1.3157
 1950TIP3    H2 5857   4.628   2.952   1.236 -1.4331 -0.0618 -1.3429
 1951TIP3   OH2 5858   4.941   3.806   1.215 -0.4706 -0.0832  0.0698
 1951TIP3    H1 5859   5.004   3.746   1.255  0.8861 -0.4419 -2.4147
 1951TIP3    H2 5860   4.855   3.769   1.237  0.2517 -1.2742  1.0094
 1952TIP3   OH2 5861   4.669   2.795   4.788 -0.6874  0.0044 -0.0811
 1952TIP3    H1 5862   4.683   2.774   4.695 -0.3368 -1.7899  0.3412
 1952TIP3    H2 5863   4.752   2.776   4.830 -1.2278 -0.4524  0.8054
 1953TIP3   OH2 5864   4.688   3.671   1.162  0.1705 -0.2940  0.0621
 1953TIP3    H1 5865   4.705   3.593   1.109  1.5222 -0.0837  0.1490
 1953TIP3    H2 5866   4.625   3.643   1.228 -2.2734 -0.3358 -2.1568
 1954TIP3   OH2 5867   5.789   2.278   4.241 -0.6949  0.0325  0.2446
 1954TIP3    H1 5868   5.787   2.184   4.257  0.0944 -0.0801 -0.2601
 1954TIP3    H2 5869   5.837   2.314   4.316 -0.1671 -0.0818 -0.0332
 1955TIP3   OH2 5870   5.791   5.189   2.814  0.5856  0.2769  0.2391
 1955TIP3    H1 5871   5.850   5.185   2.889 -1.4176  0.7122  1.9183
 1955TIP3    H2 5872   5.755   5.100   2.807 -0.0552  0.5071  0.5177
 1956TIP3   OH2 5873   5.289   2.980   0.305  0.0107  0.7067  0.2399
 1956TIP3    H1 5874   5.239   2.901   0.327  0.6094 -0.3881 -2.0372
 1956TIP3    H2 5875   5.230   3.031   0.249  0.9208  0.0035 -1.4235
 1957TIP3   OH2 5876   2.308   1.208   4.061 -0.6871  0.7787  0.1637
 1957TIP3    H1 5877   2.245   1.192   4.131  0.3001  0.3084  0.9727
 1957TIP3    H2 5878   2.278   1.154   3.988 -0.5061 -0.4739  0.9863
 1958TIP3   OH2 5879   3.970   3.809   1.317 -0.0682  0.4922 -0.1152
 1958TIP3    H1 5880   4.003   3.774   1.399  1.3575  1.7575 -0.1032
 1958TIP3    H2 5881   3.974   3.904   1.328  0.5865  0.6994 -1.7829
 1959TIP3   OH2 5882   5.179   5.479   3.957  0.0792 -0.1785 -0.2240
 1959TIP3    H1 5883   5.146   5.509   4.041 -0.8210 -1.3282 -0.1499
 1959TIP3    H2 5884   5.121   5.407   3.932  0.1117  0.3355 -1.9781
 1960TIP3   OH2 5885   1.837   3.984   4.281  0.4653  0.0600 -0.4478
 1960TIP3    H1 5886   1.785   4.022   4.351  1.1832 -0.9139  0.6628
 1960TIP3    H2 5887   1.845   4.053   4.216 -0.1187  1.0307  0.4855
 1961TIP3   OH2 5888   1.540   2.146   1.643  0.4712  0.1257  0.5756
 1961TIP3    H1 5889   1.480   2.132   1.716 -0.2965 -0.4286 -0.1408
 1961TIP3    H2 5890   1.595   2.068   1.642  0.4311  0.0979  0.5202
 1962TIP3   OH2 5891   1.493   0.241   2.661  0.6027 -0.4088  0.3040
 1962TIP3    H1 5892   1.482   0.152   2.695  0.3485 -0.4078  0.2292
 1962TIP3    H2 5893   1.576   0.271   2.698  1.0616 -0.9502 -0.2630
 1963TIP3   OH2 5894   3.003   3.013   1.743  0.4868  0.1489  0.1589
 1963TIP3    H1 5895   2.989   3.022   1.649 -0.8665 -0.8590  0.2242
 1963TIP3    H2 5896   2.924   3.049   1.783  2.4507  3.9105  1.1728
 1964TIP3   OH2 5897   6.102   0.215   1.494 -0.3976 -0.3091 -0.0536
 1964TIP3    H1 5898   6.073   0.301   1.465 -1.3410 -0.4707  0.3706
 1964TIP3    H2 5899   6.024   0.159   1.486  0.5386 -1.4780 -1.6684
 1965TIP3   OH2 5900   4.602   1.679   4.189  0.0653  0.1573  0.3800
 1965TIP3    H1 5901   4.683   1.633   4.166  0.6903  0.6165  1.5597
 1965TIP3    H2 5902   4.534   1.612   4.182  0.4529 -0.0936 -1.1651
 1966TIP3   OH2 5903   5.297   5.196   4.556  0.9681  0.1690 -0.2026
 1966TIP3    H1 5904   5.295   5.100   4.564  1.8273  0.1195 -0.4516
 1966TIP3    H2 5905   5.379   5.221   4.597  1.3535  0.6811 -1.2482
 1967TIP3   OH2 5906   0.036   3.993   2.665 -0.2807  0.1696 -0.0505
 1967TIP3    H1 5907   0.077   4.043   2.735 -0.0906  0.8538 -0.6422
 1967TIP3    H2 5908  -0.000   4.059   2.606 -0.1910 -0.3928 -0.7476
 1968TIP3   OH2 5909   2.673   0.240   4.513  0.3112  0.0808  0.2492
 1968TIP3    H1 5910   2.696   0.167   4.456 -2.1427 -1.4201  1.0491
 1968TIP3    H2 5911   2.724   0.226   4.593 -2.2395 -2.5727  1.5807
 1969TIP3   OH2 5912   6.131   2.930   0.137  0.3513  0.8185  0.9989
 1969TIP3    H1 5913   6.129   2.968   0.050 -0.3210 -0.9514  0.1958
 1969TIP3    H2 5914   6.212   2.963   0.176  3.1027 -1.8260 -1.9445
 1970TIP3   OH2 5915   4.738   4.941   1.936  0.6584 -0.7769  0.4285
 1970TIP3    H1 5916   4.806   5.003   1.960  0.1938 -0.4300  0.8763
 1970TIP3    H2 5917   4.770   4.900   1.855  1.2079 -0.3343  0.4159
 1971TIP3   OH2 5918   4.349   0.125   1.992  0.2749 -0.6784  0.2443
 1971TIP3    H1 5919   4.353   0.036   2.027 -0.0396 -1.1318 -0.8182
 1971TIP3    H2 5920   4.261   0.133   1.955 -0.1591  0.5354  1.4689
 1972TIP3   OH2 5921   2.890   3.907   4.152  0.3123  0.4335  0.0667
 1972TIP3    H1 5922   2.817   3.954   4.192 -0.7731 -0.9404 -0.1966
 1972TIP3    H2 5923   2.849   3.829   4.114  2.3090 -2.4605  3.2324
 1973TIP3   OH2 5924   1.619   4.443   0.680  0.6278 -0.5148  0.3848
 1973TIP3    H1 5925   1.652   4.507   0.742 -1.0618  1.2156 -0.3869
 1973TIP3    H2 5926   1.648   4.475   0.594  0.3517 -1.1647  0.0378
 1974TIP3   OH2 5927   3.841   4.326   2.444 -0.0037  0.3216 -0.6850
 1974TIP3    H1 5928   3.897   4.314   2.367 -1.3285 -1.2860 -1.4722
 1974TIP3    H2 5929   3.807   4.238   2.462  0.2780  0.6312  1.7927
 1975TIP3   OH2 5930   5.467   4.018   4.127  0.8932 -0.3521 -0.1355
 1975TIP3    H1 5931   5.526   3.983   4.060  1.3188 -1.3218  0.7159
 1975TIP3    H2 5932   5.523   4.077   4.178  0.1034  1.9217 -1.7573
 1976TIP3   OH2 5933   6.112   3.700   4.331 -0.3874 -0.5069 -0.1060
 1976TIP3    H1 5934   6.169   3.778   4.331  0.9605 -1.4389 -1.0573
 1976TIP3    H2 5935   6.085   3.690   4.422 -0.1232  0.7420  0.1284
 1977TIP3   OH2 5936   4.959   2.877   3.363  0.7294 -0.2992 -0.0472
 1977TIP3    H1 5937   5.006   2.928   3.297 -0.3835 -0.0840 -0.6957
 1977TIP3    H2 5938   4.949   2.936   3.437  1.3271 -0.2980  0.0413
 1978TIP3   OH2 5939   2.611   0.551   2.685 -0.7573 -0.0140  0.5239
 1978TIP3    H1 5940   2.613   0.629   2.740 -0.2229  0.6035 -0.3495
 1978TIP3    H2 5941   2.702   0.533   2.665 -0.9436 -0.2192 -0.1744
 1979TIP3   OH2 5942   1.627   2.389   1.873 -0.4787 -0.3048  0.2883
 1979TIP3    H1 5943   1.679   2.453   1.921 -0.5736 -0.2060  0.2587
 1979TIP3    H2 5944   1.688   2.350   1.810 -0.7910  0.8723 -0.7838
 1980TIP3   OH2 5945   5.634   1.380   4.354 -0.7160  0.3329 -0.0843
 1980TIP3    H1 5946   5.597   1.435   4.285  0.7625  1.0901 -0.3121
 1980TIP3    H2 5947   5.558   1.341   4.397 -1.7755  2.0165 -0.3465
 1981TIP3   OH2 5948   4.124   4.323   2.589 -0.2481 -0.5194 -0.5793
 1981TIP3    H1 5949   4.125   4.233   2.555  1.2204 -0.6213 -0.3537
 1981TIP3    H2 5950   4.112   4.378   2.511  0.0768 -0.8670 -0.8810
 1982TIP3   OH2 5951   1.380   1.721   0.026 -0.3463 -0.4022 -0.8452
 1982TIP3    H1 5952   1.472   1.697   0.036 -0.6338 -0.9702  0.7714
 1982TIP3    H2 5953   1.379   1.817   0.035  0.0929 -0.3899 -0.9280
 1983TIP3   OH2 5954   4.579   4.197   4.671 -0.4371  0.6166  0.4662
 1983TIP3    H1 5955   4.491   4.232   4.680 -0.2888  1.3511 -0.7403
 1983TIP3    H2 5956   4.591   4.185   4.577  1.0874  1.4125  0.5306
 1984TIP3   OH2 5957   2.988   0.519   3.754  0.0966  0.0052 -0.1863
 1984TIP3    H1 5958   2.903   0.560   3.736  0.3565  0.7765  0.2785
 1984TIP3    H2 5959   3.041   0.542   3.678  0.7769  2.0925  0.8340
 1985TIP3   OH2 5960   4.221   4.601   0.751  0.5556  0.5009  0.0486
 1985TIP3    H1 5961   4.183   4.610   0.838  0.9342  2.0857  0.0954
 1985TIP3    H2 5962   4.251   4.511   0.747 -3.6427 -1.1326 -0.2150
 1986TIP3   OH2 5963   4.951   3.306   4.667  0.4816 -0.0936 -0.2616
 1986TIP3    H1 5964   4.924   3.300   4.758 -1.7774  0.0882 -0.8620
 1986TIP3    H2 5965   4.973   3.399   4.655 -0.4492  0.1443 -0.1998
 1987TIP3   OH2 5966   3.748   5.593   0.543 -0.6180 -0.0202 -0.5857
 1987TIP3    H1 5967   3.738   5.545   0.460  0.4835 -1.4364  0.0720
 1987TIP3    H2 5968   3.752   5.685   0.516 -0.5058 -0.4260 -2.0875
 1988TIP3   OH2 5969   0.709   4.843   4.179 -0.5269 -0.1495  0.0285
 1988TIP3    H1 5970   0.697   4.902   4.253 -2.1845 -0.4696  0.0549
 1988TIP3    H2 5971   0.773   4.780   4.209 -1.0643 -0.1884  1.1534
 1989TIP3   OH2 5972   3.570   5.100   1.617 -0.1246  0.1663  0.4848
 1989TIP3    H1 5973   3.648   5.150   1.593  2.4070 -2.9843  1.4531
 1989TIP3    H2 5974   3.555   5.041   1.543 -0.7512 -0.1841  0.8788
 1990TIP3   OH2 5975   0.222   1.548   0.642 -0.2530  0.4163  0.1269
 1990TIP3    H1 5976   0.276   1.623   0.668  0.5132 -0.2822  0.6184
 1990TIP3    H2 5977   0.202   1.563   0.550 -0.7643  1.6092  0.4222
 1991TIP3   OH2 5978   4.597   4.792   1.045  0.1816  0.7092 -0.2218
 1991TIP3    H1 5979   4.536   4.827   1.110  0.8162  2.3488 -0.4771
 1991TIP3    H2 5980   4.666   4.751   1.098 -1.1356 -1.2904  0.0678
 1992TIP3   OH2 5981   0.290   3.877   0.379 -0.3442  0.0206 -0.3860
 1992TIP3    H1 5982   0.345   3.822   0.323  2.8988  1.6468  0.9249
 1992TIP3    H2 5983   0.257   3.817   0.446 -0.0316 -0.9809 -1.0902
 1993TIP3   OH2 5984   6.003   1.573   3.569  0.2550 -0.1166 -0.0571
 1993TIP3    H1 5985   5.920   1.620   3.579  0.1280 -0.4272  0.3598
 1993TIP3    H2 5986   6.057   1.604   3.642  0.8420  0.7726 -0.8487
 1994TIP3   OH2 5987   0.681   3.279   0.120  0.2047 -0.1353 -0.4852
 1994TIP3    H1 5988   0.678   3.366   0.160 -0.6605  0.1714 -1.1872
 1994TIP3    H2 5989   0.689   3.295   0.026 -1.0098 -0.7663 -0.7247
 1995TIP3   OH2 5990   0.816   1.071   4.725  0.1766  0.0541 -0.1699
 1995TIP3    H1 5991   0.738   1.101   4.678 -0.7126  2.7874  2.7051
 1995TIP3    H2 5992   0.876   1.145   4.724  0.9940 -0.5300  1.1470
 1996TIP3   OH2 5993   3.432   4.120   1.232  0.1285 -0.2541 -0.1413
 1996TIP3    H1 5994   3.399   4.181   1.298  1.0484 -0.9721  1.0247
 1996TIP3    H2 5995   3.439   4.036   1.278  1.7281 -0.5508 -0.8789
 1997TIP3   OH2 5996   2.395   4.968   1.926  0.5546  0.2893 -0.5366
 1997TIP3    H1 5997   2.329   4.932   1.868  0.7578 -0.0579 -0.5532
 1997TIP3    H2 5998   2.414   5.055   1.891 -2.0747  1.6861  1.1684
 1998TIP3   OH2 5999   4.603   1.566   1.064 -0.1303 -0.6328  0.3866
 1998TIP3    H1 6000   4.615   1.634   0.998 -0.3073  0.2001  1.1952
 1998TIP3    H2 6001   4.598   1.613   1.147  0.2279 -1.6685  1.0196
 1999TIP3   OH2 6002   0.169   1.244   0.326  0.4705  0.0098 -0.1650
 1999TIP3    H1 6003   0.161   1.198   0.242 -2.1358 -1.6315  0.8514
 1999TIP3    H2 6004   0.190   1.175   0.389  0.6027  0.9170  0.8076
 2000TIP3   OH2 6005   2.323   5.077   1.204  0.3252  0.5853 -0.5675
 2000TIP3    H1 6006   2.229   5.076   1.190  0.4105  0.5043 -1.1514
 2000TIP3    H2 6007   2.351   4.986   1.193  0.4803  0.6185 -0.4631
 2001TIP3   OH2 6008   3.317   2.367   4.556 -0.3966 -0.2433 -0.2372
 2001TIP3    H1 6009   3.243   2.366   4.617 -0.4980  1.0779 -0.3237
 2001TIP3    H2 6010   3.281   2.402   4.475  0.2570  0.1359 -0.3710
 2002TIP3   OH2 6011   0.087   4.843   2.913  0.0426  0.2008 -0.2908
 2002TIP3    H1 6012   0.080   4.938   2.920 -0.7780  0.0424  1.3394
 2002TIP3    H2 6013   0.042   4.822   2.831 -0.7173  1.1204 -0.1242
 2003TIP3   OH2 6014   5.412   0.070   3.909 -0.1425  0.2019 -0.2751
 2003TIP3    H1 6015   5.352  -0.003   3.928  1.1015 -0.9984 -0.7832
 2003TIP3    H2 6016   5.358   0.133   3.862 -1.5997  0.2578  1.3674
 2004TIP3   OH2 6017   6.039   0.228   4.191  0.3031 -0.3484  0.2344
 2004TIP3    H1 6018   5.969   0.233   4.256 -1.5495 -0.4229 -1.6403
 2004TIP3    H2 6019   6.007   0.167   4.126  1.6928  0.3678 -1.1933
 2005TIP3   OH2 6020   5.209   1.154   2.650 -0.1524 -0.0501  0.3507
 2005TIP3    H1 6021   5.301   1.175   2.668 -0.7690  1.6709  1.7664
 2005TIP3    H2 6022   5.211   1.111   2.565  2.0139 -0.5309  0.5773
 2006TIP3   OH2 6023   1.728   1.228   0.314 -0.0429  0.2691 -0.0415
 2006TIP3    H1 6024   1.668   1.287   0.361  0.0147 -0.1226  0.5380
 2006TIP3    H2 6025   1.695   1.141   0.333  1.5078 -0.0466  1.4517
 2007TIP3   OH2 6026   1.938   0.482   4.492 -0.1216 -0.1837  0.2877
 2007TIP3    H1 6027   2.011   0.462   4.433  0.0323  0.2198  0.3369
 2007TIP3    H2 6028   1.869   0.516   4.435 -0.5401 -1.2215  0.1488
 2008TIP3   OH2 6029   1.339   5.006   4.962  0.5783 -0.2018  0.0854
 2008TIP3    H1 6030   1.329   5.091   4.919 -0.6472  0.0669  0.8429
 2008TIP3    H2 6031   1.262   4.956   4.933  1.5542 -1.2534 -0.7645
 2009TIP3   OH2 6032   2.220   5.452   4.302 -0.0677 -0.3462 -0.1229
 2009TIP3    H1 6033   2.196   5.488   4.387  1.5624 -1.1531  0.7317
 2009TIP3    H2 6034   2.229   5.358   4.318 -1.9963 -0.8576 -1.7506
 2010TIP3   OH2 6035   0.636   1.094   1.126  0.5095 -0.6384 -0.6753
 2010TIP3    H1 6036   0.567   1.154   1.154  0.0232 -1.1100 -0.8404
 2010TIP3    H2 6037   0.711   1.117   1.180  1.0330  1.6117 -2.2172
 2011TIP3   OH2 6038   4.142   5.554   3.804  0.6159 -0.7508  0.2173
 2011TIP3    H1 6039   4.154   5.461   3.825  1.8737 -0.5688  0.4132
 2011TIP3    H2 6040   4.066   5.581   3.856 -2.0228 -2.4566 -2.4677
 2012TIP3   OH2 6041   5.654   3.457   4.345  0.6333 -0.5651 -0.2929
 2012TIP3    H1 6042   5.662   3.507   4.426  0.1036  0.0133 -0.5910
 2012TIP3    H2 6043   5.561   3.463   4.322  1.0545  0.7903 -1.8809
 2013TIP3   OH2 6044   0.824   5.586   0.865  0.5571 -0.5503 -0.0192
 2013TIP3    H1 6045   0.746   5.592   0.921  0.3742  0.6699 -0.3618
 2013TIP3    H2 6046   0.820   5.499   0.827 -0.1133 -0.8585  0.7265
 2014TIP3   OH2 6047   3.329   3.637   4.887  0.3588  0.4228 -0.7519
 2014TIP3    H1 6048   3.307   3.716   4.837 -0.4199  0.1515 -0.8577
 2014TIP3    H2 6049   3.357   3.669   4.972 -0.2006  0.7997 -0.7069
 2015TIP3   OH2 6050   2.087   0.126   1.647  0.0994 -0.0497  0.0975
 2015TIP3    H1 6051   2.034   0.139   1.725  0.0579 -1.7983  0.4146
 2015TIP3    H2 6052   2.144   0.202   1.643  0.3338 -0.0776  2.0221
 2016TIP3   OH2 6053   3.921   0.818   3.853 -0.1115  0.1092  0.1475
 2016TIP3    H1 6054   3.898   0.900   3.808 -0.0035  0.2628  0.3713
 2016TIP3    H2 6055   3.847   0.802   3.912  0.0856  0.2993  0.4495
 2017TIP3   OH2 6056   0.600   1.697   1.872 -0.0887 -0.4538  0.3528
 2017TIP3    H1 6057   0.601   1.737   1.959 -0.8151 -1.5322  0.8849
 2017TIP3    H2 6058   0.508   1.697   1.846  0.3485  2.2818 -1.6430
 2018TIP3   OH2 6059   4.504   1.603   4.624 -0.6134  0.0275 -0.2003
 2018TIP3    H1 6060   4.586   1.617   4.671  0.2569 -2.0689 -0.9867
 2018TIP3    H2 6061   4.441   1.580   4.692  0.0986 -0.8677  0.1657
 2019TIP3   OH2 6062   0.980   4.626   4.483  0.1208  0.1326 -0.5482
 2019TIP3    H1 6063   0.998   4.698   4.543 -0.3050 -0.0620 -0.1848
 2019TIP3    H2 6064   1.067   4.592   4.460  0.2828  0.0601  0.1385
 2020TIP3   OH2 6065   0.310   4.469   3.671 -0.1995 -0.1806 -0.8514
 2020TIP3    H1 6066   0.393   4.517   3.661  0.7414 -1.3623  0.8123
 2020TIP3    H2 6067   0.331   4.380   3.643 -0.0853 -1.1706  2.0765
 2021TIP3   OH2 6068   1.630   0.045   4.049 -0.1260 -0.2473  0.2499
 2021TIP3    H1 6069   1.709   0.099   4.049  0.1810 -0.6881  0.3675
 2021TIP3    H2 6070   1.660  -0.042   4.022 -0.6262 -0.3400 -0.0183
 2022TIP3   OH2 6071   2.590   5.063   4.452  0.5298 -0.0068  0.1694
 2022TIP3    H1 6072   2.638   5.128   4.400  0.4324  0.3525  0.5197
 2022TIP3    H2 6073   2.658   5.015   4.499  0.6251 -0.4090 -0.3763
 2023TIP3   OH2 6074   6.156   2.340   4.297 -0.7322  0.1395  0.1071
 2023TIP3    H1 6075   6.210   2.418   4.284 -0.3245 -0.2521 -0.6786
 2023TIP3    H2 6076   6.218   2.267   4.292 -1.5135 -0.4942 -3.1797
 2024TIP3   OH2 6077   4.375   2.739   0.276 -0.0079 -0.3238 -0.3114
 2024TIP3    H1 6078   4.428   2.808   0.315  0.3973 -1.0958  0.5260
 2024TIP3    H2 6079   4.430   2.661   0.278 -0.7482 -0.8716 -0.4931
 2025TIP3   OH2 6080   2.372   2.101   1.417 -0.1180  0.1499  0.1883
 2025TIP3    H1 6081   2.374   2.006   1.427 -0.8957  0.2642  1.7235
 2025TIP3    H2 6082   2.295   2.129   1.466  1.5428  1.7909  2.0803
 2026TIP3   OH2 6083   6.157   5.587   4.242 -0.3862 -0.4709  0.1768
 2026TIP3    H1 6084   6.194   5.611   4.158  1.8818 -0.7390  1.0272
 2026TIP3    H2 6085   6.142   5.671   4.286  0.3797 -0.3786  0.2739
 2027TIP3   OH2 6086   2.781   4.464   2.690 -0.1508 -0.0949 -0.0977
 2027TIP3    H1 6087   2.840   4.395   2.661  0.8813  1.3519 -1.6580
 2027TIP3    H2 6088   2.809   4.485   2.779  1.1652 -0.0304 -0.5033
 2028TIP3   OH2 6089   3.524   3.811   0.428  0.3915  0.2845  0.3142
 2028TIP3    H1 6090   3.443   3.777   0.390  0.9468 -0.9057  0.1591
 2028TIP3    H2 6091   3.509   3.906   0.437 -0.6432  0.2176 -0.6027
 2029TIP3   OH2 6092   3.642   0.120   4.278  0.0869 -0.4393 -0.2550
 2029TIP3    H1 6093   3.581   0.110   4.204  1.0719  0.2862 -1.1912
 2029TIP3    H2 6094   3.590   0.166   4.345 -0.7134 -0.7950 -0.6105
 2030TIP3   OH2 6095   4.399   5.321   1.558  0.4690 -0.3010  0.0878
 2030TIP3    H1 6096   4.425   5.240   1.515 -0.8694 -1.0102  0.5666
 2030TIP3    H2 6097   4.342   5.294   1.630  1.4735  0.9492  1.4383
 2031TIP3   OH2 6098   1.952   2.893   0.417 -0.6327 -0.6374 -0.1128
 2031TIP3    H1 6099   1.882   2.839   0.455 -1.6750  1.8706  1.7967
 2031TIP3    H2 6100   2.029   2.873   0.468 -0.4497 -1.8292 -0.8175
 2032TIP3   OH2 6101   1.682   4.554   2.453 -0.3857 -0.0056 -0.0549
 2032TIP3    H1 6102   1.662   4.584   2.365  0.4139  1.9978  0.3922
 2032TIP3    H2 6103   1.772   4.523   2.449 -0.7028 -0.9460 -0.1626
 2033TIP3   OH2 6104   4.380   3.807   1.697 -0.1984  0.1411 -0.0048
 2033TIP3    H1 6105   4.349   3.805   1.787  0.3049 -0.6103  0.1626
 2033TIP3    H2 6106   4.327   3.740   1.652 -0.6800  0.7422 -0.3527
 2034TIP3   OH2 6107   4.856   3.280   3.379  0.0388 -0.4558  0.2659
 2034TIP3    H1 6108   4.920   3.272   3.308 -1.1014 -1.5234 -0.7001
 2034TIP3    H2 6109   4.812   3.363   3.362 -0.7840 -1.0767 -0.8159
 2035TIP3   OH2 6110   2.099   1.899   4.889 -0.2354  0.3808 -0.0036
 2035TIP3    H1 6111   2.032   1.833   4.906 -0.0056 -0.1688 -1.1370
 2035TIP3    H2 6112   2.087   1.922   4.797  0.6860  0.7926 -0.0302
 2036TIP3   OH2 6113   0.108   0.786   1.456 -0.4178  0.2931  0.2412
 2036TIP3    H1 6114   0.200   0.759   1.455 -0.4914 -0.1277 -2.6477
 2036TIP3    H2 6115   0.060   0.704   1.446 -1.1719  0.5119  1.7259
 2037TIP3   OH2 6116   5.311   0.597   0.123 -0.7131 -0.5793 -0.0922
 2037TIP3    H1 6117   5.393   0.564   0.159 -0.8001 -0.7864 -0.0772
 2037TIP3    H2 6118   5.263   0.630   0.199  0.3571  1.8031 -0.3930
 2038TIP3   OH2 6119   2.810   4.840   3.101  0.3580  0.4583 -0.2885
 2038TIP3    H1 6120   2.905   4.840   3.102  0.5079 -1.6244 -3.0162
 2038TIP3    H2 6121   2.786   4.778   3.032 -3.0336 -1.0085  1.9373
 2039TIP3   OH2 6122   2.394   4.892   2.558  0.3833  0.2326 -0.4478
 2039TIP3    H1 6123   2.472   4.920   2.510  1.3443 -0.3534  0.6941
 2039TIP3    H2 6124   2.408   4.925   2.647  0.0404 -1.0832  0.1260
 2040TIP3   OH2 6125   4.574   0.068   1.713  0.0373  0.5927  0.0667
 2040TIP3    H1 6126   4.522   0.100   1.638  0.4343 -1.4055 -1.1593
 2040TIP3    H2 6127   4.663   0.095   1.693  0.4088 -1.2470 -1.0782
 2041TIP3   OH2 6128   2.196   4.141   4.699  0.4407 -0.0469  0.1773
 2041TIP3    H1 6129   2.116   4.188   4.719 -1.2494 -1.7587 -2.0068
 2041TIP3    H2 6130   2.204   4.076   4.769  0.1262  0.3334  0.5704
 2042TIP3   OH2 6131   3.176   5.009   1.204 -0.1672  0.2433  0.0938
 2042TIP3    H1 6132   3.112   5.051   1.147 -1.5089  1.4097  2.2964
 2042TIP3    H2 6133   3.257   5.060   1.192 -0.5816  0.8024 -0.3683
 2043TIP3   OH2 6134   3.975   4.556   4.909 -0.0856  0.3661  0.2103
 2043TIP3    H1 6135   4.004   4.642   4.880 -1.3886  1.2556  1.4390
 2043TIP3    H2 6136   4.055   4.510   4.934  0.4091  2.6245  3.2403
 2044TIP3   OH2 6137   0.636   4.009   0.536 -0.3654  0.0031 -0.0381
 2044TIP3    H1 6138   0.664   4.052   0.455  0.8308  0.8106  0.7806
 2044TIP3    H2 6139   0.609   4.081   0.593 -0.5338 -0.5093  0.5367
 2045TIP3   OH2 6140   1.936   1.639   4.564  0.2128 -0.5411  0.1875
 2045TIP3    H1 6141   1.969   1.551   4.581  1.7666 -0.3580 -1.5946
 2045TIP3    H2 6142   1.895   1.633   4.478 -0.2162  0.3485  0.3150
 2046TIP3   OH2 6143   0.172   2.510   0.321 -0.6002 -0.3791 -0.0194
 2046TIP3    H1 6144   0.162   2.594   0.367  0.0515 -0.4035  0.1776
 2046TIP3    H2 6145   0.083   2.486   0.295 -0.7683  0.4897 -0.2820
 2047TIP3   OH2 6146   2.597   4.281   4.907 -0.0665  0.5685  1.1008
 2047TIP3    H1 6147   2.669   4.326   4.863  1.1744 -0.0461  2.4371
 2047TIP3    H2 6148   2.576   4.207   4.849  1.1722  0.0799  1.2565
 2048TIP3   OH2 6149   1.476   1.333   1.192  0.2147  0.1071  0.5349
 2048TIP3    H1 6150   1.428   1.395   1.137 -2.0421  1.5517  3.7944
 2048TIP3    H2 6151   1.544   1.386   1.234  1.2544 -0.7405 -0.0261
 2049TIP3   OH2 6152   3.287   4.149   3.990 -0.5830  0.0785  0.0632
 2049TIP3    H1 6153   3.355   4.198   4.037 -0.3301 -0.3948  0.2037
 2049TIP3    H2 6154   3.205   4.179   4.029 -0.3942 -0.0526  0.5807
 2050TIP3   OH2 6155   4.898   5.783   3.923  0.3030 -0.1553 -0.0977
 2050TIP3    H1 6156   4.813   5.826   3.914 -0.5100 -1.4947  0.7823
 2050TIP3    H2 6157   4.955   5.829   3.861 -0.7803  1.4437  0.0319
 2051TIP3   OH2 6158   2.613   5.171   2.216 -0.4676 -0.3956  0.0529
 2051TIP3    H1 6159   2.692   5.219   2.242  0.7521 -3.7406  3.3539
 2051TIP3    H2 6160   2.541   5.223   2.251  0.6917 -0.1184  2.2071
 2052TIP3   OH2 6161   0.081   0.332   1.918  0.0067  0.0280 -0.3819
 2052TIP3    H1 6162  -0.006   0.306   1.949 -0.4209  1.8720  0.0810
 2052TIP3    H2 6163   0.065   0.405   1.858  0.9493 -2.2897 -3.7571
 2053TIP3   OH2 6164   2.560   3.580   3.830  0.0962 -0.2279  0.1444
 2053TIP3    H1 6165   2.589   3.491   3.850  0.2741 -0.0822  0.5587
 2053TIP3    H2 6166   2.523   3.575   3.742 -0.4199 -0.8343  0.3926
 2054TIP3   OH2 6167   0.751   4.621   3.289 -0.1755  0.5270  0.1584
 2054TIP3    H1 6168   0.688   4.689   3.312 -0.8297  0.7574 -2.0224
 2054TIP3    H2 6169   0.826   4.669   3.252 -0.1842  0.1316 -0.3947
 2055TIP3   OH2 6170   1.752   3.802   2.381  0.4595  0.0427 -0.0342
 2055TIP3    H1 6171   1.684   3.769   2.321 -1.0698 -2.8752  2.9817
 2055TIP3    H2 6172   1.707   3.811   2.465  3.6773 -1.9630  2.1041
 2056TIP3   OH2 6173   5.230   5.327   0.714 -0.2085  0.1826  0.2732
 2056TIP3    H1 6174   5.301   5.359   0.770  0.9747 -1.0684 -0.4293
 2056TIP3    H2 6175   5.261   5.343   0.625  0.3883 -2.6119 -0.1167
 2057TIP3   OH2 6176   0.453   1.349   4.654 -0.1670  0.2658  0.4967
 2057TIP3    H1 6177   0.374   1.403   4.644 -0.8628 -0.9210 -0.9044
 2057TIP3    H2 6178   0.419   1.264   4.683  0.4854 -0.5299 -1.0008
 2058TIP3   OH2 6179   1.329   1.587   4.839  0.3068  0.4345 -0.0806
 2058TIP3    H1 6180   1.378   1.506   4.848 -1.5307 -0.6762  0.3876
 2058TIP3    H2 6181   1.392   1.656   4.860  1.8621 -0.8689 -0.3455
 2059TIP3   OH2 6182   2.689   2.568   4.039 -0.3557 -0.6278 -0.3526
 2059TIP3    H1 6183   2.776   2.566   4.000 -0.8679 -1.5120 -1.5014
 2059TIP3    H2 6184   2.666   2.476   4.052 -1.9863 -0.5450 -2.1541
 2060TIP3   OH2 6185   0.313   0.996   5.058  0.3022 -0.7066  0.0562
 2060TIP3    H1 6186   0.295   0.939   4.983  2.0454  1.4864 -2.1577
 2060TIP3    H2 6187   0.234   1.050   5.066  0.5782 -0.1006 -1.0652
 2061TIP3   OH2 6188   3.288   5.461   1.096 -0.4672 -0.2491 -0.2495
 2061TIP3    H1 6189   3.318   5.392   1.037  0.1254 -1.3977  1.3105
 2061TIP3    H2 6190   3.193   5.464   1.083 -0.6053 -1.8960  0.1664
 2062TIP3   OH2 6191   5.578   4.306   0.876  0.2407  0.0744 -0.2348
 2062TIP3    H1 6192   5.636   4.326   0.949  1.4421 -2.0151 -0.5405
 2062TIP3    H2 6193   5.503   4.261   0.915 -0.4284  1.3243 -0.0284
 2063TIP3   OH2 6194   0.654   0.398   3.297 -0.4799 -0.6281  0.1242
 2063TIP3    H1 6195   0.639   0.445   3.378 -0.3825 -0.2654 -0.0660
 2063TIP3    H2 6196   0.747   0.411   3.278 -0.6227 -0.2507 -0.3319
 2064TIP3   OH2 6197   2.220   1.959   2.112  0.0925 -0.0816 -0.0901
 2064TIP3    H1 6198   2.126   1.939   2.118 -0.0090 -0.3384 -1.9776
 2064TIP3    H2 6199   2.263   1.881   2.146 -0.3595  0.1270  1.0021
 2065TIP3   OH2 6200   5.653   4.204   1.215  0.8575  0.1525 -0.7713
 2065TIP3    H1 6201   5.633   4.281   1.269  0.6190 -0.2281 -0.3080
 2065TIP3    H2 6202   5.709   4.238   1.145  1.6381  0.5685  0.0220
 2066TIP3   OH2 6203   5.368   1.219   1.611  0.2035  0.1473  0.3184
 2066TIP3    H1 6204   5.428   1.205   1.684  1.2839  1.0742 -0.3491
 2066TIP3    H2 6205   5.425   1.239   1.537 -0.9199  0.6050 -0.4501
 2067TIP3   OH2 6206   1.085   5.343   1.637  0.1967  0.1343  0.1149
 2067TIP3    H1 6207   1.097   5.256   1.675  1.5182  0.3606  0.2680
 2067TIP3    H2 6208   1.083   5.328   1.543  2.7861  0.1359  0.0025
 2068TIP3   OH2 6209   5.889   0.972   4.605 -0.3990  0.4560  0.1805
 2068TIP3    H1 6210   5.898   0.878   4.595  1.2394  0.7230 -1.4853
 2068TIP3    H2 6211   5.935   0.992   4.687 -0.4716 -0.1555  0.3746
 2069TIP3   OH2 6212   0.298   5.233   2.020  0.0043 -0.1790  0.1763
 2069TIP3    H1 6213   0.229   5.291   1.989  0.0706  0.1453  0.6433
 2069TIP3    H2 6214   0.292   5.156   1.962 -1.4232 -0.6147  0.8570
 2070TIP3   OH2 6215   6.197   1.221   3.840 -0.2650  0.3185  0.0899
 2070TIP3    H1 6216   6.116   1.186   3.803 -2.7025  2.0160  3.2845
 2070TIP3    H2 6217   6.237   1.147   3.885 -0.2257 -0.4508 -1.1712
 2071TIP3   OH2 6218   0.510   1.179   3.433  0.0228 -0.4027  0.5502
 2071TIP3    H1 6219   0.470   1.112   3.487  0.4174 -1.1898 -0.1176
 2071TIP3    H2 6220   0.551   1.239   3.496 -0.4024 -0.7389  1.1522
 2072TIP3   OH2 6221   4.482   0.175   4.968  0.0500  0.7768  0.3988
 2072TIP3    H1 6222   4.519   0.227   5.039  0.4674  0.8350  0.1403
 2072TIP3    H2 6223   4.541   0.190   4.893  1.7457 -2.1129  1.0094
 2073TIP3   OH2 6224   3.596   0.769   2.433  0.8826  0.4425 -0.4763
 2073TIP3    H1 6225   3.579   0.734   2.345  1.2978 -0.1790 -0.3182
 2073TIP3    H2 6226   3.635   0.855   2.417 -1.7229  1.6404 -0.8424
 2074TIP3   OH2 6227   4.809   2.442   3.095 -0.0077  0.2421 -0.0354
 2074TIP3    H1 6228   4.875   2.411   3.158  0.4938 -1.2586 -1.2326
 2074TIP3    H2 6229   4.741   2.482   3.149  0.2591 -1.2514  1.4999
 2075TIP3   OH2 6230   1.602   1.733   2.417 -0.3364 -0.1926  0.4430
 2075TIP3    H1 6231   1.559   1.673   2.356 -0.7492  0.1660  0.3679
 2075TIP3    H2 6232   1.680   1.687   2.447 -1.6343 -1.5584  1.8715
 2076TIP3   OH2 6233   0.616   5.902   3.750 -0.0174 -0.6079  0.1352
 2076TIP3    H1 6234   0.601   5.936   3.662 -1.6116 -0.1696  0.5510
 2076TIP3    H2 6235   0.587   5.811   3.746 -0.1391 -0.5732  0.2188
 2077TIP3   OH2 6236   1.504   1.624   0.965  0.5979 -0.1278  0.5242
 2077TIP3    H1 6237   1.536   1.534   0.951 -1.7184 -1.0191  0.5408
 2077TIP3    H2 6238   1.448   1.641   0.890 -0.3666  0.6364  1.3937
 2078TIP3   OH2 6239   2.062   5.944   0.475  0.4300 -0.3050  0.4336
 2078TIP3    H1 6240   2.135   5.908   0.525  0.9125  2.1439  1.6536
 2078TIP3    H2 6241   1.986   5.934   0.532  0.4169 -0.0966  0.4543
 2079TIP3   OH2 6242   1.969   2.772   1.326  0.6307 -0.3601  0.7280
 2079TIP3    H1 6243   1.936   2.683   1.316 -1.1943  0.3406 -0.0712
 2079TIP3    H2 6244   1.962   2.790   1.419 -3.1685  0.3083  0.5040
 2080TIP3   OH2 6245   5.633   4.877   4.416 -0.0024 -0.4943 -0.0747
 2080TIP3    H1 6246   5.602   4.934   4.486  0.2150 -2.3585  1.6113
 2080TIP3    H2 6247   5.727   4.892   4.412 -0.0452 -0.2263 -0.1558
 2081TIP3   OH2 6248   4.744   2.360   0.551 -0.3726  0.2734  0.2076
 2081TIP3    H1 6249   4.656   2.366   0.516 -0.3219 -0.3349 -0.0335
 2081TIP3    H2 6250   4.789   2.296   0.495  0.4501  1.1343 -0.1433
 2082TIP3   OH2 6251   0.251   0.385   1.120 -0.2285 -0.1421 -0.5136
 2082TIP3    H1 6252   0.244   0.334   1.201  1.4984  2.5957  1.5758
 2082TIP3    H2 6253   0.162   0.410   1.100 -0.6404 -0.1766  1.0974
 2083TIP3   OH2 6254   4.078   2.748   3.640 -0.1410  0.3383  0.0429
 2083TIP3    H1 6255   4.057   2.736   3.733 -0.8980  0.2238 -0.1377
 2083TIP3    H2 6256   4.018   2.817   3.611  0.9953  1.3040 -0.0456
 2084TIP3   OH2 6257   1.925   2.105   3.021  0.1387  0.3006 -0.0739
 2084TIP3    H1 6258   1.924   2.181   3.079  1.5169  0.0069  0.3922
 2084TIP3    H2 6259   1.836   2.072   3.022 -0.3418  1.5585  0.1831
 2085TIP3   OH2 6260   1.013   0.939   2.485  0.4178 -0.8481 -0.1012
 2085TIP3    H1 6261   0.983   0.915   2.397  1.3368 -1.5349 -0.2404
 2085TIP3    H2 6262   0.978   0.870   2.541 -0.4365 -0.2383  0.1311
 2086TIP3   OH2 6263   6.296   4.870   3.557 -0.0310 -0.0544 -0.3598
 2086TIP3    H1 6264   6.234   4.925   3.606 -0.2299  0.2057 -0.8888
 2086TIP3    H2 6265   6.257   4.783   3.559 -1.2459  0.4062 -2.0144
 2087TIP3   OH2 6266   5.527   0.551   4.242  0.3599 -0.2999  0.3204
 2087TIP3    H1 6267   5.470   0.492   4.192  0.4701 -0.5962  0.5373
 2087TIP3    H2 6268   5.608   0.553   4.192  0.0023  0.5179 -0.2567
 2088TIP3   OH2 6269   2.940   1.652   0.118 -0.1908  1.1078  0.2325
 2088TIP3    H1 6270   2.938   1.660   0.213  2.1875  0.2301  0.4381
 2088TIP3    H2 6271   2.965   1.739   0.087  0.5283  1.0166  0.5394
 2089TIP3   OH2 6272   0.080   5.777   5.006  0.3409 -0.4446  0.1553
 2089TIP3    H1 6273   0.120   5.849   4.957 -0.8062  1.2641  1.5927
 2089TIP3    H2 6274   0.006   5.749   4.953  1.5096 -1.5095 -1.0156
 2090TIP3   OH2 6275   4.728   2.345   0.905  0.1507 -0.2140  0.4905
 2090TIP3    H1 6276   4.805   2.291   0.889  0.4488  0.2813  0.2485
 2090TIP3    H2 6277   4.721   2.402   0.829 -1.0414 -0.9303  0.0256
 2091TIP3   OH2 6278   1.947   3.276   2.587 -0.2716  0.0117 -0.3467
 2091TIP3    H1 6279   2.030   3.277   2.635 -0.2516 -0.3793 -0.3709
 2091TIP3    H2 6280   1.953   3.351   2.527 -0.3077  0.5248  0.2718
 2092TIP3   OH2 6281   2.261   5.714   2.870  0.0266 -0.4046 -0.3189
 2092TIP3    H1 6282   2.329   5.662   2.913 -0.8194 -1.4280 -0.1755
 2092TIP3    H2 6283   2.212   5.650   2.817 -2.0582 -0.0860  1.1220
 2093TIP3   OH2 6284   3.659   1.708   3.176  0.1732  0.2833  0.0293
 2093TIP3    H1 6285   3.723   1.640   3.198 -0.6290 -0.3896  0.3685
 2093TIP3    H2 6286   3.574   1.662   3.180 -0.6540  1.8297  2.6763
 2094TIP3   OH2 6287   4.811   5.595   3.573  0.2841  0.2887  0.3751
 2094TIP3    H1 6288   4.819   5.538   3.649 -0.8365  1.6789  1.6060
 2094TIP3    H2 6289   4.877   5.663   3.587 -0.5793  1.0927  0.6336
 2095TIP3   OH2 6290   0.631   5.376   0.903  0.1383  0.1050  0.5660
 2095TIP3    H1 6291   0.550   5.365   0.954 -2.5296  2.4792 -2.7381
 2095TIP3    H2 6292   0.617   5.326   0.823  1.4607  1.4414 -0.5646
 2096TIP3   OH2 6293   3.173   4.979   0.074  0.2429 -0.6002  0.3518
 2096TIP3    H1 6294   3.193   5.041   0.144 -0.4389  0.8227 -0.6547
 2096TIP3    H2 6295   3.256   4.935   0.058  0.0785 -2.0599  3.0140
 2097TIP3   OH2 6296   5.491   1.168   2.613 -0.2357 -0.5758 -0.4074
 2097TIP3    H1 6297   5.530   1.131   2.534  1.1076 -0.2018  0.0522
 2097TIP3    H2 6298   5.554   1.234   2.642 -1.3238  0.2045  0.2664
 2098TIP3   OH2 6299   1.462   3.887   4.410 -0.1447 -0.1829  0.6013
 2098TIP3    H1 6300   1.377   3.928   4.426 -0.1891 -0.0816  0.1101
 2098TIP3    H2 6301   1.520   3.926   4.476  0.0792  1.4770 -0.5153
 2099TIP3   OH2 6302   1.030   4.806   0.758  0.2105  0.2763  0.3512
 2099TIP3    H1 6303   1.013   4.782   0.849 -1.3064  3.0739  0.9142
 2099TIP3    H2 6304   1.125   4.808   0.751  0.3763  1.3448  2.2869
 2100TIP3   OH2 6305   4.393   1.518   2.772 -0.2256  0.4685  0.0458
 2100TIP3    H1 6306   4.306   1.537   2.807 -0.1230  0.8148  0.1143
 2100TIP3    H2 6307   4.403   1.579   2.699 -0.0119  0.4769  0.0818
 2101TIP3   OH2 6308   4.473   3.939   1.187  0.4821  0.0473  0.0078
 2101TIP3    H1 6309   4.484   3.893   1.104  0.1106  0.3704 -0.2249
 2101TIP3    H2 6310   4.474   3.869   1.253  0.7726 -0.2115 -0.2676
 2102TIP3   OH2 6311   0.065   1.961   3.762 -0.2299 -0.0131 -0.0559
 2102TIP3    H1 6312   0.110   1.995   3.839 -0.8257  2.0653 -0.5618
 2102TIP3    H2 6313   0.125   1.979   3.689 -0.8842  0.7231 -0.4306
 2103TIP3   OH2 6314   4.898   2.700   4.885  0.0061 -0.1749  0.1335
 2103TIP3    H1 6315   4.969   2.643   4.858  0.7618 -0.4974  2.5969
 2103TIP3    H2 6316   4.940   2.784   4.906 -1.0225  1.2664 -2.9512
 2104TIP3   OH2 6317   6.080   4.801   4.062 -0.2668 -0.6238  0.3856
 2104TIP3    H1 6318   6.160   4.844   4.033 -1.0997  0.1766 -0.8039
 2104TIP3    H2 6319   6.080   4.811   4.157  0.6469  0.0556  0.3243
 2105TIP3   OH2 6320   3.281   2.064   4.001 -0.2518  0.1841  0.1782
 2105TIP3    H1 6321   3.339   2.140   4.004 -0.4851  0.3460  0.7762
 2105TIP3    H2 6322   3.286   2.026   4.089  0.6184 -1.0834 -0.3869
 2106TIP3   OH2 6323   2.490   3.037   5.002  0.2954  0.0844 -0.0155
 2106TIP3    H1 6324   2.550   3.035   5.077  0.5013 -1.6426 -0.1803
 2106TIP3    H2 6325   2.403   3.026   5.041  0.4258 -1.1198 -0.0056
 2107TIP3   OH2 6326   1.822   3.749   4.130 -0.6462  0.6373 -0.3151
 2107TIP3    H1 6327   1.824   3.779   4.039 -0.1977 -0.5626 -0.7204
 2107TIP3    H2 6328   1.865   3.819   4.179  2.0946 -0.0880 -1.4754
 2108TIP3   OH2 6329   2.755   5.154   1.850  0.2938  0.1463 -0.6070
 2108TIP3    H1 6330   2.785   5.064   1.864 -1.0840  0.0829  2.8141
 2108TIP3    H2 6331   2.819   5.208   1.896 -1.5600  0.4333  1.7927
 2109TIP3   OH2 6332   4.076   1.683   4.772 -0.6369  0.4692  0.1337
 2109TIP3    H1 6333   4.074   1.775   4.744  0.4716 -0.3453 -3.0443
 2109TIP3    H2 6334   4.159   1.675   4.819 -0.6020  1.0290  0.1771
 2110TIP3   OH2 6335   2.249   5.458   1.958 -0.1721  0.2630  0.3391
 2110TIP3    H1 6336   2.304   5.425   2.028  0.0895 -2.3757 -0.9511
 2110TIP3    H2 6337   2.193   5.523   1.999  1.9913  1.0208  2.2813
 2111TIP3   OH2 6338   1.640   2.931   2.376  0.5474  0.2355  0.0464
 2111TIP3    H1 6339   1.692   2.975   2.442  0.4350  0.1203  0.2138
 2111TIP3    H2 6340   1.549   2.944   2.405  0.4985  0.1839 -0.0838
 2112TIP3   OH2 6341   3.416   3.721   5.140  0.0996 -0.0491 -0.1176
 2112TIP3    H1 6342   3.442   3.813   5.150  1.4049 -0.3522 -0.6379
 2112TIP3    H2 6343   3.385   3.695   5.227  0.9711  0.4987  0.3629
 2113TIP3   OH2 6344   0.899   4.787   2.588 -0.4771 -0.1435 -0.7738
 2113TIP3    H1 6345   0.897   4.841   2.667  0.9671  1.2755 -1.6391
 2113TIP3    H2 6346   0.988   4.752   2.586 -0.1432  0.7196 -2.2946
 2114TIP3   OH2 6347   3.981   2.760   2.013  0.0325  0.0297 -0.1623
 2114TIP3    H1 6348   4.058   2.732   1.962 -0.0688 -1.0202  0.2300
 2114TIP3    H2 6349   4.001   2.733   2.102 -1.3581 -1.5283 -0.2725
 2115TIP3   OH2 6350   0.839   4.384   3.104  0.0820 -0.1824  0.8358
 2115TIP3    H1 6351   0.933   4.375   3.088  0.0112 -2.6864  1.4996
 2115TIP3    H2 6352   0.833   4.456   3.168  1.4463  0.4996  0.2510
 2116TIP3   OH2 6353  -0.033   5.283   0.183 -0.4687  0.0342 -0.8719
 2116TIP3    H1 6354   0.009   5.368   0.191  1.6447 -0.6141 -3.6030
 2116TIP3    H2 6355   0.032   5.221   0.215 -1.6350 -0.6559  0.2495
 2117TIP3   OH2 6356   0.799   4.126   3.212  0.1848  0.3774  0.4731
 2117TIP3    H1 6357   0.799   4.207   3.161 -0.1175  0.5486  0.7402
 2117TIP3    H2 6358   0.716   4.084   3.192 -0.2738  0.8179  1.3923
 2118TIP3   OH2 6359   4.806   4.355   3.186  0.1002  0.1126  0.5739
 2118TIP3    H1 6360   4.857   4.315   3.256  0.4564  0.8538  0.7431
 2118TIP3    H2 6361   4.863   4.351   3.110  0.1237  0.2758  0.5832
 2119TIP3   OH2 6362   0.831   4.349   0.182  0.0598  0.2695  0.5844
 2119TIP3    H1 6363   0.925   4.348   0.166 -0.1510 -0.5660 -0.7285
 2119TIP3    H2 6364   0.797   4.416   0.123 -0.3401 -0.5433 -0.1305
 2120TIP3   OH2 6365   5.266   5.473   3.359  0.0630 -0.1205 -0.4212
 2120TIP3    H1 6366   5.257   5.454   3.266  2.6150 -0.0003 -0.7748
 2120TIP3    H2 6367   5.355   5.444   3.381 -0.7146 -0.8199  2.1713
 2121TIP3   OH2 6368   3.880   5.601   2.326 -0.1298  0.5303  0.5168
 2121TIP3    H1 6369   3.809   5.656   2.293 -0.1098  0.6215  0.6222
 2121TIP3    H2 6370   3.959   5.638   2.287 -0.2089 -0.0256 -0.1879
 2122TIP3   OH2 6371   0.535   5.642   4.836 -0.1410  0.0385 -0.9243
 2122TIP3    H1 6372   0.575   5.604   4.758  1.7544 -0.4084  0.2090
 2122TIP3    H2 6373   0.556   5.735   4.831  0.5073 -0.0882 -0.6646
 2123TIP3   OH2 6374   6.306   1.108   2.177  0.1181  0.4690 -0.1154
 2123TIP3    H1 6375   6.269   1.122   2.091 -0.2752 -0.8786 -0.1932
 2123TIP3    H2 6376   6.397   1.138   2.170 -0.0708  0.8732 -0.8360
 2124TIP3   OH2 6377   5.905   0.777   2.912  0.1440 -0.2244 -0.3311
 2124TIP3    H1 6378   5.943   0.812   2.831 -2.0819 -1.8518 -2.2021
 2124TIP3    H2 6379   5.967   0.710   2.941  0.8008  0.1528 -0.8193
 2125TIP3   OH2 6380   5.221   1.612   4.376  0.0516 -0.3277  0.1638
 2125TIP3    H1 6381   5.235   1.526   4.336  0.7863 -0.5246  0.8224
 2125TIP3    H2 6382   5.260   1.673   4.314  0.1993 -0.5308  0.0533
 2126TIP3   OH2 6383   0.645   4.650   3.856 -0.5075  0.1353 -0.2411
 2126TIP3    H1 6384   0.642   4.744   3.874 -2.1933 -0.2303  1.7982
 2126TIP3    H2 6385   0.654   4.609   3.942  1.3034 -1.6022 -1.1588
 2127TIP3   OH2 6386   4.295   4.064   1.572  0.8471  0.5538  0.3229
 2127TIP3    H1 6387   4.303   3.981   1.619 -0.1580  0.6031  0.6188
 2127TIP3    H2 6388   4.365   4.119   1.607  1.2553 -0.0329  0.4273
 2128TIP3   OH2 6389   3.464   2.858   4.928  0.3405 -0.3279 -0.1534
 2128TIP3    H1 6390   3.422   2.808   4.859  0.0081  0.1131 -0.2799
 2128TIP3    H2 6391   3.394   2.916   4.961  0.3895 -0.7937  0.8016
 2129TIP3   OH2 6392   0.797   1.715   3.173 -0.8155  0.2388 -0.0417
 2129TIP3    H1 6393   0.829   1.657   3.241 -0.5711  2.1497  1.5717
 2129TIP3    H2 6394   0.703   1.695   3.165 -1.0667  0.6349  1.5923
 2130TIP3   OH2 6395   6.269   2.008   4.023 -0.2590 -0.1440 -0.7188
 2130TIP3    H1 6396   6.312   2.086   3.988  0.1253 -0.1206 -0.2020
 2130TIP3    H2 6397   6.279   1.942   3.954 -0.0394  0.0753 -0.8996
 2131TIP3   OH2 6398   4.115   4.291   4.892  0.0923  0.4990 -0.0731
 2131TIP3    H1 6399   4.136   4.205   4.928  0.6646  0.9707  0.7411
 2131TIP3    H2 6400   4.057   4.272   4.818 -0.0189 -0.5652  0.2681
 2132TIP3   OH2 6401   4.259   3.288   2.377  0.3116 -0.2470  0.0289
 2132TIP3    H1 6402   4.278   3.233   2.453  1.5609  0.6713  0.3998
 2132TIP3    H2 6403   4.342   3.295   2.331 -0.1712  0.1583 -0.8057
 2133TIP3   OH2 6404   1.857   5.863   0.624 -0.5178 -0.0719 -0.1210
 2133TIP3    H1 6405   1.792   5.875   0.692 -0.2142 -0.1134  0.1785
 2133TIP3    H2 6406   1.814   5.808   0.558 -0.8769  0.1324 -0.0580
 2134TIP3   OH2 6407   2.383   2.901   4.714 -0.2069  0.0772 -0.6732
 2134TIP3    H1 6408   2.342   2.827   4.758 -0.3971  0.5501 -0.0377
 2134TIP3    H2 6409   2.317   2.970   4.716  1.0328  1.3496  1.6682
 2135TIP3   OH2 6410   2.097   5.444   3.887  0.0807  0.1238 -0.5493
 2135TIP3    H1 6411   2.108   5.362   3.935 -0.4604 -0.0807 -0.7714
 2135TIP3    H2 6412   2.167   5.501   3.921 -1.6027  0.7933  2.1929
 2136TIP3   OH2 6413   0.517   3.117   1.522  0.1497  0.2526 -0.2555
 2136TIP3    H1 6414   0.595   3.061   1.526 -0.7459 -1.1175 -1.1667
 2136TIP3    H2 6415   0.450   3.068   1.570 -0.0153  1.7261  1.1166
 2137TIP3   OH2 6416   2.425   4.974   2.820 -0.4407 -0.1585 -0.1656
 2137TIP3    H1 6417   2.430   4.966   2.916  1.7710  1.4219 -0.0858
 2137TIP3    H2 6418   2.397   5.064   2.805  0.3290 -0.0422 -0.9858
 2138TIP3   OH2 6419   0.123   5.003   1.551 -0.3081  0.6970  0.1015
 2138TIP3    H1 6420   0.112   5.030   1.460  0.8749 -0.4105 -0.3956
 2138TIP3    H2 6421   0.161   4.915   1.546  0.2690  0.8178  1.6663
 2139TIP3   OH2 6422   1.403   4.401   3.490 -0.2878 -0.1568 -0.6332
 2139TIP3    H1 6423   1.456   4.344   3.546  0.2207  0.4782 -0.4586
 2139TIP3    H2 6424   1.417   4.367   3.402 -1.3379 -1.3607 -0.3657
 2140TIP3   OH2 6425   4.023   1.054   0.658 -0.1469  0.0130 -0.5403
 2140TIP3    H1 6426   3.985   1.137   0.629 -0.6224 -0.1276 -0.3407
 2140TIP3    H2 6427   4.016   0.997   0.582  0.6478  0.2986 -0.8410
 2141TIP3   OH2 6428   6.099   0.120   4.891  0.1938 -0.5909  0.1062
 2141TIP3    H1 6429   6.156   0.044   4.884  0.8917 -0.1245  0.6112
 2141TIP3    H2 6430   6.030   0.093   4.951 -2.3213 -2.4638 -3.2436
 2142TIP3   OH2 6431   0.577   1.116   3.863 -0.0524 -0.0935 -0.0132
 2142TIP3    H1 6432   0.611   1.042   3.812  0.2373 -0.4781  0.7338
 2142TIP3    H2 6433   0.629   1.191   3.834  0.0534 -0.2919 -0.3431
 2143TIP3   OH2 6434   4.274   1.129   0.145  0.2934  0.7986  0.0991
 2143TIP3    H1 6435   4.285   1.089   0.231 -0.4503  1.6171  0.5980
 2143TIP3    H2 6436   4.213   1.071   0.099  1.7538 -0.3894 -0.4112
 2144TIP3   OH2 6437   6.270   3.044   4.477  0.3851 -0.0683 -0.1509
 2144TIP3    H1 6438   6.175   3.056   4.477  0.4417  0.4678 -1.1861
 2144TIP3    H2 6439   6.305   3.132   4.464  1.0030 -0.3975 -0.7292
 2145TIP3   OH2 6440   5.830   4.477   0.378 -0.0141  0.1970 -0.0403
 2145TIP3    H1 6441   5.742   4.501   0.409 -0.0561 -0.4092  0.3310
 2145TIP3    H2 6442   5.887   4.492   0.454 -0.0543 -0.9268  0.2246
 2146TIP3   OH2 6443   0.649   4.176   1.211  0.4000  0.6285  0.5403
 2146TIP3    H1 6444   0.560   4.176   1.248  1.0000  1.2821  2.0430
 2146TIP3    H2 6445   0.682   4.264   1.226  1.3761  0.3423  0.1650
 2147TIP3   OH2 6446   5.449   0.849   3.724  0.3830  0.2590 -0.0081
 2147TIP3    H1 6447   5.506   0.925   3.736  0.3356  0.1273  1.1474
 2147TIP3    H2 6448   5.506   0.774   3.737  0.2219  0.1067 -0.1683
 2148TIP3   OH2 6449   4.765   1.220   5.067 -0.5883 -0.3737 -0.1431
 2148TIP3    H1 6450   4.787   1.127   5.071  0.2168 -0.1723  0.4991
 2148TIP3    H2 6451   4.849   1.263   5.049 -0.6126  0.3539  1.3618
 2149TIP3   OH2 6452   3.821   2.613   1.691 -0.1950  0.0715 -0.0585
 2149TIP3    H1 6453   3.913   2.591   1.706 -0.3789 -0.5449  0.2119
 2149TIP3    H2 6454   3.783   2.617   1.778 -0.7308 -1.0878 -0.2169
 2150TIP3   OH2 6455   3.782   0.559   4.304  0.2376  0.3140 -0.2744
 2150TIP3    H1 6456   3.816   0.627   4.362 -0.2981  2.0135 -1.8732
 2150TIP3    H2 6457   3.832   0.481   4.328 -0.9935  0.4652  3.4757
 2151TIP3   OH2 6458   1.716   5.893   2.386  0.0500 -0.1823 -0.2545
 2151TIP3    H1 6459   1.701   5.978   2.426 -0.5710 -0.2888 -0.2593
 2151TIP3    H2 6460   1.659   5.833   2.433  1.0378 -0.7421  0.2478
 2152TIP3   OH2 6461   3.255   3.009   1.888 -0.2090 -0.3085 -0.3730
 2152TIP3    H1 6462   3.330   3.003   1.948  0.2247  0.4808 -0.8243
 2152TIP3    H2 6463   3.223   2.919   1.881 -0.3591 -0.3967  1.1468
 2153TIP3   OH2 6464   6.115   1.871   1.788  0.0687 -0.1475  0.5966
 2153TIP3    H1 6465   6.037   1.818   1.772  1.6200 -2.0897 -1.1706
 2153TIP3    H2 6466   6.131   1.864   1.882 -1.3628 -0.4126  0.8406
 2154TIP3   OH2 6467   3.610   5.910   0.253  0.1821 -0.0939  0.0322
 2154TIP3    H1 6468   3.595   5.980   0.190  0.5611 -0.8443 -0.9198
 2154TIP3    H2 6469   3.559   5.836   0.220 -0.1287 -0.3087  0.9597
 2155TIP3   OH2 6470   5.808   1.817   4.779  0.8058  0.2204 -0.2746
 2155TIP3    H1 6471   5.861   1.793   4.703 -0.8281 -1.3440 -0.9736
 2155TIP3    H2 6472   5.719   1.794   4.755 -0.0761  1.6950  1.3247
 2156TIP3   OH2 6473   2.507   2.101   2.784 -0.2047  0.3965 -0.3731
 2156TIP3    H1 6474   2.564   2.050   2.841 -0.0171 -0.9461 -1.7185
 2156TIP3    H2 6475   2.517   2.062   2.697 -3.3132 -0.0500 -0.6486
 2157TIP3   OH2 6476   6.114   2.438   0.711  0.0688 -0.1383  0.4096
 2157TIP3    H1 6477   6.122   2.471   0.800 -1.6468  0.1303  0.4944
 2157TIP3    H2 6478   6.047   2.493   0.670  0.9741 -0.1079 -1.1314
 2158TIP3   OH2 6479   5.995   5.688   1.817  0.3253  0.1723  0.3833
 2158TIP3    H1 6480   6.024   5.644   1.897 -0.6606  0.1077  0.7246
 2158TIP3    H2 6481   6.037   5.774   1.820  1.5637 -0.4094  0.1545
 2159TIP3   OH2 6482   5.488   4.228   1.831  0.1576 -0.1484 -0.1624
 2159TIP3    H1 6483   5.575   4.267   1.839 -0.3588  0.9677  0.1961
 2159TIP3    H2 6484   5.463   4.246   1.740 -0.0299  0.2479 -0.0327
 2160TIP3   OH2 6485   0.492   2.749   0.417  0.2287 -0.1430  0.2452
 2160TIP3    H1 6486   0.514   2.666   0.458  0.7930 -0.3894 -0.5332
 2160TIP3    H2 6487   0.401   2.765   0.443 -0.7913 -2.2872 -1.6593
 2161TIP3   OH2 6488   5.045   1.629   0.358  0.1739 -0.4331 -0.1014
 2161TIP3    H1 6489   5.008   1.555   0.310  1.9424 -0.6516 -1.2271
 2161TIP3    H2 6490   5.114   1.591   0.412  0.8948  0.3340 -0.4646
 2162TIP3   OH2 6491   3.050   5.166   3.192  0.1581 -0.1538  0.3342
 2162TIP3    H1 6492   3.079   5.248   3.232 -0.4420 -0.4620  1.4488
 2162TIP3    H2 6493   2.959   5.158   3.219 -0.3593 -0.2489 -1.3553
 2163TIP3   OH2 6494   5.505   4.627   3.165  0.1332 -0.1933  0.2804
 2163TIP3    H1 6495   5.445   4.700   3.156  0.2025 -0.0581  0.8747
 2163TIP3    H2 6496   5.592   4.666   3.154  0.2376  0.0217  1.6413
 2164TIP3   OH2 6497   4.016   1.763   2.543  0.2579 -1.0032 -0.1281
 2164TIP3    H1 6498   3.996   1.802   2.457  2.1265 -0.8005 -0.5132
 2164TIP3    H2 6499   4.036   1.672   2.524 -0.5857 -1.2935  0.2998
 2165TIP3   OH2 6500   3.918   3.017   3.580 -0.3590 -0.2709  0.3166
 2165TIP3    H1 6501   3.968   3.091   3.616  1.7027 -1.1772 -0.5504
 2165TIP3    H2 6502   3.851   3.059   3.525 -0.1083  0.9786  0.9164
 2166TIP3   OH2 6503   3.385   2.566   0.863  0.2096  0.3963  0.5056
 2166TIP3    H1 6504   3.342   2.509   0.799  1.4526  0.3138 -0.2953
 2166TIP3    H2 6505   3.333   2.646   0.863  0.5736  0.6730 -1.1600
 2167TIP3   OH2 6506   3.385   2.237   2.050 -0.4848  0.3742 -0.3173
 2167TIP3    H1 6507   3.360   2.163   2.105  1.3087  1.5698  2.3148
 2167TIP3    H2 6508   3.307   2.293   2.051 -1.0599 -0.3984 -0.4113
 2168TIP3   OH2 6509   3.642   3.599   5.016 -0.2669  0.1253  0.6363
 2168TIP3    H1 6510   3.583   3.652   5.069 -2.0208 -0.5058 -0.5626
 2168TIP3    H2 6511   3.594   3.516   5.003  2.0023 -1.4432  1.7386
 2169TIP3   OH2 6512   3.049   5.060   1.455 -0.0687  0.3510 -0.4215
 2169TIP3    H1 6513   3.108   5.052   1.381  2.3838 -0.4849  1.5077
 2169TIP3    H2 6514   3.106   5.072   1.531 -2.3684 -0.5493  1.5828
 2170TIP3   OH2 6515   5.360   3.786   0.198  0.4096 -0.7835  0.0060
 2170TIP3    H1 6516   5.282   3.743   0.234  0.6103 -0.8837  0.3291
 2170TIP3    H2 6517   5.353   3.876   0.228  1.1899 -1.1403  1.3400
 2171TIP3   OH2 6518   5.042   1.901   0.244 -0.1397  0.0527 -0.3412
 2171TIP3    H1 6519   5.060   1.814   0.281  0.8117 -0.1436 -1.2006
 2171TIP3    H2 6520   5.063   1.962   0.315 -0.9220 -0.4234  0.3033
 2172TIP3   OH2 6521   0.853   4.393   3.948 -0.1909 -0.0901  0.1663
 2172TIP3    H1 6522   0.868   4.307   3.909  1.4177 -0.3596  1.3058
 2172TIP3    H2 6523   0.853   4.453   3.873  1.2106 -0.7830 -0.4239
 2173TIP3   OH2 6524   5.736   1.937   0.223 -0.8880  0.2449  0.4867
 2173TIP3    H1 6525   5.724   2.017   0.173  0.9535 -0.6022 -1.4575
 2173TIP3    H2 6526   5.766   1.873   0.159 -0.1161 -1.3892  2.3804
 2174TIP3   OH2 6527   2.225   3.833   4.736 -0.4496 -0.7444 -0.3477
 2174TIP3    H1 6528   2.204   3.862   4.825  0.7334 -1.5172  0.2157
 2174TIP3    H2 6529   2.237   3.738   4.744 -0.7322 -0.8827 -1.4196
 2175TIP3   OH2 6530   4.135   5.544   0.653 -0.1986  0.2117 -0.2506
 2175TIP3    H1 6531   4.136   5.465   0.599  0.5895  0.5313 -0.7297
 2175TIP3    H2 6532   4.053   5.539   0.702 -0.4944 -0.5430 -0.8026
 2176TIP3   OH2 6533   2.458   1.812   0.717 -0.0859  0.2436 -0.5992
 2176TIP3    H1 6534   2.405   1.746   0.672  0.6103 -1.0993  0.4877
 2176TIP3    H2 6535   2.545   1.805   0.676 -0.4731  1.8480 -1.7899
 2177TIP3   OH2 6536   1.002   0.576   0.409  0.1603  0.0847 -0.1675
 2177TIP3    H1 6537   0.909   0.590   0.425  0.1032 -0.3655 -0.0919
 2177TIP3    H2 6538   1.038   0.551   0.494  0.4823  0.9190 -0.0479
 2178TIP3   OH2 6539   5.225   5.398   1.383  0.4044 -0.2205  0.6802
 2178TIP3    H1 6540   5.141   5.359   1.404  0.1982 -0.2797 -0.2017
 2178TIP3    H2 6541   5.205   5.465   1.317  0.7216  1.5391  2.2817
 2179TIP3   OH2 6542   6.348   3.757   2.939 -0.1018  0.2989 -0.4241
 2179TIP3    H1 6543   6.264   3.793   2.965 -0.3824 -2.0298  2.3554
 2179TIP3    H2 6544   6.408   3.780   3.010  1.0759  0.0749 -1.3041
 2180TIP3   OH2 6545   1.265   1.071   0.904  0.3824 -0.0851  0.1552
 2180TIP3    H1 6546   1.281   0.991   0.854 -0.0200 -0.6415  0.8976
 2180TIP3    H2 6547   1.350   1.092   0.943  0.8512  0.7008 -1.2315
 2181TIP3   OH2 6548   5.781   4.597   3.487  0.1611  0.5616  0.0695
 2181TIP3    H1 6549   5.709   4.651   3.455 -0.3867  0.8699  1.7644
 2181TIP3    H2 6550   5.763   4.585   3.580  2.2765  0.5892  0.5255
 2182TIP3   OH2 6551   2.347   5.877   4.950 -0.0605  0.4066 -0.5476
 2182TIP3    H1 6552   2.274   5.846   5.003 -0.1106  0.2019 -0.7359
 2182TIP3    H2 6553   2.336   5.972   4.948  0.6783  0.5515  0.8850
 2183TIP3   OH2 6554   4.002   4.585   3.976 -0.3802 -0.3734  0.4346
 2183TIP3    H1 6555   4.084   4.560   4.019  1.3223  0.0961 -2.2582
 2183TIP3    H2 6556   4.004   4.680   3.974 -0.5250 -0.3751 -0.3587
 2184TIP3   OH2 6557   6.084   1.015   3.444  0.2694  0.0273 -0.5666
 2184TIP3    H1 6558   6.100   0.950   3.513 -1.3060 -0.1822 -0.3651
 2184TIP3    H2 6559   6.098   0.967   3.363  1.7645  0.1777 -0.4370
 2185TIP3   OH2 6560   3.266   2.892   1.416 -0.1008  0.7133 -0.5450
 2185TIP3    H1 6561   3.229   2.804   1.425  0.4786  0.4550 -0.6245
 2185TIP3    H2 6562   3.216   2.932   1.345 -0.4604  0.4945 -0.4150
 2186TIP3   OH2 6563   3.685   2.847   3.684 -0.3650  0.2114  0.1945
 2186TIP3    H1 6564   3.749   2.915   3.662 -0.3830  0.0072 -0.4938
 2186TIP3    H2 6565   3.616   2.855   3.618  1.3767 -2.8546 -2.2540
 2187TIP3   OH2 6566   5.885   2.188   3.056 -0.3074 -0.1833 -0.4201
 2187TIP3    H1 6567   5.790   2.185   3.052 -0.4191 -0.7429  1.6475
 2187TIP3    H2 6568   5.905   2.211   3.146  1.5316  1.2709 -1.1439
 2188TIP3   OH2 6569   3.789   5.771   1.402 -0.1720  0.2179 -0.0036
 2188TIP3    H1 6570   3.820   5.756   1.312  0.9799 -0.6007  0.5034
 2188TIP3    H2 6571   3.779   5.683   1.438  2.1126  0.5179  1.5439
 2189TIP3   OH2 6572   1.133   4.519   1.788  0.7074 -0.6244 -0.7404
 2189TIP3    H1 6573   1.077   4.596   1.772  2.0107  0.5541  0.1281
 2189TIP3    H2 6574   1.113   4.494   1.878  1.2502 -0.4793 -0.5805
 2190TIP3   OH2 6575   2.978   2.467   1.048  0.1467  0.3026  0.0645
 2190TIP3    H1 6576   2.919   2.451   1.122 -0.5315 -0.2078 -0.5676
 2190TIP3    H2 6577   2.985   2.382   1.005 -1.6885  1.1047 -2.0496
 2191TIP3   OH2 6578   4.108   1.222   4.223 -0.5481 -0.5180  0.2464
 2191TIP3    H1 6579   4.063   1.140   4.200 -1.6302  0.2578 -0.4885
 2191TIP3    H2 6580   4.081   1.239   4.314 -2.6384  0.4533 -0.4891
 2192TIP3   OH2 6581   5.357   5.452   5.027 -0.3804  0.6897  0.7080
 2192TIP3    H1 6582   5.374   5.421   4.938 -0.1473  0.9416  0.6644
 2192TIP3    H2 6583   5.264   5.433   5.041 -0.4431  0.7384  0.3729
 2193TIP3   OH2 6584   4.888   3.440   1.249  0.2136  0.1354  0.0836
 2193TIP3    H1 6585   4.950   3.443   1.176  0.5176 -1.2919  0.2516
 2193TIP3    H2 6586   4.824   3.373   1.224  1.5426 -1.9939  2.0077
 2194TIP3   OH2 6587   2.384   5.397   2.227 -0.0607 -0.1523  0.5648
 2194TIP3    H1 6588   2.304   5.442   2.251 -0.5037 -0.7851  0.3136
 2194TIP3    H2 6589   2.430   5.458   2.169 -0.9268 -0.2464 -0.2411
 2195TIP3   OH2 6590   4.917   5.798   4.202 -0.0051 -0.0378 -0.6992
 2195TIP3    H1 6591   4.905   5.807   4.108 -2.3650 -0.1020 -0.4513
 2195TIP3    H2 6592   4.975   5.871   4.225  0.3920  0.1372 -2.1377
 2196TIP3   OH2 6593   1.464   0.656   4.449  0.2385 -0.0124  0.0607
 2196TIP3    H1 6594   1.553   0.670   4.482  0.2107  0.5608 -0.0833
 2196TIP3    H2 6595   1.471   0.579   4.392  1.1182  1.2436 -1.6327
 2197TIP3   OH2 6596   4.779   3.057   2.504  0.2533  0.3964 -0.0488
 2197TIP3    H1 6597   4.847   3.054   2.570  0.1930 -0.3012 -0.0126
 2197TIP3    H2 6598   4.699   3.075   2.553  0.3117  0.5686 -0.0154
 2198TIP3   OH2 6599   2.085   3.586   1.253 -0.1810 -0.0162  0.1823
 2198TIP3    H1 6600   2.041   3.581   1.338 -0.2181  0.6662  0.2077
 2198TIP3    H2 6601   2.175   3.612   1.274  0.5625 -2.4122  0.2202
 2199TIP3   OH2 6602   4.799   4.403   1.816 -0.4930  0.3636 -0.7681
 2199TIP3    H1 6603   4.881   4.392   1.864 -0.0240  2.8929 -0.8995
 2199TIP3    H2 6604   4.737   4.346   1.863  0.5209  0.9609  1.4432
 2200TIP3   OH2 6605   5.244   2.969   1.278  0.3476 -0.1356  0.0929
 2200TIP3    H1 6606   5.268   2.907   1.210 -0.9792 -3.3484  2.3266
 2200TIP3    H2 6607   5.155   2.996   1.256  0.5555  0.1962 -0.3467
 2201TIP3   OH2 6608   5.838   0.174   1.870 -0.0451 -0.1686 -0.5498
 2201TIP3    H1 6609   5.846   0.269   1.858  2.5881 -0.4362 -1.8315
 2201TIP3    H2 6610   5.853   0.160   1.963  3.0260  0.5354 -0.8345
 2202TIP3   OH2 6611   4.330   5.925   2.076 -0.0125  0.1723 -0.2745
 2202TIP3    H1 6612   4.244   5.953   2.044 -0.3914 -0.0621  0.4985
 2202TIP3    H2 6613   4.387   6.001   2.064 -0.6981  0.8299  0.5776
 2203TIP3   OH2 6614   3.544   2.850   2.735  0.4602  0.0786 -0.7043
 2203TIP3    H1 6615   3.624   2.897   2.711 -0.7002  2.6387  0.1769
 2203TIP3    H2 6616   3.481   2.875   2.667 -0.0248 -0.7366 -0.5616
 2204TIP3   OH2 6617   3.267   2.826   0.868  0.0430  0.0330  0.5652
 2204TIP3    H1 6618   3.326   2.900   0.857 -0.1559  0.1243  0.0497
 2204TIP3    H2 6619   3.190   2.863   0.912  0.2206 -0.0086  0.9093
 2205TIP3   OH2 6620   2.127   3.659   1.816  0.2228  0.2884 -0.7645
 2205TIP3    H1 6621   2.063   3.626   1.879  0.5712 -0.2632 -0.6889
 2205TIP3    H2 6622   2.110   3.753   1.811 -1.3476  0.0101 -1.6025
 2206TIP3   OH2 6623   2.181   2.746   0.173  0.3513  0.5459  0.0816
 2206TIP3    H1 6624   2.197   2.825   0.121 -0.0556  0.9889  0.6194
 2206TIP3    H2 6625   2.266   2.702   0.176 -0.1643 -1.0642 -3.4266
 2207TIP3   OH2 6626   4.230   5.015   4.659  0.0730  0.2148 -0.2335
 2207TIP3    H1 6627   4.311   5.017   4.609 -0.0509  0.6990 -0.4141
 2207TIP3    H2 6628   4.253   5.048   4.745  0.4634 -1.3662  0.3051
 2208TIP3   OH2 6629   1.357   4.052   3.825  0.1777 -0.4325 -0.1738
 2208TIP3    H1 6630   1.424   4.107   3.784  1.5561 -1.8303  0.1270
 2208TIP3    H2 6631   1.345   4.090   3.912  0.6614 -0.2259 -0.1939
 2209TIP3   OH2 6632   3.214   0.678   2.849 -0.1696 -0.5982  0.2365
 2209TIP3    H1 6633   3.287   0.738   2.864  0.3540 -0.8205 -1.3068
 2209TIP3    H2 6634   3.142   0.715   2.900  0.3286  0.9857 -0.1681
 2210TIP3   OH2 6635   4.629   2.384   5.070  0.4232  0.2456 -0.4773
 2210TIP3    H1 6636   4.586   2.315   5.120  1.3615 -0.3646 -0.4900
 2210TIP3    H2 6637   4.633   2.459   5.129 -0.0710  0.1047 -0.2612
 2211TIP3   OH2 6638   3.120   1.155   3.512  0.5519 -0.2363 -0.3328
 2211TIP3    H1 6639   3.184   1.097   3.471  1.1920  0.3877 -0.2300
 2211TIP3    H2 6640   3.036   1.125   3.478  1.0003 -0.2407 -1.4678
 2212TIP3   OH2 6641   1.699   1.475   4.934  0.0734 -0.0855 -0.5666
 2212TIP3    H1 6642   1.745   1.398   4.967 -1.5457 -1.0692 -0.5034
 2212TIP3    H2 6643   1.613   1.442   4.907 -0.9622  1.8260  0.1951
 2213TIP3   OH2 6644   2.284   2.885   3.355 -0.4510  0.2517  0.7984
 2213TIP3    H1 6645   2.271   2.907   3.447  1.2741  0.3996  1.0320
 2213TIP3    H2 6646   2.320   2.797   3.356 -2.3034 -0.5668  0.1270
 2214TIP3   OH2 6647   6.049   3.584   2.137  0.2887 -0.4769  0.3156
 2214TIP3    H1 6648   6.081   3.652   2.078 -0.2347 -0.8269 -0.3968
 2214TIP3    H2 6649   5.958   3.609   2.155  0.0932 -0.9755  0.0475
 2215TIP3   OH2 6650   6.135   2.638   4.976 -0.2976 -0.1064 -0.1111
 2215TIP3    H1 6651   6.072   2.599   4.915  0.1585 -1.0175 -0.0237
 2215TIP3    H2 6652   6.092   2.632   5.062 -0.7314  0.7193 -0.2568
 2216TIP3   OH2 6653   2.391   0.530   2.536  0.1162 -0.2424 -0.5147
 2216TIP3    H1 6654   2.423   0.546   2.448 -1.2741 -2.1012 -1.4293
 2216TIP3    H2 6655   2.470   0.529   2.591  0.9019  2.0540 -1.4905
 2217TIP3   OH2 6656   5.690   0.141   1.399 -0.2663 -0.1565 -0.1015
 2217TIP3    H1 6657   5.620   0.099   1.349 -0.0691 -0.5896 -0.0167
 2217TIP3    H2 6658   5.650   0.220   1.435 -1.1362 -1.1031  1.1234
 2218TIP3   OH2 6659   1.513   5.941   3.851 -0.3852 -0.5463 -0.4654
 2218TIP3    H1 6660   1.463   5.909   3.775 -0.4361  0.1022 -0.7107
 2218TIP3    H2 6661   1.446   5.967   3.915 -0.3869  0.4877 -0.8623
 2219TIP3   OH2 6662   5.046   0.359   1.182 -0.2621  0.4888  0.2122
 2219TIP3    H1 6663   5.102   0.433   1.160 -0.2957  0.7947  1.1000
 2219TIP3    H2 6664   5.107   0.285   1.190 -0.1622  0.5294 -0.1587
 2220TIP3   OH2 6665   1.757   0.057   1.141  0.3975  0.2296 -0.3537
 2220TIP3    H1 6666   1.739  -0.006   1.071 -0.2647  1.2472 -1.1410
 2220TIP3    H2 6667   1.674   0.065   1.188  0.4264  0.6406 -0.3681
 2221TIP3   OH2 6668   0.385   3.405   2.417  0.4716 -0.3206  0.0847
 2221TIP3    H1 6669   0.350   3.342   2.481 -0.5825 -2.0480 -2.0539
 2221TIP3    H2 6670   0.451   3.355   2.368 -0.2701  0.2560 -1.5681
 2222TIP3   OH2 6671   2.748   2.986   0.379  0.1908  0.2617 -0.6863
 2222TIP3    H1 6672   2.844   2.985   0.372  0.1598 -0.3510 -1.1038
 2222TIP3    H2 6673   2.729   2.949   0.465  0.3014 -0.6524 -1.0429
 2223TIP3   OH2 6674   2.943   5.911   4.900  0.1701  0.0977 -0.3200
 2223TIP3    H1 6675   2.975   5.867   4.822  1.0221 -1.4497  0.8490
 2223TIP3    H2 6676   2.902   5.842   4.952 -0.0363  1.0095  0.7760
 2224TIP3   OH2 6677   0.506   5.370   0.641 -0.2298  0.3527 -0.3849
 2224TIP3    H1 6678   0.468   5.291   0.603  1.1829 -1.5070  1.8258
 2224TIP3    H2 6679   0.431   5.428   0.654 -1.7119 -1.5743  0.1685
 2225TIP3   OH2 6680   6.073   4.470   3.128 -0.1944  0.3908  0.2141
 2225TIP3    H1 6681   6.166   4.456   3.145  0.1589  1.3934 -0.7689
 2225TIP3    H2 6682   6.038   4.383   3.111  0.7268  0.0895 -0.1805
 2226TIP3   OH2 6683   2.270   2.469   0.009  0.0109 -0.2498  0.5434
 2226TIP3    H1 6684   2.327   2.505   0.077 -1.2713  1.2196  0.9208
 2226TIP3    H2 6685   2.237   2.387   0.046  1.0416 -0.5807  0.7474
 2227TIP3   OH2 6686   5.551   0.169   4.901 -0.2692 -0.1210 -0.0624
 2227TIP3    H1 6687   5.475   0.111   4.907 -2.2446  2.4059  1.3267
 2227TIP3    H2 6688   5.605   0.144   4.977 -0.7471 -0.5653  0.1428
 2228TIP3   OH2 6689   4.728   0.802   0.119  0.0731 -0.0788  0.4154
 2228TIP3    H1 6690   4.713   0.878   0.175  0.1264 -0.4106  0.8871
 2228TIP3    H2 6691   4.816   0.772   0.144  0.4221  0.2418 -0.4055
 2229TIP3   OH2 6692   2.520   3.459   4.461 -0.3875  0.1342 -0.1409
 2229TIP3    H1 6693   2.559   3.503   4.536 -0.3043 -0.7981  0.3748
 2229TIP3    H2 6694   2.433   3.432   4.491 -0.3074 -0.3509 -0.3272
 2230TIP3   OH2 6695   4.639   2.823   3.532  0.0920 -0.0662 -0.6389
 2230TIP3    H1 6696   4.568   2.860   3.584  1.6060  0.7995  0.8834
 2230TIP3    H2 6697   4.684   2.763   3.592  1.4498  0.4185 -1.1425
 2231TIP3   OH2 6698   2.247   5.947   3.446 -0.2303  0.0214 -0.1421
 2231TIP3    H1 6699   2.269   5.976   3.535 -0.7397  0.4832 -0.1592
 2231TIP3    H2 6700   2.225   6.028   3.399 -0.8511 -0.3040 -0.4281
 2232TIP3   OH2 6701   2.566   0.539   1.760 -0.3702 -0.0047  0.0062
 2232TIP3    H1 6702   2.490   0.576   1.715 -0.8034  1.7717  2.0068
 2232TIP3    H2 6703   2.549   0.445   1.761 -0.1371 -0.2160 -3.6976
 2233TIP3   OH2 6704   2.535   4.400   2.765 -0.3346 -0.0988 -0.6163
 2233TIP3    H1 6705   2.595   4.443   2.704 -2.9963  1.4893 -2.3188
 2233TIP3    H2 6706   2.563   4.308   2.766  1.3032  0.3182 -2.2890
 2234TIP3   OH2 6707   5.382   0.219   2.687  0.0389 -0.5680  0.3433
 2234TIP3    H1 6708   5.387   0.312   2.664 -0.6054 -0.9660 -1.5153
 2234TIP3    H2 6709   5.428   0.213   2.771  2.1474  1.0465 -0.5960
 2235TIP3   OH2 6710   4.835   2.517   2.824  0.5658 -0.2785 -0.3332
 2235TIP3    H1 6711   4.821   2.488   2.914 -0.8873 -0.2342 -0.5155
 2235TIP3    H2 6712   4.766   2.472   2.774  0.1847  1.1145 -1.1077
 2236TIP3   OH2 6713   4.452   5.406   3.817  0.3069 -0.3742  0.3100
 2236TIP3    H1 6714   4.453   5.501   3.805 -0.7582 -0.5202 -1.2807
 2236TIP3    H2 6715   4.367   5.388   3.856  0.0131 -0.7653 -0.4900
 2237TIP3   OH2 6716   4.975   4.567   0.677 -0.2926 -0.3544 -0.5518
 2237TIP3    H1 6717   4.956   4.593   0.767  0.8012  0.1462 -0.4463
 2237TIP3    H2 6718   4.909   4.611   0.624  1.6757  3.0924 -0.4376
 2238TIP3   OH2 6719   4.260   1.294   5.145 -0.2534 -0.7918 -0.4358
 2238TIP3    H1 6720   4.336   1.278   5.089 -1.1478 -1.1173 -1.5940
 2238TIP3    H2 6721   4.211   1.363   5.101 -0.3184 -0.1320  0.6318
 2239TIP3   OH2 6722   5.627   2.616   1.975  0.0774  0.2677 -0.3911
 2239TIP3    H1 6723   5.593   2.699   2.010 -0.8502 -0.2245 -0.0875
 2239TIP3    H2 6724   5.568   2.595   1.903 -0.8596 -1.0401  0.6847
 2240TIP3   OH2 6725   6.206   0.376   0.060  0.3061 -0.1719  0.4615
 2240TIP3    H1 6726   6.186   0.321  -0.016 -0.6858  0.8398 -0.0327
 2240TIP3    H2 6727   6.216   0.314   0.132 -1.3966 -0.9916  0.0424
 2241TIP3   OH2 6728   4.358   3.933   4.677 -0.0641  0.1327  0.0731
 2241TIP3    H1 6729   4.428   3.892   4.626  0.3734  0.7413  0.1754
 2241TIP3    H2 6730   4.317   3.994   4.617 -0.3471 -0.0379  0.0904
 2242TIP3   OH2 6731   1.437   2.353   2.168 -0.5013 -0.2338  0.1115
 2242TIP3    H1 6732   1.443   2.258   2.157 -1.5928 -0.2932 -0.0812
 2242TIP3    H2 6733   1.522   2.379   2.204  0.9226 -0.9030 -2.4535
 2243TIP3   OH2 6734   5.374   5.755   4.815  0.5514  0.2871  0.0926
 2243TIP3    H1 6735   5.401   5.733   4.903 -1.2981 -0.5420  0.5140
 2243TIP3    H2 6736   5.432   5.704   4.758  0.0271 -1.3054  0.9243
 2244TIP3   OH2 6737   1.447   5.136   2.157 -0.0251  0.7834  0.1278
 2244TIP3    H1 6738   1.453   5.229   2.136  0.0627  0.4687 -1.3731
 2244TIP3    H2 6739   1.405   5.097   2.081  0.1670 -0.4493  0.6267
 2245TIP3   OH2 6740   5.756   0.764   2.165  0.1200 -0.4024  0.2140
 2245TIP3    H1 6741   5.836   0.811   2.142  0.3910 -0.5610  0.8167
 2245TIP3    H2 6742   5.764   0.679   2.121 -0.3266  0.0532 -0.7991
 2246TIP3   OH2 6743   2.126   5.534   0.444 -0.1022  0.4092 -0.2229
 2246TIP3    H1 6744   2.050   5.491   0.484 -0.3373  0.0280 -1.0592
 2246TIP3    H2 6745   2.088   5.600   0.386  0.2466  1.2702  0.5022
 2247TIP3   OH2 6746   2.133   2.708   4.404  0.0906 -0.4165  1.4151
 2247TIP3    H1 6747   2.071   2.750   4.462 -0.0889  0.0078  0.9257
 2247TIP3    H2 6748   2.185   2.780   4.367 -1.8597 -0.2827 -1.3743
 2248TIP3   OH2 6749   5.081   0.694   3.490 -1.2234 -0.4532  0.1444
 2248TIP3    H1 6750   5.124   0.778   3.504 -2.7447  0.1125  1.8264
 2248TIP3    H2 6751   4.996   0.716   3.450 -0.9309 -1.3513 -1.0352
 2249TIP3   OH2 6752   5.889   3.892   4.547 -0.5813 -0.1692 -0.1661
 2249TIP3    H1 6753   5.845   3.859   4.469  0.0732 -0.1571 -0.5560
 2249TIP3    H2 6754   5.834   3.865   4.620 -2.0718  1.2415 -0.7259
 2250TIP3   OH2 6755   3.151   1.954   1.379 -0.3733  0.1161  0.0834
 2250TIP3    H1 6756   3.096   1.971   1.303  0.3436  0.1124 -0.4396
 2250TIP3    H2 6757   3.205   2.032   1.387 -0.5315  0.1702  0.6690
 2251TIP3   OH2 6758   1.638   1.882   1.244 -0.3221  0.5046  0.4483
 2251TIP3    H1 6759   1.724   1.853   1.275 -1.1876 -3.4057 -0.1973
 2251TIP3    H2 6760   1.649   1.896   1.150 -0.5749 -1.4719  0.0673
 2252TIP3   OH2 6761   1.017   1.015   0.217  0.2419 -0.1432 -0.4264
 2252TIP3    H1 6762   1.025   0.948   0.284 -1.8878 -0.0815 -0.0158
 2252TIP3    H2 6763   1.103   1.020   0.176  1.5373 -0.3810  2.1007
 2253TIP3   OH2 6764   6.262   2.606   3.221 -0.1627 -0.0730 -0.0767
 2253TIP3    H1 6765   6.176   2.563   3.228  0.8434 -2.0422  0.8815
 2253TIP3    H2 6766   6.267   2.662   3.298 -0.4971 -0.0858 -0.0423
 2254TIP3   OH2 6767   1.382   1.199   4.500  0.0551 -0.4106  0.6093
 2254TIP3    H1 6768   1.333   1.185   4.582  0.6388 -2.7687  0.6298
 2254TIP3    H2 6769   1.457   1.252   4.526 -0.7248  0.4320  1.2208
 2255TIP3   OH2 6770   0.594   2.221   2.252  0.2820  0.2663  0.3489
 2255TIP3    H1 6771   0.611   2.127   2.250 -0.3241  0.1055  1.5180
 2255TIP3    H2 6772   0.680   2.262   2.246  0.4433 -0.3008 -1.8476
 2256TIP3   OH2 6773   4.996   5.695   2.471  0.0618  0.0505  0.0470
 2256TIP3    H1 6774   4.942   5.619   2.493 -1.7912  1.0296 -0.8864
 2256TIP3    H2 6775   5.032   5.674   2.384  0.1731 -0.0820  0.1249
 2257TIP3   OH2 6776   4.493   0.790   2.744 -0.1519 -0.5016 -0.6948
 2257TIP3    H1 6777   4.478   0.849   2.670  1.7486  0.5921 -0.2602
 2257TIP3    H2 6778   4.473   0.703   2.710  2.0301 -0.2097 -2.9967
 2258TIP3   OH2 6779   4.852   5.227   0.673  0.5128  0.4387  0.2768
 2258TIP3    H1 6780   4.781   5.287   0.696 -0.4664 -0.8250  0.6302
 2258TIP3    H2 6781   4.809   5.154   0.630  1.5598 -0.5051  0.7980
 2259TIP3   OH2 6782   3.475   3.840   1.327 -0.2649 -0.0169  0.3368
 2259TIP3    H1 6783   3.504   3.782   1.257 -0.0214  2.0281 -1.3693
 2259TIP3    H2 6784   3.388   3.808   1.350  0.5340 -2.0830  0.7186
 2260TIP3   OH2 6785   6.114   5.817   4.376  0.7982 -0.5407  0.0463
 2260TIP3    H1 6786   6.125   5.909   4.401  0.3306 -0.9190  1.7670
 2260TIP3    H2 6787   6.111   5.770   4.459 -0.4378 -1.9514 -0.7458
 2261TIP3   OH2 6788   0.905   0.661   3.651  0.0987 -0.1929 -0.4523
 2261TIP3    H1 6789   0.880   0.736   3.706 -1.1243 -1.1009  0.2810
 2261TIP3    H2 6790   0.957   0.605   3.709  1.7988  0.4882 -1.2603
 2262TIP3   OH2 6791   5.683   5.478   2.141  0.0697 -0.4950  0.5916
 2262TIP3    H1 6792   5.755   5.448   2.196 -0.0750 -2.4232 -0.1955
 2262TIP3    H2 6793   5.725   5.520   2.066  0.5301 -3.1175 -0.7274
 2263TIP3   OH2 6794   3.019   1.226   0.199  0.2429  0.0212  0.3198
 2263TIP3    H1 6795   3.083   1.161   0.228  1.3879  0.7944 -0.3907
 2263TIP3    H2 6796   3.070   1.288   0.147 -0.9354  1.1604  0.4801
 2264TIP3   OH2 6797   3.833   1.031   4.438 -0.0109 -0.1937 -0.1637
 2264TIP3    H1 6798   3.914   1.082   4.435  0.2350 -0.5812 -0.2438
 2264TIP3    H2 6799   3.787   1.064   4.515 -0.9538  1.7669 -1.4882
 2265TIP3   OH2 6800   1.320   2.578   0.633  0.3647  0.3345  0.0140
 2265TIP3    H1 6801   1.249   2.520   0.661  1.3596 -1.2779 -0.6251
 2265TIP3    H2 6802   1.317   2.575   0.538  1.1338  0.4189 -0.0212
 2266TIP3   OH2 6803   3.712   4.127   4.509 -0.8147 -0.5116  0.1442
 2266TIP3    H1 6804   3.675   4.174   4.433 -1.0305 -1.9526 -0.6691
 2266TIP3    H2 6805   3.806   4.127   4.494 -0.5646  1.5086  1.2648
 2267TIP3   OH2 6806   2.802   4.316   4.717  0.4003 -0.4920 -0.3751
 2267TIP3    H1 6807   2.781   4.356   4.632 -1.3757 -2.5847 -1.0336
 2267TIP3    H2 6808   2.897   4.322   4.724  0.6509 -0.6753 -2.7677
 2268TIP3   OH2 6809   3.495   4.443   4.463  0.2069 -0.4458 -0.4293
 2268TIP3    H1 6810   3.504   4.524   4.514 -0.6146 -1.0302  0.7115
 2268TIP3    H2 6811   3.441   4.468   4.388 -0.2173  0.0361  0.0258
 2269TIP3   OH2 6812   4.536   5.836   0.559 -0.0469  0.0006 -0.4823
 2269TIP3    H1 6813   4.490   5.757   0.530 -1.2186  0.6851 -0.5623
 2269TIP3    H2 6814   4.469   5.905   0.556  0.0768  0.3953  2.5758
 2270TIP3   OH2 6815   1.836   4.515   3.261  0.2030 -0.0984  0.2699
 2270TIP3    H1 6816   1.817   4.468   3.179 -0.0664  0.0297  0.2563
 2270TIP3    H2 6817   1.901   4.581   3.236 -0.6313  0.6157 -0.0643
 2271TIP3   OH2 6818   0.706   5.648   1.720 -0.1423 -0.9151 -0.1259
 2271TIP3    H1 6819   0.735   5.561   1.693 -0.2309 -1.3263  1.0725
 2271TIP3    H2 6820   0.721   5.651   1.814  0.2088  0.5124 -0.2009
 2272TIP3   OH2 6821   4.262   1.638   0.476  0.5190  0.0041  0.2605
 2272TIP3    H1 6822   4.322   1.611   0.406 -1.2245  0.7359 -1.5860
 2272TIP3    H2 6823   4.175   1.632   0.438 -0.5764 -0.1479  2.5867
 2273TIP3   OH2 6824   5.336   1.012   4.512  0.1414  0.1623 -0.1008
 2273TIP3    H1 6825   5.402   0.943   4.507 -0.2944 -0.4185  1.5635
 2273TIP3    H2 6826   5.309   1.013   4.603 -0.7288  1.7491 -0.3403
 2274TIP3   OH2 6827   1.337   2.363   1.869 -0.0150  0.4568  0.1055
 2274TIP3    H1 6828   1.328   2.269   1.851  0.1239  0.6584 -1.1306
 2274TIP3    H2 6829   1.431   2.375   1.883 -0.0383  0.4044  0.3073
 2275TIP3   OH2 6830   1.871   5.680   1.454  0.2140 -0.6037  0.4443
 2275TIP3    H1 6831   1.809   5.630   1.399 -0.1564  0.6669 -0.3334
 2275TIP3    H2 6832   1.957   5.652   1.424  0.0337 -1.7508  0.9388
 2276TIP3   OH2 6833   1.301   1.908   2.991 -0.3878  0.4998 -0.3875
 2276TIP3    H1 6834   1.215   1.891   3.030 -0.8213 -0.0547 -1.5219
 2276TIP3    H2 6835   1.335   1.821   2.968 -0.7764  0.8303 -2.4494
 2277TIP3   OH2 6836   2.834   3.578   2.427  0.5660  0.3253  0.1076
 2277TIP3    H1 6837   2.874   3.571   2.514  1.8845 -0.1203 -0.5080
 2277TIP3    H2 6838   2.759   3.519   2.431  2.0652 -1.7011  0.1843
 2278TIP3   OH2 6839   0.257   3.158   3.172 -0.0886 -0.3080 -0.3532
 2278TIP3    H1 6840   0.208   3.092   3.221 -1.0430  0.9531  0.4410
 2278TIP3    H2 6841   0.215   3.241   3.193 -0.1685  0.3839 -2.8811
 2279TIP3   OH2 6842   1.565   2.087   2.027  0.5072  0.5560 -0.1820
 2279TIP3    H1 6843   1.478   2.084   2.066  0.2553  0.5782 -0.7387
 2279TIP3    H2 6844   1.561   2.161   1.965  0.1578 -0.9206 -2.0047
 2280TIP3   OH2 6845   3.253   3.353   0.852  0.2915 -0.6143 -0.4357
 2280TIP3    H1 6846   3.224   3.394   0.933 -0.1167  1.2215 -1.4449
 2280TIP3    H2 6847   3.348   3.363   0.851  0.1807  0.5381 -0.7529
 2281TIP3   OH2 6848   0.303   0.597   1.558  0.0054  0.4891 -0.3191
 2281TIP3    H1 6849   0.321   0.536   1.630 -1.2704  1.9291  1.2951
 2281TIP3    H2 6850   0.389   0.629   1.532  0.5583 -0.6971 -0.0406
 2282TIP3   OH2 6851   2.170   4.190   0.583 -0.0335 -0.3125 -0.7901
 2282TIP3    H1 6852   2.085   4.209   0.621  0.0935 -0.8738 -0.2146
 2282TIP3    H2 6853   2.229   4.183   0.658  0.5529  0.2385 -1.1926
 2283TIP3   OH2 6854   5.400   5.134   1.342 -0.3342  0.2512  0.4729
 2283TIP3    H1 6855   5.351   5.066   1.296 -0.6207  1.6021 -1.3694
 2283TIP3    H2 6856   5.338   5.207   1.351  0.4427  0.8883  0.8480
 2284TIP3   OH2 6857   4.976   4.402   2.378  0.0638 -0.2483  1.2175
 2284TIP3    H1 6858   4.961   4.495   2.395  2.4620  0.7137 -1.2740
 2284TIP3    H2 6859   4.915   4.380   2.307  0.2873 -0.2496  1.0233
 2285TIP3   OH2 6860   1.315   5.746   4.223  0.2429 -0.2041 -0.8192
 2285TIP3    H1 6861   1.398   5.703   4.244 -0.2482 -0.6883  0.1887
 2285TIP3    H2 6862   1.340   5.833   4.192  1.1466 -0.5226 -1.0231
 2286TIP3   OH2 6863   5.099   4.818   0.821 -0.3049  0.4445 -0.0185
 2286TIP3    H1 6864   5.022   4.783   0.865 -1.8785  1.3284 -1.9021
 2286TIP3    H2 6865   5.086   4.913   0.821  1.6214  0.7705  1.0248
 2287TIP3   OH2 6866   3.503   4.565   4.165 -0.6255  0.5693  0.2369
 2287TIP3    H1 6867   3.435   4.629   4.144 -1.8517 -0.3258  1.3116
 2287TIP3    H2 6868   3.576   4.617   4.198 -0.4799  1.6066 -1.5835
 2288TIP3   OH2 6869   5.305   2.196   0.604 -0.3872 -0.0871  0.3823
 2288TIP3    H1 6870   5.270   2.200   0.693 -0.7115 -0.7914  0.2943
 2288TIP3    H2 6871   5.400   2.190   0.616 -0.4754 -1.0513  0.7208
 2289TIP3   OH2 6872   0.863   5.134   2.302  0.3130 -0.2000 -0.0372
 2289TIP3    H1 6873   0.949   5.154   2.339  0.3469 -0.7995  0.2094
 2289TIP3    H2 6874   0.840   5.049   2.338 -0.4235 -0.0073 -0.0366
 2290TIP3   OH2 6875   5.113   1.487   0.755  0.0822 -0.3437 -1.0258
 2290TIP3    H1 6876   5.185   1.550   0.760 -1.1868  1.1347 -0.9200
 2290TIP3    H2 6877   5.105   1.453   0.844 -0.1643  0.4328 -0.7454
 2291TIP3   OH2 6878   2.553   4.561   4.133 -0.2882 -0.3849 -0.3577
 2291TIP3    H1 6879   2.483   4.500   4.111 -0.2191 -0.5817 -0.0248
 2291TIP3    H2 6880   2.530   4.594   4.220 -0.6041  0.4610 -0.7435
 2292TIP3   OH2 6881   2.404   5.932   3.037 -0.0884 -0.5569  0.0703
 2292TIP3    H1 6882   2.441   5.849   3.007 -0.9154 -0.3898 -1.5541
 2292TIP3    H2 6883   2.310   5.923   3.022 -0.0440  1.2081 -1.6938
 2293TIP3   OH2 6884   3.087   5.719   0.481  0.5801  0.2937  0.2426
 2293TIP3    H1 6885   3.164   5.687   0.528  0.1528  0.4608  1.0685
 2293TIP3    H2 6886   3.024   5.647   0.486  0.1587  0.6902  0.8280
 2294TIP3   OH2 6887   5.073   0.888   4.978  0.9935  0.2840 -0.3892
 2294TIP3    H1 6888   5.155   0.900   5.026  1.2036  0.4774 -0.7867
 2294TIP3    H2 6889   5.073   0.796   4.952 -0.3463 -0.5200  2.1700
 2295TIP3   OH2 6890   4.183   3.144   2.945  0.0697 -0.3115  0.6463
 2295TIP3    H1 6891   4.230   3.064   2.971 -0.2024 -0.1835  1.5347
 2295TIP3    H2 6892   4.128   3.166   3.020 -0.8094  0.0054 -0.0691
 2296TIP3   OH2 6893   1.956  -0.008   0.574  0.3435 -0.2038  0.0934
 2296TIP3    H1 6894   2.051  -0.017   0.572  0.5394  1.2984  1.1143
 2296TIP3    H2 6895   1.940   0.085   0.554 -0.8145 -0.1105  1.3390
 2297TIP3   OH2 6896   2.705   2.247   2.950 -0.2740  0.0390 -0.1486
 2297TIP3    H1 6897   2.615   2.219   2.965 -0.3823 -0.4289 -1.5770
 2297TIP3    H2 6898   2.758   2.170   2.972 -0.2743  0.0769 -0.0150
 2298TIP3   OH2 6899   5.977   2.488   2.245  0.1103 -0.8198  0.1899
 2298TIP3    H1 6900   5.929   2.559   2.287  1.1019  0.2379 -0.4091
 2298TIP3    H2 6901   5.923   2.410   2.259 -0.9134  0.0183  1.0036
 2299TIP3   OH2 6902   3.798   2.739   0.028 -0.5724 -0.5676  0.2315
 2299TIP3    H1 6903   3.722   2.724   0.084  0.2526 -0.5645  1.4152
 2299TIP3    H2 6904   3.774   2.815  -0.026 -1.3816 -0.5363  0.6193
 2300TIP3   OH2 6905   5.217   3.508   1.775 -0.6168 -0.2268  0.1531
 2300TIP3    H1 6906   5.134   3.510   1.728  0.0310  0.5759 -0.9981
 2300TIP3    H2 6907   5.277   3.558   1.720  0.2473  0.5074  1.6960
 2301TIP3   OH2 6908   4.069   3.786   2.818  0.3802  0.2327  0.3407
 2301TIP3    H1 6909   4.050   3.741   2.900  1.0533  0.0987  0.4290
 2301TIP3    H2 6910   4.148   3.743   2.785  0.2940  0.4961 -0.2162
 2302TIP3   OH2 6911   2.380   0.386   4.281  0.0337 -0.4793  0.2535
 2302TIP3    H1 6912   2.372   0.466   4.228  1.4001 -0.4407  0.0615
 2302TIP3    H2 6913   2.471   0.386   4.310 -0.3867 -1.1124  1.6495
 2303TIP3   OH2 6914   2.372   1.127   3.423  0.0193  0.7411 -0.1058
 2303TIP3    H1 6915   2.436   1.068   3.383  1.3958  1.0134  1.6291
 2303TIP3    H2 6916   2.318   1.070   3.478  0.8727  0.9717  0.9856
 2304TIP3   OH2 6917   3.041   3.806   3.448 -0.7978  0.1602 -0.4191
 2304TIP3    H1 6918   3.032   3.893   3.486  2.3166 -0.0248  1.0411
 2304TIP3    H2 6919   2.981   3.751   3.499 -1.5866  1.1493 -0.2608
 2305TIP3   OH2 6920   4.746   4.358   0.587 -0.4384 -0.2388 -0.1331
 2305TIP3    H1 6921   4.746   4.360   0.683 -1.2526 -1.2643 -0.0864
 2305TIP3    H2 6922   4.666   4.311   0.564  0.4872 -1.3294 -1.2779
 2306TIP3   OH2 6923   5.155   5.522   1.652 -0.1212  0.5055 -0.0582
 2306TIP3    H1 6924   5.092   5.565   1.710 -0.5120 -0.2145  0.0605
 2306TIP3    H2 6925   5.114   5.438   1.630  0.2707  0.5300 -0.9301
 2307TIP3   OH2 6926   5.625   0.144   3.026 -0.0699  0.0496 -0.4616
 2307TIP3    H1 6927   5.567   0.213   2.995 -0.4906 -0.5860 -1.1247
 2307TIP3    H2 6928   5.713   0.176   3.008 -0.1010  1.6803  1.9046
 2308TIP3   OH2 6929   1.957   5.079   5.044 -0.3882 -0.1467 -0.3452
 2308TIP3    H1 6930   1.928   5.168   5.064  2.5600  1.1904 -1.5097
 2308TIP3    H2 6931   1.996   5.047   5.126  1.7187  1.0754 -0.8002
 2309TIP3   OH2 6932   5.771   5.898   1.813  0.1169 -0.1950  0.5394
 2309TIP3    H1 6933   5.841   5.936   1.759 -0.7532 -0.8684 -1.1446
 2309TIP3    H2 6934   5.809   5.818   1.848  0.0806 -0.8321 -0.7875
 2310TIP3   OH2 6935   4.852   1.410   1.041  0.1413 -0.0369  0.1950
 2310TIP3    H1 6936   4.895   1.494   1.019  1.1436 -0.6825 -0.4351
 2310TIP3    H2 6937   4.824   1.420   1.132  2.5650  0.0923  1.0033
 2311TIP3   OH2 6938  -0.010   5.672   1.517 -0.0425 -0.3097  0.1655
 2311TIP3    H1 6939   0.035   5.720   1.586  1.5487 -1.7744  0.2081
 2311TIP3    H2 6940  -0.006   5.730   1.440 -0.2115  0.5555  0.7956
 2312TIP3   OH2 6941   1.064   5.619   0.987 -0.3329 -0.6147 -0.1122
 2312TIP3    H1 6942   0.987   5.599   0.934  1.4652  1.4721 -3.8989
 2312TIP3    H2 6943   1.050   5.709   1.017 -0.0235 -0.7835  0.5736
 2313TIP3   OH2 6944   5.814   1.870   1.538 -0.1379 -0.2810  0.3801
 2313TIP3    H1 6945   5.768   1.927   1.599  0.1587 -0.7158  1.0312
 2313TIP3    H2 6946   5.761   1.790   1.535 -0.5437  0.0122 -0.5143
 2314TIP3   OH2 6947   2.205   4.165   4.424 -0.5476 -0.0220  0.2166
 2314TIP3    H1 6948   2.199   4.203   4.512 -1.4573 -0.8223  0.5193
 2314TIP3    H2 6949   2.168   4.077   4.434 -0.1470 -0.3214 -0.8554
 2315TIP3   OH2 6950   2.940   4.626   0.030  0.5070  0.1839 -0.2175
 2315TIP3    H1 6951   2.897   4.671  -0.042  1.1023  1.8147  0.4180
 2315TIP3    H2 6952   2.886   4.644   0.106  0.8390 -0.0584  0.0790
 2316TIP3   OH2 6953   5.912   1.113   1.654 -0.3435  0.5816 -0.0463
 2316TIP3    H1 6954   5.898   1.190   1.600 -1.6657 -1.3389 -2.6422
 2316TIP3    H2 6955   5.994   1.074   1.621 -1.5065 -0.9676 -1.2423
 2317TIP3   OH2 6956   0.164   1.126   3.408  0.4272  0.0236 -0.4279
 2317TIP3    H1 6957   0.215   1.131   3.327 -1.8020  0.9934 -1.8875
 2317TIP3    H2 6958   0.127   1.038   3.408  0.3588  0.0521 -0.5180
 2318TIP3   OH2 6959   0.099   1.158   0.067  0.4610 -0.4724  0.3561
 2318TIP3    H1 6960   0.043   1.100   0.119  0.4059  1.1625  2.2502
 2318TIP3    H2 6961   0.041   1.228   0.038  1.0240 -0.0137  0.3148
 2319TIP3   OH2 6962   2.807   3.687   3.562  0.0175  0.1676 -0.4481
 2319TIP3    H1 6963   2.757   3.767   3.548 -0.8132 -0.4067 -0.8368
 2319TIP3    H2 6964   2.743   3.616   3.553  0.8472 -0.5714 -0.6946
 2320TIP3   OH2 6965   0.888   1.933   4.201  0.1225 -0.2493  0.1075
 2320TIP3    H1 6966   0.820   1.994   4.228 -1.1488 -1.4008 -0.3455
 2320TIP3    H2 6967   0.970   1.977   4.222 -0.7034  2.0433 -1.1319
 2321TIP3   OH2 6968   4.159   0.644   2.090  0.4744 -0.1071 -0.9566
 2321TIP3    H1 6969   4.081   0.681   2.132  0.7543  0.7704 -1.1967
 2321TIP3    H2 6970   4.179   0.705   2.020  1.4747 -0.2541 -0.8060
 2322TIP3   OH2 6971   5.919   4.728   1.986  0.1477  0.3976  0.3036
 2322TIP3    H1 6972   5.952   4.644   2.019  0.9492  0.9379  0.9037
 2322TIP3    H2 6973   5.998   4.777   1.963 -0.3395  0.7806 -0.5723
 2323TIP3   OH2 6974   0.803   5.655   0.163 -0.1841  0.6923 -0.5647
 2323TIP3    H1 6975   0.818   5.647   0.069 -1.4938  0.3359 -0.7750
 2323TIP3    H2 6976   0.881   5.618   0.204 -0.2878 -0.6677 -1.5372
 2324TIP3   OH2 6977   5.004   3.497   0.822  0.0597 -0.1951 -0.5324
 2324TIP3    H1 6978   5.059   3.479   0.898 -0.7156 -0.5519 -0.0356
 2324TIP3    H2 6979   4.963   3.581   0.842 -1.0325 -0.8299 -0.0013
 2325TIP3   OH2 6980   0.074   2.040   4.953 -1.0171  0.2166  0.5075
 2325TIP3    H1 6981   0.076   1.946   4.937 -1.1570  0.4958 -1.3631
 2325TIP3    H2 6982   0.164   2.061   4.978 -0.1358  0.0404 -2.2552
 2326TIP3   OH2 6983   2.317   1.462   0.718  0.2496 -0.0952 -0.0319
 2326TIP3    H1 6984   2.338   1.531   0.655  2.2230  0.0903  0.7799
 2326TIP3    H2 6985   2.293   1.509   0.798 -0.3331 -0.3615 -0.0398
 2327TIP3   OH2 6986   2.506   4.546   3.698  0.5590 -0.1806  0.1797
 2327TIP3    H1 6987   2.491   4.508   3.611  1.0544 -1.2833  0.5521
 2327TIP3    H2 6988   2.560   4.623   3.681  1.3581 -0.8485 -0.4369
 2328TIP3   OH2 6989   1.440   3.112   3.800  0.2421 -0.3455  0.3614
 2328TIP3    H1 6990   1.365   3.085   3.852  0.2416  1.4363  1.3671
 2328TIP3    H2 6991   1.411   3.102   3.709 -0.9593 -0.3438  0.7291
 2329TIP3   OH2 6992   5.981   0.679   3.457 -0.4911 -0.0716  0.7609
 2329TIP3    H1 6993   5.929   0.686   3.376 -0.2698 -0.0915  0.6150
 2329TIP3    H2 6994   5.973   0.765   3.498  1.6282  0.8808 -0.6566
 2330TIP3   OH2 6995   2.741   4.008   0.762 -0.0263 -0.5416  0.1765
 2330TIP3    H1 6996   2.700   4.077   0.814 -0.6579 -0.5277 -0.3336
 2330TIP3    H2 6997   2.675   3.939   0.756  0.2806 -0.8200 -0.0595
 2331TIP3   OH2 6998   1.283   2.628   1.573 -0.1003 -0.0931 -0.1428
 2331TIP3    H1 6999   1.261   2.536   1.563  0.4711 -0.1897 -0.5850
 2331TIP3    H2 7000   1.239   2.655   1.654 -4.1207  0.4234 -2.2482
 2332TIP3   OH2 7001   5.749   3.992   3.719  0.0573  0.0118  0.0020
 2332TIP3    H1 7002   5.835   4.005   3.681  0.9232 -0.2038  1.7874
 2332TIP3    H2 7003   5.690   4.044   3.664  1.2158 -0.2507 -1.5582
 2333TIP3   OH2 7004   5.362   2.812   3.563  0.1466 -0.1275  0.0117
 2333TIP3    H1 7005   5.379   2.768   3.480  1.1462  0.4662 -0.1217
 2333TIP3    H2 7006   5.367   2.743   3.629  1.9186 -0.2123 -0.1642
 2334TIP3   OH2 7007   2.789   4.515   3.329  0.0919  0.1130 -0.1738
 2334TIP3    H1 7008   2.876   4.485   3.355 -0.2656 -1.3507 -0.5232
 2334TIP3    H2 7009   2.791   4.610   3.339  1.1708 -0.0471  1.4589
 2335TIP3   OH2 7010   2.881   1.293   2.540 -0.2619  0.2585  0.4603
 2335TIP3    H1 7011   2.933   1.269   2.617 -0.8421 -2.0523  0.1875
 2335TIP3    H2 7012   2.926   1.369   2.504  0.7822  0.5936  2.3174
 2336TIP3   OH2 7013   6.075   0.385   2.903 -0.2324  0.2989 -0.2542
 2336TIP3    H1 7014   6.148   0.347   2.952 -0.1264 -2.7156 -2.4620
 2336TIP3    H2 7015   6.105   0.473   2.879  1.8780 -0.1869  0.4258
 2337TIP3   OH2 7016   2.728   2.221   1.294  0.2715 -0.6989 -0.1645
 2337TIP3    H1 7017   2.742   2.243   1.386 -1.3993 -0.3069  0.0318
 2337TIP3    H2 7018   2.737   2.126   1.290 -1.8228 -1.0058  0.8941
 2338TIP3   OH2 7019   4.990   3.392   2.170  0.4868  0.0165 -0.7749
 2338TIP3    H1 7020   5.011   3.472   2.217 -1.0741 -0.5926  1.0872
 2338TIP3    H2 7021   5.073   3.365   2.130  1.6413  1.1531  0.7448
 2339TIP3   OH2 7022   6.282   0.331   4.189 -0.4415 -0.3089 -0.0883
 2339TIP3    H1 7023   6.274   0.421   4.221  0.3235 -0.8734  1.8499
 2339TIP3    H2 7024   6.195   0.294   4.202 -0.2330 -0.4258  1.1366
 2340TIP3   OH2 7025   5.025   4.037   0.952 -0.2755  0.0212  0.4547
 2340TIP3    H1 7026   4.949   3.979   0.958  0.2681 -0.7141  0.4086
 2340TIP3    H2 7027   5.012   4.085   0.871 -0.2001 -0.8374 -0.0864
 2341TIP3   OH2 7028   0.892   2.300   4.880  0.4044 -0.3419 -0.0479
 2341TIP3    H1 7029   0.929   2.353   4.810 -1.3019 -1.4632 -1.9208
 2341TIP3    H2 7030   0.877   2.361   4.951  0.2711  1.3037 -1.4245
 2342TIP3   OH2 7031   1.988   2.655   0.713 -0.3735 -0.5255  0.2112
 2342TIP3    H1 7032   2.016   2.564   0.725  0.5433 -0.4019 -0.8529
 2342TIP3    H2 7033   1.941   2.655   0.630 -1.1950 -0.1930  0.6675
 2343TIP3   OH2 7034   0.979   2.541   2.119 -0.0865 -0.1779 -0.0827
 2343TIP3    H1 7035   0.934   2.535   2.203  2.3489  1.0069  1.3914
 2343TIP3    H2 7036   1.050   2.478   2.125  1.6736  1.6997 -0.1584
 2344TIP3   OH2 7037   4.122   1.542   2.858  0.0232  0.1653  0.3594
 2344TIP3    H1 7038   4.076   1.608   2.909 -0.0280 -0.4221  1.0892
 2344TIP3    H2 7039   4.070   1.531   2.778 -0.3115  0.5400  0.5292
 2345TIP3   OH2 7040   4.100   3.224   3.922  0.0084 -0.2595  0.1631
 2345TIP3    H1 7041   4.040   3.150   3.911  0.7884 -0.9784  0.6350
 2345TIP3    H2 7042   4.043   3.301   3.924 -0.7593 -0.7751 -1.0102
 2346TIP3   OH2 7043   0.896   0.189   2.753 -0.5938 -0.3343 -0.0603
 2346TIP3    H1 7044   0.875   0.101   2.722  0.7570 -1.3412  1.7167
 2346TIP3    H2 7045   0.913   0.179   2.847  1.1024  1.5388 -0.0919
 2347TIP3   OH2 7046   1.104   1.201   2.529 -0.5272  0.2460  0.0369
 2347TIP3    H1 7047   1.098   1.109   2.504  0.3080  0.1813  0.0549
 2347TIP3    H2 7048   1.136   1.199   2.620 -2.8775  0.4930  0.9423
 2348TIP3   OH2 7049   1.302   1.148   0.189  0.5189  0.0877  0.3588
 2348TIP3    H1 7050   1.328   1.239   0.174  0.6308 -0.0754 -0.4869
 2348TIP3    H2 7051   1.357   1.098   0.129  0.6350 -0.5623  1.0004
 2349TIP3   OH2 7052   5.190   3.777   0.862  0.2787  0.1727  0.7517
 2349TIP3    H1 7053   5.226   3.768   0.774 -0.6507  1.7177  0.1853
 2349TIP3    H2 7054   5.096   3.788   0.849  0.2912  1.9851  1.8040
 2350TIP3   OH2 7055   0.211   5.869   4.775 -0.7556  0.2922 -0.0414
 2350TIP3    H1 7056   0.222   5.821   4.694 -2.6308  0.0003 -0.1500
 2350TIP3    H2 7057   0.224   5.961   4.750 -2.3825  0.3128 -0.9232
 2351TIP3   OH2 7058   0.762   0.106   0.522  0.2026  0.2524 -0.5750
 2351TIP3    H1 7059   0.798   0.194   0.529 -0.9650  0.7632 -0.8228
 2351TIP3    H2 7060   0.745   0.094   0.429  1.9944 -0.9359 -0.8076
 2352TIP3   OH2 7061   1.935   2.376   1.472 -0.0085 -0.0049 -0.6459
 2352TIP3    H1 7062   1.908   2.403   1.385 -0.6074 -0.1726 -0.5229
 2352TIP3    H2 7063   1.926   2.454   1.526 -3.1325 -0.6735  0.0221
 2353TIP3   OH2 7064   3.014   4.834   0.632 -0.3267 -0.0635  0.5703
 2353TIP3    H1 7065   2.996   4.844   0.539 -0.6959  0.3501  0.6799
 2353TIP3    H2 7066   3.069   4.756   0.638 -0.2153 -0.0320 -0.0012
 2354TIP3   OH2 7067   0.848   2.076   3.380 -0.2616 -0.2156 -0.0284
 2354TIP3    H1 7068   0.874   1.995   3.425 -0.3878 -0.2405 -0.0008
 2354TIP3    H2 7069   0.928   2.128   3.378  0.9478 -1.9056 -3.5365
 2355TIP3   OH2 7070   4.087   4.944   0.791  0.0706 -0.4324 -0.4916
 2355TIP3    H1 7071   4.022   4.907   0.731  0.6017 -2.2584  0.0163
 2355TIP3    H2 7072   4.170   4.905   0.765  0.6735  0.4164  0.0915
 2356TIP3   OH2 7073   3.731   4.416   5.032 -0.3938 -0.1138  0.5222
 2356TIP3    H1 7074   3.715   4.415   5.126 -0.4960 -1.5988  0.5074
 2356TIP3    H2 7075   3.800   4.481   5.020 -0.7046  0.4327  1.5602
 2357TIP3   OH2 7076   0.224   0.971   2.438 -0.3681 -0.3919 -0.1756
 2357TIP3    H1 7077   0.224   0.929   2.352  0.5658 -1.2959  0.2551
 2357TIP3    H2 7078   0.145   1.026   2.437  0.3939  0.7852 -2.1508
 2358TIP3   OH2 7079   3.107   5.933   1.436  0.1036  0.0305 -0.4701
 2358TIP3    H1 7080   3.138   5.885   1.359  0.4074  1.9331 -1.6051
 2358TIP3    H2 7081   3.012   5.919   1.436  0.1420 -0.2595 -0.9912
 2359TIP3   OH2 7082   5.998   1.973   1.385 -0.0197  0.2960 -0.0473
 2359TIP3    H1 7083   5.922   1.926   1.420  0.0676  0.6140  0.5835
 2359TIP3    H2 7084   6.070   1.948   1.443  0.0768  1.0332  0.1509
 2360TIP3   OH2 7085   5.822   5.265   4.250  0.2275 -0.3997  0.6900
 2360TIP3    H1 7086   5.829   5.200   4.180  1.3451 -0.5609  0.9322
 2360TIP3    H2 7087   5.778   5.219   4.322 -2.5169  0.2455 -0.4190
 2361TIP3   OH2 7088   1.072   5.205   2.899 -0.1421  0.8257 -0.1643
 2361TIP3    H1 7089   1.042   5.194   2.808 -1.3548  2.4944 -0.0036
 2361TIP3    H2 7090   1.167   5.193   2.894 -0.2805  0.0912 -1.5070
 2362TIP3   OH2 7091   0.726   4.119   0.290  0.1206 -0.1862  0.0683
 2362TIP3    H1 7092   0.767   4.185   0.235 -1.2188  0.3370 -0.3266
 2362TIP3    H2 7093   0.749   4.035   0.249  0.0196  0.1421 -0.6586
 2363TIP3   OH2 7094   0.419   2.142   4.409  0.2935  0.2738 -0.4419
 2363TIP3    H1 7095   0.487   2.207   4.394  1.4176 -0.8950 -0.5743
 2363TIP3    H2 7096   0.460   2.077   4.467 -0.3309 -1.0234 -1.3913
 2364TIP3   OH2 7097   4.464   5.350   2.530  0.1635 -0.1706 -1.0439
 2364TIP3    H1 7098   4.432   5.356   2.620  0.8121  0.4589 -0.8468
 2364TIP3    H2 7099   4.527   5.277   2.532  1.7885  1.1837 -0.4638
 2365TIP3   OH2 7100   1.360   1.984   3.654 -0.2799 -0.2388  0.0998
 2365TIP3    H1 7101   1.309   2.060   3.682 -0.5366 -0.1088 -0.7005
 2365TIP3    H2 7102   1.301   1.910   3.665  0.0431 -0.3597  1.0866
 2366TIP3   OH2 7103   5.478   0.753   4.501  0.1901 -0.3536 -0.2354
 2366TIP3    H1 7104   5.416   0.710   4.441 -1.2554  0.0555  0.9160
 2366TIP3    H2 7105   5.561   0.754   4.452 -0.5491 -1.4342 -1.5984
 2367TIP3   OH2 7106   0.901   5.925   4.578 -0.1019 -0.5458 -0.0396
 2367TIP3    H1 7107   0.941   5.952   4.495 -1.3416  1.2209 -0.1394
 2367TIP3    H2 7108   0.974   5.898   4.633  0.9726  0.2860 -1.0120
 2368TIP3   OH2 7109   4.389   1.978   3.673 -0.0564 -0.4707 -0.4016
 2368TIP3    H1 7110   4.442   1.995   3.595  0.4559  0.6178  0.1668
 2368TIP3    H2 7111   4.436   2.021   3.745 -1.1533 -0.3988  0.3080
 2369TIP3   OH2 7112   1.010   3.880   1.298 -0.1859 -0.0068  0.1487
 2369TIP3    H1 7113   1.048   3.825   1.229  2.9462 -0.5033  2.0858
 2369TIP3    H2 7114   1.081   3.891   1.361 -1.3603  4.4221  1.0072
 2370TIP3   OH2 7115   1.073   1.709   4.461  0.2919 -0.0865 -0.2127
 2370TIP3    H1 7116   1.063   1.781   4.522  0.1670 -0.3488  0.0784
 2370TIP3    H2 7117   1.139   1.653   4.501  0.6914  0.0744 -0.6371
 2371TIP3   OH2 7118   6.321   5.494   2.732  0.0843  0.8970 -0.6800
 2371TIP3    H1 7119   6.275   5.415   2.761 -0.8592  2.1384  1.4984
 2371TIP3    H2 7120   6.312   5.494   2.637 -0.0466 -1.4901 -0.7226
 2372TIP3   OH2 7121   6.051   2.917   1.707  0.0188 -0.2131 -0.1045
 2372TIP3    H1 7122   6.006   2.960   1.634 -1.5409  0.3463  1.1116
 2372TIP3    H2 7123   6.063   2.827   1.679  0.7126  0.3027 -1.5727
 2373TIP3   OH2 7124   1.954   4.202   4.855  1.1775 -0.3223 -0.1022
 2373TIP3    H1 7125   1.885   4.254   4.814  1.1229  0.4998  0.9893
 2373TIP3    H2 7126   1.918   4.113   4.858  0.7698 -0.1870 -0.8726
 2374TIP3   OH2 7127   4.091   3.008   0.030 -0.1359 -0.1308 -0.7086
 2374TIP3    H1 7128   4.099   2.920   0.066 -0.2294 -0.9735 -2.6227
 2374TIP3    H2 7129   4.180   3.045   0.037 -0.2720 -0.0516  0.8236
 2375TIP3   OH2 7130   4.911   4.665   0.924 -0.0217 -0.1354 -0.0872
 2375TIP3    H1 7131   4.837   4.675   0.984  0.5109 -1.9202  0.9279
 2375TIP3    H2 7132   4.975   4.615   0.973  1.8011  1.1717 -1.0277
 2376TIP3   OH2 7133   4.156   5.093   5.018  0.4673  0.5702  0.1124
 2376TIP3    H1 7134   4.182   5.004   5.039 -0.7656  0.1019 -0.2659
 2376TIP3    H2 7135   4.060   5.092   5.025  0.4327  1.8483  0.0476
 2377TIP3   OH2 7136   2.204   0.206   0.423 -0.1573 -0.1501 -0.0668
 2377TIP3    H1 7137   2.120   0.239   0.454 -0.8682 -1.3707 -0.6363
 2377TIP3    H2 7138   2.269   0.263   0.465 -1.2592  0.9208  0.2437
 2378TIP3   OH2 7139   2.784   5.651   1.306 -0.0340 -0.5932 -0.0381
 2378TIP3    H1 7140   2.810   5.649   1.398 -0.7329 -0.8376  0.1591
 2378TIP3    H2 7141   2.794   5.743   1.280  0.8986 -0.6597  0.0611
 2379TIP3   OH2 7142   5.662   3.147   4.995 -0.2187  0.1027 -0.6087
 2379TIP3    H1 7143   5.680   3.066   5.042 -1.7850 -0.0698 -0.2444
 2379TIP3    H2 7144   5.740   3.201   5.008  0.7699 -1.2772 -0.7185
 2380TIP3   OH2 7145   3.551   1.825  -0.014  0.8413 -0.1033 -0.2465
 2380TIP3    H1 7146   3.503   1.874   0.053  2.0959  0.5174  0.2316
 2380TIP3    H2 7147   3.501   1.744  -0.026 -0.0028  0.2786  0.6341
 2381TIP3   OH2 7148   2.457   3.507   0.909 -0.2121 -0.0503  0.3809
 2381TIP3    H1 7149   2.385   3.541   0.857 -0.4108  0.3812  0.9281
 2381TIP3    H2 7150   2.415   3.459   0.980  0.0517 -0.3945  0.3071
 2382TIP3   OH2 7151   5.921   4.737   2.647 -0.4329  0.1073 -0.1568
 2382TIP3    H1 7152   5.868   4.815   2.660 -2.2282 -0.9338 -0.7977
 2382TIP3    H2 7153   5.964   4.751   2.562 -1.2707  0.1257 -0.5825
 2383TIP3   OH2 7154   3.649   4.413   3.945 -0.1153 -0.3796 -0.0055
 2383TIP3    H1 7155   3.557   4.418   3.971 -0.3353 -1.9228 -0.3862
 2383TIP3    H2 7156   3.697   4.441   4.023 -0.9051  2.1401 -0.3483
 2384TIP3   OH2 7157   0.786   3.233   4.091 -0.1067 -0.3871 -0.2147
 2384TIP3    H1 7158   0.869   3.228   4.042  1.1695  1.8415  1.5086
 2384TIP3    H2 7159   0.760   3.325   4.083 -1.3866 -0.6319  0.9077
 2385TIP3   OH2 7160   3.811   4.820   3.306 -0.0579  0.0359 -0.1833
 2385TIP3    H1 7161   3.805   4.737   3.258  2.1503 -0.2845 -0.0281
 2385TIP3    H2 7162   3.823   4.794   3.398  1.1004  0.4804 -0.1902
 2386TIP3   OH2 7163   2.355   4.179   1.730  0.2918 -0.0399  0.0524
 2386TIP3    H1 7164   2.339   4.268   1.762 -0.2235  0.1023 -0.5830
 2386TIP3    H2 7165   2.401   4.136   1.802  1.0740  0.9090  0.1435
 2387TIP3   OH2 7166   3.061   0.679   1.921 -0.0011  0.1215 -0.0015
 2387TIP3    H1 7167   3.029   0.743   1.857 -0.2871  0.1290  0.1493
 2387TIP3    H2 7168   3.014   0.598   1.900  1.6451 -0.5616 -1.3466
 2388TIP3   OH2 7169   2.524   3.196   1.050 -0.1050  0.6062  0.0591
 2388TIP3    H1 7170   2.450   3.251   1.077  0.1211  1.4116 -0.9114
 2388TIP3    H2 7171   2.597   3.257   1.042  0.4721 -0.0590  0.2290
 2389TIP3   OH2 7172   2.391   2.370   3.444  0.3031 -0.0247  0.3306
 2389TIP3    H1 7173   2.327   2.379   3.373  1.3444  0.7353 -0.5450
 2389TIP3    H2 7174   2.454   2.306   3.410  1.5354  1.3275 -0.0164
 2390TIP3   OH2 7175   5.151   2.007   0.032 -0.3093  0.3912  0.1813
 2390TIP3    H1 7176   5.082   1.963   0.081 -2.4741  1.5648 -1.6063
 2390TIP3    H2 7177   5.223   2.016   0.094 -1.7321 -0.9379  2.1442
 2391TIP3   OH2 7178   5.167   1.148   3.097 -0.0412 -0.2402  0.0427
 2391TIP3    H1 7179   5.233   1.212   3.125  1.8944 -1.5552 -1.1745
 2391TIP3    H2 7180   5.086   1.197   3.092  0.9023  1.5607  1.3025
 2392TIP3   OH2 7181   4.626   2.922   1.856 -0.0651  0.2095  0.1378
 2392TIP3    H1 7182   4.616   2.861   1.930  1.1841  1.4155  1.3491
 2392TIP3    H2 7183   4.661   3.002   1.895 -0.9090  1.4585 -1.5373
 2393TIP3   OH2 7184   0.692   0.958   0.877 -0.1113 -0.0673  0.1635
 2393TIP3    H1 7185   0.682   0.944   0.971  0.5481 -0.1137  0.2338
 2393TIP3    H2 7186   0.713   1.051   0.868 -0.3346 -0.0277  0.0509
 2394TIP3   OH2 7187   3.289   0.999   3.373 -0.1061  0.0641 -0.1849
 2394TIP3    H1 7188   3.360   1.016   3.312 -0.1428 -0.4881 -0.3855
 2394TIP3    H2 7189   3.332   0.972   3.454 -0.0923 -0.7982 -0.4706
 2395TIP3   OH2 7190   2.766   3.950   0.466  0.8415  0.3822  0.3201
 2395TIP3    H1 7191   2.731   4.034   0.436 -2.6392 -0.8441  0.4493
 2395TIP3    H2 7192   2.776   3.961   0.561  0.0554  0.5563  0.3862
 2396TIP3   OH2 7193   2.462   5.218   1.926  0.4908 -0.5449  0.0443
 2396TIP3    H1 7194   2.435   5.300   1.884 -0.5399 -0.7576  0.2617
 2396TIP3    H2 7195   2.551   5.235   1.956 -0.1297  0.9342  1.1705
 2397TIP3   OH2 7196   3.784   4.872   1.654  0.1232  0.3462  0.3151
 2397TIP3    H1 7197   3.704   4.884   1.706  1.2748  2.5925  1.7058
 2397TIP3    H2 7198   3.780   4.941   1.588  0.9295  0.4861  0.4069
 2398TIP3   OH2 7199   2.497   5.274   1.102 -0.0798  0.1201  0.4034
 2398TIP3    H1 7200   2.431   5.208   1.121  0.2178  0.3158  2.3467
 2398TIP3    H2 7201   2.576   5.242   1.145  0.8304  0.3878 -1.0262
 2399TIP3   OH2 7202   5.002   0.393   1.903 -0.2488  0.0922 -0.8703
 2399TIP3    H1 7203   4.940   0.364   1.970 -0.2360  3.2025  0.6363
 2399TIP3    H2 7204   4.952   0.387   1.821 -1.4923 -0.3674 -0.1077
 2400TIP3   OH2 7205   3.761   0.275   1.506 -0.5638 -0.0031 -0.4022
 2400TIP3    H1 7206   3.856   0.290   1.503 -0.5080 -0.4496 -1.4581
 2400TIP3    H2 7207   3.746   0.237   1.592  0.0564  1.0226  0.1941
 2401TIP3   OH2 7208   5.172   3.996   4.754  0.2990 -0.1809  0.3394
 2401TIP3    H1 7209   5.254   3.951   4.773  2.0965  1.4817 -2.6765
 2401TIP3    H2 7210   5.114   3.927   4.722  2.0240 -0.9015 -1.4756
 2402TIP3   OH2 7211   3.973   1.256   0.028 -0.3001  0.8025  0.3950
 2402TIP3    H1 7212   4.030   1.228  -0.043  0.4942 -0.8348  1.6371
 2402TIP3    H2 7213   3.969   1.352   0.019  2.6094  0.9755  0.2285
 2403TIP3   OH2 7214   0.342   1.076   0.491 -0.4804 -0.1614  0.0534
 2403TIP3    H1 7215   0.349   1.066   0.586  1.3931 -0.3082 -0.0515
 2403TIP3    H2 7216   0.355   0.988   0.457  1.2839  0.2215 -0.3819
 2404TIP3   OH2 7217   2.493   0.980   0.738  0.1524  1.1154  0.4639
 2404TIP3    H1 7218   2.546   1.053   0.706  2.6231 -1.3014 -1.4303
 2404TIP3    H2 7219   2.531   0.903   0.696 -2.8497 -1.2099  1.6645
 2405TIP3   OH2 7220   1.222   4.153   2.723  0.0901  0.2741 -0.0990
 2405TIP3    H1 7221   1.305   4.193   2.748  1.2335 -0.6012 -2.2057
 2405TIP3    H2 7222   1.186   4.120   2.805  1.8001  0.7304  0.8929
 2406TIP3   OH2 7223   1.441   5.726   2.219  0.0614 -0.0195  0.3462
 2406TIP3    H1 7224   1.526   5.689   2.243 -0.3025 -0.6222  0.7470
 2406TIP3    H2 7225   1.387   5.712   2.297 -0.7355 -0.7043 -0.3178
 2407TIP3   OH2 7226   4.525   1.222   1.299 -0.1670 -0.1137 -0.9832
 2407TIP3    H1 7227   4.558   1.283   1.233 -0.3941  0.2279 -0.7807
 2407TIP3    H2 7228   4.510   1.140   1.250 -4.1487  1.1770 -2.3420
 2408TIP3   OH2 7229   3.913   3.619   1.116 -0.2177  0.6030  0.3483
 2408TIP3    H1 7230   3.928   3.692   1.176 -0.3185 -0.3498  1.5817
 2408TIP3    H2 7231   3.940   3.542   1.166 -0.7452 -0.2656 -0.6788
 2409TIP3   OH2 7232   1.405   5.810   0.888  0.0929  0.2649  0.0752
 2409TIP3    H1 7233   1.379   5.881   0.947  0.4568  1.1242 -0.7883
 2409TIP3    H2 7234   1.342   5.740   0.906 -1.0783  1.2784  0.0253
 2410TIP3   OH2 7235   5.109   2.673   1.895  0.2676  0.3677 -0.0281
 2410TIP3    H1 7236   5.090   2.756   1.852 -2.0339  0.0493  0.2439
 2410TIP3    H2 7237   5.143   2.697   1.981 -0.8104  1.0276  0.2173
 2411TIP3   OH2 7238   5.436   5.672   0.385  0.1101 -0.0169 -0.1332
 2411TIP3    H1 7239   5.478   5.598   0.340 -0.4686 -0.5886  0.2549
 2411TIP3    H2 7240   5.423   5.737   0.316 -1.4356 -1.1705 -0.9927
 2412TIP3   OH2 7241   5.388   2.455   4.035 -0.7335  0.5274  0.1445
 2412TIP3    H1 7242   5.403   2.370   4.076  0.4743  0.5323 -0.2482
 2412TIP3    H2 7243   5.294   2.470   4.044 -1.2565 -1.5864 -1.1714
 2413TIP3   OH2 7244   1.408   4.393   1.049 -0.1376  0.7349 -0.5080
 2413TIP3    H1 7245   1.328   4.395   1.102  0.3430 -0.4682  0.3272
 2413TIP3    H2 7246   1.468   4.451   1.094  0.8398 -1.5273  1.3461
 2414TIP3   OH2 7247   0.173   1.268   2.211  0.2227 -0.3091  0.0018
 2414TIP3    H1 7248   0.247   1.208   2.220 -0.2445 -1.2322 -1.8460
 2414TIP3    H2 7249   0.213   1.350   2.183  0.5004 -1.2238 -2.5428
 2415TIP3   OH2 7250   3.737   4.679   2.574 -0.0041  0.1453  0.2272
 2415TIP3    H1 7251   3.815   4.704   2.623 -0.2816  1.3604  0.0808
 2415TIP3    H2 7252   3.714   4.592   2.608  1.1113 -0.0089  0.6243
 2416TIP3   OH2 7253   1.472   0.460   2.497  0.0533  0.0240 -0.4765
 2416TIP3    H1 7254   1.532   0.422   2.432  0.6452 -0.2919  0.2280
 2416TIP3    H2 7255   1.450   0.386   2.554 -0.4598  0.2964 -0.3225
 2417TIP3   OH2 7256   3.575   5.775   1.590  0.2792 -0.0093 -0.0043
 2417TIP3    H1 7257   3.554   5.847   1.648  1.4598 -0.0392  0.4793
 2417TIP3    H2 7258   3.645   5.808   1.534 -1.1374  0.1876 -1.7852
 2418TIP3   OH2 7259   3.308   4.800   4.593  0.0926 -0.0922  0.0361
 2418TIP3    H1 7260   3.307   4.736   4.522 -2.7131 -2.2674  1.7884
 2418TIP3    H2 7261   3.285   4.883   4.552  0.3363 -0.9109 -1.8387
 2419TIP3   OH2 7262   0.371   2.987   4.035 -0.7286  0.1930 -0.1585
 2419TIP3    H1 7263   0.435   2.975   3.965 -0.6794  1.0022 -0.2549
 2419TIP3    H2 7264   0.309   2.916   4.022  1.1983 -1.8893  1.1463
 2420TIP3   OH2 7265   1.604   5.491   1.914 -0.4780 -0.5448  0.1720
 2420TIP3    H1 7266   1.638   5.402   1.904 -0.8989 -0.8746  1.4566
 2420TIP3    H2 7267   1.541   5.485   1.986  1.9176  1.3964  2.6756
 2421TIP3   OH2 7268   6.296   1.695   2.308 -0.3435  0.2959  0.1773
 2421TIP3    H1 7269   6.364   1.715   2.243 -0.0531  0.1479  0.4319
 2421TIP3    H2 7270   6.269   1.781   2.341  1.3009  0.2859  1.6703
 2422TIP3   OH2 7271   5.992   5.041   2.648 -0.9760  0.1701 -0.0047
 2422TIP3    H1 7272   5.948   5.081   2.724  0.0031  2.5309 -0.5959
 2422TIP3    H2 7273   5.936   5.064   2.574  0.2028  1.5588 -0.5092
 2423TIP3   OH2 7274   2.933   2.643   3.631  0.8002  0.1163  0.4874
 2423TIP3    H1 7275   2.870   2.572   3.646  0.0724 -0.0342 -2.6650
 2423TIP3    H2 7276   3.007   2.622   3.688 -0.0751 -2.2581  0.8476
 2424TIP3   OH2 7277   2.157   1.281   0.197  0.2850 -0.0040 -0.3807
 2424TIP3    H1 7278   2.069   1.318   0.209 -0.3343 -0.8744 -1.9739
 2424TIP3    H2 7279   2.153   1.237   0.112  1.7306 -1.6268  0.3431
 2425TIP3   OH2 7280   2.067   1.833   3.297 -0.2017  0.4124  0.2063
 2425TIP3    H1 7281   2.154   1.864   3.271  0.8237 -1.5706  1.0221
 2425TIP3    H2 7282   2.056   1.864   3.387  1.2617 -2.1892  1.3962
 2426TIP3   OH2 7283   5.371   1.927   5.053  0.2663 -0.0811 -0.1624
 2426TIP3    H1 7284   5.415   1.997   5.004 -0.8847 -1.4013 -3.3368
 2426TIP3    H2 7285   5.403   1.847   5.013 -4.1036 -1.1450 -2.0198
 2427TIP3   OH2 7286   5.177   3.269   0.538  0.5683  0.3349  0.0671
 2427TIP3    H1 7287   5.171   3.199   0.603  0.0797  0.5399  0.2474
 2427TIP3    H2 7288   5.266   3.262   0.503  1.1406  0.7494  1.3545
 2428TIP3   OH2 7289   0.089   1.192   1.499  0.1352 -0.3043  0.1697
 2428TIP3    H1 7290   0.021   1.259   1.486 -0.0011 -0.0981  1.8051
 2428TIP3    H2 7291   0.127   1.181   1.412 -2.4090 -0.8995 -0.9568
 2429TIP3   OH2 7292   0.225   2.374   5.206  0.2988 -0.3639 -0.1397
 2429TIP3    H1 7293   0.159   2.434   5.171  0.3393  0.1447  0.6226
 2429TIP3    H2 7294   0.294   2.373   5.139  0.4956  0.7886  0.0265
 2430TIP3   OH2 7295   1.143   3.223   3.384 -0.2246  0.6993 -0.0617
 2430TIP3    H1 7296   1.195   3.181   3.316 -1.5948  0.5882 -1.0651
 2430TIP3    H2 7297   1.117   3.307   3.347 -1.6510  0.3049 -0.0093
 2431TIP3   OH2 7298   3.394   5.681   0.963  0.0634  0.5211 -0.1869
 2431TIP3    H1 7299   3.336   5.643   0.896 -2.0498  2.9089  0.1180
 2431TIP3    H2 7300   3.387   5.621   1.037  0.3270 -0.7554 -1.1508
 2432TIP3   OH2 7301   3.627   2.491   3.068  0.4438  0.0834  0.0658
 2432TIP3    H1 7302   3.536   2.509   3.044  0.5986 -0.1934 -0.7880
 2432TIP3    H2 7303   3.673   2.573   3.049  0.1302  0.7653  2.0102
 2433TIP3   OH2 7304   3.356   0.613   2.427  0.2602 -0.0213 -0.4353
 2433TIP3    H1 7305   3.305   0.684   2.389  1.3620 -0.5834 -3.2137
 2433TIP3    H2 7306   3.440   0.653   2.449  0.2042 -0.0425 -0.1879
 2434TIP3   OH2 7307   2.778   5.925   2.541 -0.2685 -0.3577 -0.3050
 2434TIP3    H1 7308   2.837   5.851   2.531 -0.9333 -0.9623  0.1205
 2434TIP3    H2 7309   2.833   5.995   2.577  0.4046 -0.5721 -0.8913
 2435TIP3   OH2 7310   0.842   4.474   4.658 -0.4714  0.2453 -0.4417
 2435TIP3    H1 7311   0.879   4.522   4.585 -2.8475  1.5167 -0.9254
 2435TIP3    H2 7312   0.879   4.514   4.736  0.3997  0.3545 -0.9085
 2436TIP3   OH2 7313   2.779   0.912   2.225  0.0373 -0.5679  0.5855
 2436TIP3    H1 7314   2.722   0.887   2.153 -0.9429 -1.3253  1.5886
 2436TIP3    H2 7315   2.868   0.901   2.191 -0.2838  2.7313 -1.7481
 2437TIP3   OH2 7316   3.395   3.391   1.237  0.0557  0.0527 -0.0605
 2437TIP3    H1 7317   3.445   3.382   1.156  0.0076  2.9350 -0.5383
 2437TIP3    H2 7318   3.308   3.418   1.208  0.3475  2.2643  0.8632
 2438TIP3   OH2 7319   2.576   2.846   2.717 -0.2274  0.0343 -0.1099
 2438TIP3    H1 7320   2.650   2.903   2.735  0.6803 -1.1516  0.0002
 2438TIP3    H2 7321   2.502   2.890   2.759  0.9895 -0.3869  2.6706
 2439TIP3   OH2 7322   4.553   5.075   1.443 -0.0009  0.3021  0.0917
 2439TIP3    H1 7323   4.491   5.081   1.370 -0.2453 -0.1336  0.2644
 2439TIP3    H2 7324   4.568   4.981   1.455  2.3723  0.4222 -1.3628
 2440TIP3   OH2 7325   2.508   1.076   4.919 -0.1292 -0.2825  0.4299
 2440TIP3    H1 7326   2.537   0.990   4.952 -0.6527  0.0904  1.9198
 2440TIP3    H2 7327   2.497   1.129   4.997 -0.4450  0.9645 -0.4397
 2441TIP3   OH2 7328   6.361   0.965   4.280 -0.1259  0.0473 -0.5656
 2441TIP3    H1 7329   6.319   0.979   4.195 -1.7208  1.7012  0.4192
 2441TIP3    H2 7330   6.294   0.987   4.344  1.0436 -1.1090  1.1655
 2442TIP3   OH2 7331   1.970   2.628   2.615 -0.1176 -0.0422  0.3933
 2442TIP3    H1 7332   2.038   2.660   2.556 -0.4239 -0.3931 -0.1625
 2442TIP3    H2 7333   1.961   2.535   2.594 -0.6226 -0.0493  0.6040
 2443TIP3   OH2 7334   4.455   5.630   0.104 -0.0346 -0.0027 -0.2806
 2443TIP3    H1 7335   4.492   5.592   0.024 -0.2219  2.1740 -1.4742
 2443TIP3    H2 7336   4.392   5.565   0.135  0.2979 -1.0500 -1.7132
 2444TIP3   OH2 7337   0.646   1.437   2.635 -0.3542 -0.0727  0.3839
 2444TIP3    H1 7338   0.600   1.379   2.696  1.4406 -3.4045 -1.2081
 2444TIP3    H2 7339   0.735   1.443   2.669  0.4337 -1.2622 -1.3694
 2445TIP3   OH2 7340   6.049   0.411   3.287 -0.4468 -0.0373  0.0718
 2445TIP3    H1 7341   6.002   0.450   3.361  0.7953  0.3845  0.6635
 2445TIP3    H2 7342   5.980   0.372   3.233 -1.3123 -1.5465  2.1195
 2446TIP3   OH2 7343   5.963   2.275   3.316  0.8020 -0.6468 -0.0561
 2446TIP3    H1 7344   5.958   2.284   3.411  0.9017 -0.4713 -0.0683
 2446TIP3    H2 7345   5.998   2.358   3.285  0.2125 -0.4882 -0.2989
 2447TIP3   OH2 7346   4.603   0.467   3.990 -0.2705 -0.1372  0.0610
 2447TIP3    H1 7347   4.517   0.452   3.952  0.1445 -0.2832 -0.8704
 2447TIP3    H2 7348   4.630   0.552   3.955 -0.2968  0.2057  0.8550
 2448TIP3   OH2 7349   4.608   0.751   4.777 -0.3677  0.1337  0.1830
 2448TIP3    H1 7350   4.607   0.846   4.790  1.6886 -0.0949  2.8573
 2448TIP3    H2 7351   4.542   0.718   4.838 -1.1005 -0.1929 -0.7674
 2449TIP3   OH2 7352   4.350   2.245   5.024 -0.3190 -0.0329 -0.0604
 2449TIP3    H1 7353   4.275   2.193   5.055  0.0352 -0.4314  0.1368
 2449TIP3    H2 7354   4.330   2.335   5.053 -0.7613 -0.1204 -0.0860
 2450TIP3   OH2 7355   1.070   5.823   2.490 -0.1971 -0.4161 -0.1195
 2450TIP3    H1 7356   1.094   5.773   2.411  2.1042  2.0122 -1.0965
 2450TIP3    H2 7357   0.989   5.868   2.466  0.9259  0.9760 -1.5258
 2451TIP3   OH2 7358   2.407   4.106   5.002  0.6573  0.5605  0.3115
 2451TIP3    H1 7359   2.342   4.090   5.070  0.9083 -2.3578  0.0206
 2451TIP3    H2 7360   2.427   4.199   5.008 -1.5789  1.0021  2.1518
 2452TIP3   OH2 7361   0.880   5.338   0.762  0.8751  0.0730 -0.0817
 2452TIP3    H1 7362   0.867   5.325   0.668 -1.7329 -1.0873  0.3535
 2452TIP3    H2 7363   0.922   5.257   0.792 -0.9595 -0.8373  0.1545
 2453TIP3   OH2 7364   6.027   0.288   3.757 -0.1702 -0.2735 -0.2412
 2453TIP3    H1 7365   6.077   0.366   3.780  0.7383 -1.0633  0.5166
 2453TIP3    H2 7366   5.965   0.276   3.829  1.2722 -1.5564  0.8485
 2454TIP3   OH2 7367   2.314   3.202   3.954 -0.2096 -0.0166 -0.3032
 2454TIP3    H1 7368   2.239   3.153   3.922  0.2525 -0.0685 -1.3526
 2454TIP3    H2 7369   2.346   3.250   3.878  1.6496 -1.0519 -0.2512
 2455TIP3   OH2 7370   3.788   0.131   3.113  0.0876  0.6373 -0.5002
 2455TIP3    H1 7371   3.816   0.058   3.058  0.5750 -0.4539  1.1169
 2455TIP3    H2 7372   3.840   0.205   3.083  1.9581 -0.4498 -0.1050
 2456TIP3   OH2 7373   5.642   1.200   0.221 -0.3686 -0.6590 -0.0199
 2456TIP3    H1 7374   5.582   1.260   0.175 -0.6833 -1.1231 -0.2230
 2456TIP3    H2 7375   5.709   1.257   0.258 -0.2679 -0.2393 -0.8154
 2457TIP3   OH2 7376   0.290   3.647   3.927  0.1590 -0.0131  0.2545
 2457TIP3    H1 7377   0.295   3.743   3.926 -0.6491  0.1068 -2.9509
 2457TIP3    H2 7378   0.198   3.627   3.906  0.8312 -1.4067 -1.6670
 2458TIP3   OH2 7379   4.506   1.702   3.236  0.3059  0.3429  0.3290
 2458TIP3    H1 7380   4.418   1.677   3.208  0.1037  0.9656  0.3946
 2458TIP3    H2 7381   4.554   1.619   3.241 -0.9687 -0.3443  2.8186
 2459TIP3   OH2 7382   4.844   3.075   3.562  0.1651 -0.1631 -0.4202
 2459TIP3    H1 7383   4.853   3.163   3.526 -0.2198  0.1783  0.2916
 2459TIP3    H2 7384   4.786   3.086   3.637 -1.0256 -1.2709 -1.1529
 2460TIP3   OH2 7385   4.280   1.498   4.858 -0.0551  0.7838 -0.3717
 2460TIP3    H1 7386   4.344   1.526   4.923  1.8181 -0.5766 -1.5406
 2460TIP3    H2 7387   4.269   1.405   4.873 -0.4223  0.6612 -1.3165
 2461TIP3   OH2 7388   0.053   2.295   0.879  0.7028  0.0768  0.0210
 2461TIP3    H1 7389  -0.012   2.224   0.872  1.3914 -0.4641 -1.3295
 2461TIP3    H2 7390   0.010   2.370   0.839 -0.4077  0.7688  2.3350
 2462TIP3   OH2 7391   5.014   2.884   5.119  0.2544  0.6069  0.2322
 2462TIP3    H1 7392   5.050   2.924   5.198 -1.0099 -0.2484  1.2712
 2462TIP3    H2 7393   5.060   2.800   5.111  0.0685  0.4980  0.3061
 2463TIP3   OH2 7394   5.684   4.982   3.822  0.0300 -0.3258 -0.0075
 2463TIP3    H1 7395   5.774   4.989   3.790 -0.3661 -0.3354 -1.1794
 2463TIP3    H2 7396   5.664   5.070   3.855  1.2153 -0.8909  2.4417
 2464TIP3   OH2 7397   0.812   4.363   0.466  0.2110  0.3579  0.3436
 2464TIP3    H1 7398   0.823   4.357   0.372 -0.0900  0.8972  0.2739
 2464TIP3    H2 7399   0.854   4.445   0.491  0.7007 -0.0040  0.7453
 2465TIP3   OH2 7400   2.698   4.083   4.234  0.1522  0.5419 -0.0854
 2465TIP3    H1 7401   2.627   4.102   4.296  1.1066  1.6621  0.7142
 2465TIP3    H2 7402   2.670   4.123   4.152  0.4241  2.2307  0.5887
 2466TIP3   OH2 7403   2.054   4.651   2.857  0.3428  0.4206 -0.1256
 2466TIP3    H1 7404   2.064   4.573   2.803  0.9630  1.5416 -1.6951
 2466TIP3    H2 7405   2.018   4.717   2.798 -0.9506  1.1073  1.3777
 2467TIP3   OH2 7406   2.645   4.951   2.043  0.4398 -0.8176  0.3448
 2467TIP3    H1 7407   2.569   4.945   1.985  0.7240  0.2408 -0.1674
 2467TIP3    H2 7408   2.627   5.026   2.099  0.7226 -1.0847  0.7963
 2468TIP3   OH2 7409   4.005   3.266   1.863  0.3853 -0.0766 -0.2359
 2468TIP3    H1 7410   4.034   3.175   1.861 -0.2290 -0.2892  0.3144
 2468TIP3    H2 7411   3.993   3.286   1.956 -0.8973  0.0936 -0.4135
 2469TIP3   OH2 7412   4.463   2.762   1.661  0.2961 -0.1067  0.5527
 2469TIP3    H1 7413   4.498   2.815   1.734  1.9807  0.1618 -0.4064
 2469TIP3    H2 7414   4.530   2.767   1.594 -1.8195  0.8465 -1.6376
 2470TIP3   OH2 7415   2.497   2.604   1.333  0.0426 -0.1859 -0.4565
 2470TIP3    H1 7416   2.479   2.511   1.347  1.3762 -0.2633  1.0289
 2470TIP3    H2 7417   2.410   2.644   1.324 -0.7907 -1.1290  2.1867
 2471TIP3   OH2 7418   1.077   0.787   0.983 -0.4414  0.6340  0.0297
 2471TIP3    H1 7419   1.070   0.813   0.891 -1.2783  2.2183  0.4985
 2471TIP3    H2 7420   1.092   0.869   1.030 -0.2331 -0.1242  1.3360
 2472TIP3   OH2 7421   4.085   1.490   2.531  0.4217  0.7354  0.9471
 2472TIP3    H1 7422   4.039   1.407   2.544 -2.4946  1.7416 -1.6336
 2472TIP3    H2 7423   4.167   1.466   2.489  0.1940 -0.8880  1.3675
 2473TIP3   OH2 7424   6.085   2.511   2.544  0.3693 -0.0506 -0.2532
 2473TIP3    H1 7425   6.151   2.564   2.499 -0.6271  1.8060  0.3605
 2473TIP3    H2 7426   6.048   2.570   2.610 -1.2528 -1.3303  0.0415
 2474TIP3   OH2 7427   0.012   3.236   1.942 -0.1449  0.4288  0.0029
 2474TIP3    H1 7428   0.095   3.279   1.920 -0.0119  0.9626  1.4335
 2474TIP3    H2 7429  -0.039   3.239   1.861  1.5538 -0.7363 -1.1874
 2475TIP3   OH2 7430   3.801   4.569   0.584  0.0368  0.0360 -0.0203
 2475TIP3    H1 7431   3.815   4.593   0.492  0.6515 -0.4149 -0.0518
 2475TIP3    H2 7432   3.867   4.619   0.632  1.3215 -1.5143 -0.0839
 2476TIP3   OH2 7433   4.719   5.235   2.151 -0.4248 -0.2685  0.3394
 2476TIP3    H1 7434   4.630   5.209   2.174 -1.5848  2.0372 -1.2583
 2476TIP3    H2 7435   4.712   5.327   2.125  2.5778  0.2465  0.9493
 2477TIP3   OH2 7436   5.476   4.062   4.900  0.0654  0.1429  0.1741
 2477TIP3    H1 7437   5.388   4.077   4.935  0.7279  1.6333  1.3410
 2477TIP3    H2 7438   5.472   3.975   4.861 -2.3672  0.7856 -1.2502
 2478TIP3   OH2 7439   4.014   0.362   3.372 -0.3343  0.3736 -0.3481
 2478TIP3    H1 7440   3.929   0.398   3.346 -1.2258 -0.8720  0.7059
 2478TIP3    H2 7441   4.016   0.372   3.467  1.1732  1.3216 -0.4539
 2479TIP3   OH2 7442   0.370   0.726   3.393 -0.1560 -0.3570 -0.4982
 2479TIP3    H1 7443   0.455   0.766   3.413 -0.6887  0.4869  0.1522
 2479TIP3    H2 7444   0.333   0.783   3.326 -1.7464  1.4771  1.7758
 2480TIP3   OH2 7445   0.161   4.940   4.399 -0.5656 -0.3008  0.2702
 2480TIP3    H1 7446   0.237   4.905   4.446 -1.9679 -0.3456  2.6814
 2480TIP3    H2 7447   0.159   5.033   4.424 -0.9532 -0.1516 -0.2897
 2481TIP3   OH2 7448   1.923   1.116   4.709 -0.1740 -0.1231  0.0787
 2481TIP3    H1 7449   2.013   1.114   4.743 -0.2800 -1.4959  0.3705
 2481TIP3    H2 7450   1.884   1.034   4.741 -1.3565  0.1792 -0.5207
 2482TIP3   OH2 7451   3.619   1.149   2.111  0.3927  0.2514  0.2504
 2482TIP3    H1 7452   3.548   1.212   2.095  0.8507  0.9145  0.7810
 2482TIP3    H2 7453   3.585   1.066   2.077 -0.6240  0.5670  0.4438
 2483TIP3   OH2 7454   4.130   0.887   4.075  0.0252  0.3929  0.0320
 2483TIP3    H1 7455   4.184   0.898   4.153 -2.7636 -1.7903  2.5323
 2483TIP3    H2 7456   4.048   0.932   4.096 -1.1530 -1.0921 -1.1706
 2484TIP3   OH2 7457   5.552   1.602   3.363 -0.7931 -0.3687 -0.3881
 2484TIP3    H1 7458   5.602   1.591   3.283  1.6200  0.8516  0.8401
 2484TIP3    H2 7459   5.564   1.694   3.387 -1.7321 -0.6130  1.2020
 2485TIP3   OH2 7460   6.009   2.340   3.584  0.4230 -0.2482 -0.2843
 2485TIP3    H1 7461   6.046   2.427   3.599 -0.2021 -0.2749  1.7835
 2485TIP3    H2 7462   6.070   2.280   3.628 -0.1332 -0.6654 -0.0741
 2486TIP3   OH2 7463   5.389   2.510   1.028 -0.3437  0.3600 -0.0272
 2486TIP3    H1 7464   5.480   2.533   1.046 -0.8005  1.5680  0.8442
 2486TIP3    H2 7465   5.361   2.574   0.962 -0.2800 -0.6596 -1.0774
 2487TIP3   OH2 7466   2.018   4.060   2.679 -0.5772  0.0117 -0.0339
 2487TIP3    H1 7467   2.037   3.984   2.623  1.7654  0.1952  0.3908
 2487TIP3    H2 7468   1.981   4.125   2.620  1.5117  0.0827 -1.3696
 2488TIP3   OH2 7469   1.381   4.936   4.510  0.0831  0.0662  0.4030
 2488TIP3    H1 7470   1.473   4.964   4.507 -0.0340  0.3555 -1.7512
 2488TIP3    H2 7471   1.384   4.849   4.552  1.3771 -0.0696  0.0776
 2489TIP3   OH2 7472   2.638   5.220   0.378 -0.1010 -0.1721  0.0913
 2489TIP3    H1 7473   2.545   5.238   0.393  0.2302  0.0258  2.1604
 2489TIP3    H2 7474   2.675   5.209   0.465  1.9994  0.6106 -0.6422
 2490TIP3   OH2 7475   5.093   2.340   4.466  0.0221  0.3540 -0.0551
 2490TIP3    H1 7476   5.015   2.356   4.520  0.4816 -0.7315  0.9652
 2490TIP3    H2 7477   5.059   2.297   4.387 -0.3619 -0.6608  0.6511
 2491TIP3   OH2 7478   5.775   0.660   0.718 -0.5733  0.6189  0.4406
 2491TIP3    H1 7479   5.719   0.621   0.652 -0.6567  1.0774  0.2321
 2491TIP3    H2 7480   5.746   0.751   0.723 -0.2409  0.7114  0.7554
 2492TIP3   OH2 7481   3.869   3.397   3.365  0.4026 -0.5814 -0.2383
 2492TIP3    H1 7482   3.789   3.449   3.359  1.1266  0.4642 -1.7402
 2492TIP3    H2 7483   3.918   3.438   3.436  0.1118 -0.4593 -0.1063
 2493TIP3   OH2 7484   4.265   4.571   4.150  0.4346  0.5650 -0.1306
 2493TIP3    H1 7485   4.283   4.550   4.241  0.0440 -1.8539 -0.5340
 2493TIP3    H2 7486   4.315   4.650   4.132  1.0922  0.6597  1.9710
 2494TIP3   OH2 7487   1.321   2.822   4.862 -0.0630  0.0616 -0.3503
 2494TIP3    H1 7488   1.264   2.898   4.855 -0.1048  0.1426  0.7100
 2494TIP3    H2 7489   1.276   2.764   4.924  1.8258  0.9258  1.9822
 2495TIP3   OH2 7490   5.671   2.864   0.062 -0.2095  0.4043  0.1455
 2495TIP3    H1 7491   5.629   2.781   0.079 -0.7841  0.7717  0.5322
 2495TIP3    H2 7492   5.643   2.888  -0.026  0.1624  0.0706 -0.0669
 2496TIP3   OH2 7493   2.402   3.640   1.762  0.4122  0.4192 -0.2925
 2496TIP3    H1 7494   2.312   3.647   1.793  0.7066  0.6923  0.5268
 2496TIP3    H2 7495   2.394   3.606   1.672 -0.4490 -0.5242  0.1194
 2497TIP3   OH2 7496   5.824   0.120   0.720  0.2328  0.8790 -0.2731
 2497TIP3    H1 7497   5.825   0.033   0.679 -0.3518 -1.0893  3.4215
 2497TIP3    H2 7498   5.908   0.126   0.765  0.0014  1.9178  0.0351
 2498TIP3   OH2 7499   1.238   5.149   2.333 -0.0290  0.0579 -0.2823
 2498TIP3    H1 7500   1.296   5.111   2.268 -0.4059  0.1499 -0.6782
 2498TIP3    H2 7501   1.214   5.075   2.389 -1.0837 -0.3998 -1.2918
 2499TIP3   OH2 7502   3.843   5.481   1.421  0.1307  0.1401 -0.1059
 2499TIP3    H1 7503   3.909   5.471   1.491 -0.0065  1.0798  0.1736
 2499TIP3    H2 7504   3.811   5.393   1.407  3.0569 -0.7830 -1.8665
 2500TIP3   OH2 7505   1.871   3.254   3.502 -0.2073  0.4583  0.1135
 2500TIP3    H1 7506   1.909   3.167   3.495 -1.7674 -0.3357  0.9086
 2500TIP3    H2 7507   1.919   3.296   3.573 -2.2260 -1.3850  2.7664
 2501TIP3   OH2 7508   5.286   3.511   2.031 -0.3454 -0.2503  0.2283
 2501TIP3    H1 7509   5.312   3.602   2.048  2.2076 -0.7690 -0.4794
 2501TIP3    H2 7510   5.267   3.510   1.937 -0.7782 -0.3720  0.3156
 2502TIP3   OH2 7511   2.503   2.410   2.008  0.3033 -0.1243 -0.1984
 2502TIP3    H1 7512   2.442   2.470   2.050  0.2228 -0.3857  0.0555
 2502TIP3    H2 7513   2.589   2.436   2.040  0.0635 -2.0444  2.3264
 2503TIP3   OH2 7514   4.955   1.729   3.339 -0.3314 -0.1963  0.1548
 2503TIP3    H1 7515   5.050   1.724   3.331 -0.3061  0.5598 -0.0725
 2503TIP3    H2 7516   4.932   1.813   3.299 -1.1850 -0.7677 -0.5889
 2504TIP3   OH2 7517   1.010   0.523   3.889 -0.0011  0.0953 -0.2575
 2504TIP3    H1 7518   0.938   0.476   3.930  0.9395 -2.6992 -1.6060
 2504TIP3    H2 7519   1.026   0.597   3.947 -3.2839  0.3024  0.5782
 2505TIP3   OH2 7520   4.646   1.262   2.849 -0.1490  0.0819  0.5701
 2505TIP3    H1 7521   4.604   1.206   2.913 -0.2220  0.9152  1.2678
 2505TIP3    H2 7522   4.584   1.333   2.835 -0.6729 -0.6928 -1.3500
 2506TIP3   OH2 7523   1.499   4.354   0.277  0.4466  0.3612 -0.1907
 2506TIP3    H1 7524   1.445   4.388   0.349 -1.1133 -0.5870 -0.8803
 2506TIP3    H2 7525   1.560   4.294   0.320 -0.8235 -0.6118  0.3096
 2507TIP3   OH2 7526   2.491   2.878   2.159  0.1103 -0.3817  0.3743
 2507TIP3    H1 7527   2.472   2.926   2.239  3.1438  2.1789 -0.2193
 2507TIP3    H2 7528   2.406   2.848   2.127 -1.8318  2.9688  1.8759
 2508TIP3   OH2 7529   3.939   2.604   3.861  0.5340  0.3024  0.1260
 2508TIP3    H1 7530   3.860   2.633   3.907 -0.9044 -0.5739 -1.6622
 2508TIP3    H2 7531   3.955   2.516   3.895  1.2001  0.7610  1.0249
 2509TIP3   OH2 7532   0.492   4.259   5.021 -0.9453  0.0693  0.9662
 2509TIP3    H1 7533   0.433   4.193   4.986 -2.3472  0.7906  1.8544
 2509TIP3    H2 7534   0.579   4.229   4.997 -1.4508 -2.6216  2.1695
 2510TIP3   OH2 7535   0.452   0.054   5.047 -0.2703  0.5843 -0.1507
 2510TIP3    H1 7536   0.527   0.057   5.107  0.7318 -1.6816 -1.1559
 2510TIP3    H2 7537   0.489   0.019   4.965 -2.2214  0.4660 -1.0288
 2511TIP3   OH2 7538   2.270   1.762   2.508 -0.1286 -0.1400  0.3838
 2511TIP3    H1 7539   2.179   1.772   2.479  0.0954 -0.5196 -0.4605
 2511TIP3    H2 7540   2.302   1.685   2.462  0.3424 -0.5739  1.3981
 2512TIP3   OH2 7541   3.731   5.884   0.525  0.1480  0.1968 -0.7153
 2512TIP3    H1 7542   3.721   5.907   0.433 -0.6156  2.5323 -0.1328
 2512TIP3    H2 7543   3.642   5.868   0.556  0.4254 -0.8824 -0.4286
 2513TIP3   OH2 7544   0.083   5.762   2.766  0.3919  0.2346 -0.4618
 2513TIP3    H1 7545   0.011   5.701   2.782  0.1491  0.6962  0.2542
 2513TIP3    H2 7546   0.143   5.714   2.709 -0.4393 -0.1871 -1.0005
 2514TIP3   OH2 7547   1.564   3.552   3.308 -0.3050  0.3726 -0.2638
 2514TIP3    H1 7548   1.597   3.629   3.354  1.0514 -0.5485  0.3349
 2514TIP3    H2 7549   1.473   3.574   3.287 -0.3402  1.6036  1.0779
 2515TIP3   OH2 7550   3.134   2.233   2.197  0.3099  0.0544 -0.5773
 2515TIP3    H1 7551   3.064   2.254   2.135 -0.0848  0.0303 -0.1465
 2515TIP3    H2 7552   3.089   2.189   2.269  0.7559  0.1507 -0.2384
 2516TIP3   OH2 7553   0.438   3.805   1.995 -0.3602  0.3113 -0.1862
 2516TIP3    H1 7554   0.420   3.890   2.035  0.5022 -0.3156  1.6256
 2516TIP3    H2 7555   0.372   3.797   1.925 -1.0171  2.0574  0.1839
 2517TIP3   OH2 7556   3.400   3.664   3.179  0.1663  0.0536 -0.1338
 2517TIP3    H1 7557   3.487   3.632   3.154 -0.2453 -0.5464 -0.8309
 2517TIP3    H2 7558   3.397   3.753   3.144  1.1228  0.7090  1.3644
 2518TIP3   OH2 7559   4.305   1.510   3.135 -0.9266 -0.5084  0.4380
 2518TIP3    H1 7560   4.229   1.566   3.117 -1.4443 -1.1586  0.5178
 2518TIP3    H2 7561   4.318   1.461   3.054  1.2852  1.6543 -0.6546
 2519TIP3   OH2 7562   4.532   2.908   4.571 -0.4367  0.8085 -0.7659
 2519TIP3    H1 7563   4.494   2.860   4.497 -2.2318  2.8503 -1.3025
 2519TIP3    H2 7564   4.550   2.842   4.637 -0.0949 -0.9101 -2.4874
 2520TIP3   OH2 7565   5.157   4.971   2.480  0.0016 -0.0619  0.6873
 2520TIP3    H1 7566   5.197   4.886   2.498 -3.7386 -2.4142 -0.8373
 2520TIP3    H2 7567   5.139   5.008   2.567  0.4764 -1.4834  1.4276
 2521TIP3   OH2 7568   4.552   2.707   3.920 -0.6999 -0.0280  0.1719
 2521TIP3    H1 7569   4.523   2.687   4.010 -0.2958  0.1500  0.3459
 2521TIP3    H2 7570   4.601   2.789   3.929 -0.9526  0.1695 -0.2719
 2522TIP3   OH2 7571   1.331   5.285   3.135  0.4240 -0.1066 -0.1527
 2522TIP3    H1 7572   1.405   5.230   3.162  0.6309 -0.6387 -1.7513
 2522TIP3    H2 7573   1.369   5.347   3.073 -0.3763 -0.0098 -0.5468
 2523TIP3   OH2 7574   3.869   3.751   4.984  0.2137 -0.7352 -0.5732
 2523TIP3    H1 7575   3.889   3.809   4.910  1.8986 -0.4367  0.0708
 2523TIP3    H2 7576   3.781   3.717   4.965 -0.8272  1.9526 -1.0357
 2524TIP3   OH2 7577   1.244   3.190   4.789 -0.3652 -0.3827  0.5239
 2524TIP3    H1 7578   1.179   3.173   4.721 -0.0445 -3.0680  0.7995
 2524TIP3    H2 7579   1.199   3.169   4.871 -0.6951  2.6563  1.2493
 2525TIP3   OH2 7580   2.904   0.384   3.280 -0.0589  0.0147 -0.6268
 2525TIP3    H1 7581   2.992   0.356   3.252  0.5276  1.1513  0.0034
 2525TIP3    H2 7582   2.869   0.430   3.203  0.5004  0.8498 -0.3933
 2526TIP3   OH2 7583   3.762   1.469   1.605  0.4208 -0.4524  0.5666
 2526TIP3    H1 7584   3.705   1.466   1.528  2.7616 -0.9111 -1.2764
 2526TIP3    H2 7585   3.745   1.387   1.651 -0.0205 -0.8232 -0.2363
 2527TIP3   OH2 7586   1.033   2.241   0.262 -0.2965 -0.1239  0.1883
 2527TIP3    H1 7587   1.017   2.163   0.207  1.9344  0.1593 -0.9699
 2527TIP3    H2 7588   0.982   2.310   0.220  0.8062 -0.0898 -1.1841
 2528TIP3   OH2 7589   1.080   1.296   0.322  0.7251  0.6598  0.1984
 2528TIP3    H1 7590   1.035   1.219   0.287  0.3590  1.0075 -0.1093
 2528TIP3    H2 7591   1.164   1.298   0.275  1.2587 -0.2370  1.0865
 2529TIP3   OH2 7592   3.660   3.087   4.767 -0.2222  0.4997  1.0121
 2529TIP3    H1 7593   3.677   3.035   4.689 -0.3207  1.1325  0.5552
 2529TIP3    H2 7594   3.574   3.126   4.751  0.1027  1.2634  1.0720
 2530TIP3   OH2 7595   0.723   1.158   4.254  0.1206  0.0976  0.3535
 2530TIP3    H1 7596   0.744   1.150   4.347 -2.0760  1.6470  1.0595
 2530TIP3    H2 7597   0.732   1.252   4.236 -1.0862  0.0636 -0.5503
 2531TIP3   OH2 7598   3.525   5.839   1.162  0.1397 -0.6141 -0.1330
 2531TIP3    H1 7599   3.468   5.787   1.106 -0.8282 -0.9812  1.1534
 2531TIP3    H2 7600   3.540   5.920   1.113 -1.8810 -0.3009 -0.3035
 2532TIP3   OH2 7601   0.941   1.246   4.458 -0.8705 -0.5126  0.0837
 2532TIP3    H1 7602   0.978   1.232   4.545 -0.5377 -2.8500 -0.3664
 2532TIP3    H2 7603   0.864   1.301   4.473  0.0821  0.4821  1.6178
 2533TIP3   OH2 7604   0.822   5.292   1.086  0.0217  0.0431  0.1627
 2533TIP3    H1 7605   0.782   5.327   1.007 -0.6903 -1.9007 -0.4028
 2533TIP3    H2 7606   0.759   5.311   1.156  0.3775  1.2345  0.1815
 2534TIP3   OH2 7607   1.765   1.884   3.423 -0.4067  0.3086  0.2935
 2534TIP3    H1 7608   1.686   1.879   3.369 -1.6308  3.2554  1.5936
 2534TIP3    H2 7609   1.831   1.921   3.365 -1.1231  1.4659  0.1749
 2535TIP3   OH2 7610   5.672   1.429   0.726 -0.5493 -0.0461  0.2609
 2535TIP3    H1 7611   5.758   1.439   0.686 -1.7155 -0.3365 -2.5830
 2535TIP3    H2 7612   5.620   1.502   0.692 -1.7932 -0.6442  0.7803
 2536TIP3   OH2 7613   3.403   0.838   1.761  0.0348 -0.3524 -0.1848
 2536TIP3    H1 7614   3.373   0.748   1.753 -1.2133  0.0335 -0.0352
 2536TIP3    H2 7615   3.473   0.846   1.695  0.2724 -1.4635 -0.0757
 2537TIP3   OH2 7616   3.296   2.008   3.105 -0.8735 -0.2623  0.4439
 2537TIP3    H1 7617   3.208   2.035   3.134 -1.2930 -0.8009 -0.2830
 2537TIP3    H2 7618   3.351   2.084   3.124 -1.5074  0.1127  0.8565
 2538TIP3   OH2 7619   1.668   2.452   3.187  0.5749  0.0172  0.3757
 2538TIP3    H1 7620   1.603   2.521   3.174  1.0661  0.1669 -1.5124
 2538TIP3    H2 7621   1.625   2.391   3.247 -2.3999 -1.2022 -2.6933
 2539TIP3   OH2 7622   6.131   1.256   0.572 -0.1411  0.2150  0.3269
 2539TIP3    H1 7623   6.117   1.255   0.477  0.0654  0.0345  0.2957
 2539TIP3    H2 7624   6.227   1.262   0.582  0.0477 -2.0479  0.4945
 2540TIP3   OH2 7625   5.881   4.978   4.402 -0.1985 -0.0235 -0.0542
 2540TIP3    H1 7626   5.964   5.009   4.437  0.6844 -1.2672 -0.9526
 2540TIP3    H2 7627   5.868   5.029   4.322 -0.2528  0.1081  0.0386
 2541TIP3   OH2 7628   5.533   2.222   3.726 -0.2238 -0.6475  0.5932
 2541TIP3    H1 7629   5.545   2.312   3.757 -0.2174 -0.4747  0.0879
 2541TIP3    H2 7630   5.621   2.184   3.729 -0.2622 -0.7084  1.0217
 2542TIP3   OH2 7631   2.229   3.052   0.326  1.1311 -0.2199  0.4048
 2542TIP3    H1 7632   2.161   3.113   0.354  2.4053  1.6274 -0.3193
 2542TIP3    H2 7633   2.200   2.967   0.358 -1.4592  0.5041  0.1666
 2543TIP3   OH2 7634   1.719   0.283   3.676 -0.1213  0.5217  0.0058
 2543TIP3    H1 7635   1.668   0.287   3.596  0.5289  1.1123 -0.3876
 2543TIP3    H2 7636   1.682   0.353   3.731 -0.0055  0.6818 -0.1187
 2544TIP3   OH2 7637   5.783   3.063   2.378  0.0765 -0.5543 -0.3374
 2544TIP3    H1 7638   5.696   3.066   2.339  0.1275  1.7156 -0.4298
 2544TIP3    H2 7639   5.826   3.144   2.348  1.4252 -0.5401  1.4402
 2545TIP3   OH2 7640   1.813   4.683   0.104 -0.1600  0.2885 -0.0730
 2545TIP3    H1 7641   1.818   4.620   0.176  1.4675  2.8360  2.2214
 2545TIP3    H2 7642   1.901   4.684   0.067 -0.2855  0.9331 -0.3625
 2546TIP3   OH2 7643   6.196   0.216   5.182 -0.2612  0.0741  0.9586
 2546TIP3    H1 7644   6.258   0.200   5.110 -1.1127  1.6969 -0.1865
 2546TIP3    H2 7645   6.110   0.220   5.139 -0.9743 -0.4015  2.2879
 2547TIP3   OH2 7646   3.721   0.207   3.599 -0.1752  0.0193 -0.0315
 2547TIP3    H1 7647   3.749   0.169   3.515  1.6168  1.7756 -0.2814
 2547TIP3    H2 7648   3.695   0.131   3.651  1.7444 -1.4392 -1.0604
 2548TIP3   OH2 7649   1.961   0.133   2.696  0.2529 -0.3628 -0.1177
 2548TIP3    H1 7650   1.942   0.227   2.686  1.1468  0.0259  1.5111
 2548TIP3    H2 7651   2.017   0.112   2.622 -0.3910  0.2533 -0.8021
 2549TIP3   OH2 7652   5.773   5.359   2.595  0.1258 -0.1686 -0.0268
 2549TIP3    H1 7653   5.763   5.296   2.666  0.2032  0.3536  0.4567
 2549TIP3    H2 7654   5.739   5.441   2.631  1.7221  0.5136  0.0103
 2550TIP3   OH2 7655   0.415   1.305   0.829  0.3721  0.0256  0.6416
 2550TIP3    H1 7656   0.348   1.346   0.884 -0.0937 -0.5988  0.5431
 2550TIP3    H2 7657   0.497   1.346   0.857 -0.3286  3.1078 -1.3248
 2551TIP3   OH2 7658   3.391   4.579   1.770  0.6318 -0.0446  0.8142
 2551TIP3    H1 7659   3.388   4.674   1.761  0.4070 -0.1380 -0.2711
 2551TIP3    H2 7660   3.476   4.553   1.734 -0.4879 -0.4781 -1.7955
 2552TIP3   OH2 7661   4.694   4.545   3.989  0.1557  0.1730 -0.1245
 2552TIP3    H1 7662   4.731   4.457   3.983 -1.2610 -0.4496 -0.1126
 2552TIP3    H2 7663   4.638   4.553   3.912 -0.2354  0.8160  0.2168
 2553TIP3   OH2 7664   6.127   3.672   1.852 -0.1208  0.4183  0.0613
 2553TIP3    H1 7665   6.146   3.580   1.838 -0.7493  0.7151 -3.7037
 2553TIP3    H2 7666   6.206   3.718   1.823 -0.8083  1.1098 -0.7858
 2554TIP3   OH2 7667   5.003   0.708   1.160 -0.1107  0.6991  0.3896
 2554TIP3    H1 7668   5.014   0.716   1.254 -0.1856  0.1985  0.4435
 2554TIP3    H2 7669   5.089   0.677   1.129 -0.3442  0.0168  0.4046
 2555TIP3   OH2 7670   1.473   0.728   2.362 -0.0516  0.3435 -0.3265
 2555TIP3    H1 7671   1.567   0.710   2.365 -0.1660 -0.2706 -0.2999
 2555TIP3    H2 7672   1.435   0.670   2.429 -0.6802 -0.9602 -1.7623
 2556TIP3   OH2 7673   5.746   2.893   4.328  0.2328 -0.6282 -0.5064
 2556TIP3    H1 7674   5.767   2.804   4.300 -1.5026 -0.9027 -1.1070
 2556TIP3    H2 7675   5.767   2.948   4.253  2.1848 -0.3674  0.1897
 2557TIP3   OH2 7676   2.490   3.455   1.948  0.0640  0.3005 -0.1332
 2557TIP3    H1 7677   2.580   3.450   1.918 -0.7302 -0.1265 -2.7354
 2557TIP3    H2 7678   2.459   3.541   1.918 -0.1625  0.8989  1.6505
 2558TIP3   OH2 7679   2.222   3.851   2.137  0.7938  0.3115  0.1060
 2558TIP3    H1 7680   2.256   3.855   2.047  0.7191  1.4700  0.1150
 2558TIP3    H2 7681   2.176   3.934   2.149 -1.0004 -0.6913  0.5127
 2559TIP3   OH2 7682   3.790   3.798   0.924  0.2851 -0.7740  0.2679
 2559TIP3    H1 7683   3.844   3.875   0.910  0.7328 -1.2142 -0.5296
 2559TIP3    H2 7684   3.850   3.731   0.956 -0.4277 -0.2933  2.8273
 2560TIP3   OH2 7685   5.322   3.190   3.304 -0.6593 -0.2750  0.0326
 2560TIP3    H1 7686   5.273   3.111   3.281 -1.0933  0.2357 -0.8582
 2560TIP3    H2 7687   5.352   3.174   3.393 -2.1774 -0.7455  0.4941
 2561TIP3   OH2 7688   0.627   1.024   2.558 -0.1547  0.3972 -0.1078
 2561TIP3    H1 7689   0.561   1.086   2.590 -0.8528 -0.0266 -0.6733
 2561TIP3    H2 7690   0.581   0.974   2.490 -0.0060 -1.6047  1.1935
 2562TIP3   OH2 7691   0.149   4.352   4.615  0.2643  0.0478  0.5303
 2562TIP3    H1 7692   0.105   4.386   4.538 -0.2258  1.1855  1.2755
 2562TIP3    H2 7693   0.121   4.261   4.622 -0.5582  0.2596 -0.0041
 2563TIP3   OH2 7694   4.028   4.926   4.355  0.4647  0.2522 -0.4002
 2563TIP3    H1 7695   4.116   4.954   4.328  1.3020 -2.1645 -0.4618
 2563TIP3    H2 7696   4.044   4.853   4.415 -1.4678 -1.9640 -2.3526
 2564TIP3   OH2 7697   0.644   1.458   0.905 -0.4737  0.2032  0.0608
 2564TIP3    H1 7698   0.704   1.472   0.978 -1.9298  0.0246  1.3337
 2564TIP3    H2 7699   0.619   1.546   0.877  0.8503  0.3041 -0.9373
 2565TIP3   OH2 7700   1.309   5.535   3.990 -0.0413  0.1918 -0.2661
 2565TIP3    H1 7701   1.283   5.443   3.989  1.2992 -0.2089 -0.8727
 2565TIP3    H2 7702   1.337   5.551   4.081  0.4484 -0.2228 -0.3409
 2566TIP3   OH2 7703   1.726   0.067   1.640  0.4753 -0.1627  0.1932
 2566TIP3    H1 7704   1.788   0.019   1.584 -0.2416  0.1004 -0.8593
 2566TIP3    H2 7705   1.746   0.159   1.625 -0.0630 -0.0781 -0.0384
 2567TIP3   OH2 7706   5.120   3.757   1.881 -0.2313  0.0373 -0.0538
 2567TIP3    H1 7707   5.154   3.836   1.923 -1.4531  0.2518  0.5720
 2567TIP3    H2 7708   5.196   3.699   1.873  0.4454  0.8367  0.5149
 2568TIP3   OH2 7709   6.060   0.765   0.372 -0.5858 -0.2896 -0.2082
 2568TIP3    H1 7710   6.112   0.714   0.433  1.5781  2.1319  0.1622
 2568TIP3    H2 7711   6.106   0.758   0.289  0.0086  1.3119 -0.0528
 2569TIP3   OH2 7712   1.199   5.221   4.295  0.1048  0.4295 -0.0065
 2569TIP3    H1 7713   1.260   5.295   4.300 -1.2296  1.6043 -0.3969
 2569TIP3    H2 7714   1.189   5.192   4.386  2.6492 -1.0418 -0.1046
 2570TIP3   OH2 7715   4.074   1.094   1.893 -0.1050 -0.3648 -0.1381
 2570TIP3    H1 7716   3.999   1.124   1.944  0.1616  0.1469 -0.0396
 2570TIP3    H2 7717   4.109   1.020   1.943  1.2979  1.2965  1.4616
 2571TIP3   OH2 7718   1.461   5.731   3.318  0.4415 -0.2774  0.2674
 2571TIP3    H1 7719   1.487   5.639   3.315  1.0866 -0.1273  0.8762
 2571TIP3    H2 7720   1.366   5.729   3.322  0.3930 -0.8781 -0.9264
 2572TIP3   OH2 7721   1.989   1.041   1.779  0.2070  0.0573  0.3062
 2572TIP3    H1 7722   2.075   1.035   1.820 -0.3755 -2.9274  1.3711
 2572TIP3    H2 7723   2.002   1.008   1.691  0.2211 -0.1364  0.3796
 2573TIP3   OH2 7724   3.361   4.336   5.064 -0.0940  0.0087  0.1066
 2573TIP3    H1 7725   3.302   4.274   5.021  0.2109  1.8333 -3.3067
 2573TIP3    H2 7726   3.448   4.303   5.047  0.0175 -0.3655  1.2989
 2574TIP3   OH2 7727   3.637   2.148   5.049  0.1012  0.1824  0.0386
 2574TIP3    H1 7728   3.636   2.242   5.067 -0.4580  0.1921 -0.0551
 2574TIP3    H2 7729   3.546   2.124   5.035  0.3758 -0.0746 -1.5237
 2575TIP3   OH2 7730   1.410   0.923   0.703 -0.0858  0.2718  0.4366
 2575TIP3    H1 7731   1.383   0.980   0.632 -1.2191  0.3054  0.8631
 2575TIP3    H2 7732   1.505   0.930   0.706 -0.0669  0.6369 -0.7522
 2576TIP3   OH2 7733   1.428   0.449   4.262  0.0616 -0.7243  0.3559
 2576TIP3    H1 7734   1.441   0.423   4.170 -1.9260 -3.1512  0.6419
 2576TIP3    H2 7735   1.346   0.497   4.262  0.7981  0.5642  0.6934
 2577TIP3   OH2 7736   2.553   5.996   2.385 -0.5443 -0.1691  0.2286
 2577TIP3    H1 7737   2.635   5.978   2.430  0.5928  0.4295 -1.4964
 2577TIP3    H2 7738   2.570   5.971   2.294 -2.7695 -1.4173  0.0966
 2578TIP3   OH2 7739   1.008   4.104   0.813  0.4723 -0.2228 -0.2963
 2578TIP3    H1 7740   1.001   4.112   0.718 -0.2852 -0.9497 -0.3145
 2578TIP3    H2 7741   1.098   4.128   0.833  0.1518  1.8408 -0.9937
 2579TIP3   OH2 7742   0.772   2.768   1.679  0.3640 -0.0006 -0.0805
 2579TIP3    H1 7743   0.846   2.734   1.729  0.8377  1.6065  0.3784
 2579TIP3    H2 7744   0.706   2.699   1.685  1.4828 -1.0907  0.2586
 2580TIP3   OH2 7745   1.332   3.646   4.055  0.2241 -0.5095 -0.4224
 2580TIP3    H1 7746   1.420   3.632   4.018  0.3079  2.5163 -1.6456
 2580TIP3    H2 7747   1.345   3.642   4.150  1.7641  0.1923 -0.5719
 2581TIP3   OH2 7748   3.978   0.602   3.048 -0.0160  0.0309  0.3635
 2581TIP3    H1 7749   3.998   0.612   2.955 -0.4281  0.7816  0.3499
 2581TIP3    H2 7750   4.052   0.643   3.093 -0.3895  0.7414  0.3439
 2582TIP3   OH2 7751   0.610   3.546   0.135 -0.3557 -0.2142 -0.0705
 2582TIP3    H1 7752   0.604   3.599   0.055 -0.1158 -0.8396 -0.5112
 2582TIP3    H2 7753   0.556   3.593   0.199  0.0135  0.6699 -0.3863
 2583TIP3   OH2 7754   5.817   0.932   3.526 -0.3265 -0.1074 -0.0787
 2583TIP3    H1 7755   5.856   0.969   3.605  1.1459 -0.0672 -0.7869
 2583TIP3    H2 7756   5.855   0.983   3.454 -2.1308  0.2958 -0.7999
 2584TIP3   OH2 7757   3.466   2.033   2.795  0.0997  0.1651 -0.1574
 2584TIP3    H1 7758   3.440   1.955   2.746 -0.5884  0.5929 -0.4937
 2584TIP3    H2 7759   3.406   2.035   2.870  1.1839 -0.5191  0.7629
 2585TIP3   OH2 7760   3.126   0.608   3.522 -0.4942  0.0370 -0.3669
 2585TIP3    H1 7761   3.221   0.605   3.531 -0.5582  0.1498  0.3877
 2585TIP3    H2 7762   3.111   0.666   3.447  0.0079  0.5444 -0.0820
 2586TIP3   OH2 7763   0.396   5.818   0.407  0.2072 -0.6726  0.6783
 2586TIP3    H1 7764   0.447   5.788   0.331 -0.2638 -1.5355  0.6954
 2586TIP3    H2 7765   0.460   5.866   0.461  0.1670  1.5519 -1.1110
 2587TIP3   OH2 7766   5.697   0.732   3.718 -0.0225 -0.2334 -0.1195
 2587TIP3    H1 7767   5.774   0.767   3.762 -0.6882  1.4712 -0.2543
 2587TIP3    H2 7768   5.699   0.771   3.631  0.5724 -2.5460 -1.2129
 2588TIP3   OH2 7769   4.513   4.183   4.050  0.0899 -0.3537 -0.3101
 2588TIP3    H1 7770   4.526   4.093   4.021  0.9312  0.4154 -2.5207
 2588TIP3    H2 7771   4.600   4.223   4.041 -0.5883  1.0590 -0.7904
 2589TIP3   OH2 7772   4.169   3.078   3.410  0.1200  0.5039 -0.2098
 2589TIP3    H1 7773   4.094   3.110   3.459 -1.8885  1.9236 -3.8448
 2589TIP3    H2 7774   4.140   2.994   3.374  0.6932  0.5625 -0.8203
 2590TIP3   OH2 7775   5.576   0.507   3.404  0.1345 -0.2427  0.1308
 2590TIP3    H1 7776   5.663   0.523   3.369  0.4028 -1.0502  0.3941
 2590TIP3    H2 7777   5.546   0.592   3.436  1.2142 -0.1306  0.8860
 2591TIP3   OH2 7778   5.718   0.100   3.568  0.4446 -0.0337  0.0948
 2591TIP3    H1 7779   5.697   0.118   3.476 -0.6530  1.3334  0.5801
 2591TIP3    H2 7780   5.792   0.157   3.587  0.1083  0.3361  0.2975
 2592TIP3   OH2 7781   3.061   3.460   2.270 -0.3840 -0.3500  1.0062
 2592TIP3    H1 7782   3.025   3.455   2.181  1.0543 -0.6367  0.4126
 2592TIP3    H2 7783   2.997   3.512   2.319 -1.4945 -0.6790 -0.0389
 2593TIP3   OH2 7784   2.683   0.846   1.984 -0.2493  0.1362 -0.1087
 2593TIP3    H1 7785   2.704   0.753   1.990  0.1832  0.1256 -1.5048
 2593TIP3    H2 7786   2.661   0.861   1.892 -0.5284  1.3735  0.1304
 2594TIP3   OH2 7787   2.843   1.949   2.720 -0.0815  0.4219 -0.1556
 2594TIP3    H1 7788   2.824   2.007   2.646  0.4957 -2.5647 -2.8549
 2594TIP3    H2 7789   2.900   1.881   2.683 -1.2632 -2.2675  2.5537
 2595TIP3   OH2 7790   4.287   1.808   3.955 -0.3873 -0.3454 -0.0096
 2595TIP3    H1 7791   4.295   1.840   4.045  1.7522 -0.1469 -0.2214
 2595TIP3    H2 7792   4.372   1.825   3.915 -0.7532 -1.9065 -1.6049
 2596TIP3   OH2 7793   0.432   2.486   3.653 -0.2689  0.5180  0.2866
 2596TIP3    H1 7794   0.518   2.525   3.666 -0.9618  1.8964  1.0074
 2596TIP3    H2 7795   0.447   2.392   3.658  1.1507  0.7395  0.6743
 2597TIP3   OH2 7796   0.826   1.612   4.743 -0.2561 -0.1053  0.0451
 2597TIP3    H1 7797   0.762   1.611   4.814 -0.2994  0.9699  0.0435
 2597TIP3    H2 7798   0.910   1.621   4.788 -0.4699  4.4406 -0.0055
 2598TIP3   OH2 7799   1.285   0.658   3.304  0.3148  0.1089  0.7121
 2598TIP3    H1 7800   1.358   0.614   3.347  0.8145  0.3964  0.1609
 2598TIP3    H2 7801   1.259   0.599   3.233  1.1160  0.7729 -0.1545
 2599TIP3   OH2 7802   5.770   5.607   2.779  0.0252  0.1874 -0.2655
 2599TIP3    H1 7803   5.855   5.577   2.811 -0.6628 -2.2262 -0.4765
 2599TIP3    H2 7804   5.790   5.672   2.712  1.6966 -0.2913 -0.2603
 2600TIP3   OH2 7805   2.307   1.571   3.029  0.6003 -0.2050  0.0342
 2600TIP3    H1 7806   2.398   1.555   3.050  0.3273  0.7293  2.3143
 2600TIP3    H2 7807   2.262   1.565   3.113 -1.4729 -0.7485 -1.0434
 2601TIP3   OH2 7808   1.661   2.379   4.059  0.0509  0.0458 -0.2220
 2601TIP3    H1 7809   1.612   2.333   4.127 -0.1460  0.3118 -0.1792
 2601TIP3    H2 7810   1.712   2.311   4.015  0.1405 -0.1356  0.1573
 2602TIP3   OH2 7811   5.466   3.465   0.222  0.2421 -0.4102 -0.2025
 2602TIP3    H1 7812   5.384   3.510   0.205  0.9671  0.8936 -0.3845
 2602TIP3    H2 7813   5.479   3.475   0.317  1.2033  1.2786 -0.4607
 2603TIP3   OH2 7814   2.333   2.720   2.531  0.1087  0.3783  0.2641
 2603TIP3    H1 7815   2.316   2.809   2.501 -3.4304  0.0763  0.8706
 2603TIP3    H2 7816   2.325   2.725   2.626  4.0598  0.0258  0.7921
 2604TIP3   OH2 7817   6.003   0.867   2.079 -0.3495  0.4763 -0.3219
 2604TIP3    H1 7818   6.051   0.945   2.049 -0.8081  0.9609  0.1875
 2604TIP3    H2 7819   6.059   0.794   2.053  1.6220  1.0743  1.8665
 2605TIP3   OH2 7820   2.118   4.995   0.239 -0.1722  0.1892 -0.4600
 2605TIP3    H1 7821   2.113   5.041   0.155  0.6242  1.6072  0.2278
 2605TIP3    H2 7822   2.099   5.062   0.304 -0.1840 -0.7525  0.5369
 2606TIP3   OH2 7823   3.249   2.858   4.392 -0.4946  0.5833 -0.0739
 2606TIP3    H1 7824   3.175   2.844   4.333  0.7461  0.6039 -1.7057
 2606TIP3    H2 7825   3.259   2.953   4.396 -0.3474  0.5716 -0.1435
 2607TIP3   OH2 7826   3.537   4.062   3.726 -0.1561  0.0369  0.2334
 2607TIP3    H1 7827   3.569   4.108   3.648  0.7943 -1.2162 -0.1492
 2607TIP3    H2 7828   3.588   4.099   3.798 -0.3847  0.5476  0.1412
 2608TIP3   OH2 7829   5.817   3.737   1.842 -0.1433 -0.1559 -0.1309
 2608TIP3    H1 7830   5.909   3.711   1.835  0.6233  0.8092  3.9572
 2608TIP3    H2 7831   5.770   3.656   1.857  0.8527 -0.2908  2.7843
 2609TIP3   OH2 7832   4.836   4.366   1.314  0.0400  0.1696  0.2755
 2609TIP3    H1 7833   4.861   4.357   1.406  0.2028 -0.2088  0.1976
 2609TIP3    H2 7834   4.899   4.311   1.267 -0.5991 -0.3609  0.0239
 2610TIP3   OH2 7835   2.842   5.302   2.317  0.6090  0.1581 -0.0996
 2610TIP3    H1 7836   2.786   5.379   2.310 -0.9750 -0.8207  1.2014
 2610TIP3    H2 7837   2.901   5.322   2.390  0.1031  0.0740  0.3324
 2611TIP3   OH2 7838   1.848   3.556   1.706 -0.2493  0.3805 -0.2515
 2611TIP3    H1 7839   1.860   3.555   1.801  1.0370  4.7591 -0.1363
 2611TIP3    H2 7840   1.910   3.622   1.674 -0.7073 -0.7960 -4.1787
 2612TIP3   OH2 7841   1.050   2.787   2.634  0.4513  0.3894 -0.1212
 2612TIP3    H1 7842   1.088   2.764   2.550 -1.2663 -1.0251 -0.5620
 2612TIP3    H2 7843   0.960   2.755   2.630  0.9181 -1.7877  3.0716
 2613TIP3   OH2 7844   3.120   1.553   0.574 -0.2023 -0.0391 -0.8002
 2613TIP3    H1 7845   3.045   1.499   0.601  0.8844 -1.1064  0.2519
 2613TIP3    H2 7846   3.081   1.623   0.522 -2.1765  0.5602  1.2718
 2614TIP3   OH2 7847   5.505   3.556   4.948  0.5869 -0.4139  0.1791
 2614TIP3    H1 7848   5.593   3.550   4.909  0.9625 -2.2967  1.1875
 2614TIP3    H2 7849   5.503   3.486   5.013 -1.5593 -0.1728  0.4439
 2615TIP3   OH2 7850   0.336   0.524   0.433  0.7135  0.1512  0.0055
 2615TIP3    H1 7851   0.384   0.555   0.356 -1.0670 -0.2537 -1.3301
 2615TIP3    H2 7852   0.244   0.528   0.407  0.1356 -1.2865  1.6510
 2616TIP3   OH2 7853   2.708   4.953   1.425 -0.2958  0.2142 -0.1997
 2616TIP3    H1 7854   2.713   4.858   1.420 -0.2467 -0.0131  2.4402
 2616TIP3    H2 7855   2.658   4.970   1.505 -1.5921  2.4410 -1.3959
 2617TIP3   OH2 7856   3.006   3.990   0.347 -0.1469 -0.1405  0.0772
 2617TIP3    H1 7857   2.924   3.954   0.381 -1.8376  1.2078 -2.2587
 2617TIP3    H2 7858   2.995   4.085   0.354  1.8815  0.0661  1.0494
 2618TIP3   OH2 7859   2.524   3.183   2.624  0.0641 -0.6634 -0.1554
 2618TIP3    H1 7860   2.465   3.132   2.680 -1.7675 -0.4143 -1.7680
 2618TIP3    H2 7861   2.543   3.262   2.675 -0.4309 -1.0627  0.6684
 2619TIP3   OH2 7862   0.419   1.084   4.733 -0.2528  0.4412  0.6791
 2619TIP3    H1 7863   0.415   0.988   4.728 -1.6658  0.4838  0.4735
 2619TIP3    H2 7864   0.477   1.102   4.807  1.5241 -0.5349 -0.3999
 2620TIP3   OH2 7865   4.616   4.534   3.249  0.1582 -0.3159  0.1137
 2620TIP3    H1 7866   4.680   4.593   3.288  0.7474 -0.9465  0.1169
 2620TIP3    H2 7867   4.667   4.457   3.222 -0.6168 -0.9016  0.2711
 2621TIP3   OH2 7868   1.074   4.032   1.676  0.2470  0.1534 -0.3643
 2621TIP3    H1 7869   1.151   3.995   1.720  0.6529  0.2926 -0.9448
 2621TIP3    H2 7870   1.023   4.071   1.747  0.1936 -0.8376  0.1604
 2622TIP3   OH2 7871   1.792   0.671   0.060 -0.0865 -0.2133 -0.6518
 2622TIP3    H1 7872   1.771   0.735  -0.008  1.2144 -0.5798 -1.4327
 2622TIP3    H2 7873   1.706   0.641   0.092 -0.7180  0.4206 -1.6903
 2623TIP3   OH2 7874   5.495   3.245   3.072 -0.2891  0.4714 -0.0833
 2623TIP3    H1 7875   5.457   3.254   3.159 -1.7547 -1.9459 -0.3929
 2623TIP3    H2 7876   5.476   3.155   3.046  1.1757  0.7421 -2.4293
 2624TIP3   OH2 7877   3.581   0.417   2.767 -0.6302  0.6276  0.1395
 2624TIP3    H1 7878   3.585   0.507   2.734  2.0455  0.9309  1.0065
 2624TIP3    H2 7879   3.513   0.420   2.835  0.1957  2.3456  0.9618
 2625TIP3   OH2 7880   4.064   4.320   5.148  0.0413 -0.3032  0.2831
 2625TIP3    H1 7881   4.092   4.412   5.154  0.0215 -0.2064 -0.9121
 2625TIP3    H2 7882   4.067   4.300   5.054 -2.8668 -0.6129  0.1775
 2626TIP3   OH2 7883   4.739   0.240   3.878  0.4364 -0.5200 -0.0693
 2626TIP3    H1 7884   4.664   0.282   3.920  0.1759 -0.5815 -0.4692
 2626TIP3    H2 7885   4.746   0.284   3.793 -1.3600 -2.8869 -1.5583
 2627TIP3   OH2 7886   4.271   5.119   0.025 -0.2611 -0.2100 -0.3085
 2627TIP3    H1 7887   4.234   5.163   0.102  0.3453  0.8261 -0.5932
 2627TIP3    H2 7888   4.283   5.189  -0.038  0.0206 -0.9248 -1.0567
 2628TIP3   OH2 7889   5.642   1.061   3.800 -0.5598 -0.3845  0.5838
 2628TIP3    H1 7890   5.641   1.146   3.844  1.8797  0.4102 -0.6950
 2628TIP3    H2 7891   5.731   1.027   3.815 -0.5566 -1.3478 -1.3063
 2629TIP3   OH2 7892   0.425   1.991   3.750 -0.2030  0.3019  0.1785
 2629TIP3    H1 7893   0.364   2.026   3.815 -1.6537 -1.5001 -0.1330
 2629TIP3    H2 7894   0.376   1.996   3.667  1.3884  2.0095 -0.7466
 2630TIP3   OH2 7895   2.435   1.603   1.845  0.2685  0.4576  0.0421
 2630TIP3    H1 7896   2.381   1.577   1.919 -0.4761 -0.0993 -0.6738
 2630TIP3    H2 7897   2.490   1.527   1.826  0.5227  0.6297  0.0819
 2631TIP3   OH2 7898   4.545   2.059   0.670  0.3533 -0.1289 -0.1173
 2631TIP3    H1 7899   4.478   2.007   0.626 -0.8414  1.6996 -0.5763
 2631TIP3    H2 7900   4.625   2.040   0.621 -0.2567 -0.7658 -0.8997
 2632TIP3   OH2 7901   5.820   5.790   2.578 -0.2430 -0.0286  0.3253
 2632TIP3    H1 7902   5.900   5.843   2.588  1.0315 -1.5899 -0.9860
 2632TIP3    H2 7903   5.805   5.789   2.483 -1.2665 -0.5479  0.4887
 2633TIP3   OH2 7904   5.068   2.176   1.281 -0.6331  0.0072 -0.0750
 2633TIP3    H1 7905   5.072   2.180   1.185 -0.5707 -1.7552 -0.1693
 2633TIP3    H2 7906   5.017   2.097   1.299  0.1792 -0.2058  1.3622
 2634TIP3   OH2 7907   5.632   1.991   1.264  0.4741 -0.1954  0.4854
 2634TIP3    H1 7908   5.704   1.932   1.241  1.2042 -0.0774  2.3089
 2634TIP3    H2 7909   5.579   1.941   1.326 -0.4810  0.0952 -0.0651
 2635TIP3   OH2 7910   6.213   3.713   2.640 -0.4128 -0.2336  0.4675
 2635TIP3    H1 7911   6.140   3.737   2.698 -0.6100 -0.5262  0.3451
 2635TIP3    H2 7912   6.171   3.698   2.555 -0.2591 -0.7538  0.4816
 2636TIP3   OH2 7913   3.426   5.668   1.386  0.2894  0.1640  0.3318
 2636TIP3    H1 7914   3.469   5.676   1.471  1.6478  0.6760 -0.3893
 2636TIP3    H2 7915   3.477   5.723   1.327 -2.1170  1.8739 -0.3023
 2637TIP3   OH2 7916   0.025   0.248   0.498 -0.1545  0.6578 -0.0447
 2637TIP3    H1 7917  -0.031   0.203   0.561  0.0131  1.2775  0.5633
 2637TIP3    H2 7918   0.113   0.216   0.518 -0.0779  0.9927  0.1661
 2638TIP3   OH2 7919   5.190   0.328   4.690 -0.3289 -0.6111  0.1784
 2638TIP3    H1 7920   5.209   0.413   4.650  1.2143 -0.6277  0.7960
 2638TIP3    H2 7921   5.184   0.268   4.616 -1.4218  0.0165 -0.2631
 2639TIP3   OH2 7922   1.467   2.561   2.627 -0.3986  0.2673  0.1182
 2639TIP3    H1 7923   1.400   2.514   2.677 -0.2957  1.3804  1.3554
 2639TIP3    H2 7924   1.436   2.557   2.536 -0.2163 -2.4522  0.0784
 2640TIP3   OH2 7925   2.657   0.212   2.801 -0.1349 -0.5161 -0.3668
 2640TIP3    H1 7926   2.686   0.129   2.839  0.9755 -0.1282 -0.3295
 2640TIP3    H2 7927   2.725   0.235   2.738  0.7905  1.4791  1.2471
 2641TIP3   OH2 7928   5.708   0.264   2.308 -0.2144  0.5286  0.4901
 2641TIP3    H1 7929   5.738   0.302   2.391 -0.3622  0.7139  0.4587
 2641TIP3    H2 7930   5.615   0.250   2.321  0.0133 -0.7594  0.8658
 2642TIP3   OH2 7931   0.648   3.343   2.543 -0.3706  0.3153 -0.0195
 2642TIP3    H1 7932   0.625   3.270   2.602  0.3577  0.6609  0.7204
 2642TIP3    H2 7933   0.628   3.421   2.594 -0.7671  0.6391 -0.6613
 2643TIP3   OH2 7934   2.173   4.611   0.856 -0.2024  0.2710 -0.3005
 2643TIP3    H1 7935   2.138   4.687   0.902  1.8084  0.0428  1.7628
 2643TIP3    H2 7936   2.097   4.571   0.814 -1.3744  3.1530 -1.1149
 2644TIP3   OH2 7937   1.328   5.097   0.054  0.4421 -0.0539  0.2906
 2644TIP3    H1 7938   1.251   5.042   0.042  0.9331 -1.3481  2.4589
 2644TIP3    H2 7939   1.398   5.053   0.005  0.3494 -0.2057  0.2955
 2645TIP3   OH2 7940   0.796   1.571   2.442 -0.0453  0.1991  0.1428
 2645TIP3    H1 7941   0.708   1.536   2.454 -0.5842  2.3190  3.8000
 2645TIP3    H2 7942   0.844   1.544   2.519  1.4835  1.8532 -0.1561
 2646TIP3   OH2 7943   0.330   1.452   2.074  0.2110  0.0953  0.3107
 2646TIP3    H1 7944   0.420   1.484   2.073 -0.5341  2.4164 -0.3040
 2646TIP3    H2 7945   0.289   1.494   1.997 -1.2021 -1.5312  0.1006
 2647TIP3   OH2 7946   5.698   3.514   1.934 -0.3111  0.2575  0.1175
 2647TIP3    H1 7947   5.710   3.501   2.028  0.9801 -2.9907 -0.3845
 2647TIP3    H2 7948   5.668   3.429   1.902 -3.0447  1.8887 -2.1594
 2648TIP3   OH2 7949   0.502   3.894   0.168  0.4039 -0.1348 -0.8043
 2648TIP3    H1 7950   0.472   3.803   0.172  1.0994 -0.3775 -0.9294
 2648TIP3    H2 7951   0.598   3.888   0.174  0.4033  0.6697  0.3320
 2649TIP3   OH2 7952   0.527   4.720   1.389  0.0139 -0.0765  0.1987
 2649TIP3    H1 7953   0.438   4.729   1.425 -0.8559  1.4391 -2.1241
 2649TIP3    H2 7954   0.515   4.727   1.294  2.5036 -1.1456 -0.2639
 2650TIP3   OH2 7955   1.838   2.962   4.741  0.2244  0.0824 -0.2383
 2650TIP3    H1 7956   1.746   2.988   4.729 -0.2243 -1.4170 -0.2668
 2650TIP3    H2 7957   1.841   2.930   4.831  0.7890  0.3630 -0.1580
 2651TIP3   OH2 7958   2.667   5.542   1.710  0.1279 -0.0288 -0.1764
 2651TIP3    H1 7959   2.648   5.482   1.637 -1.7790 -1.2205  1.2401
 2651TIP3    H2 7960   2.583   5.582   1.732  0.7029  0.4671  1.2423
 2652TIP3   OH2 7961   3.163   4.442   0.035 -0.1059 -0.3035  0.0353
 2652TIP3    H1 7962   3.131   4.530   0.058 -0.6404 -0.0993 -1.4157
 2652TIP3    H2 7963   3.202   4.409   0.116 -0.0209  1.2160  0.6445
 2653TIP3   OH2 7964   0.680   4.255   2.723 -0.4108 -0.6764 -0.4005
 2653TIP3    H1 7965   0.628   4.280   2.646  0.5645 -0.3177 -0.9624
 2653TIP3    H2 7966   0.754   4.206   2.686 -0.3162 -1.1325  0.3813
 2654TIP3   OH2 7967   3.238   4.539   5.178  0.0881 -0.2416 -0.2983
 2654TIP3    H1 7968   3.275   4.456   5.148 -0.2128 -0.4334 -0.1434
 2654TIP3    H2 7969   3.181   4.567   5.107 -2.0743 -1.6116  0.7729
 2655TIP3   OH2 7970   5.160   1.750   1.386 -0.2766  0.0243 -0.3307
 2655TIP3    H1 7971   5.228   1.816   1.403  1.6504 -1.8007 -0.5302
 2655TIP3    H2 7972   5.199   1.668   1.417 -1.9593 -1.2711 -1.5004
 2656TIP3   OH2 7973   4.693   1.100   1.884  0.2842 -0.2679  0.6748
 2656TIP3    H1 7974   4.604   1.124   1.910  0.2411 -0.5474  0.7939
 2656TIP3    H2 7975   4.694   1.109   1.789 -0.2134 -1.3584  0.5550
 2657TIP3   OH2 7976   1.751   3.361   1.171 -0.1075 -0.1061 -0.1033
 2657TIP3    H1 7977   1.805   3.284   1.192  1.5412  1.0119 -0.0270
 2657TIP3    H2 7978   1.813   3.423   1.133 -1.2513  1.4831  0.5462
 2658TIP3   OH2 7979   0.698   3.266   3.720  0.2520  0.8087  0.1793
 2658TIP3    H1 7980   0.707   3.357   3.749  1.8174  1.8831 -3.1911
 2658TIP3    H2 7981   0.783   3.226   3.735  0.1364  0.4649 -0.0376
 2659TIP3   OH2 7982   3.296  -0.029   4.699 -0.0177  0.1443 -0.5049
 2659TIP3    H1 7983   3.348   0.044   4.733 -0.9413  1.4670 -1.8117
 2659TIP3    H2 7984   3.289  -0.013   4.605  1.1757 -2.5787 -1.1771
 2660TIP3   OH2 7985   1.547   0.257   4.652 -0.6480  0.0788  0.3945
 2660TIP3    H1 7986   1.634   0.282   4.680 -0.4271  0.5413 -0.6584
 2660TIP3    H2 7987   1.549   0.265   4.556 -1.8213  0.0347  0.3490
 2661TIP3   OH2 7988   6.179   0.494   1.231  0.4542  0.0508  0.1831
 2661TIP3    H1 7989   6.264   0.532   1.208 -0.1871  1.0836 -0.5407
 2661TIP3    H2 7990   6.167   0.516   1.323  2.1435 -2.4208  1.1307
 2662TIP3   OH2 7991   5.990   3.605   4.582  0.4053 -0.2561 -0.2833
 2662TIP3    H1 7992   6.006   3.516   4.613 -0.4888 -0.0318  0.8710
 2662TIP3    H2 7993   6.050   3.660   4.633  1.6834 -0.2655 -1.6964
 2663TIP3   OH2 7994   1.241   4.645   2.413  0.5428  0.2001  0.7101
 2663TIP3    H1 7995   1.219   4.703   2.341  2.7259 -1.8017 -1.7790
 2663TIP3    H2 7996   1.311   4.590   2.379  0.2785 -2.2653  3.6909
 2664TIP3   OH2 7997   4.401   1.060   3.704  0.4375 -0.1664 -0.9600
 2664TIP3    H1 7998   4.359   1.134   3.748  0.0477 -0.8395 -0.1903
 2664TIP3    H2 7999   4.329   1.012   3.663  0.3708 -1.4847  0.5969
 2665TIP3   OH2 8000   0.175   0.253   1.368  0.6311 -0.6555  0.3270
 2665TIP3    H1 8001   0.120   0.183   1.334 -1.1443  0.3749  0.8903
 2665TIP3    H2 8002   0.167   0.245   1.463 -0.5298  0.9288  0.4070
 2666TIP3   OH2 8003   0.140   3.028   3.717 -0.5192 -0.0055  0.5174
 2666TIP3    H1 8004   0.219   3.000   3.671 -0.2970 -0.2445  1.0298
 2666TIP3    H2 8005   0.121   2.956   3.777 -0.7323  0.3568  0.8872
 2667TIP3   OH2 8006   0.126   2.068   0.662 -1.0950  0.3440  0.1079
 2667TIP3    H1 8007   0.080   2.143   0.624  0.4765  1.1510 -0.3101
 2667TIP3    H2 8008   0.079   1.991   0.631 -1.3475  1.0783 -1.4118
 2668TIP3   OH2 8009   2.571   0.823   0.225 -0.5423  0.1648  0.0893
 2668TIP3    H1 8010   2.543   0.761   0.158 -2.8144  1.3735 -0.1740
 2668TIP3    H2 8011   2.564   0.775   0.307  2.9175 -1.5583 -0.4252
 2669TIP3   OH2 8012   6.289   2.215   3.391  0.6001 -0.7078  0.1245
 2669TIP3    H1 8013   6.242   2.220   3.308  1.2615 -0.5978 -0.2479
 2669TIP3    H2 8014   6.368   2.267   3.377  0.7794 -0.7979  0.7803
 2670TIP3   OH2 8015   1.837   5.046   1.716  0.2254  0.1409 -0.2219
 2670TIP3    H1 8016   1.816   4.953   1.711  0.2892  0.1832 -2.2178
 2670TIP3    H2 8017   1.921   5.055   1.672  0.1271  1.1641 -0.2366
 2671TIP3   OH2 8018   1.672   3.805   1.836  0.4640 -0.3802  0.4466
 2671TIP3    H1 8019   1.732   3.737   1.866 -1.2713 -2.0897  0.2681
 2671TIP3    H2 8020   1.590   3.788   1.883  0.2674  2.2991  1.2120
 2672TIP3   OH2 8021   2.630   0.422   0.077 -0.6101 -0.0583  0.3180
 2672TIP3    H1 8022   2.708   0.447   0.126 -1.0996 -0.4268  1.3125
 2672TIP3    H2 8023   2.643   0.330   0.056 -0.5462  0.0148  0.0359
 2673TIP3   OH2 8024   6.087   0.393   0.971  0.1254  0.6003 -0.2150
 2673TIP3    H1 8025   6.138   0.432   1.043 -1.2599  0.8399  0.6739
 2673TIP3    H2 8026   6.135   0.418   0.892  0.1735  2.7802  0.4190
 2674TIP3   OH2 8027   2.994   3.651   4.606 -0.3221 -0.0365 -0.1824
 2674TIP3    H1 8028   2.938   3.719   4.642 -0.4955 -0.1826 -0.1745
 2674TIP3    H2 8029   2.934   3.578   4.587 -0.1466 -0.1679 -0.2351
 2675TIP3   OH2 8030   4.148   4.879   0.041 -0.6538  0.3361  0.1372
 2675TIP3    H1 8031   4.200   4.831   0.105 -0.2645 -0.6633 -0.8985
 2675TIP3    H2 8032   4.204   4.951   0.013 -1.4721  1.8598  2.1612
 2676TIP3   OH2 8033   3.533   1.217   1.127 -0.0289 -0.4648 -0.2829
 2676TIP3    H1 8034   3.512   1.229   1.035 -1.5563 -2.7802 -0.3228
 2676TIP3    H2 8035   3.619   1.174   1.126 -0.4825 -1.3905 -0.7025
 2677TIP3   OH2 8036   2.290   3.391   4.596 -0.0909 -0.9043 -0.6092
 2677TIP3    H1 8037   2.232   3.463   4.618  2.9512  1.3514  0.6478
 2677TIP3    H2 8038   2.333   3.368   4.678  1.2245 -2.0646 -1.5699
 2678TIP3   OH2 8039   3.268   5.398   4.446 -0.6129 -0.9713  0.2795
 2678TIP3    H1 8040   3.184   5.353   4.439 -0.3363 -1.3262 -1.1200
 2678TIP3    H2 8041   3.315   5.373   4.367  0.3144  0.2320  0.4156
 2679TIP3   OH2 8042   4.890   3.794   3.372 -0.2443  0.2260 -0.2431
 2679TIP3    H1 8043   4.796   3.777   3.365 -0.6250  0.7008  2.3413
 2679TIP3    H2 8044   4.932   3.711   3.351 -1.3497 -0.4331  0.0969
 2680TIP3   OH2 8045   4.732   3.661   0.077 -0.1240 -0.4493  0.5023
 2680TIP3    H1 8046   4.714   3.689   0.167  0.9256 -1.7243  1.1546
 2680TIP3    H2 8047   4.653   3.614   0.050 -1.2753  1.6902 -0.0450
 2681TIP3   OH2 8048   2.532   1.619   5.141 -0.5054  0.1834  0.1142
 2681TIP3    H1 8049   2.549   1.554   5.073 -2.4354  1.0418 -1.2630
 2681TIP3    H2 8050   2.439   1.610   5.162 -0.3983  1.2799  1.2241
 2682TIP3   OH2 8051   4.171   4.812   1.475  0.2907  0.0099 -0.2970
 2682TIP3    H1 8052   4.113   4.869   1.526 -1.1973 -1.0332 -0.7638
 2682TIP3    H2 8053   4.113   4.747   1.436  1.5890 -0.1392 -2.0985
 2683TIP3   OH2 8054   2.841   5.177   0.180 -0.1989  0.1993  0.1330
 2683TIP3    H1 8055   2.881   5.257   0.213 -0.4603  0.4429 -0.1284
 2683TIP3    H2 8056   2.776   5.154   0.246  0.9266 -0.6706  0.9852
 2684TIP3   OH2 8057   4.465   5.120   2.273  0.0375 -0.4902  0.0380
 2684TIP3    H1 8058   4.429   5.097   2.359 -0.9970 -0.6787 -0.4274
 2684TIP3    H2 8059   4.435   5.210   2.258 -0.3419 -0.6798 -0.3915
 2685TIP3   OH2 8060   6.097   5.635   0.269  0.0023  0.1125 -0.1937
 2685TIP3    H1 8061   6.004   5.614   0.256 -0.7370  1.7316  1.8570
 2685TIP3    H2 8062   6.117   5.603   0.357  1.6401 -0.8700 -0.8813
 2686TIP3   OH2 8063   4.565   5.463   1.757 -0.3305  0.7355 -0.1555
 2686TIP3    H1 8064   4.570   5.558   1.769 -1.6353  0.8931 -0.7215
 2686TIP3    H2 8065   4.471   5.444   1.756 -0.0865 -0.7075  0.9723
 2687TIP3   OH2 8066   2.089   4.967   4.815 -0.3183  0.2951 -0.2289
 2687TIP3    H1 8067   2.074   5.053   4.775  1.6171  1.5575  1.5372
 2687TIP3    H2 8068   2.046   4.973   4.900  0.6299 -0.1070  0.2929
 2688TIP3   OH2 8069   1.570   0.906   1.891  0.8261  0.0458 -0.6127
 2688TIP3    H1 8070   1.642   0.842   1.894  0.5241 -0.2955 -0.6499
 2688TIP3    H2 8071   1.505   0.867   1.833 -0.0362 -0.3199  0.5594
 2689TIP3   OH2 8072   5.985   1.951   3.750  0.5407 -0.4893 -0.2609
 2689TIP3    H1 8073   5.917   2.013   3.777  1.2977  1.1764 -1.9247
 2689TIP3    H2 8074   5.973   1.942   3.655  0.2631 -3.2118 -0.0324
 2690TIP3   OH2 8075   1.958   0.886   1.458  0.0610 -0.1204 -0.1130
 2690TIP3    H1 8076   1.890   0.882   1.525  0.9900 -0.2432  0.8391
 2690TIP3    H2 8077   1.911   0.910   1.378 -1.1090 -0.2874  0.5069
 2691TIP3   OH2 8078   1.785   4.342   3.034 -0.3877  0.1353  0.3553
 2691TIP3    H1 8079   1.771   4.250   3.012  3.3944 -0.5627  0.1479
 2691TIP3    H2 8080   1.781   4.387   2.950  0.0340 -0.2414  0.1280
 2692TIP3   OH2 8081   4.099   2.342   2.414  0.3445  0.4161  0.5230
 2692TIP3    H1 8082   4.148   2.356   2.332  0.8999 -0.2197  0.7409
 2692TIP3    H2 8083   4.162   2.303   2.474 -0.2540  0.2085  1.0327
 2693TIP3   OH2 8084   0.246   5.898   2.098 -0.2727  0.2136  0.2046
 2693TIP3    H1 8085   0.242   5.884   2.193 -1.1914 -0.6004  0.0555
 2693TIP3    H2 8086   0.190   5.974   2.083  1.5896  1.7395  0.5399
 2694TIP3   OH2 8087   3.681   4.074   2.780 -0.3098  0.5771 -0.5220
 2694TIP3    H1 8088   3.623   4.006   2.814 -0.7174  0.2153 -1.8441
 2694TIP3    H2 8089   3.660   4.152   2.829  1.5895 -0.6449  2.5119
 2695TIP3   OH2 8090   4.556   5.272   0.017  0.1716  0.3168  0.4012
 2695TIP3    H1 8091   4.517   5.275   0.104  2.0096 -0.0548  1.2765
 2695TIP3    H2 8092   4.644   5.238   0.031  2.1074  4.1418 -0.9480
 2696TIP3   OH2 8093   1.263   1.320   5.037  0.1549 -0.5770  0.3015
 2696TIP3    H1 8094   1.179   1.364   5.052  0.1021 -0.9976  1.2813
 2696TIP3    H2 8095   1.239   1.229   5.018  0.4244 -0.9492  1.6412
 2697TIP3   OH2 8096   2.708   2.848   3.636  0.1970  0.2943 -0.3238
 2697TIP3    H1 8097   2.803   2.836   3.639  0.0125 -1.2622  0.1330
 2697TIP3    H2 8098   2.694   2.900   3.556  1.3955  0.2707 -0.5818
 2698TIP3   OH2 8099   4.213   2.735   0.073  0.0235  0.0226  0.3320
 2698TIP3    H1 8100   4.260   2.737  -0.010  0.4224 -2.8763  0.4095
 2698TIP3    H2 8101   4.282   2.734   0.140 -0.2108 -0.6307  0.5722
 2699TIP3   OH2 8102   0.022   0.599   4.236 -0.1558  0.3497  0.0417
 2699TIP3    H1 8103   0.076   0.520   4.237 -0.5593  0.0671  1.6673
 2699TIP3    H2 8104  -0.020   0.601   4.322 -0.7821  1.9081 -0.2654
 2700TIP3   OH2 8105   0.505   0.082   2.644  0.1699  0.2345 -0.2166
 2700TIP3    H1 8106   0.427   0.105   2.592  0.0035  0.2111  0.0187
 2700TIP3    H2 8107   0.560   0.160   2.639 -1.3640  1.6105  2.3868
 2701TIP3   OH2 8108   2.177   0.861   4.425  0.3440 -0.0681 -0.0387
 2701TIP3    H1 8109   2.272   0.860   4.432  0.2258  1.2013  3.3873
 2701TIP3    H2 8110   2.155   0.952   4.408 -0.2980  0.1441  1.7231
 2702TIP3   OH2 8111   4.607   2.804   2.780  0.2669 -0.1480 -0.0250
 2702TIP3    H1 8112   4.518   2.776   2.803 -1.0471  2.6711 -1.2735
 2702TIP3    H2 8113   4.633   2.863   2.851  0.0738  0.9974 -0.8694
 2703TIP3   OH2 8114   0.225   5.629   3.772  0.4197 -0.0191 -0.1533
 2703TIP3    H1 8115   0.192   5.691   3.838 -0.7642 -0.9093  0.1231
 2703TIP3    H2 8116   0.235   5.683   3.693  0.3104  0.7229  0.3208
 2704TIP3   OH2 8117   3.838   4.821   4.654 -0.2082  0.1341 -0.0834
 2704TIP3    H1 8118   3.830   4.772   4.736  1.5643  0.1357  0.1306
 2704TIP3    H2 8119   3.807   4.909   4.675 -0.5448 -0.0874  0.3537
 2705TIP3   OH2 8120   3.009   1.725   2.887  0.6180  0.0489 -0.3573
 2705TIP3    H1 8121   2.952   1.663   2.840  0.5887  0.2045 -0.5271
 2705TIP3    H2 8122   3.046   1.673   2.958 -0.0350  0.0448 -0.0151
 2706TIP3   OH2 8123   1.515   2.147   4.882 -0.3957 -0.4826  0.5989
 2706TIP3    H1 8124   1.453   2.133   4.954 -0.3182  0.2348  0.8129
 2706TIP3    H2 8125   1.581   2.078   4.894 -0.9166 -0.9844  0.6203
 2707TIP3   OH2 8126   5.178   4.256   4.177  0.2082  0.2280 -0.6307
 2707TIP3    H1 8127   5.173   4.210   4.094 -1.1182 -2.1469  0.6703
 2707TIP3    H2 8128   5.128   4.202   4.238  0.1919  2.4463  1.4817
 2708TIP3   OH2 8129   0.460   3.206   0.270 -0.1923  0.9101 -0.7662
 2708TIP3    H1 8130   0.469   3.281   0.329  2.4958 -0.5786  0.9682
 2708TIP3    H2 8131   0.523   3.223   0.200  1.4652 -0.2030  0.3555
 2709TIP3   OH2 8132   0.602   1.071   4.525 -0.4235 -0.7717  0.1499
 2709TIP3    H1 8133   0.548   1.099   4.452 -0.6610  0.4819  0.7751
 2709TIP3    H2 8134   0.540   1.055   4.596  0.0005  1.0196  0.9819
 2710TIP3   OH2 8135   2.923   3.511   2.009  0.1340  0.3037 -0.3321
 2710TIP3    H1 8136   2.968   3.573   1.951  0.3533  0.6352  0.1778
 2710TIP3    H2 8137   2.850   3.478   1.958  0.4358  0.4467 -0.8600
 2711TIP3   OH2 8138   4.781   3.517   3.274 -0.0940 -0.0223 -0.3642
 2711TIP3    H1 8139   4.778   3.475   3.188  0.9030 -1.9558  0.4886
 2711TIP3    H2 8140   4.874   3.535   3.288 -0.1737 -0.3272  0.5793
 2712TIP3   OH2 8141   0.914   5.008   3.270  0.0531  0.4531 -0.1390
 2712TIP3    H1 8142   0.922   4.919   3.235  0.4683 -1.0248  3.3450
 2712TIP3    H2 8143   1.005   5.039   3.278 -0.0529  0.9027 -0.6159
 2713TIP3   OH2 8144   1.340   5.534   2.429 -0.6177  0.5466  0.5068
 2713TIP3    H1 8145   1.316   5.489   2.511 -0.8737  0.2273  0.2581
 2713TIP3    H2 8146   1.430   5.505   2.413 -0.4203  0.9345  0.8927
 2714TIP3   OH2 8147   5.471   0.972   3.080 -0.6415 -0.7326  0.6496
 2714TIP3    H1 8148   5.489   1.059   3.045  0.2929 -0.7771  0.9904
 2714TIP3    H2 8149   5.381   0.978   3.113 -1.3340 -0.5222 -1.1645
 2715TIP3   OH2 8150   3.734   4.781   4.926  0.2015 -0.0629  0.1101
 2715TIP3    H1 8151   3.785   4.786   5.007  0.8251  0.3916 -0.3046
 2715TIP3    H2 8152   3.668   4.714   4.943  0.9346 -0.6591  0.6553
 2716TIP3   OH2 8153   1.295   4.377   0.463 -0.3364 -0.2930  0.1568
 2716TIP3    H1 8154   1.210   4.376   0.507 -0.3404  0.0024  0.1550
 2716TIP3    H2 8155   1.331   4.464   0.480 -0.1528 -0.3207 -0.0730
 2717TIP3   OH2 8156   3.572   4.586   4.679  0.4840 -0.0537 -0.0012
 2717TIP3    H1 8157   3.533   4.610   4.763  0.6568  0.8832 -0.1793
 2717TIP3    H2 8158   3.666   4.599   4.691  0.5431 -0.2811 -0.2178
 2718TIP3   OH2 8159   2.794   5.724   5.122  0.1718 -0.5142  0.8852
 2718TIP3    H1 8160   2.743   5.748   5.200  0.7444  0.8347  0.8671
 2718TIP3    H2 8161   2.818   5.632   5.137 -1.6475 -0.9759  1.2117
 2719TIP3   OH2 8162   3.231   1.551   0.134 -0.3826 -0.3822 -0.8620
 2719TIP3    H1 8163   3.153   1.597   0.164  0.5540  0.5940  0.1817
 2719TIP3    H2 8164   3.303   1.593   0.181  0.7541 -1.3954 -1.6369
 2720TIP3   OH2 8165   5.106   0.702   4.064  0.3038  0.4769  0.4279
 2720TIP3    H1 8166   5.048   0.744   4.127 -1.4204  0.3203 -0.9501
 2720TIP3    H2 8167   5.106   0.761   3.988  2.2072  0.6000  0.4760
 2721TIP3   OH2 8168   4.356   1.321   1.471 -0.3140 -0.2484 -0.0478
 2721TIP3    H1 8169   4.404   1.258   1.416 -0.2409 -1.7622  1.6701
 2721TIP3    H2 8170   4.404   1.321   1.554 -1.3381  0.7958  0.5621
 2722TIP3   OH2 8171   4.271   0.951   4.836  0.1945  0.2227 -0.7494
 2722TIP3    H1 8172   4.366   0.945   4.835  0.1678 -0.2428 -0.5669
 2722TIP3    H2 8173   4.242   0.880   4.893 -0.2327  0.7931 -0.2351
 2723TIP3   OH2 8174   0.483   0.071   4.724  0.4119  0.0557 -0.3270
 2723TIP3    H1 8175   0.392   0.053   4.748  0.2429 -0.5748 -1.3386
 2723TIP3    H2 8176   0.488   0.166   4.717 -0.7353  0.0403 -2.2042
 2724TIP3   OH2 8177   3.628   5.384   4.006  0.3889  0.5160 -0.5483
 2724TIP3    H1 8178   3.661   5.444   3.939 -1.3468  1.1314 -0.9070
 2724TIP3    H2 8179   3.696   5.318   4.015  0.6221  0.3238 -3.0535
 2725TIP3   OH2 8180   0.379   4.733   4.778  0.2956 -0.2397 -0.2916
 2725TIP3    H1 8181   0.311   4.670   4.806  0.3454  0.3413  1.2346
 2725TIP3    H2 8182   0.457   4.706   4.825  0.6610  0.1956 -0.6398
 2726TIP3   OH2 8183   4.809   0.962   3.349  0.0895  0.2076 -0.0105
 2726TIP3    H1 8184   4.719   0.993   3.336  0.6499  1.4666 -1.0959
 2726TIP3    H2 8185   4.856   0.994   3.272  1.3888 -0.7818  0.3504
 2727TIP3   OH2 8186   0.166   1.133   2.689 -0.3930 -0.1185 -0.0669
 2727TIP3    H1 8187   0.223   1.063   2.655 -0.3116 -0.2717  0.3836
 2727TIP3    H2 8188   0.126   1.171   2.610 -0.7684 -0.9558 -0.2948
 2728TIP3   OH2 8189   3.522   1.415   5.064 -0.1536 -0.3266 -0.0518
 2728TIP3    H1 8190   3.578   1.383   5.135 -0.0723 -0.4552 -0.1724
 2728TIP3    H2 8191   3.433   1.402   5.095 -0.1329  1.4271  0.8421
 2729TIP3   OH2 8192   0.213   4.438   0.891 -0.1198  0.8431 -0.4182
 2729TIP3    H1 8193   0.252   4.510   0.941  0.4029  1.6162 -1.8490
 2729TIP3    H2 8194   0.162   4.482   0.823 -1.6709 -0.1714  0.0524
 2730TIP3   OH2 8195   2.228   1.816   2.801 -0.2202 -0.4977 -0.1493
 2730TIP3    H1 8196   2.230   1.782   2.712  0.7316 -1.8570  0.3568
 2730TIP3    H2 8197   2.177   1.752   2.851 -0.4524  0.0670  0.3637
 2731TIP3   OH2 8198   5.778   5.966   2.180 -0.7996  0.2835 -0.0913
 2731TIP3    H1 8199   5.855   5.919   2.148 -1.1733  0.9588 -2.1629
 2731TIP3    H2 8200   5.705   5.905   2.166 -1.0312  0.7561 -1.0715
 2732TIP3   OH2 8201   4.070   5.845   0.413 -0.2094 -0.4137 -0.1560
 2732TIP3    H1 8202   4.021   5.787   0.354 -1.1255  0.5388 -0.3687
 2732TIP3    H2 8203   4.002   5.892   0.462  0.3439  2.3851 -1.8130
 2733TIP3   OH2 8204   2.898   0.191   2.993 -0.6170  0.0208 -0.6099
 2733TIP3    H1 8205   2.926   0.100   3.003  1.1096  0.5899  0.0053
 2733TIP3    H2 8206   2.958   0.227   2.928 -1.2563  0.7480 -0.8053
 2734TIP3   OH2 8207   4.041   3.723   1.573 -0.0374 -0.4971 -0.3025
 2734TIP3    H1 8208   4.065   3.796   1.631  0.9840 -2.3333  1.7254
 2734TIP3    H2 8209   3.954   3.697   1.602  0.1426 -0.9100 -0.1246
 2735TIP3   OH2 8210   1.093   3.355   1.415  0.6769 -0.4256  0.0792
 2735TIP3    H1 8211   1.075   3.378   1.506  1.2648  0.9426 -0.1209
 2735TIP3    H2 8212   1.010   3.322   1.381  0.1237  0.2230  0.7749
 2736TIP3   OH2 8213   3.765   3.818   3.985  0.7779 -0.3328  0.4011
 2736TIP3    H1 8214   3.858   3.831   3.966  0.7425  1.4208  1.2521
 2736TIP3    H2 8215   3.723   3.817   3.899  1.3624  0.9354  0.0784
 2737TIP3   OH2 8216   5.392   1.450   4.229  0.3889 -0.2329 -0.4540
 2737TIP3    H1 8217   5.436   1.530   4.201 -0.3951 -0.1221 -1.4092
 2737TIP3    H2 8218   5.375   1.402   4.148  0.6805 -1.2932  0.0883
 2738TIP3   OH2 8219   5.246   3.029   2.848 -0.3407  0.0623  0.1160
 2738TIP3    H1 8220   5.282   2.995   2.766 -1.4590 -1.5248  0.2288
 2738TIP3    H2 8221   5.318   3.022   2.911 -0.8348 -3.6394  0.4998
 2739TIP3   OH2 8222   1.443   3.156   0.923  0.0431  0.1848  0.1760
 2739TIP3    H1 8223   1.539   3.165   0.923 -0.0225  2.2230  2.9340
 2739TIP3    H2 8224   1.412   3.231   0.973 -3.1764  0.4904 -2.0025
 2740TIP3   OH2 8225   1.149   3.723   0.284 -0.4907 -0.6326  0.4441
 2740TIP3    H1 8226   1.190   3.796   0.237 -1.1715 -0.1991  0.5165
 2740TIP3    H2 8227   1.094   3.680   0.219  0.8425 -1.8488  0.0712
 2741TIP3   OH2 8228   0.402   1.658   4.755  0.6727  0.4067 -0.1920
 2741TIP3    H1 8229   0.469   1.655   4.688  1.2944 -2.7843  0.4075
 2741TIP3    H2 8230   0.327   1.613   4.717  0.0706  0.9644  0.3075
 2742TIP3   OH2 8231   1.566   4.425   3.901  0.2244 -0.3755  0.5758
 2742TIP3    H1 8232   1.581   4.518   3.888 -1.0644 -0.0112  1.4792
 2742TIP3    H2 8233   1.594   4.409   3.992  1.6729 -1.1754  0.0331
 2743TIP3   OH2 8234   3.949   0.333   2.994 -0.0680 -0.3032  0.7776
 2743TIP3    H1 8235   4.041   0.315   3.009 -0.3383 -2.2172  0.3931
 2743TIP3    H2 8236   3.940   0.427   3.007  2.5681  0.5524 -2.4016
 2744TIP3   OH2 8237   4.459   4.742   2.438 -0.3918  0.1205 -0.8758
 2744TIP3    H1 8238   4.436   4.767   2.528  1.1922 -0.6201 -0.2278
 2744TIP3    H2 8239   4.539   4.789   2.419 -0.1901 -0.4704 -1.5387
 2745TIP3   OH2 8240   3.552   0.399   4.378  0.6146  0.1231 -0.1413
 2745TIP3    H1 8241   3.483   0.466   4.371  1.3792  0.7398 -3.1786
 2745TIP3    H2 8242   3.631   0.444   4.348  1.8354 -1.2681  0.9180
 2746TIP3   OH2 8243   3.309   5.844   1.916 -0.2235  0.1690 -0.1224
 2746TIP3    H1 8244   3.279   5.836   1.825 -0.6961 -0.0263  0.0494
 2746TIP3    H2 8245   3.381   5.907   1.911 -1.1290  1.2098 -0.4453
 2747TIP3   OH2 8246   1.956   3.306   4.818 -0.1846  0.5300 -0.0072
 2747TIP3    H1 8247   1.937   3.256   4.898 -0.8799 -0.0514 -0.5170
 2747TIP3    H2 8248   2.013   3.248   4.767 -0.1965  0.6678 -0.1774
 2748TIP3   OH2 8249   5.355   0.434   4.484 -0.0194 -0.5596  0.4384
 2748TIP3    H1 8250   5.278   0.386   4.454 -0.2734 -0.0232  0.2255
 2748TIP3    H2 8251   5.413   0.438   4.408 -0.4664  0.4021  0.1361
 2749TIP3   OH2 8252   1.817   5.913   2.139 -0.3532 -0.6277  0.3134
 2749TIP3    H1 8253   1.806   5.818   2.127  0.1708 -0.7341  0.6378
 2749TIP3    H2 8254   1.821   5.924   2.234  0.5103 -0.3903  0.2536
 2750TIP3   OH2 8255   3.553   3.624   0.144  0.2007  0.4748  0.2891
 2750TIP3    H1 8256   3.491   3.557   0.174 -0.4759  1.5751  1.4442
 2750TIP3    H2 8257   3.604   3.645   0.223  1.3377  0.3605 -0.3901
 2751TIP3   OH2 8258   3.134   1.176   3.199 -0.0119  0.5243 -0.3061
 2751TIP3    H1 8259   3.217   1.159   3.244 -0.4775 -1.5502 -0.1150
 2751TIP3    H2 8260   3.119   1.269   3.212  0.2324  0.2261  3.3255
 2752TIP3   OH2 8261   0.109   0.746   1.942  0.1139  0.3326 -0.0309
 2752TIP3    H1 8262   0.123   0.796   1.861 -0.3688  0.5537  0.0210
 2752TIP3    H2 8263   0.158   0.665   1.929  0.2956  0.5041 -0.4190
 2753TIP3   OH2 8264   4.847   0.510   0.349  0.4636  0.5706 -0.0236
 2753TIP3    H1 8265   4.767   0.459   0.359  1.2192 -0.6056  0.1967
 2753TIP3    H2 8266   4.822   0.599   0.374 -0.8623  0.3084 -0.3416
 2754TIP3   OH2 8267   3.859   4.980   2.312 -0.0082  0.3409 -0.1411
 2754TIP3    H1 8268   3.792   5.026   2.261  0.6503  0.0019 -1.3554
 2754TIP3    H2 8269   3.884   4.906   2.257 -0.5522 -1.1018  1.4705
 2755TIP3   OH2 8270   4.668   3.924   4.890 -0.1516  0.0111  0.8512
 2755TIP3    H1 8271   4.761   3.915   4.871  0.1968  1.2616  1.8357
 2755TIP3    H2 8272   4.646   4.014   4.864 -0.9158 -0.0304  1.3101
 2756TIP3   OH2 8273   1.894   1.346   0.675 -0.0810 -0.2127  0.1156
 2756TIP3    H1 8274   1.892   1.434   0.639 -0.3196  0.1769  1.0523
 2756TIP3    H2 8275   1.936   1.293   0.607  2.5679  1.1221  0.6101
 2757TIP3   OH2 8276   0.185   0.868   1.714 -0.5678  0.2691  0.8532
 2757TIP3    H1 8277   0.187   0.808   1.640  0.4253 -2.0024  2.5834
 2757TIP3    H2 8278   0.277   0.889   1.730 -0.8122  1.2044  1.0671
 2758TIP3   OH2 8279   1.846   5.424   1.575 -0.1401 -0.0140 -0.2513
 2758TIP3    H1 8280   1.750   5.418   1.577 -0.1903  0.5369 -0.7824
 2758TIP3    H2 8281   1.870   5.452   1.664 -0.4145 -0.8590  0.0953
 2759TIP3   OH2 8282   5.014   3.801   2.967  0.2142 -0.2568 -0.1318
 2759TIP3    H1 8283   4.987   3.709   2.962 -0.6462  0.0233 -0.8627
 2759TIP3    H2 8284   5.035   3.826   2.878  0.5024  0.2429  0.0698
 2760TIP3   OH2 8285   3.622   2.637   1.501 -0.0040 -0.8917  0.2596
 2760TIP3    H1 8286   3.661   2.695   1.436 -1.5503 -0.3872 -0.2416
 2760TIP3    H2 8287   3.687   2.633   1.571  0.9276 -0.0564 -0.5341
 2761TIP3   OH2 8288   4.946   5.112   2.021  0.8806 -0.1149 -0.2999
 2761TIP3    H1 8289   5.007   5.104   2.095 -0.6608 -1.6521  0.8728
 2761TIP3    H2 8290   4.880   5.174   2.051  0.2049 -0.7992 -0.3457
 2762TIP3   OH2 8291   0.846   5.543   4.386 -0.2554  0.2795  0.3321
 2762TIP3    H1 8292   0.835   5.577   4.475 -0.3646  0.4436  0.2546
 2762TIP3    H2 8293   0.881   5.617   4.336  0.3606  0.0249  0.3702
 2763TIP3   OH2 8294   2.060   0.938   0.708 -0.3251  0.0521 -0.5158
 2763TIP3    H1 8295   2.130   0.913   0.648  1.3075  1.1816  0.8292
 2763TIP3    H2 8296   2.071   1.032   0.720 -3.4182  0.7402 -1.8749
 2764TIP3   OH2 8297   2.403   1.235   3.716  0.1374  0.5307 -0.3086
 2764TIP3    H1 8298   2.366   1.315   3.677 -0.3388  0.0283 -0.9146
 2764TIP3    H2 8299   2.498   1.247   3.711  0.0693  1.0173 -0.4815
 2765TIP3   OH2 8300   2.508   2.796   3.959  0.4349 -0.3506  0.4049
 2765TIP3    H1 8301   2.533   2.888   3.955  0.0426 -0.1015  2.7481
 2765TIP3    H2 8302   2.585   2.751   3.995 -0.0395 -0.6295  1.0972
 2766TIP3   OH2 8303   6.055   4.781   4.955  0.1142 -0.6181 -0.5004
 2766TIP3    H1 8304   6.030   4.694   4.924 -1.0452 -0.5379  0.1315
 2766TIP3    H2 8305   6.029   4.840   4.884 -0.7098 -0.6309 -0.2259
 2767TIP3   OH2 8306   1.037   1.521   4.243  0.3010  0.2018 -0.6787
 2767TIP3    H1 8307   1.115   1.469   4.261 -0.2342 -0.5454 -0.4693
 2767TIP3    H2 8308   1.043   1.595   4.304 -0.0464 -0.8027  0.6157
 2768TIP3   OH2 8309   3.282   3.376   1.869 -0.6009  0.2328 -0.1463
 2768TIP3    H1 8310   3.249   3.434   1.937  0.6519  0.4331  0.3142
 2768TIP3    H2 8311   3.377   3.376   1.881 -0.4739 -0.8821 -0.9680
 2769TIP3   OH2 8312   3.204   0.317   0.761  0.4000  0.4615 -0.1387
 2769TIP3    H1 8313   3.194   0.259   0.686  0.7560  0.7331 -0.3992
 2769TIP3    H2 8314   3.257   0.266   0.823 -0.2908  0.0558  0.1339
 2770TIP3   OH2 8315   3.072   0.596   5.012  0.6977 -0.1916  0.5484
 2770TIP3    H1 8316   3.064   0.640   4.927 -0.0050 -2.1188 -0.4575
 2770TIP3    H2 8317   2.986   0.604   5.052  0.8814  0.2618  0.8678
 2771TIP3   OH2 8318   4.184   0.484   4.448 -0.2144 -0.3710 -0.2651
 2771TIP3    H1 8319   4.100   0.483   4.493 -0.4974 -0.9413 -0.7971
 2771TIP3    H2 8320   4.169   0.436   4.367  1.3244 -3.0239  0.9005
 2772TIP3   OH2 8321   5.608   1.823   2.319  0.5638  0.3175  0.4959
 2772TIP3    H1 8322   5.612   1.803   2.412  0.8290  1.5798  0.7864
 2772TIP3    H2 8323   5.561   1.906   2.314 -2.1831 -1.1839 -0.7765
 2773TIP3   OH2 8324   0.027   0.899   3.354  0.7335  0.7673  0.2232
 2773TIP3    H1 8325   0.027   0.901   3.258  1.4028  1.7580  0.2272
 2773TIP3    H2 8326  -0.015   0.816   3.376  2.8047 -0.7084 -0.9522
 2774TIP3   OH2 8327   6.357   1.349   1.204  0.1341 -0.2483  0.4007
 2774TIP3    H1 8328   6.351   1.433   1.249  0.5267  0.0390 -0.0758
 2774TIP3    H2 8329   6.269   1.313   1.210 -0.8010  1.4200 -1.7221
 2775TIP3   OH2 8330   2.799   1.604   4.856  0.4142 -0.5492  0.2682
 2775TIP3    H1 8331   2.797   1.693   4.891  0.6398 -0.8145  0.9766
 2775TIP3    H2 8332   2.878   1.601   4.802 -0.3737  0.1105 -0.9667
 2776TIP3   OH2 8333   4.348   4.723   3.845  0.2897 -0.3679  0.0958
 2776TIP3    H1 8334   4.297   4.763   3.775 -1.3829 -0.6905  1.0614
 2776TIP3    H2 8335   4.382   4.796   3.896  0.2870 -0.1445 -0.2249
 2777TIP3   OH2 8336   1.713   1.156   1.888 -0.2494  0.0613  0.2529
 2777TIP3    H1 8337   1.644   1.090   1.895 -1.2512  0.8977 -1.1300
 2777TIP3    H2 8338   1.780   1.114   1.833 -0.6793  0.0166 -0.2531
 2778TIP3   OH2 8339   5.796   3.567   3.492  0.0730  0.4304  0.3765
 2778TIP3    H1 8340   5.830   3.510   3.562 -1.7517 -0.0906  0.9047
 2778TIP3    H2 8341   5.845   3.648   3.502  2.3452 -0.8167 -0.0239
 2779TIP3   OH2 8342   5.905   2.816   0.220 -0.4939  0.3082 -0.2710
 2779TIP3    H1 8343   5.977   2.866   0.182 -1.5981  2.5872  0.4115
 2779TIP3    H2 8344   5.829   2.841   0.167 -1.1122 -0.6304  0.1427
 2780TIP3   OH2 8345   1.094   0.621   4.535  0.0553 -0.4583  0.1796
 2780TIP3    H1 8346   1.015   0.602   4.484 -0.4675  0.8916  0.4529
 2780TIP3    H2 8347   1.145   0.680   4.479  0.6975 -1.0052  0.1712
 2781TIP3   OH2 8348   5.050   1.583   4.811  0.1204 -0.4691 -0.3814
 2781TIP3    H1 8349   5.122   1.583   4.749 -0.6892 -0.2508 -1.3542
 2781TIP3    H2 8350   5.052   1.670   4.850  0.9625 -0.7895  0.3025
 2782TIP3   OH2 8351   1.023   4.812   4.691 -0.2708 -0.4034 -0.3113
 2782TIP3    H1 8352   0.993   4.835   4.779 -0.5463  0.1121 -0.5324
 2782TIP3    H2 8353   1.081   4.737   4.704  1.1075  0.7639  0.5094
 2783TIP3   OH2 8354   5.992   3.521   0.216 -0.1840  0.1943  0.0910
 2783TIP3    H1 8355   5.897   3.512   0.226 -0.3034 -1.9306 -2.1214
 2783TIP3    H2 8356   6.028   3.488   0.298 -1.3298  1.2414  1.0489
 2784TIP3   OH2 8357   4.094   5.068   1.570  0.5527  0.6696  0.3595
 2784TIP3    H1 8358   4.126   5.104   1.487  3.0573 -1.1385  0.4204
 2784TIP3    H2 8359   4.155   5.101   1.636  0.3829 -0.3031  1.0238
 2785TIP3   OH2 8360   0.590   5.434   4.308 -0.5728 -0.2081  0.2545
 2785TIP3    H1 8361   0.639   5.501   4.260 -1.4973 -1.3959 -2.5456
 2785TIP3    H2 8362   0.655   5.368   4.331 -0.1297  0.3166  0.5073
 2786TIP3   OH2 8363   1.062   3.865   4.684 -0.8201  0.6559  0.2784
 2786TIP3    H1 8364   1.006   3.868   4.762 -0.6722 -1.3127  0.5004
 2786TIP3    H2 8365   1.150   3.848   4.718 -0.6163  0.5995 -0.2611
 2787TIP3   OH2 8366   3.553   2.358   1.675  0.3274 -0.0511 -0.0899
 2787TIP3    H1 8367   3.468   2.401   1.673  0.4230  0.1196 -1.2185
 2787TIP3    H2 8368   3.609   2.415   1.621  0.8222 -0.8343 -0.4124
 2788TIP3   OH2 8369   4.258   0.986   4.558  0.3139 -0.1430 -0.3524
 2788TIP3    H1 8370   4.245   0.992   4.653 -0.9470  2.6133 -0.6012
 2788TIP3    H2 8371   4.334   1.041   4.541 -0.7415  1.1113 -1.1202
 2789TIP3   OH2 8372   5.706   5.718   3.735 -0.4272  0.0480  0.0754
 2789TIP3    H1 8373   5.613   5.717   3.715 -0.9461  1.7542  2.1244
 2789TIP3    H2 8374   5.716   5.657   3.808  0.0594 -0.0044 -0.0269
 2790TIP3   OH2 8375   3.590   4.863   2.407 -0.1464  0.0981  0.0357
 2790TIP3    H1 8376   3.635   4.783   2.435 -0.6120 -0.0721  0.3193
 2790TIP3    H2 8377   3.647   4.934   2.438 -0.0562 -0.1139  0.3690
 2791TIP3   OH2 8378   4.928   3.548   1.927 -1.0296  0.2662 -1.3026
 2791TIP3    H1 8379   4.961   3.502   2.005 -0.3884 -1.4317 -2.5193
 2791TIP3    H2 8380   5.000   3.606   1.901 -0.2490 -0.9677 -2.0043
 2792TIP3   OH2 8381   3.143   4.044   2.319 -0.4114  0.1629  0.0396
 2792TIP3    H1 8382   3.129   3.957   2.282  0.0897  0.9291 -2.1038
 2792TIP3    H2 8383   3.204   4.087   2.259  0.0206  1.7299  1.4886
 2793TIP3   OH2 8384   0.741   1.912   0.290  0.1322  0.1275 -0.1795
 2793TIP3    H1 8385   0.809   1.939   0.350  1.5235  0.6543 -1.9013
 2793TIP3    H2 8386   0.721   1.822   0.315  2.2286 -0.4158 -0.2630
 2794TIP3   OH2 8387   3.245   4.868   2.856 -0.6030 -0.5076  0.2745
 2794TIP3    H1 8388   3.257   4.957   2.888 -0.1944 -0.7823  0.8861
 2794TIP3    H2 8389   3.328   4.846   2.814  0.0499 -1.3320  1.9209
 2795TIP3   OH2 8390   6.320   0.540   1.759  0.1988 -0.2813  0.6376
 2795TIP3    H1 8391   6.265   0.522   1.683  0.3171  0.9985  0.2372
 2795TIP3    H2 8392   6.333   0.634   1.758  0.4265 -0.2765  2.1015
 2796TIP3   OH2 8393   0.832   0.118   4.844  0.0655 -0.3769 -0.3033
 2796TIP3    H1 8394   0.796   0.034   4.815 -0.8430 -0.8973  2.0813
 2796TIP3    H2 8395   0.881   0.097   4.923  1.0582  1.1500 -0.4729
 2797TIP3   OH2 8396   5.142   4.371   4.538  0.3111  0.0901 -0.6063
 2797TIP3    H1 8397   5.130   4.284   4.499  1.3703 -0.7209  0.7760
 2797TIP3    H2 8398   5.160   4.353   4.631  0.4219  1.7961 -0.2686
 2798TIP3   OH2 8399   3.120   5.151   4.872  0.5217  0.6040  0.0033
 2798TIP3    H1 8400   3.138   5.207   4.796  0.7366 -1.0990 -1.2833
 2798TIP3    H2 8401   3.198   5.095   4.878 -0.3657 -0.6521  0.1863
 2799TIP3   OH2 8402   4.214   2.908   1.605  0.0307  0.3534 -0.1733
 2799TIP3    H1 8403   4.297   2.860   1.594 -0.0950 -0.1191  0.8319
 2799TIP3    H2 8404   4.175   2.908   1.517  1.1470  0.6884 -0.6871
 2800TIP3   OH2 8405   5.091   4.906   5.171  0.4590  0.5425 -0.3445
 2800TIP3    H1 8406   5.105   4.985   5.223  1.8421 -0.2228  0.5080
 2800TIP3    H2 8407   5.173   4.893   5.124  0.0261 -0.0467 -0.9693
 2801TIP3   OH2 8408   1.433   1.009   3.048 -0.8937 -0.3850  0.5273
 2801TIP3    H1 8409   1.483   1.037   3.124  0.0258 -1.4648  0.3585
 2801TIP3    H2 8410   1.456   0.916   3.037 -3.4902 -1.1580  0.8663
 2802TIP3   OH2 8411   1.213   4.056   1.432  0.3610 -0.2485  0.1902
 2802TIP3    H1 8412   1.272   4.126   1.462  0.8218 -0.7084  0.3712
 2802TIP3    H2 8413   1.177   4.019   1.513  2.7729 -2.5172  0.3979
 2803TIP3   OH2 8414   6.117   1.380   4.986 -0.2917 -0.5230 -0.0641
 2803TIP3    H1 8415   6.080   1.294   4.967 -2.5795  0.5288 -0.7876
 2803TIP3    H2 8416   6.134   1.379   5.080  0.4907 -2.0271 -0.2096
 2804TIP3   OH2 8417   3.284   2.162   0.651  0.4277 -0.8311 -0.0460
 2804TIP3    H1 8418   3.244   2.109   0.582  0.3421 -2.6899  1.3729
 2804TIP3    H2 8419   3.270   2.112   0.731  1.1244  0.9503  1.2429
 2805TIP3   OH2 8420   2.109   0.856   2.182  0.0596 -0.3808 -0.1780
 2805TIP3    H1 8421   2.029   0.849   2.234 -0.0537 -0.5065 -0.3707
 2805TIP3    H2 8422   2.158   0.928   2.223 -0.6585  0.4467 -0.7514
 2806TIP3   OH2 8423   6.038   0.571   4.181  0.1666  0.3656  0.0257
 2806TIP3    H1 8424   6.081   0.612   4.256  2.9358 -0.4692 -0.9963
 2806TIP3    H2 8425   6.032   0.478   4.204  0.8487  0.1366 -0.6665
 2807TIP3   OH2 8426   4.909   2.580   1.495  0.1775 -0.1400  0.8193
 2807TIP3    H1 8427   4.951   2.500   1.463  0.7853  0.3919  0.2801
 2807TIP3    H2 8428   4.981   2.640   1.512 -0.3569  0.7905 -0.1346
 2808TIP3   OH2 8429   0.027   0.848   5.038  0.6624  0.3070  0.0650
 2808TIP3    H1 8430   0.102   0.792   5.021  0.0483  0.2076 -2.8439
 2808TIP3    H2 8431  -0.046   0.787   5.053  0.7820  0.3932  1.0593
 2809TIP3   OH2 8432   0.347   1.695   1.741 -0.5686  0.3249  0.2285
 2809TIP3    H1 8433   0.306   1.608   1.740  0.3313 -0.1527 -2.1522
 2809TIP3    H2 8434   0.276   1.755   1.717 -0.8728  0.0595  0.4640
 2810TIP3   OH2 8435   1.912   4.581   4.296 -0.0706 -0.0005 -0.3567
 2810TIP3    H1 8436   1.990   4.526   4.292 -0.0106  0.1245 -1.0652
 2810TIP3    H2 8437   1.845   4.525   4.335  0.2218 -0.2922 -0.2706
 2811TIP3   OH2 8438   0.389   0.106   2.382 -0.0294 -0.0489 -0.0977
 2811TIP3    H1 8439   0.386   0.012   2.364  0.2125  0.1276 -1.1665
 2811TIP3    H2 8440   0.313   0.123   2.437 -0.8938 -0.6440 -1.0699
 2812TIP3   OH2 8441   1.289   3.551   3.215  0.9018  0.1022 -0.0900
 2812TIP3    H1 8442   1.254   3.522   3.131 -0.2567 -0.8679  0.6691
 2812TIP3    H2 8443   1.243   3.633   3.234  0.7493  0.0307 -0.1523
 2813TIP3   OH2 8444   0.186   5.139   1.310 -0.2633  0.0615  0.5081
 2813TIP3    H1 8445   0.275   5.105   1.323 -0.2780  0.3565  1.4143
 2813TIP3    H2 8446   0.185   5.166   1.218  0.3682 -0.5780  0.3024
 2814TIP3   OH2 8447   2.237   2.360   5.045 -0.4797  0.2845 -0.1572
 2814TIP3    H1 8448   2.248   2.327   4.956  0.3288  2.0998 -0.7865
 2814TIP3    H2 8449   2.303   2.314   5.097 -1.0750 -0.9125 -0.4165
 2815TIP3   OH2 8450   4.335   5.101   4.387 -0.6794  0.0779 -0.0247
 2815TIP3    H1 8451   4.424   5.073   4.409 -0.1930  0.2965 -1.5952
 2815TIP3    H2 8452   4.298   5.026   4.340 -0.9482  0.3891 -0.3140
 2816TIP3   OH2 8453   2.416   0.408   3.219 -0.4737  0.1011  0.4100
 2816TIP3    H1 8454   2.330   0.365   3.215  0.3894 -1.6123 -0.6918
 2816TIP3    H2 8455   2.441   0.420   3.128  1.1762 -0.9136  0.6975
 2817TIP3   OH2 8456   3.025   0.425   4.188 -0.8743 -0.1774 -0.0565
 2817TIP3    H1 8457   2.978   0.361   4.136 -1.0457 -1.1197  1.2240
 2817TIP3    H2 8458   2.970   0.439   4.265 -0.9826  1.7408 -0.4345
 2818TIP3   OH2 8459   1.986   4.266   0.889 -0.0482 -0.4406 -0.4852
 2818TIP3    H1 8460   1.920   4.197   0.901 -1.4167  0.8725 -0.1473
 2818TIP3    H2 8461   1.996   4.305   0.975  0.3289  0.1346 -0.7844
 2819TIP3   OH2 8462   3.583   3.872   4.195  0.2228 -0.1608 -0.6861
 2819TIP3    H1 8463   3.487   3.872   4.198  0.1827 -2.2629 -0.5649
 2819TIP3    H2 8464   3.604   3.855   4.103  0.4938  0.5144 -0.7532
 2820TIP3   OH2 8465   4.158   0.327   4.233  0.2188 -0.3997  0.1269
 2820TIP3    H1 8466   4.079   0.275   4.220  0.2833 -1.2336  2.5301
 2820TIP3    H2 8467   4.215   0.272   4.286  0.8176  1.5714  1.6880
 2821TIP3   OH2 8468   5.499   1.595   0.310 -0.3882  0.4829  0.0359
 2821TIP3    H1 8469   5.593   1.610   0.320 -0.3213 -0.0598  0.2211
 2821TIP3    H2 8470   5.462   1.683   0.300  0.0918  0.7281  0.3905
 2822TIP3   OH2 8471   1.982   0.295   1.838  0.1606  0.3735 -0.5187
 2822TIP3    H1 8472   1.987   0.378   1.791  1.2926  0.5767 -0.0674
 2822TIP3    H2 8473   1.919   0.312   1.909  1.4495  1.3177  0.4428
 2823TIP3   OH2 8474   4.084   3.916   3.718  0.0079 -0.1634  0.2128
 2823TIP3    H1 8475   3.995   3.902   3.688 -0.1636  0.9525  0.1523
 2823TIP3    H2 8476   4.104   3.840   3.772 -1.3779  0.0818  1.1203
 2824TIP3   OH2 8477   6.032   5.282   4.869 -0.3321  0.0560  0.3103
 2824TIP3    H1 8478   6.051   5.216   4.936 -1.0128 -0.7594 -0.2815
 2824TIP3    H2 8479   5.953   5.327   4.900 -2.0291 -1.8502 -0.9711
 2825TIP3   OH2 8480   6.132   1.341   2.290 -0.5664 -0.2611  0.5646
 2825TIP3    H1 8481   6.050   1.303   2.259 -0.3920  1.0376 -1.7136
 2825TIP3    H2 8482   6.191   1.267   2.299 -1.6546 -1.0798  1.1193
 2826TIP3   OH2 8483   3.341   3.074   1.128 -0.2605 -0.0085 -0.3657
 2826TIP3    H1 8484   3.390   3.076   1.045  0.0491  1.8176 -0.1743
 2826TIP3    H2 8485   3.408   3.056   1.194 -0.1524  0.5389 -0.3171
 2827TIP3   OH2 8486   2.271   1.617   4.867 -0.1625  0.0530  0.0508
 2827TIP3    H1 8487   2.254   1.617   4.772  1.2108  3.9281 -0.3963
 2827TIP3    H2 8488   2.186   1.631   4.907 -0.4531  0.9035 -0.8236
 2828TIP3   OH2 8489   0.454   0.501   4.979  0.0214  0.4421  0.2140
 2828TIP3    H1 8490   0.378   0.500   5.037  0.2510 -1.7264  0.5631
 2828TIP3    H2 8491   0.523   0.543   5.030 -0.3707  0.5370  0.6758
 2829TIP3   OH2 8492   2.937   4.372   0.687 -0.6843  0.4994  0.4812
 2829TIP3    H1 8493   2.973   4.400   0.771 -0.2082 -1.1478  0.8456
 2829TIP3    H2 8494   2.973   4.434   0.624  0.9246  0.2960  1.1648
 2830TIP3   OH2 8495   1.846   3.508   0.851  0.3476 -0.1949  0.1202
 2830TIP3    H1 8496   1.827   3.601   0.840 -0.3533 -0.5084 -1.5069
 2830TIP3    H2 8497   1.781   3.463   0.798  2.4856 -1.5038 -1.5905
 2831TIP3   OH2 8498   6.307   4.520   0.170  0.1762 -0.0774  1.1004
 2831TIP3    H1 8499   6.302   4.434   0.127  0.2196  0.9344 -1.0882
 2831TIP3    H2 8500   6.216   4.550   0.175  0.2468  0.1816  0.8749
 2832TIP3   OH2 8501   2.788   0.610   3.424 -0.2719 -0.3198 -0.0838
 2832TIP3    H1 8502   2.882   0.594   3.412 -0.3949 -1.8858  0.8320
 2832TIP3    H2 8503   2.747   0.525   3.408 -1.2244 -0.4493  2.5591
 2833TIP3   OH2 8504   4.633   0.314   3.482 -0.2831  0.2173  0.6228
 2833TIP3    H1 8505   4.614   0.315   3.388 -1.5772  0.3325  0.8750
 2833TIP3    H2 8506   4.692   0.239   3.494 -0.0484  0.2438 -0.2784
 2834TIP3   OH2 8507   3.063   2.045   3.808  0.0724  0.1666 -0.1029
 2834TIP3    H1 8508   3.054   1.950   3.794 -0.0524  0.5438 -3.2120
 2834TIP3    H2 8509   3.149   2.054   3.850  1.2009 -1.2536 -1.8806
 2835TIP3   OH2 8510   0.440   0.833   0.033 -0.0441  0.1478  0.3851
 2835TIP3    H1 8511   0.351   0.836  -0.001  0.4240 -0.8600 -1.0573
 2835TIP3    H2 8512   0.492   0.884  -0.029  0.4842  0.1856  0.8468
 2836TIP3   OH2 8513   5.233   4.971   1.188 -0.5030 -0.0835 -0.0947
 2836TIP3    H1 8514   5.150   4.987   1.232  0.0453 -0.1764  1.0101
 2836TIP3    H2 8515   5.220   4.889   1.141 -1.1772  0.1359 -0.2994
 2837TIP3   OH2 8516   4.039   0.446   3.931  0.8899 -1.2198 -0.0234
 2837TIP3    H1 8517   4.089   0.364   3.927 -0.7016 -2.2773  0.4408
 2837TIP3    H2 8518   3.954   0.420   3.967  0.2587  0.6203 -0.0670
 2838TIP3   OH2 8519   0.524   5.817   2.571  0.3708 -0.0942 -0.4608
 2838TIP3    H1 8520   0.616   5.797   2.557  1.4826  3.4575  0.5172
 2838TIP3    H2 8521   0.521   5.855   2.659 -1.8580  0.5923 -0.7680
 2839TIP3   OH2 8522   5.943   0.474   0.586 -0.4025 -0.4231 -0.1441
 2839TIP3    H1 8523   5.858   0.432   0.568 -1.5207  0.6687  2.1508
 2839TIP3    H2 8524   5.923   0.541   0.651  2.0156  0.9215 -0.6723
 2840TIP3   OH2 8525   4.525   4.182   0.211  0.2069  0.1912  0.1206
 2840TIP3    H1 8526   4.606   4.132   0.226  0.3359  0.6985  1.1897
 2840TIP3    H2 8527   4.555   4.272   0.199 -0.1645  0.3053  0.0607
 2841TIP3   OH2 8528   5.934   3.109   2.975 -0.1766 -0.3573 -0.1258
 2841TIP3    H1 8529   5.965   3.042   3.036  1.7029  0.3696 -0.2064
 2841TIP3    H2 8530   5.988   3.097   2.897 -1.0101  0.1524 -0.7940
 2842TIP3   OH2 8531   3.018   5.256   2.761 -0.0359  0.0964 -0.7229
 2842TIP3    H1 8532   3.084   5.205   2.810 -0.4628  0.2517  0.0331
 2842TIP3    H2 8533   3.025   5.225   2.671 -0.7643 -1.8138 -0.1574
 2843TIP3   OH2 8534   5.894   4.232   2.512  0.1910 -0.1325 -0.4025
 2843TIP3    H1 8535   5.939   4.257   2.432 -0.2142  0.5574 -0.4204
 2843TIP3    H2 8536   5.845   4.310   2.537  0.7107 -0.1786  0.7987
 2844TIP3   OH2 8537   5.432   4.307   4.625  0.0344 -0.1056  0.5147
 2844TIP3    H1 8538   5.364   4.253   4.664 -0.1977  1.4521  2.3818
 2844TIP3    H2 8539   5.514   4.262   4.648 -0.1057  0.6454  2.7341
 2845TIP3   OH2 8540   1.644   0.971   0.344  0.2694  0.0965 -0.1559
 2845TIP3    H1 8541   1.621   0.917   0.269  0.4537  1.8534 -1.5262
 2845TIP3    H2 8542   1.650   0.909   0.417 -1.0820 -1.4930 -1.3188
 2846TIP3   OH2 8543   2.102   2.408   0.678 -0.7930 -0.2361 -0.2939
 2846TIP3    H1 8544   2.120   2.346   0.607  1.6144  0.9446 -0.8075
 2846TIP3    H2 8545   2.169   2.391   0.744 -0.6482  1.1710 -0.0318
 2847TIP3   OH2 8546   3.537   3.659   2.147  0.7901 -0.1164  0.2025
 2847TIP3    H1 8547   3.632   3.675   2.147  0.9432 -0.8046 -1.4125
 2847TIP3    H2 8548   3.500   3.734   2.191  2.0770  0.2850  0.6608
 2848TIP3   OH2 8549   3.816   5.431   4.273  0.4866  0.2089  0.0705
 2848TIP3    H1 8550   3.728   5.467   4.275  1.1764  1.9753  2.0774
 2848TIP3    H2 8551   3.822   5.377   4.352  1.4692  0.8258  0.4275
 2849TIP3   OH2 8552   5.584   4.668   1.060 -0.4555 -0.0695  0.2219
 2849TIP3    H1 8553   5.553   4.758   1.050 -0.5673 -0.1610 -0.2704
 2849TIP3    H2 8554   5.678   4.677   1.076 -0.6160  0.1756  1.0832
 2850TIP3   OH2 8555   5.312   5.730   1.532  0.4239 -0.1087 -0.4556
 2850TIP3    H1 8556   5.273   5.644   1.516 -1.0670  0.3812  0.3314
 2850TIP3    H2 8557   5.315   5.772   1.446 -0.9902 -0.1021 -0.5237
 2851TIP3   OH2 8558   6.163   5.400   3.296 -1.0516 -0.0854  0.1499
 2851TIP3    H1 8559   6.105   5.367   3.227  0.0096 -0.8096 -0.4194
 2851TIP3    H2 8560   6.211   5.323   3.326 -0.1752  0.5505  0.4024
 2852TIP3   OH2 8561   3.853   1.289   2.940 -0.2537 -0.3029  0.0479
 2852TIP3    H1 8562   3.948   1.288   2.929 -0.1478 -2.8108  0.7604
 2852TIP3    H2 8563   3.820   1.338   2.864  1.5411 -0.1699 -0.6759
 2853TIP3   OH2 8564   5.171   1.864   1.790 -0.3747  0.4297  0.0283
 2853TIP3    H1 8565   5.207   1.912   1.716 -0.4937 -0.3129 -0.5161
 2853TIP3    H2 8566   5.191   1.772   1.772 -0.4602  0.2297  0.8837
 2854TIP3   OH2 8567   1.891   2.651   3.099 -0.0272 -0.3103 -0.0098
 2854TIP3    H1 8568   1.910   2.593   3.026  0.5588 -0.7771  0.5017
 2854TIP3    H2 8569   1.810   2.617   3.137  0.1606 -0.6148  0.1137
 2855TIP3   OH2 8570   4.678   5.195   1.760 -0.2012  0.0979 -0.5288
 2855TIP3    H1 8571   4.653   5.120   1.814 -1.8079  0.5790 -0.5592
 2855TIP3    H2 8572   4.609   5.259   1.775  0.4055  1.0268 -1.5942
 2856TIP3   OH2 8573   6.285   0.449   5.011  0.3082  0.8932  0.2808
 2856TIP3    H1 8574   6.241   0.471   5.093  0.4138  0.7852  0.3664
 2856TIP3    H2 8575   6.378   0.451   5.032  0.2946 -0.5386  0.5223
 2857TIP3   OH2 8576   1.109   0.031   4.709  0.0729  0.1995 -0.3122
 2857TIP3    H1 8577   1.197   0.031   4.671  0.2350  1.6387  0.0333
 2857TIP3    H2 8578   1.111  -0.042   4.771  0.9084 -0.0094 -0.5650
 2858TIP3   OH2 8579   1.187   0.925   3.709  0.5505  0.2024 -0.4007
 2858TIP3    H1 8580   1.102   0.889   3.733  0.0139  0.3573 -1.9500
 2858TIP3    H2 8581   1.187   1.013   3.746  0.5280 -0.1986  0.5945
 2859TIP3   OH2 8582   2.435   5.382   3.360 -0.2086  0.1354 -0.4404
 2859TIP3    H1 8583   2.380   5.408   3.433 -1.4080 -0.5948 -1.0653
 2859TIP3    H2 8584   2.437   5.286   3.363 -1.5188 -0.0134 -2.2004
 2860TIP3   OH2 8585   1.340   0.939   1.557 -0.8890 -0.1650  0.4266
 2860TIP3    H1 8586   1.244   0.947   1.553 -0.8318  0.4839  0.2916
 2860TIP3    H2 8587   1.372   1.006   1.498 -0.3360  0.0696  0.9827
 2861TIP3   OH2 8588   3.457   1.241   0.870  0.1255  0.0886 -0.1161
 2861TIP3    H1 8589   3.451   1.147   0.851 -0.3782  0.0248  0.3062
 2861TIP3    H2 8590   3.490   1.280   0.790  1.4300 -0.5852  0.0738
 2862TIP3   OH2 8591   2.101   1.216   2.826  0.5100  0.2199 -0.7592
 2862TIP3    H1 8592   2.041   1.288   2.845 -0.0407 -0.4323  0.0693
 2862TIP3    H2 8593   2.188   1.255   2.834  0.2712  0.3744  1.6091
 2863TIP3   OH2 8594   3.867   3.403  -0.025  0.2107 -0.4355  0.2311
 2863TIP3    H1 8595   3.902   3.491  -0.014 -3.0565  0.9767  0.3890
 2863TIP3    H2 8596   3.878   3.361   0.060  1.7766 -0.2326  0.1548
 2864TIP3   OH2 8597   4.265   0.435   3.301  0.1336  0.3384  0.5321
 2864TIP3    H1 8598   4.308   0.355   3.331  0.1512 -0.1846 -0.8209
 2864TIP3    H2 8599   4.172   0.414   3.299 -0.0549  0.9400  1.8638
 2865TIP3   OH2 8600   2.985   5.774   2.122 -0.1699 -0.3647 -0.3809
 2865TIP3    H1 8601   2.908   5.749   2.072 -0.6497  1.0631 -0.3996
 2865TIP3    H2 8602   2.971   5.866   2.143  0.5526 -0.6211  1.4125
 2866TIP3   OH2 8603   1.612   1.951   0.241 -0.9284 -0.0363  0.2569
 2866TIP3    H1 8604   1.668   1.983   0.312 -2.3219  0.0773  1.3409
 2866TIP3    H2 8605   1.549   1.894   0.283 -2.9385  1.4318 -0.5598
 2867TIP3   OH2 8606   1.487   3.923   2.614 -0.1376  0.4062 -0.3800
 2867TIP3    H1 8607   1.484   3.879   2.699  1.4585  0.0440 -0.4835
 2867TIP3    H2 8608   1.398   3.913   2.580 -0.6849  0.1621  1.0408
 2868TIP3   OH2 8609   2.140   2.018   1.177 -0.2911  0.3694 -0.2354
 2868TIP3    H1 8610   2.162   2.109   1.196 -1.0351  0.9827 -2.0577
 2868TIP3    H2 8611   2.072   2.024   1.110  1.1021 -1.5396 -1.9228
 2869TIP3   OH2 8612   5.271   5.757   3.469  0.0717  0.1793 -0.4372
 2869TIP3    H1 8613   5.263   5.668   3.435 -0.1838  0.4557 -1.1250
 2869TIP3    H2 8614   5.358   5.759   3.510 -0.6473 -0.9123  1.2456
 2870TIP3   OH2 8615   1.295   3.479   1.271  0.6983  0.0510  0.4613
 2870TIP3    H1 8616   1.224   3.439   1.322  0.1909  0.0382 -0.2505
 2870TIP3    H2 8617   1.260   3.564   1.244  0.0870 -0.8545 -1.7704
 2871TIP3   OH2 8618   2.289   1.556   4.011  0.2435 -0.0401  0.4533
 2871TIP3    H1 8619   2.226   1.612   3.966  1.5556  0.7640 -0.4688
 2871TIP3    H2 8620   2.252   1.468   4.004  0.2761  0.0764 -2.0776
 2872TIP3   OH2 8621   1.586   2.668   0.717  0.0877  0.7067  0.0005
 2872TIP3    H1 8622   1.518   2.619   0.672  0.6702  0.8754 -1.0989
 2872TIP3    H2 8623   1.542   2.703   0.795 -0.6457 -0.5181  0.1660
 2873TIP3   OH2 8624   0.410   2.523   4.779  0.1383  0.2748  0.1952
 2873TIP3    H1 8625   0.353   2.517   4.855  0.6219 -0.4715  0.4984
 2873TIP3    H2 8626   0.371   2.463   4.715 -2.2198  3.2659 -1.4725
 2874TIP3   OH2 8627   1.468   3.472   1.487 -0.1608 -0.4264 -0.3161
 2874TIP3    H1 8628   1.476   3.379   1.506  0.9632 -0.4341 -0.7836
 2874TIP3    H2 8629   1.407   3.475   1.413 -0.9587 -0.7057  0.3104
 2875TIP3   OH2 8630   0.568   5.555   0.258 -0.0324 -0.3037 -0.6146
 2875TIP3    H1 8631   0.601   5.569   0.347  0.2897  1.1571 -0.9380
 2875TIP3    H2 8632   0.637   5.590   0.201 -1.2460  0.9736 -1.3617
 2876TIP3   OH2 8633   3.766   4.659   2.995 -0.2923  0.8556  0.5572
 2876TIP3    H1 8634   3.837   4.701   2.947 -0.0688 -0.6074 -0.4463
 2876TIP3    H2 8635   3.810   4.619   3.071 -0.2761  1.1712  0.7158
 2877TIP3   OH2 8636   3.084   3.942   3.977  0.5078  0.4443  0.6641
 2877TIP3    H1 8637   3.111   4.032   3.997  3.1395 -0.4604  1.6924
 2877TIP3    H2 8638   3.022   3.920   4.046 -1.3981  1.9099 -0.4879
 2878TIP3   OH2 8639   1.671   3.487   5.098  0.1078 -0.2943  0.5012
 2878TIP3    H1 8640   1.749   3.526   5.058 -1.0744 -0.3534 -2.1272
 2878TIP3    H2 8641   1.599   3.544   5.070 -1.0931 -1.7149  0.5875
 2879TIP3   OH2 8642   1.204   4.327   4.643  0.4979 -0.6095  0.2212
 2879TIP3    H1 8643   1.169   4.327   4.554  0.8581 -1.0992  0.0776
 2879TIP3    H2 8644   1.297   4.307   4.633  0.1143 -3.0204  0.8541
 2880TIP3   OH2 8645   4.595   3.496   2.524  0.2802  0.5369 -0.0936
 2880TIP3    H1 8646   4.573   3.444   2.602 -0.1528 -0.3415 -0.7864
 2880TIP3    H2 8647   4.690   3.500   2.524  0.2832  0.5397  0.4761
 2881TIP3   OH2 8648   4.580   3.377   3.943  0.2979 -0.3357 -0.1513
 2881TIP3    H1 8649   4.642   3.355   4.012 -0.9461  0.7461  1.3763
 2881TIP3    H2 8650   4.507   3.317   3.957 -0.4290  0.6043  0.1775
 2882TIP3   OH2 8651   1.730   2.737   3.351  0.0311  0.0436  0.3761
 2882TIP3    H1 8652   1.814   2.693   3.338  1.0546  2.3110 -1.5648
 2882TIP3    H2 8653   1.736   2.775   3.439  0.7027 -0.4865  0.5709
 2883TIP3   OH2 8654   3.127   2.289   4.805  0.6181  0.2592 -0.4859
 2883TIP3    H1 8655   3.079   2.352   4.751  0.6546  0.7022 -0.0031
 2883TIP3    H2 8656   3.162   2.341   4.877 -1.0817 -0.6602  1.0770
 2884TIP3   OH2 8657   2.687   0.759   3.628  0.1066 -0.2927 -0.0895
 2884TIP3    H1 8658   2.704   0.681   3.575 -0.8169  0.5338 -1.6695
 2884TIP3    H2 8659   2.737   0.829   3.586 -0.9559  0.4664 -0.1295
 2885TIP3   OH2 8660   4.708   2.706   0.496  0.4219 -0.5034 -0.1876
 2885TIP3    H1 8661   4.705   2.642   0.426 -0.8638 -0.1499 -0.4799
 2885TIP3    H2 8662   4.732   2.656   0.574 -3.2973 -2.0065  0.2192
 2886TIP3   OH2 8663   4.826   3.135   1.486  0.2705  0.1569 -0.0421
 2886TIP3    H1 8664   4.734   3.160   1.479 -0.4736 -2.0568  0.9461
 2886TIP3    H2 8665   4.849   3.150   1.578  0.0005 -1.9575  0.4124
 2887TIP3   OH2 8666   2.190   4.967   2.138  0.0350  0.9087  0.2940
 2887TIP3    H1 8667   2.249   4.976   2.064 -0.8579 -1.4814 -0.8394
 2887TIP3    H2 8668   2.227   5.023   2.207  2.8744  0.4643 -0.7563
 2888TIP3   OH2 8669   5.125   0.148   2.591 -0.3380 -0.4097  0.3756
 2888TIP3    H1 8670   5.080   0.138   2.675  1.8160  0.5586  1.7144
 2888TIP3    H2 8671   5.217   0.158   2.614  0.3496 -0.3890 -2.1426
 2889TIP3   OH2 8672   4.086   1.348   1.436  0.2037  0.2263  0.1904
 2889TIP3    H1 8673   4.076   1.256   1.460  0.7694  0.1435  0.1281
 2889TIP3    H2 8674   4.181   1.362   1.435  0.1011  1.1199  1.3288
 2890TIP3   OH2 8675   1.764   0.218   0.477 -0.2771  0.7040  0.0297
 2890TIP3    H1 8676   1.804   0.229   0.390  1.7630  1.1580  0.9585
 2890TIP3    H2 8677   1.719   0.300   0.493 -1.9568  0.0807 -1.1578
 2891TIP3   OH2 8678   1.903   0.684   0.332 -0.5798 -0.0714  0.0164
 2891TIP3    H1 8679   1.975   0.746   0.321 -1.8401  1.5870  0.6815
 2891TIP3    H2 8680   1.850   0.694   0.253  0.3769 -2.0339 -0.9571
 2892TIP3   OH2 8681   2.078   0.510   1.699  0.2824 -0.1757  0.2039
 2892TIP3    H1 8682   2.038   0.552   1.775  0.2827 -0.7228  0.5129
 2892TIP3    H2 8683   2.011   0.515   1.631  0.0055 -0.3228  0.4613
 2893TIP3   OH2 8684   4.780   2.992   4.969 -0.6257  0.8900  0.1799
 2893TIP3    H1 8685   4.866   3.035   4.972 -1.1321  1.8854  1.8364
 2893TIP3    H2 8686   4.745   3.015   4.883  1.0917 -0.2862 -0.9073
 2894TIP3   OH2 8687   4.298   2.897   3.894 -0.2859  0.5453 -0.1755
 2894TIP3    H1 8688   4.225   2.885   3.954  0.6676  2.9160  1.5892
 2894TIP3    H2 8689   4.361   2.830   3.919 -0.2338  1.0073  0.9975
 2895TIP3   OH2 8690   1.701   5.026   4.983 -0.1506 -0.2940  0.7215
 2895TIP3    H1 8691   1.795   5.013   4.990  0.0471  1.0105  0.6908
 2895TIP3    H2 8692   1.689   5.121   4.986 -1.3600 -0.3735 -0.4498
 2896TIP3   OH2 8693   3.951   5.347   2.441 -0.8911  0.5041 -0.2679
 2896TIP3    H1 8694   3.974   5.391   2.522  0.8767 -0.8681  0.0465
 2896TIP3    H2 8695   3.971   5.410   2.372 -0.9539  1.1342  0.2922
 2897TIP3   OH2 8696   4.606   5.174   3.794  0.4890  0.0101 -0.1326
 2897TIP3    H1 8697   4.694   5.207   3.778  0.9336 -2.2162 -3.1297
 2897TIP3    H2 8698   4.548   5.248   3.776  1.6025  0.3470 -2.7644
 2898TIP3   OH2 8699   1.725   3.452   0.556 -0.0321  0.6652 -0.2236
 2898TIP3    H1 8700   1.748   3.381   0.496  0.8160 -0.4614  1.3305
 2898TIP3    H2 8701   1.670   3.511   0.505  2.9543  1.3333 -2.9709
 2899TIP3   OH2 8702   3.139   3.777   2.226  0.2583 -0.5256 -0.3301
 2899TIP3    H1 8703   3.046   3.793   2.241  0.3042  0.4892 -1.0087
 2899TIP3    H2 8704   3.167   3.724   2.300 -0.5367  0.4113  0.6728
 2900TIP3   OH2 8705   0.602   4.474   1.607 -0.1870 -0.0402  0.5346
 2900TIP3    H1 8706   0.535   4.458   1.673  1.7723 -1.0010  2.4294
 2900TIP3    H2 8707   0.643   4.556   1.633  1.0937 -0.8031  0.9929
 2901TIP3   OH2 8708   5.775   3.540   4.882  0.4597  0.1377  0.5301
 2901TIP3    H1 8709   5.825   3.468   4.922  0.2333 -0.2018  0.2101
 2901TIP3    H2 8710   5.812   3.619   4.921  0.6305 -0.1578  0.9794
 2902TIP3   OH2 8711   3.247   2.768   0.584  0.8158  0.5350 -0.0052
 2902TIP3    H1 8712   3.274   2.857   0.560  0.4934  0.3126 -1.2755
 2902TIP3    H2 8713   3.240   2.770   0.680 -0.2894  2.1879 -0.0902
 2903TIP3   OH2 8714   3.995   2.937   0.476 -0.0956 -0.1930 -0.5240
 2903TIP3    H1 8715   4.072   2.892   0.511 -0.1972 -0.0398 -0.0950
 2903TIP3    H2 8716   3.934   2.867   0.456 -0.5386 -0.2183  0.8346
 2904TIP3   OH2 8717   4.919   4.596   3.743 -0.5703 -0.2235 -0.1141
 2904TIP3    H1 8718   4.917   4.503   3.768  1.3724 -0.2321  0.1230
 2904TIP3    H2 8719   4.958   4.640   3.819 -2.0612  0.9235  0.0472
 2905TIP3   OH2 8720   3.016   3.876   4.827 -0.7356  0.0985 -0.1265
 2905TIP3    H1 8721   2.955   3.937   4.785  0.5465  1.0145 -0.7168
 2905TIP3    H2 8722   3.027   3.909   4.916  1.5752  2.0761 -1.0381
 2906TIP3   OH2 8723   3.300   4.443   0.833  0.4848 -0.4773 -0.2172
 2906TIP3    H1 8724   3.298   4.367   0.891 -1.0225  1.3372  2.3580
 2906TIP3    H2 8725   3.357   4.505   0.878 -0.8883  1.0845 -0.5151
 2907TIP3   OH2 8726   1.260   5.524   2.734 -0.2997 -0.1856  0.1220
 2907TIP3    H1 8727   1.175   5.551   2.769 -0.5571  1.0076 -1.3305
 2907TIP3    H2 8728   1.245   5.437   2.698 -0.9272  0.0335 -0.1517
 2908TIP3   OH2 8729   1.963   2.109   1.007  0.4608  0.1953  0.2935
 2908TIP3    H1 8730   2.025   2.158   0.953  0.6500  0.0901  0.4155
 2908TIP3    H2 8731   1.890   2.171   1.021 -0.4724 -0.3866 -1.6196
 2909TIP3   OH2 8732   4.378   0.484   3.054 -0.3563  0.1093 -0.9296
 2909TIP3    H1 8733   4.405   0.569   3.090 -0.4628  1.0504 -2.9644
 2909TIP3    H2 8734   4.330   0.442   3.126  0.2861  1.4639  0.3442
 2910TIP3   OH2 8735   1.299   4.847   0.771  0.2900  0.0945 -0.1415
 2910TIP3    H1 8736   1.333   4.768   0.814  0.3981  0.5641  0.6577
 2910TIP3    H2 8737   1.353   4.918   0.806 -0.3587  0.6303 -0.2114
 2911TIP3   OH2 8738   0.367   1.079   4.040  0.0457  0.0070  0.4481
 2911TIP3    H1 8739   0.291   1.129   4.011 -0.7024 -0.4201  1.5965
 2911TIP3    H2 8740   0.433   1.095   3.973 -0.6022  1.4656  0.1264
 2912TIP3   OH2 8741   1.659   1.565   4.116 -0.0762  0.0910  0.2747
 2912TIP3    H1 8742   1.670   1.531   4.027  0.9303 -0.5103  0.6162
 2912TIP3    H2 8743   1.614   1.649   4.104 -1.0181 -0.5200 -0.7074
 2913TIP3   OH2 8744   1.750   4.036   3.098  0.4911  0.1934 -0.2500
 2913TIP3    H1 8745   1.819   4.025   3.163 -1.2959 -0.1206  1.6948
 2913TIP3    H2 8746   1.735   3.949   3.062  1.0889  0.2635 -0.6747
 2914TIP3   OH2 8747   0.245   4.563   3.153  0.3556 -0.1570 -0.2132
 2914TIP3    H1 8748   0.155   4.586   3.130  0.2619 -0.5778 -0.2661
 2914TIP3    H2 8749   0.260   4.608   3.237  0.2714  0.3250 -0.4489
 2915TIP3   OH2 8750   5.362   4.788   0.867  0.9708 -0.3966  0.3196
 2915TIP3    H1 8751   5.428   4.744   0.814 -0.2967 -2.2446  0.1715
 2915TIP3    H2 8752   5.285   4.792   0.810  1.0339  2.1742  0.3019
 2916TIP3   OH2 8753   4.024   3.397   1.225  0.3198 -0.1379  0.2659
 2916TIP3    H1 8754   4.045   3.361   1.311 -0.0807 -1.9016 -0.3385
 2916TIP3    H2 8755   4.098   3.372   1.170  0.2113  0.3077 -0.0889
 2917TIP3   OH2 8756   0.798   2.568   3.356 -0.4299 -0.4432  0.2408
 2917TIP3    H1 8757   0.784   2.653   3.396 -0.4808 -0.2511 -0.1805
 2917TIP3    H2 8758   0.876   2.533   3.400  0.8051  0.6741 -0.9525
 2918TIP3   OH2 8759   2.975   3.479   2.655  0.3894  0.1205 -0.2550
 2918TIP3    H1 8760   3.006   3.547   2.715  1.2510 -1.3224  1.0122
 2918TIP3    H2 8761   3.037   3.481   2.582  1.2101 -0.1826  0.4230
 2919TIP3   OH2 8762   5.541   3.912   3.370  0.5630 -0.5779  0.2754
 2919TIP3    H1 8763   5.570   3.988   3.320 -0.4994  0.4756  1.2196
 2919TIP3    H2 8764   5.536   3.943   3.460 -2.4595 -0.9480  0.3315
 2920TIP3   OH2 8765   2.840   0.617   5.120  0.1143 -0.1934 -0.4559
 2920TIP3    H1 8766   2.789   0.633   5.199 -0.1974  2.4586 -1.1164
 2920TIP3    H2 8767   2.776   0.588   5.055 -0.0355  0.1195 -0.4453
 2921TIP3   OH2 8768   5.594   2.456   3.847  0.3590  0.9740  0.5974
 2921TIP3    H1 8769   5.545   2.455   3.929  0.9039  0.1648  0.9250
 2921TIP3    H2 8770   5.685   2.442   3.873  0.9096  3.1784  0.0684
 2922TIP3   OH2 8771   5.562   4.456   0.393 -0.2222  0.1486 -0.0467
 2922TIP3    H1 8772   5.581   4.402   0.317  1.2685 -1.1994  1.2200
 2922TIP3    H2 8773   5.499   4.405   0.445  0.9367 -0.2799  0.9905
 2923TIP3   OH2 8774   4.711   0.545   1.953 -0.3619 -0.1065  0.2180
 2923TIP3    H1 8775   4.730   0.604   1.880 -1.4919 -1.1892 -1.0253
 2923TIP3    H2 8776   4.616   0.552   1.965 -0.4507 -1.2955  0.3523
 2924TIP3   OH2 8777   2.363   0.863   2.383 -0.5225  0.8920  0.5045
 2924TIP3    H1 8778   2.375   0.794   2.318  0.0172  1.8110 -0.4123
 2924TIP3    H2 8779   2.349   0.942   2.331  0.2893  1.7190  1.5031
 2925TIP3   OH2 8780   2.013   5.246   0.679  0.3460 -0.4416 -0.1412
 2925TIP3    H1 8781   1.993   5.277   0.767 -1.2581 -0.5441 -0.4272
 2925TIP3    H2 8782   2.074   5.174   0.692 -0.2110 -0.7405  0.9387
 2926TIP3   OH2 8783   4.749   1.047   4.392  0.0074 -0.1582  0.1328
 2926TIP3    H1 8784   4.754   1.052   4.296  0.4501  0.1198  0.1686
 2926TIP3    H2 8785   4.780   0.959   4.413  1.9740  0.4933  0.1489
 2927TIP3   OH2 8786   6.373   0.181   0.231  0.4197  0.7212 -0.0787
 2927TIP3    H1 8787   6.307   0.112   0.228  0.7354  0.3609  0.8368
 2927TIP3    H2 8788   6.362   0.221   0.317  0.5598  1.5029 -0.4188
 2928TIP3   OH2 8789   4.142   3.247   0.823  0.5303  0.1583 -0.0357
 2928TIP3    H1 8790   4.084   3.180   0.788 -0.7352  2.0882 -1.8862
 2928TIP3    H2 8791   4.082   3.312   0.861  1.5375  1.4730 -0.6175
 2929TIP3   OH2 8792   4.740   1.040   4.125  0.5783  0.3618  0.7584
 2929TIP3    H1 8793   4.716   0.976   4.058 -0.3917  0.2553  1.1890
 2929TIP3    H2 8794   4.771   1.116   4.076 -1.7187  0.9372  0.0839
 2930TIP3   OH2 8795   2.103   1.563   3.254  0.3263 -0.2647  0.0212
 2930TIP3    H1 8796   2.012   1.535   3.249  0.3631 -0.8838  1.8525
 2930TIP3    H2 8797   2.098   1.653   3.287  0.3581 -0.1038 -0.4161
 2931TIP3   OH2 8798   2.750   0.985   2.916 -0.1614 -0.4373 -0.2493
 2931TIP3    H1 8799   2.810   0.939   2.857 -1.4425 -1.6565 -0.6455
 2931TIP3    H2 8800   2.687   0.919   2.942 -0.0337  0.2505  1.9795
 2932TIP3   OH2 8801   0.542   5.231   3.624  0.0966  0.6806  0.2553
 2932TIP3    H1 8802   0.619   5.258   3.675  1.2010  0.2106 -1.1114
 2932TIP3    H2 8803   0.578   5.185   3.548 -1.5236  0.8555 -0.6656
 2933TIP3   OH2 8804   4.415   4.559   1.118  0.4963 -0.0702  0.3397
 2933TIP3    H1 8805   4.327   4.543   1.151 -0.0269 -0.3656 -1.1407
 2933TIP3    H2 8806   4.429   4.653   1.132 -0.6313  0.2880 -0.6793
 2934TIP3   OH2 8807   1.056   4.453   0.919  0.2064  0.1959  0.3644
 2934TIP3    H1 8808   0.970   4.414   0.931  1.0137 -1.2155  1.9950
 2934TIP3    H2 8809   1.066   4.514   0.992  1.3285 -1.1541  1.3958
 2935TIP3   OH2 8810   4.561   4.944   2.968  0.2972  0.0162  0.0759
 2935TIP3    H1 8811   4.514   4.920   3.048 -0.3937 -0.7681 -0.5529
 2935TIP3    H2 8812   4.653   4.951   2.995  0.0698 -0.2311  0.9315
 2936TIP3   OH2 8813   1.159   3.839   3.968  0.1653  0.2881 -0.4344
 2936TIP3    H1 8814   1.112   3.862   4.048  0.0114 -0.1538 -0.3982
 2936TIP3    H2 8815   1.230   3.782   3.997  0.0247  0.0146 -0.6321
 2937TIP3   OH2 8816   1.890   0.171   0.849  0.0622 -0.2346 -0.3510
 2937TIP3    H1 8817   1.801   0.169   0.814 -0.1169 -1.1737  0.1106
 2937TIP3    H2 8818   1.882   0.128   0.935  0.2876  2.7848  1.3071
 2938TIP3   OH2 8819   2.703   3.752   2.944 -0.1323  0.0750 -0.5628
 2938TIP3    H1 8820   2.689   3.722   2.854  0.5885  1.7260 -1.2661
 2938TIP3    H2 8821   2.618   3.784   2.972 -0.5262 -1.0873 -0.3846
 2939TIP3   OH2 8822   5.290   3.402   4.010 -0.8207 -0.2245  0.9904
 2939TIP3    H1 8823   5.307   3.479   3.956 -0.5754 -0.0301  1.3431
 2939TIP3    H2 8824   5.215   3.359   3.967 -0.9236  0.1754  0.7612
 2940TIP3   OH2 8825   2.051   3.251   0.441  0.2124  0.4816 -0.1746
 2940TIP3    H1 8826   1.962   3.216   0.448  0.2658  0.0971 -1.1778
 2940TIP3    H2 8827   2.050   3.330   0.495 -0.4361 -0.0721  0.6556
 2941TIP3   OH2 8828   3.065   5.287   1.042  0.7698 -1.1252 -0.0290
 2941TIP3    H1 8829   3.054   5.314   0.950  1.8840 -1.0318 -0.1427
 2941TIP3    H2 8830   2.987   5.321   1.086  0.8377 -0.0646 -0.6961
 2942TIP3   OH2 8831   6.117   4.023   0.752 -0.9915 -0.0379 -0.5818
 2942TIP3    H1 8832   6.114   3.961   0.679  1.4013  0.9708 -1.6309
 2942TIP3    H2 8833   6.105   4.108   0.711 -0.8903  0.4561  0.3968
 2943TIP3   OH2 8834   0.972   4.254   1.799 -0.4739  0.5061 -0.0341
 2943TIP3    H1 8835   0.940   4.331   1.753  0.1334  0.7135 -0.1224
 2943TIP3    H2 8836   1.043   4.287   1.854 -1.2340  0.2852  1.1276
 2944TIP3   OH2 8837   1.820   5.861   4.773  0.0200  0.1318  0.0582
 2944TIP3    H1 8838   1.802   5.773   4.740 -1.4487  0.5060 -0.2091
 2944TIP3    H2 8839   1.752   5.877   4.839  1.0225  0.6042  1.0302
 2945TIP3   OH2 8840   0.956   5.769   1.916 -0.0363  0.0176  0.5545
 2945TIP3    H1 8841   1.016   5.716   1.864  2.7402  1.0468  2.4948
 2945TIP3    H2 8842   0.905   5.818   1.851 -0.4885 -2.5759 -1.2063
 2946TIP3   OH2 8843   4.124   3.017   1.836  0.2682  0.7321 -1.0493
 2946TIP3    H1 8844   4.057   2.951   1.856 -1.0506  2.3920  0.3450
 2946TIP3    H2 8845   4.150   2.997   1.746 -0.9853 -0.9212 -1.1053
 2947TIP3   OH2 8846   3.812   2.428   2.768 -0.2201  0.0191 -0.1605
 2947TIP3    H1 8847   3.783   2.505   2.817 -0.6680 -0.1894 -0.0884
 2947TIP3    H2 8848   3.745   2.362   2.786  0.8444 -0.8260  0.8497
 2948TIP3   OH2 8849   0.205   0.134   4.736  0.0104  0.3522 -0.1161
 2948TIP3    H1 8850   0.150   0.178   4.671  1.2079  0.1782 -1.2812
 2948TIP3    H2 8851   0.194   0.186   4.816 -1.6519  0.4534 -0.3626
 2949TIP3   OH2 8852   0.919   4.063   4.526  0.4234 -0.2917 -0.2328
 2949TIP3    H1 8853   0.961   4.129   4.580 -0.8945 -0.4230  1.0208
 2949TIP3    H2 8854   0.939   3.980   4.569  0.0614 -0.4835 -0.4260
 2950TIP3   OH2 8855   0.949   2.143   2.044 -0.6275 -0.2834  0.4984
 2950TIP3    H1 8856   0.905   2.119   2.125  2.1223 -1.8796  1.6223
 2950TIP3    H2 8857   0.991   2.227   2.062 -1.3873  0.1948  0.1185
 2951TIP3   OH2 8858   6.173   4.436   1.801 -0.5393  0.3364 -0.0710
 2951TIP3    H1 8859   6.146   4.516   1.755 -0.7289  0.7485  0.7409
 2951TIP3    H2 8860   6.119   4.367   1.763 -0.4039  0.5943 -0.7535
 2952TIP3   OH2 8861   5.779   1.414   1.002 -0.2073  0.2981 -0.0133
 2952TIP3    H1 8862   5.715   1.422   0.931  0.6549  0.5957 -0.7732
 2952TIP3    H2 8863   5.858   1.456   0.968  0.1559  0.6474  1.2092
 2953TIP3   OH2 8864   5.792   3.678   2.705 -0.4616  0.1257  0.2128
 2953TIP3    H1 8865   5.862   3.739   2.730 -0.2013  0.2123 -0.6891
 2953TIP3    H2 8866   5.712   3.719   2.737  0.0352 -1.0586  3.3741
 2954TIP3   OH2 8867   0.962   4.905   4.375 -0.5206  0.6827  0.8439
 2954TIP3    H1 8868   1.052   4.921   4.405 -0.5297  1.1667  0.6282
 2954TIP3    H2 8869   0.970   4.832   4.314 -0.1143  1.3687  0.0514
 2955TIP3   OH2 8870   2.596   2.165   3.340 -0.0621  0.0515  0.0497
 2955TIP3    H1 8871   2.538   2.104   3.384  0.2635  0.0708  0.5080
 2955TIP3    H2 8872   2.567   2.164   3.248 -1.8552  1.2653  0.5324
 2956TIP3   OH2 8873   5.391   1.674   3.903 -0.2043  0.5672 -0.5150
 2956TIP3    H1 8874   5.381   1.610   3.833  0.7499 -1.8201  1.3584
 2956TIP3    H2 8875   5.306   1.675   3.947 -0.2043  0.5346 -0.5143
 2957TIP3   OH2 8876   0.570   2.990   1.967  0.0839 -0.1250  0.3827
 2957TIP3    H1 8877   0.635   2.982   1.898  0.6234  1.8409  0.6099
 2957TIP3    H2 8878   0.615   2.961   2.046  0.7059  1.1547  0.5259
 2958TIP3   OH2 8879   2.120   4.331   5.016 -0.6624  0.0331  0.2034
 2958TIP3    H1 8880   2.056   4.300   4.953 -0.5151  0.1610 -0.0103
 2958TIP3    H2 8881   2.173   4.394   4.968  1.1773 -1.8160 -0.3647
 2959TIP3   OH2 8882   2.091   5.041   3.052  0.1554 -0.1957 -0.5789
 2959TIP3    H1 8883   2.034   5.050   3.128 -0.2453  0.0316 -0.8970
 2959TIP3    H2 8884   2.131   5.127   3.041  0.0111 -0.1532 -0.7792
 2960TIP3   OH2 8885   0.293   3.263   1.425 -0.4019  0.4591  0.1843
 2960TIP3    H1 8886   0.341   3.269   1.342  1.2350 -0.2503  1.0385
 2960TIP3    H2 8887   0.360   3.242   1.490 -1.6026  1.2554  1.7511
 2961TIP3   OH2 8888   0.779   3.855   0.204 -0.2902 -0.1248  0.2145
 2961TIP3    H1 8889   0.805   3.842   0.296 -0.7224  0.1056  0.3724
 2961TIP3    H2 8890   0.857   3.833   0.154 -0.1573 -0.5951  0.6196
 2962TIP3   OH2 8891   0.070   2.290   0.143 -0.2513 -0.0823  0.2151
 2962TIP3    H1 8892   0.142   2.254   0.195 -0.7015 -1.0290  0.2111
 2962TIP3    H2 8893   0.013   2.332   0.207  0.3582  0.7903  0.2026
 2963TIP3   OH2 8894   5.605   4.779   4.115 -0.0550 -0.3097  0.4105
 2963TIP3    H1 8895   5.593   4.821   4.200 -0.8066  1.4794 -0.5190
 2963TIP3    H2 8896   5.522   4.735   4.098  0.0630 -0.5920  0.5724
 2964TIP3   OH2 8897   2.097   1.862   4.622  0.0344 -0.0894  0.3162
 2964TIP3    H1 8898   2.192   1.857   4.610  0.0027 -0.3258  0.1562
 2964TIP3    H2 8899   2.065   1.776   4.596 -0.0310 -0.6707  2.1740
 2965TIP3   OH2 8900   3.656   2.890   4.174 -0.1127  0.4702 -0.5078
 2965TIP3    H1 8901   3.745   2.893   4.208 -0.5498  0.7310  0.6843
 2965TIP3    H2 8902   3.605   2.849   4.244 -1.0422  0.9415 -0.8849
 2966TIP3   OH2 8903   2.322   3.160   4.429 -0.3214 -0.7453 -0.3464
 2966TIP3    H1 8904   2.320   3.220   4.503  1.7595 -0.9982 -0.0265
 2966TIP3    H2 8905   2.235   3.119   4.429 -0.7618  0.1074  1.2234
 2967TIP3   OH2 8906   4.277   3.594   1.566  0.1894 -0.1730  0.3906
 2967TIP3    H1 8907   4.291   3.524   1.630  2.0346  1.0566  1.4317
 2967TIP3    H2 8908   4.186   3.621   1.579 -0.6136 -2.4245 -0.1443
 2968TIP3   OH2 8909   0.880   5.691   1.423 -0.4159 -0.4911 -0.0969
 2968TIP3    H1 8910   0.865   5.754   1.494  0.6081  0.9517 -1.0928
 2968TIP3    H2 8911   0.793   5.670   1.390 -0.8850 -0.9528  1.3653
 2969TIP3   OH2 8912   6.093   3.619   2.416 -0.0270  0.0304  0.0736
 2969TIP3    H1 8913   6.013   3.598   2.463  0.3043  0.1995  0.7133
 2969TIP3    H2 8914   6.079   3.583   2.328 -0.3331 -0.9830  0.5184
 2970TIP3   OH2 8915   3.462   4.154   1.881 -0.1388  0.1701  0.1659
 2970TIP3    H1 8916   3.546   4.135   1.923 -0.7703  1.7450  2.3931
 2970TIP3    H2 8917   3.425   4.069   1.859  1.5016 -0.5969  0.2826
 2971TIP3   OH2 8918   3.573   2.465   2.102  0.2875 -0.1809  0.3988
 2971TIP3    H1 8919   3.510   2.478   2.172  0.0050  0.0185  0.1078
 2971TIP3    H2 8920   3.575   2.371   2.088  1.0639 -0.3225  1.3337
 2972TIP3   OH2 8921   4.629   1.408   0.562 -0.7684 -0.3537  0.3967
 2972TIP3    H1 8922   4.601   1.404   0.653  1.0923  2.8274  1.2687
 2972TIP3    H2 8923   4.704   1.349   0.557  0.3218  0.8730  1.5043
 2973TIP3   OH2 8924   5.895   1.723   2.138 -0.1971 -0.6093  0.3386
 2973TIP3    H1 8925   5.906   1.818   2.142  0.0048 -0.5780 -0.6179
 2973TIP3    H2 8926   5.872   1.697   2.227 -1.2387  0.4522  0.3977
 2974TIP3   OH2 8927   2.689   5.804   4.575 -0.2078 -0.0445 -0.2837
 2974TIP3    H1 8928   2.734   5.875   4.620  0.6781  0.1291 -1.3999
 2974TIP3    H2 8929   2.597   5.814   4.600  0.1112  0.6688  0.6332
 2975TIP3   OH2 8930   2.298   0.666   2.766 -0.1877  0.3043  0.3706
 2975TIP3    H1 8931   2.298   0.622   2.680  0.0196 -0.3309  0.6918
 2975TIP3    H2 8932   2.218   0.718   2.766 -0.0563  0.5341 -0.3174
 2976TIP3   OH2 8933   0.628   5.093   4.909 -0.2959  0.0044  0.0805
 2976TIP3    H1 8934   0.676   5.059   4.833 -1.9545 -1.3968 -0.4365
 2976TIP3    H2 8935   0.539   5.058   4.897 -0.3767 -1.1059  3.1821
 2977TIP3   OH2 8936   2.033   5.972   4.081  0.8699 -0.6814 -0.3300
 2977TIP3    H1 8937   1.990   5.887   4.072  0.1372 -0.3847  0.2325
 2977TIP3    H2 8938   2.049   5.981   4.175  0.2734  0.1180 -0.2971
 2978TIP3   OH2 8939   3.249   4.036   4.970 -0.1864 -0.4364 -0.1980
 2978TIP3    H1 8940   3.163   4.021   5.010 -0.0986  0.6044  0.4349
 2978TIP3    H2 8941   3.239   4.008   4.879 -1.3452  0.1321 -0.2581
 2979TIP3   OH2 8942   3.842   3.959   4.246 -0.2204  0.0112 -0.6334
 2979TIP3    H1 8943   3.747   3.945   4.243 -0.1426 -1.6360  1.6719
 2979TIP3    H2 8944   3.874   3.917   4.166 -1.4331  1.1266 -1.7585
 2980TIP3   OH2 8945   2.477   0.033   1.497 -0.6993 -0.3302 -0.5831
 2980TIP3    H1 8946   2.400  -0.023   1.490 -1.5599  0.5816  1.0335
 2980TIP3    H2 8947   2.443   0.122   1.496  0.5493  0.1813 -1.9973
 2981TIP3   OH2 8948   6.141   4.541   5.193 -0.2551  0.3457 -0.0789
 2981TIP3    H1 8949   6.054   4.572   5.168 -0.6520 -1.9162 -1.7635
 2981TIP3    H2 8950   6.201   4.583   5.131 -0.0051  2.3164  1.4066
 2982TIP3   OH2 8951   2.215   0.284   0.005  0.3260 -0.3214 -0.1548
 2982TIP3    H1 8952   2.190   0.354   0.065 -1.0504  0.3144 -1.4029
 2982TIP3    H2 8953   2.139   0.274  -0.053  0.7438 -2.4066 -0.4224
 2983TIP3   OH2 8954   2.423   4.164   3.349 -0.3522 -0.4378 -0.0725
 2983TIP3    H1 8955   2.383   4.166   3.436 -0.4467 -0.4529 -0.1160
 2983TIP3    H2 8956   2.474   4.083   3.349  0.4199  0.0236  0.3128
 2984TIP3   OH2 8957   1.455   4.071   2.332 -0.0867 -0.0051 -0.4989
 2984TIP3    H1 8958   1.372   4.117   2.336 -0.1713 -0.1815 -0.1742
 2984TIP3    H2 8959   1.458   4.020   2.413 -0.2939 -1.0717 -1.1394
 2985TIP3   OH2 8960   5.628   4.610   0.799 -0.0592  0.3057 -0.4526
 2985TIP3    H1 8961   5.648   4.516   0.800  1.0438  0.5224 -0.8498
 2985TIP3    H2 8962   5.619   4.633   0.891 -0.1862 -0.1593 -0.3440
 2986TIP3   OH2 8963   4.441   3.635   3.669 -0.2340  0.5339  0.1750
 2986TIP3    H1 8964   4.505   3.564   3.672 -0.9854 -0.2756 -1.5140
 2986TIP3    H2 8965   4.493   3.714   3.657  0.4983  0.0103 -0.1410
 2987TIP3   OH2 8966   0.300   1.970   1.917  0.1469  0.3154  0.1743
 2987TIP3    H1 8967   0.389   1.977   1.951 -0.4303  0.7484  1.6974
 2987TIP3    H2 8968   0.308   1.915   1.839  1.4611 -1.5679  1.5404
 2988TIP3   OH2 8969   4.520   0.857   3.548  0.6190  0.2438  0.1159
 2988TIP3    H1 8970   4.529   0.941   3.593 -2.2122  0.4135  0.5014
 2988TIP3    H2 8971   4.509   0.881   3.455  1.9752  0.1393 -0.0898
 2989TIP3   OH2 8972   0.078   4.135   3.813 -0.1339 -0.3702 -0.0476
 2989TIP3    H1 8973   0.006   4.183   3.854 -0.8860 -1.3376 -0.1989
 2989TIP3    H2 8974   0.079   4.167   3.722 -0.7498 -0.7402 -0.1963
 2990TIP3   OH2 8975   3.798   0.348   0.363 -0.1076 -0.1867  0.4118
 2990TIP3    H1 8976   3.818   0.257   0.342 -1.8235 -0.5114  0.0656
 2990TIP3    H2 8977   3.713   0.344   0.407 -0.3746  1.2868  0.0626
 2991TIP3   OH2 8978   5.621   4.098   2.318 -0.3828  0.4507  0.1900
 2991TIP3    H1 8979   5.699   4.135   2.276 -0.7996  2.0677  0.7572
 2991TIP3    H2 8980   5.552   4.107   2.253 -0.0199 -1.5765 -0.5585
 2992TIP3   OH2 8981   5.443   5.281   2.713 -0.3945  0.2097 -0.2981
 2992TIP3    H1 8982   5.349   5.301   2.716 -0.4719 -0.2102  0.0534
 2992TIP3    H2 8983   5.472   5.286   2.804 -0.1199  0.1241 -0.3799
 2993TIP3   OH2 8984   3.386   1.485   3.732  0.0164 -0.1308 -0.5034
 2993TIP3    H1 8985   3.315   1.498   3.795  0.0611  0.5654 -0.5912
 2993TIP3    H2 8986   3.447   1.556   3.749  1.0249 -1.0974 -0.0067
 2994TIP3   OH2 8987   1.885   0.421   2.077  0.6126  0.4944 -0.1552
 2994TIP3    H1 8988   1.818   0.489   2.069 -0.1787 -0.3225 -0.7884
 2994TIP3    H2 8989   1.849   0.360   2.142  0.7305  0.0631 -0.4829
 2995TIP3   OH2 8990   0.155   2.551   1.227 -0.1144 -0.3403  0.1936
 2995TIP3    H1 8991   0.190   2.503   1.152  1.4634  0.9902  0.0276
 2995TIP3    H2 8992   0.104   2.622   1.188 -1.1843 -0.9590  0.4257
 2996TIP3   OH2 8993   1.314   0.669   3.892 -0.5871 -0.0386 -0.0059
 2996TIP3    H1 8994   1.304   0.697   3.800 -1.2774 -0.3821 -0.0369
 2996TIP3    H2 8995   1.398   0.707   3.919 -1.9516  3.0787  0.3041
 2997TIP3   OH2 8996   4.362   0.364   3.910 -0.3820 -0.2177  0.1417
 2997TIP3    H1 8997   4.312   0.439   3.940  1.2780  1.4043 -0.8866
 2997TIP3    H2 8998   4.297   0.301   3.879 -1.8537  0.3375  1.9372
 2998TIP3   OH2 8999   3.333   1.761   1.546  0.5460 -0.0968 -0.5598
 2998TIP3    H1 9000   3.238   1.763   1.533  0.2031 -1.2397  1.3899
 2998TIP3    H2 9001   3.357   1.852   1.563  0.1200  0.4845 -2.7916
 2999TIP3   OH2 9002   1.226   3.952   5.127 -0.4054 -0.6125 -0.0190
 2999TIP3    H1 9003   1.254   4.043   5.129 -0.5826 -0.5071 -1.2875
 2999TIP3    H2 9004   1.291   3.905   5.179  0.4536  0.0390 -0.4881
 3000TIP3   OH2 9005   3.755   5.266   1.298 -0.0155 -0.3731 -0.5021
 3000TIP3    H1 9006   3.791   5.229   1.218  0.0902  0.1865 -0.7222
 3000TIP3    H2 9007   3.668   5.298   1.272 -0.8370 -2.0204  0.1038
 3001TIP3   OH2 9008   3.397   3.334   2.357  0.1307  0.2774  0.1182
 3001TIP3    H1 9009   3.339   3.282   2.301 -1.7740  4.3486 -2.1558
 3001TIP3    H2 9010   3.350   3.340   2.440 -1.1923  0.8193 -0.6304
 3002TIP3   OH2 9011   0.784   1.225   0.836 -0.0392 -0.1919 -0.2890
 3002TIP3    H1 9012   0.742   1.310   0.852  0.2902  0.4300 -2.4157
 3002TIP3    H2 9013   0.869   1.232   0.878  0.0210  0.5787 -0.5162
 3003TIP3   OH2 9014   2.960   1.589   4.335 -0.5405  0.3581 -0.4698
 3003TIP3    H1 9015   2.867   1.569   4.327 -0.8082  1.2996  0.0647
 3003TIP3    H2 9016   2.991   1.530   4.403 -0.6181 -0.3417 -1.0350
 3004TIP3   OH2 9017   6.278   3.513   0.386  0.4775  0.3210 -0.2429
 3004TIP3    H1 9018   6.295   3.506   0.480 -0.5678 -0.6565 -0.1089
 3004TIP3    H2 9019   6.288   3.606   0.367 -2.3186  1.0854  1.4664
 3005TIP3   OH2 9020   1.583   3.237   2.644  0.1750  0.5946  0.5403
 3005TIP3    H1 9021   1.647   3.179   2.604  1.1089  0.7606  1.7284
 3005TIP3    H2 9022   1.597   3.227   2.739 -0.2382  2.0843  0.7913
 3006TIP3   OH2 9023   5.799   4.486   2.569  0.2331  0.4378 -0.4120
 3006TIP3    H1 9024   5.717   4.498   2.522 -0.2171  2.5341  0.7556
 3006TIP3    H2 9025   5.831   4.575   2.583  2.2928 -0.3000 -0.1037
 3007TIP3   OH2 9026   0.661   0.902   3.712 -0.1858 -0.3325 -0.0208
 3007TIP3    H1 9027   0.662   0.822   3.764 -0.1460 -0.3751 -0.0869
 3007TIP3    H2 9028   0.582   0.895   3.659  0.2781 -0.7453 -0.6716
 3008TIP3   OH2 9029   6.128   0.939   2.355  0.0575  0.2777 -0.2397
 3008TIP3    H1 9030   6.067   1.001   2.395 -2.1197 -0.6810 -1.8752
 3008TIP3    H2 9031   6.165   0.986   2.281  1.0541  0.7179  0.5108
 3009TIP3   OH2 9032   4.124   2.369   1.431 -0.0250  0.0056  0.6503
 3009TIP3    H1 9033   4.219   2.376   1.441  0.4542 -2.6931 -1.0832
 3009TIP3    H2 9034   4.101   2.445   1.378  1.2436  0.4559  0.6914
 3010TIP3   OH2 9035   3.318   2.114   4.779  0.7826 -0.1670 -0.4806
 3010TIP3    H1 9036   3.239   2.168   4.778  0.2812 -0.8795 -0.0287
 3010TIP3    H2 9037   3.352   2.123   4.868 -0.6294 -2.4259  0.3981
 3011TIP3   OH2 9038   0.294   2.489   0.664  0.3306 -0.3317 -0.1484
 3011TIP3    H1 9039   0.224   2.450   0.613  0.7964  0.0531 -1.1018
 3011TIP3    H2 9040   0.256   2.568   0.702 -0.6339 -1.6732  1.8328
 3012TIP3   OH2 9041   0.292   4.333   1.137  0.0239  0.4567  0.2094
 3012TIP3    H1 9042   0.221   4.348   1.075 -0.3351  0.0052  0.5011
 3012TIP3    H2 9043   0.251   4.283   1.209  0.8382 -0.6628 -0.0672
 3013TIP3   OH2 9044   1.504   2.188   1.089 -0.8313 -0.6127  0.0141
 3013TIP3    H1 9045   1.488   2.093   1.090  0.8067 -0.9263 -0.4742
 3013TIP3    H2 9046   1.488   2.213   0.998  1.1894 -0.9258 -0.4752
 3014TIP3   OH2 9047   2.379   4.419   1.329  0.4257  0.2940 -0.6460
 3014TIP3    H1 9048   2.442   4.348   1.314 -0.3107 -0.3334 -0.8750
 3014TIP3    H2 9049   2.381   4.470   1.247  1.4711  0.9764 -0.2207
 3015TIP3   OH2 9050   1.520   3.169   0.631  0.4992 -0.2867  0.2190
 3015TIP3    H1 9051   1.552   3.177   0.720 -2.1648  1.4210  1.1504
 3015TIP3    H2 9052   1.460   3.094   0.633  0.6689 -0.4415 -0.2308
 3016TIP3   OH2 9053   3.569   5.534   4.554 -0.4033 -0.0083  0.5815
 3016TIP3    H1 9054   3.512   5.603   4.588 -0.2214  0.7939 -0.6715
 3016TIP3    H2 9055   3.545   5.527   4.461  0.7592 -0.4374  0.2968
 3017TIP3   OH2 9056   6.025   1.634   1.080  0.3903 -0.7908 -0.1472
 3017TIP3    H1 9057   6.062   1.554   1.044 -2.0021 -1.5665 -1.0601
 3017TIP3    H2 9058   6.020   1.694   1.006 -0.5604 -0.8526 -0.1382
 3018TIP3   OH2 9059   6.200   1.159   3.069 -0.2867  0.3193  0.5874
 3018TIP3    H1 9060   6.213   1.068   3.098  1.5904  0.2014 -0.4455
 3018TIP3    H2 9061   6.211   1.211   3.149 -0.9826 -0.3365  1.1194
 3019TIP3   OH2 9062   1.345   4.029   3.334  0.1354 -0.5865  0.0598
 3019TIP3    H1 9063   1.391   4.112   3.321 -1.1785  0.2660  0.7554
 3019TIP3    H2 9064   1.339   3.992   3.245 -0.0094  0.4658 -0.3873
 3020TIP3   OH2 9065   0.959   3.497   3.811 -0.0687  0.5207 -0.5344
 3020TIP3    H1 9066   1.013   3.576   3.822 -0.2032  0.3514  2.0113
 3020TIP3    H2 9067   0.882   3.527   3.764  0.7199  1.4842 -1.2693
 3021TIP3   OH2 9068   0.308   2.403   0.964 -0.2050 -1.1876 -0.1099
 3021TIP3    H1 9069   0.344   2.418   0.876 -0.5674  1.7746  0.1399
 3021TIP3    H2 9070   0.234   2.344   0.950 -0.1227 -0.9438 -1.7680
 3022TIP3   OH2 9071   1.258   0.418   2.804 -0.5569 -0.0255  0.3689
 3022TIP3    H1 9072   1.188   0.449   2.747  1.0207  1.3446 -0.9076
 3022TIP3    H2 9073   1.259   0.323   2.791 -1.0175  0.1329 -0.9432
 3023TIP3   OH2 9074   3.216   1.887   2.822  0.1678 -0.2421  0.2986
 3023TIP3    H1 9075   3.129   1.849   2.837  0.8225 -1.4815  1.2295
 3023TIP3    H2 9076   3.249   1.905   2.910  1.6453 -1.7492  0.1010
 3024TIP3   OH2 9077   1.454   0.622   1.239 -0.1851 -0.3215 -0.0811
 3024TIP3    H1 9078   1.506   0.676   1.180 -0.8808  0.6629  0.1742
 3024TIP3    H2 9079   1.428   0.547   1.187  0.9940 -0.5399 -0.3836
 3025TIP3   OH2 9080   1.472   4.917   3.562  0.2182 -0.1622 -0.5127
 3025TIP3    H1 9081   1.471   4.981   3.633 -2.9837  0.5530 -1.0613
 3025TIP3    H2 9082   1.443   4.835   3.604  0.9139 -0.4243 -0.5189
 3026TIP3   OH2 9083   5.689   2.204   0.814  0.3461  0.1201  0.5324
 3026TIP3    H1 9084   5.658   2.183   0.726  2.9478 -0.1981 -0.3727
 3026TIP3    H2 9085   5.680   2.300   0.820 -1.8639 -0.0313  0.8311
 3027TIP3   OH2 9086   4.602   3.273   1.220 -0.4902 -0.1126  0.2595
 3027TIP3    H1 9087   4.560   3.195   1.257 -1.1200  0.5948  1.0849
 3027TIP3    H2 9088   4.574   3.344   1.277  1.1373  0.5303  0.3114
 3028TIP3   OH2 9089   0.460   0.571   0.202  0.3647  0.1647  0.1193
 3028TIP3    H1 9090   0.553   0.556   0.186  0.9709  0.6821  2.6428
 3028TIP3    H2 9091   0.435   0.640   0.140  2.0068  0.9303  0.2563
 3029TIP3   OH2 9092   3.699   2.750   1.271  0.3587  0.3309  0.0006
 3029TIP3    H1 9093   3.777   2.758   1.215  0.3600 -1.5971 -0.3677
 3029TIP3    H2 9094   3.648   2.680   1.230 -0.4337 -0.0157  1.5236
 3030TIP3   OH2 9095   1.753   2.823   3.597 -0.6017 -0.1939  0.2234
 3030TIP3    H1 9096   1.688   2.804   3.665 -1.2501  1.2772  0.0410
 3030TIP3    H2 9097   1.837   2.816   3.642 -0.9293 -0.9292  0.7485
 3031TIP3   OH2 9098   1.417   1.768   0.331 -0.3311  0.1731 -0.1404
 3031TIP3    H1 9099   1.400   1.757   0.425  0.3045 -2.0750 -0.2283
 3031TIP3    H2 9100   1.347   1.719   0.289 -0.8310  1.4818 -0.9032
 3032TIP3   OH2 9101   5.189   3.146   2.062 -0.4433 -0.3108 -0.1039
 3032TIP3    H1 9102   5.109   3.112   2.102 -1.8407  0.7000 -1.9118
 3032TIP3    H2 9103   5.220   3.212   2.125 -1.8686  0.3250 -0.0237
 3033TIP3   OH2 9104   3.334   4.079   4.330  0.0958  0.2429  0.0771
 3033TIP3    H1 9105   3.306   3.997   4.288 -1.3592 -1.1936  3.4409
 3033TIP3    H2 9106   3.362   4.052   4.417 -0.2254  3.3272  1.2366
 3034TIP3   OH2 9107   1.436   4.036   1.963  0.2240  0.2273 -0.3214
 3034TIP3    H1 9108   1.420   4.128   1.986  1.3527  0.3796 -0.0853
 3034TIP3    H2 9109   1.500   4.006   2.028  1.4610 -0.1066 -1.6382
 3035TIP3   OH2 9110   5.984   1.468   3.304  0.2128  0.0128  0.1449
 3035TIP3    H1 9111   5.906   1.431   3.262  0.7989  0.8298 -1.8112
 3035TIP3    H2 9112   5.950   1.530   3.368 -0.7411 -1.4070  1.0471
 3036TIP3   OH2 9113   2.472   3.147   3.323  0.2567  0.3980 -0.8707
 3036TIP3    H1 9114   2.428   3.232   3.330  0.8431  0.5437  2.3219
 3036TIP3    H2 9115   2.428   3.091   3.387 -0.1819 -1.8286 -2.9742
 3037TIP3   OH2 9116   5.313   5.036   3.292 -0.0700 -0.7762  0.0876
 3037TIP3    H1 9117   5.254   5.086   3.349  1.2634 -0.3053  1.1298
 3037TIP3    H2 9118   5.369   5.103   3.251  0.3124 -1.2570 -0.1865
 3038TIP3   OH2 9119   5.771   1.389   1.273  0.1193  0.1297  0.5611
 3038TIP3    H1 9120   5.837   1.442   1.318  1.4330 -1.6694  0.9060
 3038TIP3    H2 9121   5.797   1.391   1.181 -1.2044  1.9039  0.1674
 3039TIP3   OH2 9122   6.255   4.699   2.131  0.6599  0.0880 -0.2851
 3039TIP3    H1 9123   6.255   4.765   2.062  0.2519 -0.7353 -1.1067
 3039TIP3    H2 9124   6.176   4.647   2.114 -0.3765  0.8484  1.7931
 3040TIP3   OH2 9125   3.308   1.810   3.309 -0.3857  0.3378  0.2924
 3040TIP3    H1 9126   3.318   1.866   3.233  0.1268  0.1446  0.2145
 3040TIP3    H2 9127   3.342   1.725   3.281 -0.7484  0.1055  0.5462
 3041TIP3   OH2 9128   2.151   2.297   4.122 -0.5075 -0.0583  0.2415
 3041TIP3    H1 9129   2.138   2.360   4.193 -0.7493 -0.4073  0.5083
 3041TIP3    H2 9130   2.243   2.308   4.097 -1.1492  2.3171 -1.5553
 3042TIP3   OH2 9131   3.176   2.291   1.270 -0.1423  0.5806 -0.0099
 3042TIP3    H1 9132   3.111   2.310   1.337 -1.7354  1.9592 -1.8327
 3042TIP3    H2 9133   3.142   2.214   1.224  0.0799  0.6371 -0.2741
 3043TIP3   OH2 9134   5.360   0.942   1.946  0.3269 -0.6615 -0.4174
 3043TIP3    H1 9135   5.314   0.916   1.867 -1.7965  2.7080 -0.4737
 3043TIP3    H2 9136   5.310   0.903   2.018 -0.4814 -0.0031 -0.6134
 3044TIP3   OH2 9137   1.354   3.153   1.263  0.2841 -0.1418 -0.5808
 3044TIP3    H1 9138   1.350   3.095   1.187  0.3932 -1.3028  0.2722
 3044TIP3    H2 9139   1.263   3.172   1.284  0.0287 -2.6339  1.0366
 3045TIP3   OH2 9140   3.740   3.174   3.417  0.4579 -0.5279 -0.5001
 3045TIP3    H1 9141   3.793   3.249   3.389  0.7276 -0.6837 -0.4036
 3045TIP3    H2 9142   3.652   3.211   3.428  0.7243 -0.0758  0.1916
 3046TIP3   OH2 9143   0.353   2.571   2.732  0.3004  0.1241 -0.2603
 3046TIP3    H1 9144   0.331   2.579   2.640  1.7661  0.2214 -0.6247
 3046TIP3    H2 9145   0.270   2.549   2.775 -0.6152  1.1817 -1.4306
 3047TIP3   OH2 9146   0.678   1.505   3.820  0.2546 -0.4074 -0.7152
 3047TIP3    H1 9147   0.594   1.518   3.864  0.9956 -0.6614  0.8468
 3047TIP3    H2 9148   0.735   1.469   3.888  1.9076  0.6602 -1.4841
 3048TIP3   OH2 9149   5.717   4.080   4.251 -0.5072 -0.1743  0.1615
 3048TIP3    H1 9150   5.765   4.000   4.230  0.3463  0.4814 -0.4533
 3048TIP3    H2 9151   5.751   4.145   4.190 -1.1640  0.6744  0.6768
 3049TIP3   OH2 9152   5.519   4.399   3.306 -0.1748  0.1418 -0.2067
 3049TIP3    H1 9153   5.521   4.478   3.252 -2.5979  0.0623 -0.5168
 3049TIP3    H2 9154   5.500   4.432   3.394 -0.6935 -0.0593 -0.2440
 3050TIP3   OH2 9155   2.426   2.565   4.295 -0.0126  0.1752 -0.1960
 3050TIP3    H1 9156   2.429   2.482   4.247  1.3877 -0.3383  0.7219
 3050TIP3    H2 9157   2.333   2.577   4.315 -0.6307  0.3428 -2.8391
 3051TIP3   OH2 9158   4.691   1.568   0.349 -0.3974  0.6001  0.1149
 3051TIP3    H1 9159   4.768   1.524   0.313  0.7270  2.3755  0.2378
 3051TIP3    H2 9160   4.675   1.525   0.432  0.6923  0.4397  0.2482
 3052TIP3   OH2 9161   5.778   1.595   0.310  0.2435 -0.4202  0.8138
 3052TIP3    H1 9162   5.819   1.593   0.224  1.7072 -0.3893  1.4855
 3052TIP3    H2 9163   5.796   1.508   0.347  1.8514  0.3809  2.0519
 3053TIP3   OH2 9164   1.092   3.016   3.552 -0.2774  0.0343 -0.2959
 3053TIP3    H1 9165   1.098   3.071   3.474 -0.7187 -0.0287 -0.3758
 3053TIP3    H2 9166   1.183   3.004   3.580 -0.0943 -0.2294 -0.9959
 3054TIP3   OH2 9167   6.129   2.215   0.539 -0.4337  0.4997  1.0069
 3054TIP3    H1 9168   6.104   2.267   0.615 -1.9145 -0.2495  1.0845
 3054TIP3    H2 9169   6.117   2.124   0.568 -1.6449  0.2087 -0.2708
 3055TIP3   OH2 9170   2.993   2.510   0.635 -0.3650  0.2977 -0.3860
 3055TIP3    H1 9171   2.971   2.584   0.578 -0.8455 -0.1544 -0.8003
 3055TIP3    H2 9172   2.937   2.522   0.712 -1.2482 -0.2148 -0.9303
 3056TIP3   OH2 9173   1.402   2.176   3.010 -0.5290  0.3333  0.0084
 3056TIP3    H1 9174   1.387   2.093   3.055  1.4349  0.3595  0.7939
 3056TIP3    H2 9175   1.363   2.242   3.067 -0.8186  0.0812  0.1044
 3057TIP3   OH2 9176   6.296   3.486   4.255  0.2034 -0.0293 -0.2221
 3057TIP3    H1 9177   6.245   3.544   4.311 -0.1949 -0.1595 -0.4448
 3057TIP3    H2 9178   6.247   3.483   4.173  1.6881  1.5566 -1.2152
 3058TIP3   OH2 9179   3.412   3.855   2.794  0.0727 -0.0409 -0.2791
 3058TIP3    H1 9180   3.424   3.923   2.727 -0.0424 -0.2381 -0.5018
 3058TIP3    H2 9181   3.388   3.777   2.744  0.4673 -0.3165 -0.0467
 3059TIP3   OH2 9182   1.687   3.650   1.431  0.2217 -0.4503  0.3287
 3059TIP3    H1 9183   1.632   3.583   1.470  0.8582 -0.2621  1.6117
 3059TIP3    H2 9184   1.650   3.664   1.344 -0.3384 -1.9532  0.2955
 3060TIP3   OH2 9185   3.935   0.924   2.563 -0.3585  0.1735 -0.3643
 3060TIP3    H1 9186   3.944   0.829   2.559 -0.4828  0.2122 -2.3278
 3060TIP3    H2 9187   3.853   0.939   2.609  0.3044 -0.6052  1.1538
 3061TIP3   OH2 9188   5.650   4.950   1.731 -0.4353 -0.1823 -0.2619
 3061TIP3    H1 9189   5.729   4.972   1.682 -0.5102  1.0978  0.1706
 3061TIP3    H2 9190   5.673   4.968   1.823 -1.6763  1.5921 -0.2748
 3062TIP3   OH2 9191   4.732   3.400   4.329  0.1485  0.0024  0.7767
 3062TIP3    H1 9192   4.771   3.350   4.257  3.2901 -0.2526  2.5038
 3062TIP3    H2 9193   4.663   3.342   4.363  0.1788 -0.8512 -0.5409
 3063TIP3   OH2 9194   5.115   4.916   3.116  0.0896  0.1914  0.0923
 3063TIP3    H1 9195   5.155   4.916   3.203  2.3100  0.8517 -0.8758
 3063TIP3    H2 9196   5.038   4.859   3.126 -0.8218  1.6923  2.9311
 3064TIP3   OH2 9197   6.302   2.685   0.507  0.0461  0.0203 -0.3029
 3064TIP3    H1 9198   6.250   2.741   0.565  1.1091 -0.2133  0.9019
 3064TIP3    H2 9199   6.277   2.596   0.531 -0.5179 -0.0693 -1.1712
 3065TIP3   OH2 9200   5.751   2.299   2.262  0.1538  0.0430 -0.0823
 3065TIP3    H1 9201   5.683   2.356   2.297  0.1361 -0.6511  1.1061
 3065TIP3    H2 9202   5.708   2.250   2.192 -0.8682 -1.0235  1.2308
 3066TIP3   OH2 9203   3.805   2.394   4.561 -0.6247 -0.0305  0.1738
 3066TIP3    H1 9204   3.845   2.403   4.648 -0.0042  0.3271 -0.1427
 3066TIP3    H2 9205   3.717   2.361   4.579 -0.7014  0.5648  0.9787
 3067TIP3   OH2 9206   1.052   4.313   4.390  0.1403 -0.0028 -0.7807
 3067TIP3    H1 9207   1.079   4.375   4.321 -3.6777  1.4484 -1.2319
 3067TIP3    H2 9208   1.018   4.237   4.342 -1.0714  0.3438 -0.5072
 3068TIP3   OH2 9209   3.771   4.422   2.714  0.3576  0.3495  0.1557
 3068TIP3    H1 9210   3.814   4.392   2.635  0.0262  0.5512 -0.1037
 3068TIP3    H2 9211   3.840   4.422   2.781  0.4532 -0.6037  0.0694
 3069TIP3   OH2 9212   0.445   0.171   1.311 -0.2378  0.1258  0.3332
 3069TIP3    H1 9213   0.352   0.193   1.318 -0.1520  1.2782 -1.3349
 3069TIP3    H2 9214   0.447   0.075   1.305 -1.4404  0.1435 -0.7686
 3070TIP3   OH2 9215   6.154   1.162   1.246  0.9916  0.0430  0.0201
 3070TIP3    H1 9216   6.074   1.155   1.193  0.3860  1.5511  0.6738
 3070TIP3    H2 9217   6.189   1.073   1.249  3.1440  0.2870 -5.9719
 3071TIP3   OH2 9218   2.660   4.631   1.845  0.7678 -0.3299 -0.3753
 3071TIP3    H1 9219   2.592   4.684   1.803  0.4487 -0.5547 -0.1540
 3071TIP3    H2 9220   2.668   4.669   1.933 -0.5486 -1.5707  0.3217
 3072TIP3   OH2 9221   2.160   2.745   3.930  0.3766 -0.3057  0.0243
 3072TIP3    H1 9222   2.116   2.804   3.991 -1.3869 -1.1243 -0.4001
 3072TIP3    H2 9223   2.243   2.724   3.972 -1.1530 -1.5588  2.6346
 3073TIP3   OH2 9224   1.326   2.090   2.175  0.3892  0.0434  0.3812
 3073TIP3    H1 9225   1.252   2.072   2.116  0.5239 -1.0028  0.5097
 3073TIP3    H2 9226   1.290   2.076   2.262  0.9443 -1.3692  0.4146
 3074TIP3   OH2 9227   4.916   5.019   0.262  0.4047  0.2051 -0.4996
 3074TIP3    H1 9228   4.900   5.096   0.316  1.0046  0.4425 -0.6504
 3074TIP3    H2 9229   4.917   4.946   0.324 -2.1735  0.0032 -0.5698
 3075TIP3   OH2 9230   0.932   1.567   0.283 -0.1777 -0.3400  0.6673
 3075TIP3    H1 9231   0.907   1.590   0.372 -1.2817  1.7214 -0.1016
 3075TIP3    H2 9232   0.850   1.562   0.234  0.5195  1.4710 -0.8252
 3076TIP3   OH2 9233   3.991   1.823   4.432 -0.3341 -0.1600  0.2128
 3076TIP3    H1 9234   3.898   1.832   4.454 -0.2429  3.3588 -0.3068
 3076TIP3    H2 9235   4.034   1.894   4.479  1.6839 -0.0443 -1.6418
 3077TIP3   OH2 9236   0.762   2.999   0.181  0.0029  0.4579  0.3538
 3077TIP3    H1 9237   0.715   3.079   0.156  0.8307  1.0124  0.5142
 3077TIP3    H2 9238   0.853   3.028   0.194  0.1957 -0.3974  1.0021
 3078TIP3   OH2 9239   6.190   0.641   2.915 -0.0189  0.3067 -0.4453
 3078TIP3    H1 9240   6.279   0.647   2.880 -0.3889  2.4036 -1.1871
 3078TIP3    H2 9241   6.201   0.617   3.007  1.2260 -0.7278 -0.8435
 3079TIP3   OH2 9242   0.158   2.120   2.087 -0.0018  0.1104 -0.2524
 3079TIP3    H1 9243   0.231   2.181   2.078  0.5509 -0.5585 -0.3963
 3079TIP3    H2 9244   0.169   2.058   2.015 -1.2206  0.5136 -0.8105
 3080TIP3   OH2 9245   4.758   2.612   3.700  0.0800 -0.3062 -0.4042
 3080TIP3    H1 9246   4.852   2.600   3.689  0.1600  0.6867 -0.9230
 3080TIP3    H2 9247   4.745   2.611   3.795  0.7645  0.5474 -0.2847
 3081TIP3   OH2 9248   2.963   5.440   3.141 -0.6877 -0.1107 -0.4980
 3081TIP3    H1 9249   2.995   5.523   3.176  1.9282 -1.2946  0.1491
 3081TIP3    H2 9250   3.030   5.412   3.080 -0.6657 -2.5200  0.5205
 3082TIP3   OH2 9251   2.230   1.140   1.223 -0.6012 -0.4310 -0.1545
 3082TIP3    H1 9252   2.301   1.195   1.254 -0.6646 -0.3132 -0.2166
 3082TIP3    H2 9253   2.257   1.050   1.244 -0.3584 -0.3997 -0.3337
 3083TIP3   OH2 9254   4.628   5.091   4.404 -0.1261 -0.4534  0.4261
 3083TIP3    H1 9255   4.723   5.084   4.391  0.1647  0.6462  1.6861
 3083TIP3    H2 9256   4.618   5.102   4.498 -1.3482  1.4605  0.1223
 3084TIP3   OH2 9257   0.569   3.167   4.876  0.2588 -0.0620  0.0627
 3084TIP3    H1 9258   0.631   3.191   4.808  0.1035  0.2180  0.0209
 3084TIP3    H2 9259   0.488   3.213   4.854  0.1195 -0.1977  0.2752
 3085TIP3   OH2 9260   2.814   1.362   3.144 -0.2487 -0.1964  0.1975
 3085TIP3    H1 9261   2.803   1.336   3.053 -1.3848  1.1070 -0.0574
 3085TIP3    H2 9262   2.901   1.330   3.167  0.3388  0.0523 -1.5414
 3086TIP3   OH2 9263   4.634   2.412   2.667  0.1757 -0.5073 -0.5439
 3086TIP3    H1 9264   4.614   2.486   2.611  1.4302  0.6170  0.4330
 3086TIP3    H2 9265   4.552   2.394   2.713 -0.2345  0.0380 -1.0497
 3087TIP3   OH2 9266   1.654   1.519   1.271  0.0742  0.1681  0.1331
 3087TIP3    H1 9267   1.706   1.542   1.348  1.7008 -2.2554 -0.1593
 3087TIP3    H2 9268   1.716   1.516   1.199 -0.7881 -0.8952 -0.6119
 3088TIP3   OH2 9269   4.716   5.938   2.910  0.0558  0.5510  0.2644
 3088TIP3    H1 9270   4.644   5.875   2.909  0.8497 -0.3932 -0.6082
 3088TIP3    H2 9271   4.727   5.962   2.818  0.5843  0.9876  0.4420
 3089TIP3   OH2 9272   0.592   0.213   1.553 -0.3266 -0.3869  0.7043
 3089TIP3    H1 9273   0.610   0.119   1.552 -2.0918 -0.7584  0.7130
 3089TIP3    H2 9274   0.539   0.228   1.475 -1.0312  0.3823  1.3124
 3090TIP3   OH2 9275   2.247   4.658   3.411 -0.3728  0.6603  0.3959
 3090TIP3    H1 9276   2.333   4.615   3.412  0.3792  2.0735 -0.3740
 3090TIP3    H2 9277   2.199   4.614   3.340  0.1782  0.6866 -0.0021
 3091TIP3   OH2 9278   2.154   2.354   1.782  0.3026  0.0341 -0.5271
 3091TIP3    H1 9279   2.109   2.336   1.864 -0.5905 -0.2453 -1.0680
 3091TIP3    H2 9280   2.191   2.441   1.793 -0.0669  0.1194  0.0607
 3092TIP3   OH2 9281   4.635   0.181   1.979  0.2464  0.2918  0.4888
 3092TIP3    H1 9282   4.593   0.161   1.895 -1.0366  2.8029  0.3996
 3092TIP3    H2 9283   4.564   0.174   2.042 -0.0971  3.1445  0.5655
 3093TIP3   OH2 9284   1.387   1.656   3.508 -0.0419 -0.1207  0.6978
 3093TIP3    H1 9285   1.327   1.584   3.527 -0.9045  0.3724 -0.0916
 3093TIP3    H2 9286   1.444   1.660   3.585  0.4767 -2.0674  0.4787
 3094TIP3   OH2 9287   1.798   1.928   0.883 -0.0174 -0.0645 -0.0083
 3094TIP3    H1 9288   1.857   1.969   0.947 -2.1297 -0.1378  2.1012
 3094TIP3    H2 9289   1.842   1.846   0.860  1.3604  0.5167  0.4212
 3095TIP3   OH2 9290   5.571   3.410   3.963  0.1309  0.8668 -0.1934
 3095TIP3    H1 9291   5.577   3.490   4.015 -1.4072  0.8907 -0.0258
 3095TIP3    H2 9292   5.477   3.392   3.956  0.4271 -0.6463 -0.6543
 3096TIP3   OH2 9293   3.761   1.506   4.625 -0.6442  0.2541 -0.0938
 3096TIP3    H1 9294   3.737   1.515   4.717 -1.1979 -0.2319 -0.1830
 3096TIP3    H2 9295   3.841   1.453   4.626 -1.0769 -0.4159  0.0803
 3097TIP3   OH2 9296   3.497   5.860   0.653  0.0571 -0.0526  0.3013
 3097TIP3    H1 9297   3.427   5.800   0.627 -0.2967  0.2028  0.6424
 3097TIP3    H2 9298   3.463   5.904   0.731  0.3484  0.5130  0.1217
 3098TIP3   OH2 9299   2.833   4.663   0.780  0.6508 -0.0439  0.6886
 3098TIP3    H1 9300   2.889   4.615   0.841 -0.0639 -0.1922  1.2388
 3098TIP3    H2 9301   2.884   4.741   0.757  0.8461  0.1145  1.6288
 3099TIP3   OH2 9302   2.900   0.545   0.166  0.2372 -0.0899  0.4448
 3099TIP3    H1 9303   2.876   0.637   0.158 -1.2698 -0.4005  0.9732
 3099TIP3    H2 9304   2.988   0.540   0.131 -0.4268  1.1874 -1.5598
 3100TIP3   OH2 9305   5.348   4.127   3.485 -0.0221  0.3558 -0.1342
 3100TIP3    H1 9306   5.255   4.134   3.461 -0.0728 -1.6062 -0.7236
 3100TIP3    H2 9307   5.395   4.145   3.404  0.1825  2.1107  0.3383
 3101TIP3   OH2 9308   1.242   3.419   1.845  0.7098 -0.3094  0.0117
 3101TIP3    H1 9309   1.208   3.476   1.777  0.0290  1.6761  1.9002
 3101TIP3    H2 9310   1.165   3.370   1.876  0.5979  0.2645  0.6696
 3102TIP3   OH2 9311   0.201   0.107   0.681  0.3520 -0.2508  0.0399
 3102TIP3    H1 9312   0.239   0.187   0.719  0.2289 -0.8135  1.3865
 3102TIP3    H2 9313   0.181   0.052   0.756 -1.6806 -0.6337 -0.7286
 3103TIP3   OH2 9314   3.203   1.009   1.821  0.2567 -0.2116  0.0396
 3103TIP3    H1 9315   3.128   0.952   1.804  0.9011 -0.5974 -1.7165
 3103TIP3    H2 9316   3.279   0.957   1.794  1.0519  0.6238  0.6184
 3104TIP3   OH2 9317   4.330   4.140   5.147  0.3019  0.6271 -0.4609
 3104TIP3    H1 9318   4.311   4.112   5.057  1.4063  0.9696 -0.8174
 3104TIP3    H2 9319   4.390   4.074   5.181  0.6861  1.0353 -0.3297
 3105TIP3   OH2 9320   2.775   0.939   4.415 -0.2403  0.1071 -0.3955
 3105TIP3    H1 9321   2.838   0.867   4.414  1.2263  1.2994  0.7823
 3105TIP3    H2 9322   2.819   1.010   4.367 -1.9775  0.0333 -2.2469
 3106TIP3   OH2 9323   1.699   0.513   4.872 -0.4140 -0.1031 -0.0410
 3106TIP3    H1 9324   1.712   0.467   4.789  2.3526  1.1460 -0.3859
 3106TIP3    H2 9325   1.739   0.456   4.937  0.4371  0.4601 -0.0636
 3107TIP3   OH2 9326   1.377   0.780   3.583  0.5263 -0.0119 -0.0544
 3107TIP3    H1 9327   1.412   0.853   3.532  2.2695  0.5380  1.8443
 3107TIP3    H2 9328   1.296   0.814   3.620 -0.0638  0.0230 -1.3045
 3108TIP3   OH2 9329   2.520   4.113   2.785  0.1076  0.8248  0.7151
 3108TIP3    H1 9330   2.553   4.078   2.868  1.1080  0.7395  0.2943
 3108TIP3    H2 9331   2.426   4.121   2.798 -0.2667 -2.3803  0.7052
 3109TIP3   OH2 9332   5.095   5.742   4.820 -0.0508 -0.4669  0.3772
 3109TIP3    H1 9333   5.190   5.742   4.836 -0.2749 -1.6332  1.9924
 3109TIP3    H2 9334   5.083   5.682   4.746  0.4819 -0.1883  0.0591
 3110TIP3   OH2 9335   3.020   3.955   5.082  0.7972 -0.4687 -0.0394
 3110TIP3    H1 9336   3.016   3.866   5.116 -2.3564 -1.1951 -1.9367
 3110TIP3    H2 9337   2.949   4.001   5.127  0.9357  0.4288 -0.7136
 3111TIP3   OH2 9338   3.027   3.201   4.643  0.2990 -0.4025 -0.4466
 3111TIP3    H1 9339   2.982   3.278   4.679 -0.7500 -0.2093 -2.0433
 3111TIP3    H2 9340   3.011   3.132   4.707 -0.7850  0.1245 -0.1168
 3112TIP3   OH2 9341   2.458   3.314   0.369 -0.2386  0.6797 -0.6485
 3112TIP3    H1 9342   2.420   3.276   0.449  0.2585  1.1282 -0.1935
 3112TIP3    H2 9343   2.551   3.326   0.390  0.0448  0.1385 -1.5457
 3113TIP3   OH2 9344   3.472   0.074   3.359 -0.2833 -0.3063 -0.9833
 3113TIP3    H1 9345   3.497   0.166   3.365 -0.5786 -0.0167 -3.2575
 3113TIP3    H2 9346   3.555   0.027   3.354 -0.1400 -0.0910 -0.6501
 3114TIP3   OH2 9347   1.692   2.073   4.124  0.1452 -0.0097 -0.3533
 3114TIP3    H1 9348   1.600   2.051   4.107  0.1324 -0.4844  0.3071
 3114TIP3    H2 9349   1.722   2.115   4.043 -0.6757  0.2250 -0.5456
 3115TIP3   OH2 9350   0.040   4.997   3.213 -0.2427  0.5731  0.5035
 3115TIP3    H1 9351   0.093   5.028   3.140 -2.3795 -0.6344 -1.6987
 3115TIP3    H2 9352   0.087   4.921   3.246  0.0670  0.3047 -0.5300
 3116TIP3   OH2 9353   4.016   1.862   2.874  0.1594 -0.3606 -0.8892
 3116TIP3    H1 9354   4.025   1.951   2.839 -0.3393  0.0228 -0.0682
 3116TIP3    H2 9355   3.922   1.845   2.871  0.2285 -0.7561 -0.7977
 3117TIP3   OH2 9356   5.502   1.612   4.878  0.1561  0.0146  0.2239
 3117TIP3    H1 9357   5.497   1.526   4.837  1.5303 -0.6555  1.3587
 3117TIP3    H2 9358   5.476   1.673   4.809 -0.4411 -1.2658 -0.7273
 3118TIP3   OH2 9359   3.890   5.660   4.454 -0.4312 -0.1004  0.3279
 3118TIP3    H1 9360   3.960   5.611   4.411  0.2300 -0.1750  1.4551
 3118TIP3    H2 9361   3.846   5.596   4.509 -1.8822 -0.2212 -0.9134
 3119TIP3   OH2 9362   2.128   3.913   4.981  0.1151 -0.7568 -0.2225
 3119TIP3    H1 9363   2.095   3.995   5.017 -0.8373 -0.1096 -2.4068
 3119TIP3    H2 9364   2.153   3.861   5.058 -0.4048  1.0757  1.2560
 3120TIP3   OH2 9365   2.886   3.319   4.987 -0.2811  0.0714 -0.2983
 3120TIP3    H1 9366   2.937   3.385   4.941 -0.2503  0.0331 -0.3194
 3120TIP3    H2 9367   2.797   3.353   4.986 -0.4214 -0.3106 -1.0842
 3121TIP3   OH2 9368   0.111   4.560   4.798  0.1362 -0.1076 -0.2354
 3121TIP3    H1 9369   0.102   4.491   4.733 -1.1016 -0.3572  0.1740
 3121TIP3    H2 9370   0.067   4.636   4.759  0.4200  0.0906 -0.1754
 3122TIP3   OH2 9371   1.702   3.208   0.432 -0.5167  0.7218  0.1389
 3122TIP3    H1 9372   1.628   3.195   0.491 -0.7890  2.4812  0.2384
 3122TIP3    H2 9373   1.689   3.143   0.363 -1.4294  0.1486  0.8261
 3123TIP3   OH2 9374   3.787   5.410   3.021 -0.2769  0.3274 -0.3542
 3123TIP3    H1 9375   3.859   5.471   3.038  0.5962 -1.1727  1.9254
 3123TIP3    H2 9376   3.827   5.339   2.971 -0.6383  0.3729 -0.7103
 3124TIP3   OH2 9377   0.810   1.621   1.314  0.7282  0.1131 -0.1080
 3124TIP3    H1 9378   0.841   1.700   1.268 -0.2968 -0.8411 -2.6306
 3124TIP3    H2 9379   0.735   1.651   1.365  2.3801  1.3665  1.7483
 3125TIP3   OH2 9380   3.224   3.744   1.381  0.0008 -0.4580  0.6597
 3125TIP3    H1 9381   3.220   3.655   1.416  0.1391 -0.1452  1.5026
 3125TIP3    H2 9382   3.158   3.746   1.312  1.8140 -1.9840 -1.2227
 3126TIP3   OH2 9383   3.419   4.629   1.000  0.1132 -0.0568  0.4581
 3126TIP3    H1 9384   3.451   4.717   0.981  0.5437 -0.4763 -0.8044
 3126TIP3    H2 9385   3.374   4.638   1.085  0.3004  1.3305  0.4294
 3127TIP3   OH2 9386   2.466   2.441   4.833 -0.1046  0.5239 -0.5067
 3127TIP3    H1 9387   2.557   2.428   4.809  0.2756 -1.6104  1.6599
 3127TIP3    H2 9388   2.421   2.364   4.798 -0.8710  1.0126 -0.6179
 3128TIP3   OH2 9389   5.621   1.110   4.850  0.0951  0.0725 -0.2096
 3128TIP3    H1 9390   5.580   1.191   4.879 -1.8073 -0.8815 -0.0974
 3128TIP3    H2 9391   5.649   1.129   4.760 -0.2708  0.8680 -0.1706
 3129TIP3   OH2 9392   0.040   2.762   1.096  0.0801 -0.6489  0.1660
 3129TIP3    H1 9393   0.086   2.819   1.157 -0.6685 -0.8114  0.8991
 3129TIP3    H2 9394   0.003   2.822   1.031 -0.7656 -0.2730  0.9730
 3130TIP3   OH2 9395   5.555   3.230   2.082  0.2035  0.1028  0.1266
 3130TIP3    H1 9396   5.513   3.163   2.137 -0.7212  1.6252  1.3376
 3130TIP3    H2 9397   5.542   3.312   2.129  2.1642  1.0426 -0.8464
 3131TIP3   OH2 9398   2.369   2.469   2.398 -0.4149 -0.0389 -0.4906
 3131TIP3    H1 9399   2.340   2.403   2.461 -1.0062 -0.9728 -1.6971
 3131TIP3    H2 9400   2.374   2.550   2.449  0.0377 -0.9386  0.9588
 3132TIP3   OH2 9401   0.940   3.107   0.576 -0.7605 -0.2526 -0.0155
 3132TIP3    H1 9402   0.882   3.140   0.508  0.0835  0.5217 -0.3752
 3132TIP3    H2 9403   1.025   3.100   0.534 -0.7197 -2.1254  0.2898
 3133TIP3   OH2 9404   4.801   2.157   0.363  0.3267 -0.5460 -0.0055
 3133TIP3    H1 9405   4.782   2.114   0.280  1.8055  0.2158 -0.7747
 3133TIP3    H2 9406   4.812   2.085   0.425 -0.2170 -1.1466 -0.5921
 3134TIP3   OH2 9407   5.371   2.589   1.878 -0.0982  0.1123  0.0302
 3134TIP3    H1 9408   5.379   2.520   1.945  0.4861 -0.7088 -0.8674
 3134TIP3    H2 9409   5.281   2.620   1.887 -0.8824 -1.8491 -0.5739
 3135TIP3   OH2 9410   0.301   4.684   2.600  0.5097 -0.1880 -0.3580
 3135TIP3    H1 9411   0.205   4.685   2.607  0.3666 -2.0213 -1.2297
 3135TIP3    H2 9412   0.331   4.744   2.668 -1.1952 -1.2072  1.3999
 3136TIP3   OH2 9413   5.120   1.689   3.945 -0.4590  0.3259  0.1136
 3136TIP3    H1 9414   5.106   1.734   3.861 -0.8980 -0.4254 -0.2278
 3136TIP3    H2 9415   5.066   1.737   4.007 -0.8666  0.3225 -0.2307
 3137TIP3   OH2 9416   5.181   5.168   4.852  0.9689  0.3724  0.0788
 3137TIP3    H1 9417   5.152   5.211   4.933  1.7738  0.9599  0.0703
 3137TIP3    H2 9418   5.100   5.140   4.810  0.5211  0.2493  0.9853
 3138TIP3   OH2 9419   6.209   3.601   0.070  0.0975 -0.0475  0.1400
 3138TIP3    H1 9420   6.144   3.564   0.129 -0.7515  0.3866 -0.4783
 3138TIP3    H2 9421   6.157   3.652   0.007  1.0151  0.0384 -0.5779
 3139TIP3   OH2 9422   5.457   2.248   4.219  0.2195 -0.3980 -0.4591
 3139TIP3    H1 9423   5.435   2.235   4.311  0.9874  0.6574 -0.1069
 3139TIP3    H2 9424   5.526   2.183   4.202 -2.3187 -3.1100 -1.3358
 3140TIP3   OH2 9425   1.150   4.390   2.041 -0.6801  0.2366  0.1015
 3140TIP3    H1 9426   1.100   4.466   2.070 -0.2081  0.3301  0.6762
 3140TIP3    H2 9427   1.113   4.317   2.089 -0.2661  0.3065  0.5310
 3141TIP3   OH2 9428   5.561   2.881   4.895 -0.5623 -0.2175  0.2591
 3141TIP3    H1 9429   5.527   2.957   4.941 -0.2237  0.5509 -0.7222
 3141TIP3    H2 9430   5.588   2.821   4.964  2.1427  1.8517  1.1758
 3142TIP3   OH2 9431   0.243   0.374   0.827 -0.3427 -0.2900 -0.1251
 3142TIP3    H1 9432   0.252   0.365   0.922  1.4495 -2.3046 -0.4105
 3142TIP3    H2 9433   0.153   0.404   0.814 -0.9907 -1.0511  2.1695
 3143TIP3   OH2 9434   4.570   1.497   3.816  0.1591  0.3482 -0.1649
 3143TIP3    H1 9435   4.477   1.495   3.836  0.0494  2.3805 -0.3443
 3143TIP3    H2 9436   4.590   1.406   3.791 -1.0351 -0.8648  2.8269
 3144TIP3   OH2 9437   0.481   2.715   2.344 -0.2021  0.6596 -0.8780
 3144TIP3    H1 9438   0.414   2.660   2.385 -0.7157  1.3129 -0.8180
 3144TIP3    H2 9439   0.487   2.682   2.254 -0.7249  0.6955 -0.9293
 3145TIP3   OH2 9440   1.574   0.393   1.833 -0.1560 -0.8389 -0.0842
 3145TIP3    H1 9441   1.619   0.464   1.879  2.5192 -1.3072 -1.7365
 3145TIP3    H2 9442   1.525   0.347   1.900 -1.4273  2.1151  1.1678
 3146TIP3   OH2 9443   0.750   2.114   4.543 -0.0553 -0.3616 -0.1200
 3146TIP3    H1 9444   0.844   2.115   4.525  0.2130  1.7306  1.1215
 3146TIP3    H2 9445   0.734   2.027   4.579  1.5851 -0.4674  0.4408
 3147TIP3   OH2 9446   1.715   4.441   4.445  0.1118 -0.2514 -0.2653
 3147TIP3    H1 9447   1.646   4.470   4.385  0.1375 -0.5312 -0.4285
 3147TIP3    H2 9448   1.720   4.511   4.510  1.0294  0.7258 -1.3487
 3148TIP3   OH2 9449   4.898   3.116   0.991  0.0348  0.1665 -0.4559
 3148TIP3    H1 9450   4.909   3.078   0.904 -2.0643 -2.1945  0.1815
 3148TIP3    H2 9451   4.808   3.147   0.992  0.3718  1.1626  0.5345
 3149TIP3   OH2 9452   1.869   5.491   1.027  0.1941  0.0316 -0.1458
 3149TIP3    H1 9453   1.800   5.548   0.995  0.6243  1.8744  1.9961
 3149TIP3    H2 9454   1.919   5.545   1.088  2.8712 -1.5615 -0.7555
 3150TIP3   OH2 9455   5.530   3.030   2.271  0.4560 -0.7367  0.1675
 3150TIP3    H1 9456   5.442   3.019   2.308 -0.0730 -0.4311 -0.9692
 3150TIP3    H2 9457   5.562   2.940   2.257 -0.1272 -0.8526 -0.4514
 3151TIP3   OH2 9458   5.052   5.241   1.051 -0.0146  0.1583  0.1232
 3151TIP3    H1 9459   5.126   5.181   1.052 -1.1549 -1.3234 -0.4720
 3151TIP3    H2 9460   5.023   5.242   0.960 -1.8336 -0.7566  0.6437
 3152TIP3   OH2 9461   4.784   4.365   0.885  0.1520  0.2867  0.2458
 3152TIP3    H1 9462   4.693   4.336   0.895 -0.0461  0.4198 -1.0250
 3152TIP3    H2 9463   4.806   4.403   0.970 -0.6497 -0.6310  0.8951
 3153TIP3   OH2 9464   0.685   1.431   2.042 -0.0437  0.1017 -0.3700
 3153TIP3    H1 9465   0.772   1.421   2.081 -0.7684 -3.0268  0.7329
 3153TIP3    H2 9466   0.670   1.525   2.041  3.5544  0.8281 -1.1695
 3154TIP3   OH2 9467   2.179   1.447   1.273  0.4254 -0.0115  0.1488
 3154TIP3    H1 9468   2.249   1.502   1.236  0.0828  0.2067 -0.1949
 3154TIP3    H2 9469   2.224   1.374   1.314  0.8629  0.1965  0.0429
 3155TIP3   OH2 9470   3.272   3.705   0.387 -0.4014 -0.5414 -0.7828
 3155TIP3    H1 9471   3.246   3.759   0.313  0.1481  0.0637 -0.5459
 3155TIP3    H2 9472   3.227   3.743   0.462 -0.8967 -1.1072 -0.7832
 3156TIP3   OH2 9473   4.270   4.864   5.076  0.2335  0.3604 -0.0078
 3156TIP3    H1 9474   4.253   4.779   5.035 -0.1935  0.1167  0.6594
 3156TIP3    H2 9475   4.362   4.858   5.103  0.2996  0.2333 -0.2572
 3157TIP3   OH2 9476   2.518   4.960   4.726  0.1993 -0.6895 -0.5234
 3157TIP3    H1 9477   2.608   4.992   4.721  0.2071 -0.7984 -1.1161
 3157TIP3    H2 9478   2.464   5.038   4.716  0.1734 -0.1401  2.6087
 3158TIP3   OH2 9479   1.668   2.023   2.939 -0.3181  0.4912  0.1143
 3158TIP3    H1 9480   1.592   2.080   2.947 -0.0525  1.0216 -0.8734
 3158TIP3    H2 9481   1.673   2.004   2.845  0.7051  0.4046  0.1760
 3159TIP3   OH2 9482   4.457   1.211   4.987  0.6971 -0.5541 -0.6111
 3159TIP3    H1 9483   4.537   1.252   4.955  1.1405 -1.0098 -0.1124
 3159TIP3    H2 9484   4.486   1.155   5.059 -0.2283  0.3095  0.4924
 3160TIP3   OH2 9485   2.128   5.159   1.855 -0.1018  0.0572  0.4702
 3160TIP3    H1 9486   2.213   5.171   1.897  0.8921 -1.8540 -0.8924
 3160TIP3    H2 9487   2.078   5.237   1.880  2.4051  1.7822  0.3796
 3161TIP3   OH2 9488   5.231   4.357   5.163  0.2883 -0.0521  0.1237
 3161TIP3    H1 9489   5.277   4.411   5.227  0.0029 -0.4664  0.6937
 3161TIP3    H2 9490   5.244   4.401   5.080 -0.8197  1.4960  0.7161
 3162TIP3   OH2 9491   1.784   2.157   3.893 -0.4017 -0.4826  0.4368
 3162TIP3    H1 9492   1.846   2.217   3.852 -1.6291  0.9136  0.5284
 3162TIP3    H2 9493   1.726   2.130   3.822  0.4480 -2.0393  0.2844
 3163TIP3   OH2 9494   0.105   0.823   2.220  0.1003  0.2007  0.8190
 3163TIP3    H1 9495   0.031   0.884   2.221 -1.0486 -1.1522  0.5548
 3163TIP3    H2 9496   0.117   0.800   2.128 -0.2857 -0.8991  1.0275
 3164TIP3   OH2 9497   2.491   1.499   2.739  0.4614  0.2877  0.2516
 3164TIP3    H1 9498   2.516   1.472   2.651 -0.9064 -1.0074  0.2139
 3164TIP3    H2 9499   2.501   1.594   2.740 -0.4005  0.4310 -1.6211
 3165TIP3   OH2 9500   6.147   1.864   3.299  0.3713  0.9453 -0.1041
 3165TIP3    H1 9501   6.136   1.783   3.249 -0.0510 -0.3190  1.9152
 3165TIP3    H2 9502   6.157   1.932   3.232  2.1394 -0.9183 -1.8960
 3166TIP3   OH2 9503   2.202   0.108   1.957  0.0514  0.7115 -0.3753
 3166TIP3    H1 9504   2.251   0.166   2.015  0.6883  1.4390 -1.5973
 3166TIP3    H2 9505   2.203   0.153   1.872 -1.0499 -0.2096 -0.8961
 3167TIP3   OH2 9506   3.533   5.096   3.276  0.0428 -0.5679 -0.0787
 3167TIP3    H1 9507   3.530   5.160   3.348 -0.1693  0.1990 -0.7595
 3167TIP3    H2 9508   3.534   5.011   3.320  1.4663 -0.0964  0.8733
 3168TIP3   OH2 9509   4.881   5.280   3.112 -0.0039  0.7224 -0.4498
 3168TIP3    H1 9510   4.834   5.318   3.038  0.1600 -0.5117 -1.2209
 3168TIP3    H2 9511   4.863   5.339   3.185 -1.9405  0.8202 -0.9534
 3169TIP3   OH2 9512   4.184   4.169   3.074  0.5554  0.1571 -0.0697
 3169TIP3    H1 9513   4.182   4.154   2.979  0.4000 -0.4557  0.0245
 3169TIP3    H2 9514   4.231   4.093   3.109 -0.9776 -0.5688  0.5055
 3170TIP3   OH2 9515   4.914   2.190   3.706  0.0590  0.3004  0.4313
 3170TIP3    H1 9516   4.890   2.118   3.765 -0.4258 -0.3794 -0.5529
 3170TIP3    H2 9517   4.830   2.229   3.681  0.3296  1.3106  1.0620
 3171TIP3   OH2 9518   4.365   1.852   0.875 -0.0649 -0.1355  0.0558
 3171TIP3    H1 9519   4.460   1.849   0.884 -0.1826  0.3331  1.7459
 3171TIP3    H2 9520   4.332   1.823   0.960 -1.4131  1.6943  0.2159
 3172TIP3   OH2 9521   2.435   0.703   1.553  0.3628 -0.2922 -0.1947
 3172TIP3    H1 9522   2.365   0.768   1.548  1.8033  1.2342 -1.4687
 3172TIP3    H2 9523   2.440   0.666   1.465  1.6009  0.1038 -0.2980
 3173TIP3   OH2 9524   1.036   1.546   0.763 -0.3828  0.1618 -0.1354
 3173TIP3    H1 9525   0.954   1.588   0.789 -0.6632 -1.1589  1.2858
 3173TIP3    H2 9526   1.012   1.489   0.690 -0.1010  1.9787 -1.7171
 3174TIP3   OH2 9527   5.540   1.859   2.913 -0.0586 -0.2386  0.3396
 3174TIP3    H1 9528   5.569   1.795   2.978  1.0433 -0.6282 -0.5158
 3174TIP3    H2 9529   5.620   1.886   2.868 -0.8294 -0.2515 -1.1036
 3175TIP3   OH2 9530   1.791   4.379   1.493  0.0101  0.0080  0.4985
 3175TIP3    H1 9531   1.886   4.372   1.507 -0.0663  1.4481  2.0865
 3175TIP3    H2 9532   1.773   4.473   1.498 -1.6281 -0.3095  1.3353
 3176TIP3   OH2 9533   1.825   0.370   2.611 -0.2285  0.1040  0.7414
 3176TIP3    H1 9534   1.765   0.348   2.683 -1.7886  0.8073 -0.2810
 3176TIP3    H2 9535   1.863   0.454   2.638 -0.9457  0.4572  0.6889
 3177TIP3   OH2 9536   4.018   4.860   1.051  0.0179  0.7804  0.2607
 3177TIP3    H1 9537   4.064   4.905   0.980 -0.2498  0.8735  0.1489
 3177TIP3    H2 9538   4.027   4.767   1.029  1.1835  0.7299  0.8604
 3178TIP3   OH2 9539   6.321   1.327   4.304  0.4124  0.6913 -0.2799
 3178TIP3    H1 9540   6.409   1.292   4.321 -1.0562 -1.8543  3.4922
 3178TIP3    H2 9541   6.305   1.387   4.377 -1.1213  0.7366 -0.6257
 3179TIP3   OH2 9542   3.117   5.440   3.834 -0.3876  0.4952 -0.7347
 3179TIP3    H1 9543   3.107   5.527   3.872 -0.2593 -0.3435  1.3588
 3179TIP3    H2 9544   3.057   5.439   3.759 -2.3811  1.5258  0.7504
 3180TIP3   OH2 9545   1.505   3.970   4.672  0.0486  0.5197  0.4960
 3180TIP3    H1 9546   1.544   3.884   4.663  2.9748  1.8362 -0.4163
 3180TIP3    H2 9547   1.471   3.972   4.762  0.2173 -1.4225  0.6377
 3181TIP3   OH2 9548   4.045   1.815   3.305  0.3689  0.2241 -0.8693
 3181TIP3    H1 9549   4.126   1.780   3.343 -1.1646 -1.1292  1.3859
 3181TIP3    H2 9550   4.015   1.880   3.368 -2.5523 -2.4790  0.8072
 3182TIP3   OH2 9551   3.471   2.099   0.352 -0.7973 -0.0554  0.1593
 3182TIP3    H1 9552   3.415   2.176   0.341  0.1170  1.0924  2.7260
 3182TIP3    H2 9553   3.470   2.081   0.446  1.2706 -1.4307  0.0065
 3183TIP3   OH2 9554   2.611   1.339   1.512 -0.2024  0.2320  0.1578
 3183TIP3    H1 9555   2.550   1.337   1.438  0.7103 -0.6072 -0.5853
 3183TIP3    H2 9556   2.695   1.364   1.473  0.7726 -2.2594  0.5234
 3184TIP3   OH2 9557   2.440   4.051   0.132 -0.2519 -0.5484  0.1073
 3184TIP3    H1 9558   2.461   3.995   0.057 -2.2231 -1.7288  0.3642
 3184TIP3    H2 9559   2.443   3.992   0.207  3.2270  0.9209  1.3061
 3185TIP3   OH2 9560   4.913   2.980   0.685  0.0154  0.0567  0.1594
 3185TIP3    H1 9561   4.978   2.919   0.719  1.4484  1.9069  0.9161
 3185TIP3    H2 9562   4.912   2.963   0.591  2.3338  0.5720 -0.0321
 3186TIP3   OH2 9563   5.984   2.234   1.501  0.4559  0.3072 -0.2191
 3186TIP3    H1 9564   5.956   2.157   1.452  1.2475  0.2844 -0.6632
 3186TIP3    H2 9565   5.994   2.203   1.591 -2.6438  0.7458  0.3591
 3187TIP3   OH2 9566   3.309   4.316   1.713  0.0809  0.5688 -0.1526
 3187TIP3    H1 9567   3.324   4.411   1.714  0.4889  0.5054 -0.2766
 3187TIP3    H2 9568   3.368   4.282   1.780 -0.7865  0.5046  0.5993
 3188TIP3   OH2 9569   6.194   2.607   2.862 -0.2114  0.1826  0.6442
 3188TIP3    H1 9570   6.131   2.551   2.908  0.7784 -1.7263 -0.1955
 3188TIP3    H2 9571   6.144   2.647   2.791 -0.7929 -0.2269  0.8166
 3189TIP3   OH2 9572   5.854   1.661   4.397  0.0966 -0.1838  0.7644
 3189TIP3    H1 9573   5.852   1.600   4.322 -0.8939  1.5918 -0.7280
 3189TIP3    H2 9574   5.909   1.616   4.462  0.3528 -2.1522 -0.6930
 3190TIP3   OH2 9575   4.306   0.907   4.282 -0.4591  0.5856  0.0550
 3190TIP3    H1 9576   4.275   0.932   4.369  1.0096 -1.8945  1.4208
 3190TIP3    H2 9577   4.341   0.818   4.294  1.7930  0.9896 -2.5793
 3191TIP3   OH2 9578   4.738   0.917   0.879 -0.0057 -0.1148 -0.3127
 3191TIP3    H1 9579   4.651   0.877   0.884  1.0302 -2.8489 -1.6309
 3191TIP3    H2 9580   4.722   1.011   0.874 -2.8829 -0.5467 -0.8391
 3192TIP3   OH2 9581   4.803   2.087   3.976  0.0150  0.0882  0.4810
 3192TIP3    H1 9582   4.754   2.062   4.055  0.7017  0.0553  0.9066
 3192TIP3    H2 9583   4.841   2.005   3.945  0.1810  0.1881  0.4206
 3193TIP3   OH2 9584   1.803   3.090   3.153 -0.2038 -0.2838 -0.2219
 3193TIP3    H1 9585   1.898   3.105   3.159 -0.1782  0.0173 -1.2460
 3193TIP3    H2 9586   1.764   3.175   3.174 -0.2975 -0.6782  1.3009
 3194TIP3   OH2 9587   3.459   3.893   0.118 -0.3413 -0.5141  0.0819
 3194TIP3    H1 9588   3.473   3.799   0.129 -0.1473 -0.4259  0.6066
 3194TIP3    H2 9589   3.470   3.908   0.024  0.5768 -0.8664  0.1231
 3195TIP3   OH2 9590   1.107   3.744   3.324  0.0637 -0.3317  0.4890
 3195TIP3    H1 9591   1.026   3.759   3.275  0.7815 -0.7016 -0.8734
 3195TIP3    H2 9592   1.141   3.832   3.341  0.0828 -0.2126 -0.1569
 3196TIP3   OH2 9593   1.568   3.852   1.578 -0.0218 -0.2201  0.1690
 3196TIP3    H1 9594   1.623   3.805   1.516  0.2797  0.2542  0.0721
 3196TIP3    H2 9595   1.617   3.852   1.660 -0.6824 -1.3607  0.5773
 3197TIP3   OH2 9596   0.738   0.446   4.052 -0.4793 -0.3578 -0.2451
 3197TIP3    H1 9597   0.676   0.387   4.007  0.2254 -0.8945 -0.5341
 3197TIP3    H2 9598   0.697   0.532   4.046 -1.2290 -0.7105 -0.3835
 3198TIP3   OH2 9599   3.602   1.471   4.022 -0.2554  0.4938 -0.3192
 3198TIP3    H1 9600   3.643   1.557   4.027 -0.0469  0.5794 -2.4257
 3198TIP3    H2 9601   3.669   1.411   4.055  0.9706  0.8122 -2.1064
 3199TIP3   OH2 9602   0.620   0.546   4.424 -0.1140 -0.6258  0.1558
 3199TIP3    H1 9603   0.570   0.608   4.372  2.0777 -0.2112 -1.5803
 3199TIP3    H2 9604   0.656   0.599   4.495  0.2033 -0.3146 -0.2347
 3200TIP3   OH2 9605   0.644   5.692   2.049 -0.2342 -0.0130 -0.1746
 3200TIP3    H1 9606   0.646   5.597   2.056  1.5028  0.0390  0.5189
 3200TIP3    H2 9607   0.595   5.721   2.125 -1.8347 -0.3642 -1.0238
 3201TIP3   OH2 9608   4.994   5.027   1.325 -0.6388 -0.5727 -0.3932
 3201TIP3    H1 9609   4.950   5.043   1.408 -1.2275  1.0609 -0.9836
 3201TIP3    H2 9610   4.985   5.109   1.277  2.3595 -0.4202 -0.8783
 3202TIP3   OH2 9611   5.882   3.806   0.486  1.1895 -0.6123 -0.2742
 3202TIP3    H1 9612   5.965   3.854   0.483 -0.2406  2.0310 -1.1378
 3202TIP3    H2 9613   5.844   3.829   0.571  1.4879 -2.1415  0.2959
 3203TIP3   OH2 9614   1.837   2.291   1.722  0.9278  0.1698  0.2880
 3203TIP3    H1 9615   1.914   2.301   1.778  1.5937  1.2611 -0.7679
 3203TIP3    H2 9616   1.870   2.305   1.633 -0.3388 -0.2113 -0.2662
 3204TIP3   OH2 9617   3.918   1.471   3.450  0.5707 -1.0301 -0.2173
 3204TIP3    H1 9618   3.908   1.516   3.366  0.0378  1.1905  0.9773
 3204TIP3    H2 9619   4.002   1.502   3.483  0.2638 -1.0369  0.5695
 3205TIP3   OH2 9620   2.706   4.394   4.462  0.5553 -0.1013 -0.0254
 3205TIP3    H1 9621   2.655   4.357   4.390  1.8789 -2.2938  0.0695
 3205TIP3    H2 9622   2.677   4.485   4.468 -1.0234 -0.4088 -2.0038
 3206TIP3   OH2 9623   1.986   4.050   3.880  0.2028  0.2844  0.3694
 3206TIP3    H1 9624   2.034   3.977   3.841 -1.0845 -0.7914  0.7530
 3206TIP3    H2 9625   1.903   4.051   3.833 -0.8685 -0.2184  2.1964
 3207TIP3   OH2 9626   4.320   3.500   0.802 -0.2921 -0.2885  0.2303
 3207TIP3    H1 9627   4.239   3.450   0.809 -0.9700  0.1501 -2.7528
 3207TIP3    H2 9628   4.375   3.448   0.743 -0.4783  1.6550 -1.8290
 3208TIP3   OH2 9629   4.466   3.770   0.949  0.0026 -0.3214  0.2370
 3208TIP3    H1 9630   4.422   3.687   0.969  1.1647 -1.2189 -0.7812
 3208TIP3    H2 9631   4.513   3.753   0.867  0.5843  1.2299  0.2156
 3209TIP3   OH2 9632   1.021   3.099   0.128 -0.8380 -0.1806  0.1057
 3209TIP3    H1 9633   1.090   3.156   0.162 -0.9725  1.0764 -1.5806
 3209TIP3    H2 9634   1.064   3.015   0.111  0.3095  0.5890 -0.9349
 3210TIP3   OH2 9635   1.901   3.298   2.208 -0.4927  0.2877  0.1724
 3210TIP3    H1 9636   1.914   3.349   2.288 -1.4974 -1.8507  1.8090
 3210TIP3    H2 9637   1.843   3.352   2.154 -1.7776  0.7972  1.9631
 3211TIP3   OH2 9638   2.393   1.789   3.776 -0.5176 -0.6618 -0.4834
 3211TIP3    H1 9639   2.482   1.786   3.810 -0.8255 -0.4705  0.3584
 3211TIP3    H2 9640   2.362   1.877   3.799 -1.2609 -1.0707  0.1080
 3212TIP3   OH2 9641   2.259   3.894   3.751  1.1013 -0.3375 -0.3835
 3212TIP3    H1 9642   2.211   3.838   3.691 -0.3865  2.1162 -1.6507
 3212TIP3    H2 9643   2.227   3.871   3.838 -1.2197  0.1094 -1.0703
 3213TIP3   OH2 9644   4.177   0.181   3.880 -0.1076  0.1289 -0.6225
 3213TIP3    H1 9645   4.084   0.181   3.859 -0.6250  0.7129  1.4645
 3213TIP3    H2 9646   4.188   0.112   3.945  1.2896 -1.1710 -2.1562
 3214TIP3   OH2 9647   0.045   1.125   5.064  0.0784 -1.2648 -0.0955
 3214TIP3    H1 9648   0.015   1.072   4.990 -2.8861 -0.9207  0.7151
 3214TIP3    H2 9649   0.038   1.066   5.140  1.1889 -1.0434  0.1838
 3215TIP3   OH2 9650   4.354   5.286   2.007 -0.2958 -0.3371 -0.1794
 3215TIP3    H1 9651   4.293   5.315   2.075  0.4160  0.0835  0.2909
 3215TIP3    H2 9652   4.353   5.191   2.014 -2.4695 -0.4852 -1.5735
 3216TIP3   OH2 9653   4.278   3.815   3.990 -0.0376 -0.4102 -0.1629
 3216TIP3    H1 9654   4.239   3.871   4.058 -0.6533 -1.7658  0.6529
 3216TIP3    H2 9655   4.276   3.869   3.911 -1.7283  0.3043  0.3131
 3217TIP3   OH2 9656   0.574   2.135   0.320 -0.1891 -0.4146  0.2603
 3217TIP3    H1 9657   0.546   2.161   0.408 -0.7161 -1.7656  0.5207
 3217TIP3    H2 9658   0.635   2.062   0.335  2.8256  1.7801 -0.3338
 3218TIP3   OH2 9659   5.464   1.810   1.976  0.4207  0.1597  0.1436
 3218TIP3    H1 9660   5.416   1.883   2.015 -0.5109  0.2537 -1.1344
 3218TIP3    H2 9661   5.434   1.733   2.024 -1.6045  0.1183 -1.0842
 3219TIP3   OH2 9662   4.814   4.473   2.710 -0.2901  0.1011  0.0534
 3219TIP3    H1 9663   4.839   4.557   2.672 -1.8152  0.2304 -0.7355
 3219TIP3    H2 9664   4.718   4.476   2.714 -0.2876 -0.9783  1.4904
 3220TIP3   OH2 9665   6.287   4.087   3.118  0.2126  0.0530  0.0947
 3220TIP3    H1 9666   6.336   4.025   3.172  0.3456  0.6452  0.6663
 3220TIP3    H2 9667   6.199   4.084   3.154  0.5706  1.3310  1.1571
 3221TIP3   OH2 9668   3.356   2.417   0.393  0.2410  0.3444 -0.2182
 3221TIP3    H1 9669   3.358   2.512   0.398  0.5347  0.3339 -0.0768
 3221TIP3    H2 9670   3.410   2.388   0.467 -2.5560  0.0063  1.8704
 3222TIP3   OH2 9671   5.728   0.252   4.234  0.6827 -0.1903  0.7274
 3222TIP3    H1 9672   5.635   0.229   4.223  1.2277 -1.2870 -2.8710
 3222TIP3    H2 9673   5.758   0.196   4.305 -1.2501 -0.2034  1.6075
 3223TIP3   OH2 9674   6.118   1.313   0.287  0.0767  0.3821 -0.4237
 3223TIP3    H1 9675   6.173   1.348   0.217  1.3391 -1.3356 -0.3547
 3223TIP3    H2 9676   6.113   1.219   0.268  0.1528 -0.0679  1.5947
 3224TIP3   OH2 9677   1.635   2.675   1.126 -0.4944 -0.3954 -0.3936
 3224TIP3    H1 9678   1.618   2.675   1.220  1.3548 -0.4653 -0.0241
 3224TIP3    H2 9679   1.555   2.638   1.088 -1.1689 -0.6363  1.1582
 3225TIP3   OH2 9680   3.705   0.114   0.648 -1.0121  0.3214 -0.2954
 3225TIP3    H1 9681   3.683   0.023   0.628  0.7416  0.1977 -2.0330
 3225TIP3    H2 9682   3.637   0.165   0.604 -0.0500 -0.1196 -2.4258
 3226TIP3   OH2 9683   3.148   4.302   4.313 -0.2218  0.0853 -0.1923
 3226TIP3    H1 9684   3.208   4.230   4.335  0.6721  0.6958 -0.5651
 3226TIP3    H2 9685   3.086   4.263   4.252 -0.6039 -0.7253  0.6825
 3227TIP3   OH2 9686   4.622   4.326   3.709 -0.2171 -0.4883  0.0841
 3227TIP3    H1 9687   4.597   4.418   3.719 -0.2636 -0.2779 -1.7619
 3227TIP3    H2 9688   4.717   4.326   3.711 -0.2053 -0.6955  2.1325
 3228TIP3   OH2 9689   0.089   5.433   5.007  0.1538  0.3020  0.4855
 3228TIP3    H1 9690   0.165   5.441   4.949  0.7224  0.9883  1.3007
 3228TIP3    H2 9691   0.125   5.442   5.095 -0.8432  0.4071  0.8947
 3229TIP3   OH2 9692   4.318   0.774   2.407  0.4567 -0.4832  0.1393
 3229TIP3    H1 9693   4.261   0.698   2.414 -0.0733 -0.0545  0.5182
 3229TIP3    H2 9694   4.380   0.751   2.338  0.7554 -1.5459  0.7411
 3230TIP3   OH2 9695   6.055   4.789   4.605 -0.9977  0.1478 -0.4475
 3230TIP3    H1 9696   6.061   4.823   4.516 -3.0719  0.9317 -0.3453
 3230TIP3    H2 9697   5.984   4.839   4.645 -0.7621 -0.8650  1.3414
 3231TIP3   OH2 9698   2.093   4.755   0.029  0.6155  0.1263 -0.0831
 3231TIP3    H1 9699   2.086   4.848   0.051  0.2195  0.1545 -0.3313
 3231TIP3    H2 9700   2.162   4.722   0.087 -0.0927  0.3042  0.8832
 3232TIP3   OH2 9701   3.997   3.022   0.741 -0.7463  0.1667  0.6968
 3232TIP3    H1 9702   3.993   2.930   0.769  0.8199 -0.3225 -0.5499
 3232TIP3    H2 9703   3.977   3.020   0.648 -1.1240  1.1756  0.7369
 3233TIP3   OH2 9704   6.153   0.614   0.149  0.3869 -0.0789  0.0676
 3233TIP3    H1 9705   6.159   0.548   0.081  3.0458 -0.1409  0.2740
 3233TIP3    H2 9706   6.142   0.564   0.230 -2.1469 -0.0246 -0.1657
 3234TIP3   OH2 9707   3.258   3.538   4.155 -0.8465 -0.3750  0.8847
 3234TIP3    H1 9708   3.309   3.571   4.081 -2.0920  0.2318  0.2555
 3234TIP3    H2 9709   3.320   3.534   4.227 -0.1297  1.2582  0.3997
 3235TIP3   OH2 9710   5.680   4.595   3.739  0.3555  0.2139  0.4107
 3235TIP3    H1 9711   5.682   4.500   3.755  3.1032 -0.0333 -0.8581
 3235TIP3    H2 9712   5.715   4.633   3.819 -0.4053  0.1730  0.7787
 3236TIP3   OH2 9713   1.676   2.784   0.145  0.2302  0.3911  0.2612
 3236TIP3    H1 9714   1.684   2.869   0.187  0.5355  1.0707 -1.1506
 3236TIP3    H2 9715   1.720   2.724   0.205  1.7702  1.5373  0.3436
 3237TIP3   OH2 9716   3.132   3.253   3.072 -0.2762  0.1043 -0.0137
 3237TIP3    H1 9717   3.103   3.329   3.021  0.4495  0.9851  0.8464
 3237TIP3    H2 9718   3.052   3.219   3.112 -0.6238  0.3442 -0.4896
 3238TIP3   OH2 9719   1.696   5.781   4.018 -0.5199  0.2315 -0.0714
 3238TIP3    H1 9720   1.639   5.835   3.964 -0.0541  0.2386 -0.5576
 3238TIP3    H2 9721   1.691   5.694   3.979 -0.5264  0.1370  0.1395
 3239TIP3   OH2 9722   3.794   2.020   0.639  0.0701  0.8946  0.2109
 3239TIP3    H1 9723   3.759   2.024   0.550  0.0324 -0.0914  0.1612
 3239TIP3    H2 9724   3.747   2.088   0.688 -3.3108 -1.4685  0.6134
 3240TIP3   OH2 9725   3.893   0.683   2.789  0.1138  0.1504  0.3579
 3240TIP3    H1 9726   3.949   0.674   2.711  0.3380  0.7038  0.4448
 3240TIP3    H2 9727   3.804   0.681   2.754  0.2121  0.3958  0.0753
 3241TIP3   OH2 9728   2.288   0.186   0.739  0.6194 -0.1984  0.4732
 3241TIP3    H1 9729   2.204   0.211   0.701  1.0741  0.5017 -0.0860
 3241TIP3    H2 9730   2.351   0.249   0.704  1.0285  0.6439  2.5492
 3242TIP3   OH2 9731   3.184   0.472   2.602  0.2361 -0.1209  0.5526
 3242TIP3    H1 9732   3.206   0.530   2.675  2.2243  0.2988 -0.3170
 3242TIP3    H2 9733   3.233   0.506   2.528 -2.5171  0.0834 -1.3231
 3243TIP3   OH2 9734   2.808   0.766   3.179  0.9475 -0.7065  0.0022
 3243TIP3    H1 9735   2.833   0.726   3.263 -1.3204 -1.2438  0.4909
 3243TIP3    H2 9736   2.713   0.758   3.176  0.8862  0.1277 -2.2423
 3244TIP3   OH2 9737   1.588   2.384   2.883 -0.3512 -0.1901  0.1262
 3244TIP3    H1 9738   1.525   2.348   2.946 -1.0313  2.3191  1.0090
 3244TIP3    H2 9739   1.547   2.466   2.853  0.3211 -0.8848 -3.0291
 3245TIP3   OH2 9740   1.275   4.803   3.095 -0.2217 -0.1913  0.2835
 3245TIP3    H1 9741   1.344   4.796   3.029 -0.7390 -1.9037 -0.1253
 3245TIP3    H2 9742   1.311   4.757   3.172 -0.1802  0.5575  0.7208
 3246TIP3   OH2 9743   1.627   3.229   2.917 -0.0807 -0.7542  0.0667
 3246TIP3    H1 9744   1.721   3.215   2.922  0.0916 -0.2638 -1.4174
 3246TIP3    H2 9745   1.601   3.248   3.008  1.1926 -1.1419  0.5361
 3247TIP3   OH2 9746   2.745   2.835   2.076  0.0028 -0.6871 -0.6513
 3247TIP3    H1 9747   2.737   2.828   1.981  0.4380 -0.9657 -0.6645
 3247TIP3    H2 9748   2.654   2.833   2.108 -0.1375 -0.6781 -1.0502
 3248TIP3   OH2 9749   3.734   5.783   2.015  0.1430  0.4875 -0.2389
 3248TIP3    H1 9750   3.688   5.699   2.019 -1.1914  1.2373  0.6717
 3248TIP3    H2 9751   3.666   5.849   2.030  0.9238  1.8352 -2.3273
 3249TIP3   OH2 9752   5.987   4.403   3.487  0.3116  0.6970 -0.4944
 3249TIP3    H1 9753   6.039   4.483   3.474  0.6558  0.4558 -0.5993
 3249TIP3    H2 9754   5.897   4.434   3.488  0.4649  1.1502 -0.0911
 3250TIP3   OH2 9755   5.172   4.099   2.860 -0.5638 -0.2100  0.0189
 3250TIP3    H1 9756   5.207   4.130   2.776  0.4842 -1.6528 -0.1148
 3250TIP3    H2 9757   5.099   4.042   2.836  0.3423 -1.3957  0.0089
 3251TIP3   OH2 9758   2.548   5.953   3.751  0.1775 -0.1330  0.0287
 3251TIP3    H1 9759   2.618   6.007   3.714 -0.6264 -0.5210 -2.2066
 3251TIP3    H2 9760   2.594   5.891   3.808  1.1559  2.5286  2.3521
 3252TIP3   OH2 9761   5.484   3.777   4.567  0.3937  0.6747 -0.0588
 3252TIP3    H1 9762   5.535   3.858   4.574  0.3473  0.7143 -0.1672
 3252TIP3    H2 9763   5.549   3.709   4.551  0.2724  1.0700 -2.8418
 3253TIP3   OH2 9764   1.040   0.400   2.644  0.3665 -0.2921  0.4919
 3253TIP3    H1 9765   1.097   0.345   2.590 -0.2795 -2.1699  1.6177
 3253TIP3    H2 9766   0.971   0.341   2.673 -1.7898  1.7360 -0.2125
 3254TIP3   OH2 9767   4.842   0.267   1.404  0.2978  0.1194 -1.1447
 3254TIP3    H1 9768   4.758   0.269   1.359  0.4888  1.7383 -1.4853
 3254TIP3    H2 9769   4.907   0.251   1.335  0.3832  0.2630 -1.0996
 3255TIP3   OH2 9770   1.630   3.778   0.207 -0.1446  0.3665 -0.3940
 3255TIP3    H1 9771   1.582   3.794   0.288  1.1661 -2.2053  1.0145
 3255TIP3    H2 9772   1.708   3.833   0.214 -0.4814  0.8386 -0.3461
 3256TIP3   OH2 9773   2.221   0.851   1.481  0.3631  0.1501 -0.0165
 3256TIP3    H1 9774   2.127   0.839   1.491  0.5404 -0.2153  1.4404
 3256TIP3    H2 9775   2.237   0.835   1.389 -0.9849  0.0895 -0.2651
 3257TIP3   OH2 9776   0.855   0.508   2.103  0.3919  0.0824 -0.3730
 3257TIP3    H1 9777   0.880   0.438   2.041  1.1457  1.0682 -1.2273
 3257TIP3    H2 9778   0.878   0.473   2.189  0.5878 -0.7919 -0.7682
 3258TIP3   OH2 9779   1.111   5.467   4.430  0.4659  0.0515 -0.2982
 3258TIP3    H1 9780   1.127   5.538   4.367 -0.2114  1.8446  1.4192
 3258TIP3    H2 9781   1.018   5.446   4.418  0.9435 -1.4526 -1.6299
 3259TIP3   OH2 9782   5.160   3.107   0.103 -0.4017 -0.4819 -0.0031
 3259TIP3    H1 9783   5.069   3.088   0.080 -1.0147  1.0478  1.0440
 3259TIP3    H2 9784   5.184   3.180   0.046 -0.2874  0.0230  0.6858
 3260TIP3   OH2 9785   1.453   5.512   2.957 -0.0852  0.0740  0.1741
 3260TIP3    H1 9786   1.389   5.513   2.886 -2.4078 -1.9980  2.0311
 3260TIP3    H2 9787   1.443   5.598   2.999 -0.8907  0.1954 -0.2327
 3261TIP3   OH2 9788   0.916   2.242   3.822  0.7759 -1.0235  0.1660
 3261TIP3    H1 9789   0.826   2.215   3.806  0.3741  0.2328  0.1957
 3261TIP3    H2 9790   0.950   2.178   3.885 -0.9013 -0.1145  2.0994
 3262TIP3   OH2 9791   1.590   4.596   1.125  0.2598  0.6592  0.0408
 3262TIP3    H1 9792   1.670   4.597   1.178 -0.8434  1.3440  1.7720
 3262TIP3    H2 9793   1.520   4.611   1.188 -1.0350  2.8551 -1.8080
 3263TIP3   OH2 9794   1.967   0.990   3.934 -0.1871 -0.0628 -0.0083
 3263TIP3    H1 9795   1.910   0.998   3.857 -0.7724 -2.1364  0.1666
 3263TIP3    H2 9796   2.036   0.930   3.907  0.0205 -0.2214  0.8621
 3264TIP3   OH2 9797   0.694   1.996   3.996  0.1186  0.5467 -0.1572
 3264TIP3    H1 9798   0.768   2.042   4.036  0.9981 -1.1611  0.2742
 3264TIP3    H2 9799   0.721   1.981   3.905 -0.4575  1.4358 -0.4944
 3265TIP3   OH2 9800   2.674   4.028   2.390 -0.4506  0.2121  0.3460
 3265TIP3    H1 9801   2.740   4.073   2.338 -0.8223  0.2130 -0.1227
 3265TIP3    H2 9802   2.599   4.017   2.332 -0.1157 -1.6561  0.1967
 3266TIP3   OH2 9803   3.161   5.377   3.329 -0.1287 -0.2285  0.5258
 3266TIP3    H1 9804   3.166   5.424   3.246  1.1243 -1.2538 -0.0026
 3266TIP3    H2 9805   3.249   5.382   3.365 -0.0195 -1.9425  0.5725
 3267TIP3   OH2 9806   0.403   4.052   2.124 -0.3134  0.0163 -0.0794
 3267TIP3    H1 9807   0.351   3.999   2.184 -1.0322  1.2319  0.4092
 3267TIP3    H2 9808   0.415   4.135   2.170  3.7697 -0.8172  0.6816
 3268TIP3   OH2 9809   2.644   0.446   1.308 -0.2750  0.4315 -0.2866
 3268TIP3    H1 9810   2.586   0.436   1.383 -2.5342 -0.4446 -2.0016
 3268TIP3    H2 9811   2.590   0.490   1.242  0.5770 -1.4417 -2.3819
 3269TIP3   OH2 9812   6.104   4.049   4.567  0.1708  0.1207 -0.1875
 3269TIP3    H1 9813   6.078   3.957   4.578  2.3279 -0.3968  1.0863
 3269TIP3    H2 9814   6.025   4.092   4.534 -1.5264 -1.7821  1.1472
 3270TIP3   OH2 9815   5.586   0.911   1.110  0.0196 -0.0353  0.1681
 3270TIP3    H1 9816   5.525   0.891   1.181  0.9012 -1.5201  0.5383
 3270TIP3    H2 9817   5.613   1.002   1.126 -2.0602  0.6628 -0.0094
 3271TIP3   OH2 9818   2.977   2.376   1.431  0.5014 -0.2323  0.2582
 3271TIP3    H1 9819   2.943   2.457   1.394 -0.8147 -1.0491 -0.3981
 3271TIP3    H2 9820   2.912   2.350   1.495 -0.0236 -1.6708 -0.8024
 3272TIP3   OH2 9821   3.054   4.892   3.170  0.5793 -0.0701 -0.5447
 3272TIP3    H1 9822   3.080   4.984   3.180  1.6542 -0.5391  1.6848
 3272TIP3    H2 9823   3.104   4.846   3.238 -1.9447 -1.8845  0.2369
 3273TIP3   OH2 9824   1.743   5.757   0.053 -0.1271 -0.3016 -0.2024
 3273TIP3    H1 9825   1.742   5.662   0.059 -2.5012 -0.2579  1.0040
 3273TIP3    H2 9826   1.734   5.787   0.143 -1.2345  1.0314 -0.7250
 3274TIP3   OH2 9827   0.607   4.369   2.484  0.0729  0.2946  0.3513
 3274TIP3    H1 9828   0.599   4.457   2.520  1.2141  1.4327 -1.9544
 3274TIP3    H2 9829   0.526   4.355   2.435 -0.6859 -0.5163  1.7858
 3275TIP3   OH2 9830   5.633   5.588   1.648  0.1057 -0.4065 -0.1310
 3275TIP3    H1 9831   5.673   5.568   1.563 -0.0832  0.1215 -0.3482
 3275TIP3    H2 9832   5.572   5.515   1.663 -1.1452  0.3658 -1.2805
 3276TIP3   OH2 9833   0.557   2.654   3.033  0.4653 -0.4642  0.6307
 3276TIP3    H1 9834   0.624   2.678   2.969  1.5240  1.4371  2.3378
 3276TIP3    H2 9835   0.527   2.738   3.069 -1.3943 -1.3773  1.3754
 3277TIP3   OH2 9836   0.123   5.917   0.602  0.2950  0.6798 -0.0785
 3277TIP3    H1 9837   0.098   5.848   0.663 -0.4049  0.2640 -0.8144
 3277TIP3    H2 9838   0.169   5.982   0.656 -0.4377  0.4005  0.9082
 3278TIP3   OH2 9839   1.251   0.406   5.006  0.2912 -0.4239  0.8371
 3278TIP3    H1 9840   1.275   0.457   4.928 -0.4848  0.2136  1.0050
 3278TIP3    H2 9841   1.317   0.337   5.010  0.1652 -0.6635 -0.5706
 3279TIP3   OH2 9842   5.926   4.564   4.882  0.4591  0.0023  0.3729
 3279TIP3    H1 9843   5.961   4.561   4.793 -0.3003 -0.2793  0.0766
 3279TIP3    H2 9844   5.832   4.549   4.871  0.3205  0.2337  1.1990
 3280TIP3   OH2 9845   3.232   3.969   0.851  0.1711  0.4347  0.1958
 3280TIP3    H1 9846   3.152   4.016   0.826  1.2516  2.6860  0.7962
 3280TIP3    H2 9847   3.244   3.904   0.781 -1.0777  1.3978 -0.9772
 3281TIP3   OH2 9848   3.409   5.146   3.660  0.2622 -0.5442 -0.5469
 3281TIP3    H1 9849   3.402   5.227   3.611 -1.0252 -0.0835  0.3274
 3281TIP3    H2 9850   3.497   5.147   3.696 -0.0693  0.9980  0.3149
 3282TIP3   OH2 9851   5.410   2.690   4.758  0.3095  0.1279 -0.1887
 3282TIP3    H1 9852   5.436   2.780   4.777 -0.7481  0.5658 -0.7008
 3282TIP3    H2 9853   5.363   2.696   4.675 -0.9235 -0.6694  0.4121
 3283TIP3   OH2 9854   1.712   0.493   1.317  0.2750 -0.4095  0.2627
 3283TIP3    H1 9855   1.723   0.473   1.224  0.7669 -0.0849  0.2486
 3283TIP3    H2 9856   1.620   0.516   1.326  0.1809 -0.6320 -0.1061
 3284TIP3   OH2 9857   2.344   4.677   0.382 -0.0185  0.0473 -0.4587
 3284TIP3    H1 9858   2.434   4.690   0.411 -0.0701  0.7460 -0.5892
 3284TIP3    H2 9859   2.349   4.681   0.286 -0.0629 -0.7908 -0.5010
 3285TIP3   OH2 9860   2.804   3.717   1.429 -0.3055 -0.4642 -0.6728
 3285TIP3    H1 9861   2.829   3.807   1.451 -0.4993 -0.8948  1.4574
 3285TIP3    H2 9862   2.723   3.727   1.379 -1.4958  0.5167  1.3170
 3286TIP3   OH2 9863   5.098   1.276   4.457 -0.2615  0.3616 -0.0913
 3286TIP3    H1 9864   5.046   1.338   4.407 -1.6387 -0.6435  0.0231
 3286TIP3    H2 9865   5.114   1.204   4.396  1.8895  1.0482 -0.4426
 3287TIP3   OH2 9866   2.280   2.254   4.772  0.3011  0.7162 -0.0929
 3287TIP3    H1 9867   2.240   2.239   4.686 -0.7293 -0.7432  0.5906
 3287TIP3    H2 9868   2.343   2.183   4.782 -0.3934  0.1940  0.7896
 3288TIP3   OH2 9869   1.744   1.103   3.407 -0.1658 -0.4371 -0.0085
 3288TIP3    H1 9870   1.806   1.037   3.377  0.0353 -0.2055 -0.0994
 3288TIP3    H2 9871   1.751   1.174   3.344 -1.0951 -0.7341 -0.4659
 3289TIP3   OH2 9872   5.589   5.399   2.949 -0.2341  0.0095 -0.1628
 3289TIP3    H1 9873   5.669   5.420   2.901 -0.4189  0.0850 -0.4355
 3289TIP3    H2 9874   5.578   5.473   3.010 -0.5192  0.3863 -0.6613
 3290TIP3   OH2 9875   4.520   3.559   4.242  0.2669  0.4368  0.2809
 3290TIP3    H1 9876   4.437   3.555   4.290 -0.2971 -0.9481 -0.7433
 3290TIP3    H2 9877   4.581   3.509   4.295  0.9020  2.6083  1.7539
 3291TIP3   OH2 9878   0.398   2.866   5.096  0.0467  0.0500  0.5746
 3291TIP3    H1 9879   0.317   2.830   5.132  0.6903 -0.9637  1.0341
 3291TIP3    H2 9880   0.385   2.961   5.100  0.1446  0.0325  3.6857
 3292TIP3   OH2 9881   0.259   4.064   0.619 -0.0809 -0.0610  0.0964
 3292TIP3    H1 9882   0.308   3.999   0.670 -1.8575 -0.6989  1.1013
 3292TIP3    H2 9883   0.283   4.047   0.528  0.9129 -0.8740  0.4892
 3293TIP3   OH2 9884   6.298   5.841   1.244 -0.2312 -0.2826  0.2191
 3293TIP3    H1 9885   6.307   5.890   1.163  0.5386  0.3099  0.6566
 3293TIP3    H2 9886   6.355   5.886   1.307 -1.0768 -0.5159  1.1874
 3294TIP3   OH2 9887   0.849   5.551   5.210  0.4856 -0.3129  0.9790
 3294TIP3    H1 9888   0.849   5.632   5.159  0.1929 -0.0439  1.3963
 3294TIP3    H2 9889   0.793   5.491   5.160 -0.6386  0.2840  1.4911
 3295TIP3   OH2 9890   3.558   3.839   2.424 -0.2875  0.3597  0.2647
 3295TIP3    H1 9891   3.652   3.832   2.437  0.4006  0.2247 -3.5599
 3295TIP3    H2 9892   3.522   3.760   2.464  1.5857 -0.9306 -0.4521
 3296TIP3   OH2 9893   0.542   2.312   2.811 -0.1993  0.3246  0.1327
 3296TIP3    H1 9894   0.493   2.337   2.733 -1.3675  0.2291  0.8157
 3296TIP3    H2 9895   0.492   2.350   2.884  0.7356  0.2088  0.8511
 3297TIP3   OH2 9896   1.541   3.625   2.529  0.1294 -0.7443 -0.1712
 3297TIP3    H1 9897   1.607   3.610   2.597  0.4847  1.6371  0.1137
 3297TIP3    H2 9898   1.469   3.667   2.575 -0.8858 -1.7421 -0.7946
 3298TIP3   OH2 9899   5.852   0.515   1.030 -0.2676 -0.7590  0.1381
 3298TIP3    H1 9900   5.918   0.468   0.979 -0.6152 -2.1481  0.9405
 3298TIP3    H2 9901   5.841   0.464   1.110  0.1025  1.2595  1.5665
 3299TIP3   OH2 9902   2.017   2.675   3.376 -0.7463 -0.3282  0.4680
 3299TIP3    H1 9903   2.093   2.678   3.434  0.2942 -0.5023 -0.8413
 3299TIP3    H2 9904   2.054   2.669   3.288 -2.2722 -2.0457 -0.1207
 3300TIP3   OH2 9905   5.957   4.351   0.604  0.3886  0.0277 -0.5096
 3300TIP3    H1 9906   6.047   4.324   0.585  0.7862  0.2498  0.9898
 3300TIP3    H2 9907   5.956   4.367   0.698 -0.9663  1.0104 -0.6685
 3301TIP3   OH2 9908   0.452   0.573   1.142 -0.1549  0.1691  0.2668
 3301TIP3    H1 9909   0.375   0.518   1.135  0.2469 -1.1200  3.9115
 3301TIP3    H2 9910   0.526   0.512   1.134  0.5645  1.1912 -1.8182
 3302TIP3   OH2 9911   3.286   2.604   4.045 -0.4312 -0.0728  0.3026
 3302TIP3    H1 9912   3.351   2.603   3.975  0.4816 -2.0997  1.0845
 3302TIP3    H2 9913   3.251   2.693   4.044  0.9757  0.5264 -1.4098
 3303TIP3   OH2 9914   6.328   2.298   3.914 -0.6620  0.1442 -0.3157
 3303TIP3    H1 9915   6.284   2.297   3.829 -0.4111 -1.5505 -0.4480
 3303TIP3    H2 9916   6.367   2.385   3.920 -2.0544  0.8665 -1.2104
 3304TIP3   OH2 9917   6.081   2.983   1.988 -0.0932  0.2187 -0.3611
 3304TIP3    H1 9918   6.097   2.962   1.896  0.4061  0.7200 -0.3912
 3304TIP3    H2 9919   6.043   3.071   1.986 -0.4020  0.0965 -0.1053
 3305TIP3   OH2 9920   2.974   4.529   0.462  0.2455 -0.1509 -0.2445
 3305TIP3    H1 9921   2.931   4.606   0.425  1.0719  2.1123  3.0588
 3305TIP3    H2 9922   3.067   4.544   0.448  0.4549 -0.2032  0.9699
 3306TIP3   OH2 9923   5.175   2.756   0.470 -0.4442 -0.2563 -0.6730
 3306TIP3    H1 9924   5.168   2.809   0.549  0.7881 -1.0904  0.0358
 3306TIP3    H2 9925   5.257   2.708   0.481 -0.4712 -0.7222 -2.2617
 3307TIP3   OH2 9926   3.287   4.642   4.370  0.0049 -0.4082 -0.1455
 3307TIP3    H1 9927   3.202   4.604   4.350  0.1368 -1.2005  0.6981
 3307TIP3    H2 9928   3.316   4.683   4.289 -1.6416  0.8089 -0.1664
 3308TIP3   OH2 9929   0.943   3.399   1.648  0.1372 -0.3868 -0.0158
 3308TIP3    H1 9930   0.986   3.481   1.673 -0.2860 -0.1240 -0.1465
 3308TIP3    H2 9931   0.984   3.333   1.704 -2.1718  0.4530  2.8907
 3309TIP3   OH2 9932   0.190   3.531   5.061 -0.5817  0.2293  0.3316
 3309TIP3    H1 9933   0.280   3.510   5.088 -0.0543 -0.1417 -1.5627
 3309TIP3    H2 9934   0.150   3.570   5.139  0.3704 -2.0305  2.0887
 3310TIP3   OH2 9935   2.265   1.021   3.867 -0.2354 -0.5203  0.4109
 3310TIP3    H1 9936   2.216   0.974   3.799 -0.9970  0.1348  0.4995
 3310TIP3    H2 9937   2.322   1.080   3.818  0.2059 -1.0158  0.3170
 3311TIP3   OH2 9938   0.318   3.890   3.000 -0.3953 -0.0177  0.5776
 3311TIP3    H1 9939   0.405   3.891   3.039 -0.2285 -2.5003  0.4076
 3311TIP3    H2 9940   0.259   3.868   3.073 -0.8027  0.8251  0.5209
 3312TIP3   OH2 9941   0.071   3.829   3.657  0.6327  0.3062 -0.1682
 3312TIP3    H1 9942   0.133   3.782   3.601  1.1866 -0.0705  0.7467
 3312TIP3    H2 9943   0.056   3.912   3.612  0.9648 -0.0451 -0.9398
 3313TIP3   OH2 9944   6.292   1.429   0.085 -0.2894 -0.2063  0.1529
 3313TIP3    H1 9945   6.332   1.415  -0.001 -0.6364 -0.9200  0.0955
 3313TIP3    H2 9946   6.312   1.520   0.107 -0.0028 -0.0860 -0.5839
 3314TIP3   OH2 9947   3.285   5.650   4.547  0.5974 -0.1445  0.1303
 3314TIP3    H1 9948   3.288   5.570   4.495  0.2932  0.3356 -0.6480
 3314TIP3    H2 9949   3.297   5.721   4.483  0.9596  0.4248  0.8171
 3315TIP3   OH2 9950   0.858   1.016   3.525 -0.4790  0.0344 -0.5040
 3315TIP3    H1 9951   0.783   0.957   3.523  0.3015 -1.0340  0.6086
 3315TIP3    H2 9952   0.928   0.968   3.479  0.2466 -0.0648  0.6685
 3316TIP3   OH2 9953   1.446   4.828   0.311 -0.0562  0.4809 -0.6873
 3316TIP3    H1 9954   1.468   4.765   0.242 -2.6929 -0.6945 -0.5935
 3316TIP3    H2 9955   1.458   4.779   0.393 -1.5146  0.2281 -0.5873
 3317TIP3   OH2 9956   3.746   1.531   4.355  0.4312 -0.5241  0.0310
 3317TIP3    H1 9957   3.783   1.541   4.443 -0.0057 -0.2653  0.1864
 3317TIP3    H2 9958   3.818   1.557   4.297  0.6523 -0.4836  0.3157
 3318TIP3   OH2 9959   4.477   6.009   1.799  0.1851 -0.1422  0.2755
 3318TIP3    H1 9960   4.546   5.947   1.775 -0.5919 -0.2226 -2.0627
 3318TIP3    H2 9961   4.395   5.962   1.783 -0.4211  0.4582  1.5136
 3319TIP3   OH2 9962   0.632   2.333   0.148 -0.1520 -0.1323 -0.1479
 3319TIP3    H1 9963   0.560   2.389   0.180 -1.6292 -1.5269 -0.9088
 3319TIP3    H2 9964   0.628   2.255   0.204  1.2871  0.0675  0.2845
 3320TIP3   OH2 9965   2.588   3.936   3.356  0.6509 -0.3593 -0.8721
 3320TIP3    H1 9966   2.643   3.964   3.428  1.4541  1.1640 -2.0079
 3320TIP3    H2 9967   2.640   3.871   3.309  0.4478 -0.7639 -0.5452
 3321TIP3   OH2 9968   6.068   4.924   3.740  0.2399  0.1619  0.5196
 3321TIP3    H1 9969   6.015   4.902   3.663  0.9736 -0.6808  0.2356
 3321TIP3    H2 9970   6.022   4.997   3.780  0.0158  0.8394 -0.9112
 3322TIP3   OH2 9971   3.823   0.269   2.748 -0.2467  0.7569 -0.3051
 3322TIP3    H1 9972   3.862   0.300   2.830 -2.0035  3.0764 -0.2538
 3322TIP3    H2 9973   3.729   0.271   2.764 -0.5979 -2.1815 -1.2761
 3323TIP3   OH2 9974   0.123   4.633   3.864  0.6858 -0.5740  0.3401
 3323TIP3    H1 9975   0.031   4.633   3.836  0.5883 -0.4890  0.6512
 3323TIP3    H2 9976   0.169   4.685   3.798 -0.0792  2.5618  2.0767
 3324TIP3   OH2 9977   0.399   5.314   1.080  0.9316 -0.2796  0.0613
 3324TIP3    H1 9978   0.308   5.290   1.062  0.4700  1.5355 -0.2257
 3324TIP3    H2 9979   0.417   5.280   1.167 -0.6801  0.9897  0.9458
 3325TIP3   OH2 9980   0.301   2.993   1.653  0.2044 -0.1394 -0.4079
 3325TIP3    H1 9981   0.247   2.936   1.598 -0.3895  0.4998 -0.4994
 3325TIP3    H2 9982   0.262   2.985   1.740 -0.1681  0.4896 -0.5176
 3326TIP3   OH2 9983   1.288   1.403   4.334  0.0814  0.1398  0.4973
 3326TIP3    H1 9984   1.320   1.481   4.380 -2.9067  0.9704  1.4014
 3326TIP3    H2 9985   1.302   1.332   4.396  0.9521  0.3026  0.4990
 3327TIP3   OH2 9986   0.434   2.010   2.524 -0.2062 -0.1628 -0.0454
 3327TIP3    H1 9987   0.513   1.971   2.488 -0.0351  1.0809 -1.0658
 3327TIP3    H2 9988   0.465   2.076   2.586 -0.2845  2.1837 -2.3359
 3328TIP3   OH2 9989   4.368   4.212   3.775  0.3491 -0.0468  0.1065
 3328TIP3    H1 9990   4.458   4.240   3.758  0.3126  0.8333  1.3225
 3328TIP3    H2 9991   4.335   4.272   3.841 -0.6245 -1.3260  0.8312
 3329TIP3   OH2 9992   3.337   5.413   1.421 -0.0195 -0.1852  0.2930
 3329TIP3    H1 9993   3.241   5.409   1.420 -0.0251 -0.9541  1.7150
 3329TIP3    H2 9994   3.357   5.502   1.392 -1.2558  0.7491  2.0982
 3330TIP3   OH2 9995   5.802   4.201   2.128  0.4306  0.6096  0.5106
 3330TIP3    H1 9996   5.893   4.215   2.155  1.0798 -0.9451 -0.7050
 3330TIP3    H2 9997   5.801   4.112   2.095 -1.8419  0.1608  1.6097
 3331TIP3   OH2 9998   5.708   0.082   1.018  0.6148 -0.0198 -0.2298
 3331TIP3    H1 9999   5.798   0.099   0.991  0.6429 -0.4743 -0.4246
 3331TIP3    H210000   5.657   0.089   0.938  0.3295  1.1767  0.0274
 3332TIP3   OH210001   5.363   1.945   1.304 -0.3000 -0.2049 -0.1639
 3332TIP3    H110002   5.380   2.038   1.292  1.4388 -0.5359 -0.4729
 3332TIP3    H210003   5.380   1.929   1.397  2.4348 -0.7372 -0.6670
 3333TIP3   OH210004   2.666   3.342   2.398 -0.9513 -0.0682  0.7386
 3333TIP3    H110005   2.720   3.267   2.371  0.8105  1.2870  0.3025
 3333TIP3    H210006   2.643   3.323   2.489  0.2838 -0.6952  0.9450
 3334TIP3   OH210007   1.599   0.523   0.214  0.2045  0.2260  0.1246
 3334TIP3    H110008   1.567   0.443   0.257 -1.7375  0.7406 -0.2599
 3334TIP3    H210009   1.628   0.579   0.286  1.4859 -0.7615  0.4028
 3335TIP3   OH210010   5.818   4.820   0.185  0.0593 -0.4997 -0.4758
 3335TIP3    H110011   5.763   4.824   0.264 -0.5870  0.9267 -0.9605
 3335TIP3    H210012   5.876   4.896   0.193  0.0084 -0.3620 -1.3648
 3336TIP3   OH210013   1.049   3.393   0.292 -0.3138 -0.6604 -0.0307
 3336TIP3    H110014   1.017   3.481   0.309 -0.8260 -0.6367 -1.0351
 3336TIP3    H210015   0.977   3.335   0.317  0.3605 -0.8735  1.5152
 3337TIP3   OH210016   3.827   3.411   2.120  0.3203  0.1427  0.2439
 3337TIP3    H110017   3.796   3.354   2.050 -0.6466  1.4380 -0.4208
 3337TIP3    H210018   3.905   3.367   2.154  0.2337 -1.0084 -0.9611
 3338TIP3   OH210019   3.317   0.528   1.843  0.3241 -0.7541  0.3285
 3338TIP3    H110020   3.344   0.482   1.923  0.7590 -0.0999  0.5669
 3338TIP3    H210021   3.241   0.581   1.870  0.4123 -0.6058  0.2903
 3339TIP3   OH210022   3.572   2.292   4.716  0.1632  0.1941  0.0917
 3339TIP3    H110023   3.562   2.325   4.805 -2.5155 -0.4447  0.1299
 3339TIP3    H210024   3.493   2.322   4.671 -0.0982 -2.1458 -1.1667
 3340TIP3   OH210025   3.127   1.103   2.936  0.1939  0.6993  0.2952
 3340TIP3    H110026   3.121   1.127   3.029  2.1750 -0.6053  0.8149
 3340TIP3    H210027   3.216   1.127   2.911  0.4087 -0.9295 -0.6585
 3341TIP3   OH210028   6.167   1.933   4.788 -0.6063 -0.0895 -0.3451
 3341TIP3    H110029   6.162   1.854   4.841 -0.2650  0.4087  0.4420
 3341TIP3    H210030   6.253   1.929   4.747 -0.3385  0.1815  0.1877
 3342TIP3   OH210031   3.342   4.284   3.396 -0.4345 -0.5964  0.1722
 3342TIP3    H110032   3.295   4.278   3.479 -0.4976 -1.8926  0.0647
 3342TIP3    H210033   3.273   4.284   3.329 -0.4047  0.8897  0.1152
 3343TIP3   OH210034   0.892   3.124   2.459  0.1202  0.6214 -0.1309
 3343TIP3    H110035   0.960   3.110   2.525 -1.4212 -1.6959  1.0738
 3343TIP3    H210036   0.813   3.144   2.509 -0.4337  1.9051 -1.4471
 3344TIP3   OH210037   3.507   2.661   0.462  0.0028  0.0360 -0.2456
 3344TIP3    H110038   3.503   2.726   0.532 -2.6359 -0.9874  0.6918
 3344TIP3    H210039   3.549   2.585   0.501 -3.1491 -1.2374  1.0472
 3345TIP3   OH210040   6.291   3.301   3.809 -0.0097  0.2989  0.1085
 3345TIP3    H110041   6.354   3.232   3.829  1.7134  2.0040  0.8604
 3345TIP3    H210042   6.324   3.341   3.729 -1.3451 -0.1136 -0.6788
 3346TIP3   OH210043   5.533   1.637   3.060 -0.7704 -0.0130 -0.3094
 3346TIP3    H110044   5.444   1.619   3.031 -0.6559 -1.5870  0.2005
 3346TIP3    H210045   5.578   1.552   3.054  0.5145  0.6080  0.0457
 3347TIP3   OH210046   2.891   3.196   2.617 -0.3197 -0.7652  0.1148
 3347TIP3    H110047   2.861   3.264   2.678 -0.8233  0.1801 -1.1254
 3347TIP3    H210048   2.979   3.225   2.591  0.7449 -2.2375  1.8819
 3348TIP3   OH210049   4.271   0.718   0.675  0.6305 -0.2407 -0.0039
 3348TIP3    H110050   4.310   0.637   0.706 -0.8792 -1.9736 -2.2596
 3348TIP3    H210051   4.235   0.696   0.588 -1.0665  2.4597 -0.1297
 3349TIP3   OH210052   1.030   4.817   1.903 -0.3221 -0.5718  0.4405
 3349TIP3    H110053   1.106   4.856   1.947 -0.6080  0.2460  0.2134
 3349TIP3    H210054   0.992   4.888   1.852 -2.3131 -0.4624  1.9708
 3350TIP3   OH210055   3.216   5.617   2.046 -0.1794 -0.1235  0.4268
 3350TIP3    H110056   3.258   5.691   2.004  0.4412 -1.3275 -1.1886
 3350TIP3    H210057   3.132   5.651   2.078 -1.7896  0.4692 -3.7752
 3351TIP3   OH210058   2.790   4.030   4.823 -0.4502 -0.5707 -0.5128
 3351TIP3    H110059   2.841   4.111   4.819  1.6236 -1.6089  1.8909
 3351TIP3    H210060   2.719   4.049   4.885  0.5457 -0.8005  0.7282
 3352TIP3   OH210061   3.516   1.314   0.231 -0.0774 -0.0758  0.0406
 3352TIP3    H110062   3.471   1.233   0.205  1.5799 -1.7621  1.9897
 3352TIP3    H210063   3.472   1.341   0.311  0.2956  0.0825  0.1950
 3353TIP3   OH210064   5.236   2.783   1.066  0.1612 -0.5758  0.1373
 3353TIP3    H110065   5.188   2.806   0.986 -0.5839 -0.3668  0.6304
 3353TIP3    H210066   5.187   2.710   1.103  1.1201 -1.3805 -0.1454
 3354TIP3   OH210067   4.901   3.210   1.773  0.1376 -0.4227  0.0686
 3354TIP3    H110068   4.850   3.190   1.851  0.8783 -0.2900  0.5981
 3354TIP3    H210069   4.990   3.225   1.806  0.1011  1.4193 -0.5833
 3355TIP3   OH210070   3.994   4.391   0.673 -0.1170  0.5104  0.2166
 3355TIP3    H110071   3.979   4.394   0.768 -0.3089 -0.5741  0.2340
 3355TIP3    H210072   3.920   4.438   0.635 -1.2409 -0.9358  0.5185
 3356TIP3   OH210073   3.813   3.947   2.133 -0.1382  0.4484  0.6457
 3356TIP3    H110074   3.898   3.988   2.147 -0.2288  1.6305 -1.6971
 3356TIP3    H210075   3.823   3.858   2.166  3.1931 -0.6090 -2.5229
 3357TIP3   OH210076   3.283   0.522   1.348  0.2291  0.6126 -0.5001
 3357TIP3    H110077   3.189   0.516   1.329  0.3359  1.7474 -1.5253
 3357TIP3    H210078   3.312   0.430   1.350 -1.0197  0.2073  0.5823
 3358TIP3   OH210079   1.185   4.476   4.966  0.9493  0.7550 -0.4868
 3358TIP3    H110080   1.184   4.525   5.048 -1.0871  1.2315 -0.7692
 3358TIP3    H210081   1.242   4.401   4.984  0.9911  1.1584  1.1681
 3359TIP3   OH210082   4.710   2.072   2.294 -0.7379 -1.2527 -0.0337
 3359TIP3    H110083   4.677   2.007   2.357  0.0950 -1.1867  0.4829
 3359TIP3    H210084   4.713   2.154   2.343  0.4822 -1.3197  0.0327
 3360TIP3   OH210085   0.885   4.547   3.706  0.2723 -0.3674  0.1438
 3360TIP3    H110086   0.873   4.641   3.715 -1.7202 -0.6526  1.0642
 3360TIP3    H210087   0.979   4.533   3.717  0.4551  1.3747  1.1547
 3361TIP3   OH210088   0.587   5.163   3.960  0.5823  0.0224 -0.8719
 3361TIP3    H110089   0.625   5.179   4.046  1.7841  0.0737 -1.3966
 3361TIP3    H210090   0.627   5.229   3.903  0.7790 -0.8033 -1.7278
 3362TIP3   OH210091   3.993   0.653   0.114 -0.6074  0.1072 -0.1847
 3362TIP3    H110092   3.937   0.674   0.188 -0.4007 -0.5264  0.1537
 3362TIP3    H210093   3.978   0.559   0.098  0.9840 -0.2857  0.4556
 3363TIP3   OH210094   4.854   2.339   1.296  0.2931 -0.2844 -0.2604
 3363TIP3    H110095   4.780   2.284   1.320 -2.0018  3.0031  0.8835
 3363TIP3    H210096   4.931   2.282   1.304 -1.8098 -3.1312  1.1274
 3364TIP3   OH210097   4.418   5.955   1.273  0.4738  0.3762 -0.6850
 3364TIP3    H110098   4.349   5.936   1.337 -0.0989  0.7254 -1.1862
 3364TIP3    H210099   4.490   5.896   1.297 -0.4606 -0.8821 -0.8980
 3365TIP3   OH210100   5.785   5.457   0.797  0.0133  0.2298  0.1607
 3365TIP3    H110101   5.746   5.538   0.764 -0.2120 -0.4411 -1.3020
 3365TIP3    H210102   5.832   5.421   0.721 -0.7802 -1.5501  0.4704
 3366TIP3   OH210103   0.928   5.836   1.079 -0.3791 -0.4084  0.4995
 3366TIP3    H110104   0.842   5.866   1.048 -0.2974  2.5939  2.7515
 3366TIP3    H210105   0.915   5.815   1.171  1.2947  0.1727  0.9086
 3367TIP3   OH210106   5.169   1.478   1.048  0.4216 -0.3807 -0.1980
 3367TIP3    H110107   5.124   1.560   1.069  1.6684  0.6812 -1.5004
 3367TIP3    H210108   5.135   1.416   1.112  0.2104  1.3912  1.5089
 3368TIP3   OH210109   4.858   5.022   3.331  0.1726  0.2819  0.0377
 3368TIP3    H110110   4.845   5.103   3.282  0.5213 -0.3502 -1.1466
 3368TIP3    H210111   4.930   5.041   3.391 -0.1667  1.0287  0.2221
 3369TIP3   OH210112   5.486   2.945   0.766 -0.1291  0.0064 -0.3050
 3369TIP3    H110113   5.515   2.993   0.843 -1.4815  0.4662 -0.0465
 3369TIP3    H210114   5.561   2.944   0.708  1.3235 -1.3777  1.4700
 3370TIP3   OH210115   5.108   4.900   0.124 -0.0951  0.3999  0.3941
 3370TIP3    H110116   5.014   4.893   0.141  0.0740  0.4688  1.4179
 3370TIP3    H210117   5.115   4.900   0.029 -1.2729  1.9655  0.2522
 3371TIP3   OH210118   4.972   5.512   4.653  0.5602  0.3989  0.5456
 3371TIP3    H110119   4.878   5.508   4.670  0.4243  0.5796 -0.1529
 3371TIP3    H210120   4.993   5.426   4.616  0.5558  0.5631  0.1555
 3372TIP3   OH210121   4.672   5.956   0.364  0.0088 -0.0639  0.2798
 3372TIP3    H110122   4.648   6.037   0.321 -1.1939 -0.1577  0.7325
 3372TIP3    H210123   4.604   5.942   0.430  1.0078 -0.6671  1.2269
 3373TIP3   OH210124   1.178   1.478   2.486  0.7151 -0.5741 -0.3655
 3373TIP3    H110125   1.176   1.387   2.459  3.0561 -0.5015 -1.0100
 3373TIP3    H210126   1.270   1.495   2.509  0.2149  1.4160  0.4587
 3374TIP3   OH210127   1.920   2.065   4.503  0.5715  0.2463 -0.6860
 3374TIP3    H110128   1.924   2.012   4.424 -3.1877 -0.2210 -0.7262
 3374TIP3    H210129   1.966   2.013   4.569  2.1660 -0.1953 -2.0678
 3375TIP3   OH210130   0.910   1.500   2.987  0.1357 -0.1625  0.3297
 3375TIP3    H110131   0.866   1.518   2.904  1.8416  0.1609 -0.5381
 3375TIP3    H210132   0.849   1.532   3.054 -1.6306 -1.1801 -0.7194
 3376TIP3   OH210133   0.340   3.389   2.720  0.3387  0.6282  0.0080
 3376TIP3    H110134   0.255   3.431   2.705 -0.0076 -0.4103 -1.1179
 3376TIP3    H210135   0.328   3.338   2.800 -0.1853  0.2926 -0.2778
 3377TIP3   OH210136   5.680   3.171   0.654 -0.1382  0.5126  0.3644
 3377TIP3    H110137   5.642   3.250   0.692 -1.8276 -0.5582  1.0389
 3377TIP3    H210138   5.638   3.163   0.568  1.3316  1.2471 -0.4537
 3378TIP3   OH210139   4.720   2.153   4.266 -0.0028 -0.0277  0.8754
 3378TIP3    H110140   4.661   2.080   4.282 -1.2392  0.9084  0.7895
 3378TIP3    H210141   4.693   2.219   4.330  1.0180  0.3965  0.8838
 3379TIP3   OH210142   0.041   0.509   0.395  0.1125 -0.1567 -0.3511
 3379TIP3    H110143   0.002   0.551   0.472  0.6667  0.6732 -0.5057
 3379TIP3    H210144   0.036   0.416   0.414  0.5091  0.0427  0.8434
 3380TIP3   OH210145   3.359   2.330   2.610  0.4674 -0.3072 -0.1013
 3380TIP3    H110146   3.324   2.374   2.533  0.6519  0.7749  0.4076
 3380TIP3    H210147   3.352   2.237   2.590 -1.8491 -0.1257 -0.3863
 3381TIP3   OH210148   0.172   1.145   3.713 -1.1590  0.1094  0.1146
 3381TIP3    H110149   0.199   1.231   3.747 -0.2366  0.3574 -1.1855
 3381TIP3    H210150   0.172   1.156   3.618 -0.6821 -1.4341 -0.0773
 3382TIP3   OH210151   6.165   3.973   4.304  0.2365 -0.1757  0.0940
 3382TIP3    H110152   6.136   4.001   4.390  0.2437  0.7789 -0.2010
 3382TIP3    H210153   6.194   4.054   4.261 -0.0090 -0.5972 -0.8948
 3383TIP3   OH210154   1.168   5.822   0.370  0.2094 -0.4732 -0.4715
 3383TIP3    H110155   1.246   5.808   0.315  1.1076 -1.1260  0.8915
 3383TIP3    H210156   1.133   5.734   0.384 -0.5588 -0.2174 -0.7719
 3384TIP3   OH210157   3.095   3.707   1.146  0.1643  0.0786 -0.2874
 3384TIP3    H110158   3.184   3.723   1.115 -0.3337  1.3375 -1.1424
 3384TIP3    H210159   3.048   3.788   1.126 -1.3234 -0.7956 -0.4466
 3385TIP3   OH210160   1.794   1.898   4.291 -0.0542 -0.4186  0.2198
 3385TIP3    H110161   1.753   1.954   4.225 -0.2679 -0.2895  0.4621
 3385TIP3    H210162   1.827   1.823   4.241  1.4613  0.5682 -0.3135
 3386TIP3   OH210163   1.930   4.970   2.833  0.5726  0.1134  0.4780
 3386TIP3    H110164   2.012   4.999   2.792 -0.1247  0.9674 -0.3771
 3386TIP3    H210165   1.952   4.955   2.924  2.0433 -1.2224 -0.0504
 3387TIP3   OH210166   5.432   0.315   2.950 -0.4580  0.2411 -0.6505
 3387TIP3    H110167   5.401   0.397   2.911  0.0941  1.1210  0.6785
 3387TIP3    H210168   5.375   0.302   3.026 -0.6752 -0.7369 -0.9666
 3388TIP3   OH210169   2.240   5.227   4.002  0.1836 -0.3269 -0.3586
 3388TIP3    H110170   2.276   5.166   3.939 -0.2573 -0.0982 -0.8434
 3388TIP3    H210171   2.312   5.287   4.022  1.4418 -2.4834  2.0975
 3389TIP3   OH210172   0.918   2.755   3.661 -0.3350  0.0906  0.2103
 3389TIP3    H110173   0.928   2.850   3.648 -0.9335 -0.0531 -1.7409
 3389TIP3    H210174   1.000   2.728   3.702 -1.4564  1.8885  4.0707
 3390TIP3   OH210175   2.702   1.871   4.194 -0.0610  0.0697 -0.8828
 3390TIP3    H110176   2.771   1.929   4.162 -0.3479  1.3061  0.6148
 3390TIP3    H210177   2.633   1.931   4.224 -0.0259 -0.9877  1.4867
 3391TIP3   OH210178   1.878   0.667   1.065  0.0897  0.1047  0.4444
 3391TIP3    H110179   1.787   0.698   1.063  0.8203  2.3680 -1.5799
 3391TIP3    H210180   1.925   0.733   1.115  0.6647 -1.1671  1.6674
 3392TIP3   OH210181   3.235   3.309   0.075 -0.2133  0.2304  0.4056
 3392TIP3    H110182   3.262   3.396   0.046  0.4716 -0.4420 -1.0328
 3392TIP3    H210183   3.239   3.255  -0.003 -1.0988 -1.0059  1.1772
 3393TIP3   OH210184   2.765   4.251   4.014  0.0303  0.1882 -0.0335
 3393TIP3    H110185   2.843   4.281   3.968 -1.3304  0.3613 -2.3609
 3393TIP3    H210186   2.695   4.255   3.949 -1.3067 -3.1602  0.9694
 3394TIP3   OH210187   2.949   3.037   1.473 -0.0477  0.1735  0.0705
 3394TIP3    H110188   2.920   2.959   1.425  0.5665 -0.2165  0.3175
 3394TIP3    H210189   3.000   3.087   1.410 -0.1478  0.2008  0.0112
 3395TIP3   OH210190   4.390   2.199   2.158 -0.0727 -0.1836 -0.1228
 3395TIP3    H110191   4.321   2.170   2.099 -0.5692 -1.6529  1.1093
 3395TIP3    H210192   4.378   2.294   2.165 -2.2224 -0.4431  0.3318
 3396TIP3   OH210193   0.499   1.519   4.041  0.1336  0.2183  0.3220
 3396TIP3    H110194   0.418   1.556   4.005 -0.2528 -1.9428 -1.2369
 3396TIP3    H210195   0.469   1.466   4.115  0.2458  0.2034  0.3569
 3397TIP3   OH210196   3.200   1.209   0.506 -0.1698 -0.2287 -0.3610
 3397TIP3    H110197   3.252   1.134   0.477  0.3531  0.4628 -1.2457
 3397TIP3    H210198   3.263   1.266   0.549 -0.4886 -0.0775 -0.0876
 3398TIP3   OH210199   6.121   3.227   5.008  0.4788  0.2760  0.0265
 3398TIP3    H110200   6.159   3.143   4.981 -0.3665 -0.1939  0.2676
 3398TIP3    H210201   6.195   3.278   5.041  0.9832 -0.4115 -0.0293
 3399TIP3   OH210202   2.120   0.854   3.033  0.0686 -0.0862  0.1463
 3399TIP3    H110203   2.201   0.904   3.042 -0.9510  1.4636  1.4617
 3399TIP3    H210204   2.147   0.763   3.040  1.7630  0.3647 -0.1051
 3400TIP3   OH210205   1.833   3.092   4.404 -0.4693  0.3780  0.5249
 3400TIP3    H110206   1.774   3.017   4.388  0.3035  0.0383 -0.9300
 3400TIP3    H210207   1.778   3.169   4.390 -1.0404  0.0788  1.0861
 3401TIP3   OH210208   2.067   1.658   0.486 -0.0167  0.3938  0.0937
 3401TIP3    H110209   1.982   1.641   0.526 -0.2363  0.4023 -0.3595
 3401TIP3    H210210   2.059   1.745   0.447  0.7545  1.1139  1.4874
 3402TIP3   OH210211   2.475   4.027   0.958  0.2753  0.8755 -0.0846
 3402TIP3    H110212   2.525   3.992   1.031  0.4315  0.2916 -0.4598
 3402TIP3    H210213   2.515   4.113   0.940  1.9743 -0.0621 -1.1360
 3403TIP3   OH210214   1.268   5.252   4.012  0.8315 -0.6015  0.2118
 3403TIP3    H110215   1.267   5.209   4.097  1.2163 -1.2683 -0.1125
 3403TIP3    H210216   1.358   5.243   3.981  1.3435  1.8470  0.8112
 3404TIP3   OH210217   5.517   2.663   2.266  0.2542  0.6507 -0.3488
 3404TIP3    H110218   5.530   2.622   2.180  2.3878  0.9548 -0.2222
 3404TIP3    H210219   5.584   2.623   2.322 -0.4053  1.2467  0.9065
 3405TIP3   OH210220   4.981   3.525   2.987 -0.1720 -0.3004 -0.1072
 3405TIP3    H110221   4.891   3.513   2.956  0.1562 -0.9729 -0.8060
 3405TIP3    H210222   5.028   3.448   2.956 -0.0782 -1.6681  3.0478
 3406TIP3   OH210223   2.070   0.519   2.861 -0.3751 -0.0745  0.8080
 3406TIP3    H110224   2.062   0.424   2.865 -2.9185  0.0154 -0.1600
 3406TIP3    H210225   2.161   0.534   2.838 -0.5338 -2.4724 -2.1882
 3407TIP3   OH210226   5.844   1.810   3.226  0.0639 -0.2067 -0.0956
 3407TIP3    H110227   5.842   1.752   3.150  0.1388 -1.3641  0.7643
 3407TIP3    H210228   5.937   1.828   3.240  0.2332 -1.6481  0.9083
 3408TIP3   OH210229   1.540   3.577   2.986 -0.9724 -0.3485 -0.4454
 3408TIP3    H110230   1.555   3.487   2.958  2.1997  0.3610 -1.3227
 3408TIP3    H210231   1.510   3.569   3.077  0.2256 -2.2440 -0.1736
 3409TIP3   OH210232   0.333   0.392   2.701  0.3457 -0.1480 -0.0183
 3409TIP3    H110233   0.238   0.399   2.712  0.1038 -2.0370 -0.5211
 3409TIP3    H210234   0.351   0.437   2.619  0.0638  1.1796  0.6263
 3410TIP3   OH210235   1.573   5.196   1.644 -0.0658  0.5377  0.1762
 3410TIP3    H110236   1.635   5.168   1.711 -0.4114  0.2200  0.3648
 3410TIP3    H210237   1.618   5.177   1.561  0.3126  0.8218  0.3157
 3411TIP3   OH210238   0.231   2.144   1.553 -0.3079  0.1474 -0.6277
 3411TIP3    H110239   0.280   2.205   1.609  0.6541 -0.7352 -0.4893
 3411TIP3    H210240   0.144   2.185   1.544 -1.4331 -0.8132  3.5990
 3412TIP3   OH210241   1.204   3.479   2.982 -0.2213 -0.3578  0.6821
 3412TIP3    H110242   1.250   3.456   2.901 -0.3242 -1.8389  1.0266
 3412TIP3    H210243   1.125   3.426   2.981 -0.6568  0.2539  1.3494
 3413TIP3   OH210244   5.029   2.025   3.546 -0.5443 -0.0142  0.2714
 3413TIP3    H110245   4.989   2.021   3.459  0.5765  0.9483 -0.3058
 3413TIP3    H210246   4.973   2.085   3.595 -0.5633  0.2993 -0.1269
 3414TIP3   OH210247   1.998   1.777   2.420 -0.8387  0.0640 -0.5805
 3414TIP3    H110248   1.981   1.707   2.357 -0.9725  0.1930 -0.6886
 3414TIP3    H210249   1.950   1.853   2.386 -0.3065  0.3464 -0.7201
 3415TIP3   OH210250   3.158   0.262   3.253 -0.0949  0.3888 -0.2270
 3415TIP3    H110251   3.187   0.195   3.191  2.3949  1.0057  0.1385
 3415TIP3    H210252   3.165   0.220   3.339  0.5842  0.8056 -0.0689
 3416TIP3   OH210253   0.860   3.751   0.698  0.2975  0.0294  0.2656
 3416TIP3    H110254   0.946   3.709   0.691  1.3766  2.1015  0.2954
 3416TIP3    H210255   0.838   3.747   0.791  1.5267  1.5393  0.6725
 3417TIP3   OH210256   2.372   3.603   1.485 -0.3864 -0.1845 -0.0072
 3417TIP3    H110257   2.393   3.596   1.392  0.1388 -1.3543  0.1757
 3417TIP3    H210258   2.386   3.695   1.506 -0.8260  0.1634 -1.1490
 3418TIP3   OH210259   6.297   5.498   3.561  0.1060  0.1176 -0.4155
 3418TIP3    H110260   6.376   5.448   3.539  0.6168  0.5141  0.4646
 3418TIP3    H210261   6.229   5.461   3.505  0.6454 -1.0208 -0.3487
 3419TIP3   OH210262   0.468   5.048   1.277 -0.5924 -0.2783  0.0001
 3419TIP3    H110263   0.498   4.978   1.219 -1.0611 -1.2566  0.9155
 3419TIP3    H210264   0.535   5.116   1.268  1.0592 -1.7106  0.6895
 3420TIP3   OH210265   1.350   3.898   0.737  0.9515  0.1236  0.4369
 3420TIP3    H110266   1.368   3.947   0.656 -2.3684 -0.3793 -0.7822
 3420TIP3    H210267   1.317   3.964   0.798 -0.1954 -0.0029 -0.0102
 3421TIP3   OH210268   3.315   1.553   1.889 -0.4511 -0.4074 -0.1923
 3421TIP3    H110269   3.394   1.573   1.838  0.2765 -0.6345  0.8127
 3421TIP3    H210270   3.271   1.637   1.901 -0.6257 -0.3512 -1.1744
 3422TIP3   OH210271   4.589   3.881   2.615  0.3902 -0.0637  0.0028
 3422TIP3    H110272   4.626   3.889   2.703  1.5818 -2.7721 -0.1761
 3422TIP3    H210273   4.662   3.903   2.556 -0.5103  2.1393 -0.3746
 3423TIP3   OH210274   4.707   2.723   2.135  0.0758  0.4974 -0.0617
 3423TIP3    H110275   4.784   2.757   2.091  0.9663 -1.1052  0.1890
 3423TIP3    H210276   4.724   2.734   2.228  0.0800  0.0084  0.0005
 3424TIP3   OH210277   0.406   1.874   4.941  0.3343  0.0889  0.1363
 3424TIP3    H110278   0.360   1.794   4.913  1.1974 -0.5305  0.4640
 3424TIP3    H210279   0.493   1.844   4.966  0.2243  0.9146  1.6370
 3425TIP3   OH210280   1.010   2.837   1.371 -0.0099  0.3558 -0.6436
 3425TIP3    H110281   0.981   2.870   1.285  1.9227  0.7805 -1.1739
 3425TIP3    H210282   1.031   2.745   1.355 -1.9796 -0.2596  0.0012
 3426TIP3   OH210283   0.963   1.268   3.455 -0.2126  0.1325 -0.4564
 3426TIP3    H110284   0.903   1.196   3.471  0.1502  0.2517  1.7532
 3426TIP3    H210285   1.044   1.226   3.426  0.8387 -0.7426  3.1308
 3427TIP3   OH210286   4.713   0.223   0.839 -1.0931  0.0478 -0.4843
 3427TIP3    H110287   4.796   0.252   0.801  1.1413 -1.6969  2.5524
 3427TIP3    H210288   4.704   0.274   0.919 -1.6762 -1.4093  0.4254
 3428TIP3   OH210289   5.303   5.788   3.935 -0.4195  0.7460 -0.0232
 3428TIP3    H110290   5.219   5.778   3.890 -1.9756 -2.3858  3.1200
 3428TIP3    H210291   5.288   5.859   3.998 -1.5256 -1.0316  1.8451
 3429TIP3   OH210292   0.854   3.087   3.408  0.4333 -0.0863 -0.0867
 3429TIP3    H110293   0.874   3.112   3.498 -2.2901  4.7737 -0.4986
 3429TIP3    H210294   0.908   3.145   3.354 -1.0900  0.1393 -1.4474
 3430TIP3   OH210295   3.393   1.845   4.200  0.3956 -0.0899  0.3017
 3430TIP3    H110296   3.389   1.765   4.253 -0.2750  1.6278  3.0292
 3430TIP3    H210297   3.461   1.828   4.135 -0.1160 -3.0510  0.4199
 3431TIP3   OH210298   5.751   3.895   3.065  0.3181 -0.1171  0.0594
 3431TIP3    H110299   5.785   3.976   3.029 -0.1934 -0.0751 -0.3382
 3431TIP3    H210300   5.670   3.878   3.016  0.9409 -1.4108 -0.5816
 3432TIP3   OH210301   1.367   4.646   0.525 -0.2617 -0.3839  0.5311
 3432TIP3    H110302   1.302   4.713   0.507  1.0976  1.0006  0.5709
 3432TIP3    H210303   1.422   4.683   0.594  0.7674 -1.3774  0.2849
 3433TIP3   OH210304   2.186   2.261   1.526  0.4389  0.1605 -0.2545
 3433TIP3    H110305   2.095   2.256   1.499 -0.1657 -3.0009  1.7495
 3433TIP3    H210306   2.182   2.292   1.617  0.6087 -4.8514  1.7639
 3434TIP3   OH210307   4.294   2.556   3.972 -0.4616  0.4812  0.7447
 3434TIP3    H110308   4.347   2.478   3.956  0.4594  1.2842 -0.3146
 3434TIP3    H210309   4.302   2.572   4.065  0.5574  0.1568  0.7190
 3435TIP3   OH210310   0.173   3.592   4.536  0.2333  0.2464 -0.0569
 3435TIP3    H110311   0.136   3.590   4.624 -0.9827 -0.1305 -0.5598
 3435TIP3    H210312   0.267   3.605   4.550  0.0619  0.1690  1.2914
 3436TIP3   OH210313   1.224   4.499   1.520 -0.0937  0.0470 -0.1992
 3436TIP3    H110314   1.176   4.475   1.441  1.0905 -0.3057 -0.8377
 3436TIP3    H210315   1.160   4.490   1.591 -0.9100 -0.5554 -0.9912
 3437TIP3   OH210316   3.481   5.076   3.941 -0.8597 -0.2994 -0.4257
 3437TIP3    H110317   3.539   5.148   3.914 -1.8318  0.4580 -0.5432
 3437TIP3    H210318   3.534   4.997   3.929  0.2995  0.4070 -0.0879
 3438TIP3   OH210319   4.299   0.648   3.816 -0.4183  0.0105  0.1976
 3438TIP3    H110320   4.348   0.579   3.771 -0.9345  0.4452 -1.0852
 3438TIP3    H210321   4.364   0.715   3.836 -0.0872 -0.4218  0.5918
 3439TIP3   OH210322   0.847   1.971   1.433 -0.0586 -0.0386 -0.7980
 3439TIP3    H110323   0.795   1.918   1.494  0.4565  1.2993  0.8828
 3439TIP3    H210324   0.787   2.040   1.404  0.2897  0.5712 -0.1042
 3440TIP3   OH210325   2.688   3.608   4.684  0.3004 -0.0039  0.3109
 3440TIP3    H110326   2.650   3.592   4.771 -0.3963 -0.0130  0.0148
 3440TIP3    H210327   2.666   3.699   4.665 -3.0404 -1.0012 -1.4731
 3441TIP3   OH210328   4.705   0.789   3.952 -0.2272 -0.2740 -0.0913
 3441TIP3    H110329   4.768   0.786   3.881  0.7473 -0.9532  0.7681
 3441TIP3    H210330   4.623   0.814   3.911  0.3086 -0.6744 -1.4419
 3442TIP3   OH210331   4.132   1.522   1.137 -0.0007 -0.3360 -0.0761
 3442TIP3    H110332   4.188   1.535   1.061 -0.1793  2.3138  0.1603
 3442TIP3    H210333   4.044   1.515   1.102 -0.2264  2.0710 -0.1206
 3443TIP3   OH210334   2.416   2.373   4.071  0.2187 -0.4980 -0.2168
 3443TIP3    H110335   2.448   2.432   4.002  1.1462 -2.5756 -1.6762
 3443TIP3    H210336   2.494   2.326   4.099 -0.2472 -0.0449  1.9766
 3444TIP3   OH210337   5.784   5.537   1.873  0.8066  0.2580  0.0937
 3444TIP3    H110338   5.859   5.581   1.833  0.4517  1.9470  1.1768
 3444TIP3    H210339   5.710   5.560   1.817  0.6387  0.9824  0.6020
 3445TIP3   OH210340   4.669   2.316   3.656  0.3057  0.5015  0.0700
 3445TIP3    H110341   4.580   2.293   3.632  0.2602  0.8213 -0.0776
 3445TIP3    H210342   4.686   2.398   3.610  0.6049  0.5485  0.2573
 3446TIP3   OH210343   4.086   3.242   5.055  0.0435 -0.2242  0.0729
 3446TIP3    H110344   4.043   3.325   5.078 -0.9052 -1.0571  1.4553
 3446TIP3    H210345   4.031   3.205   4.987  0.2802  0.1127 -0.3075
 3447TIP3   OH210346   2.351   2.962   2.824  0.1471  0.1014 -0.3303
 3447TIP3    H110347   2.295   2.999   2.755  2.7458  0.2826 -2.5024
 3447TIP3    H210348   2.306   2.985   2.905 -1.0481  3.4892 -1.7457
 3448TIP3   OH210349   2.466   4.736   3.183 -0.1478  0.4483  0.0768
 3448TIP3    H110350   2.382   4.750   3.140 -0.3130  1.2089  0.6145
 3448TIP3    H210351   2.505   4.662   3.137 -1.8303 -1.0156  0.8791
 3449TIP3   OH210352   4.703   3.143   2.252 -0.8000  0.1595 -0.1518
 3449TIP3    H110353   4.731   3.111   2.338 -2.0664 -0.1924  0.1517
 3449TIP3    H210354   4.648   3.218   2.271  0.9632  1.6838 -0.7990
 3450TIP3   OH210355   3.940   4.002   2.703  0.0025  0.1661 -0.5462
 3450TIP3    H110356   3.976   3.935   2.761 -2.0093 -0.7409 -0.2584
 3450TIP3    H210357   3.870   4.042   2.753 -0.1144  1.1296 -1.4481
 3451TIP3   OH210358   1.570   1.458   1.700  0.0958  0.5185 -1.2440
 3451TIP3    H110359   1.617   1.450   1.783  0.9929 -0.0137 -1.7865
 3451TIP3    H210360   1.493   1.511   1.721  1.3797  2.1672 -0.5103
 3452TIP3   OH210361   5.320   2.504   4.414  0.2104 -0.3700 -0.5565
 3452TIP3    H110362   5.303   2.586   4.461  0.3714 -0.8549  0.3871
 3452TIP3    H210363   5.234   2.463   4.405  0.2298 -0.4734 -0.2922
 3453TIP3   OH210364   1.410   1.820   4.675 -0.5995 -0.4138 -0.0689
 3453TIP3    H110365   1.468   1.874   4.621 -0.5782 -1.1363 -0.8020
 3453TIP3    H210366   1.380   1.751   4.615 -0.0505 -1.6284  1.0226
 3454TIP3   OH210367   2.178   2.086   2.837  0.0029 -0.1283 -0.2297
 3454TIP3    H110368   2.202   1.995   2.818 -0.8136 -0.0995 -1.5815
 3454TIP3    H210369   2.122   2.081   2.914  0.8104 -0.6491  0.3354
 3455TIP3   OH210370   0.640   4.232   3.689 -0.4612  0.0626 -0.1215
 3455TIP3    H110371   0.566   4.201   3.636  1.4949  0.3957 -3.3454
 3455TIP3    H210372   0.717   4.205   3.639  1.6204  0.4609  2.6583
 3456TIP3   OH210373   1.833   2.071   0.391 -0.1866 -0.1997 -0.0960
 3456TIP3    H110374   1.870   2.109   0.471  0.0750 -1.2427  0.2934
 3456TIP3    H210375   1.901   2.013   0.357 -1.0344 -1.3240  0.0478
 3457TIP3   OH210376   1.141   0.608   2.044  0.2914  1.0143 -0.1208
 3457TIP3    H110377   1.116   0.596   1.952 -0.1673  2.4066 -0.1905
 3457TIP3    H210378   1.088   0.544   2.091  0.9405 -0.1090 -0.8586
 3458TIP3   OH210379   4.663   4.444   0.219 -0.2420 -0.0018 -0.1593
 3458TIP3    H110380   4.736   4.448   0.281 -1.0826  0.3015  0.8494
 3458TIP3    H210381   4.683   4.511   0.154  0.8875 -0.6335 -0.4862
 3459TIP3   OH210382   1.495   1.844   4.942 -0.1106 -0.1828 -0.2876
 3459TIP3    H110383   1.584   1.810   4.929  0.4546  1.3960 -0.7283
 3459TIP3    H210384   1.454   1.839   4.856  0.2102  0.8471 -0.5147
 3460TIP3   OH210385   6.369   4.460   2.356  0.2719 -0.2165 -0.2030
 3460TIP3    H110386   6.366   4.521   2.430  2.2735  0.4116 -0.5849
 3460TIP3    H210387   6.279   4.457   2.325 -0.0186  2.1798  0.1526
 3461TIP3   OH210388   5.046   2.115   2.557 -0.2232 -0.5435 -0.0361
 3461TIP3    H110389   5.062   2.143   2.467 -1.7496  0.0586 -0.1479
 3461TIP3    H210390   4.958   2.145   2.576 -1.4997 -4.0385  0.3397
 3462TIP3   OH210391   1.509   2.288   3.331  0.4735  0.4284 -0.0260
 3462TIP3    H110392   1.465   2.205   3.349 -0.3999  1.2329  1.8958
 3462TIP3    H210393   1.439   2.347   3.304  0.9299  0.8147 -0.3910
 3463TIP3   OH210394   3.822   4.888   1.259  0.4688  0.7002  0.0229
 3463TIP3    H110395   3.774   4.811   1.229  1.4431  0.2341 -0.3987
 3463TIP3    H210396   3.903   4.887   1.207  0.4251  2.1053 -0.1144
 3464TIP3   OH210397   2.087   5.746   5.081  0.4618 -1.0098 -0.0152
 3464TIP3    H110398   2.029   5.818   5.059 -0.6919 -1.8323  0.2392
 3464TIP3    H210399   2.112   5.761   5.172  3.2708  1.0605 -0.9684
 3465TIP3   OH210400   2.305   2.550   2.152  0.1699 -0.2608 -0.0518
 3465TIP3    H110401   2.331   2.513   2.236 -1.6218  2.4596  1.8569
 3465TIP3    H210402   2.210   2.547   2.152  0.1057 -1.6589 -2.8067
 3466TIP3   OH210403   1.913   3.194   1.867 -0.1068 -0.1955  0.0477
 3466TIP3    H110404   1.848   3.248   1.821 -0.6916 -0.7051  0.2690
 3466TIP3    H210405   1.886   3.196   1.958 -1.9263 -3.2790 -0.3026
 3467TIP3   OH210406   1.609   3.384   2.400  0.4636 -0.5545 -0.1834
 3467TIP3    H110407   1.610   3.461   2.456  1.9760  0.4810 -1.5275
 3467TIP3    H210408   1.605   3.310   2.461 -0.3057  0.5563  1.1656
 3468TIP3   OH210409   1.413   4.932   4.015 -0.0677 -0.0596  0.1284
 3468TIP3    H110410   1.459   5.016   4.018 -2.1793  1.1295  1.1994
 3468TIP3    H210411   1.459   4.878   4.080  1.7583 -0.0524 -1.0763
 3469TIP3   OH210412   3.169   5.562   0.798  0.3954 -0.0424 -0.3542
 3469TIP3    H110413   3.091   5.530   0.752  0.4165 -0.7016  0.0449
 3469TIP3    H210414   3.137   5.590   0.884  0.6047 -0.3895 -0.1599
 3470TIP3   OH210415   1.876   5.462   3.713  0.3591  0.3560  0.0728
 3470TIP3    H110416   1.827   5.524   3.766 -0.5262 -0.0502 -0.2570
 3470TIP3    H210417   1.962   5.458   3.754  0.7790  2.5442 -0.4667
 3471TIP3   OH210418   3.810   3.683   2.189  0.4023  0.2933  0.4363
 3471TIP3    H110419   3.844   3.624   2.122  0.4204  0.2098  0.5173
 3471TIP3    H210420   3.868   3.670   2.264 -1.2864 -1.7943  1.5065
 3472TIP3   OH210421   1.476   2.921   4.543  0.0276 -0.2542  0.1825
 3472TIP3    H110422   1.402   2.866   4.571  0.9105 -0.9890  1.1400
 3472TIP3    H210423   1.467   3.001   4.596  0.7723 -0.9800  1.4576
 3473TIP3   OH210424   6.082   5.149   4.521 -0.2879 -0.1799 -0.1499
 3473TIP3    H110425   6.097   5.208   4.447 -1.9813  0.0738 -0.3209
 3473TIP3    H210426   6.136   5.185   4.592  0.5656  0.1560 -0.9443
 3474TIP3   OH210427   1.000   1.602   2.258 -0.4861 -0.6658 -0.1217
 3474TIP3    H110428   0.927   1.569   2.310 -0.7961  0.1523 -0.0246
 3474TIP3    H210429   1.020   1.687   2.295  1.2365 -1.3091  0.5416
 3475TIP3   OH210430   1.487   5.128   3.740 -0.1744 -0.4061  0.3916
 3475TIP3    H110431   1.394   5.150   3.728 -0.4377 -2.0893 -1.1084
 3475TIP3    H210432   1.503   5.141   3.834 -2.0038 -0.3654  0.7342
 3476TIP3   OH210433   4.614   5.832   2.323  0.1826  0.2197  0.1475
 3476TIP3    H110434   4.657   5.828   2.238  1.1818 -1.4048  0.6976
 3476TIP3    H210435   4.637   5.750   2.367 -2.3161 -0.1062  1.0426
 3477TIP3   OH210436   5.046   4.751   2.156 -0.2910 -0.1524  0.5122
 3477TIP3    H110437   5.141   4.746   2.163 -0.2686 -0.6630 -0.0688
 3477TIP3    H210438   5.030   4.795   2.073 -0.5620 -0.6148  0.3181
 3478TIP3   OH210439   0.680   5.404   3.813  0.0998  0.1798  0.3993
 3478TIP3    H110440   0.743   5.462   3.770  0.5026 -0.1774  0.5007
 3478TIP3    H210441   0.598   5.453   3.812 -0.0451 -0.0328 -1.2539
 3479TIP3   OH210442   0.055   4.398   3.684  0.1266  0.4904 -0.0589
 3479TIP3    H110443   0.145   4.427   3.697  0.9257 -2.7091  3.3090
 3479TIP3    H210444   0.003   4.459   3.736  0.1337  2.6449 -2.3976
 3480TIP3   OH210445   1.945   5.352   4.211  0.0545  0.0065  0.0365
 3480TIP3    H110446   2.027   5.368   4.257 -0.4553  0.7884  0.6991
 3480TIP3    H210447   1.970   5.295   4.138  1.4847  1.4568 -0.7007
 3481TIP3   OH210448   3.569   4.985   5.009 -0.2307  0.2274 -0.1293
 3481TIP3    H110449   3.547   4.974   5.101  0.4861 -1.8742 -0.1677
 3481TIP3    H210450   3.622   4.908   4.987 -1.1794  0.1764 -2.5384
 3482TIP3   OH210451   4.786   2.225   2.535  0.2028 -0.1235  0.3801
 3482TIP3    H110452   4.722   2.167   2.576 -0.2766  0.7209  0.8572
 3482TIP3    H210453   4.766   2.312   2.571  0.8720  0.3452 -0.3511
 3483TIP3   OH210454   5.863   3.500   2.485 -0.0288 -0.4616  0.1753
 3483TIP3    H110455   5.806   3.424   2.472 -0.9187 -0.2597  2.3380
 3483TIP3    H210456   5.831   3.539   2.567  0.3825  2.2542 -0.8491
 3484TIP3   OH210457   1.521   3.943   4.988 -0.4206  0.1265  0.2386
 3484TIP3    H110458   1.530   4.031   5.025 -2.1787  0.5053 -0.1522
 3484TIP3    H210459   1.507   3.886   5.064  0.2923  0.2329  0.4576
 3485TIP3   OH210460   1.707   5.711   3.055  0.3144 -0.0992 -0.2791
 3485TIP3    H110461   1.646   5.728   3.127  1.8008  0.7250  0.8565
 3485TIP3    H210462   1.781   5.666   3.097  2.0199  1.9717 -0.8703
 3486TIP3   OH210463   0.351   2.682   1.018  0.3757 -0.3553  0.1298
 3486TIP3    H110464   0.284   2.737   0.979 -2.3549 -0.7941  3.6726
 3486TIP3    H210465   0.326   2.593   0.994  1.3921 -0.4069 -0.8151
 3487TIP3   OH210466   1.952   2.561   4.840  0.2330  0.7545 -0.4930
 3487TIP3    H110467   1.947   2.487   4.780  1.0826 -0.7578  1.2213
 3487TIP3    H210468   1.862   2.575   4.869  0.3729 -1.8065  1.6101
 3488TIP3   OH210469   0.935   5.966   0.384  0.2474 -0.0911  0.0896
 3488TIP3    H110470   1.013   5.911   0.388  0.6680  0.3270 -1.5669
 3488TIP3    H210471   0.927   5.989   0.292 -1.0893  0.9559  0.4385
 3489TIP3   OH210472   0.403   1.720   4.349  0.0181  0.5350 -0.7003
 3489TIP3    H110473   0.424   1.758   4.263 -0.0598  2.5725  0.1084
 3489TIP3    H210474   0.461   1.766   4.409  0.6330 -1.4276  0.2766
 3490TIP3   OH210475   4.291   3.441   0.216  0.7325 -0.3776 -0.0714
 3490TIP3    H110476   4.316   3.352   0.242 -0.4861 -0.9851 -0.8913
 3490TIP3    H210477   4.236   3.429   0.139  1.2023  1.1486 -0.6900
 3491TIP3   OH210478   0.338  -0.003   3.193 -0.3799  0.3032 -0.4425
 3491TIP3    H110479   0.336   0.024   3.101 -1.8646  0.0275 -0.5264
 3491TIP3    H210480   0.256   0.032   3.229  1.2766  2.5694  1.4501
 3492TIP3   OH210481   0.283   1.965   5.169 -0.1445 -0.4191 -0.5482
 3492TIP3    H110482   0.335   2.023   5.224 -0.9203  1.6190 -1.8518
 3492TIP3    H210483   0.337   1.948   5.093  0.1584 -1.6229 -0.0830
 3493TIP3   OH210484   1.066   1.128   4.949 -0.1809 -0.5310 -0.4427
 3493TIP3    H110485   1.068   1.033   4.956 -2.4707 -0.5925  0.0168
 3493TIP3    H210486   0.975   1.152   4.964 -0.7009  1.4014 -4.8698
 3494TIP3   OH210487   1.834   0.487   3.057 -0.5026  0.3003  0.0005
 3494TIP3    H110488   1.852   0.418   3.121 -0.8202  1.1825  1.0600
 3494TIP3    H210489   1.921   0.517   3.029 -0.3559  0.4918  0.6564
 3495TIP3   OH210490   2.405   2.511   0.774  0.2841  0.2576  0.0539
 3495TIP3    H110491   2.404   2.607   0.775 -0.1959  0.2500  0.4836
 3495TIP3    H210492   2.401   2.485   0.866 -0.3669 -0.1785 -0.0942
 3496TIP3   OH210493   4.587   2.132   4.808  0.2461  0.0939 -1.0995
 3496TIP3    H110494   4.533   2.152   4.732 -1.5972 -0.9564 -0.1252
 3496TIP3    H210495   4.548   2.183   4.879 -0.6721 -2.0338  0.0179
 3497TIP3   OH210496   4.264   2.089   3.362 -0.3723 -0.2068 -0.2457
 3497TIP3    H110497   4.320   2.082   3.284  0.3122 -1.2938  0.3246
 3497TIP3    H210498   4.255   1.999   3.393  0.5030  0.3215  1.7042
 3498TIP3   OH210499   5.453   5.260   3.183  0.0336  0.7585 -0.9596
 3498TIP3    H110500   5.384   5.309   3.138  2.5021  2.7283 -2.9060
 3498TIP3    H210501   5.529   5.267   3.125  1.5065 -2.6831  0.2580
 3499TIP3   OH210502   2.022   2.367   3.443  0.1761 -0.0034 -0.3470
 3499TIP3    H110503   2.003   2.460   3.431 -0.4707 -0.0332  0.3984
 3499TIP3    H210504   1.937   2.326   3.456  0.5745 -0.4377  1.0532
 3500TIP3   OH210505   2.427   0.485   3.919  0.6269  0.1991  0.0585
 3500TIP3    H110506   2.349   0.459   3.870  0.8012  0.1449 -0.1950
 3500TIP3    H210507   2.394   0.536   3.993  0.2748 -0.7863  0.5950
 3501TIP3   OH210508   5.432   5.969   2.385 -0.7327 -0.0983  0.6899
 3501TIP3    H110509   5.424   5.938   2.294  1.2053 -0.9058  0.7559
 3501TIP3    H210510   5.342   5.994   2.409 -1.4236 -0.5673 -1.1910
 3502TIP3   OH210511   1.306   2.919   2.308 -0.5350 -0.1548  0.7414
 3502TIP3    H110512   1.344   2.966   2.382  0.6080  0.5245 -0.2700
 3502TIP3    H210513   1.258   2.846   2.349  0.8491 -0.3362  2.1043
 3503TIP3   OH210514   4.007   0.737   1.779 -0.0390  0.7053 -0.3349
 3503TIP3    H110515   4.086   0.775   1.818  0.1235 -0.6028  0.6759
 3503TIP3    H210516   3.935   0.771   1.832  0.0464  0.1471  0.1434
 3504TIP3   OH210517   1.687   5.872   0.835 -0.0855  0.3461  0.1349
 3504TIP3    H110518   1.706   5.942   0.897  1.9644 -0.3926  0.4055
 3504TIP3    H210519   1.594   5.854   0.847 -0.0377  1.1421  2.0303
 3505TIP3   OH210520   4.039   4.314   0.134  0.3777 -0.2311 -0.7217
 3505TIP3    H110521   4.047   4.393   0.187  0.7233 -1.0892  0.5326
 3505TIP3    H210522   4.071   4.244   0.190  1.8572 -1.0289 -2.4502
 3506TIP3   OH210523   5.651   2.142   0.029 -0.3693 -0.4701  0.1919
 3506TIP3    H110524   5.581   2.205   0.046 -0.4545 -0.3833 -0.4405
 3506TIP3    H210525   5.624   2.099  -0.053  0.2707 -0.5062 -0.0017
 3507TIP3   OH210526   0.694   5.540   0.488 -0.0951 -0.6650 -0.4747
 3507TIP3    H110527   0.622   5.518   0.547  0.9523 -0.4057  0.9588
 3507TIP3    H210528   0.752   5.464   0.491  2.2249  0.9588  2.4641
 3508TIP3   OH210529   0.058   3.048   3.334 -0.3104 -0.4691  0.1578
 3508TIP3    H110530   0.126   2.981   3.330  1.4182  1.2049  0.5764
 3508TIP3    H210531   0.045   3.063   3.428  1.4932  1.8422  0.1106
 3509TIP3   OH210532   2.929   3.130   3.207 -0.2612 -0.5893 -0.0149
 3509TIP3    H110533   2.919   3.040   3.179 -0.3290 -0.2517 -1.1120
 3509TIP3    H210534   2.982   3.125   3.287  0.9046 -1.4900 -0.8173
 3510TIP3   OH210535   1.993   4.692   4.930  0.1740  0.1198 -0.1876
 3510TIP3    H110536   2.027   4.776   4.899 -0.1238  0.2063 -0.2896
 3510TIP3    H210537   2.040   4.675   5.011  0.0212  0.5303 -0.0121
 3511TIP3   OH210538   0.091   3.282   4.693 -0.1473  0.4995 -0.2191
 3511TIP3    H110539   0.030   3.213   4.719 -0.2569 -0.2711 -2.3825
 3511TIP3    H210540   0.087   3.284   4.597  0.6138  2.8322 -0.2795
 3512TIP3   OH210541   0.110   0.551   3.144  0.2747  0.2314 -0.1379
 3512TIP3    H110542   0.178   0.495   3.181 -0.5461  1.0856  2.8968
 3512TIP3    H210543   0.152   0.637   3.136 -0.0636  0.4499  0.4534
 3513TIP3   OH210544   0.687   1.064   0.384  0.7110  0.5681 -0.0719
 3513TIP3    H110545   0.681   1.092   0.293 -1.6609  2.1009  0.4626
 3513TIP3    H210546   0.680   0.969   0.381 -0.2719  0.6524 -1.4686
 3514TIP3   OH210547   4.729   4.489   4.285 -0.0898  0.2494  0.2107
 3514TIP3    H110548   4.698   4.520   4.200  1.9983 -0.2017 -0.7929
 3514TIP3    H210549   4.751   4.397   4.270  1.0490  0.3645  0.9863
 3515TIP3   OH210550   1.071   3.569   0.669  0.2274  0.2133 -0.0305
 3515TIP3    H110551   1.071   3.482   0.710  0.3456  0.0464 -0.3805
 3515TIP3    H210552   1.138   3.563   0.601 -0.5175  0.2354 -0.7799
 3516TIP3   OH210553   4.910   4.057   1.870  0.2494 -0.5070  0.0499
 3516TIP3    H110554   4.880   4.137   1.913  1.7956  0.3188 -0.3138
 3516TIP3    H210555   4.965   4.014   1.936 -0.8112 -1.4478  0.3483
 3517TIP3   OH210556   4.760   0.496   0.714 -0.3419  0.3887  0.0051
 3517TIP3    H110557   4.741   0.552   0.638 -0.4674  0.2811 -0.0431
 3517TIP3    H210558   4.749   0.554   0.789 -0.6400  0.3895 -0.0346
 3518TIP3   OH210559   0.255   0.185   2.079  0.2898 -0.4181 -0.4183
 3518TIP3    H110560   0.206   0.226   2.008  1.3177  0.7088 -0.5140
 3518TIP3    H210561   0.338   0.232   2.081  1.8783 -2.9721 -1.0117
 3519TIP3   OH210562   3.533   0.285   0.419  0.4753  0.1629  0.1514
 3519TIP3    H110563   3.486   0.209   0.455 -0.6244  0.6367 -0.2390
 3519TIP3    H210564   3.539   0.347   0.492 -2.2821  1.3709 -0.5318
 3520TIP3   OH210565   2.526   0.778   3.988  0.2647 -0.3898  0.2581
 3520TIP3    H110566   2.473   0.763   3.910  1.0833  1.4987 -0.7019
 3520TIP3    H210567   2.512   0.870   4.010  1.7015 -0.3354  1.0676
 3521TIP3   OH210568   1.750   3.771   3.325  0.1652 -0.3695  0.5546
 3521TIP3    H110569   1.787   3.767   3.237  4.4085 -2.9423  2.1517
 3521TIP3    H210570   1.762   3.863   3.351 -0.3841  0.2375 -1.1490
 3522TIP3   OH210571   2.639   5.261   4.194 -0.0322 -0.2353 -0.1346
 3522TIP3    H110572   2.558   5.310   4.178 -1.2786 -1.3710  2.1583
 3522TIP3    H210573   2.663   5.224   4.109 -2.4335 -0.6134 -0.6986
 3523TIP3   OH210574   5.842   0.643   3.212 -0.3177  0.2234  0.1825
 3523TIP3    H110575   5.788   0.686   3.146  0.2609  0.9113  0.1470
 3523TIP3    H210576   5.851   0.553   3.181  0.8643  0.8091 -1.2764
 3524TIP3   OH210577   4.941   1.904   3.832 -0.0601 -0.1879 -0.3945
 3524TIP3    H110578   4.886   1.830   3.804 -0.0563 -0.2677 -0.1958
 3524TIP3    H210579   5.025   1.889   3.789  0.2973 -0.9002  0.4969
 3525TIP3   OH210580   0.917   3.178   2.793  0.3356  0.0545 -0.3702
 3525TIP3    H110581   0.846   3.129   2.751 -1.0548  0.1698  1.6916
 3525TIP3    H210582   0.895   3.270   2.780  0.9455  0.1300 -0.9902
 3526TIP3   OH210583   2.204   3.535   4.826  0.4735 -0.5836 -0.0873
 3526TIP3    H110584   2.109   3.525   4.813  0.4323 -0.1636 -0.1217
 3526TIP3    H210585   2.231   3.454   4.870  0.0782 -0.6499  0.0368
 3527TIP3   OH210586   3.556   0.931   0.695  0.5912 -0.2205 -0.5857
 3527TIP3    H110587   3.526   0.854   0.744 -0.9129 -0.4557 -1.8062
 3527TIP3    H210588   3.650   0.934   0.712  0.3944 -1.2406  0.9638
 3528TIP3   OH210589   0.194   1.835   4.130  0.0662 -0.0943  0.4062
 3528TIP3    H110590   0.132   1.762   4.130 -1.2450  0.9510 -1.1329
 3528TIP3    H210591   0.194   1.867   4.220  1.9784 -2.9689  1.5873
 3529TIP3   OH210592   1.601   4.417   5.000  0.2528  0.2964  0.3772
 3529TIP3    H110593   1.679   4.438   5.051  0.2064  0.6845  0.2911
 3529TIP3    H210594   1.580   4.498   4.953  0.0554  0.0658  0.0601
 3530TIP3   OH210595   0.688   0.316   4.997  0.0103  0.6097 -0.0602
 3530TIP3    H110596   0.617   0.343   4.939  0.5859  0.0440 -1.0528
 3530TIP3    H210597   0.741   0.256   4.945 -2.0955 -3.9573  2.4286
 3531TIP3   OH210598   5.260   0.641   2.878  0.5300  0.3292  0.0608
 3531TIP3    H110599   5.170   0.608   2.873  0.5473  0.3654 -0.6040
 3531TIP3    H210600   5.250   0.736   2.889  0.4459  0.6740 -2.3380
 3532TIP3   OH210601   5.787   3.217   4.341 -0.1920 -0.1142 -0.3115
 3532TIP3    H110602   5.828   3.227   4.427 -0.1308 -3.5990  0.2018
 3532TIP3    H210603   5.720   3.285   4.339 -0.2255  0.0536  2.5315
 3533TIP3   OH210604   3.978   1.437   1.883  0.1161  0.2585  0.1850
 3533TIP3    H110605   3.902   1.386   1.855  0.1333 -0.5550  1.5704
 3533TIP3    H210606   4.041   1.427   1.811 -0.3754 -0.5965 -0.1429
 3534TIP3   OH210607   1.317   2.635   1.299 -0.2675  0.0463 -0.1601
 3534TIP3    H110608   1.328   2.642   1.394  1.6008 -0.1438 -0.3184
 3534TIP3    H210609   1.350   2.548   1.278  1.3251  0.8340 -1.1849
 3535TIP3   OH210610   1.992   3.622   1.493 -0.4560  0.2850 -0.5035
 3535TIP3    H110611   1.901   3.596   1.477 -0.9098  1.3888  0.1724
 3535TIP3    H210612   1.990   3.718   1.493  1.0452  0.3758 -2.3407
 3536TIP3   OH210613   0.242   1.410   1.019  0.1348 -0.0718  0.5121
 3536TIP3    H110614   0.287   1.494   1.023  0.1418 -0.0388 -0.2109
 3536TIP3    H210615   0.174   1.416   1.087 -0.1937  0.7138  0.1218
 3537TIP3   OH210616   3.521   2.978   1.331  0.2695  0.6298  0.2494
 3537TIP3    H110617   3.460   2.925   1.382 -0.2834  0.2835 -0.7427
 3537TIP3    H210618   3.570   2.914   1.278 -0.1934  1.0702 -0.7302
 3538TIP3   OH210619   3.425   5.371   0.531 -0.3645 -0.1275  0.1454
 3538TIP3    H110620   3.402   5.279   0.537  1.0618 -0.5479 -0.3265
 3538TIP3    H210621   3.457   5.382   0.441 -0.2566  0.7576  0.2794
 3539TIP3   OH210622   3.364   2.109   5.051 -0.0044  0.0936  0.0770
 3539TIP3    H110623   3.297   2.177   5.056 -0.1567 -0.1131  1.1184
 3539TIP3    H210624   3.326   2.035   5.097  0.7626 -0.1817  0.2761
 3540TIP3   OH210625   0.871   1.451   1.084  0.4419  0.2558  0.0477
 3540TIP3    H110626   0.893   1.478   1.173 -1.1119 -1.2982  0.9905
 3540TIP3    H210627   0.933   1.381   1.064 -0.2134 -0.4918  0.5768
 3541TIP3   OH210628   4.699   3.136   0.397  0.5322 -0.2597  0.3850
 3541TIP3    H110629   4.717   3.149   0.490  1.6408 -0.5407  0.2257
 3541TIP3    H210630   4.765   3.072   0.368  0.3629  0.0056 -0.6451
 3542TIP3   OH210631   4.613   3.732   0.686 -0.0402  0.4504  0.2499
 3542TIP3    H110632   4.608   3.641   0.656 -0.1105  0.5146  0.0687
 3542TIP3    H210633   4.534   3.773   0.652  0.3785  0.7798 -0.3289
 3543TIP3   OH210634   4.992   5.867   3.501 -0.6612 -0.2450 -0.4100
 3543TIP3    H110635   5.082   5.843   3.479 -0.4607 -0.1881  0.3429
 3543TIP3    H210636   4.973   5.944   3.447 -0.2568 -0.2452 -0.5505
 3544TIP3   OH210637   2.913   0.281   4.917  0.4395  0.3969 -0.1128
 3544TIP3    H110638   2.826   0.320   4.930 -0.2865 -1.2615  0.3503
 3544TIP3    H210639   2.939   0.253   5.005  0.8503 -0.2925 -0.4467
 3545TIP3   OH210640   0.666   0.733   1.202 -0.1614 -0.5311 -0.1353
 3545TIP3    H110641   0.575   0.708   1.190 -0.5731  1.0644 -0.6181
 3545TIP3    H210642   0.716   0.665   1.157 -1.1015 -1.4140  0.1218
 3546TIP3   OH210643   4.016   3.703   2.381 -0.0385 -0.0471  0.2033
 3546TIP3    H110644   4.044   3.637   2.444 -0.2215 -1.5473 -1.2153
 3546TIP3    H210645   4.094   3.756   2.365  0.0603  0.2274  1.5084
 3547TIP3   OH210646   5.796   1.172   1.892  0.1101  0.6014  0.4394
 3547TIP3    H110647   5.741   1.109   1.939 -1.1671  1.3239 -0.0466
 3547TIP3    H210648   5.821   1.127   1.812 -0.2646  0.4742  0.3914
 3548TIP3   OH210649   5.026   3.455   0.395 -0.1369  0.3470 -0.0229
 3548TIP3    H110650   4.944   3.468   0.442 -0.9523 -0.6421 -1.1166
 3548TIP3    H210651   5.066   3.379   0.436  0.7466  1.4176  1.1617
 3549TIP3   OH210652   2.932   5.278   2.045 -0.2496 -0.2751 -0.2623
 3549TIP3    H110653   3.016   5.286   1.999  0.3065  0.1203  0.7927
 3549TIP3    H210654   2.952   5.301   2.136 -1.2138 -1.5588  0.3023
 3550TIP3   OH210655   5.160   5.703   0.386  0.3604 -0.0235  0.5183
 3550TIP3    H110656   5.253   5.681   0.384  0.3240 -0.1891 -0.8880
 3550TIP3    H210657   5.157   5.796   0.360  0.0868 -0.3520 -0.7284
 3551TIP3   OH210658   4.420   1.187   1.936  0.3766  0.0556 -0.3162
 3551TIP3    H110659   4.395   1.108   1.983 -0.7705  0.4337 -0.2638
 3551TIP3    H210660   4.347   1.248   1.950  1.4209  1.2880  0.0277
 3552TIP3   OH210661   4.620   4.201   1.908  0.4693 -0.2713 -0.4763
 3552TIP3    H110662   4.532   4.214   1.944  0.6746  0.6519 -0.2742
 3552TIP3    H210663   4.605   4.152   1.827 -0.1889 -0.5234 -0.2130
 3553TIP3   OH210664   4.367   0.354   1.205 -0.4112 -0.8420 -0.8542
 3553TIP3    H110665   4.293   0.297   1.228  0.3691 -1.6145 -0.2003
 3553TIP3    H210666   4.326   0.437   1.180 -1.5121 -1.3244 -0.7188
 3554TIP3   OH210667   0.831   3.201   1.268 -0.6507  0.1087  0.4463
 3554TIP3    H110668   0.849   3.208   1.175 -2.1531  0.8875  0.1857
 3554TIP3    H210669   0.779   3.121   1.277 -0.5505  0.0614  0.6064
 3555TIP3   OH210670   0.198   2.781   0.737  0.0076 -0.2431 -0.3889
 3555TIP3    H110671   0.210   2.864   0.783  1.0013  0.0859 -1.1956
 3555TIP3    H210672   0.213   2.802   0.644 -0.1936 -1.2254 -0.6614
 3556TIP3   OH210673   3.233   4.695   2.111  0.4348  0.1344  0.1605
 3556TIP3    H110674   3.295   4.626   2.086 -0.3177 -1.1916  1.7357
 3556TIP3    H210675   3.281   4.748   2.175  1.0767  1.2273 -1.1880
 3557TIP3   OH210676   5.242   0.083   1.083 -0.2544  0.2519 -1.1434
 3557TIP3    H110677   5.223   0.143   1.010 -0.9198  2.3055  0.5978
 3557TIP3    H210678   5.160   0.037   1.098 -0.1833 -0.0061 -1.5393
 3558TIP3   OH210679   6.120   3.720   1.279 -0.0512  0.1468  0.0968
 3558TIP3    H110680   6.072   3.754   1.355  0.2616 -1.7364  1.1972
 3558TIP3    H210681   6.179   3.654   1.315  1.6127  0.6531 -1.5485
 3559TIP3   OH210682   3.660   0.445   0.611  0.0871  0.7630  0.1524
 3559TIP3    H110683   3.731   0.486   0.562 -0.9449  1.3330 -0.9298
 3559TIP3    H210684   3.668   0.480   0.699  0.0848  2.2205 -0.3953
 3560TIP3   OH210685   5.548   4.155   3.006  0.2384  0.0621 -0.1371
 3560TIP3    H110686   5.561   4.136   2.914  2.4156 -0.3789  0.2065
 3560TIP3    H210687   5.466   4.110   3.029  0.1826 -0.6302 -1.6072
 3561TIP3   OH210688   2.583   5.907   5.076 -0.2529 -0.4082 -0.4307
 3561TIP3    H110689   2.515   5.879   5.015 -1.3938  1.4012 -0.0666
 3561TIP3    H210690   2.647   5.837   5.074 -1.8779 -1.9559 -1.1845
 3562TIP3   OH210691   2.900   2.280   0.304 -0.2530  0.4272 -0.8126
 3562TIP3    H110692   2.902   2.375   0.289  0.7137  0.5049 -0.3015
 3562TIP3    H210693   2.889   2.271   0.399  0.3725  0.0402 -0.7741
 3563TIP3   OH210694   5.593   0.621   1.379  0.3857 -0.0643  0.3778
 3563TIP3    H110695   5.665   0.649   1.323 -0.9921  1.9213 -0.5413
 3563TIP3    H210696   5.539   0.566   1.323  0.0837  0.2341  0.3680
 3564TIP3   OH210697   0.563   5.177   1.812 -0.5713 -0.4915 -0.5058
 3564TIP3    H110698   0.599   5.118   1.745  0.2045 -2.5289  1.5721
 3564TIP3    H210699   0.558   5.123   1.891 -0.9438  1.9590  1.2480
 3565TIP3   OH210700   0.069   0.843   4.617  0.1738 -0.1617  0.3498
 3565TIP3    H110701   0.122   0.905   4.566  0.6726  0.4039  1.5360
 3565TIP3    H210702   0.018   0.797   4.551  0.9137  0.4493 -0.6898
 3566TIP3   OH210703   6.251   3.442   0.915  0.0312  0.1336 -0.0026
 3566TIP3    H110704   6.287   3.525   0.948  0.6481  0.1665 -0.7193
 3566TIP3    H210705   6.175   3.425   0.970  0.5773  0.5787  0.9146
 3567TIP3   OH210706   5.629   1.366   1.735  0.2077  0.6086  0.3277
 3567TIP3    H110707   5.567   1.319   1.791  0.2112 -0.5299 -0.5957
 3567TIP3    H210708   5.714   1.328   1.755  0.3689  0.9634  0.3295
 3568TIP3   OH210709   5.529   2.108   2.097  0.5874  0.0728  0.3546
 3568TIP3    H110710   5.512   2.086   2.188 -1.6914 -2.6049 -0.5528
 3568TIP3    H210711   5.576   2.032   2.062 -0.8307 -0.1588 -1.2238
 3569TIP3   OH210712   5.935   1.489   0.652 -0.4703  0.2894  0.2085
 3569TIP3    H110713   6.006   1.492   0.588  0.5052  0.7733  1.2968
 3569TIP3    H210714   5.971   1.440   0.726 -2.3981 -2.5514 -0.5469
 3570TIP3   OH210715   1.445   2.986   2.554  0.3119  0.4765  0.3296
 3570TIP3    H110716   1.479   3.057   2.610  1.1208 -0.2478  0.7718
 3570TIP3    H210717   1.412   2.921   2.616 -0.9801  0.7070 -0.0819
 3571TIP3   OH210718   4.088   1.723   3.648 -0.0617 -0.7087 -0.0898
 3571TIP3    H110719   4.038   1.805   3.646 -0.7026 -1.0378 -3.8401
 3571TIP3    H210720   4.077   1.691   3.737 -1.1269  2.4391  1.0661
 3572TIP3   OH210721   1.712   0.341   1.604 -0.6390 -0.2007  0.5275
 3572TIP3    H110722   1.753   0.418   1.566 -0.5928  0.1747  1.3212
 3572TIP3    H210723   1.687   0.368   1.692 -1.4156 -0.8255  0.5096
 3573TIP3   OH210724   6.358   2.386   5.015  0.1835  0.2791  0.3115
 3573TIP3    H110725   6.289   2.440   4.976  1.8535  1.1514 -1.6529
 3573TIP3    H210726   6.313   2.308   5.046 -2.0740  2.0217  1.7368
 3574TIP3   OH210727   0.621   0.960   1.558 -0.0036 -0.1813 -0.2127
 3574TIP3    H110728   0.640   1.051   1.534 -1.7459 -0.1241 -1.6027
 3574TIP3    H210729   0.684   0.908   1.509  2.4967  0.2835  2.2822
 3575TIP3   OH210730   1.730   4.331   4.759 -0.3300 -0.2516 -0.3165
 3575TIP3    H110731   1.804   4.392   4.760 -0.4858 -0.0596 -0.1101
 3575TIP3    H210732   1.672   4.364   4.828 -1.0447  0.1407 -1.0900
 3576TIP3   OH210733   5.618   4.770   1.957 -0.0921 -0.0706 -0.0305
 3576TIP3    H110734   5.707   4.746   1.982 -0.3346 -1.2699 -0.2608
 3576TIP3    H210735   5.610   4.744   1.865 -1.0698 -1.1641  0.3347
 3577TIP3   OH210736   3.805   4.482   4.146  0.0116  0.3131 -0.5155
 3577TIP3    H110737   3.815   4.518   4.233 -0.8218 -0.3359 -0.1377
 3577TIP3    H210738   3.881   4.515   4.097 -0.0665  1.5216  0.1487
 3578TIP3   OH210739   6.051   4.740   3.232  0.2123 -0.0981  0.1660
 3578TIP3    H110740   6.041   4.647   3.213 -4.1083  0.0855  0.5957
 3578TIP3    H210741   6.084   4.778   3.151 -0.4314 -1.6878 -0.8945
 3579TIP3   OH210742   6.340   2.772   2.531 -1.1307  0.4470  0.2397
 3579TIP3    H110743   6.331   2.707   2.462 -1.4337  1.1665 -0.4131
 3579TIP3    H210744   6.365   2.852   2.485 -1.5555  0.9908  0.9321
 3580TIP3   OH210745   4.347   5.821   4.699 -0.2500 -0.2210 -0.0755
 3580TIP3    H110746   4.267   5.822   4.646  1.7110 -0.8871 -3.3201
 3580TIP3    H210747   4.368   5.913   4.712 -3.0184  0.1385  3.6088
 3581TIP3   OH210748   3.725   1.139   0.071  0.1256  0.0499 -0.1489
 3581TIP3    H110749   3.812   1.162   0.039  0.2307  0.2964  0.3044
 3581TIP3    H210750   3.702   1.210   0.132 -0.1720 -0.2786  0.1302
 3582TIP3   OH210751   5.542   3.472   2.210 -0.0095 -0.4238  0.5040
 3582TIP3    H110752   5.560   3.502   2.299  0.9915 -0.1195  0.2130
 3582TIP3    H210753   5.465   3.521   2.183  0.5945  0.6411  0.6598
 3583TIP3   OH210754   6.326   3.688   3.857 -0.0612 -0.3758 -0.3950
 3583TIP3    H110755   6.372   3.738   3.789 -0.5473 -0.0753 -0.5070
 3583TIP3    H210756   6.325   3.746   3.933 -0.9047 -0.0744 -0.6219
 3584TIP3   OH210757   0.955   5.109   2.621 -0.0774  0.1856  0.2766
 3584TIP3    H110758   0.921   5.178   2.564 -0.9130  0.6655  1.3209
 3584TIP3    H210759   0.881   5.084   2.676 -0.3661 -2.8802 -1.2501
 3585TIP3   OH210760   4.372   4.655   3.177 -0.2124 -0.0689 -0.7528
 3585TIP3    H110761   4.430   4.584   3.204 -1.3128 -0.6144  0.2751
 3585TIP3    H210762   4.422   4.735   3.195  0.2978 -0.5301 -0.0404
 3586TIP3   OH210763   0.879   1.261   2.153  0.2628  0.2700  0.2027
 3586TIP3    H110764   0.851   1.177   2.117  1.3752  0.2283 -0.6344
 3586TIP3    H210765   0.865   1.253   2.247 -0.7376 -0.4097  0.0078
 3587TIP3   OH210766   3.575   5.104   1.900 -0.4118 -0.1035  0.0298
 3587TIP3    H110767   3.489   5.138   1.924 -0.2170  0.1608  0.3801
 3587TIP3    H210768   3.598   5.151   1.820 -1.3705 -1.5030 -1.1030
 3588TIP3   OH210769   0.761   2.553   4.200  0.2328 -0.9161 -0.6723
 3588TIP3    H110770   0.831   2.513   4.148 -1.0513 -2.5818 -1.1916
 3588TIP3    H210771   0.784   2.646   4.203  1.6746 -1.1792 -2.0931
 3589TIP3   OH210772   2.073   3.880   4.389  0.6669  0.4302  0.0473
 3589TIP3    H110773   2.045   3.790   4.408  0.4801 -0.3869 -3.3966
 3589TIP3    H210774   1.991   3.928   4.377  0.4785 -0.4334 -3.6081
 3590TIP3   OH210775   1.105   0.219   3.027  0.0422  0.2934  0.4494
 3590TIP3    H110776   1.034   0.157   3.043 -1.2155  1.4371 -0.4868
 3590TIP3    H210777   1.167   0.171   2.972 -0.2606 -0.5356  0.8068
 3591TIP3   OH210778   3.182   2.344   0.194 -0.1209  0.6272  0.1391
 3591TIP3    H110779   3.250   2.360   0.260  0.4360 -1.5860  0.1813
 3591TIP3    H210780   3.230   2.320   0.115 -0.8452  0.0441 -0.1316
 3592TIP3   OH210781   3.340   5.488   3.701  0.2986  0.1377 -0.1988
 3592TIP3    H110782   3.269   5.460   3.757  0.1383 -1.5365 -1.1775
 3592TIP3    H210783   3.298   5.536   3.630 -0.0342 -1.7515 -1.3465
 3593TIP3   OH210784   2.865   0.027   3.411  0.5397 -0.2702 -0.2335
 3593TIP3    H110785   2.935   0.026   3.477  0.1077 -1.0874  0.2314
 3593TIP3    H210786   2.889   0.098   3.352  1.0142  0.4032  0.7291
 3594TIP3   OH210787   1.879   1.265   4.411  0.6667  0.0321  0.7336
 3594TIP3    H110788   1.790   1.300   4.412  0.2941 -0.4816 -2.3734
 3594TIP3    H210789   1.929   1.323   4.468 -1.6176  0.3509  2.5384
 3595TIP3   OH210790   2.780   4.482   3.760 -0.1399 -0.0849  0.0657
 3595TIP3    H110791   2.764   4.574   3.739 -1.5651 -0.8401 -2.5135
 3595TIP3    H210792   2.694   4.447   3.782  0.1837 -1.1079 -0.2451
 3596TIP3   OH210793   5.837   4.900   4.748 -0.5873  0.2821  0.6639
 3596TIP3    H110794   5.821   4.989   4.716 -2.1418 -0.2012 -0.0053
 3596TIP3    H210795   5.750   4.860   4.751  0.2033 -1.6511 -0.3405
 3597TIP3   OH210796   4.583   0.930   1.577 -0.6234 -0.0768  0.1794
 3597TIP3    H110797   4.497   0.972   1.580 -1.4005 -1.5487 -0.3497
 3597TIP3    H210798   4.597   0.911   1.484  0.2303  0.0240  0.2740
 3598TIP3   OH210799   4.500   0.967   3.292  0.4069  0.0505  0.9614
 3598TIP3    H110800   4.449   1.022   3.351  0.0729 -1.2537  1.9532
 3598TIP3    H210801   4.498   1.013   3.208 -1.5105  0.5770  1.2383
 3599TIP3   OH210802   5.318   5.104   2.034 -0.0905  0.5988  0.4706
 3599TIP3    H110803   5.392   5.151   2.073 -0.1258  1.1060 -0.0575
 3599TIP3    H210804   5.277   5.168   1.975 -1.2454  0.4844  1.1121
 3600TIP3   OH210805   2.135   0.350   4.353  0.1134  0.0458  0.0882
 3600TIP3    H110806   2.227   0.372   4.341  0.2892  0.0890  1.4307
 3600TIP3    H210807   2.097   0.362   4.266  1.6956 -1.7114 -0.9156
 3601TIP3   OH210808   2.522   2.479   3.820 -0.1179 -0.3293  0.4099
 3601TIP3    H110809   2.616   2.495   3.821 -0.4399  2.2910 -0.8943
 3601TIP3    H210810   2.488   2.544   3.758 -2.7869 -1.1973  0.8437
 3602TIP3   OH210811   0.553   0.880   2.304  1.0124 -0.0268 -0.7170
 3602TIP3    H110812   0.566   0.806   2.362 -2.0409  1.3337  1.9778
 3602TIP3    H210813   0.534   0.840   2.219 -0.7775 -2.4222  0.6756
 3603TIP3   OH210814   0.869   1.878   0.771  0.4828  0.0676 -0.1674
 3603TIP3    H110815   0.856   1.960   0.819 -3.6537  0.3005 -1.2887
 3603TIP3    H210816   0.859   1.810   0.837 -0.5577  0.4453  0.0833
 3604TIP3   OH210817   3.198   2.978   4.756 -0.3355  0.6934  0.1144
 3604TIP3    H110818   3.206   2.995   4.850  0.1375 -0.9958  0.4071
 3604TIP3    H210819   3.116   2.931   4.747  1.0559 -1.9045  0.1577
 3605TIP3   OH210820   0.230   2.675   1.481  0.4601 -0.4115  0.1133
 3605TIP3    H110821   0.211   2.622   1.404  1.1498 -0.1702 -0.2310
 3605TIP3    H210822   0.146   2.712   1.506  0.6264  2.1322 -2.4725
 3606TIP3   OH210823   4.738   2.945   3.032 -0.1887  0.0379  0.3158
 3606TIP3    H110824   4.825   2.970   3.064 -0.4101  0.9311  0.2485
 3606TIP3    H210825   4.681   2.955   3.108 -0.1045 -1.3962  0.5998
 3607TIP3   OH210826   3.801   1.183   4.871  0.2613  0.6364 -0.9958
 3607TIP3    H110827   3.818   1.243   4.943 -1.3408 -0.3900  0.3075
 3607TIP3    H210828   3.877   1.124   4.870 -0.5080 -0.5135  1.1609
 3608TIP3   OH210829   5.130   5.801   3.135  0.3967 -0.2169  0.0812
 3608TIP3    H110830   5.117   5.734   3.201 -0.0303 -0.8537 -0.6328
 3608TIP3    H210831   5.069   5.778   3.065 -1.4067  2.1598  0.7395
 3609TIP3   OH210832   0.597   2.121   0.597  0.1228 -0.1659  0.4739
 3609TIP3    H110833   0.557   2.161   0.674  1.4998 -0.2254  1.2530
 3609TIP3    H210834   0.534   2.055   0.568 -1.2257  1.0926  0.4399
 3610TIP3   OH210835   0.180   1.974   2.433  0.4959  0.4829 -0.0294
 3610TIP3    H110836   0.204   1.991   2.341  0.5834 -0.0500 -0.1049
 3610TIP3    H210837   0.263   1.979   2.480  0.3466  1.5714  0.1530
 3611TIP3   OH210838   1.083   0.251   0.804 -0.3047  0.4062  0.7555
 3611TIP3    H110839   1.075   0.306   0.882 -1.5143 -0.9451  1.6365
 3611TIP3    H210840   1.033   0.172   0.825  0.8938 -0.7999 -0.6801
 3612TIP3   OH210841   1.529   5.478   3.290 -0.0878  0.0949  0.5764
 3612TIP3    H110842   1.607   5.434   3.258 -0.0556  0.8988 -0.5127
 3612TIP3    H210843   1.479   5.410   3.335  1.8852 -0.1368  2.5429
 3613TIP3   OH210844   4.493   3.066   4.795 -0.0530  0.2132 -0.1993
 3613TIP3    H110845   4.513   3.013   4.718 -0.1789  1.2661 -0.9711
 3613TIP3    H210846   4.424   3.016   4.840 -1.0458  0.2960 -1.5609
 3614TIP3   OH210847   1.937   0.973   2.850 -0.1361 -0.2104  0.8854
 3614TIP3    H110848   2.012   0.926   2.887 -0.0005 -0.1111  0.7347
 3614TIP3    H210849   1.959   1.065   2.860 -0.1176 -0.1824  0.5955
 3615TIP3   OH210850   5.919   1.149   4.981 -0.1173  0.6769 -0.3457
 3615TIP3    H110851   5.902   1.206   5.056 -0.1526  0.3096 -0.0701
 3615TIP3    H210852   5.864   1.072   4.996  0.0220  0.5162 -0.6470
 3616TIP3   OH210853   3.352   0.122   3.740 -0.1968 -0.8447  0.4760
 3616TIP3    H110854   3.418   0.054   3.734  1.4580  0.5499  1.7430
 3616TIP3    H210855   3.321   0.118   3.831  1.0890  1.0370  1.0558
 3617TIP3   OH210856   5.625   1.599   1.396  0.7201  0.4162  0.4575
 3617TIP3    H110857   5.703   1.617   1.344  0.0928 -0.0506 -0.6826
 3617TIP3    H210858   5.558   1.577   1.332 -0.4821  1.2383  1.3860
 3618TIP3   OH210859   0.438   1.051   0.762 -0.1651 -0.0742 -0.1716
 3618TIP3    H110860   0.415   1.141   0.784 -1.8668 -0.5849  0.2464
 3618TIP3    H210861   0.532   1.045   0.781 -0.1914  1.3779  0.5483
 3619TIP3   OH210862   1.966   5.607   3.132 -0.1475  0.4090  0.1516
 3619TIP3    H110863   1.975   5.691   3.177  0.4316  0.3632  0.1243
 3619TIP3    H210864   2.026   5.549   3.178  3.2768  1.2226 -2.8462
 3620TIP3   OH210865   2.560   1.593   3.991  0.2838  0.1890  0.1260
 3620TIP3    H110866   2.573   1.501   4.014 -1.1071 -0.0328  0.1185
 3620TIP3    H210867   2.465   1.607   4.000  0.2810  1.2490 -1.2311
 3621TIP3   OH210868   4.656   5.333   1.293 -0.0109 -0.2871 -0.1554
 3621TIP3    H110869   4.662   5.373   1.206 -0.2005 -0.2693 -0.1607
 3621TIP3    H210870   4.582   5.273   1.287 -0.7786  0.5786  0.3358
 3622TIP3   OH210871   4.420  -0.034   1.012  0.2105 -0.1409  0.4759
 3622TIP3    H110872   4.472   0.045   1.021 -0.3520  0.2797  0.1227
 3622TIP3    H210873   4.342  -0.006   0.963  0.5084 -1.1268 -0.6218
 3623TIP3   OH210874   4.756   0.058   3.298 -0.5842  0.2184 -0.2624
 3623TIP3    H110875   4.694   0.131   3.295 -2.2804 -1.1612 -0.2001
 3623TIP3    H210876   4.701  -0.020   3.305  1.2194 -0.9401  2.8655
 3624TIP3   OH210877   1.303   2.096   3.324  0.7373 -0.1135 -0.8143
 3624TIP3    H110878   1.348   2.021   3.287 -1.6691 -1.6461 -0.8368
 3624TIP3    H210879   1.272   2.065   3.409 -0.3606  0.8184 -0.8586
 3625TIP3   OH210880   2.506   1.141   2.628 -0.3722 -0.5542 -0.0291
 3625TIP3    H110881   2.577   1.097   2.581 -0.3550  0.4208 -0.9560
 3625TIP3    H210882   2.451   1.070   2.661  0.0178 -1.2830 -0.9160
 3626TIP3   OH210883   2.712   3.980   3.591 -0.2188  0.3304 -0.1723
 3626TIP3    H110884   2.644   3.936   3.641  0.6070  0.0431  0.7488
 3626TIP3    H210885   2.785   3.988   3.653  1.4556 -1.5000 -1.7859
 3627TIP3   OH210886   1.895   0.477   0.804  0.3503  0.0192  0.6233
 3627TIP3    H110887   1.946   0.413   0.854 -0.7445 -0.1217  1.5977
 3627TIP3    H210888   1.900   0.557   0.856 -1.0538 -0.2097  1.1364
 3628TIP3   OH210889   0.922   2.048   4.956  0.3681  0.0271 -0.1624
 3628TIP3    H110890   1.004   2.005   4.932  0.3747  1.1865 -2.4841
 3628TIP3    H210891   0.924   2.131   4.910 -2.7512 -0.5241 -1.5225
 3629TIP3   OH210892   3.050   5.900   3.987 -0.1145 -0.1985  0.2278
 3629TIP3    H110893   2.984   5.959   3.949 -0.5119 -0.1877  0.9114
 3629TIP3    H210894   3.009   5.869   4.067  0.3788 -0.8698  0.2193
 3630TIP3   OH210895   3.199   4.288   3.682  0.4399 -0.6995 -0.5372
 3630TIP3    H110896   3.217   4.198   3.712  0.2537 -0.3302  0.7704
 3630TIP3    H210897   3.216   4.342   3.759 -1.9834  0.1203 -0.4806
 3631TIP3   OH210898   5.458   5.833   3.723  0.3291 -0.2704 -0.1513
 3631TIP3    H110899   5.451   5.833   3.819 -1.7237 -0.2599 -0.2576
 3631TIP3    H210900   5.394   5.897   3.694  1.4506  0.2698 -1.5424
 3632TIP3   OH210901   0.726   3.475   3.985 -0.1947  0.2386  0.1818
 3632TIP3    H110902   0.760   3.539   3.922 -0.0386 -0.9026 -0.9089
 3632TIP3    H210903   0.634   3.462   3.959 -0.1544 -0.1697  0.2404
 3633TIP3   OH210904   0.168   4.676   2.017  0.5665 -0.1541  0.3119
 3633TIP3    H110905   0.158   4.621   1.939  0.7041 -0.3313  0.4169
 3633TIP3    H210906   0.079   4.698   2.042  0.5311  0.1658 -0.0799
 3634TIP3   OH210907   1.614   4.160   5.113  0.3402  0.1097 -0.4727
 3634TIP3    H110908   1.620   4.246   5.070  0.0101 -0.6376 -2.0594
 3634TIP3    H210909   1.704   4.142   5.141  0.7387  0.2494 -1.6085
 3635TIP3   OH210910   4.500   3.562  -0.002 -0.0226 -0.3924 -0.1389
 3635TIP3    H110911   4.451   3.527   0.072 -1.5301  1.0303 -0.4205
 3635TIP3    H210912   4.450   3.639  -0.030  0.8254 -0.5600 -2.2682
 3636TIP3   OH210913   0.608   2.438   3.215 -0.1675  0.3241  0.3820
 3636TIP3    H110914   0.663   2.488   3.275 -1.1674 -0.1256  1.7042
 3636TIP3    H210915   0.597   2.495   3.139  4.3688 -0.5731 -1.2875
 3637TIP3   OH210916   6.289   5.229   2.435  0.1361 -0.6790 -0.0925
 3637TIP3    H110917   6.300   5.138   2.408 -0.6129 -0.8689  0.2089
 3637TIP3    H210918   6.352   5.240   2.506  0.7596 -0.7375 -0.6315
 3638TIP3   OH210919   4.083   4.403   1.918 -0.3678  0.3931  0.8175
 3638TIP3    H110920   4.165   4.367   1.884 -0.8421 -1.1567  1.2150
 3638TIP3    H210921   4.095   4.498   1.916  1.0641  0.2180 -0.0223
 3639TIP3   OH210922   6.123   2.029   3.083  0.1139  0.2534  0.0984
 3639TIP3    H110923   6.170   2.108   3.058 -0.9288  0.9969  0.4045
 3639TIP3    H210924   6.031   2.053   3.076 -0.2539 -1.2517 -0.8083
 3640TIP3   OH210925   2.348   0.084   0.160  0.5220 -0.0471  0.2262
 3640TIP3    H110926   2.271   0.131   0.127  0.5706  0.8270  1.3273
 3640TIP3    H210927   2.396   0.060   0.081  0.5278  1.7876 -0.3775
 3641TIP3   OH210928   4.678   3.858   1.523 -0.1992 -0.4262 -0.4256
 3641TIP3    H110929   4.745   3.926   1.524  0.4270 -1.0307  1.1565
 3641TIP3    H210930   4.722   3.781   1.488 -0.7521 -0.2144 -1.6581
 3642TIP3   OH210931   6.101   5.113   5.088  0.4461 -0.4289 -0.4846
 3642TIP3    H110932   6.012   5.077   5.088  0.0314  0.4772 -2.7241
 3642TIP3    H210933   6.154   5.044   5.127 -0.9869 -1.6717 -0.6347
 3643TIP3   OH210934   0.493   1.079   3.025  0.2207 -0.2642  0.0331
 3643TIP3    H110935   0.521   0.991   2.998 -0.1433  0.2337 -2.1491
 3643TIP3    H210936   0.559   1.106   3.089  1.9131 -1.0742 -1.2911
 3644TIP3   OH210937   1.749   5.273   0.570  0.1927 -0.0445 -0.3507
 3644TIP3    H110938   1.737   5.204   0.505 -1.4005  1.0728 -1.3102
 3644TIP3    H210939   1.824   5.244   0.622  0.3200 -1.8917 -1.4757
 3645TIP3   OH210940   5.478   5.800   0.147 -0.6931  0.4349  0.3131
 3645TIP3    H110941   5.550   5.736   0.149  0.6253  1.8808  1.7298
 3645TIP3    H210942   5.519   5.881   0.115 -1.6230  1.3482  1.3646
 3646TIP3   OH210943   2.940   0.994   4.813  0.0529  0.0018 -0.0051
 3646TIP3    H110944   2.953   1.080   4.853 -0.4890 -0.6182  1.5575
 3646TIP3    H210945   3.013   0.941   4.844  0.0086 -0.3003 -0.4048
 3647TIP3   OH210946   5.790   2.847   1.782 -0.1968 -0.7650 -0.0027
 3647TIP3    H110947   5.872   2.892   1.761 -0.2531 -1.6009 -2.3207
 3647TIP3    H210948   5.724   2.916   1.778  0.3432 -0.0537  2.0343
 3648TIP3   OH210949   0.054   0.367   2.716  0.1680  0.3011 -0.0493
 3648TIP3    H110950  -0.028   0.403   2.683  1.1764  1.4296 -1.4405
 3648TIP3    H210951   0.028   0.311   2.789 -2.0479 -1.1225 -1.7928
 3649TIP3   OH210952   3.938   2.117   1.127 -0.3894  0.4507  0.2393
 3649TIP3    H110953   3.937   2.055   1.200 -0.1196  0.7466  0.5005
 3649TIP3    H210954   4.012   2.090   1.073 -0.6668  0.1532  0.0012
 3650TIP3   OH210955   4.371   1.282   0.887  0.2019 -0.1290 -0.8281
 3650TIP3    H110956   4.347   1.335   0.964  0.9418 -1.0819  0.0936
 3650TIP3    H210957   4.460   1.310   0.865  0.9704 -1.5821  0.2515
 3651TIP3   OH210958  -0.017   5.768   2.228 -0.5138  0.7369 -0.4651
 3651TIP3    H110959   0.057   5.719   2.193 -0.9380  0.2566 -0.7218
 3651TIP3    H210960   0.020   5.851   2.258  0.2873  0.1443  0.2608
 3652TIP3   OH210961   6.276   3.374   1.245  0.6812 -0.0435 -0.3573
 3652TIP3    H110962   6.188   3.410   1.258  1.7791  2.4281  1.0262
 3652TIP3    H210963   6.266   3.309   1.175 -1.7961  1.9448 -2.0150
 3653TIP3   OH210964   0.441   0.230   0.239 -0.2462 -0.3248  0.2849
 3653TIP3    H110965   0.532   0.237   0.269 -0.0415 -3.1870  0.5806
 3653TIP3    H210966   0.404   0.317   0.256  2.1401  0.6286  1.0762
 3654TIP3   OH210967   4.002   3.255   3.131  0.3840  0.0512 -0.2154
 3654TIP3    H110968   3.972   3.316   3.199  0.3200  0.6708 -0.7843
 3654TIP3    H210969   3.959   3.173   3.152  1.1942 -0.0795  1.1215
 3655TIP3   OH210970   0.944   2.113   2.463 -0.6867 -0.7204 -0.5214
 3655TIP3    H110971   0.901   2.148   2.541 -1.0233  0.8743 -1.3614
 3655TIP3    H210972   1.034   2.145   2.469 -0.5059 -1.2411 -0.4161
 3656TIP3   OH210973   2.255   5.930   0.235 -0.0385 -0.5231  0.0147
 3656TIP3    H110974   2.181   5.904   0.290  0.1500 -1.2624 -0.0788
 3656TIP3    H210975   2.215   5.965   0.156 -0.2912 -0.9906 -0.0679
 3657TIP3   OH210976   1.424   0.983   2.132 -0.2599  0.2178  0.3070
 3657TIP3    H110977   1.441   0.938   2.049  0.1507 -1.8167  1.4350
 3657TIP3    H210978   1.344   0.942   2.166  0.3034  0.0724  1.5191
 3658TIP3   OH210979   0.990   1.850   2.404 -0.1549 -0.2344  0.2388
 3658TIP3    H110980   0.937   1.814   2.476 -0.1527  0.7898  0.7714
 3658TIP3    H210981   0.974   1.944   2.408  0.5806 -0.0699 -0.5241
 3659TIP3   OH210982   2.757   1.134   0.151 -0.6657 -0.1980 -0.1460
 3659TIP3    H110983   2.744   1.130   0.246 -1.1982 -0.8867 -0.2387
 3659TIP3    H210984   2.821   1.205   0.139  0.7613 -1.2485  0.8604
 3660TIP3   OH210985   3.277   1.027   1.179 -0.0747 -0.3568 -0.4406
 3660TIP3    H110986   3.211   1.055   1.243  0.3540 -1.3827  0.5006
 3660TIP3    H210987   3.351   1.086   1.193  0.7192 -1.6649  1.3384
 3661TIP3   OH210988   3.407   1.374   3.033  0.3977 -0.1458  0.4263
 3661TIP3    H110989   3.371   1.403   2.949 -2.0071  0.2514  1.5118
 3661TIP3    H210990   3.439   1.285   3.016 -0.2086 -0.1414 -0.8629
 3662TIP3   OH210991   2.606   2.559   2.748  0.4115 -0.3021 -0.2421
 3662TIP3    H110992   2.627   2.647   2.716 -0.0787  0.3240  1.1066
 3662TIP3    H210993   2.515   2.564   2.774  0.1272 -1.4731 -0.9430
 3663TIP3   OH210994   1.742   2.353   5.135 -0.1347  0.0253  0.2879
 3663TIP3    H110995   1.823   2.402   5.147  0.1981 -0.3441 -0.3619
 3663TIP3    H210996   1.701   2.392   5.058  0.4603 -1.1199 -0.6381
 3664TIP3   OH210997   2.993   4.836   0.353 -0.3412  0.2882 -0.4761
 3664TIP3    H110998   3.076   4.791   0.332 -0.9754 -0.7930 -0.7604
 3664TIP3    H210999   2.964   4.872   0.270 -1.3267 -1.3858 -0.9046
 3665TIP3   OH211000   3.478   5.257   4.978  0.7086 -0.3024  0.2428
 3665TIP3    H111001   3.495   5.163   4.982 -1.1195 -0.6635  0.2557
 3665TIP3    H211002   3.443   5.272   4.890  0.2695  0.2358  0.5035
 3666TIP3   OH211003   2.045   2.456   0.317 -0.3249 -0.0075 -0.3974
 3666TIP3    H111004   2.124   2.480   0.367 -1.4192  0.0515  1.4009
 3666TIP3    H211005   2.000   2.539   0.303 -0.7279 -0.1991 -0.2386
 3667TIP3   OH211006   0.120   1.899   0.357  0.4319 -0.2398  0.1928
 3667TIP3    H111007   0.042   1.845   0.360  0.3565 -0.0883  1.5441
 3667TIP3    H211008   0.191   1.838   0.334  0.0882 -0.5795  0.0276
 3668TIP3   OH211009   0.845   0.850   4.489 -0.3577 -0.0382  0.8115
 3668TIP3    H111010   0.907   0.903   4.539  0.2166 -0.4586  0.5481
 3668TIP3    H211011   0.785   0.914   4.450  1.8528  0.6951 -1.6713
 3669TIP3   OH211012   1.832   0.920   0.576 -0.3180  0.1993  0.3947
 3669TIP3    H111013   1.899   0.899   0.641 -1.1968  0.1490  1.3113
 3669TIP3    H211014   1.881   0.936   0.495  0.7644 -0.1602  0.9607
 3670TIP3   OH211015   2.287   2.653   3.493  0.2015 -0.0750  0.5351
 3670TIP3    H111016   2.350   2.587   3.462  0.1239 -0.4317  1.1150
 3670TIP3    H211017   2.331   2.694   3.568 -0.0652 -0.0037  0.6539
 3671TIP3   OH211018   4.168   4.156   0.331 -0.6547 -0.1493 -0.2060
 3671TIP3    H111019   4.136   4.069   0.307 -1.5143  0.6469 -2.1760
 3671TIP3    H211020   4.259   4.157   0.303 -0.1846 -0.8702  1.1850
 3672TIP3   OH211021   4.531   2.126   3.864 -0.1075 -0.3714 -0.0530
 3672TIP3    H111022   4.562   2.036   3.865 -0.5462 -0.5203  0.6218
 3672TIP3    H211023   4.611   2.179   3.858  0.2760 -0.7536  1.3376
 3673TIP3   OH211024   5.400   1.393   4.745  0.2594  0.5415 -0.2089
 3673TIP3    H111025   5.333   1.329   4.773  0.0632  0.6925 -0.3297
 3673TIP3    H211026   5.410   1.377   4.652 -1.7459  2.4479 -0.8280
 3674TIP3   OH211027   5.501   1.843   4.702  0.2833  0.2076 -0.0287
 3674TIP3    H111028   5.486   1.936   4.721  1.1249  0.3870 -0.1837
 3674TIP3    H211029   5.500   1.838   4.606 -1.5247 -0.2685 -0.0160
 3675TIP3   OH211030   0.460   3.921   2.679  0.1255  0.0054 -0.3505
 3675TIP3    H111031   0.388   3.859   2.679 -0.1112  0.0483  3.3277
 3675TIP3    H211032   0.457   3.961   2.766  4.1751  0.4692 -0.2317
 3676TIP3   OH211033   1.435   2.890   1.468  0.6256 -0.0229 -0.0688
 3676TIP3    H111034   1.367   2.851   1.523 -0.9454  1.1624 -1.0774
 3676TIP3    H211035   1.449   2.978   1.504 -1.2450  1.2049 -2.1071
 3677TIP3   OH211036   5.883   0.429   3.542 -0.2946 -0.4869  0.3205
 3677TIP3    H111037   5.917   0.518   3.541 -0.0611 -0.4998 -2.6824
 3677TIP3    H211038   5.916   0.391   3.623 -0.6078  2.1908  1.8093
 3678TIP3   OH211039   4.747   2.399   2.203  0.0180  0.3171  0.3404
 3678TIP3    H111040   4.794   2.462   2.149  2.3519 -0.8524  0.8795
 3678TIP3    H211041   4.727   2.327   2.144 -1.2717  0.8536  0.0886
 3679TIP3   OH211042   3.616   5.547   1.747 -0.0336 -0.4727  0.0267
 3679TIP3    H111043   3.669   5.479   1.704 -0.3320 -0.2499 -0.7238
 3679TIP3    H211044   3.618   5.620   1.686 -0.2170 -0.0263  0.5527
 3680TIP3   OH211045   3.353   0.584   4.364  0.1191 -0.4255 -0.1091
 3680TIP3    H111046   3.377   0.620   4.279  2.0304 -1.1420  0.0704
 3680TIP3    H211047   3.409   0.631   4.426  0.8608 -1.9115  0.3960
 3681TIP3   OH211048   2.138   1.545   2.750 -0.0326 -0.1607  0.9746
 3681TIP3    H111049   2.231   1.528   2.742 -0.3960 -1.7277 -0.3863
 3681TIP3    H211050   2.099   1.506   2.671 -1.7684  1.0210  1.1788
 3682TIP3   OH211051   0.663   4.546   2.697 -0.6503 -0.2177 -0.5507
 3682TIP3    H111052   0.727   4.615   2.681  0.1587 -0.8246 -0.0479
 3682TIP3    H211053   0.713   4.477   2.742 -1.7052 -0.6257  0.0326
 3683TIP3   OH211054   1.675   4.468   2.794  0.3322  0.6239  0.3606
 3683TIP3    H111055   1.673   4.544   2.737 -0.6423  0.2487 -0.1315
 3683TIP3    H211056   1.749   4.416   2.762  0.6555  1.0847  0.3471
 3684TIP3   OH211057   0.388   5.014   4.116 -0.2240 -0.3463 -0.0576
 3684TIP3    H111058   0.456   4.996   4.180  0.8198  2.1719 -0.3725
 3684TIP3    H211059   0.432   5.062   4.046 -2.5909  3.3730  0.7243
 3685TIP3   OH211060   4.828   0.623   4.688 -0.7593  0.4142  0.1983
 3685TIP3    H111061   4.752   0.671   4.721 -0.7903 -0.5655  1.6235
 3685TIP3    H211062   4.881   0.605   4.766  0.7537  0.7242 -0.7068
 3686TIP3   OH211063   5.795   4.964   3.256 -0.0975 -0.4175 -0.2703
 3686TIP3    H111064   5.876   4.917   3.275 -0.3078 -0.0337  1.7745
 3686TIP3    H211065   5.732   4.896   3.231 -0.0509 -1.1123  1.4180
 3687TIP3   OH211066   4.779   3.833   4.243  0.4901  0.3641 -0.0272
 3687TIP3    H111067   4.790   3.750   4.196 -0.6038 -0.7501  1.5759
 3687TIP3    H211068   4.684   3.842   4.252  0.6577  0.6319  1.7758
 3688TIP3   OH211069   4.141   2.061   2.039 -0.2131  0.3242  0.2540
 3688TIP3    H111070   4.075   2.129   2.029 -0.7688 -0.0419  1.2867
 3688TIP3    H211071   4.091   1.981   2.054  0.4630  0.2462  2.3251
 3689TIP3   OH211072   5.222   3.851   2.318 -0.3256  0.2103 -0.0097
 3689TIP3    H111073   5.165   3.927   2.323 -0.4989  0.0127  1.3176
 3689TIP3    H211074   5.261   3.844   2.406  0.2000 -0.8307 -0.3087
 3690TIP3   OH211075   1.297   0.651   2.566 -0.2579 -0.1533 -0.5709
 3690TIP3    H111076   1.310   0.675   2.658 -0.4788  1.2656 -0.8808
 3690TIP3    H211077   1.360   0.581   2.550  0.6105  0.4009  0.3440
 3691TIP3   OH211078   4.320   1.553   3.675  0.0464 -0.1341 -0.0953
 3691TIP3    H111079   4.245   1.602   3.643  0.9332  0.0350 -2.0176
 3691TIP3    H211080   4.396   1.597   3.637  0.9772 -1.7278 -0.1699
 3692TIP3   OH211081   3.526   3.195   1.720 -0.0728  0.4829 -0.1585
 3692TIP3    H111082   3.484   3.183   1.634  1.5667 -0.0892 -0.9158
 3692TIP3    H211083   3.542   3.107   1.751  0.6144  0.6890  0.0874
 3693TIP3   OH211084   5.309   4.753   1.408 -0.1745 -0.0593  0.0073
 3693TIP3    H111085   5.395   4.787   1.435 -0.5511 -0.4953  1.9168
 3693TIP3    H211086   5.305   4.771   1.314  2.3412 -0.7528 -0.3070
 3694TIP3   OH211087   1.626   5.737   2.662 -0.1434  0.0504  1.0241
 3694TIP3    H111088   1.629   5.643   2.681 -1.4802 -0.0946  0.6335
 3694TIP3    H211089   1.534   5.755   2.645  0.1069  1.4279  1.0061
 3695TIP3   OH211090   0.141   1.511   0.346  0.3627  0.3019 -0.5360
 3695TIP3    H111091   0.171   1.423   0.321 -2.3963 -0.2287 -2.4696
 3695TIP3    H211092   0.138   1.559   0.263  1.1423  2.0460  0.4024
 3696TIP3   OH211093   0.760   0.437   1.596  0.6887 -0.3686  0.1364
 3696TIP3    H111094   0.692   0.370   1.595  1.0019 -0.6841 -0.2060
 3696TIP3    H211095   0.714   0.518   1.573  0.2867 -0.4338  0.6760
 3697TIP3   OH211096   4.289   5.491   1.834 -1.0876  0.1637  0.0186
 3697TIP3    H111097   4.292   5.413   1.890 -2.6908  1.3462  1.8981
 3697TIP3    H211098   4.348   5.552   1.877  0.4921 -0.1008 -1.6876
 3698TIP3   OH211099   1.715   0.717   5.044  0.0583 -0.5927 -0.1244
 3698TIP3    H111100   1.727   0.640   4.988 -1.3640 -0.7863 -0.2144
 3698TIP3    H211101   1.632   0.699   5.090  0.5399  0.1459  1.0765
 3699TIP3   OH211102   1.266   2.611   1.864 -0.7116 -0.4020 -0.0317
 3699TIP3    H111103   1.307   2.527   1.882  1.7693  0.5729 -0.6375
 3699TIP3    H211104   1.280   2.662   1.943  2.3663  0.9968 -1.2942
 3700TIP3   OH211105   2.003   5.111   4.023 -0.0925 -0.0984 -0.1969
 3700TIP3    H111106   2.092   5.145   4.032 -0.9251  1.7220  2.2941
 3700TIP3    H211107   2.004   5.028   4.070  0.1403  0.2702  0.4622
 3701TIP3   OH211108   0.381   5.093   2.280  0.1190 -0.0458  0.0272
 3701TIP3    H111109   0.405   5.013   2.234  2.0192  0.1300  0.6105
 3701TIP3    H211110   0.319   5.137   2.222  0.1921 -1.2173 -0.9791
 3702TIP3   OH211111   0.681   2.790   3.923  0.0262 -0.3376 -0.0417
 3702TIP3    H111112   0.687   2.822   4.013  1.0613 -0.9149  0.0982
 3702TIP3    H211113   0.590   2.761   3.914 -0.4974  1.0896  0.3347
 3703TIP3   OH211114   4.129   3.661   4.490 -0.4628 -0.1201  0.7452
 3703TIP3    H111115   4.185   3.598   4.445 -2.3352 -1.5187  0.2352
 3703TIP3    H211116   4.170   3.672   4.576  0.5080 -1.2103  0.4489
 3704TIP3   OH211117   3.223   2.295   3.625  0.4445  0.1478  0.0769
 3704TIP3    H111118   3.201   2.272   3.535  1.4928 -0.6587  0.0137
 3704TIP3    H211119   3.280   2.224   3.655  2.0414  1.5674  0.5810
 3705TIP3   OH211120   1.499   4.516   3.107  0.0899  0.2273 -0.1555
 3705TIP3    H111121   1.535   4.498   3.020  0.8548 -0.3746  0.2709
 3705TIP3    H211122   1.575   4.539   3.161 -0.4871  1.5230  0.1384
 3706TIP3   OH211123   4.440   3.524   1.975  0.2094 -0.3296 -0.3985
 3706TIP3    H111124   4.484   3.501   2.057  1.1771 -1.3199 -1.1575
 3706TIP3    H211125   4.498   3.589   1.935 -1.4804  2.0688  0.7757
 3707TIP3   OH211126   4.059   4.549   0.276  0.1038 -0.0434  0.3682
 3707TIP3    H111127   4.131   4.606   0.250 -1.0370  0.8202 -1.0440
 3707TIP3    H211128   4.083   4.519   0.364  2.1689  0.1891 -0.0669
 3708TIP3   OH211129   1.465   4.306   4.589  0.6936 -0.4445  0.0423
 3708TIP3    H111130   1.496   4.215   4.595  0.4907 -0.5038  0.1871
 3708TIP3    H211131   1.526   4.347   4.527  1.4829 -0.3766  0.8403
 3709TIP3   OH211132   1.811   2.125   2.116  0.0148 -0.1268 -0.1718
 3709TIP3    H111133   1.728   2.091   2.080  0.2612 -1.5996  0.5651
 3709TIP3    H211134   1.786   2.171   2.196 -0.1563  0.0269 -0.3122
 3710TIP3   OH211135   3.559   2.921   1.792  0.3592 -0.0348 -0.0881
 3710TIP3    H111136   3.522   2.851   1.738  0.3326  0.0111 -0.1296
 3710TIP3    H211137   3.517   2.910   1.877 -0.8869  0.9213 -0.5355
 3711TIP3   OH211138   5.881   0.657   4.664 -0.8552  0.2409  0.0006
 3711TIP3    H111139   5.797   0.649   4.708 -0.4708 -2.3586  0.4213
 3711TIP3    H211140   5.864   0.632   4.573 -0.4315 -1.0457  0.2589
 3712TIP3   OH211141   4.962   3.605   4.854  0.6614 -0.3012  0.0252
 3712TIP3    H111142   4.931   3.650   4.932 -2.5644  1.5150 -2.0590
 3712TIP3    H211143   4.934   3.514   4.866  1.6548 -0.4340  1.5969
 3713TIP3   OH211144   3.548   4.232   3.198 -0.7326 -0.1699 -0.3285
 3713TIP3    H111145   3.560   4.267   3.109 -0.5212  2.6212  0.6824
 3713TIP3    H211146   3.599   4.151   3.199  0.4739  0.4751 -2.3436
 3714TIP3   OH211147   1.595   5.893   1.893  0.2336 -0.2553 -0.1349
 3714TIP3    H111148   1.672   5.837   1.909 -0.7775 -1.4548  0.6573
 3714TIP3    H211149   1.582   5.940   1.975 -0.1870 -0.4482 -0.0902
 3715TIP3   OH211150   5.120   2.559   4.767  0.4250 -0.1475  0.1870
 3715TIP3    H111151   5.179   2.633   4.784  1.5466 -0.7761 -0.7732
 3715TIP3    H211152   5.152   2.489   4.825 -0.3361 -0.0436  0.7492
 3716TIP3   OH211153   1.972   1.278   1.544  0.4263 -0.2242  0.3952
 3716TIP3    H111154   1.927   1.352   1.504 -0.6149 -0.1457  1.6692
 3716TIP3    H211155   1.902   1.224   1.581  1.1280 -1.9839 -0.6902
 3717TIP3   OH211156   3.964   0.660   2.511  0.5243 -0.0106 -0.0755
 3717TIP3    H111157   4.051   0.655   2.472 -0.0240  0.1263 -1.3715
 3717TIP3    H211158   3.931   0.570   2.509 -0.4998  0.3578 -2.3661
 3718TIP3   OH211159   1.933   1.114   0.128 -0.0914  0.1391  0.2330
 3718TIP3    H111160   1.946   1.192   0.074 -0.8790  0.9361  1.1527
 3718TIP3    H211161   1.855   1.134   0.180 -1.4036 -1.9796 -0.7713
 3719TIP3   OH211162   3.380   1.561   3.235 -0.4756  0.2288 -0.0685
 3719TIP3    H111163   3.397   1.497   3.165 -0.1666 -0.4297  0.5992
 3719TIP3    H211164   3.380   1.509   3.315  0.3936  1.1629  0.5532
 3720TIP3   OH211165   4.975   5.876   0.174  0.4401 -0.4416 -0.0570
 3720TIP3    H111166   4.974   5.948   0.236 -2.0902  0.7738 -1.3463
 3720TIP3    H211167   5.029   5.908   0.101 -0.2301 -0.0321 -0.3864
 3721TIP3   OH211168   4.964   1.973   1.454  0.2076  0.8115  0.5351
 3721TIP3    H111169   5.013   1.891   1.453 -0.0802  0.6408 -0.1649
 3721TIP3    H211170   4.997   2.020   1.531  0.9394  0.3833  0.4909
 3722TIP3   OH211171   4.848   4.929   2.975  0.2533  0.0644  0.3484
 3722TIP3    H111172   4.893   4.855   2.935  2.4447  1.3114  0.3534
 3722TIP3    H211173   4.911   4.966   3.037 -0.2154  2.7271 -0.6060
 3723TIP3   OH211174   1.089   0.590   0.147  0.3550  0.3341  0.3471
 3723TIP3    H111175   1.074   0.586   0.242 -0.6656 -1.4284  0.1490
 3723TIP3    H211176   1.010   0.634   0.113  0.0037 -0.4151  0.1829
 3724TIP3   OH211177   2.347   5.507   1.080 -0.0757  0.2136 -0.0261
 3724TIP3    H111178   2.385   5.420   1.081  1.2621  0.7569 -0.8263
 3724TIP3    H211179   2.291   5.509   1.002  0.1082  0.1638 -0.1574
 3725TIP3   OH211180   4.454   2.590   0.887  0.7475 -0.4410  0.3603
 3725TIP3    H111181   4.537   2.562   0.850  0.6190 -0.2782 -0.0620
 3725TIP3    H211182   4.435   2.673   0.844 -0.2579 -1.1012 -0.5170
 3726TIP3   OH211183   1.894   5.571   3.434 -0.4677 -0.1942  0.2600
 3726TIP3    H111184   1.941   5.654   3.446  1.9354 -1.5323  0.6474
 3726TIP3    H211185   1.898   5.529   3.520  0.1902 -1.5913 -0.4237
 3727TIP3   OH211186   0.061   2.362   2.271 -0.3989 -0.2196 -0.2300
 3727TIP3    H111187   0.064   2.408   2.186  0.8670  1.2148  0.5355
 3727TIP3    H211188   0.130   2.296   2.264 -0.6660 -0.4752 -0.5023
 3728TIP3   OH211189   3.409   3.209   4.765 -0.0629 -0.5373  0.2971
 3728TIP3    H111190   3.365   3.124   4.762  0.8178 -0.9772 -2.1159
 3728TIP3    H211191   3.341   3.272   4.741  0.0426 -0.9644 -1.2127
 3729TIP3   OH211192   3.582   4.705   2.080  0.1214  0.2468  0.4469
 3729TIP3    H111193   3.591   4.690   2.174  1.1198 -3.0045 -0.0603
 3729TIP3    H211194   3.665   4.746   2.054  1.1233 -1.6182  0.5710
 3730TIP3   OH211195   2.422   0.775   3.708 -0.5103  0.5277  0.1858
 3730TIP3    H111196   2.398   0.849   3.653  0.3237  1.6808  1.2941
 3730TIP3    H211197   2.510   0.750   3.678 -1.2307 -0.7711 -0.9236
 3731TIP3   OH211198   2.798   1.173   0.953 -0.0183 -0.4797 -0.4200
 3731TIP3    H111199   2.825   1.214   1.035 -0.0768  0.1120 -0.6947
 3731TIP3    H211200   2.828   1.082   0.961  1.9567  0.1110 -0.6697
 3732TIP3   OH211201   3.816   1.974   5.144  0.1880 -0.9038 -0.2854
 3732TIP3    H111202   3.752   2.043   5.125  2.9386  1.5924 -1.2247
 3732TIP3    H211203   3.789   1.901   5.088 -0.5338  0.9469 -2.5296
 3733TIP3   OH211204   6.155   3.017   2.832  0.4244  0.1061 -0.5124
 3733TIP3    H111205   6.114   2.952   2.889 -0.7632 -0.0748 -1.5166
 3733TIP3    H211206   6.222   2.969   2.784  0.4491 -0.0777 -0.2908
 3734TIP3   OH211207   1.877   4.580   4.696 -0.6434  0.1052 -0.5247
 3734TIP3    H111208   1.947   4.617   4.750 -0.7984  0.3749 -0.5027
 3734TIP3    H211209   1.859   4.649   4.631  0.2055 -0.5974 -1.5291
 3735TIP3   OH211210   2.563   5.128   3.597 -0.3507 -0.0443 -0.6070
 3735TIP3    H111211   2.485   5.074   3.587  0.1909 -0.7636 -1.0494
 3735TIP3    H211212   2.630   5.067   3.628  0.4502  0.2131 -1.7618
 3736TIP3   OH211213   3.183   3.187   1.328  0.1052 -0.2040  0.1900
 3736TIP3    H111214   3.122   3.244   1.281  1.8343  1.0492 -0.6139
 3736TIP3    H211215   3.250   3.164   1.264 -0.7991 -3.7515  0.2681
 3737TIP3   OH211216   6.201   4.880   1.320  0.1122 -0.4103  0.0881
 3737TIP3    H111217   6.129   4.856   1.378 -0.8852  0.7020 -0.6466
 3737TIP3    H211218   6.209   4.975   1.329  0.4604 -0.3236 -0.9929
 3738TIP3   OH211219   5.701   0.777   0.042  0.0568  0.4331  0.2410
 3738TIP3    H111220   5.636   0.709   0.023  1.2816 -0.1751 -2.1542
 3738TIP3    H211221   5.721   0.765   0.135 -1.0926 -1.2925  0.3214
 3739TIP3   OH211222   4.999   1.191   3.367 -0.0354  0.2913  0.1268
 3739TIP3    H111223   4.918   1.204   3.416  1.5088  0.6951  2.7282
 3739TIP3    H211224   5.026   1.279   3.341  0.7590  0.4218  1.3416
 3740TIP3   OH211225   3.956   2.256   0.365  0.0040 -0.1644 -0.1997
 3740TIP3    H111226   4.043   2.219   0.351  0.9840  1.8396  0.2846
 3740TIP3    H211227   3.939   2.243   0.458 -1.1043 -2.2529 -0.6231
 3741TIP3   OH211228   4.327   2.811   1.050 -0.2841  0.6798  0.6136
 3741TIP3    H111229   4.322   2.719   1.024 -1.5657  0.3147  2.0272
 3741TIP3    H211230   4.377   2.810   1.131  2.0125  1.5875 -0.6971
 3742TIP3   OH211231   0.088   5.387   1.922  0.5727  0.0569  0.2431
 3742TIP3    H111232   0.121   5.423   1.840  0.2099  0.8092  0.4171
 3742TIP3    H211233   0.042   5.307   1.897  0.3515  0.3496 -0.2957
 3743TIP3   OH211234   0.277   4.339   3.942  0.0075 -0.0406 -0.0521
 3743TIP3    H111235   0.211   4.280   3.905  0.1827 -0.5598  0.4625
 3743TIP3    H211236   0.258   4.424   3.901 -2.5260  0.4302  1.8649
 3744TIP3   OH211237   4.777   5.919   0.656 -0.5829 -0.1208 -0.4099
 3744TIP3    H111238   4.705   5.894   0.599  0.0008  1.1574 -1.7989
 3744TIP3    H211239   4.836   5.969   0.599 -0.5335  2.2652  1.5435
 3745TIP3   OH211240   5.315   4.738   2.519  0.1766  0.4882  0.1394
 3745TIP3    H111241   5.306   4.650   2.481  0.9334  0.4361  0.0677
 3745TIP3    H211242   5.372   4.785   2.458 -1.0530  1.3679 -0.3660
 3746TIP3   OH211243   0.302   3.714   2.793 -0.6266 -0.4439  0.1403
 3746TIP3    H111244   0.313   3.757   2.878  1.8726  0.4091 -0.5485
 3746TIP3    H211245   0.322   3.622   2.811 -0.3333 -0.3100  0.5302
 3747TIP3   OH211246   0.004   3.839   4.101 -0.2661 -0.4951 -0.4077
 3747TIP3    H111247  -0.021   3.903   4.167  0.5578 -0.7122  0.1307
 3747TIP3    H211248   0.060   3.777   4.147 -0.8607 -1.4862 -0.9748
 3748TIP3   OH211249   4.218   0.145   1.626  0.2469  0.3537  0.1077
 3748TIP3    H111250   4.279   0.102   1.565  0.9137 -1.2928  1.8442
 3748TIP3    H211251   4.271   0.212   1.668  0.1046  0.7201 -0.2925
 3749TIP3   OH211252   5.279   1.973   1.054  0.6238 -0.5410 -0.2884
 3749TIP3    H111253   5.298   1.960   1.147 -1.1323 -1.1841  0.0278
 3749TIP3    H211254   5.356   2.016   1.019  1.8899 -1.5223  1.1784
 3750TIP3   OH211255   6.280   1.523   3.432 -0.2707  0.1699 -0.3477
 3750TIP3    H111256   6.322   1.488   3.511  1.1841 -0.5692 -1.3972
 3750TIP3    H211257   6.187   1.525   3.453  0.0090 -0.7230  1.1190
 3751TIP3   OH211258   5.354   5.549   4.537 -0.3336 -0.2510  0.2806
 3751TIP3    H111259   5.311   5.593   4.464  0.4217  0.2389  0.1253
 3751TIP3    H211260   5.407   5.618   4.578  0.1139 -0.7926  0.6152
 3752TIP3   OH211261   0.387   3.832   0.782 -0.0032 -0.2333  0.2727
 3752TIP3    H111262   0.462   3.885   0.809  0.6087 -1.7355  1.6651
 3752TIP3    H211263   0.325   3.839   0.854 -0.5592 -0.2362 -0.1950
 3753TIP3   OH211264   0.112   4.105   1.945 -0.5411 -0.0769  0.3581
 3753TIP3    H111265   0.207   4.119   1.954 -0.6550  0.9058  0.1413
 3753TIP3    H211266   0.105   4.024   1.894  0.1784 -0.3377  0.6524
 3754TIP3   OH211267   5.521   3.439   3.669 -0.9224  0.2411 -0.2262
 3754TIP3    H111268   5.448   3.486   3.709 -2.9212 -4.1092  2.0021
 3754TIP3    H211269   5.585   3.430   3.739 -0.3335  0.1400 -0.7693
 3755TIP3   OH211270   1.946   5.847   3.263 -0.3908 -0.5291  0.2800
 3755TIP3    H111271   1.998   5.928   3.269  1.0400 -1.4223  0.5549
 3755TIP3    H211272   1.874   5.860   3.325  0.5261  0.0475  1.2612
 3756TIP3   OH211273   6.161   5.581   0.835  0.2088 -0.1694 -0.6991
 3756TIP3    H111274   6.113   5.551   0.912 -0.0820  0.6262 -0.5552
 3756TIP3    H211275   6.108   5.553   0.761 -0.8844  1.3057 -0.5256
 3757TIP3   OH211276   5.980   0.474   1.497 -0.4492  0.3241 -0.1994
 3757TIP3    H111277   5.991   0.475   1.592  0.2216 -1.2295 -0.2274
 3757TIP3    H211278   5.957   0.564   1.474 -2.2826  0.3830  1.6119
 3758TIP3   OH211279   5.795   2.802   2.093 -0.0244  0.5889 -0.2567
 3758TIP3    H111280   5.848   2.840   2.023  0.4377 -0.4631 -0.5012
 3758TIP3    H211281   5.759   2.722   2.055  0.0749  0.1037  0.6388
 3759TIP3   OH211282   0.744   5.695   3.463 -0.3563  0.1719 -0.6257
 3759TIP3    H111283   0.683   5.673   3.392 -2.1608  1.4254  0.4512
 3759TIP3    H211284   0.771   5.785   3.445  1.1815 -0.3352 -1.0389
 3760TIP3   OH211285   3.853   5.926   2.249  0.1113  0.3479  0.0187
 3760TIP3    H111286   3.860   5.910   2.155 -1.2630  0.7840 -0.1767
 3760TIP3    H211287   3.896   6.011   2.261  1.4793 -0.3260  0.0122
 3761TIP3   OH211288   2.993   1.005   0.608 -0.5749 -0.1315 -0.3205
 3761TIP3    H111289   3.065   1.055   0.568 -0.8986 -0.2074 -1.0012
 3761TIP3    H211290   2.980   0.931   0.550 -0.8637 -0.4002  0.0848
 3762TIP3   OH211291   1.735   3.775   0.831  0.2930 -0.0369 -0.0198
 3762TIP3    H111292   1.659   3.752   0.884  0.1271 -2.3123 -1.1140
 3762TIP3    H211293   1.757   3.864   0.857 -1.8842  0.1696  1.3183
 3763TIP3   OH211294   3.176   2.828   0.054  0.5728  0.3917 -0.4042
 3763TIP3    H111295   3.193   2.797   0.143  0.3448  0.9477 -0.1619
 3763TIP3    H211296   3.253   2.802   0.004  1.3451  1.3003  0.2787
 3764TIP3   OH211297   2.820   5.018   4.975  0.1067 -0.0502 -0.0666
 3764TIP3    H111298   2.777   5.104   4.974 -0.2391 -0.2181  0.2903
 3764TIP3    H211299   2.776   4.970   5.045  0.1774 -0.5798 -0.3835
 3765TIP3   OH211300   3.413   0.477   0.747 -0.5417  0.1683 -0.6839
 3765TIP3    H111301   3.489   0.423   0.766 -1.3013 -0.6945 -0.0249
 3765TIP3    H211302   3.338   0.419   0.758 -1.3499  1.1999 -0.5252
 3766TIP3   OH211303   4.322   5.857   0.125 -0.1042  0.0713 -0.4491
 3766TIP3    H111304   4.374   5.780   0.102  0.3820  0.0434  0.6399
 3766TIP3    H211305   4.351   5.879   0.214  0.4816  2.1027 -1.0943
 3767TIP3   OH211306   3.193   4.128   2.613  0.5653  0.1968 -0.3833
 3767TIP3    H111307   3.287   4.143   2.621  0.5849  0.6801 -1.3288
 3767TIP3    H211308   3.182   4.092   2.525  0.0325 -1.4114  0.3061
 3768TIP3   OH211309   0.456   3.384   5.016  0.2989  0.0771  0.0858
 3768TIP3    H111310   0.536   3.338   4.992  0.3052 -1.1635  2.2392
 3768TIP3    H211311   0.472   3.416   5.105 -1.5805 -0.2379  0.5949
 3769TIP3   OH211312   3.199   1.465   2.830 -0.0749 -0.2870  0.1047
 3769TIP3    H111313   3.199   1.488   2.737  1.3640  0.2731  0.2166
 3769TIP3    H211314   3.121   1.411   2.842 -1.0292  0.7560 -1.1439
 3770TIP3   OH211315   5.177   1.072   4.290 -0.0981 -0.7676 -0.1757
 3770TIP3    H111316   5.224   1.102   4.212 -0.4651  1.6099  0.4516
 3770TIP3    H211317   5.243   1.023   4.339  0.4236 -1.4037 -1.4594
 3771TIP3   OH211318   3.187   3.222   3.721 -0.9133  0.0758 -0.0673
 3771TIP3    H111319   3.237   3.304   3.712  2.1883 -1.4303  1.8050
 3771TIP3    H211320   3.096   3.251   3.730 -0.5168  3.0489 -3.3080
 3772TIP3   OH211321   1.174   4.565   3.271  0.2767 -0.0489  0.8906
 3772TIP3    H111322   1.114   4.521   3.331 -0.1147  0.6274  1.0036
 3772TIP3    H211323   1.228   4.621   3.328 -0.5780  1.1470  0.5573
 3773TIP3   OH211324   0.084   1.980   3.377  0.2478  0.0346  0.2052
 3773TIP3    H111325   0.028   1.927   3.321 -0.4374  1.9944 -1.0666
 3773TIP3    H211326   0.038   2.063   3.387  1.4023  0.5477  1.8796
 3774TIP3   OH211327   2.831   5.029   3.599  0.5417  0.1032 -0.1286
 3774TIP3    H111328   2.902   5.093   3.597  1.2317 -0.5991  0.8625
 3774TIP3    H211329   2.810   5.013   3.507  0.2760  1.8197 -0.3929
 3775TIP3   OH211330   4.003   0.362   1.784  0.1601 -0.9114  0.1849
 3775TIP3    H111331   4.018   0.389   1.693  1.3840  2.0369  1.1322
 3775TIP3    H211332   3.950   0.433   1.822  0.3150 -1.6912  1.9491
 3776TIP3   OH211333   3.544   0.269   3.111  0.2886 -0.3253  0.2161
 3776TIP3    H111334   3.622   0.215   3.119  1.6366  1.2706 -1.2924
 3776TIP3    H211335   3.503   0.241   3.030 -0.2751 -0.5975  0.5858
 3777TIP3   OH211336   5.413   1.322   0.876 -0.2436 -0.2421 -0.8519
 3777TIP3    H111337   5.500   1.312   0.837 -0.0911  1.0641 -0.9030
 3777TIP3    H211338   5.413   1.411   0.911 -0.8230 -0.9549  1.0678
 3778TIP3   OH211339   5.453   5.307   2.189  0.0814 -0.2371 -0.3613
 3778TIP3    H111340   5.371   5.356   2.202  0.7048  1.1252 -1.3553
 3778TIP3    H211341   5.521   5.374   2.190  1.7634 -1.5732  4.3032
 3779TIP3   OH211342   0.015   3.669   0.998 -0.1221  0.5081  0.2990
 3779TIP3    H111343  -0.043   3.745   0.987  1.9618  1.9485 -1.7809
 3779TIP3    H211344   0.091   3.705   1.043  0.1660 -0.7948  0.8800
 3780TIP3   OH211345   1.697   4.355   1.729  0.1752 -0.2811 -0.1253
 3780TIP3    H111346   1.604   4.364   1.708 -0.5047 -3.1648  1.1186
 3780TIP3    H211347   1.740   4.350   1.644 -0.6890  1.5918 -0.7255
 3781TIP3   OH211348   4.610   4.210   3.372  0.0323 -0.4776  0.0401
 3781TIP3    H111349   4.551   4.271   3.418  0.6451 -0.0101  0.2240
 3781TIP3    H211350   4.569   4.124   3.383 -0.4721 -0.1972  0.4053
 3782TIP3   OH211351   5.763   4.496   1.350  0.2765  0.0290  0.2210
 3782TIP3    H111352   5.794   4.573   1.302  0.8073 -0.0567  0.4160
 3782TIP3    H211353   5.843   4.448   1.372  0.0147 -0.1406  0.8271
 3783TIP3   OH211354   0.815   5.393   2.582  0.5800 -0.2694 -0.3347
 3783TIP3    H111355   0.909   5.395   2.563  0.1975 -0.0647 -2.5295
 3783TIP3    H211356   0.775   5.370   2.498 -1.3504 -0.1594  0.5130
 3784TIP3   OH211357   6.180   2.155   4.982 -0.3518  0.0693  0.0206
 3784TIP3    H111358   6.147   2.190   4.900  0.7402  1.5726  0.1758
 3784TIP3    H211359   6.241   2.087   4.957  1.2144  1.6126 -0.5278
 3785TIP3   OH211360   1.009   5.245  -0.015  0.7031  0.1179  0.2312
 3785TIP3    H111361   0.941   5.222   0.048  1.0519 -1.2187  0.1590
 3785TIP3    H211362   1.091   5.226   0.031  0.9629 -0.7891 -0.5702
 3786TIP3   OH211363   0.157   5.906   3.101 -0.3576 -0.1318 -0.0095
 3786TIP3    H111364   0.174   5.817   3.071  1.0446  0.0166  0.2437
 3786TIP3    H211365   0.104   5.945   3.031 -0.9143 -1.1316 -0.1603
 3787TIP3   OH211366   1.275   0.100   1.610  0.1397 -0.1399  0.6242
 3787TIP3    H111367   1.311   0.188   1.593 -1.7766  0.7472  0.9147
 3787TIP3    H211368   1.214   0.112   1.682  0.7692 -1.9934  1.5249
 3788TIP3   OH211369   5.974   2.008   2.197 -0.0492  0.7155  0.1011
 3788TIP3    H111370   6.066   2.007   2.222 -0.3510  0.6327  1.3067
 3788TIP3    H211371   5.936   2.080   2.248 -0.9320 -0.2010  0.7954
 3789TIP3   OH211372   1.732   4.566   4.081  0.0958 -0.4930  0.5136
 3789TIP3    H111373   1.737   4.638   4.018 -0.3663 -0.6401  0.2997
 3789TIP3    H211374   1.791   4.591   4.152 -0.1283  0.1383  0.4845
 3790TIP3   OH211375   0.350   5.414   4.165  0.1824  0.3077  0.2944
 3790TIP3    H111376   0.421   5.386   4.222 -0.0058  0.0728  0.4147
 3790TIP3    H211377   0.394   5.456   4.091  0.5913 -1.9952 -0.8587
 3791TIP3   OH211378   2.272   3.960   1.276  0.8942  0.0128 -0.1275
 3791TIP3    H111379   2.310   3.971   1.363  4.3021  3.1976 -1.7292
 3791TIP3    H211380   2.337   3.909   1.228 -0.1917 -0.3492 -1.2569
 3792TIP3   OH211381   3.430   0.059   0.499 -0.0516  0.0266 -0.2449
 3792TIP3    H111382   3.396  -0.015   0.450  0.1807  0.7532 -1.5749
 3792TIP3    H211383   3.491   0.021   0.562 -2.2862 -1.1678  1.3238
 3793TIP3   OH211384   3.579   0.021   2.155  0.7035  0.0319  0.2517
 3793TIP3    H111385   3.592   0.070   2.236 -1.7127 -0.7332  1.2115
 3793TIP3    H211386   3.579  -0.071   2.182 -2.4557 -0.1914 -0.0744
 3794TIP3   OH211387   1.270   5.566   0.781 -0.0903 -0.2319 -0.1502
 3794TIP3    H111388   1.200   5.575   0.846 -0.2661 -0.1992 -0.3413
 3794TIP3    H211389   1.250   5.484   0.736  1.9382 -2.1146  2.1080
 3795TIP3   OH211390   5.473   1.192   2.930  0.3646 -0.9194 -0.0896
 3795TIP3    H111391   5.547   1.222   2.878  1.6790 -0.8921  1.7402
 3795TIP3    H211392   5.436   1.271   2.969  0.1603 -1.0715  0.0310
 3796TIP3   OH211393   3.818   0.620   0.345  0.3589  0.2028  0.6397
 3796TIP3    H111394   3.804   0.664   0.428 -0.7378 -1.7405  1.5677
 3796TIP3    H211395   3.828   0.527   0.369  0.2474 -0.3745 -1.3605
 3797TIP3   OH211396   2.130   3.184   2.109 -0.4663  0.4542  0.7593
 3797TIP3    H111397   2.159   3.217   2.024 -2.5289 -1.2802 -0.7324
 3797TIP3    H211398   2.066   3.248   2.139 -0.6819  0.4164  0.3809
 3798TIP3   OH211399   2.444   1.573   1.165  0.0798  0.5775 -0.2691
 3798TIP3    H111400   2.487   1.592   1.081  1.7139 -0.2521  0.3291
 3798TIP3    H211401   2.416   1.658   1.198 -0.7027  0.9022 -1.7009
 3799TIP3   OH211402   2.078   3.837   1.133 -0.0878  0.0116 -0.2341
 3799TIP3    H111403   2.130   3.881   1.201 -0.9884 -0.3241  0.6975
 3799TIP3    H211404   2.056   3.752   1.171 -1.5126  0.2384 -0.5030
 3800TIP3   OH211405  -0.014   1.717   0.013 -0.2966  0.1909 -0.3925
 3800TIP3    H111406   0.067   1.708   0.065 -0.3342 -0.2317 -0.4075
 3800TIP3    H211407  -0.041   1.808   0.027 -0.1664  0.1524  0.1312
 3801TIP3   OH211408   3.133   5.246   2.511 -0.0484  0.0744 -0.1795
 3801TIP3    H111409   3.195   5.306   2.552  1.3135 -0.8101 -0.8697
 3801TIP3    H211410   3.177   5.161   2.513 -1.9183 -0.9288  0.7375
 3802TIP3   OH211411   5.612   0.885   4.984 -0.6939  0.0420  0.0972
 3802TIP3    H111412   5.613   0.968   4.937  1.5214  0.7647  1.3011
 3802TIP3    H211413   5.586   0.821   4.917 -0.4256  1.4056 -1.3866
 3803TIP3   OH211414   6.055   1.550   3.886 -0.7691 -0.2935  0.3110
 3803TIP3    H111415   6.101   1.626   3.850 -0.8992 -0.8981 -1.2077
 3803TIP3    H211416   6.112   1.519   3.957  0.8235 -0.5725 -1.0223
 3804TIP3   OH211417   6.203   3.172   1.089 -0.5287 -0.0674 -0.2384
 3804TIP3    H111418   6.282   3.119   1.076  0.1574  0.7312  0.5644
 3804TIP3    H211419   6.132   3.108   1.093 -0.3053 -0.6838 -3.4864
 3805TIP3   OH211420   5.384   4.346   2.711 -0.5024 -0.7028 -0.2033
 3805TIP3    H111421   5.427   4.329   2.795 -0.7231  0.0877  0.0724
 3805TIP3    H211422   5.361   4.259   2.679  0.7580 -1.1089 -0.0736
 3806TIP3   OH211423   4.008   0.188   0.486 -0.0351 -0.0594  0.1757
 3806TIP3    H111424   4.092   0.157   0.452  0.7896  2.0887  0.1142
 3806TIP3    H211425   3.944   0.153   0.425  0.9766 -0.3836 -0.7429
 3807TIP3   OH211426   5.647   2.045   4.152 -0.5766  0.1753 -0.4770
 3807TIP3    H111427   5.736   2.012   4.165 -0.3457  1.1410  0.5633
 3807TIP3    H211428   5.619   2.007   4.068 -0.0591 -1.9748  0.2701
 3808TIP3   OH211429   6.330   4.962   2.366  0.2018  0.5778  0.0851
 3808TIP3    H111430   6.348   4.959   2.272 -4.0574  2.6894 -1.0839
 3808TIP3    H211431   6.288   4.879   2.385  0.8468  0.2465  0.0888
 3809TIP3   OH211432   5.120   4.595   1.556  0.1952  0.2152  0.6520
 3809TIP3    H111433   5.140   4.603   1.650  2.2777 -0.9632  0.3587
 3809TIP3    H211434   5.185   4.650   1.513  0.9059 -1.2566 -0.2095
 3810TIP3   OH211435   4.838   4.740   4.093  0.1962  0.1668 -0.6225
 3810TIP3    H111436   4.797   4.807   4.039 -1.5668  0.1155  0.5587
 3810TIP3    H211437   4.813   4.657   4.052 -0.3218  0.1602 -0.3101
 3811TIP3   OH211438   2.775   0.626   0.833  0.0175 -0.2693  0.6287
 3811TIP3    H111439   2.840   0.565   0.868 -1.5788 -0.6132  3.2006
 3811TIP3    H211440   2.691   0.584   0.850 -1.1353  2.4202  2.1784
 3812TIP3   OH211441   0.658   5.156   4.233 -0.5326 -0.3809  0.9264
 3812TIP3    H111442   0.633   5.108   4.311 -0.5785 -0.6049  0.7746
 3812TIP3    H211443   0.753   5.164   4.238 -0.4758 -0.8861  0.7252
 3813TIP3   OH211444   0.322   1.472   1.430 -0.0502 -0.0803 -0.0060
 3813TIP3    H111445   0.244   1.516   1.396  0.1110  0.2590  0.0620
 3813TIP3    H211446   0.289   1.388   1.464 -0.5746  0.5119  1.0219
 3814TIP3   OH211447   6.201   1.812   2.673  0.6655 -0.1201 -0.2151
 3814TIP3    H111448   6.172   1.731   2.716 -0.5360 -1.4378 -3.2370
 3814TIP3    H211449   6.129   1.873   2.688  0.7122 -0.2085  0.4327
 3815TIP3   OH211450   1.322   2.841   0.277 -0.5096  0.1192  0.5196
 3815TIP3    H111451   1.398   2.786   0.263  0.5342  1.4364  0.8212
 3815TIP3    H211452   1.255   2.782   0.311  0.2066 -1.1462 -0.1981
 3816TIP3   OH211453   4.430   5.550   3.543 -0.0804 -0.4182  0.7003
 3816TIP3    H111454   4.336   5.565   3.549 -0.0469  0.2010 -0.1677
 3816TIP3    H211455   4.467   5.600   3.615 -0.1426  2.2292 -0.9743
 3817TIP3   OH211456   6.117   2.765   4.452  0.3848 -0.0238  0.2833
 3817TIP3    H111457   6.103   2.860   4.446 -0.6244 -0.2424 -1.6672
 3817TIP3    H211458   6.151   2.740   4.366  0.4067 -1.4793  0.6876
 3818TIP3   OH211459   1.383   5.867   3.632  0.7909  0.3605 -0.3978
 3818TIP3    H111460   1.386   5.891   3.540  0.4385 -1.5057 -0.9387
 3818TIP3    H211461   1.409   5.775   3.634  1.8113  0.6455  1.4970
 3819TIP3   OH211462   2.288   0.614   4.110 -0.1084  0.4492 -0.4872
 3819TIP3    H111463   2.204   0.614   4.155 -0.2438  0.4073 -0.7438
 3819TIP3    H211464   2.312   0.707   4.105  0.0528  0.4345 -0.0576
 3820TIP3   OH211465   2.233   5.607   2.298 -0.0201 -0.4894 -0.1954
 3820TIP3    H111466   2.277   5.690   2.279  0.5294 -0.8639 -0.5895
 3820TIP3    H211467   2.145   5.618   2.262  0.5506 -0.6569 -1.7099
 3821TIP3   OH211468   0.801   4.956   2.792  0.3059  1.3166  0.0129
 3821TIP3    H111469   0.714   4.924   2.766  0.2936  1.1572  0.2450
 3821TIP3    H211470   0.821   4.909   2.873  0.3316  1.8184  0.3078
 3822TIP3   OH211471   0.618   4.905   3.914 -0.0879 -0.0481  0.1884
 3822TIP3    H111472   0.645   4.893   4.004  0.7797  1.2443  0.1366
 3822TIP3    H211473   0.588   4.996   3.910 -0.1441 -0.0919 -0.8114
 3823TIP3   OH211474   1.313   1.024   0.450 -0.1916 -0.3039 -0.0924
 3823TIP3    H111475   1.316   1.082   0.374  0.1026  0.2142  0.3031
 3823TIP3    H211476   1.222   0.995   0.456 -0.3913  0.2880 -0.1791
 3824TIP3   OH211477   0.382   0.690   4.572 -0.2967  0.0147 -0.4573
 3824TIP3    H111478   0.395   0.595   4.565 -1.9557 -0.2771  0.0334
 3824TIP3    H211479   0.322   0.712   4.501  1.6904  1.0975 -1.9021
 3825TIP3   OH211480   2.517   3.835   3.756 -0.1920 -0.0528  0.3960
 3825TIP3    H111481   2.422   3.829   3.743  0.1505 -1.2457 -2.0382
 3825TIP3    H211482   2.538   3.760   3.811 -0.5348 -0.2908  0.2036
 3826TIP3   OH211483   3.482   3.532   0.535 -0.1261  0.3226 -0.3746
 3826TIP3    H111484   3.435   3.597   0.482  1.7749  1.0360 -1.2676
 3826TIP3    H211485   3.554   3.503   0.479 -0.8595 -2.5608  0.0097
 3827TIP3   OH211486   3.402   2.624   3.738  0.1841  0.2708  0.3953
 3827TIP3    H111487   3.445   2.691   3.685  2.3068 -0.5904  0.8972
 3827TIP3    H211488   3.461   2.548   3.733 -1.9887 -1.4944  0.0780
 3828TIP3   OH211489   0.071   0.071   3.926 -0.0594  0.0641 -0.0748
 3828TIP3    H111490   0.070   0.166   3.939 -0.1778  0.1345 -0.5540
 3828TIP3    H211491   0.113   0.060   3.841  0.7566 -0.3674  0.3778
 3829TIP3   OH211492   5.394   3.775   1.287  0.0450 -0.1352  0.1259
 3829TIP3    H111493   5.381   3.785   1.193  0.1723 -2.6217 -0.2334
 3829TIP3    H211494   5.424   3.860   1.317 -0.3736  0.8218 -2.0072
 3830TIP3   OH211495   4.420   0.856   0.126 -0.6918  0.0176 -0.1319
 3830TIP3    H111496   4.511   0.826   0.119  0.0593  1.6466  1.6788
 3830TIP3    H211497   4.413   0.889   0.216 -3.0364  0.1129 -0.2928
 3831TIP3   OH211498   0.264   5.554   3.071  0.5701  0.0662 -0.2297
 3831TIP3    H111499   0.181   5.550   3.119  0.9605  1.4231  0.5882
 3831TIP3    H211500   0.327   5.590   3.133  1.9927 -1.6345 -0.5984
 3832TIP3   OH211501   4.370   5.509   0.810  0.0158  0.0657  0.8599
 3832TIP3    H111502   4.281   5.514   0.774  0.2660  0.7961  0.3403
 3832TIP3    H211503   4.371   5.572   0.881  0.7243  1.6327 -0.4734
 3833TIP3   OH211504   3.885   0.225   4.195 -0.6077 -0.4413 -0.5452
 3833TIP3    H111505   3.810   0.190   4.243 -0.9638 -0.0146 -0.7832
 3833TIP3    H211506   3.847   0.284   4.130  0.0021  1.0188  0.3640
 3834TIP3   OH211507   5.027   5.292   1.561  0.4510 -0.3438  0.4669
 3834TIP3    H111508   4.979   5.312   1.480  1.4441  2.6203  0.4976
 3834TIP3    H211509   4.977   5.221   1.602 -1.7790  0.1239 -1.2646
 3835TIP3   OH211510   1.714   2.658   1.423 -0.4695 -0.0501  0.8406
 3835TIP3    H111511   1.665   2.607   1.488  3.6308 -4.0173  1.3360
 3835TIP3    H211512   1.749   2.732   1.472  1.5481 -2.3102  3.1131
 3836TIP3   OH211513   4.592   0.384   1.372  0.0102  0.2266 -0.4220
 3836TIP3    H111514   4.524   0.414   1.311 -1.2014  1.8251  1.6002
 3836TIP3    H211515   4.653   0.457   1.378 -0.3510  0.4491  0.8872
 3837TIP3   OH211516   2.685   1.537   3.594 -0.0277  0.2123 -0.2333
 3837TIP3    H111517   2.770   1.561   3.558  0.3514 -0.3122  0.2804
 3837TIP3    H211518   2.690   1.442   3.606 -0.2957  0.3065  0.7796
 3838TIP3   OH211519   4.705   2.134   1.487  0.2099 -0.9248 -0.1264
 3838TIP3    H111520   4.738   2.203   1.544 -1.1362 -0.9753  0.7534
 3838TIP3    H211521   4.780   2.078   1.471  1.9751  1.8486 -2.6533
 3839TIP3   OH211522   5.697   3.282   3.357  0.3741 -0.1538  0.5775
 3839TIP3    H111523   5.616   3.276   3.408 -0.9964  0.7897 -1.3592
 3839TIP3    H211524   5.753   3.214   3.394 -2.0167 -2.2117  0.7531
 3840TIP3   OH211525   0.514   4.514   5.137 -0.0104  0.0866 -0.3903
 3840TIP3    H111526   0.503   4.424   5.105  1.1835 -0.2076  0.0137
 3840TIP3    H211527   0.559   4.559   5.065  0.4493  0.0641 -0.1127
 3841TIP3   OH211528   3.180   2.821   2.435 -0.1394 -0.1195  0.1278
 3841TIP3    H111529   3.175   2.779   2.521 -1.3057  1.5506  0.9568
 3841TIP3    H211530   3.089   2.829   2.407  0.1497  0.4825 -0.6771
 3842TIP3   OH211531   1.313   4.097   0.465  0.2750  0.3390  0.1353
 3842TIP3    H111532   1.355   4.166   0.517  0.8103  0.7107 -0.7621
 3842TIP3    H211533   1.219   4.107   0.484  0.2512  1.8902 -0.6264
 3843TIP3   OH211534   0.745   2.589   1.402  0.3735 -0.1881  0.2305
 3843TIP3    H111535   0.695   2.545   1.472  0.3988 -0.5922 -0.0025
 3843TIP3    H211536   0.835   2.559   1.415  0.3136 -0.5533 -0.2037
 3844TIP3   OH211537   2.745   4.691   0.259  0.2695  0.3769  0.2433
 3844TIP3    H111538   2.683   4.665   0.328  0.7395  1.9436  1.3172
 3844TIP3    H211539   2.784   4.772   0.292  2.3918 -0.1863 -0.7271
 3845TIP3   OH211540   0.325   0.782   0.681 -0.5647 -0.8322  0.1339
 3845TIP3    H111541   0.311   0.711   0.744 -1.9639 -1.2664 -0.6019
 3845TIP3    H211542   0.349   0.858   0.734  0.3978 -1.7060  0.9817
 3846TIP3   OH211543   5.847   5.168   4.650  0.0567  0.2893  0.0696
 3846TIP3    H111544   5.929   5.153   4.602 -0.0104 -0.2715  0.1204
 3846TIP3    H211545   5.856   5.256   4.686 -0.5871  1.4265 -2.3695
 3847TIP3   OH211546   1.976   4.724   2.606  0.1584  0.3110  0.4357
 3847TIP3    H111547   2.055   4.754   2.561  0.3330 -0.3925  0.2569
 3847TIP3    H211548   1.926   4.677   2.539 -0.0679  0.1358  0.7203
 3848TIP3   OH211549   1.281   2.384   4.576  0.1851  0.0943  0.0774
 3848TIP3    H111550   1.341   2.311   4.561  0.1767  0.2424 -0.6936
 3848TIP3    H211551   1.331   2.462   4.551 -0.4201  0.1932 -0.8423
 3849TIP3   OH211552   2.110   4.791   0.456 -0.1859  0.4034 -0.7753
 3849TIP3    H111553   2.112   4.859   0.389  1.5680  1.3275  0.1588
 3849TIP3    H211554   2.185   4.735   0.437  1.1959  1.4738  1.1325
 3850TIP3   OH211555   5.384   0.336   4.099  0.4715  0.0183  0.2870
 3850TIP3    H111556   5.315   0.320   4.034  0.5560  0.1470  0.1631
 3850TIP3    H211557   5.421   0.250   4.116  2.1766  0.2527 -1.7677
 3851TIP3   OH211558   2.752   3.879   4.625 -0.1729 -0.1110 -0.5147
 3851TIP3    H111559   2.744   3.935   4.703 -0.7953 -0.4692 -0.3134
 3851TIP3    H211560   2.688   3.915   4.563 -0.3948 -0.4405 -0.4794
 3852TIP3   OH211561   2.803   5.052   4.711 -0.3523  0.0394  0.4278
 3852TIP3    H111562   2.803   5.037   4.806  0.0624  1.3146  0.6465
 3852TIP3    H211563   2.830   5.144   4.701 -3.6832  1.0248 -0.7455
 3853TIP3   OH211564   1.452   1.344   4.848 -0.5280 -0.4469  0.8917
 3853TIP3    H111565   1.370   1.320   4.891 -1.7964 -0.0752 -1.2029
 3853TIP3    H211566   1.508   1.267   4.858 -2.2208 -1.8740 -0.2010
 3854TIP3   OH211567   2.556   4.039   3.943  0.0068  0.0623  0.0238
 3854TIP3    H111568   2.503   3.998   3.875 -1.8096 -0.5952  1.7337
 3854TIP3    H211569   2.497   4.102   3.984  0.7611 -0.1572  1.5000
 3855TIP3   OH211570   3.492   3.296   3.432 -0.0584  0.1455  0.3889
 3855TIP3    H111571   3.443   3.246   3.366 -1.2177 -0.1253  1.4155
 3855TIP3    H211572   3.468   3.255   3.515  0.8050  0.9514  1.0538
 3856TIP3   OH211573   0.636   4.875   5.139 -0.3168 -0.2126  0.2330
 3856TIP3    H111574   0.546   4.882   5.168 -0.7225 -2.6889 -0.1637
 3856TIP3    H211575   0.650   4.952   5.083 -1.9686  0.4934  0.7462
 3857TIP3   OH211576   2.323   4.940   3.918 -0.4556 -0.1560  0.2927
 3857TIP3    H111577   2.340   4.961   3.826 -1.5277  0.5589  0.2364
 3857TIP3    H211578   2.402   4.895   3.948 -0.7616 -2.0026 -1.4517
 3858TIP3   OH211579   4.330   3.885   0.279 -0.3781  0.5365  0.3531
 3858TIP3    H111580   4.243   3.855   0.253 -0.6085  0.0095  1.6260
 3858TIP3    H211581   4.381   3.885   0.198 -1.1386 -0.6516 -0.1548
 3859TIP3   OH211582   0.457   1.972   4.617 -0.5900  0.1815  0.3610
 3859TIP3    H111583   0.485   2.031   4.687  0.2917 -0.1076  0.2751
 3859TIP3    H211584   0.384   1.923   4.653  0.2360 -0.3966  1.3178
 3860TIP3   OH211585   3.673   0.127   2.447  0.5372  0.1209 -0.3549
 3860TIP3    H111586   3.627   0.112   2.530  1.9151 -0.9563  0.2471
 3860TIP3    H211587   3.640   0.212   2.417  1.8203  1.7827  2.5515
 3861TIP3   OH211588   5.000   5.460   0.137 -0.2050 -0.3156  0.7215
 3861TIP3    H111589   4.968   5.407   0.064 -1.9170 -2.4456  2.8361
 3861TIP3    H211590   5.077   5.414   0.169  2.0868  1.9524 -1.0933
 3862TIP3   OH211591   5.058   5.516   2.016  0.2746  0.0975  0.4760
 3862TIP3    H111592   5.046   5.584   1.950  0.3290  1.5130  1.8858
 3862TIP3    H211593   4.981   5.523   2.072 -0.3982 -1.9223 -0.0952
 3863TIP3   OH211594   6.050   3.854   3.065 -0.4317 -0.2659  0.1748
 3863TIP3    H111595   6.068   3.948   3.076 -3.2406  0.5203 -0.9972
 3863TIP3    H211596   5.968   3.840   3.113  0.2157 -2.2681  0.7536
 3864TIP3   OH211597   4.302   2.997   3.158 -0.4764 -0.1511  0.1391
 3864TIP3    H111598   4.353   2.917   3.169 -1.7500 -1.3690 -2.1069
 3864TIP3    H211599   4.256   3.008   3.241 -0.8819 -2.2105  0.2361
 3865TIP3   OH211600   0.462   3.651   3.438 -0.7362 -0.4271  0.6462
 3865TIP3    H111601   0.485   3.577   3.494  0.6731  0.3954  1.2181
 3865TIP3    H211602   0.499   3.630   3.352 -1.8475 -1.1412  0.3206
 3866TIP3   OH211603   1.433   0.304   4.018  0.2745  0.1299  0.3805
 3866TIP3    H111604   1.460   0.213   4.032 -0.3043 -0.0766  0.1865
 3866TIP3    H211605   1.344   0.298   3.986  0.0589  0.7936  0.8257
 3867TIP3   OH211606   3.964   0.891   0.441 -0.4793  0.0288  0.5041
 3867TIP3    H111607   3.952   0.951   0.367 -1.0429 -0.8838 -0.1696
 3867TIP3    H211608   3.876   0.864   0.465 -0.3218  0.6458  1.8051
 3868TIP3   OH211609   1.825   0.327   2.313 -0.0208 -0.6028 -0.0606
 3868TIP3    H111610   1.745   0.273   2.318  0.2798 -1.0656 -0.1598
 3868TIP3    H211611   1.863   0.323   2.400 -1.4336  1.7343  0.7642
 3869TIP3   OH211612   4.199   5.881   2.575 -0.3478  0.1917  0.1583
 3869TIP3    H111613   4.249   5.839   2.505 -1.2333 -0.6069 -0.0061
 3869TIP3    H211614   4.111   5.844   2.568 -1.3316  2.4284 -0.3181
 3870TIP3   OH211615   0.625   0.023   1.767  0.2298 -0.1074  0.0804
 3870TIP3    H111616   0.553  -0.035   1.740  0.2494 -0.2472  0.3263
 3870TIP3    H211617   0.615   0.100   1.711 -1.5323  0.8969  1.6199
 3871TIP3   OH211618   5.359   5.567   3.759 -0.5979 -0.1434  0.2066
 3871TIP3    H111619   5.309   5.531   3.832 -3.0328  0.5065 -1.0157
 3871TIP3    H211620   5.380   5.657   3.787  0.7853 -0.7162  1.1017
 3872TIP3   OH211621   0.100   2.114   1.174  0.0528  0.2818 -0.0613
 3872TIP3    H111622   0.123   2.078   1.088  2.5036  0.1979  0.5458
 3872TIP3    H211623   0.173   2.171   1.196  0.4204 -1.1161  2.7544
 3873TIP3   OH211624   0.707   0.370   2.667  0.0119 -0.1857  0.3019
 3873TIP3    H111625   0.763   0.316   2.723 -0.8108  0.8966  2.2671
 3873TIP3    H211626   0.620   0.362   2.706 -0.4953  1.0573 -0.5039
 3874TIP3   OH211627   0.303   3.318   0.583 -0.0585  0.0241 -0.0797
 3874TIP3    H111628   0.375   3.378   0.567 -0.4673  0.2879 -1.0150
 3874TIP3    H211629   0.328   3.271   0.662  1.1972  0.0133 -0.4591
 3875TIP3   OH211630   5.847   3.290   2.231 -0.2833 -0.2072 -0.0977
 3875TIP3    H111631   5.880   3.275   2.143 -1.0693  0.8922 -0.6099
 3875TIP3    H211632   5.824   3.382   2.232 -1.7448 -0.5483  0.7451
 3876TIP3   OH211633   1.900   2.910   2.957  0.9525  0.8435  0.1913
 3876TIP3    H111634   1.919   2.833   3.011 -1.2277  0.8770  1.0756
 3876TIP3    H211635   1.850   2.968   3.014  0.6385  1.9374 -1.1544
 3877TIP3   OH211636   5.895   5.080   2.367 -0.1922 -0.0446  0.1244
 3877TIP3    H111637   5.980   5.123   2.357 -0.1285 -0.3970 -0.8745
 3877TIP3    H211638   5.831   5.149   2.348 -0.1284  0.0855  0.3717
 3878TIP3   OH211639   5.305   1.600   5.130  0.0259  0.1480  0.1422
 3878TIP3    H111640   5.357   1.548   5.191 -0.5920 -0.7148 -0.0527
 3878TIP3    H211641   5.340   1.578   5.044 -0.2179  0.0733  0.0617
 3879TIP3   OH211642   5.278   3.321   2.242 -0.5100  0.2628  0.2000
 3879TIP3    H111643   5.320   3.382   2.180 -1.5161  0.1331 -0.6387
 3879TIP3    H211644   5.289   3.363   2.327  1.0649  0.3588 -0.0200
 3880TIP3   OH211645   5.234   4.463   3.704  0.0739  0.2550  0.2911
 3880TIP3    H111646   5.247   4.556   3.688 -0.0747  0.1770 -0.3240
 3880TIP3    H211647   5.172   4.435   3.637 -0.3247 -0.1715  0.8218
 3881TIP3   OH211648   3.820   2.748   0.443  0.2056 -0.0640  0.5578
 3881TIP3    H111649   3.823   2.696   0.523 -0.8284 -0.8797  0.0927
 3881TIP3    H211650   3.858   2.692   0.376 -2.4631 -1.0119 -0.3180
 3882TIP3   OH211651   0.230   3.216   4.943 -0.4949 -0.0825  0.2811
 3882TIP3    H111652   0.205   3.202   4.852  1.9549  0.5502 -0.5424
 3882TIP3    H211653   0.286   3.294   4.942  0.2639 -0.5415  2.1848
 3883TIP3   OH211654   4.033   5.451   2.696 -0.0758 -0.2170 -0.2594
 3883TIP3    H111655   4.052   5.442   2.790  1.6386  1.4529 -0.3805
 3883TIP3    H211656   3.970   5.523   2.692  0.4727  0.2602 -0.4231
 3884TIP3   OH211657   2.284   2.946   3.094  0.5482  0.1054 -0.4825
 3884TIP3    H111658   2.375   2.969   3.075  1.3823 -1.6701  0.9649
 3884TIP3    H211659   2.286   2.916   3.185 -1.2096 -1.3431 -0.8650
 3885TIP3   OH211660   1.489   0.178   2.008 -0.4860  0.9300 -0.4437
 3885TIP3    H111661   1.493   0.115   2.080  1.3702  1.8650  0.3529
 3885TIP3    H211662   1.514   0.129   1.931 -1.1066  0.2374 -0.2192
 3886TIP3   OH211663   4.030   4.542   3.526 -0.3048 -0.2706  0.3906
 3886TIP3    H111664   4.061   4.521   3.439 -0.9235 -2.0185  0.5494
 3886TIP3    H211665   3.958   4.480   3.542 -0.5034  0.3010  1.9591
 3887TIP3   OH211666   3.146   5.383   1.896 -0.3471 -0.4462 -0.2129
 3887TIP3    H111667   3.180   5.422   1.816 -0.8892  0.0195 -0.2278
 3887TIP3    H211668   3.162   5.449   1.963  0.6568 -1.0870  0.1883
 3888TIP3   OH211669   3.422   5.353   4.717  0.4219 -0.2546 -0.3648
 3888TIP3    H111670   3.352   5.343   4.652  1.4304  0.4486 -1.6085
 3888TIP3    H211671   3.496   5.388   4.667  0.8514  1.5606  1.4158
 3889TIP3   OH211672   0.998   2.697   5.056 -0.1156  0.1080  0.0272
 3889TIP3    H111673   1.077   2.650   5.083 -0.2955 -0.8110 -0.9840
 3889TIP3    H211674   0.963   2.734   5.138  0.0396 -1.4983  0.8568
 3890TIP3   OH211675   1.178   0.017   1.365 -0.1247 -0.4745 -0.1053
 3890TIP3    H111676   1.240   0.036   1.435  0.5709  0.9664 -1.0786
 3890TIP3    H211677   1.092   0.017   1.409  0.3480 -0.2007  0.8457
 3891TIP3   OH211678   4.530   1.752   1.253 -0.7511 -0.1202 -0.5578
 3891TIP3    H111679   4.621   1.783   1.261 -1.4606  1.7546  1.0514
 3891TIP3    H211680   4.502   1.737   1.343 -2.9714  2.3018 -0.7337
 3892TIP3   OH211681   2.363   4.310   2.122  0.0583  0.2761  0.3791
 3892TIP3    H111682   2.417   4.376   2.165  1.0071  0.4990 -1.1206
 3892TIP3    H211683   2.336   4.349   2.040 -1.9579 -0.0549  0.8339
 3893TIP3   OH211684   4.889   4.059   3.813  0.2027 -0.0800  0.1437
 3893TIP3    H111685   4.939   3.998   3.759  0.1994 -1.4602  1.6057
 3893TIP3    H211686   4.826   4.004   3.860 -0.1972  1.1199  1.0941
 3894TIP3   OH211687   0.818   2.703   4.511 -0.0607  0.1527 -0.2764
 3894TIP3    H111688   0.843   2.720   4.602  0.1811  1.1540 -0.5182
 3894TIP3    H211689   0.724   2.717   4.508 -0.1035 -0.1006 -0.1339
 3895TIP3   OH211690   1.983   3.623   3.430  0.3182 -0.5051 -0.2050
 3895TIP3    H111691   1.936   3.698   3.394 -1.1754 -1.1737  0.2357
 3895TIP3    H211692   1.938   3.547   3.393  1.4469 -1.1850 -0.2132
 3896TIP3   OH211693   4.604   3.866   4.577 -0.5547  0.4414  0.1361
 3896TIP3    H111694   4.672   3.930   4.597 -0.2916  0.0025  0.6803
 3896TIP3    H211695   4.632   3.787   4.622 -1.3223  0.1959  0.1942
 3897TIP3   OH211696   1.817   1.564   4.337 -0.0905 -0.1093 -0.4552
 3897TIP3    H111697   1.861   1.482   4.312  1.4413  0.7592 -0.6882
 3897TIP3    H211698   1.741   1.568   4.280  0.4625 -0.7916 -1.2708
 3898TIP3   OH211699   0.429   3.185   4.450 -0.1672 -0.7164  0.1919
 3898TIP3    H111700   0.492   3.177   4.378  0.1326  0.1268  0.3566
 3898TIP3    H211701   0.345   3.159   4.410 -0.3181  1.3068 -0.9411
 3899TIP3   OH211702   0.473   2.325   2.497  0.4355 -0.2021  0.4450
 3899TIP3    H111703   0.514   2.299   2.415  0.6080  0.8018  0.2098
 3899TIP3    H211704   0.401   2.382   2.471  0.0496 -0.4389  0.9611
 3900TIP3   OH211705   4.864   3.549   2.532  0.1032 -0.4545  0.7239
 3900TIP3    H111706   4.959   3.544   2.529  0.1667 -0.2875  1.9259
 3900TIP3    H211707   4.839   3.582   2.446  1.1536 -0.2279  0.4927
 3901TIP3   OH211708   6.051   4.498   2.056 -0.3115 -0.5536 -0.2022
 3901TIP3    H111709   6.116   4.459   1.997 -0.4310 -2.7601  1.0205
 3901TIP3    H211710   6.064   4.453   2.139  0.6985  3.2969  1.9469
 3902TIP3   OH211711   0.007   3.610   1.406 -0.1486  0.1755  0.1076
 3902TIP3    H111712   0.096   3.616   1.440 -0.1585  1.7285 -0.0410
 3902TIP3    H211713   0.003   3.525   1.364  1.4895  0.3388 -0.4630
 3903TIP3   OH211714   1.536   2.251   2.567 -0.3858  0.0926 -0.3759
 3903TIP3    H111715   1.597   2.239   2.640 -1.3109 -0.4113  0.3420
 3903TIP3    H211716   1.472   2.181   2.578 -1.7846  1.3327 -0.3836
 3904TIP3   OH211717   2.269   5.861   1.636  0.0556 -0.3101  0.1203
 3904TIP3    H111718   2.341   5.924   1.631  1.0063 -1.1856  2.0361
 3904TIP3    H211719   2.278   5.808   1.557  1.3680 -0.2471  0.2117
 3905TIP3   OH211720   5.148   4.140   3.918 -0.2422 -0.2824 -0.3122
 3905TIP3    H111721   5.063   4.105   3.890 -0.6783 -1.5069  2.2526
 3905TIP3    H211722   5.212   4.081   3.880 -0.7824 -1.5246  0.6210
 3906TIP3   OH211723   0.201   3.800   2.510  0.3895 -0.4804 -0.4950
 3906TIP3    H111724   0.286   3.762   2.488  0.0396 -1.0129 -0.9389
 3906TIP3    H211725   0.183   3.862   2.440  0.3716 -0.4373 -0.4520
 3907TIP3   OH211726   1.377   5.137   0.871 -0.0202 -0.2498  0.2030
 3907TIP3    H111727   1.429   5.209   0.908  0.7823 -0.7463  0.0678
 3907TIP3    H211728   1.299   5.133   0.926 -0.0983  0.7623  0.1771
 3908TIP3   OH211729   5.380   3.743   3.218 -0.0909  0.2953 -0.3139
 3908TIP3    H111730   5.439   3.805   3.261  0.8025  0.7455 -2.1101
 3908TIP3    H211731   5.433   3.664   3.205 -0.6222 -0.1528  0.1772
 3909TIP3   OH211732   1.169   1.480   4.625 -0.1543 -0.2814 -0.2651
 3909TIP3    H111733   1.209   1.546   4.683  0.8291 -1.4369  0.4295
 3909TIP3    H211734   1.085   1.460   4.666 -0.3489  0.3411 -0.3448
 3910TIP3   OH211735   1.738   5.250   3.605 -0.2538  0.2118  0.3269
 3910TIP3    H111736   1.771   5.329   3.647 -2.4178  0.8787  0.8876
 3910TIP3    H211737   1.728   5.188   3.677  0.5370 -0.2764  0.0293
 3911TIP3   OH211738   2.084   2.448   4.319  0.7651 -0.3568 -0.0123
 3911TIP3    H111739   1.991   2.455   4.297  0.8858 -0.7928 -0.6884
 3911TIP3    H211740   2.110   2.538   4.342  0.3611 -0.0850 -0.5976
 3912TIP3   OH211741   3.535   5.551   3.048 -0.3569  0.1230  0.3251
 3912TIP3    H111742   3.556   5.611   2.977 -1.1212  0.1064  0.0772
 3912TIP3    H211743   3.614   5.497   3.058  0.2688  1.0312  0.4330
 3913TIP3   OH211744   4.030   4.839   1.769 -0.1317 -0.3255  0.2207
 3913TIP3    H111745   3.939   4.830   1.739 -0.3125  0.1782  0.6022
 3913TIP3    H211746   4.036   4.930   1.799 -0.6216 -1.3660  3.8547
 3914TIP3   OH211747   4.472   2.237   2.895 -0.4200 -0.3935  0.0428
 3914TIP3    H111748   4.427   2.192   2.824  0.6686  0.5647 -1.3187
 3914TIP3    H211749   4.442   2.328   2.890  2.0357  0.4604 -1.3915
 3915TIP3   OH211750   6.297   0.049   2.804 -0.0753 -0.3120 -0.6008
 3915TIP3    H111751   6.298  -0.012   2.730 -0.1241 -2.2230  0.9108
 3915TIP3    H211752   6.387   0.048   2.837 -0.0669  0.4962 -0.5817
 3916TIP3   OH211753   4.450   0.299   0.649 -0.5401  0.1244  0.1121
 3916TIP3    H111754   4.530   0.333   0.688 -0.4188  0.3150 -0.2951
 3916TIP3    H211755   4.461   0.204   0.648 -0.6700  0.0970  0.8054
 3917TIP3   OH211756   5.578   3.914   0.868  0.2505 -0.0395  0.6296
 3917TIP3    H111757   5.494   3.937   0.908 -0.1378  1.1018 -0.7667
 3917TIP3    H211758   5.642   3.927   0.938 -0.5338  0.7806  1.2115
 3918TIP3   OH211759   0.217   5.364   1.610 -0.3881 -0.3848 -0.5146
 3918TIP3    H111760   0.312   5.371   1.622 -0.5183  1.5362 -0.3257
 3918TIP3    H211761   0.199   5.270   1.616  1.5180 -0.8007 -0.7422
 3919TIP3   OH211762   4.024   0.083   1.878 -0.1946  0.3574  0.2186
 3919TIP3    H111763   4.028   0.167   1.832  1.0910 -0.6845 -1.7659
 3919TIP3    H211764   3.994   0.104   1.966 -3.4018  2.4726 -1.1885
 3920TIP3   OH211765   1.179   4.730   3.966 -0.3368  0.1451  0.0415
 3920TIP3    H111766   1.261   4.776   3.983 -0.3614  0.7146 -1.2942
 3920TIP3    H211767   1.114   4.800   3.956 -0.9818 -0.2943  0.9628
 3921TIP3   OH211768   5.918   5.524   4.751 -0.1731  0.7570  0.4501
 3921TIP3    H111769   5.902   5.583   4.678 -0.1628  1.9651  1.3782
 3921TIP3    H211770   6.013   5.522   4.761 -0.1089 -0.3287 -0.2796
 3922TIP3   OH211771   5.433   2.745   3.259 -0.3454  0.3415  0.3616
 3922TIP3    H111772   5.480   2.815   3.305 -1.3083  0.0966  1.7876
 3922TIP3    H211773   5.503   2.693   3.218  0.4741  1.2700  0.5345
 3923TIP3   OH211774   5.727   2.699   5.047 -0.3221  0.8987  0.3704
 3923TIP3    H111775   5.711   2.640   5.120  1.7075  0.9818  0.9509
 3923TIP3    H211776   5.794   2.654   4.994  0.9386  2.4409  0.5849
 3924TIP3   OH211777   6.012   4.767   1.470  0.2380  0.3352 -0.0049
 3924TIP3    H111778   5.986   4.739   1.558 -0.9899  0.5438 -0.2811
 3924TIP3    H211779   5.929   4.789   1.427  0.9088  1.1618 -0.8950
 3925TIP3   OH211780   3.591   2.398   0.080 -0.0398 -0.1492  0.5973
 3925TIP3    H111781   3.643   2.394   0.160 -0.5976  0.6872  1.0176
 3925TIP3    H211782   3.655   2.415   0.011  0.4238 -0.6916  0.8864
 3926TIP3   OH211783   3.388   0.632   3.507  0.1434  0.3265  0.3646
 3926TIP3    H111784   3.429   0.545   3.507  1.4689  0.8552  2.9451
 3926TIP3    H211785   3.461   0.693   3.501 -0.4972  1.2676  1.5897
 3927TIP3   OH211786   4.653   4.644   1.742  0.2218 -0.6554 -0.2943
 3927TIP3    H111787   4.722   4.708   1.727 -1.1486  0.5677 -1.7060
 3927TIP3    H211788   4.700   4.562   1.762  2.0255  0.7248  1.6638
 3928TIP3   OH211789   5.597   3.956   0.488 -0.2076  0.0716  0.0724
 3928TIP3    H111790   5.653   3.879   0.495 -0.7528 -0.5779 -1.9059
 3928TIP3    H211791   5.654   4.029   0.513  1.2386 -0.6743 -0.8794
 3929TIP3   OH211792   4.362   1.409   0.065 -0.0022 -1.2315 -0.4998
 3929TIP3    H111793   4.291   1.353   0.097  0.3238 -1.6599 -0.5200
 3929TIP3    H211794   4.320   1.467   0.001  0.0122 -2.7559 -1.9566
 3930TIP3   OH211795   3.152   0.024   1.550  0.3057  0.3256  0.4439
 3930TIP3    H111796   3.127   0.057   1.637 -0.4359 -0.7073  0.6421
 3930TIP3    H211797   3.069   0.018   1.502  0.6059  0.0566 -0.0445
 3931TIP3   OH211798   3.841   4.116   0.646  0.2652  0.2280 -0.6762
 3931TIP3    H111799   3.888   4.199   0.654 -0.4139  0.5918 -0.3956
 3931TIP3    H211800   3.845   4.077   0.734  1.0628 -0.3043 -0.9419
 3932TIP3   OH211801   2.657   2.897   4.860  0.2663  0.2518 -0.5076
 3932TIP3    H111802   2.608   2.883   4.778 -0.6275  1.1301 -0.1538
 3932TIP3    H211803   2.594   2.941   4.917  1.1322  0.3530  0.3835
 3933TIP3   OH211804   4.861   4.649   2.346 -0.0196  0.3982  0.0800
 3933TIP3    H111805   4.916   4.682   2.275 -0.9108 -3.0580 -2.4120
 3933TIP3    H211806   4.775   4.686   2.329  0.3162  1.6621  0.9760
 3934TIP3   OH211807   6.036   3.719   3.536  0.3234  0.3450 -0.5086
 3934TIP3    H111808   6.123   3.696   3.504 -0.2852 -3.0631 -0.0542
 3934TIP3    H211809   6.051   3.750   3.626  1.0672 -0.4446 -0.3533
 3935TIP3   OH211810   2.972   1.260   4.908 -0.1822  0.4005  0.0290
 3935TIP3    H111811   3.032   1.248   4.982 -0.1246  0.8272  0.0542
 3935TIP3    H211812   2.924   1.340   4.929 -0.1015  0.5757 -0.4348
 3936TIP3   OH211813   5.656   2.934   2.609  0.4898 -0.0054  0.0978
 3936TIP3    H111814   5.682   3.010   2.557  0.6372 -1.3340 -1.9230
 3936TIP3    H211815   5.694   2.949   2.695  2.1689  1.3032 -0.7991
 3937TIP3   OH211816   4.149   3.859   4.281  0.4570 -0.2625  0.1749
 3937TIP3    H111817   4.090   3.829   4.211 -0.6110  1.4161  0.3137
 3937TIP3    H211818   4.162   3.781   4.335 -1.9856 -0.6265  0.3670
 3938TIP3   OH211819   3.759   4.626   3.796  0.1768  0.1857 -0.2446
 3938TIP3    H111820   3.827   4.630   3.863  0.4392  1.8256 -0.5490
 3938TIP3    H211821   3.732   4.534   3.793  3.3757 -0.8361 -1.1257
 3939TIP3   OH211822   4.990   0.622   2.881  0.2145  0.1418 -0.0747
 3939TIP3    H111823   4.970   0.537   2.921 -0.1197 -0.4317 -1.3957
 3939TIP3    H211824   4.905   0.655   2.852  0.2356  1.3244  1.1379
 3940TIP3   OH211825   5.873   2.040   0.932 -0.2060 -0.0967 -0.2796
 3940TIP3    H111826   5.894   2.081   1.016  0.5954  0.3701 -0.6940
 3940TIP3    H211827   5.822   2.107   0.885  1.0409  0.4436 -0.9278
 3941TIP3   OH211828   5.643  -0.007   1.789  0.1144  0.6458 -0.7062
 3941TIP3    H111829   5.714   0.015   1.849  0.2913  0.4160 -0.8262
 3941TIP3    H211830   5.630   0.072   1.737  0.7239  0.4799 -1.1180
 3942TIP3   OH211831   0.020   3.496   3.634  0.3114 -0.1815  0.4193
 3942TIP3    H111832   0.004   3.538   3.718 -0.0953 -0.4623  0.4827
 3942TIP3    H211833   0.090   3.549   3.594  1.7571 -1.0566  1.6600
 3943TIP3   OH211834   0.130   2.731   2.263 -0.0484 -0.2853 -0.2565
 3943TIP3    H111835   0.194   2.787   2.218  0.5851 -0.3993  0.4894
 3943TIP3    H211836   0.046   2.758   2.227  0.3608  0.2705 -0.8319
 3944TIP3   OH211837   5.896   5.464   2.328  0.7084 -0.1212 -0.3438
 3944TIP3    H111838   5.855   5.427   2.406 -0.8870 -0.4389 -1.2909
 3944TIP3    H211839   5.947   5.538   2.361  0.2739 -0.3902  1.0124
 3945TIP3   OH211840   3.020   0.920   1.107  0.1183 -0.2159 -0.0988
 3945TIP3    H111841   2.957   0.912   1.036  0.5118  0.8997 -0.6063
 3945TIP3    H211842   3.098   0.958   1.066  0.6316 -0.2752  0.7796
 3946TIP3   OH211843   4.340   5.823   2.348  0.5441 -0.7670 -0.0321
 3946TIP3    H111844   4.428   5.792   2.371  0.6578 -1.4980 -1.3292
 3946TIP3    H211845   4.355   5.904   2.299  0.3165  0.6457  2.1062
 3947TIP3   OH211846   2.626   5.619   0.456  0.2274  0.4136  0.0785
 3947TIP3    H111847   2.605   5.683   0.387  1.1583 -0.7145 -1.3000
 3947TIP3    H211848   2.541   5.589   0.487 -0.2190  0.4855 -1.0259
 3948TIP3   OH211849   2.977   3.564   3.179  0.2003  0.2926 -0.0298
 3948TIP3    H111850   3.031   3.524   3.247 -1.3100  1.5774  2.0609
 3948TIP3    H211851   3.016   3.650   3.164  0.2418  0.2062 -0.4189
 3949TIP3   OH211852   5.388   2.399   2.064  0.2742 -0.2854 -0.3973
 3949TIP3    H111853   5.304   2.368   2.030 -0.9207  1.8439  0.4721
 3949TIP3    H211854   5.431   2.319   2.095 -2.8502 -1.1633  2.2196
 3950TIP3   OH211855   3.561   2.036   4.578  0.1233 -0.1588 -0.2035
 3950TIP3    H111856   3.589   2.122   4.610 -1.3622  0.0005  0.7548
 3950TIP3    H211857   3.551   2.048   4.484  1.4136  0.2768 -0.3061
 3951TIP3   OH211858   5.499   3.102   1.299  0.1608 -0.0289 -0.4715
 3951TIP3    H111859   5.504   3.092   1.204  1.1489 -2.0955 -0.2565
 3951TIP3    H211860   5.423   3.049   1.324  1.1694 -1.2822  0.0524
 3952TIP3   OH211861   6.042   5.245   0.861 -0.2001  0.2684  0.5300
 3952TIP3    H111862   6.064   5.158   0.827  1.2332  1.3381 -1.4706
 3952TIP3    H211863   6.046   5.302   0.784 -0.3845  2.2369  1.9222
 3953TIP3   OH211864   2.775   3.800   3.210  0.5344  0.1654 -1.1938
 3953TIP3    H111865   2.770   3.754   3.126 -0.9017 -1.1993 -0.4105
 3953TIP3    H211866   2.869   3.810   3.227  0.8486 -0.0060 -2.6870
 3954TIP3   OH211867   0.139   0.803   0.023  0.5603  0.1092 -0.5826
 3954TIP3    H111868   0.080   0.736   0.059 -1.4053  2.1202  0.2069
 3954TIP3    H211869   0.158   0.861   0.097  2.1868  0.4760 -1.2404
 3955TIP3   OH211870   0.568   5.277   0.192  0.7382  0.2573  0.0684
 3955TIP3    H111871   0.479   5.250   0.169  0.5907 -0.4549  1.3754
 3955TIP3    H211872   0.557   5.365   0.229  0.2296 -0.6486  2.2315
 3956TIP3   OH211873   1.236   2.323   2.514 -1.1063 -0.0267  0.4317
 3956TIP3    H111874   1.243   2.365   2.600 -0.2365 -2.3401  1.5826
 3956TIP3    H211875   1.313   2.266   2.509 -2.3883 -1.7464 -0.8386
 3957TIP3   OH211876   0.766   5.704   4.612  0.0913  0.0733  0.5345
 3957TIP3    H111877   0.819   5.783   4.603 -1.4764  1.0419 -0.8132
 3957TIP3    H211878   0.676   5.734   4.596 -0.4675 -2.1196 -0.9000
 3958TIP3   OH211879   6.013   1.786   2.408  0.4487  0.5645 -0.0718
 3958TIP3    H111880   6.065   1.707   2.392 -0.8008 -0.2573 -0.2051
 3958TIP3    H211881   6.078   1.853   2.430  1.6316 -0.2137 -1.0199
 3959TIP3   OH211882   0.093   1.944   2.689 -0.0489 -0.4545  0.0201
 3959TIP3    H111883   0.017   1.886   2.693 -0.8159  0.1945 -2.8043
 3959TIP3    H211884   0.115   1.948   2.596  1.4772  1.8908  0.3886
 3960TIP3   OH211885   5.652   2.330   0.391 -0.5113  0.0270 -1.0949
 3960TIP3    H111886   5.739   2.359   0.365  0.5918  0.0709  2.1142
 3960TIP3    H211887   5.597   2.346   0.315  1.7901  2.2387 -2.4480
 3961TIP3   OH211888   4.194   2.268   4.793  0.3590  0.2617 -0.2222
 3961TIP3    H111889   4.114   2.266   4.846  0.9106  2.0874  0.7364
 3961TIP3    H211890   4.264   2.241   4.853  0.7264  0.5167 -0.5319
 3962TIP3   OH211891   5.861   1.907   4.270 -0.1873 -0.2733  0.6433
 3962TIP3    H111892   5.883   1.971   4.337 -0.6806  1.5899 -0.9016
 3962TIP3    H211893   5.855   1.824   4.317  0.5722  0.7725  2.6881
 3963TIP3   OH211894   2.271   3.395   1.067 -0.7118  0.0107  0.1289
 3963TIP3    H111895   2.198   3.457   1.064 -1.1026 -0.2821  2.1793
 3963TIP3    H211896   2.230   3.309   1.058 -0.6368 -0.1591  1.3409
 3964TIP3   OH211897   0.250   3.571   3.123 -0.3293  0.0712 -0.1639
 3964TIP3    H111898   0.199   3.644   3.157 -1.5815 -0.7474 -0.2064
 3964TIP3    H211899   0.223   3.496   3.176  0.1294 -0.5753 -0.8194
 3965TIP3   OH211900   4.711   3.171   1.990 -0.2082 -0.2273  0.2883
 3965TIP3    H111901   4.720   3.152   2.083  0.7749  1.2098  0.5313
 3965TIP3    H211902   4.672   3.259   1.988  2.0432  0.8497 -0.5454
 3966TIP3   OH211903   5.773   0.722   1.218  0.5364  0.6079 -0.8454
 3966TIP3    H111904   5.736   0.778   1.150 -0.3690 -0.5495 -1.3497
 3966TIP3    H211905   5.833   0.664   1.173 -1.1602 -1.1628 -0.9976
 3967TIP3   OH211906   4.121   2.321   3.410  0.2237  0.2890  0.2092
 3967TIP3    H111907   4.148   2.231   3.396 -0.8091  0.3476 -2.8006
 3967TIP3    H211908   4.025   2.320   3.403  0.2335  1.7106 -0.5573
 3968TIP3   OH211909   3.948   2.008   3.465  0.0360  0.2854 -0.2129
 3968TIP3    H111910   3.913   1.968   3.545  0.3843  0.2322 -0.0830
 3968TIP3    H211911   3.907   2.094   3.462  0.1306  0.3453  0.1029
 3969TIP3   OH211912   5.582   0.459   4.646  0.0901 -0.4143  0.1830
 3969TIP3    H111913   5.499   0.471   4.598 -0.2240 -0.8369  0.6042
 3969TIP3    H211914   5.646   0.440   4.577  0.1048  1.1395 -0.2599
 3970TIP3   OH211915   2.882   3.797   1.947 -0.0058  0.8101  0.0289
 3970TIP3    H111916   2.804   3.813   1.894 -1.3384 -2.6862  0.6468
 3970TIP3    H211917   2.853   3.808   2.037  0.4276  0.2868  0.2401
 3971TIP3   OH211918   2.962   3.156   0.939  0.4181 -0.7023  0.2165
 3971TIP3    H111919   3.018   3.150   0.861 -1.3541 -1.6712 -1.0376
 3971TIP3    H211920   2.907   3.233   0.923  0.4418 -0.5607  0.7955
 3972TIP3   OH211921   6.233   4.329   0.655  0.3301 -0.7240  0.2090
 3972TIP3    H111922   6.291   4.273   0.707 -0.0986 -0.4435  1.0035
 3972TIP3    H211923   6.269   4.417   0.666 -0.4677 -0.4863  1.0447
 3973TIP3   OH211924   3.616   3.780   4.524 -0.3550  0.0821 -0.4891
 3973TIP3    H111925   3.712   3.785   4.522 -0.2508 -0.0443  1.8314
 3973TIP3    H211926   3.591   3.776   4.432  1.9189 -0.7897 -1.1443
 3974TIP3   OH211927   0.064   1.766   4.919  0.2393  0.6970 -0.0221
 3974TIP3    H111928  -0.015   1.717   4.897  0.4124  0.5453 -0.2976
 3974TIP3    H211929   0.057   1.780   5.014  0.5141 -0.4383  0.1785
 3975TIP3   OH211930   5.942   0.053   5.137 -0.1731  0.3139 -0.0968
 3975TIP3    H111931   5.929  -0.039   5.114  0.2972  0.5915 -1.5457
 3975TIP3    H211932   5.986   0.050   5.222 -0.3706 -0.7931 -0.0164
 3976TIP3   OH211933   3.248   5.518   3.102  0.0197 -0.3949 -0.1490
 3976TIP3    H111934   3.344   5.520   3.103  0.0102  0.5138  0.2830
 3976TIP3    H211935   3.226   5.482   3.016  0.7620  3.2967 -2.0915
 3977TIP3   OH211936   5.988   0.117   1.008  0.1686  0.0646  0.0101
 3977TIP3    H111937   5.948   0.119   1.095 -0.6692 -1.0151 -0.3291
 3977TIP3    H211938   6.046   0.193   1.006  1.4960 -0.8320  2.1252
 3978TIP3   OH211939   0.559   1.684   2.895 -0.2201 -0.2283  0.4197
 3978TIP3    H111940   0.611   1.763   2.884 -1.0805  0.0882 -2.1141
 3978TIP3    H211941   0.469   1.716   2.907 -0.3743 -0.8186  0.9370
 3979TIP3   OH211942   4.553   5.117   4.937  0.8778  0.2778 -0.4468
 3979TIP3    H111943   4.634   5.108   4.987  0.3994 -1.5372  0.1069
 3979TIP3    H211944   4.484   5.094   4.999  0.1492 -0.6127 -1.5404
 3980TIP3   OH211945   4.193   5.025   4.022 -0.1478  0.0652  0.6147
 3980TIP3    H111946   4.138   4.949   4.003 -0.8315  0.3744  1.3148
 3980TIP3    H211947   4.283   4.992   4.014 -0.4058 -0.2752 -1.2434
 3981TIP3   OH211948   4.512   4.947   3.639  0.2874 -0.2198 -0.3257
 3981TIP3    H111949   4.554   5.029   3.666  0.3312  0.6673 -2.8656
 3981TIP3    H211950   4.584   4.886   3.626  0.2978 -0.5151  0.9087
 3982TIP3   OH211951   0.187   3.351   3.333 -0.1929  0.4738  0.3064
 3982TIP3    H111952   0.095   3.374   3.349 -0.4484 -0.4420  0.2028
 3982TIP3    H211953   0.227   3.352   3.420 -0.3047  0.8396  0.3569
 3983TIP3   OH211954   3.673   1.778   2.625  0.3526  0.6177  0.7923
 3983TIP3    H111955   3.581   1.803   2.634 -0.8360 -1.8819 -2.2464
 3983TIP3    H211956   3.712   1.848   2.571 -0.7157  0.1160 -0.6925
 3984TIP3   OH211957   0.723   5.592   4.073  0.0728  0.1172  0.3725
 3984TIP3    H111958   0.655   5.552   4.018  0.3339  0.1767  0.0052
 3984TIP3    H211959   0.771   5.649   4.014 -0.0327  0.6593  0.8036
 3985TIP3   OH211960   2.386   0.577   2.258  0.2587  0.1570 -0.1056
 3985TIP3    H111961   2.296   0.577   2.225  0.7574  0.4932 -1.4997
 3985TIP3    H211962   2.434   0.521   2.197  0.9862 -0.0950  0.6864
 3986TIP3   OH211963   0.471   3.984   1.494  0.0590  0.0844 -0.2033
 3986TIP3    H111964   0.523   4.034   1.556  0.4036 -1.4927  0.8354
 3986TIP3    H211965   0.399   3.949   1.546 -2.0710  2.1177 -1.5719
 3987TIP3   OH211966   2.146   0.530   0.986 -0.2318  0.3362 -0.1530
 3987TIP3    H111967   2.219   0.563   0.933  1.2066  0.4022  1.7487
 3987TIP3    H211968   2.087   0.605   0.994  0.6163  0.9971  0.1133
 3988TIP3   OH211969   1.778   3.079   2.552  0.0587  0.7140 -0.2604
 3988TIP3    H111970   1.834   3.155   2.570  0.4164  0.2782  0.5438
 3988TIP3    H211971   1.828   3.004   2.587 -0.5606  0.1886 -0.4825
 3989TIP3   OH211972   0.135   2.719   1.790 -0.1642  0.1057  0.0451
 3989TIP3    H111973   0.106   2.628   1.785 -1.5097  0.5459 -0.7417
 3989TIP3    H211974   0.077   2.766   1.731  0.6341  1.4592  0.2851
 3990TIP3   OH211975   5.382   4.851  -0.034 -0.6057 -1.0604 -0.0452
 3990TIP3    H111976   5.304   4.877   0.015 -1.5502 -3.0111 -0.4314
 3990TIP3    H211977   5.439   4.811   0.032  0.5881  1.1951  0.4297
 3991TIP3   OH211978   0.622   1.678   4.595  0.1492  0.5575  0.3485
 3991TIP3    H111979   0.716   1.665   4.607 -0.0240 -0.0471  1.1509
 3991TIP3    H211980   0.610   1.773   4.596  0.8949  0.6801 -0.9976
 3992TIP3   OH211981   1.542   5.874   4.481  0.3394 -0.0950 -0.1425
 3992TIP3    H111982   1.494   5.920   4.413 -0.4336  0.1629  0.5600
 3992TIP3    H211983   1.573   5.944   4.540  1.3318 -0.2785 -0.4211
 3993TIP3   OH211984   5.030   2.568   3.695 -0.0004 -0.1174 -0.6440
 3993TIP3    H111985   5.088   2.492   3.687  1.3655  0.6901  0.8592
 3993TIP3    H211986   5.048   2.602   3.783 -1.0271  1.5825 -1.0510
 3994TIP3   OH211987   2.983   2.733   0.440 -0.1259 -0.0474 -0.4311
 3994TIP3    H111988   3.022   2.810   0.400  0.5931  0.8114  1.7341
 3994TIP3    H211989   3.055   2.693   0.490 -0.9992 -0.8664  0.2222
 3995TIP3   OH211990   4.467   4.401   0.488  0.8753  0.4140  0.4940
 3995TIP3    H111991   4.372   4.402   0.483  0.7615 -2.4339  0.9094
 3995TIP3    H211992   4.495   4.437   0.403 -0.5098  1.4443  0.4313
 3996TIP3   OH211993   4.678   3.549   2.165 -0.5504  0.2081  0.2888
 3996TIP3    H111994   4.704   3.558   2.074  1.4121  0.3021  0.8175
 3996TIP3    H211995   4.731   3.613   2.212 -0.4080 -0.8752  1.6755
 3997TIP3   OH211996   4.325   3.885   2.274  0.2517  0.1039  0.0434
 3997TIP3    H111997   4.385   3.819   2.309  0.0481 -0.3076 -0.3682
 3997TIP3    H211998   4.375   3.966   2.276  0.8544 -0.2484 -0.3794
 3998TIP3   OH211999   0.051   1.239   2.471 -0.3287  0.0230  0.3611
 3998TIP3    H112000   0.054   1.271   2.381 -0.9171 -0.6727  0.0864
 3998TIP3    H212001   0.017   1.314   2.521 -2.5837 -0.3956 -0.4200
 3999TIP3   OH212002   3.383   3.641   3.942  0.0520  0.0170  0.2710
 3999TIP3    H112003   3.418   3.594   3.866  0.2857 -0.1350  0.4733
 3999TIP3    H212004   3.406   3.733   3.926  0.7593 -0.1131  0.5210
 4000TIP3   OH212005   2.701   2.283   4.118 -0.1088  0.2269 -0.6938
 4000TIP3    H112006   2.749   2.269   4.199 -1.9176 -1.1450  0.2171
 4000TIP3    H212007   2.765   2.262   4.049  0.9427 -0.3519  0.4123
 4001TIP3   OH212008   1.278   4.110   1.156  0.3259  0.3734  0.4502
 4001TIP3    H112009   1.374   4.111   1.152  0.3278  1.4498  0.4864
 4001TIP3    H212010   1.258   4.086   1.246  0.5136 -2.3972 -0.1802
 4002TIP3   OH212011   1.834   5.547   4.364 -0.2246  0.3516 -0.1529
 4002TIP3    H112012   1.867   5.611   4.302  0.6204  0.1981  0.1244
 4002TIP3    H212013   1.864   5.463   4.330 -2.9603 -0.1572 -1.5907
 4003TIP3   OH212014   2.850   0.514   1.725  0.1967  0.1050 -0.7244
 4003TIP3    H112015   2.757   0.512   1.747  0.2051 -1.7641 -0.6712
 4003TIP3    H212016   2.857   0.580   1.656 -1.3725 -0.5120 -1.5397
 4004TIP3   OH212017   3.190   1.602   3.048  0.7252  0.2657 -0.0142
 4004TIP3    H112018   3.269   1.618   3.100  1.4065  0.2201 -1.0080
 4004TIP3    H212019   3.223   1.572   2.963 -0.3163  1.3062 -0.8142
 4005TIP3   OH212020   0.137   5.236   2.617 -0.2004  0.8175 -0.1213
 4005TIP3    H112021   0.203   5.167   2.624 -1.9044 -0.7911  1.1161
 4005TIP3    H212022   0.171   5.307   2.672  1.0235  0.5072 -0.4432
 4006TIP3   OH212023   0.906   3.899   3.755  0.1555 -0.2329  0.1975
 4006TIP3    H112024   0.881   3.889   3.663 -1.1951  2.0104  0.2610
 4006TIP3    H212025   0.824   3.890   3.803  0.4424  1.0306  0.9651
 4007TIP3   OH212026   1.841   1.147   3.728 -0.1892  0.0058  0.0541
 4007TIP3    H112027   1.780   1.115   3.662  0.6714 -0.4506 -0.5298
 4007TIP3    H212028   1.912   1.187   3.679  0.6538 -0.6823  0.6748
 4008TIP3   OH212029   3.042   0.574   1.141  1.2371 -0.0529 -0.0798
 4008TIP3    H112030   2.975   0.641   1.131  0.2858 -1.0830 -0.9208
 4008TIP3    H212031   3.041   0.527   1.057  1.2211 -1.6746  0.7809
 4009TIP3   OH212032   5.092   5.518   4.218  0.4872  0.4077  0.2251
 4009TIP3    H112033   5.169   5.568   4.243  1.5016 -0.8544 -0.2211
 4009TIP3    H212034   5.102   5.434   4.263 -1.2452  0.6184  1.0939
 4010TIP3   OH212035   5.265   3.717   2.978  0.1797  0.5206  0.6764
 4010TIP3    H112036   5.177   3.755   2.974 -0.7409 -1.4043  0.9796
 4010TIP3    H212037   5.295   3.734   3.067 -0.5751 -0.1694  1.0765
 4011TIP3   OH212038   4.057   2.539   0.448  0.5898 -0.4701 -0.2909
 4011TIP3    H112039   4.037   2.583   0.366  0.5805  0.5083  0.2186
 4011TIP3    H212040   4.068   2.447   0.424  2.2876  0.0327 -1.6755
 4012TIP3   OH212041   1.622   2.232   0.818 -0.1252 -0.1923  0.1353
 4012TIP3    H112042   1.627   2.139   0.800  0.3276 -0.0981 -0.2622
 4012TIP3    H212043   1.598   2.272   0.734 -0.2854  0.0532  0.2933
 4013TIP3   OH212044   1.769   3.763   3.038  0.0846  0.1052 -0.3250
 4013TIP3    H112045   1.700   3.697   3.029 -0.3946  0.1937  2.0328
 4013TIP3    H212046   1.834   3.738   2.973 -1.2186 -1.2174 -1.1960
 4014TIP3   OH212047   0.386   0.478   2.444  0.0697 -0.1095 -0.0076
 4014TIP3    H112048   0.414   0.570   2.439 -2.1020  0.5724 -4.0250
 4014TIP3    H212049   0.463   0.428   2.418  0.8278  0.6900  0.6224
 4015TIP3   OH212050   3.849   2.915   1.781  0.0667 -0.0052 -1.1823
 4015TIP3    H112051   3.759   2.944   1.795  0.3087  1.0977 -1.7814
 4015TIP3    H212052   3.854   2.829   1.823 -1.2663 -0.0885 -1.1682
 4016TIP3   OH212053   3.452   0.854   2.904  0.3266  0.6623  0.4980
 4016TIP3    H112054   3.472   0.890   2.991  0.5267  0.5971  0.4775
 4016TIP3    H212055   3.431   0.931   2.851 -0.0420  0.6829  0.6695
 4017TIP3   OH212056   5.321   4.067   0.972  0.1774  0.0471 -0.3297
 4017TIP3    H112057   5.242   4.015   0.958 -0.0818  0.4187 -0.2711
 4017TIP3    H212058   5.291   4.158   0.971  0.6127  0.1966 -0.3685
 4018TIP3   OH212059   4.968   5.956   2.593 -0.5329  0.4162 -0.0878
 4018TIP3    H112060   4.978   5.862   2.579 -0.8184  0.3974 -0.1839
 4018TIP3    H212061   4.874   5.968   2.603 -0.4627  0.6449  0.2795
 4019TIP3   OH212062   6.346   4.659   2.635 -0.7121  0.2671 -0.1195
 4019TIP3    H112063   6.276   4.605   2.673 -0.8763  2.0924  2.3760
 4019TIP3    H212064   6.300   4.717   2.574 -0.6620 -1.6081 -2.0598
 4020TIP3   OH212065   4.775   0.283   2.366  0.1297 -0.5366  0.1037
 4020TIP3    H112066   4.742   0.341   2.435  0.2828 -0.2884 -0.0297
 4020TIP3    H212067   4.762   0.195   2.401  1.5461 -0.3952  1.0731
 4021TIP3   OH212068   6.059   3.139   3.895  0.3758 -1.0446 -0.5315
 4021TIP3    H112069   6.034   3.184   3.976  0.0831 -3.2008  0.6371
 4021TIP3    H212070   6.145   3.177   3.873 -0.1602  0.5514 -0.0046
 4022TIP3   OH212071   3.194   2.877   4.014  0.2398  0.0956 -0.0493
 4022TIP3    H112072   3.150   2.903   4.095  0.2205 -1.2074  0.3876
 4022TIP3    H212073   3.161   2.938   3.949 -0.6042  0.4781  0.7001
 4023TIP3   OH212074   4.581   1.784   2.810 -0.3390 -0.0584  0.4294
 4023TIP3    H112075   4.543   1.715   2.756  1.2259 -0.3990 -0.2997
 4023TIP3    H212076   4.513   1.805   2.874 -1.0316 -1.9209  0.3552
 4024TIP3   OH212077   4.188   1.581   4.177  0.1676  0.5920  0.3352
 4024TIP3    H112078   4.182   1.535   4.261 -1.0428  0.9261  0.4461
 4024TIP3    H212079   4.267   1.545   4.136 -0.9078 -1.8935  0.2377
 4025TIP3   OH212080   5.412   0.200   1.446 -0.3857  0.4082 -0.3846
 4025TIP3    H112081   5.448   0.196   1.357 -0.8886 -0.9975 -0.5534
 4025TIP3    H212082   5.328   0.156   1.440 -0.5884  0.6125  0.7278
 4026TIP3   OH212083   5.921   1.842   0.404  0.1320 -0.3172 -0.0851
 4026TIP3    H112084   5.895   1.754   0.376 -2.7967 -0.3355  2.2829
 4026TIP3    H212085   5.871   1.901   0.348 -0.6572 -0.2547  0.6677
 4027TIP3   OH212086   3.667   2.672   4.695  0.1804  0.4131 -0.1211
 4027TIP3    H112087   3.601   2.670   4.626 -0.6051 -0.9177  0.6239
 4027TIP3    H212088   3.617   2.668   4.776  1.1474 -1.4629  0.4594
 4028TIP3   OH212089   2.950   3.296   4.313 -0.0793  0.5536 -0.1653
 4028TIP3    H112090   2.937   3.390   4.303  0.6640  0.7780  0.8284
 4028TIP3    H212091   2.962   3.283   4.407 -1.0747 -0.6584 -0.1787
 4029TIP3   OH212092   0.087   4.074   4.338 -0.0927  0.4058  0.0670
 4029TIP3    H112093   0.040   4.136   4.282  1.7179  1.2104 -0.6610
 4029TIP3    H212094   0.174   4.068   4.298 -0.0548 -2.2799  0.3914
 4030TIP3   OH212095   5.032   0.208   0.886 -0.0213  0.6316 -0.2213
 4030TIP3    H112096   5.050   0.116   0.866  2.4313  0.7990  0.8236
 4030TIP3    H212097   4.993   0.243   0.805  0.0036 -1.0657 -1.0067
 4031TIP3   OH212098   0.470   2.148   4.081 -0.0619  0.1250 -0.5235
 4031TIP3    H112099   0.548   2.099   4.057 -1.2803 -1.3939 -1.5168
 4031TIP3    H212100   0.458   2.130   4.174  0.2241 -0.4198 -0.5904
 4032TIP3   OH212101   5.936   0.743   3.846  0.1329 -0.1264 -0.1670
 4032TIP3    H112102   5.989   0.784   3.915  0.8025 -0.6851 -0.3469
 4032TIP3    H212103   5.992   0.675   3.809 -0.9554 -1.1982  0.1059
 4033TIP3   OH212104   0.518   4.217   4.281 -0.3065  0.4929 -0.6266
 4033TIP3    H112105   0.463   4.142   4.259 -0.2315 -0.0049  0.8173
 4033TIP3    H212106   0.587   4.181   4.337 -1.3842  1.8999  1.7594
 4034TIP3   OH212107   4.998   0.894   0.349 -0.5210  0.3039 -0.5498
 4034TIP3    H112108   5.071   0.929   0.299  0.5762 -0.3707  0.5032
 4034TIP3    H212109   5.017   0.919   0.440 -1.3095 -0.3528 -0.1886
 4035TIP3   OH212110   1.762   4.072   1.821  0.0572 -0.3503  0.4144
 4035TIP3    H112111   1.682   4.122   1.803  0.1948 -0.1252  0.4397
 4035TIP3    H212112   1.734   3.980   1.814  0.7981 -0.4973 -4.6602
 4036TIP3   OH212113   1.101   2.852   0.087  0.1684 -0.5047  0.3163
 4036TIP3    H112114   1.132   2.830  -0.001 -0.6788  0.8257 -0.3508
 4036TIP3    H212115   1.178   2.845   0.142  0.3966 -3.0133 -0.1738
 4037TIP3   OH212116   6.291   0.640   3.454  0.1512  0.0119 -0.1816
 4037TIP3    H112117   6.206   0.676   3.478 -0.4256 -1.1704 -0.3378
 4037TIP3    H212118   6.285   0.547   3.479  1.8465  0.1691  0.9520
 4038TIP3   OH212119   1.718   2.468   0.297 -0.2892  0.1232  0.6635
 4038TIP3    H112120   1.661   2.400   0.263 -0.7608  1.3631 -1.1705
 4038TIP3    H212121   1.805   2.445   0.265 -0.2217 -0.3213  1.1672
 4039TIP3   OH212122   0.900   0.780   2.268 -0.0444 -0.4960 -0.4640
 4039TIP3    H112123   0.881   0.718   2.198 -1.1631 -0.7010 -0.0112
 4039TIP3    H212124   0.917   0.725   2.345 -2.1662 -0.2877  0.2196
 4040TIP3   OH212125   3.427   2.859   2.991  0.0658  0.0821  0.6814
 4040TIP3    H112126   3.485   2.869   2.915 -0.8274  1.4014  0.1362
 4040TIP3    H212127   3.341   2.886   2.959 -0.2972  0.8273  2.2108
 4041TIP3   OH212128   2.186   0.928   1.920  0.2864  0.0662 -0.6702
 4041TIP3    H112129   2.151   0.934   2.009 -1.7532  0.2889 -1.4324
 4041TIP3    H212130   2.239   1.008   1.910  0.7819 -0.1094  0.4253
 4042TIP3   OH212131   2.856   1.097   1.292 -0.0766  0.4353 -0.5579
 4042TIP3    H112132   2.950   1.082   1.289 -0.1080  0.3194 -1.0677
 4042TIP3    H212133   2.818   1.009   1.286 -0.2084  0.4360  0.2495
 4043TIP3   OH212134   3.632   2.754   3.280  0.5791  0.7086  0.3901
 4043TIP3    H112135   3.624   2.840   3.238 -1.0090  1.2745  1.7425
 4043TIP3    H212136   3.547   2.740   3.321 -0.2813 -2.8072 -2.1403
 4044TIP3   OH212137   0.561   5.848   0.141  0.0641 -0.4161  0.0441
 4044TIP3    H112138   0.531   5.852   0.050  0.8154 -0.7391 -0.2216
 4044TIP3    H212139   0.639   5.793   0.139  0.4635  0.0998  0.7905
 4045TIP3   OH212140   1.277   2.796   2.058 -0.0189 -0.4843  0.3236
 4045TIP3    H112141   1.257   2.851   1.982 -1.1754 -0.1359  0.8612
 4045TIP3    H212142   1.285   2.858   2.130  2.2811 -0.6831  0.3131
 4046TIP3   OH212143   3.617   5.164   2.914 -0.7787  0.2167  0.5270
 4046TIP3    H112144   3.613   5.076   2.951 -1.4725 -0.4681 -1.0979
 4046TIP3    H212145   3.709   5.189   2.920 -0.4898 -0.8306  0.5197
 4047TIP3   OH212146   1.147   0.871   1.830 -0.0423 -0.1610 -0.5998
 4047TIP3    H112147   1.230   0.825   1.819 -0.7817 -1.1093 -3.0936
 4047TIP3    H212148   1.162   0.958   1.793 -0.8694 -1.3777 -4.2960
 4048TIP3   OH212149   5.641   5.287   1.317  0.4336 -0.4608 -0.5338
 4048TIP3    H112150   5.617   5.329   1.399  3.2017 -0.7961  0.5655
 4048TIP3    H212151   5.587   5.208   1.313 -0.1982 -0.1113  0.6537
 4049TIP3   OH212152   2.165   0.260   2.902  0.1053 -0.0113 -0.0695
 4049TIP3    H112153   2.146   0.168   2.884 -0.3264  0.4287 -2.0495
 4049TIP3    H212154   2.247   0.276   2.856  0.1734  0.6207  0.2642
 4050TIP3   OH212155   0.827   1.191   2.411  0.7115  0.4342 -0.7629
 4050TIP3    H112156   0.762   1.145   2.464  1.5294 -0.3524 -0.3997
 4050TIP3    H212157   0.908   1.183   2.461  1.9280 -1.8114 -2.8478
 4051TIP3   OH212158   0.388   3.973   4.305  0.0378  1.0121  0.3339
 4051TIP3    H112159   0.323   3.905   4.283 -0.5648  2.1131 -1.4812
 4051TIP3    H212160   0.457   3.925   4.350 -0.7370 -0.6877 -0.1763
 4052TIP3   OH212161   1.488   5.852   0.609  0.7677 -0.3881  0.1982
 4052TIP3    H112162   1.523   5.771   0.573 -0.2191 -1.6830  1.9899
 4052TIP3    H212163   1.456   5.828   0.696 -2.2894  1.1972 -0.3326
 4053TIP3   OH212164   5.805   4.290   4.103  0.2953 -0.7652 -0.2180
 4053TIP3    H112165   5.730   4.311   4.047 -0.9434 -0.0193  1.5981
 4053TIP3    H212166   5.824   4.372   4.149  1.3892 -1.2869  0.3044
 4054TIP3   OH212167   5.188   5.714   1.051  0.0969 -0.0708 -0.4331
 4054TIP3    H112168   5.124   5.711   0.981 -0.0035  1.4264 -0.4289
 4054TIP3    H212169   5.259   5.768   1.017 -0.0029  0.7749  0.6337
 4055TIP3   OH212170   1.495   1.853   3.295 -0.3532 -0.3745 -0.0203
 4055TIP3    H112171   1.466   1.786   3.357 -1.7750  0.1561 -0.0718
 4055TIP3    H212172   1.492   1.810   3.210 -1.6995 -0.1601 -0.1105
 4056TIP3   OH212173   0.235   3.947   3.939  0.2656  0.2286 -0.1147
 4056TIP3    H112174   0.193   4.012   3.883  0.3134 -0.4972 -1.0173
 4056TIP3    H212175   0.167   3.919   4.000  0.0335  0.5623 -0.2183
 4057TIP3   OH212176   3.929   3.469   3.878 -0.0241 -1.4855 -0.3385
 4057TIP3    H112177   3.957   3.535   3.814  0.2181 -0.2171  1.0058
 4057TIP3    H212178   3.839   3.493   3.898  0.1313 -1.4315  0.3125
 4058TIP3   OH212179   0.141   2.509   3.904  0.2649 -0.0681 -0.2549
 4058TIP3    H112180   0.203   2.439   3.922 -1.6606 -1.4668  1.3873
 4058TIP3    H212181   0.180   2.587   3.943  0.9268 -0.9354  0.8768
 4059TIP3   OH212182   2.272   4.125   3.625 -0.0783  0.0452 -0.3779
 4059TIP3    H112183   2.231   4.187   3.685 -0.4510  0.6997 -1.2726
 4059TIP3    H212184   2.266   4.040   3.669  0.8707  0.7055  1.0831
 4060TIP3   OH212185   2.763   4.649   1.501 -0.8282 -0.9083  0.4440
 4060TIP3    H112186   2.838   4.709   1.493 -1.3588 -0.1738  0.7881
 4060TIP3    H212187   2.777   4.606   1.585 -1.6714  0.5182  1.3569
 4061TIP3   OH212188   6.270   5.416   1.174  0.2752 -0.1859 -0.0149
 4061TIP3    H112189   6.302   5.434   1.262 -0.3212  1.4263 -0.0884
 4061TIP3    H212190   6.267   5.321   1.168  0.1922 -0.3212  1.7508
 4062TIP3   OH212191   2.077   4.144   1.219  0.3570 -0.2558 -0.4048
 4062TIP3    H112192   2.152   4.089   1.243 -1.2156 -1.6993  1.5181
 4062TIP3    H212193   2.065   4.203   1.293 -1.0901 -0.8399 -0.1442
 4063TIP3   OH212194   0.609   1.353   5.085  0.0793  0.2656 -0.0311
 4063TIP3    H112195   0.517   1.344   5.109  0.1101  1.0601  0.4522
 4063TIP3    H212196   0.620   1.447   5.068  1.0355  0.3565  0.9802
 4064TIP3   OH212197   2.465   5.488   2.556 -0.1991 -0.2835 -0.0551
 4064TIP3    H112198   2.374   5.506   2.531 -0.3733  0.2861  0.9424
 4064TIP3    H212199   2.509   5.572   2.547 -0.2024 -0.1290  1.2422
 4065TIP3   OH212200   4.348   0.149   4.346  0.0654  0.4597  0.3281
 4065TIP3    H112201   4.376   0.075   4.293 -0.2249  1.3262 -1.1076
 4065TIP3    H212202   4.417   0.215   4.333  0.3778  0.4264  1.6679
 4066TIP3   OH212203   4.642   5.738   3.417 -0.3510 -0.1820  0.5381
 4066TIP3    H112204   4.588   5.660   3.425  0.5546 -1.1615 -2.0886
 4066TIP3    H212205   4.724   5.716   3.461 -0.5700 -0.2123  0.9336
 4067TIP3   OH212206   4.835   5.016   2.611 -0.2590  0.6726  0.0913
 4067TIP3    H112207   4.774   5.074   2.656 -0.7328 -1.2881  2.1408
 4067TIP3    H212208   4.912   5.014   2.667  0.1817  0.1613 -0.5231
 4068TIP3   OH212209   3.970   0.911   5.145  0.1868 -0.2686 -0.6922
 4068TIP3    H112210   3.938   0.925   5.234 -0.0267 -1.2635 -0.5924
 4068TIP3    H212211   4.047   0.967   5.138  2.2603 -2.5735  1.3245
 4069TIP3   OH212212   0.897   5.361   3.386  0.3725  0.3022 -0.0477
 4069TIP3    H112213   0.956   5.434   3.404  0.7264  0.0780 -0.2811
 4069TIP3    H212214   0.830   5.397   3.327  0.1829  0.5963  0.3403
 4070TIP3   OH212215   4.318   5.938   4.178 -0.0259 -0.4320  0.5317
 4070TIP3    H112216   4.336   6.007   4.242  1.2832 -0.1490 -0.1011
 4070TIP3    H212217   4.306   5.986   4.095 -1.5094 -0.8045  0.5057
 4071TIP3   OH212218   4.451   2.068   1.530 -0.2557 -0.2881  0.2709
 4071TIP3    H112219   4.394   2.106   1.463 -1.4232 -0.1110  1.3417
 4071TIP3    H212220   4.539   2.095   1.504 -0.6361 -0.5123 -1.3820
 4072TIP3   OH212221   0.852   2.325   2.310  0.4727 -0.5616  0.1636
 4072TIP3    H112222   0.884   2.284   2.391 -0.6746 -0.4558  0.6788
 4072TIP3    H212223   0.809   2.405   2.338  0.9751  0.0198 -0.6651
 4073TIP3   OH212224   0.560   5.649   3.682 -0.1557 -0.4270  0.4260
 4073TIP3    H112225   0.628   5.664   3.616 -0.4848  0.0320  0.1966
 4073TIP3    H212226   0.509   5.575   3.648  0.8085 -1.4240  1.0565
 4074TIP3   OH212227   4.951   2.550   2.088 -0.2631  1.4336 -0.2381
 4074TIP3    H112228   5.000   2.586   2.014  0.7523  2.1688  0.7568
 4074TIP3    H212229   5.016   2.541   2.158 -0.8262 -0.8142  0.0971
 4075TIP3   OH212230   4.303   2.283   3.854  1.0422 -0.3239 -0.5859
 4075TIP3    H112231   4.371   2.224   3.821  0.7192  0.0406 -1.9587
 4075TIP3    H212232   4.270   2.327   3.776  1.7726  2.2356  0.4549
 4076TIP3   OH212233   5.578   3.779   5.104 -0.4457 -0.7043  0.3998
 4076TIP3    H112234   5.529   3.698   5.087 -0.9935 -0.8622  2.4372
 4076TIP3    H212235   5.653   3.751   5.157 -0.2953  0.0403  0.5935
 4077TIP3   OH212236   1.478   3.620   0.915  0.0324 -0.4624  0.3477
 4077TIP3    H112237   1.507   3.589   1.000 -0.5512  0.3271  0.8517
 4077TIP3    H212238   1.387   3.647   0.929 -0.3503 -1.1277 -0.7341
 4078TIP3   OH212239   4.731   5.365   3.450  0.4216  0.9463  0.1557
 4078TIP3    H112240   4.666   5.374   3.381 -0.5684  1.6898  1.1539
 4078TIP3    H212241   4.745   5.454   3.483  1.6111  0.7417  0.2754
 4079TIP3   OH212242   1.765   3.493   4.489  0.2145 -0.4173  0.3808
 4079TIP3    H112243   1.729   3.412   4.453 -1.0639 -0.1143  0.9132
 4079TIP3    H212244   1.744   3.489   4.583 -0.4647  0.8185  0.3022
 4080TIP3   OH212245   2.383   1.293   2.883  0.5409 -0.3221  0.1006
 4080TIP3    H112246   2.386   1.385   2.855 -2.9267 -0.2606 -0.5609
 4080TIP3    H212247   2.417   1.244   2.809 -2.4592  0.2545 -1.8603
 4081TIP3   OH212248   1.402   5.572   5.121  0.4896 -0.0706 -0.6755
 4081TIP3    H112249   1.396   5.481   5.093  0.0343 -0.4394  0.5451
 4081TIP3    H212250   1.461   5.570   5.196 -0.8210  0.3596  0.4036
 4082TIP3   OH212251   4.399   3.817   0.526 -0.1172 -0.1037 -0.1077
 4082TIP3    H112252   4.317   3.839   0.569 -0.2294 -1.2675  0.3088
 4082TIP3    H212253   4.385   3.838   0.434 -0.3988  0.9759  0.1718
 4083TIP3   OH212254   4.034   3.237   3.661 -0.3385 -0.1268 -0.6300
 4083TIP3    H112255   4.008   3.329   3.661 -1.9893 -0.3749  3.2592
 4083TIP3    H212256   4.111   3.233   3.718  0.3522 -1.0674 -1.5809
 4084TIP3   OH212257   3.957   0.880   1.449 -0.8939  0.0593 -0.1918
 4084TIP3    H112258   3.983   0.852   1.361  0.3697  0.3443  0.0705
 4084TIP3    H212259   3.981   0.807   1.506  1.6127  1.2365  0.3740
 4085TIP3   OH212260   1.591   1.438   0.724 -0.2331 -0.1889 -0.3153
 4085TIP3    H112261   1.518   1.381   0.750  0.4696 -0.0420  2.2290
 4085TIP3    H212262   1.667   1.403   0.770  0.7268  1.3378 -0.6733
 4086TIP3   OH212263   6.009   3.630   3.240  0.5092  0.5558 -0.6763
 4086TIP3    H112264   6.084   3.630   3.298  0.2628  1.4174 -0.3414
 4086TIP3    H212265   6.033   3.691   3.169  0.7070 -0.2907 -1.3552
 4087TIP3   OH212266   0.972   2.256   0.530  0.3295  0.2982 -0.6776
 4087TIP3    H112267   0.920   2.336   0.536  1.7846  1.2505 -0.2454
 4087TIP3    H212268   0.990   2.246   0.436  0.3951  0.6685 -0.7070
 4088TIP3   OH212269   1.877   0.204   4.026  0.2410  0.0575 -0.1784
 4088TIP3    H112270   1.924   0.175   3.948 -0.6880 -1.0002 -0.3771
 4088TIP3    H212271   1.926   0.280   4.057  0.7169  0.3934 -1.6846
 4089TIP3   OH212272   0.131   0.104  -0.028  0.5351 -0.1449 -0.4685
 4089TIP3    H112273   0.068   0.033  -0.013  1.5711 -1.3627 -1.6133
 4089TIP3    H212274   0.139   0.147   0.057 -1.2614 -0.4136 -0.1159
 4090TIP3   OH212275   6.144   4.439   4.288  0.2650 -0.3518  0.3746
 4090TIP3    H112276   6.212   4.482   4.340  0.8190  0.0687 -0.6598
 4090TIP3    H212277   6.067   4.495   4.298 -0.1237 -1.1175  1.9880
 4091TIP3   OH212278   3.928   1.931   1.367  0.5938 -0.1427  0.1031
 4091TIP3    H112279   3.946   2.001   1.430  0.3942  0.8214 -0.8841
 4091TIP3    H212280   3.973   1.855   1.404  0.9571  0.5298  1.1225
 4092TIP3   OH212281   4.862   1.252   3.816  0.1912 -0.0365  0.1748
 4092TIP3    H112282   4.930   1.301   3.769  0.3138 -0.5173 -0.1510
 4092TIP3    H212283   4.830   1.189   3.752 -0.0495 -0.3064  0.5611
 4093TIP3   OH212284   5.239   4.544   2.819  0.3471  0.0032 -0.3141
 4093TIP3    H112285   5.280   4.464   2.785 -1.1799 -0.6334 -0.7295
 4093TIP3    H212286   5.310   4.589   2.865  1.7830 -0.5244 -1.8897
 4094TIP3   OH212287   5.390   2.846   2.675  0.0617 -0.3895  0.4439
 4094TIP3    H112288   5.471   2.806   2.642 -0.2065 -0.3151 -0.3248
 4094TIP3    H212289   5.322   2.811   2.618 -0.4834 -0.6282  1.2344
 4095TIP3   OH212290   2.534   4.454   3.432 -0.0977  0.5876  0.5951
 4095TIP3    H112291   2.610   4.479   3.379 -0.8893  0.8870 -0.4242
 4095TIP3    H212292   2.519   4.362   3.411 -1.1089  0.9960 -0.6392
 4096TIP3   OH212293   2.964   1.290   2.805  0.4869  0.2504  0.7356
 4096TIP3    H112294   3.009   1.211   2.835 -0.8440 -1.3683 -1.2288
 4096TIP3    H212295   2.874   1.280   2.838  0.0141  0.3477 -0.4718
 4097TIP3   OH212296   5.384   3.762   2.109 -0.2153 -0.1150  0.6307
 4097TIP3    H112297   5.442   3.771   2.184  0.7268 -0.1073 -0.0809
 4097TIP3    H212298   5.297   3.780   2.144  0.3633  1.2372  1.4433
 4098TIP3   OH212299   1.820   1.566   3.150 -0.2747 -0.0266 -0.3937
 4098TIP3    H112300   1.766   1.637   3.116 -2.0799 -2.1199 -2.1915
 4098TIP3    H212301   1.888   1.553   3.084 -1.1916 -1.2491 -1.1498
 4099TIP3   OH212302   1.307   2.867   0.660 -0.1603  0.1658 -0.5834
 4099TIP3    H112303   1.315   2.847   0.753  0.1637  0.9069 -0.4430
 4099TIP3    H212304   1.329   2.785   0.616  1.5577  0.3069 -0.0497
 4100TIP3   OH212305   0.813   5.134   0.145 -0.2090  0.0728  0.2630
 4100TIP3    H112306   0.791   5.050   0.185 -2.8266  0.0771 -0.9978
 4100TIP3    H212307   0.735   5.188   0.157 -0.9777  0.2931 -4.0684
 4101TIP3   OH212308   2.885   1.926   0.993 -0.5469 -0.0716 -0.1500
 4101TIP3    H112309   2.811   1.976   0.959  0.4107  1.9293  0.5361
 4101TIP3    H212310   2.943   1.913   0.918 -0.6301  0.1812 -0.2588
 4102TIP3   OH212311   5.964   3.258   1.999  0.3423  0.4065 -0.0258
 4102TIP3    H112312   6.040   3.286   2.051  1.3818  1.6639 -2.0774
 4102TIP3    H212313   5.963   3.318   1.925 -1.1904 -1.1793 -1.3630
 4103TIP3   OH212314   5.856   0.900   5.134 -0.2834 -0.2501  0.2846
 4103TIP3    H112315   5.767   0.898   5.099 -0.8193  0.7085  1.5257
 4103TIP3    H212316   5.848   0.859   5.220  0.6497 -0.8908  0.0788
 4104TIP3   OH212317   4.428   4.836   1.253 -0.3403 -0.2661 -0.1377
 4104TIP3    H112318   4.453   4.793   1.335 -1.9481 -0.4001  0.3330
 4104TIP3    H212319   4.338   4.864   1.268 -0.0540  1.3554 -1.2204
 4105TIP3   OH212320   2.078   1.972   3.528 -0.2996 -0.0577 -0.0144
 4105TIP3    H112321   2.126   2.050   3.499 -0.8060  0.3102  0.1267
 4105TIP3    H212322   2.091   1.970   3.623  3.3313 -2.5518 -0.3270
 4106TIP3   OH212323   4.870   3.348   4.927 -0.2694  0.5981  0.4507
 4106TIP3    H112324   4.787   3.349   4.975 -0.7783 -1.5374 -0.2903
 4106TIP3    H212325   4.922   3.281   4.971 -0.6856 -1.2979 -1.7799
 4107TIP3   OH212326   0.562   4.444   1.257 -0.2155 -0.0661 -0.3689
 4107TIP3    H112327   0.491   4.405   1.307 -0.6669 -1.4602 -1.9911
 4107TIP3    H212328   0.529   4.448   1.167  0.7313  1.9016 -0.6788
 4108TIP3   OH212329   5.003   3.098   4.279  0.2652  0.0939 -0.0519
 4108TIP3    H112330   4.938   3.070   4.343 -0.7535  2.6328  0.1149
 4108TIP3    H212331   5.069   3.145   4.331  1.2855 -0.8399 -0.4624
 4109TIP3   OH212332   1.033   2.474   4.745  0.1413 -0.0388 -0.2897
 4109TIP3    H112333   1.110   2.442   4.698  0.5262  0.8220 -0.2550
 4109TIP3    H212334   1.054   2.564   4.767 -0.9927  0.2941 -0.5263
 4110TIP3   OH212335   5.223   4.733   3.653 -0.0294 -0.1502  0.5551
 4110TIP3    H112336   5.250   4.823   3.670  0.2272  0.0853 -0.9102
 4110TIP3    H212337   5.138   4.741   3.611 -0.5696 -0.6753  1.5221
 4111TIP3   OH212338   0.557   3.134   4.213  0.0654 -0.8466  0.1075
 4111TIP3    H112339   0.618   3.183   4.158 -0.8663  0.3488  0.0942
 4111TIP3    H212340   0.502   3.086   4.151  1.0139 -2.0153  0.1216
 4112TIP3   OH212341   5.361   3.586   2.777  0.0045  0.4635  0.2946
 4112TIP3    H112342   5.327   3.630   2.854  3.1162  1.2076  1.3949
 4112TIP3    H212343   5.417   3.651   2.734  2.0649 -1.3019  0.0872
 4113TIP3   OH212344   5.170   2.294   3.434  0.4129 -0.6199  0.4308
 4113TIP3    H112345   5.175   2.356   3.506 -3.3539 -0.5943  0.8864
 4113TIP3    H212346   5.217   2.217   3.464  2.6136  0.8782  1.0609
 4114TIP3   OH212347   3.750   2.051   2.946  0.3648 -0.6688 -0.0527
 4114TIP3    H112348   3.781   2.022   3.031 -1.8462  0.3709  1.1807
 4114TIP3    H212349   3.712   1.971   2.906 -0.3941 -0.7557  0.8137
 4115TIP3   OH212350   4.530   5.171   4.650  0.2370  0.1402 -0.0614
 4115TIP3    H112351   4.533   5.148   4.743  0.5014  1.3061  0.2459
 4115TIP3    H212352   4.445   5.214   4.638 -0.4683 -1.3805 -0.7307
 4116TIP3   OH212353   2.560   5.035   1.632 -0.1122 -0.6958 -0.4782
 4116TIP3    H112354   2.543   4.945   1.662 -1.0666 -0.4313 -0.1836
 4116TIP3    H212355   2.611   5.074   1.703 -1.5973 -0.3500  0.4477
 4117TIP3   OH212356   0.386   5.586   0.038 -0.4836  0.5439 -0.3429
 4117TIP3    H112357   0.454   5.578   0.105 -0.2828 -0.5722 -0.6759
 4117TIP3    H212358   0.304   5.575   0.086 -0.3032 -1.6553 -0.4432
 4118TIP3   OH212359   0.535   5.468   4.577  0.6945  0.1151 -0.2316
 4118TIP3    H112360   0.599   5.404   4.606 -0.0959 -0.5532  0.0739
 4118TIP3    H212361   0.564   5.492   4.489  1.9586  0.6390  0.2988
 4119TIP3   OH212362   4.958   3.492   4.004 -0.2773 -0.3307  0.9432
 4119TIP3    H112363   5.000   3.418   3.961  1.7948  1.1256  0.2891
 4119TIP3    H212364   4.913   3.538   3.934  0.2022  0.1454  0.9360
 4120TIP3   OH212365   1.806   2.626   0.498  0.1493  0.4458 -0.1179
 4120TIP3    H112366   1.796   2.559   0.430  0.7868 -0.9382  1.0842
 4120TIP3    H212367   1.719   2.631   0.538  0.1171  0.2511 -0.1593
 4121TIP3   OH212368   4.551   3.350   2.292  0.3077 -0.2804 -0.0184
 4121TIP3    H112369   4.552   3.393   2.377 -2.1265 -0.3836  0.1297
 4121TIP3    H212370   4.570   3.420   2.229 -2.5449  0.9128  0.3015
 4122TIP3   OH212371   3.451   3.982   4.560  0.0569  0.0086  0.2416
 4122TIP3    H112372   3.510   4.055   4.581  0.3583 -0.1555 -0.0146
 4122TIP3    H212373   3.508   3.905   4.559  0.1223  0.0417 -1.4113
 4123TIP3   OH212374   2.596   1.396   1.798  0.1848  0.5356  0.7891
 4123TIP3    H112375   2.611   1.369   1.707 -0.0840  0.8006  0.6607
 4123TIP3    H212376   2.637   1.328   1.851 -1.8379 -1.0069  0.5187
 4124TIP3   OH212377   6.259   2.518   1.741 -0.0220  0.0760  0.0814
 4124TIP3    H112378   6.311   2.469   1.678 -0.7530 -0.2102 -0.3041
 4124TIP3    H212379   6.170   2.486   1.730 -0.3312  0.7342  0.5676
 4125TIP3   OH212380   0.619   3.441   1.262 -0.0275  0.7882  0.0597
 4125TIP3    H112381   0.606   3.396   1.179 -0.3164 -1.3598  1.2129
 4125TIP3    H212382   0.639   3.372   1.325  0.7777  2.4021  1.6888
 4126TIP3   OH212383   0.878   2.457   0.183 -0.8498 -0.9448  0.5671
 4126TIP3    H112384   0.868   2.550   0.167  0.1646 -1.0728 -1.0254
 4126TIP3    H212385   0.789   2.421   0.171 -1.0190 -0.3478 -0.0147
 4127TIP3   OH212386   4.516   2.703   4.988 -0.1450 -0.2572 -0.1181
 4127TIP3    H112387   4.579   2.730   4.920 -0.4418 -0.1485 -0.3522
 4127TIP3    H212388   4.568   2.652   5.049  0.4573  0.8813  0.3642
 4128TIP3   OH212389   5.315   1.415   2.407  0.5108  0.7236  0.3044
 4128TIP3    H112390   5.349   1.339   2.360  0.4459 -0.1132  1.5761
 4128TIP3    H212391   5.389   1.449   2.456  0.1756  0.5477  0.9410
 4129TIP3   OH212392   4.958   2.673   4.307  0.0531 -0.0997  0.1615
 4129TIP3    H112393   4.989   2.632   4.388  1.0658  0.9546  0.3340
 4129TIP3    H212394   4.863   2.668   4.312  0.1092 -0.2590  1.3081
 4130TIP3   OH212395   2.835   4.848   4.544 -0.4228 -0.1635  0.6276
 4130TIP3    H112396   2.880   4.773   4.585 -1.9878 -1.0520  0.8199
 4130TIP3    H212397   2.842   4.918   4.609  3.1607  0.7719 -0.4957
 4131TIP3   OH212398   3.193   5.069   0.905 -0.0627  0.0519  0.4711
 4131TIP3    H112399   3.154   5.152   0.933  1.9102  0.8914  0.9063
 4131TIP3    H212400   3.203   5.078   0.810  0.5392  0.5148  0.5705
 4132TIP3   OH212401   4.059   2.671   2.251 -0.3816  0.0497  0.9874
 4132TIP3    H112402   4.050   2.682   2.346  1.6170  0.3999  1.1814
 4132TIP3    H212403   4.081   2.579   2.239  0.7891  0.3144  1.0140
 4133TIP3   OH212404   3.074   5.649   1.037 -0.0962  0.7356 -0.1337
 4133TIP3    H112405   2.981   5.655   1.058  0.0558 -0.4219  0.9311
 4133TIP3    H212406   3.119   5.670   1.119  0.5940  1.1262 -0.6013
 4134TIP3   OH212407   2.197   3.977   0.411  0.2304 -0.7956  0.0971
 4134TIP3    H112408   2.193   4.008   0.320 -0.0574 -0.5373  0.1967
 4134TIP3    H212409   2.205   4.057   0.463  0.6412 -0.9584  0.2857
 4135TIP3   OH212410   5.471   3.205   3.526 -0.4035 -0.5837  0.6127
 4135TIP3    H112411   5.499   3.286   3.569  1.9800  0.0772 -1.8717
 4135TIP3    H212412   5.513   3.135   3.577  2.7569  0.2025 -0.6652
 4136TIP3   OH212413   4.176   1.147   2.642  0.2513 -0.5160  0.0111
 4136TIP3    H112414   4.268   1.171   2.648  0.2385 -0.2056 -0.8576
 4136TIP3    H212415   4.146   1.188   2.561 -0.4065 -1.4346 -0.2224
 4137TIP3   OH212416   1.751   2.577   2.024 -0.8691 -0.4859  0.1657
 4137TIP3    H112417   1.780   2.669   2.025  1.4945 -1.1438  2.2288
 4137TIP3    H212418   1.658   2.582   2.048 -0.8912  1.3571 -0.0895
 4138TIP3   OH212419   2.247   4.851   1.717 -0.1988  0.2339  0.0370
 4138TIP3    H112420   2.209   4.907   1.650 -1.0775 -0.9024 -0.4657
 4138TIP3    H212421   2.183   4.780   1.728  2.1232 -2.3056 -1.4910
 4139TIP3   OH212422   2.904   0.253   2.633  0.3274 -0.4768  0.2495
 4139TIP3    H112423   2.966   0.299   2.689  1.3556 -1.6142  0.0909
 4139TIP3    H212424   2.954   0.178   2.599 -0.7810 -0.7512 -0.8318
 4140TIP3   OH212425   1.435   5.321   0.571 -0.2363  0.8062 -0.3183
 4140TIP3    H112426   1.470   5.375   0.501  0.5382  0.7249 -0.0047
 4140TIP3    H212427   1.431   5.232   0.534  0.1331  0.7707 -0.2706
 4141TIP3   OH212428   5.936   0.090   1.281  0.2384  0.3149  0.2904
 4141TIP3    H112429   5.849   0.094   1.321 -0.0472  1.8423 -0.4079
 4141TIP3    H212430   5.968   0.002   1.303 -0.9104  0.2054  1.7028
 4142TIP3   OH212431   0.694   4.573   2.145 -0.4492 -0.1779 -0.0981
 4142TIP3    H112432   0.668   4.602   2.058 -0.2043  0.6067  0.0835
 4142TIP3    H212433   0.634   4.501   2.166 -1.6732  0.8049 -0.1698
 4143TIP3   OH212434   4.902   5.706   0.814 -0.3443 -0.1682 -0.2644
 4143TIP3    H112435   4.877   5.789   0.774  0.2676  0.4739  0.6503
 4143TIP3    H212436   4.969   5.670   0.755 -0.3802  0.1377 -0.4955
 4144TIP3   OH212437   2.724   2.458   4.734  0.7085 -0.5824 -0.5265
 4144TIP3    H112438   2.703   2.544   4.698  0.6737 -0.9997 -1.5257
 4144TIP3    H212439   2.800   2.474   4.791  2.4132 -0.2976 -2.7396
 4145TIP3   OH212440   3.471   3.213   0.243 -0.6672  0.5677  0.4337
 4145TIP3    H112441   3.398   3.208   0.180 -1.9608 -0.4864  1.9546
 4145TIP3    H212442   3.548   3.188   0.192 -1.9782 -2.3516 -0.3358
 4146TIP3   OH212443   0.735   0.562   0.141 -0.3727  0.6030  0.5140
 4146TIP3    H112444   0.775   0.475   0.147 -2.1374 -0.1474  2.6237
 4146TIP3    H212445   0.794   0.611   0.084  1.4200 -1.5507  0.3694
 4147TIP3   OH212446   0.402   4.850   4.538  0.6300  0.0543  0.2702
 4147TIP3    H112447   0.412   4.942   4.561  0.2624  0.1681 -0.0085
 4147TIP3    H212448   0.381   4.807   4.620 -2.3675  0.7070 -0.0500
 4148TIP3   OH212449   3.898   4.897   0.361  0.1755  0.4935  0.0708
 4148TIP3    H112450   3.982   4.856   0.338  0.7502  0.8333  1.4442
 4148TIP3    H212451   3.834   4.827   0.351  0.6513  0.1545 -0.7455
 4149TIP3   OH212452   3.800   5.526   0.268  0.1438  0.1874  0.6216
 4149TIP3    H112453   3.812   5.451   0.327 -0.1263  0.8761  1.5689
 4149TIP3    H212454   3.887   5.539   0.229  0.4022 -0.0974  1.0853
 4150TIP3   OH212455   5.934   3.087   5.218  0.4410 -0.3395  0.0245
 4150TIP3    H112456   5.938   3.154   5.150 -0.7592  0.1037  0.3637
 4150TIP3    H212457   5.918   3.006   5.170 -1.0339  0.0598 -0.2174
 4151TIP3   OH212458   3.212   3.579   3.393  0.8141 -0.0816  0.4427
 4151TIP3    H112459   3.284   3.612   3.339 -0.2707  0.2561 -0.8582
 4151TIP3    H212460   3.156   3.655   3.407 -1.0459 -0.9824 -1.4904
 4152TIP3   OH212461   5.336   2.614   0.099  0.4044  0.2506  0.6178
 4152TIP3    H112462   5.257   2.568   0.070  0.1960  0.1639  1.3093
 4152TIP3    H212463   5.371   2.653   0.019 -0.1019 -0.0667  0.2305
 4153TIP3   OH212464   3.230   4.453   2.559 -0.3942  0.4487 -0.0078
 4153TIP3    H112465   3.244   4.434   2.466  0.0442 -0.0950  0.1634
 4153TIP3    H212466   3.318   4.446   2.598 -0.6841 -0.0717  0.5732
 4154TIP3   OH212467   6.301   3.237   2.803 -0.6459 -0.2039 -0.5426
 4154TIP3    H112468   6.240   3.306   2.828 -0.5828 -0.3359 -0.0237
 4154TIP3    H212469   6.244   3.163   2.778 -0.7106 -0.0084 -0.9875
 4155TIP3   OH212470   0.719   2.174   1.275 -0.5027  0.0283  0.6669
 4155TIP3    H112471   0.697   2.235   1.205 -2.9609 -0.3608  1.0186
 4155TIP3    H212472   0.682   2.090   1.247  1.3508 -0.9624  0.9669
 4156TIP3   OH212473   1.347   0.093   1.014 -0.4502  0.0942 -0.0417
 4156TIP3    H112474   1.345   0.013   1.067 -0.1674  0.8175  1.0895
 4156TIP3    H212475   1.297   0.071   0.935 -0.4437 -1.1702  0.2887
 4157TIP3   OH212476   3.588   3.259   2.635 -0.1802  0.2620 -0.1413
 4157TIP3    H112477   3.604   3.181   2.581 -2.3665 -0.0513 -0.4195
 4157TIP3    H212478   3.509   3.298   2.598  0.1711  1.9436  0.7777
 4158TIP3   OH212479   2.479   2.616   0.156 -0.7351  0.7785 -0.5512
 4158TIP3    H112480   2.521   2.630   0.241 -2.1537 -0.0155  0.3092
 4158TIP3    H212481   2.543   2.649   0.092  0.3654  1.3698  0.8057
 4159TIP3   OH212482   5.148   2.739   1.517  0.0730 -0.4724 -0.4208
 4159TIP3    H112483   5.238   2.715   1.494 -0.1657 -0.2709 -1.6193
 4159TIP3    H212484   5.148   2.835   1.516 -0.1522 -0.4725 -0.3945
 4160TIP3   OH212485   4.905   2.865   1.992  0.1082 -0.2724 -0.2392
 4160TIP3    H112486   4.911   2.900   1.903  0.2918  1.7819  0.5097
 4160TIP3    H212487   4.990   2.823   2.007  0.0952 -0.5810 -1.0155
 4161TIP3   OH212488   4.615   3.193   2.787 -0.1579 -0.3509  0.7055
 4161TIP3    H112489   4.618   3.155   2.874 -0.7796  0.5277  1.1248
 4161TIP3    H212490   4.577   3.280   2.799  1.9428  0.7742 -0.0960
 4162TIP3   OH212491   4.241   0.578   1.087  0.3654  0.2122 -0.4843
 4162TIP3    H112492   4.150   0.554   1.105  0.7382 -0.7828  0.1895
 4162TIP3    H212493   4.236   0.645   1.019 -0.8535 -0.0322 -0.6478
 4163TIP3   OH212494   1.332   3.206   2.095 -0.4653  0.5165 -0.2284
 4163TIP3    H112495   1.288   3.265   2.034  0.4920  1.0135 -0.4501
 4163TIP3    H212496   1.264   3.142   2.119 -1.0831  0.7980 -1.1609
 4164TIP3   OH212497   2.665   3.343   3.899 -0.2616 -0.5796 -0.1498
 4164TIP3    H112498   2.679   3.340   3.994  0.2423 -0.7293 -0.2261
 4164TIP3    H212499   2.615   3.264   3.879  0.1906 -0.8805 -0.0979
 4165TIP3   OH212500   2.144   3.465   3.216 -0.3157  0.0796 -0.0827
 4165TIP3    H112501   2.159   3.430   3.128 -0.1062 -0.4268  0.1500
 4165TIP3    H212502   2.060   3.429   3.242 -0.5376  0.5035 -0.2059
 4166TIP3   OH212503   4.584   4.262   3.065  0.0847  0.2941 -0.2835
 4166TIP3    H112504   4.659   4.274   3.007 -0.0508  1.1669 -0.2923
 4166TIP3    H212505   4.620   4.270   3.153 -0.3104  2.9715 -0.2956
 4167TIP3   OH212506   1.702   0.594   3.302  0.1525 -0.0417 -0.0124
 4167TIP3    H112507   1.671   0.585   3.392 -1.0166 -0.7955 -0.4616
 4167TIP3    H212508   1.794   0.568   3.305 -0.2038 -1.2964  0.7467
 4168TIP3   OH212509   4.621   1.315   4.770 -0.3991  0.3894 -0.4071
 4168TIP3    H112510   4.667   1.397   4.793  0.6835 -0.4567  0.5961
 4168TIP3    H212511   4.642   1.302   4.678  1.8817 -0.2146  0.1265
 4169TIP3   OH212512   5.157   1.150   2.023  0.1068 -0.0224  1.0165
 4169TIP3    H112513   5.094   1.081   2.002  1.6319 -1.2397  0.1357
 4169TIP3    H212514   5.164   1.202   1.943  0.3487 -0.0270  1.0314
 4170TIP3   OH212515   3.274   5.756   2.777 -0.4248  0.0158  0.0067
 4170TIP3    H112516   3.191   5.782   2.816 -0.1047 -0.4792  1.0344
 4170TIP3    H212517   3.265   5.662   2.762 -0.5019  0.1767 -1.0265
 4171TIP3   OH212518   1.638   1.279   4.560 -0.0680  0.4157 -0.0438
 4171TIP3    H112519   1.650   1.354   4.618  1.7124  1.9642 -2.2369
 4171TIP3    H212520   1.709   1.219   4.583  0.4292  0.8726 -0.3533
 4172TIP3   OH212521   4.428   3.270   4.524 -0.2814 -0.5566 -0.0998
 4172TIP3    H112522   4.470   3.213   4.459 -0.5646  0.2009 -0.9721
 4172TIP3    H212523   4.365   3.214   4.569 -0.0296 -1.1104 -0.4286
 4173TIP3   OH212524   5.196   0.741   0.959 -0.2574 -0.2030 -0.3295
 4173TIP3    H112525   5.283   0.754   0.922 -0.3765 -0.7125 -0.7930
 4173TIP3    H212526   5.175   0.826   0.999  1.0017 -0.4669  0.9796
 4174TIP3   OH212527   3.012   3.582   0.353 -0.2139 -0.1130  0.2606
 4174TIP3    H112528   3.072   3.557   0.424  0.4444  2.1983  0.6243
 4174TIP3    H212529   2.925   3.572   0.391 -0.1536 -3.2158 -0.1659
 4175TIP3   OH212530   5.980   0.562   1.737 -0.4350 -0.6088  0.9862
 4175TIP3    H112531   5.907   0.545   1.797 -1.3960  1.4670  0.5239
 4175TIP3    H212532   6.026   0.636   1.776 -1.8449  1.6705 -1.3364
 4176TIP3   OH212533   3.369   4.794   4.111  0.5744 -0.2325  0.0433
 4176TIP3    H112534   3.341   4.881   4.140 -0.4064  0.0001 -1.4668
 4176TIP3    H212535   3.407   4.809   4.024  1.8436 -1.1136  0.4230
 4177TIP3   OH212536   2.347   4.545   0.654  0.1109  0.1147  0.3233
 4177TIP3    H112537   2.332   4.567   0.562 -1.5290  0.5360  0.6619
 4177TIP3    H212538   2.277   4.590   0.702  0.1858 -1.0826  1.6551
 4178TIP3   OH212539   5.093   0.996   3.578  0.0127 -0.1539  0.3547
 4178TIP3    H112540   5.050   1.034   3.501  0.5031 -3.2157 -1.5911
 4178TIP3    H212541   5.178   1.040   3.582 -0.5215  0.9700 -0.0065
 4179TIP3   OH212542   1.139   4.591   1.125  0.0649  0.3878 -0.1728
 4179TIP3    H112543   1.104   4.532   1.191  0.1442  0.6537  0.1051
 4179TIP3    H212544   1.171   4.667   1.174 -1.3935  1.3412 -0.6529
 4180TIP3   OH212545   4.141   2.311   1.804 -0.2828 -0.0474 -0.7359
 4180TIP3    H112546   4.065   2.361   1.833 -1.2806 -0.8685 -1.8084
 4180TIP3    H212547   4.123   2.222   1.833  0.7183 -0.0913 -0.2175
 4181TIP3   OH212548   1.094   3.631   1.723  0.1481  0.5032 -0.4328
 4181TIP3    H112549   1.041   3.711   1.730  1.3806  1.2391  1.3010
 4181TIP3    H212550   1.174   3.660   1.678 -0.0802 -0.1538 -1.2849
 4182TIP3   OH212551   5.091   1.667   0.018 -0.2013  0.4837 -0.0761
 4182TIP3    H112552   5.079   1.601   0.086  0.2117 -0.4598 -0.9097
 4182TIP3    H212553   5.023   1.732   0.036 -2.2526 -1.3685 -0.6908
 4183TIP3   OH212554   1.782   1.564   1.507 -0.4018  0.2427  0.3559
 4183TIP3    H112555   1.846   1.611   1.560 -0.9357  0.6914  0.6028
 4183TIP3    H212556   1.720   1.529   1.570 -0.0407 -0.7656  0.1741
 4184TIP3   OH212557   6.033   5.686   3.118 -0.3681 -0.0451  0.6516
 4184TIP3    H112558   5.941   5.708   3.130 -0.3954  1.8516 -2.0965
 4184TIP3    H212559   6.081   5.762   3.152 -0.0598  0.6903 -1.2880
 4185TIP3   OH212560   5.695   1.169   4.603  0.6790  0.3226  0.1738
 4185TIP3    H112561   5.652   1.186   4.519  0.3056  0.3473  0.3663
 4185TIP3    H212562   5.763   1.105   4.584  0.3059  0.0006 -0.0660
 4186TIP3   OH212563   2.757   5.543   4.630 -0.1123 -0.0864  0.4857
 4186TIP3    H112564   2.693   5.599   4.588  0.7973 -0.3674 -1.3558
 4186TIP3    H212565   2.839   5.593   4.627  0.6242 -1.3194 -0.8492
 4187TIP3   OH212566   3.885   4.093   3.227 -0.4330 -0.3347  0.2960
 4187TIP3    H112567   3.799   4.052   3.234  0.3203 -1.9760  0.3931
 4187TIP3    H212568   3.912   4.111   3.317 -1.2513  1.5504  0.2186
 4188TIP3   OH212569   2.867   0.858   2.706 -0.0587  0.3950  0.5939
 4188TIP3    H112570   2.806   0.881   2.637  0.5921 -1.4326 -0.6736
 4188TIP3    H212571   2.947   0.905   2.684 -0.2164  0.7777  0.8200
 4189TIP3   OH212572   0.054   4.573   0.659  0.2843 -0.3090  0.2090
 4189TIP3    H112573   0.041   4.640   0.726  2.6489 -0.1880  0.6377
 4189TIP3    H212574   0.085   4.622   0.583  0.5715 -0.7521  0.0402
 4190TIP3   OH212575   0.661   5.055   0.460  0.1503 -0.1766 -0.0220
 4190TIP3    H112576   0.727   5.046   0.529  0.0230  0.5860  0.2146
 4190TIP3    H212577   0.694   5.002   0.388 -0.3544 -2.0727  1.0806
 4191TIP3   OH212578   4.590   3.359   1.533  0.5607 -0.5101 -0.5326
 4191TIP3    H112579   4.572   3.429   1.470  1.7636  0.4815  0.1704
 4191TIP3    H212580   4.646   3.400   1.599  1.0359 -2.0633  0.0777
 4192TIP3   OH212581   3.150   0.886   4.193 -0.3544  0.0402  0.3997
 4192TIP3    H112582   3.125   0.823   4.260 -1.0742 -0.1538 -0.0470
 4192TIP3    H212583   3.141   0.839   4.111 -2.9774  1.2980 -0.1312
 4193TIP3   OH212584   2.465   0.870   4.396  0.1352  0.3876 -0.2975
 4193TIP3    H112585   2.537   0.933   4.404 -0.2061  0.5925  1.5994
 4193TIP3    H212586   2.442   0.872   4.303  0.5111  2.6182 -0.4012
 4194TIP3   OH212587   5.638   2.409   2.771  0.1479  0.1711 -0.1447
 4194TIP3    H112588   5.674   2.328   2.733  0.5432 -0.0888  0.7427
 4194TIP3    H212589   5.553   2.419   2.730 -0.7846 -1.7889  1.1507
 4195TIP3   OH212590   2.685   1.259   3.669  0.0585  0.1431 -0.1809
 4195TIP3    H112591   2.705   1.173   3.706 -3.7885 -0.5992  0.7003
 4195TIP3    H212592   2.693   1.246   3.574  0.3576 -0.9606 -0.0223
 4196TIP3   OH212593   2.809   0.365   2.403  0.2505  0.7061 -0.6067
 4196TIP3    H112594   2.791   0.330   2.490  1.4173 -2.1985 -1.4103
 4196TIP3    H212595   2.884   0.422   2.415  0.0522  0.7634  0.3815
 4197TIP3   OH212596   1.385   5.381   2.037 -0.0704 -0.8044  0.1885
 4197TIP3    H112597   1.356   5.383   1.946 -0.9584 -0.2797  0.4702
 4197TIP3    H212598   1.305   5.377   2.088  0.4403 -1.7082  0.9429
 4198TIP3   OH212599   3.785   0.354   3.963  0.8992 -0.6532 -0.2066
 4198TIP3    H112600   3.751   0.428   3.914  0.4972 -0.1618  0.7908
 4198TIP3    H212601   3.709   0.319   4.010  1.5919 -0.0080  1.4585
 4199TIP3   OH212602   0.494   3.779   4.982 -0.9764 -0.2548 -0.5555
 4199TIP3    H112603   0.484   3.696   4.934  0.7427 -2.4368  2.5068
 4199TIP3    H212604   0.450   3.763   5.065 -0.8689  2.0928  0.0000
 4200TIP3   OH212605   1.367   4.096   4.087  0.0085 -0.6116  0.2252
 4200TIP3    H112606   1.417   4.026   4.127  0.4730 -1.2730 -1.4122
 4200TIP3    H212607   1.286   4.101   4.139  0.0799 -2.1884  0.5357
 4201TIP3   OH212608   5.223   3.104   4.684  0.0977 -0.0294  0.0081
 4201TIP3    H112609   5.300   3.147   4.721 -0.6807  1.5722 -0.1563
 4201TIP3    H212610   5.202   3.156   4.607 -1.4881 -0.0881  0.3798
 4202TIP3   OH212611   3.649   0.558   3.025 -0.0964  0.0878  0.1764
 4202TIP3    H112612   3.595   0.483   3.050  1.1621 -0.8193  0.2536
 4202TIP3    H212613   3.634   0.568   2.931 -1.9102  1.1280  0.5169
 4203TIP3   OH212614   5.468   3.176   4.283  0.0317 -0.3538  0.0358
 4203TIP3    H112615   5.430   3.262   4.302  0.2420 -0.0634 -0.8315
 4203TIP3    H212616   5.402   3.131   4.230  0.3438 -0.3551 -0.3491
 4204TIP3   OH212617   2.568   4.704   4.842  0.1985 -0.6044 -0.2474
 4204TIP3    H112618   2.541   4.789   4.807 -0.1694 -1.1857 -1.4156
 4204TIP3    H212619   2.655   4.689   4.805 -0.7805 -1.8788 -2.1897
 4205TIP3   OH212620   5.043   3.580   3.271  0.1813 -0.0999  0.1861
 4205TIP3    H112621   5.028   3.541   3.184  0.3431  1.5429 -0.6142
 4205TIP3    H212622   5.120   3.534   3.305  1.0634  0.2787 -1.2187
 4206TIP3   OH212623   2.881   0.444   4.423 -0.3494 -0.0849 -0.4055
 4206TIP3    H112624   2.788   0.446   4.404 -0.3471  0.0727 -0.4018
 4206TIP3    H212625   2.886   0.444   4.519 -0.3150  2.2476 -0.3485
 4207TIP3   OH212626   2.085   4.383   1.363  0.2101 -0.5719 -0.1449
 4207TIP3    H112627   2.067   4.463   1.314 -1.3601 -1.1671 -0.6161
 4207TIP3    H212628   2.180   4.382   1.374  0.6524 -0.4256 -3.2313
 4208TIP3   OH212629   2.815   4.281   1.386 -0.2035 -0.0656 -0.2782
 4208TIP3    H112630   2.816   4.189   1.413 -0.9011 -0.1196 -0.4052
 4208TIP3    H212631   2.727   4.294   1.349  0.0768  0.5105 -0.7608
 4209TIP3   OH212632   3.309   0.493   3.184  0.4696 -0.1899 -0.6580
 4209TIP3    H112633   3.297   0.545   3.263 -0.1903 -0.7114 -0.4043
 4209TIP3    H212634   3.273   0.407   3.206  1.5303 -0.7618 -1.0648
 4210TIP3   OH212635   5.896   1.640   0.074  0.3651 -0.2842  0.4286
 4210TIP3    H112636   5.845   1.698   0.018 -0.8160 -1.2869  0.4335
 4210TIP3    H212637   5.967   1.609   0.018  0.1443  0.0035 -0.0160
 4211TIP3   OH212638   0.435   5.074   3.392 -0.2221 -0.6626  0.4517
 4211TIP3    H112639   0.447   4.982   3.418  1.3640 -0.9026 -0.9000
 4211TIP3    H212640   0.524   5.103   3.369 -1.0031  0.5315 -1.2392
 4212TIP3   OH212641   3.485   0.782   4.479  0.4797 -0.4169  0.3111
 4212TIP3    H112642   3.569   0.780   4.526  0.5072  1.6899  0.4535
 4212TIP3    H212643   3.426   0.828   4.539 -0.4473 -0.7690 -0.3185
 4213TIP3   OH212644   1.075   5.433   3.056  0.1537 -0.4035  0.1046
 4213TIP3    H112645   1.077   5.339   3.037 -0.3528 -0.2041 -1.0290
 4213TIP3    H212646   1.164   5.453   3.086  0.8154 -0.9379 -1.3736
 4214TIP3   OH212647   5.141   3.469   1.065  0.3192 -0.1844 -0.3938
 4214TIP3    H112648   5.152   3.374   1.056  1.3866 -0.1074 -0.0509
 4214TIP3    H212649   5.177   3.489   1.151 -2.6078  0.1653  0.8632
 4215TIP3   OH212650   0.625   2.921   3.082 -0.7342 -0.0587  0.4483
 4215TIP3    H112651   0.564   2.982   3.041 -1.5535 -1.1011  0.0685
 4215TIP3    H212652   0.589   2.907   3.170 -0.7279 -0.2390  0.4226
 4216TIP3   OH212653   2.070   0.509   0.057  0.0173  0.0172  0.5220
 4216TIP3    H112654   1.991   0.562   0.055  0.5226  0.8388  1.7313
 4216TIP3    H212655   2.130   0.556   0.115  1.5522 -0.3734 -0.6705
 4217TIP3   OH212656   3.842   5.064   2.658  0.3695  0.2433  0.1721
 4217TIP3    H112657   3.879   5.084   2.744 -0.0401 -0.0650  0.4250
 4217TIP3    H212658   3.760   5.018   2.678  2.0566 -3.2698 -0.3342
 4218TIP3   OH212659   2.257   5.768   0.629  0.0236  0.1564  0.0252
 4218TIP3    H112660   2.261   5.673   0.621  1.2930  0.1743  0.2673
 4218TIP3    H212661   2.191   5.784   0.697 -0.8798 -0.4937 -0.6740
 4219TIP3   OH212662   3.575   4.045   2.225  0.0787 -0.3949  0.4504
 4219TIP3    H112663   3.656   4.023   2.179 -0.7659  0.5279 -1.5679
 4219TIP3    H212664   3.551   3.964   2.271  1.3785 -1.1103 -0.0819
 4220TIP3   OH212665   3.598   0.685   2.705  0.4674  0.0499 -0.2354
 4220TIP3    H112666   3.590   0.711   2.613 -0.1165 -0.8460 -0.4462
 4220TIP3    H212667   3.543   0.747   2.753  0.7744  0.5204 -0.4812
 4221TIP3   OH212668   3.239   0.908   3.823  0.2218 -0.2443  0.2022
 4221TIP3    H112669   3.302   0.843   3.853 -0.2487 -0.0785  1.6455
 4221TIP3    H212670   3.238   0.974   3.893 -1.4315 -0.1753  0.1497
 4222TIP3   OH212671   3.521   1.877   4.887  0.4609  0.1827  0.1305
 4222TIP3    H112672   3.464   1.844   4.957 -0.4725  0.1878 -0.6098
 4222TIP3    H212673   3.608   1.879   4.926  0.1189 -0.7553  0.9862
 4223TIP3   OH212674   1.924   2.669   0.207  0.2433  0.3374  0.0067
 4223TIP3    H112675   2.006   2.718   0.208  0.3016  0.2521 -0.4552
 4223TIP3    H212676   1.930   2.615   0.129 -1.0339  1.6612 -1.0596
 4224TIP3   OH212677   4.513   2.582   4.158 -0.1286 -0.3778 -0.1648
 4224TIP3    H112678   4.498   2.488   4.168 -1.2186 -0.0571  1.6307
 4224TIP3    H212679   4.577   2.603   4.226 -1.6807  0.5412  1.0868
 4225TIP3   OH212680   2.027   3.274   1.212 -0.0857 -0.3935  0.3152
 4225TIP3    H112681   2.060   3.364   1.213 -0.7963  0.0142 -3.0220
 4225TIP3    H212682   2.104   3.221   1.235  1.9307  0.8261 -2.8748
 4226TIP3   OH212683   1.832   2.710   2.350 -0.2653  0.0214 -0.0511
 4226TIP3    H112684   1.771   2.783   2.341  0.0160  0.1243 -1.2672
 4226TIP3    H212685   1.785   2.646   2.404 -1.4900  0.0763 -0.9970
 4227TIP3   OH212686   1.371   3.136   3.535  0.0905  0.0044  0.4975
 4227TIP3    H112687   1.452   3.183   3.515  0.0654  0.1506  0.7253
 4227TIP3    H212688   1.306   3.174   3.476 -0.0829  0.7377  1.1306
 4228TIP3   OH212689   2.206   1.727   0.208 -0.1009  0.1970 -0.2943
 4228TIP3    H112690   2.266   1.794   0.242 -0.8256  0.9304 -0.4398
 4228TIP3    H212691   2.256   1.685   0.138  0.4132  0.4991 -0.1218
 4229TIP3   OH212692   2.345   1.336   4.980  0.1419 -0.1398  0.2665
 4229TIP3    H112693   2.429   1.349   4.936  0.5622 -0.2753  1.0081
 4229TIP3    H212694   2.284   1.395   4.935  0.6969  0.1580 -0.0976
 4230TIP3   OH212695   1.382   2.883   1.194  0.6034  0.3442 -0.1296
 4230TIP3    H112696   1.400   2.918   1.281 -1.8473 -0.8485  0.9300
 4230TIP3    H212697   1.372   2.789   1.207  0.0527  0.1620 -1.6657
 4231TIP3   OH212698   0.972   4.225   1.221 -0.2086 -0.5892 -0.0560
 4231TIP3    H112699   0.954   4.295   1.158  0.4645 -0.7407 -0.4243
 4231TIP3    H212700   1.052   4.183   1.189 -1.0277 -2.0538 -0.3036
 4232TIP3   OH212701   2.514   2.947   1.627  0.2121  0.1891 -0.2146
 4232TIP3    H112702   2.527   2.976   1.537  0.7994  0.6593  0.0099
 4232TIP3    H212703   2.552   2.859   1.629 -1.0760 -0.3984 -0.7626
 4233TIP3   OH212704   5.688   5.206   0.861  0.1241 -0.0898  0.6779
 4233TIP3    H112705   5.655   5.279   0.810 -1.1022  0.0530  1.6385
 4233TIP3    H212706   5.686   5.131   0.801 -0.6453  0.2168  0.3212
 4234TIP3   OH212707   3.421   5.593   2.216  0.5455  0.1226 -0.2416
 4234TIP3    H112708   3.353   5.638   2.164  0.9091 -1.2190 -1.9594
 4234TIP3    H212709   3.468   5.539   2.152  0.2694 -2.5557  1.6656
 4235TIP3   OH212710   5.785   0.019   4.064 -0.2649  0.2775 -0.4223
 4235TIP3    H112711   5.744   0.098   4.100 -1.1292 -1.2909  2.3223
 4235TIP3    H212712   5.755   0.016   3.973 -3.9318  0.8357  0.6029
 4236TIP3   OH212713   3.331   3.050   0.525 -0.3335 -0.3836  0.3887
 4236TIP3    H112714   3.422   3.022   0.508 -0.0122  0.6429  0.3671
 4236TIP3    H212715   3.319   3.127   0.470 -2.0381 -1.8826 -1.4843
 4237TIP3   OH212716   2.263   2.231   0.867 -0.4877  0.4304 -0.4867
 4237TIP3    H112717   2.286   2.154   0.919  0.2659  0.0671 -1.3288
 4237TIP3    H212718   2.320   2.300   0.901 -0.9150  0.5336  0.0329
 4238TIP3   OH212719   1.524   0.056   3.298 -0.0216  0.3958 -0.0176
 4238TIP3    H112720   1.446   0.066   3.242  0.7632 -1.3357 -1.5152
 4238TIP3    H212721   1.515  -0.032   3.336 -0.1893  1.2701  2.1438
 4239TIP3   OH212722   3.540   0.247   1.351  0.6295  0.6622  0.1194
 4239TIP3    H112723   3.619   0.263   1.404  1.0370  0.1417 -0.3179
 4239TIP3    H212724   3.470   0.236   1.415  1.0196  0.5547  0.5360
 4240TIP3   OH212725   4.103   5.896   3.568  0.4641  0.0755  0.3707
 4240TIP3    H112726   4.094   5.882   3.662 -1.7691 -0.8259  0.0925
 4240TIP3    H212727   4.037   5.962   3.547  2.2160  1.6855 -0.3246
 4241TIP3   OH212728   4.331   3.099   4.260  0.1210 -0.1535 -0.9044
 4241TIP3    H112729   4.413   3.119   4.304 -0.8913  2.6886 -0.1339
 4241TIP3    H212730   4.352   3.105   4.167  0.4006  2.8564 -0.7416
 4242TIP3   OH212731   4.753   1.597   2.977 -0.4688  0.0832 -0.4796
 4242TIP3    H112732   4.810   1.566   2.907  0.1619 -0.9668  0.4676
 4242TIP3    H212733   4.695   1.661   2.934  1.8658  1.7837 -1.3267
 4243TIP3   OH212734   4.911   5.080   4.280  0.2141 -0.4016 -0.0843
 4243TIP3    H112735   4.850   5.091   4.207  0.6324 -0.5471 -0.4628
 4243TIP3    H212736   4.998   5.095   4.241  0.5180 -1.4550  0.1607
 4244TIP3   OH212737   2.758   5.451   3.563  0.2846 -0.1226  0.6710
 4244TIP3    H112738   2.836   5.399   3.543 -0.2425 -0.2324 -1.2613
 4244TIP3    H212739   2.717   5.466   3.478 -1.5594  0.3398  1.6053
 4245TIP3   OH212740   6.177   4.921   3.045  0.0167  0.2434 -0.5206
 4245TIP3    H112741   6.237   4.984   3.087 -0.4339  1.4637 -1.6245
 4245TIP3    H212742   6.231   4.876   2.981  0.6511 -1.4612  1.1294
 4246TIP3   OH212743   3.672   3.141   1.462 -0.0068 -0.8506  0.1306
 4246TIP3    H112744   3.656   3.234   1.474  0.2539 -1.0520  2.3683
 4246TIP3    H212745   3.593   3.108   1.420 -0.3934  0.2515 -0.0210
 4247TIP3   OH212746   0.658   1.600   0.159  0.3872 -0.7920  0.0267
 4247TIP3    H112747   0.684   1.665   0.094  2.6216 -1.0652  0.5653
 4247TIP3    H212748   0.630   1.524   0.107 -0.2366 -0.1467 -0.5937
 4248TIP3   OH212749   1.411   5.648   1.180 -0.6346  0.1448 -0.4575
 4248TIP3    H112750   1.425   5.695   1.262 -0.8154 -0.4598 -0.0695
 4248TIP3    H212751   1.496   5.650   1.136  0.3507 -2.0862  1.1268
 4249TIP3   OH212752   0.831   1.528   3.404  0.1803 -0.0570  0.0917
 4249TIP3    H112753   0.741   1.504   3.426 -0.1041 -0.9277 -1.8267
 4249TIP3    H212754   0.885   1.466   3.454 -0.3943 -1.3656 -0.8582
 4250TIP3   OH212755   0.104   2.545   2.856  0.4839 -0.5224  0.0732
 4250TIP3    H112756   0.015   2.580   2.863  1.0839  0.7992  2.6014
 4250TIP3    H212757   0.121   2.507   2.943  2.6703  0.0693 -0.0485
 4251TIP3   OH212758   0.420   2.741   3.815  0.5013 -0.4952 -0.0146
 4251TIP3    H112759   0.397   2.664   3.763 -0.9817 -0.1018  0.0093
 4251TIP3    H212760   0.430   2.811   3.751 -1.2973 -0.0169  0.1678
 4252TIP3   OH212761   2.002   1.271   3.555 -0.2098 -0.2826  0.3779
 4252TIP3    H112762   2.013   1.247   3.463 -0.2550 -0.9160  0.5305
 4252TIP3    H212763   2.063   1.343   3.568 -1.0859  0.6413 -0.4495
 4253TIP3   OH212764   2.973   5.222   5.090 -0.6477  0.2213  0.7027
 4253TIP3    H112765   3.007   5.170   5.163 -0.8363  0.1206  0.7219
 4253TIP3    H212766   3.020   5.191   5.014 -0.5735  0.2042  0.7557
 4254TIP3   OH212767   4.032   2.368   0.030  0.0130 -0.1869 -0.1416
 4254TIP3    H112768   4.095   2.367   0.102 -0.3654  0.3737  0.2125
 4254TIP3    H212769   4.034   2.279  -0.006 -1.8174 -1.3747  2.3778
 4255TIP3   OH212770   4.340   5.946   0.380 -0.5771  0.4792 -0.1652
 4255TIP3    H112771   4.247   5.937   0.399 -0.3849  2.2634  2.1147
 4255TIP3    H212772   4.346   6.027   0.330 -0.2598  0.2919 -0.4331
 4256TIP3   OH212773   1.717   1.679   5.159 -0.3063  0.1735  0.0370
 4256TIP3    H112774   1.715   1.616   5.231  1.7450 -0.4428 -0.3644
 4256TIP3    H212775   1.689   1.630   5.083  0.7378 -0.1411 -0.1672
 4257TIP3   OH212776   6.054   1.055   0.247 -0.3042  0.4908 -0.5228
 4257TIP3    H112777   6.075   0.982   0.305 -1.5985  0.9683  0.5873
 4257TIP3    H212778   6.012   1.014   0.171 -2.3872  0.1254  0.7449
 4258TIP3   OH212779   0.695   4.965   2.485 -0.0281  0.5901 -0.4756
 4258TIP3    H112780   0.656   5.039   2.531  1.8249  0.7221  1.0062
 4258TIP3    H212781   0.680   4.890   2.543  1.9089  0.6691  0.2043
 4259TIP3   OH212782   1.182   2.706   2.846  0.1081 -0.2190  0.0367
 4259TIP3    H112783   1.152   2.749   2.926  1.2973  0.1012  0.3335
 4259TIP3    H212784   1.132   2.747   2.776  0.4443  0.8854  0.4273
 4260TIP3   OH212785   0.762   5.711   2.936 -0.0670 -0.0607  0.0118
 4260TIP3    H112786   0.737   5.719   3.028 -0.5861 -0.9993 -0.0422
 4260TIP3    H212787   0.704   5.644   2.900 -0.7832  1.2124 -1.3404
 4261TIP3   OH212788   4.408   1.449   3.368 -0.0483 -0.2128 -0.1431
 4261TIP3    H112789   4.357   1.448   3.287  0.6595  0.0866 -0.6022
 4261TIP3    H212790   4.416   1.542   3.390  2.3952 -0.0477 -1.4484
 4262TIP3   OH212791   1.029   1.304   0.912  0.0917  0.1255  0.2588
 4262TIP3    H112792   1.043   1.363   0.839 -1.5608 -0.5426 -0.6618
 4262TIP3    H212793   1.110   1.254   0.919  0.5436  0.7174 -0.6397
 4263TIP3   OH212794   2.203   5.436   1.291  0.4001  0.0396 -0.3204
 4263TIP3    H112795   2.272   5.418   1.354 -0.3321 -1.6215  0.0708
 4263TIP3    H212796   2.249   5.467   1.213  1.5017 -0.0844  0.2592
 4264TIP3   OH212797   5.998   4.257   4.737  0.0710  0.0565  0.0997
 4264TIP3    H112798   5.995   4.346   4.700 -2.8105  0.0958  0.2261
 4264TIP3    H212799   6.039   4.205   4.668  0.3254  1.1865 -0.6406
 4265TIP3   OH212800   0.709   4.757   1.671 -0.0182 -0.0491 -1.0455
 4265TIP3    H112801   0.642   4.809   1.626  0.3124  1.9365  0.6110
 4265TIP3    H212802   0.782   4.817   1.683  0.7854 -1.1980  0.0990
 4266TIP3   OH212803   4.129   4.729   2.683 -0.2721 -0.1133  0.0208
 4266TIP3    H112804   4.194   4.703   2.748  0.9212  1.2056 -0.6054
 4266TIP3    H212805   4.055   4.761   2.735  0.3822  0.2526  0.7368
 4267TIP3   OH212806   3.463   4.866   1.828  0.5619 -0.3163  0.4181
 4267TIP3    H112807   3.457   4.960   1.840  2.6197 -0.1787  0.7372
 4267TIP3    H212808   3.528   4.837   1.891  0.8855 -1.7697 -0.5091
 4268TIP3   OH212809   2.810   1.641   2.368  1.0713 -0.4136  0.4180
 4268TIP3    H112810   2.726   1.642   2.321  0.6948  1.9120  1.0152
 4268TIP3    H212811   2.858   1.568   2.330  0.7263  1.1745 -3.4557
 4269TIP3   OH212812   1.270   4.005   4.540  0.1019  0.3665  0.0383
 4269TIP3    H112813   1.344   3.976   4.592 -0.0344 -1.1481 -0.5716
 4269TIP3    H212814   1.194   3.998   4.598  0.1661  0.1028  0.0896
 4270TIP3   OH212815   1.417   5.780   0.219  0.3182  0.0910 -0.1215
 4270TIP3    H112816   1.406   5.699   0.168  0.4842  0.1871 -0.3116
 4270TIP3    H212817   1.501   5.769   0.264 -1.1454 -1.2856  2.5031
 4271TIP3   OH212818   5.184   3.546   0.188 -0.2542  0.4290  0.0440
 4271TIP3    H112819   5.143   3.616   0.137 -1.2392 -0.0183  0.2002
 4271TIP3    H212820   5.117   3.518   0.250 -1.2400 -2.9995 -2.2719
 4272TIP3   OH212821   0.740   0.627   0.530 -0.2087 -0.1800  0.1956
 4272TIP3    H112822   0.669   0.599   0.589 -0.9051  1.5923  0.2546
 4272TIP3    H212823   0.799   0.677   0.586 -1.2361  2.1254 -0.6763
 4273TIP3   OH212824   0.735   0.940   2.809  0.3706 -0.2276  0.5059
 4273TIP3    H112825   0.660   0.881   2.817  0.7272 -0.8197 -0.3410
 4273TIP3    H212826   0.723   0.982   2.724 -0.2060  1.4144  1.3663
 4274TIP3   OH212827   2.976   0.403   0.893 -0.2158 -0.1749 -0.4589
 4274TIP3    H112828   3.055   0.379   0.845  1.0953  0.9314  1.0639
 4274TIP3    H212829   2.967   0.335   0.960  0.0669  0.2807  0.0450
 4275TIP3   OH212830   0.083   5.000   2.105 -0.5498 -0.2232 -0.3635
 4275TIP3    H112831   0.168   4.986   2.063  0.2309 -0.9973  1.4147
 4275TIP3    H212832   0.041   5.067   2.051  2.7713  3.1687  0.8560
 4276TIP3   OH212833   5.037   1.334   4.711  0.0742  0.0068 -0.2762
 4276TIP3    H112834   5.012   1.423   4.735 -0.4558 -0.2647  0.2207
 4276TIP3    H212835   5.023   1.329   4.617 -0.4881  0.2662 -0.2111
 4277TIP3   OH212836   5.756   1.343   4.007  0.5873  1.0431  0.1388
 4277TIP3    H112837   5.756   1.406   4.079 -0.0103  0.4818  0.6431
 4277TIP3    H212838   5.663   1.327   3.989  0.7236  1.3562 -0.9245
 4278TIP3   OH212839   4.844   1.186   0.180 -0.2051  0.7231 -0.5328
 4278TIP3    H112840   4.888   1.125   0.120 -1.3370  0.1417 -0.8025
 4278TIP3    H212841   4.751   1.174   0.162 -0.5905  0.4782  1.3849
 4279TIP3   OH212842   2.086   5.924   0.805 -0.2409  0.3400 -0.6459
 4279TIP3    H112843   2.064   5.835   0.831  3.4820 -0.4561  0.3215
 4279TIP3    H212844   2.015   5.950   0.745 -2.1585 -2.6919  0.1009
 4280TIP3   OH212845   3.299   0.035   4.433 -0.1740  0.2184 -0.8556
 4280TIP3    H112846   3.380   0.072   4.470 -0.1203 -0.8302  0.1199
 4280TIP3    H212847   3.313   0.037   4.338  0.5153  1.1071 -0.7515
 4281TIP3   OH212848   3.893   5.638   3.145  0.7924 -0.4214  0.1930
 4281TIP3    H112849   3.972   5.594   3.112  1.1413  0.8746 -0.7979
 4281TIP3    H212850   3.865   5.694   3.072 -1.8900 -1.8913 -0.0006
 4282TIP3   OH212851   1.419   5.988   1.698  0.1109  0.6549  0.1615
 4282TIP3    H112852   1.501   6.027   1.728  1.2232 -2.0452  0.9247
 4282TIP3    H212853   1.428   5.895   1.719 -3.0680  0.2239  0.0171
 4283TIP3   OH212854   1.191   2.128   4.745 -0.4949 -0.0301  0.7711
 4283TIP3    H112855   1.197   2.218   4.713  0.7969 -0.3463  0.0591
 4283TIP3    H212856   1.253   2.124   4.818 -0.9574 -0.2046  1.1612
 4284TIP3   OH212857   2.091   0.080   4.687 -0.2718 -0.4515 -0.1682
 4284TIP3    H112858   2.078   0.126   4.769  0.5013 -2.4112  1.1377
 4284TIP3    H212859   2.173   0.116   4.651  0.5463 -1.0302  1.0392
 4285TIP3   OH212860   3.477   0.876   2.022 -0.0836  0.1635  0.2343
 4285TIP3    H112861   3.457   0.851   1.932 -1.8092  0.5877  0.4638
 4285TIP3    H212862   3.529   0.803   2.056 -2.2547 -1.6684 -0.1073
 4286TIP3   OH212863   6.160   5.039   0.223  0.1737  0.3299 -0.1212
 4286TIP3    H112864   6.201   5.126   0.221  1.4351 -0.0341  3.2592
 4286TIP3    H212865   6.066   5.057   0.216  0.5068  1.7448 -1.5759
 4287TIP3   OH212866   0.517   2.906   4.845  0.4072  0.0454 -0.1267
 4287TIP3    H112867   0.538   2.998   4.863 -0.2768  0.0159  0.9059
 4287TIP3    H212868   0.483   2.872   4.928  0.6476 -1.1497 -0.4865
 4288TIP3   OH212869   0.576   0.672   1.858  0.1828 -0.3265  0.5926
 4288TIP3    H112870   0.562   0.767   1.864  1.6647 -0.0452 -0.0156
 4288TIP3    H212871   0.593   0.644   1.948 -2.0056 -0.3476  1.0501
 4289TIP3   OH212872   2.016   3.675   0.379  0.5291 -0.1572  0.2043
 4289TIP3    H112873   2.018   3.616   0.454  0.3453  0.3778  0.6342
 4289TIP3    H212874   1.922   3.686   0.360  0.5322 -2.8518 -2.1706
 4290TIP3   OH212875   0.930   0.388   4.236 -0.1140  0.1058  0.0914
 4290TIP3    H112876   0.932   0.477   4.269  0.2612  0.8315 -1.8011
 4290TIP3    H212877   0.852   0.385   4.180  0.6151 -0.3385 -0.9257
 4291TIP3   OH212878   3.414   0.683   0.559 -0.5168 -0.1809  1.0119
 4291TIP3    H112879   3.502   0.701   0.525 -0.9420  1.5183  0.7074
 4291TIP3    H212880   3.426   0.614   0.624  1.0625  0.1350  1.0834
 4292TIP3   OH212881   0.871   3.109   1.012  0.6783  0.3602  0.5880
 4292TIP3    H112882   0.852   3.032   0.958  1.0671 -0.9694  2.2717
 4292TIP3    H212883   0.964   3.103   1.032  1.2073  2.4125 -0.8945
 4293TIP3   OH212884   5.441   0.160   4.621  0.2710 -0.1858 -0.3929
 4293TIP3    H112885   5.441   0.222   4.548  1.7157 -0.4118 -0.6164
 4293TIP3    H212886   5.460   0.214   4.698  3.2104 -0.4930 -0.7990
 4294TIP3   OH212887   5.517   5.805   1.848  0.0601  0.3308 -0.1540
 4294TIP3    H112888   5.518   5.730   1.789  0.1729  0.6864 -0.6116
 4294TIP3    H212889   5.595   5.855   1.824 -0.8755  1.4443 -0.9555
 4295TIP3   OH212890   4.133   5.367   4.572  0.0897 -0.1479  0.4836
 4295TIP3    H112891   4.200   5.330   4.630  1.5943  1.9148  0.1929
 4295TIP3    H212892   4.062   5.394   4.630  0.1649 -0.9850  0.9770
 4296TIP3   OH212893   1.066   5.362   2.406  0.3211  0.6553 -0.2782
 4296TIP3    H112894   1.098   5.443   2.367 -1.5763  0.9427 -1.3749
 4296TIP3    H212895   1.132   5.297   2.382  0.9122  1.4985 -1.0355
 4297TIP3   OH212896   0.942   3.824   5.154 -0.2219  0.0734  0.5033
 4297TIP3    H112897   0.867   3.764   5.153 -0.2084  0.0595  0.1160
 4297TIP3    H212898   1.013   3.773   5.192 -0.9504  0.7485  2.8932
 4298TIP3   OH212899   1.460   4.601   4.607  0.3674 -0.3247  0.4204
 4298TIP3    H112900   1.403   4.570   4.676  0.8792 -2.0431  0.1154
 4298TIP3    H212901   1.535   4.640   4.653 -0.3958  0.7364  0.8073
 4299TIP3   OH212902   0.384   2.239   0.761 -0.2505  0.9357  0.0883
 4299TIP3    H112903   0.375   2.327   0.724 -0.8882  0.5635 -0.6702
 4299TIP3    H212904   0.310   2.191   0.725 -0.4721  0.3510  1.2790
 4300TIP3   OH212905   5.847   0.153   2.609 -0.1765 -0.3374  0.0223
 4300TIP3    H112906   5.883   0.064   2.609 -1.8347 -1.1032 -2.5664
 4300TIP3    H212907   5.913   0.205   2.563  1.4689  0.2070  2.7560
 4301TIP3   OH212908   1.549   1.900   4.427  0.5312 -0.3621  0.0872
 4301TIP3    H112909   1.503   1.850   4.359  0.6308 -0.7230  0.2811
 4301TIP3    H212910   1.640   1.904   4.396  0.2838  0.7699 -0.5356
 4302TIP3   OH212911   0.656   1.858   2.460 -0.7507  0.0173  0.6192
 4302TIP3    H112912   0.596   1.783   2.463 -2.1269  1.1034  1.6080
 4302TIP3    H212913   0.727   1.834   2.521 -1.1547 -0.5022  0.8926
 4303TIP3   OH212914   4.904   0.127   4.459 -0.2814 -0.8880  0.4001
 4303TIP3    H112915   4.841   0.187   4.498 -1.5489  0.0951 -2.8369
 4303TIP3    H212916   4.853   0.074   4.399  1.7340 -0.8463 -1.4956
 4304TIP3   OH212917   5.534   3.844   2.937  0.0974  0.2515 -0.1015
 4304TIP3    H112918   5.454   3.812   2.979 -0.3011 -1.3516 -1.9375
 4304TIP3    H212919   5.521   3.828   2.844  2.7338 -0.4905 -0.4410
 4305TIP3   OH212920   5.723   3.491   0.191  0.2934  0.2533  0.4740
 4305TIP3    H112921   5.631   3.505   0.216  0.2458  0.1788  0.3461
 4305TIP3    H212922   5.722   3.499   0.095  0.4836  0.6135  0.4989
 4306TIP3   OH212923   1.639   3.193   5.171 -0.6654 -0.2734  0.0246
 4306TIP3    H112924   1.570   3.127   5.180 -0.8734 -0.0142  0.3224
 4306TIP3    H212925   1.601   3.261   5.116 -0.8280  0.1037  0.5874
 4307TIP3   OH212926   4.520   3.157   3.097 -0.0350 -0.0098 -0.2676
 4307TIP3    H112927   4.449   3.093   3.105 -0.1265  0.1815  0.6155
 4307TIP3    H212928   4.579   3.136   3.170  0.4885  0.2274 -0.6193
 4308TIP3   OH212929   1.591   0.733   3.928  1.3173 -0.1381 -0.2607
 4308TIP3    H112930   1.629   0.754   3.842 -0.9807  3.1130 -0.6904
 4308TIP3    H212931   1.615   0.808   3.983  1.9109 -1.7041  1.7273
 4309TIP3   OH212932   5.353   3.800   0.595 -0.0138 -0.2063 -0.2721
 4309TIP3    H112933   5.360   3.726   0.535 -0.0751  0.8264 -1.5918
 4309TIP3    H212934   5.427   3.856   0.574 -0.9581  0.9897 -0.5522
 4310TIP3   OH212935   0.204   2.828   3.437  0.1454 -0.9637 -0.2726
 4310TIP3    H112936   0.259   2.773   3.380  1.6520  1.3429 -1.1933
 4310TIP3    H212937   0.262   2.852   3.509 -0.3811 -0.3571 -0.0529
 4311TIP3   OH212938   2.443   2.162   1.757  0.0380 -0.2534 -0.1251
 4311TIP3    H112939   2.488   2.246   1.756 -1.1379  0.4139  0.5065
 4311TIP3    H212940   2.351   2.184   1.739 -0.5779 -1.1892  1.6738
 4312TIP3   OH212941   1.134   0.812   1.322 -0.2668  0.2399 -0.7309
 4312TIP3    H112942   1.152   0.883   1.261  1.9370  2.6945  2.4628
 4312TIP3    H212943   1.105   0.856   1.402  0.0703 -2.5442  1.0396
 4313TIP3   OH212944   0.999   3.307   4.305  0.2436 -0.5310  0.5256
 4313TIP3    H112945   0.909   3.317   4.337 -0.2906  0.3925 -1.1695
 4313TIP3    H212946   1.049   3.371   4.356 -0.1749 -0.5377  0.9577
 4314TIP3   OH212947   0.846   0.875   4.913  0.4812 -0.2931  0.4613
 4314TIP3    H112948   0.773   0.814   4.909  0.4568 -0.3866  1.9152
 4314TIP3    H212949   0.828   0.939   4.844 -0.0457 -1.2997 -0.3629
 4315TIP3   OH212950   3.203   1.231   4.535  0.2516 -0.3606 -0.5445
 4315TIP3    H112951   3.123   1.273   4.502 -0.5207 -1.6684 -0.4326
 4315TIP3    H212952   3.271   1.256   4.472 -0.5955 -0.4942 -1.5538
 4316TIP3   OH212953   4.272   3.586   4.999 -0.1747 -0.1200 -0.8546
 4316TIP3    H112954   4.260   3.534   5.078 -1.2265  1.4330  0.0616
 4316TIP3    H212955   4.313   3.667   5.029 -0.9125  0.6443 -1.8339
 4317TIP3   OH212956   5.293   0.842   0.496  0.7125 -0.3039  0.0916
 4317TIP3    H112957   5.386   0.831   0.476  0.4763 -0.7711 -0.8201
 4317TIP3    H212958   5.248   0.786   0.433 -0.1658 -0.5513  0.9126
 4318TIP3   OH212959   4.132   0.885   0.071 -0.0857 -0.3662 -0.4854
 4318TIP3    H112960   4.104   0.795   0.088  0.0996 -0.8425 -2.4677
 4318TIP3    H212961   4.227   0.881   0.073 -0.0702 -0.3216 -1.0525
 4319TIP3   OH212962   6.110   3.953   0.486 -0.7944 -0.7830  0.1195
 4319TIP3    H112963   6.157   4.026   0.445 -0.1798 -0.8891  0.6200
 4319TIP3    H212964   6.151   3.875   0.449 -0.7520 -0.8762  0.3629
 4320TIP3   OH212965   3.341   5.628   0.590  0.6576 -0.0462  0.2653
 4320TIP3    H112966   3.301   5.610   0.675  0.2604  0.3117  0.1589
 4320TIP3    H212967   3.388   5.548   0.568 -1.7231 -1.3278 -0.6010
 4321TIP3   OH212968   5.809   1.034   3.024 -0.0200 -0.1862 -0.2000
 4321TIP3    H112969   5.848   0.971   2.964  3.9582  1.4548  0.3877
 4321TIP3    H212970   5.839   1.119   2.993  0.1192  0.9068  2.6817
 4322TIP3   OH212971   5.345   0.742   1.607 -0.2475 -0.1175  0.3803
 4322TIP3    H112972   5.438   0.765   1.613 -0.1984 -0.7854  3.2009
 4322TIP3    H212973   5.299   0.823   1.630 -0.3495 -0.1275  0.2138
 4323TIP3   OH212974   3.957   0.181   0.744  0.2947  0.4838 -0.3109
 4323TIP3    H112975   3.869   0.145   0.734  0.2395  0.6469 -0.4232
 4323TIP3    H212976   3.995   0.178   0.656  0.9086 -0.8652 -0.0315
 4324TIP3   OH212977   4.990   2.346   2.320  0.0138  0.0284 -0.5482
 4324TIP3    H112978   4.902   2.373   2.296  0.2270 -0.3449 -1.8313
 4324TIP3    H212979   5.002   2.262   2.276  1.0053  0.0738 -0.3922
 4325TIP3   OH212980   2.869   5.223   1.551 -0.3620 -0.4128 -0.6637
 4325TIP3    H112981   2.916   5.160   1.498 -0.5840 -0.7965 -0.4112
 4325TIP3    H212982   2.828   5.171   1.620 -1.1612 -0.0947 -0.8824
 4326TIP3   OH212983   1.219   1.750   4.237  0.2813  0.6569  0.2983
 4326TIP3    H112984   1.214   1.845   4.228 -0.4166  0.7458  1.4596
 4326TIP3    H212985   1.174   1.731   4.320  0.8757 -0.6312  0.3512
 4327TIP3   OH212986   5.774   1.714   1.209  0.5630 -0.0767 -0.4251
 4327TIP3    H112987   5.710   1.713   1.138  1.5602 -0.0859 -1.3522
 4327TIP3    H212988   5.854   1.680   1.170  0.5168 -2.5525  1.3450
 4328TIP3   OH212989   0.580   5.932   4.885 -0.4158  0.0108 -0.3194
 4328TIP3    H112990   0.651   5.971   4.833 -0.6732  1.2564  0.2112
 4328TIP3    H212991   0.501   5.979   4.856 -0.9224 -0.8935 -0.4299
 4329TIP3   OH212992   0.064   0.456   2.367  0.1383 -0.0957  0.0921
 4329TIP3    H112993   0.042   0.544   2.395  1.9228  0.2945  0.3687
 4329TIP3    H212994   0.152   0.440   2.401 -0.4000 -2.2625  0.6702
 4330TIP3   OH212995   3.272   3.988   1.531  0.1584 -0.3496 -0.0277
 4330TIP3    H112996   3.263   3.907   1.481  1.2151  0.4110 -1.5341
 4330TIP3    H212997   3.246   4.057   1.470 -1.3241  0.4591  1.4088
 4331TIP3   OH212998   2.455   0.441   4.560 -0.2435 -0.0423 -0.0038
 4331TIP3    H112999   2.487   0.507   4.499 -0.8903 -0.1015 -0.4213
 4331TIP3    H213000   2.519   0.369   4.554 -0.0852  0.1239 -0.3064
 4332TIP3   OH213001   5.483   1.387   0.133 -0.9885  0.0354 -0.5772
 4332TIP3    H113002   5.392   1.365   0.114 -1.4765  0.7942  0.7883
 4332TIP3    H213003   5.479   1.467   0.185  0.4530  0.0010 -0.3537
 4333TIP3   OH213004   5.228   1.968   4.556  0.5768  0.1909  0.0458
 4333TIP3    H113005   5.219   2.048   4.607  0.6276 -0.6490  1.4056
 4333TIP3    H213006   5.143   1.958   4.513 -0.1558 -0.1415  1.5454
 4334TIP3   OH213007   6.250   5.305   4.687 -0.4749  0.5767  0.0359
 4334TIP3    H113008   6.175   5.296   4.746 -1.7294  2.4364 -1.1743
 4334TIP3    H213009   6.278   5.396   4.696  0.2562  0.4924 -1.1245
 4335TIP3   OH213010   0.037   1.345   0.553 -0.4351 -0.1483 -0.2700
 4335TIP3    H113011   0.114   1.392   0.585  1.0454 -1.5513 -1.5465
 4335TIP3    H213012   0.044   1.351   0.457 -0.8021 -1.9674 -0.4426
 4336TIP3   OH213013   2.924   1.179   2.177  0.2018 -0.2592  0.1106
 4336TIP3    H113014   3.003   1.155   2.128  0.5386  0.0121  0.5177
 4336TIP3    H213015   2.856   1.122   2.141  0.4749 -0.1599 -0.5756
 4337TIP3   OH213016   0.672   3.716   2.899  0.1623  0.0917  0.3179
 4337TIP3    H113017   0.750   3.662   2.913 -0.2562 -0.1067  2.0151
 4337TIP3    H213018   0.620   3.666   2.835  0.4254 -0.8482  0.8144
 4338TIP3   OH213019   3.949   1.335   0.689  0.0399  0.1720 -0.2922
 4338TIP3    H113020   3.907   1.391   0.623  0.7928  0.9232 -0.1613
 4338TIP3    H213021   4.043   1.347   0.673  0.2235 -1.2772 -0.4274
 4339TIP3   OH213022   6.020   4.565   0.139  0.0187  0.2326 -0.0823
 4339TIP3    H113023   5.990   4.649   0.104 -0.1849  0.7783  1.3428
 4339TIP3    H213024   5.978   4.559   0.225  2.8405  0.3630  1.4018
 4340TIP3   OH213025   0.949   4.809   0.053 -0.0494  0.0766 -0.0955
 4340TIP3    H113026   0.994   4.727   0.030 -1.1775 -0.7441  0.5194
 4340TIP3    H213027   0.999   4.877   0.007  0.1251 -1.0902 -1.7201
 4341TIP3   OH213028   1.669   0.463   0.661 -0.2242 -0.0038  0.2582
 4341TIP3    H113029   1.589   0.437   0.708  0.0901  0.1019  0.8691
 4341TIP3    H213030   1.738   0.458   0.728  0.2098  0.2856 -0.1657
 4342TIP3   OH213031   5.444   0.785   2.536  0.0714  0.0154  0.1076
 4342TIP3    H113032   5.471   0.823   2.619 -0.6733  0.3002  0.2309
 4342TIP3    H213033   5.445   0.691   2.550  1.9357 -0.0557 -0.1973
 4343TIP3   OH213034   1.651   3.277   4.355  0.0855 -0.1632  0.0736
 4343TIP3    H113035   1.640   3.299   4.262  2.3002  1.9105  0.2029
 4343TIP3    H213036   1.562   3.276   4.390 -0.7824 -0.6812 -1.9732
 4344TIP3   OH213037   1.843   4.201   4.081 -0.2527 -0.0692  0.2729
 4344TIP3    H113038   1.837   4.292   4.051 -0.3114 -0.4290 -0.8547
 4344TIP3    H213039   1.897   4.158   4.015  1.9961 -0.3145  2.1529
 4345TIP3   OH213040   3.552   3.380   0.741 -0.5223  0.9496 -0.4143
 4345TIP3    H113041   3.545   3.455   0.682  1.5994  1.1544 -0.4608
 4345TIP3    H213042   3.589   3.310   0.687  1.0344  1.0082  0.5035
 4346TIP3   OH213043   5.249   2.207   4.680 -0.2338  0.2540  0.1060
 4346TIP3    H113044   5.217   2.242   4.763 -0.6105  1.2377 -0.4393
 4346TIP3    H213045   5.207   2.261   4.613  0.8223  0.1132 -0.6996
 4347TIP3   OH213046   0.089   0.679   2.811  0.2658  0.3842 -0.5385
 4347TIP3    H113047   0.092   0.694   2.717 -0.2615  1.0780 -0.4521
 4347TIP3    H213048   0.175   0.705   2.843  0.5419 -0.1117 -0.8535
 4348TIP3   OH213049   4.641   1.262   3.991 -0.3450  0.1098  0.3322
 4348TIP3    H113050   4.564   1.216   3.957  0.1716 -0.2076 -0.4246
 4348TIP3    H213051   4.698   1.274   3.915 -0.0766  1.2229  0.6957
 4349TIP3   OH213052   0.340   0.488   1.818  0.1215 -0.3632 -0.1083
 4349TIP3    H113053   0.401   0.558   1.842  0.7862 -1.0092  0.1008
 4349TIP3    H213054   0.381   0.408   1.851 -0.8859 -0.7980  0.1300
 4350TIP3   OH213055   4.598   5.656   2.861 -0.0654 -0.1318  0.4899
 4350TIP3    H113056   4.575   5.702   2.781 -1.1730 -3.2113 -1.1094
 4350TIP3    H213057   4.514   5.630   2.899  0.4036  1.5999  2.9752
 4351TIP3   OH213058   3.762   0.069   3.383 -0.0076 -0.3870 -0.0104
 4351TIP3    H113059   3.803  -0.018   3.385  0.0173 -0.3745  0.0084
 4351TIP3    H213060   3.770   0.096   3.291  2.2218  0.6808  0.4509
 4352TIP3   OH213061   2.602   4.184   1.259 -0.1451  0.5124 -0.8319
 4352TIP3    H113062   2.605   4.089   1.265 -1.6229  0.4924  0.0026
 4352TIP3    H213063   2.622   4.202   1.167  1.5920 -0.4873 -0.6986
 4353TIP3   OH213064   4.878   1.605   2.537 -0.2091  0.4691 -0.7644
 4353TIP3    H113065   4.940   1.677   2.543 -0.0542  0.3899 -1.3707
 4353TIP3    H213066   4.891   1.555   2.618  0.4162  0.5297 -0.8223
 4354TIP3   OH213067   6.350   5.601   3.175  0.4561 -0.2312 -0.0479
 4354TIP3    H113068   6.340   5.523   3.228 -0.1002  1.4279  2.4737
 4354TIP3    H213069   6.264   5.613   3.134 -0.3116  0.4055  1.6463
 4355TIP3   OH213070   5.919   2.214   0.078 -0.2988 -0.1293  0.5431
 4355TIP3    H113071   5.826   2.191   0.076 -0.5393  0.0484  3.9427
 4355TIP3    H213072   5.963   2.135   0.108  0.5885  0.0209 -0.3109
 4356TIP3   OH213073   4.749   4.168   1.641  0.9584  0.3332 -0.0883
 4356TIP3    H113074   4.802   4.137   1.568 -0.6633  1.9851 -2.1011
 4356TIP3    H213075   4.802   4.237   1.681  1.7786 -0.4528  0.2277
 4357TIP3   OH213076   3.493   2.750   4.327  0.2116 -0.1460  0.2533
 4357TIP3    H113077   3.485   2.662   4.289  0.7832  0.2480 -0.8480
 4357TIP3    H213078   3.408   2.767   4.366 -0.2808 -0.7550 -0.5129
 4358TIP3   OH213079   1.363   5.769   2.978 -0.2852  0.0803  0.1970
 4358TIP3    H113080   1.301   5.791   2.908 -0.8760 -1.1198  0.3187
 4358TIP3    H213081   1.339   5.826   3.051  0.1374  1.1261 -0.4586
 4359TIP3   OH213082   2.590   4.032   3.058 -0.2639  0.1696 -0.1005
 4359TIP3    H113083   2.586   3.964   3.126 -1.1874  1.5451  1.3091
 4359TIP3    H213084   2.681   4.060   3.058 -0.5378  1.2119  1.7395
 4360TIP3   OH213085   4.055   5.584   0.155 -0.2179 -0.1539 -0.1441
 4360TIP3    H113086   4.117   5.559   0.222 -0.6281  0.6866  0.5723
 4360TIP3    H213087   4.094   5.554   0.073  1.4328  0.9080  0.2179
 4361TIP3   OH213088   1.921   4.361   0.482  0.1773  0.3670 -0.2095
 4361TIP3    H113089   1.909   4.275   0.522  0.4589 -0.4910 -1.9065
 4361TIP3    H213090   1.937   4.420   0.556  0.2071 -1.0736  0.9590
 4362TIP3   OH213091   0.115   1.793   2.098  0.6238  0.7492  0.4007
 4362TIP3    H113092   0.176   1.858   2.063  1.6110 -0.3678 -0.0351
 4362TIP3    H213093   0.113   1.724   2.032  1.2354 -0.6374  1.7491
 4363TIP3   OH213094   4.817   4.045   4.658 -0.1566  0.1377  0.0795
 4363TIP3    H113095   4.748   4.103   4.690 -1.3723 -1.0004 -0.4096
 4363TIP3    H213096   4.841   4.082   4.573  0.2944  0.8907  0.5234
 4364TIP3   OH213097   0.468   3.752   4.475  0.1769  0.1927 -0.0405
 4364TIP3    H113098   0.559   3.779   4.486  0.1296  0.9283 -1.2487
 4364TIP3    H213099   0.417   3.825   4.510  0.0498  0.1064 -0.0467
 4365TIP3   OH213100   6.229   5.141   1.076  0.0097  0.5922  0.2476
 4365TIP3    H113101   6.203   5.049   1.086  0.9636  0.5275  2.9133
 4365TIP3    H213102   6.148   5.187   1.055 -0.6763 -0.7199 -0.0498
 4366TIP3   OH213103   5.770   1.968   5.134  0.1118 -0.4552  0.2578
 4366TIP3    H113104   5.850   2.004   5.171  0.5937 -1.7196  0.4830
 4366TIP3    H213105   5.800   1.903   5.070 -0.7327 -0.1621 -0.4692
 4367TIP3   OH213106   1.338   3.364   2.328 -0.5446 -1.4721 -0.6765
 4367TIP3    H113107   1.431   3.358   2.347 -0.6668  0.5478  1.0076
 4367TIP3    H213108   1.328   3.328   2.240  2.2952  0.7422 -2.0754
 4368TIP3   OH213109   2.602   3.128   2.146  0.0741 -0.0727 -0.1600
 4368TIP3    H113110   2.552   3.051   2.119  1.8326 -1.2433 -0.2185
 4368TIP3    H213111   2.647   3.101   2.226 -1.2201  1.7581  1.2939
 4369TIP3   OH213112   5.765   2.683   2.621 -0.4776  0.7336  0.5934
 4369TIP3    H113113   5.840   2.654   2.570  0.1130 -0.7528  2.1956
 4369TIP3    H213114   5.732   2.760   2.575  0.9447  0.3707 -1.1148
 4370TIP3   OH213115   1.993   5.717   0.292 -0.4570 -0.0053  0.0296
 4370TIP3    H113116   1.901   5.724   0.319 -1.7337 -1.2112 -3.5386
 4370TIP3    H213117   2.011   5.800   0.248  0.1363  0.1100  0.4658
 4371TIP3   OH213118   0.880   0.087   3.150  0.1302  0.3290 -0.4514
 4371TIP3    H113119   0.891  -0.008   3.145 -0.7386  0.0909  1.5014
 4371TIP3    H213120   0.785   0.100   3.147  0.2748  1.2503 -1.8988
 4372TIP3   OH213121   1.000   0.771   4.069 -0.5078  0.2948 -0.3041
 4372TIP3    H113122   1.072   0.834   4.081 -0.3528 -0.0999  1.0571
 4372TIP3    H213123   0.937   0.817   4.015 -0.5405  1.7713  0.9071
 4373TIP3   OH213124   2.620   2.668   4.589 -0.1083  0.5948 -0.6919
 4373TIP3    H113125   2.616   2.617   4.508  0.3487  0.1471 -0.4405
 4373TIP3    H213126   2.531   2.668   4.622  0.3421 -2.7803  0.9578
 4374TIP3   OH213127   6.163   1.086   1.937 -0.0027  0.0055 -0.2641
 4374TIP3    H113128   6.208   1.048   1.862  0.2896 -0.3751  0.1002
 4374TIP3    H213129   6.109   1.156   1.900  1.2010  0.7518 -0.6609
 4375TIP3   OH213130   3.957   3.934   4.756  0.0210 -0.4432  0.0389
 4375TIP3    H113131   3.891   3.992   4.793  0.5786  1.4546 -1.7932
 4375TIP3    H213132   3.933   3.926   4.663  1.8317 -0.4219 -0.4690
 4376TIP3   OH213133   5.819   2.338   4.804  0.2294  0.0196 -0.6075
 4376TIP3    H113134   5.840   2.245   4.796  1.2342  0.2391 -0.7042
 4376TIP3    H213135   5.781   2.361   4.719 -0.1567 -0.3300 -0.5336
 4377TIP3   OH213136   4.196   0.382   1.974 -0.2362  0.4115  0.0876
 4377TIP3    H113137   4.113   0.366   1.930 -1.8940 -0.7176  3.3005
 4377TIP3    H213138   4.178   0.455   2.034  1.4582  0.9247  0.0371
 4378TIP3   OH213139   2.258   3.286   1.899 -0.5240  0.2738  0.5079
 4378TIP3    H113140   2.338   3.333   1.920 -0.4053  0.3405 -0.0795
 4378TIP3    H213141   2.219   3.335   1.827 -1.5929  0.7904  1.4171
 4379TIP3   OH213142   0.640   3.711   3.203 -0.0056  0.2796 -0.2821
 4379TIP3    H113143   0.719   3.762   3.219  0.1599 -0.2304  0.6228
 4379TIP3    H213144   0.618   3.727   3.112 -0.5710  2.8108  0.2246
 4380TIP3   OH213145   0.205   3.939   2.269 -0.6929 -0.2967  0.0116
 4380TIP3    H113146   0.150   3.891   2.207  2.4345  1.1227 -4.3808
 4380TIP3    H213147   0.154   4.017   2.291 -1.3508 -0.0277 -2.2397
 4381TIP3   OH213148   1.806   5.060   3.841  0.3146 -0.1819  0.5559
 4381TIP3    H113149   1.735   5.120   3.864 -1.6914 -2.7183  1.5599
 4381TIP3    H213150   1.876   5.081   3.903 -0.1292  1.3534  0.5843
 4382TIP3   OH213151   0.956   2.560   3.150 -0.5575  0.2389  0.0728
 4382TIP3    H113152   0.871   2.572   3.192 -1.0287 -1.1302 -0.4105
 4382TIP3    H213153   1.018   2.560   3.222 -0.9394  1.3602  0.4238
 4383TIP3   OH213154   1.218   3.548   3.669 -0.2237 -0.0989  0.1287
 4383TIP3    H113155   1.201   3.492   3.745  1.2048 -2.2154 -1.0359
 4383TIP3    H213156   1.312   3.563   3.670 -0.1710 -0.2071 -1.2497
 4384TIP3   OH213157   6.162   5.347   4.345  0.2380  0.1004 -0.6709
 4384TIP3    H113158   6.253   5.323   4.325  0.1099  0.6769 -2.0230
 4384TIP3    H213159   6.156   5.440   4.322 -0.2676  0.5026  0.9839
 4385TIP3   OH213160   3.666   1.124   4.643 -0.1051  0.3450 -0.2561
 4385TIP3    H113161   3.571   1.124   4.646 -0.1517  0.9224 -1.1876
 4385TIP3    H213162   3.693   1.154   4.730 -0.7567 -0.1183  0.1134
 4386TIP3   OH213163   5.304   3.753   4.101 -0.0369  0.0850 -0.8210
 4386TIP3    H113164   5.262   3.837   4.117  1.0764  0.6877 -1.0160
 4386TIP3    H213165   5.286   3.701   4.180  0.7545  1.1128  0.0510
 4387TIP3   OH213166   0.472   0.432   0.655 -0.1513 -0.1373  0.0105
 4387TIP3    H113167   0.430   0.428   0.741  0.3412 -0.8390  0.2312
 4387TIP3    H213168   0.401   0.454   0.594 -0.8063 -1.0712  0.4052
 4388TIP3   OH213169   5.468   5.462   4.263 -0.0657 -0.3566  0.0304
 4388TIP3    H113170   5.461   5.384   4.317 -0.8053 -0.8917 -0.8175
 4388TIP3    H213171   5.474   5.534   4.326  1.0686 -1.1079  0.8238
 4389TIP3   OH213172   2.242   0.638   0.231 -0.2736 -0.0508  0.3854
 4389TIP3    H113173   2.335   0.637   0.211 -0.1026 -0.5743  1.1632
 4389TIP3    H213174   2.210   0.720   0.192  0.5028  0.1163  0.0876
 4390TIP3   OH213175   2.093   5.565   0.085 -0.6115  0.4745  0.0857
 4390TIP3    H113176   2.058   5.623   0.153 -1.9762 -0.9285  0.6346
 4390TIP3    H213177   2.031   5.491   0.082  0.7202 -0.6481 -1.0293
 4391TIP3   OH213178   0.679   2.529   3.767 -0.3024  0.3664 -0.0393
 4391TIP3    H113179   0.736   2.605   3.758 -1.1839  1.0170 -0.1669
 4391TIP3    H213180   0.646   2.535   3.857  0.7911 -0.7086  0.4693
 4392TIP3   OH213181   6.214   3.177   1.682 -0.3035  0.2566 -0.1706
 4392TIP3    H113182   6.205   3.082   1.677 -0.1520  0.1366  1.4197
 4392TIP3    H213183   6.277   3.199   1.613  1.1872 -1.0363  0.7080
 4393TIP3   OH213184   0.677   4.937   1.944 -0.0039 -0.0432 -0.3532
 4393TIP3    H113185   0.647   4.916   2.032  0.7469  0.0435 -0.0734
 4393TIP3    H213186   0.650   4.861   1.891 -0.2714 -0.1877 -0.0142
 4394TIP3   OH213187   4.319   2.533   4.772 -0.3603 -0.2882  0.2118
 4394TIP3    H113188   4.280   2.446   4.763 -3.3358  0.6525  2.2881
 4394TIP3    H213189   4.379   2.525   4.846 -0.2619 -0.6871  0.0896
 4395TIP3   OH213190   5.884   1.443   4.256  0.2058  0.7310  0.3906
 4395TIP3    H113191   5.966   1.394   4.247 -1.5571 -2.0664 -2.7676
 4395TIP3    H213192   5.828   1.387   4.309 -0.1839  1.9715  1.3525
 4396TIP3   OH213193   5.603   2.319   3.315 -0.0485 -0.4567 -0.0947
 4396TIP3    H113194   5.588   2.287   3.227 -0.7200 -1.0027  0.2110
 4396TIP3    H213195   5.654   2.400   3.303  1.2270 -1.3410 -0.8892
 4397TIP3   OH213196   3.534   5.306   3.441 -0.2271  0.0291  0.6155
 4397TIP3    H113197   3.556   5.379   3.499  1.9852  0.7467 -0.9893
 4397TIP3    H213198   3.600   5.309   3.372 -2.5313 -0.9193 -1.8565
 4398TIP3   OH213199   3.271   1.990   0.930  0.2557 -0.1210 -0.0127
 4398TIP3    H113200   3.365   1.998   0.943  0.0621  0.7374  0.9231
 4398TIP3    H213201   3.262   1.915   0.871  1.4816 -0.6878  0.4829
 4399TIP3   OH213202   2.070   3.133   3.883  0.3921 -0.1825 -0.0542
 4399TIP3    H113203   2.052   3.152   3.975  2.0615 -0.5808  0.3863
 4399TIP3    H213204   1.993   3.085   3.852 -1.5942  2.6033  0.2372
 4400TIP3   OH213205   0.156   0.189   3.250  0.0990 -0.4404  0.2032
 4400TIP3    H113206   0.062   0.201   3.232 -0.2222 -1.2699  1.2645
 4400TIP3    H213207   0.184   0.274   3.285 -0.0663  0.0519 -0.8048
 4401TIP3   OH213208   1.058   0.910   1.571 -0.0220 -0.3208  0.2139
 4401TIP3    H113209   0.969   0.944   1.569  0.0448 -0.1431  0.2677
 4401TIP3    H213210   1.067   0.874   1.659  0.2696  0.4983  0.5297
 4402TIP3   OH213211   5.337   2.259   0.900  0.0728  0.0015 -0.5039
 4402TIP3    H113212   5.361   2.349   0.924  1.1264 -0.1624 -0.8763
 4402TIP3    H213213   5.401   2.205   0.947 -0.6050 -0.5611 -0.2181
 4403TIP3   OH213214   0.363   3.322   4.690  0.3334 -0.3930 -0.9584
 4403TIP3    H113215   0.268   3.312   4.686  0.5085 -2.8214 -0.6266
 4403TIP3    H213216   0.394   3.288   4.606  0.9609 -0.0403 -0.8781
 4404TIP3   OH213217   0.134   4.309   1.675  0.6813  0.1381 -0.4030
 4404TIP3    H113218   0.060   4.253   1.650 -0.4245  0.6019  1.5915
 4404TIP3    H213219   0.210   4.251   1.668 -0.2243 -1.1873  0.1020
 4405TIP3   OH213220   0.456   0.746   4.275  0.0674 -0.6853 -0.4508
 4405TIP3    H113221   0.464   0.842   4.273 -0.3912 -0.5896  1.0864
 4405TIP3    H213222   0.362   0.730   4.276  0.0755 -1.0058  1.9065
 4406TIP3   OH213223   5.042   5.966   1.942 -0.0224 -0.5158  0.3826
 4406TIP3    H113224   5.119   5.923   1.906 -0.2387 -0.3936 -0.2336
 4406TIP3    H213225   4.979   5.969   1.870 -0.4504 -0.2379  0.7572
 4407TIP3   OH213226   4.062   0.806   1.181  0.1521  0.0349  0.2211
 4407TIP3    H113227   4.052   0.713   1.201  1.7321 -0.0446  0.7444
 4407TIP3    H213228   4.077   0.809   1.087 -0.8521 -0.1317  0.0371
 4408TIP3   OH213229   6.001   2.871   3.058 -0.2040 -0.4885 -0.4099
 4408TIP3    H113230   6.043   2.889   3.142 -0.6656 -1.7165  0.1153
 4408TIP3    H213231   5.986   2.776   3.059 -1.1770 -0.3636 -1.4238
 4409TIP3   OH213232   1.855   4.243   2.489 -0.3701 -0.5539  0.0711
 4409TIP3    H113233   1.875   4.208   2.401  1.0517  1.5569 -0.5206
 4409TIP3    H213234   1.762   4.264   2.486 -0.5175 -1.2341 -0.6412
 4410TIP3   OH213235   2.869   5.486   4.051  0.3656  0.0476 -0.2563
 4410TIP3    H113236   2.780   5.515   4.065  0.1489 -0.3550 -0.7583
 4410TIP3    H213237   2.901   5.538   3.977  0.1666 -0.5766 -0.7908
 4411TIP3   OH213238   3.121   1.548   1.658 -0.0296  0.1707  0.1263
 4411TIP3    H113239   3.192   1.587   1.709  1.7007 -0.4002 -1.6989
 4411TIP3    H213240   3.165   1.499   1.588 -2.1913  1.9753 -2.7629
 4412TIP3   OH213241   3.038   2.147   1.672 -0.2339  0.4712 -0.2748
 4412TIP3    H113242   3.041   2.058   1.636  0.4956 -0.3000  1.5842
 4412TIP3    H213243   2.966   2.189   1.624 -2.2856 -1.9047  0.4898
 4413TIP3   OH213244   5.834   5.432   3.902 -0.3759  0.4217  0.4529
 4413TIP3    H113245   5.904   5.496   3.891  2.1665 -2.1890  0.3662
 4413TIP3    H213246   5.810   5.437   3.994  0.6428  0.7142  0.7125
 4414TIP3   OH213247   4.378   2.748   1.310  0.3515  0.3685  0.1241
 4414TIP3    H113248   4.321   2.718   1.380  0.8226  1.2217  0.8980
 4414TIP3    H213249   4.445   2.680   1.303 -1.0368 -0.9463 -1.2088
 4415TIP3   OH213250   2.182   5.536   4.572 -0.9800 -0.4882  0.0762
 4415TIP3    H113251   2.146   5.620   4.602 -3.5878 -1.3776 -0.3256
 4415TIP3    H213252   2.230   5.502   4.648  0.5344  1.5213  0.0975
 4416TIP3   OH213253   1.714   4.145   4.500 -0.8462 -0.5264  0.5566
 4416TIP3    H113254   1.715   4.151   4.596 -0.0947 -1.3361  0.6156
 4416TIP3    H213255   1.742   4.231   4.470 -1.9309  0.0093  1.0377
 4417TIP3   OH213256   5.535   3.255   2.728 -0.2368  0.2435  0.7512
 4417TIP3    H113257   5.613   3.311   2.726  0.9881 -1.3538 -2.2530
 4417TIP3    H213258   5.566   3.173   2.766 -0.4925 -0.3395 -0.2854
 4418TIP3   OH213259   3.753   1.310   2.367 -0.1187 -0.1563  0.4017
 4418TIP3    H113260   3.743   1.382   2.429  0.7479  1.0850 -0.8425
 4418TIP3    H213261   3.835   1.267   2.392  0.0017  0.0626  0.3774
 4419TIP3   OH213262   2.790   3.104   4.212  0.2305 -0.2981 -0.3146
 4419TIP3    H113263   2.856   3.161   4.250  0.1340 -1.2009  1.2989
 4419TIP3    H213264   2.801   3.020   4.258 -0.8595 -1.0064 -1.2728
 4420TIP3   OH213265   0.870   3.524   2.973 -0.0759 -0.0709 -0.1518
 4420TIP3    H113266   0.818   3.461   3.022 -0.3841 -1.0664 -1.6892
 4420TIP3    H213267   0.888   3.481   2.890  0.3200  1.5953 -0.9756
 4421TIP3   OH213268   5.805   2.423   1.965  0.2814  0.4352  1.0420
 4421TIP3    H113269   5.722   2.470   1.967  0.4055  0.6404  1.5758
 4421TIP3    H213270   5.866   2.480   2.012  0.6708  0.1840  0.8499
 4422TIP3   OH213271   5.570   2.764   4.161  0.3773 -0.7552 -0.0120
 4422TIP3    H113272   5.592   2.825   4.232  0.4724  0.3976 -1.0163
 4422TIP3    H213273   5.554   2.681   4.206  1.9702 -0.4475  1.2161
 4423TIP3   OH213274   3.127   2.842   3.553  0.8021  0.1908  0.4510
 4423TIP3    H113275   3.064   2.879   3.615 -1.1942 -0.0713 -1.3035
 4423TIP3    H213276   3.094   2.754   3.536  1.0904  0.3827 -1.2095
 4424TIP3   OH213277   3.897   2.086   3.920  0.0747 -0.3492  0.8569
 4424TIP3    H113278   3.959   2.037   3.867 -1.1015  0.0914 -1.0296
 4424TIP3    H213279   3.858   2.149   3.860 -1.5396  0.0020  2.1791
 4425TIP3   OH213280   3.936   0.378   0.112 -0.5057 -0.6921  0.1697
 4425TIP3    H113281   3.862   0.329   0.147 -0.9404 -0.1792 -0.0208
 4425TIP3    H213282   4.012   0.322   0.130 -0.7169 -0.4889  1.8350
 4426TIP3   OH213283   0.663   4.973   4.424 -0.3862  0.4236  0.1537
 4426TIP3    H113284   0.750   4.943   4.452 -0.0301 -0.3050 -1.6029
 4426TIP3    H213285   0.615   4.986   4.505  1.3962  0.9432  1.1765
 4427TIP3   OH213286   5.314   4.752   3.002 -0.3822  0.2591  0.2924
 4427TIP3    H113287   5.253   4.814   3.042  0.0911  0.5324  0.6001
 4427TIP3    H213288   5.355   4.801   2.931  0.3779  0.4772  0.8686
 4428TIP3   OH213289   6.180   0.975   0.920  0.3418 -0.0631  0.0380
 4428TIP3    H113290   6.219   1.050   0.876 -1.0561 -0.1938 -1.5479
 4428TIP3    H213291   6.101   1.011   0.962  0.2381 -0.4459  0.1715
 4429TIP3   OH213292   5.159   1.402   2.765  0.0082  0.3827 -0.6305
 4429TIP3    H113293   5.189   1.320   2.727  1.5222  0.4094  0.3964
 4429TIP3    H213294   5.191   1.470   2.705  0.2495  0.2955 -0.6042
 4430TIP3   OH213295   0.875   3.753   0.976 -0.4705  0.8763 -0.3389
 4430TIP3    H113296   0.965   3.723   0.975 -0.6403  0.2672 -2.6256
 4430TIP3    H213297   0.838   3.717   1.057  0.5388 -1.4414 -0.8365
 4431TIP3   OH213298   4.541   4.855   2.100  0.2534  0.4280 -0.2503
 4431TIP3    H113299   4.562   4.893   2.186  0.3709 -0.6443  0.2157
 4431TIP3    H213300   4.597   4.903   2.039  0.1121  1.2614  0.2561
 4432TIP3   OH213301   2.869   5.318   4.706  0.2607  0.1363  0.9570
 4432TIP3    H113302   2.817   5.393   4.677 -0.4498 -0.0641  1.6789
 4432TIP3    H213303   2.930   5.354   4.770  0.8810  0.3345  0.2659
 4433TIP3   OH213304   0.937   0.057   2.393  0.1017 -0.4391  0.2761
 4433TIP3    H113305   0.867   0.089   2.451  0.4321  0.2430  0.3049
 4433TIP3    H213306   0.903  -0.025   2.358 -0.3720 -0.5347  0.9411
 4434TIP3   OH213307   2.985   0.158   1.117  0.6200  0.1928 -0.3976
 4434TIP3    H113308   3.010   0.078   1.163  1.1691  0.3445 -0.4346
 4434TIP3    H213309   2.905   0.187   1.161  1.4149  0.6211  0.7963
 4435TIP3   OH213310   5.902   4.027   1.318  0.0168 -0.5655  0.0460
 4435TIP3    H113311   5.852   4.103   1.349 -1.5619 -0.9004 -1.5341
 4435TIP3    H213312   5.993   4.058   1.315 -0.7139  1.6910 -1.7049
 4436TIP3   OH213313   0.561   0.844   4.904  0.0280  0.0831 -0.2629
 4436TIP3    H113314   0.466   0.841   4.907  0.0486 -0.6143 -0.1473
 4436TIP3    H213315   0.584   0.930   4.941 -0.4514 -0.9881  2.8235
 4437TIP3   OH213316   5.205   0.941   3.858  0.2249 -0.5430 -0.2223
 4437TIP3    H113317   5.278   0.887   3.829  0.4191 -0.1292 -0.5041
 4437TIP3    H213318   5.150   0.950   3.780  1.3097  1.4995 -0.8064
 4438TIP3   OH213319   1.687   4.188   0.369  0.1619  0.0420 -0.2088
 4438TIP3    H113320   1.729   4.149   0.445 -1.9215 -1.4032  0.2954
 4438TIP3    H213321   1.736   4.155   0.294  1.1704  0.0858  0.4161
 4439TIP3   OH213322   1.142   5.055   4.540  0.0663 -0.5552  0.3482
 4439TIP3    H113323   1.225   5.013   4.562  0.1865 -0.5968 -0.1803
 4439TIP3    H213324   1.090   5.049   4.620  0.7357 -0.1282  0.8189
 4440TIP3   OH213325   1.368   0.930   5.005 -0.3840 -0.4665  0.3871
 4440TIP3    H113326   1.408   0.851   4.969  1.0688 -1.3657  3.5779
 4440TIP3    H213327   1.274   0.911   5.006 -0.4242 -0.6801 -1.9745
 4441TIP3   OH213328   4.968   5.306   3.936  0.0723 -0.3708  0.4005
 4441TIP3    H113329   4.971   5.260   3.852 -0.2249 -0.0166  0.1947
 4441TIP3    H213330   4.902   5.259   3.986  1.6045 -1.7909  1.1615
 4442TIP3   OH213331   0.423   4.353   3.294  0.0605  0.1721  0.3798
 4442TIP3    H113332   0.426   4.446   3.314  0.6497 -0.1075  1.6597
 4442TIP3    H213333   0.489   4.342   3.225  0.6046  0.5650  0.8298
 4443TIP3   OH213334   5.089   4.468   1.070 -0.4897  0.0962 -0.1716
 4443TIP3    H113335   5.154   4.414   1.026 -0.8864 -0.4800 -0.0542
 4443TIP3    H213336   5.048   4.410   1.133 -0.4558  0.7134  0.4300
 4444TIP3   OH213337   0.767   3.745   4.445  0.3307 -0.0017  0.1749
 4444TIP3    H113338   0.776   3.673   4.384 -0.5887 -0.5339  0.6404
 4444TIP3    H213339   0.854   3.757   4.482  0.5749 -0.6063 -0.2001
 4445TIP3   OH213340   5.653   4.868   0.703  0.1829  0.3095 -0.2244
 4445TIP3    H113341   5.654   4.783   0.747  0.8870  0.0210 -0.7674
 4445TIP3    H213342   5.742   4.901   0.714  0.6727 -0.1912 -2.1669
 4446TIP3   OH213343   4.917   2.358   3.385 -0.6864  0.7309  0.1413
 4446TIP3    H113344   4.994   2.325   3.433 -1.9797 -0.3854  1.5492
 4446TIP3    H213345   4.890   2.436   3.434 -0.2386  1.3696 -0.5996
 4447TIP3   OH213346   1.037   2.361   2.963 -0.7412 -0.0399 -0.0905
 4447TIP3    H113347   0.957   2.314   2.940 -0.6385  0.4963 -1.6820
 4447TIP3    H213348   1.007   2.440   3.007 -1.1483  0.4794 -1.2653
 4448TIP3   OH213349   5.953   3.475   0.964 -0.6998 -0.4188 -0.2081
 4448TIP3    H113350   5.879   3.417   0.977 -0.6241 -0.3358  0.6532
 4448TIP3    H213351   5.922   3.561   0.992 -0.0866 -0.5082  0.7951
 4449TIP3   OH213352   2.528   3.924   4.833 -0.7581 -0.2099  0.3288
 4449TIP3    H113353   2.481   3.982   4.893  0.1710  0.8104  0.1019
 4449TIP3    H213354   2.472   3.918   4.756 -0.8658  0.3685  0.3615
 4450TIP3   OH213355   5.868   2.966   1.505  0.0499 -0.4073 -0.1272
 4450TIP3    H113356   5.777   2.992   1.522  0.1469  0.5476 -0.9774
 4450TIP3    H213357   5.888   3.003   1.419  1.7937  0.8965  0.7677
 4451TIP3   OH213358   5.637   5.832   1.548 -0.0897  0.5977  0.6379
 4451TIP3    H113359   5.630   5.752   1.601  0.2161  0.5799  0.6572
 4451TIP3    H213360   5.605   5.902   1.604  0.8295  0.6756  1.0878
 4452TIP3   OH213361   1.035   4.935   4.947  0.2617  0.0133 -0.1638
 4452TIP3    H113362   0.958   4.990   4.965 -0.3867 -0.7236 -0.6423
 4452TIP3    H213363   1.041   4.877   5.023  0.4686  0.2071 -0.0318
 4453TIP3   OH213364   1.496   1.104   3.316 -0.3379 -0.3850  0.1788
 4453TIP3    H113365   1.580   1.088   3.359 -0.6285  0.8643  1.2819
 4453TIP3    H213366   1.451   1.167   3.373 -1.7404 -0.5000 -0.7445
 4454TIP3   OH213367   3.860   4.765   3.590 -0.4706 -0.1668 -0.1674
 4454TIP3    H113368   3.918   4.698   3.554  1.2620  0.7048  0.8534
 4454TIP3    H213369   3.817   4.721   3.664  0.9060 -0.1195  0.7094
 4455TIP3   OH213370   1.171   1.477   3.482  0.3308  0.3019  0.3285
 4455TIP3    H113371   1.138   1.390   3.458  1.6093 -0.4031  0.9944
 4455TIP3    H213372   1.156   1.483   3.576  5.4888 -1.7951  1.6480
 4456TIP3   OH213373   3.765   1.252   3.296 -0.2224 -0.2573  0.3190
 4456TIP3    H113374   3.710   1.219   3.225  0.8732  0.9658 -1.1542
 4456TIP3    H213375   3.815   1.324   3.257  1.1576 -0.1904  2.0670
 4457TIP3   OH213376   3.581   2.947   0.547 -0.2147  0.5111  0.2172
 4457TIP3    H113377   3.574   2.886   0.621 -0.9357  0.5295  0.1661
 4457TIP3    H213378   3.639   2.903   0.485  2.5855  1.5888  1.8772
 4458TIP3   OH213379   5.085   4.584   4.191 -0.1749 -0.4713 -0.2157
 4458TIP3    H113380   5.133   4.568   4.109  0.5270  0.2394  0.0392
 4458TIP3    H213381   5.003   4.624   4.164  0.2175  0.1064 -0.5518
 4459TIP3   OH213382   3.832   1.094   1.357 -0.4691 -0.3201  0.2479
 4459TIP3    H113383   3.847   1.080   1.264 -1.7786 -0.1954 -0.0028
 4459TIP3    H213384   3.884   1.026   1.400  1.1168  0.3710 -0.4840
 4460TIP3   OH213385   6.038   2.752   0.731 -0.7467  0.0288  1.1103
 4460TIP3    H113386   6.008   2.785   0.647 -0.9806 -2.1649  0.2769
 4460TIP3    H213387   5.973   2.688   0.757  1.0187 -1.8136  1.2616
 4461TIP3   OH213388   0.438   4.470   2.819  0.6312 -0.4459  0.5991
 4461TIP3    H113389   0.506   4.518   2.771  0.0211  0.9196  1.0613
 4461TIP3    H213390   0.359   4.523   2.808 -0.2401 -1.7372  0.5200
 4462TIP3   OH213391   3.143   0.721   4.615  0.4252 -0.2043  0.0068
 4462TIP3    H113392   3.171   0.811   4.625  1.2499 -0.3627 -0.7693
 4462TIP3    H213393   3.084   0.723   4.539 -0.3120 -0.1633  0.5727
 4463TIP3   OH213394   2.418   5.474   3.060  0.4910 -0.1481 -0.1168
 4463TIP3    H113395   2.434   5.466   3.154 -1.1353 -0.5215  0.1519
 4463TIP3    H213396   2.352   5.408   3.041 -2.0454  2.3803 -0.7497
 4464TIP3   OH213397   1.705   3.395   3.792  0.3105 -0.3642  0.6308
 4464TIP3    H113398   1.695   3.302   3.815  0.0561 -0.2092  1.1488
 4464TIP3    H213399   1.798   3.413   3.805  0.8064 -1.0627 -1.4408
 4465TIP3   OH213400   6.231   2.292   3.123 -0.8078  0.5199  0.0478
 4465TIP3    H113401   6.168   2.349   3.078 -0.2235  0.9746 -0.2098
 4465TIP3    H213402   6.306   2.348   3.140  1.3347 -0.9548 -3.4474
 4466TIP3   OH213403   0.159   2.183   2.818 -0.2954 -0.0508  0.2073
 4466TIP3    H113404   0.126   2.169   2.907 -2.1043 -0.9328 -0.5469
 4466TIP3    H213405   0.155   2.096   2.777  0.8632  0.2733 -0.6245
 4467TIP3   OH213406   0.770   0.769   3.092 -0.1509  0.1358 -0.1473
 4467TIP3    H113407   0.838   0.826   3.056 -0.0026 -0.7435 -1.2944
 4467TIP3    H213408   0.809   0.682   3.092 -1.1510 -0.3298 -0.5229
 4468TIP3   OH213409   6.300   1.284   0.815  0.2113  0.4133 -0.1121
 4468TIP3    H113410   6.340   1.283   0.729 -0.9365  0.5639 -0.6696
 4468TIP3    H213411   6.366   1.246   0.873  1.8569  2.2945 -0.6538
 4469TIP3   OH213412   4.205   1.260   1.160  0.1605  0.1952 -0.0270
 4469TIP3    H113413   4.178   1.343   1.200 -0.6254  0.2728 -0.6744
 4469TIP3    H213414   4.133   1.238   1.101  0.5623 -0.7299 -0.1908
 4470TIP3   OH213415   6.169   2.210   2.246 -0.2010  0.6017 -0.1646
 4470TIP3    H113416   6.166   2.255   2.162  1.2724  2.9147  0.8881
 4470TIP3    H213417   6.239   2.255   2.294 -0.8913 -0.7109  2.2431
 4471TIP3   OH213418   3.194   2.670   2.661 -0.1970 -0.0819 -0.3800
 4471TIP3    H113419   3.146   2.589   2.643  0.6790 -0.5688 -0.5755
 4471TIP3    H213420   3.283   2.652   2.632  0.2534  0.5990  0.5311
 4472TIP3   OH213421   4.983   2.196   4.265 -0.2607  0.2663  0.0878
 4472TIP3    H113422   4.897   2.153   4.262  0.4767 -1.4470  1.5706
 4472TIP3    H213423   5.007   2.206   4.173 -1.2372 -0.9464 -0.3381
 4473TIP3   OH213424   1.135   5.864   2.761  0.3589  0.4318  0.0862
 4473TIP3    H113425   1.091   5.884   2.678  1.3568  1.4178 -0.2280
 4473TIP3    H213426   1.094   5.782   2.790 -0.4294  0.3817 -1.0698
 4474TIP3   OH213427   5.566   5.073   4.631  0.2857 -0.1034 -0.3243
 4474TIP3    H113428   5.657   5.100   4.645 -0.3801  1.9921  0.3225
 4474TIP3    H213429   5.528   5.070   4.719 -0.5325  0.0441 -0.6640
 4475TIP3   OH213430   3.687   4.806   4.211 -0.3449  0.3091  0.0313
 4475TIP3    H113431   3.764   4.760   4.244  0.9593  1.3261 -1.3970
 4475TIP3    H213432   3.663   4.866   4.281  0.9292  0.8121  0.0718
 4476TIP3   OH213433   3.834   2.331   1.030  0.6379 -0.1408 -0.2156
 4476TIP3    H113434   3.877   2.253   1.068  0.3558  0.5136  1.5583
 4476TIP3    H213435   3.742   2.321   1.055  0.8661  1.5335  1.5090
 4477TIP3   OH213436   1.196   0.152   2.751  0.0860  0.3681  0.2198
 4477TIP3    H113437   1.113   0.109   2.773  0.0292  0.0333 -0.6043
 4477TIP3    H213438   1.261   0.081   2.752  0.0852  0.3518 -0.6362
 4478TIP3   OH213439   5.477   4.825   2.325  0.6169 -0.1797 -0.4347
 4478TIP3    H113440   5.478   4.920   2.312  0.0072 -0.0669  0.2613
 4478TIP3    H213441   5.562   4.806   2.364  0.9362  0.0086 -1.0309
 4479TIP3   OH213442   4.430   0.100   3.660 -0.2072  0.1669  0.8823
 4479TIP3    H113443   4.511   0.073   3.704  0.1814  3.0851  2.1732
 4479TIP3    H213444   4.371   0.124   3.731 -1.2080  0.7278 -0.1076
 4480TIP3   OH213445   2.754   3.759   4.953  0.0794  0.1842 -0.1316
 4480TIP3    H113446   2.835   3.795   4.917 -0.4334  1.1257 -0.3738
 4480TIP3    H213447   2.685   3.817   4.921 -0.7891 -1.0206 -0.5457
 4481TIP3   OH213448   5.234   4.371   2.146 -0.2788 -0.1973 -0.3144
 4481TIP3    H113449   5.307   4.327   2.103  0.2010  1.3846 -1.1791
 4481TIP3    H213450   5.267   4.458   2.169 -1.5397  0.1513  0.2924
 4482TIP3   OH213451   3.789   5.063   3.155  0.2601  0.0719  0.1975
 4482TIP3    H113452   3.700   5.093   3.172 -0.2214 -1.4971  0.5953
 4482TIP3    H213453   3.802   4.989   3.215  1.9531  0.4591  0.3786
 4483TIP3   OH213454   5.166   2.337   3.727 -0.0982  0.4353 -0.1531
 4483TIP3    H113455   5.080   2.296   3.733  0.4758 -0.8722 -0.4540
 4483TIP3    H213456   5.223   2.281   3.780  0.7040  0.8836 -0.5149
 4484TIP3   OH213457   4.021   5.987   3.028 -0.5173 -0.3812 -0.2683
 4484TIP3    H113458   3.951   5.938   2.985 -1.1313  0.3767 -0.1309
 4484TIP3    H213459   4.085   6.002   2.958 -0.5481 -0.9527 -0.4243
 4485TIP3   OH213460   1.357   5.338   1.752  0.4531  0.1773  0.1180
 4485TIP3    H113461   1.418   5.303   1.688 -0.5961 -0.0588 -0.7820
 4485TIP3    H213462   1.270   5.319   1.716 -0.1625  1.9301  0.5615
 4486TIP3   OH213463   1.065   5.648   4.231 -0.2818  0.0629 -0.2779
 4486TIP3    H113464   1.146   5.694   4.254 -0.3020 -0.3546  0.6647
 4486TIP3    H213465   1.035   5.691   4.151  0.1127  1.1633  0.1493
 4487TIP3   OH213466   3.061   4.661   2.538 -0.2743 -0.2620  0.1314
 4487TIP3    H113467   3.029   4.648   2.628 -0.1314 -1.5155  0.0139
 4487TIP3    H213468   3.117   4.585   2.521  2.0985  1.3853  0.0100
 4488TIP3   OH213469   2.317   5.257   0.342 -0.3332  0.6500  0.0104
 4488TIP3    H113470   2.309   5.331   0.281 -1.0310 -0.4112 -1.2166
 4488TIP3    H213471   2.237   5.260   0.394 -1.0177 -0.0434 -0.9760
 4489TIP3   OH213472   1.632   4.645   3.372 -0.2010 -0.6579 -0.2239
 4489TIP3    H113473   1.710   4.611   3.331  0.7698  0.3486  0.7115
 4489TIP3    H213474   1.648   4.636   3.466 -0.7493  0.4849 -0.0002
 4490TIP3   OH213475   0.967   2.530   0.975 -0.3452 -0.1016  0.0303
 4490TIP3    H113476   0.878   2.537   1.009 -0.6898 -2.9617 -0.0335
 4490TIP3    H213477   1.017   2.489   1.045  0.1931 -1.2421 -0.9778
 4491TIP3   OH213478   4.942   1.757   0.606  0.1817 -0.5538 -0.2143
 4491TIP3    H113479   5.016   1.800   0.648  0.6459 -1.8550  0.3409
 4491TIP3    H213480   4.981   1.704   0.537 -0.3247 -0.5548 -0.5087
 4492TIP3   OH213481   4.091   5.990   1.974  0.4029  0.0511  0.6140
 4492TIP3    H113482   4.061   5.901   1.955  1.4833 -0.5454  1.5964
 4492TIP3    H213483   4.072   6.039   1.894 -1.4762 -0.7135  0.5519
 4493TIP3   OH213484   6.160   1.046   1.513  0.5847 -0.3453  0.3818
 4493TIP3    H113485   6.248   1.077   1.536  0.9605 -1.3304  0.2969
 4493TIP3    H213486   6.138   1.093   1.432  0.7418  0.4200  0.7749
 4494TIP3   OH213487   6.233   5.803   4.647 -0.1080  0.3893 -0.2621
 4494TIP3    H113488   6.281   5.722   4.665 -2.6517 -0.8180  1.7508
 4494TIP3    H213489   6.296   5.873   4.665  2.2197 -1.0578 -2.2256
 4495TIP3   OH213490   5.316   4.915   4.528  0.0491 -0.2791 -0.3736
 4495TIP3    H113491   5.359   4.900   4.444 -1.3009  0.1906 -1.1872
 4495TIP3    H213492   5.279   4.829   4.550 -1.6927  0.1121 -1.5339
 4496TIP3   OH213493   1.186   2.766   0.927  0.5091 -0.1815  0.9858
 4496TIP3    H113494   1.155   2.675   0.931  0.1429 -0.0500  1.2604
 4496TIP3    H213495   1.281   2.759   0.926  0.4998 -0.6277 -0.4112
 4497TIP3   OH213496   3.994   1.918   2.285  0.3803 -0.1879  0.6848
 4497TIP3    H113497   3.985   1.888   2.195  1.7755  0.1056  0.4234
 4497TIP3    H213498   4.089   1.927   2.298  0.2086 -0.2515  2.1879
 4498TIP3   OH213499   1.064   2.918   4.904 -0.4734  0.0247 -0.1441
 4498TIP3    H113500   1.016   2.844   4.942 -2.5868  0.4374 -1.8543
 4498TIP3    H213501   1.009   2.948   4.832  1.4539  1.8225 -0.9611
 4499TIP3   OH213502   4.934   1.330   3.017 -0.5576 -0.1613 -0.0226
 4499TIP3    H113503   5.004   1.391   2.995 -0.1140 -0.4549  0.5325
 4499TIP3    H213504   4.860   1.358   2.964  0.1059 -0.1196 -0.9548
 4500TIP3   OH213505   0.803   4.151   3.489 -0.0477 -0.3502 -0.2196
 4500TIP3    H113506   0.804   4.162   3.394 -0.1883  3.5121  0.0873
 4500TIP3    H213507   0.889   4.113   3.509  1.7695  2.6321 -1.6808
 4501TIP3   OH213508   5.389   2.872   1.726 -0.1372 -0.3405 -0.1489
 4501TIP3    H113509   5.326   2.807   1.695 -2.2943  0.6115  1.9084
 4501TIP3    H213510   5.391   2.939   1.657 -1.0864 -0.5946 -0.4354
 4502TIP3   OH213511   0.817   5.100   3.762 -0.2500 -0.3749  0.2206
 4502TIP3    H113512   0.775   5.023   3.800 -1.9901  0.7286  0.6488
 4502TIP3    H213513   0.884   5.125   3.827  0.3041 -1.4622  0.0923
 4503TIP3   OH213514   5.125   0.919   3.274 -0.0895  0.0740  0.5866
 4503TIP3    H113515   5.114   1.011   3.247 -0.8447  0.1315  1.0758
 4503TIP3    H213516   5.181   0.923   3.352  2.2169 -0.1018 -0.9381
 4504TIP3   OH213517   0.616   0.175   4.393 -0.4319 -0.3889  0.4220
 4504TIP3    H113518   0.687   0.152   4.334 -1.0608 -0.1903 -0.4261
 4504TIP3    H213519   0.594   0.265   4.370 -1.6260 -0.7799 -0.0222
 4505TIP3   OH213520   3.652   1.954   1.325  0.8366  0.4799 -0.1065
 4505TIP3    H113521   3.635   1.900   1.248 -0.3008 -0.2678  0.6268
 4505TIP3    H213522   3.747   1.954   1.334  0.9226 -0.2985 -0.8989
 4506TIP3   OH213523   2.532   0.840   5.054  0.2178 -0.0995 -0.0291
 4506TIP3    H113524   2.458   0.863   5.111  0.6124  1.1965 -0.0159
 4506TIP3    H213525   2.580   0.774   5.104 -0.8181 -0.8451  0.0337
 4507TIP3   OH213526   0.938   2.922   3.935  0.7196 -0.1024 -0.8766
 4507TIP3    H113527   0.879   2.846   3.934 -0.6499  0.9078 -1.5074
 4507TIP3    H213528   1.015   2.893   3.983 -0.8460 -1.1103  1.2225
 4508TIP3   OH213529   4.577   4.606   3.736 -0.4034  0.4298 -0.8292
 4508TIP3    H113530   4.490   4.639   3.757 -0.6596 -0.4058 -0.5528
 4508TIP3    H213531   4.619   4.677   3.688 -0.6462  1.4706  0.4546
 4509TIP3   OH213532   1.208   1.013   2.894  0.0180 -0.1208  0.8962
 4509TIP3    H113533   1.277   1.024   2.959  0.9861 -0.0474 -0.1186
 4509TIP3    H213534   1.196   1.100   2.856 -0.3300 -0.2250  0.7634
 4510TIP3   OH213535   2.008   5.830   3.797 -0.4160 -0.2777  0.5868
 4510TIP3    H113536   1.918   5.796   3.803 -0.3587 -0.5222  0.0436
 4510TIP3    H213537   1.999   5.923   3.820 -0.9727 -0.0498 -0.4823
 4511TIP3   OH213538   0.757   5.257   4.529  0.3775  0.3948 -0.2742
 4511TIP3    H113539   0.808   5.235   4.451 -0.2780 -2.2597 -0.0416
 4511TIP3    H213540   0.821   5.286   4.593  1.2185  0.0380 -0.9404
 4512TIP3   OH213541   0.261   2.533   2.449  0.0535 -0.2805 -0.1532
 4512TIP3    H113542   0.222   2.455   2.487  1.0414 -0.6987  0.0348
 4512TIP3    H213543   0.200   2.560   2.381  0.1638 -1.7895 -0.8940
 4513TIP3   OH213544   0.048   2.322   1.552 -0.3038  0.5247 -0.4094
 4513TIP3    H113545   0.007   2.256   1.608 -0.4422  1.2135  0.3163
 4513TIP3    H213546  -0.023   2.356   1.498  0.1578 -1.5372 -2.5001
 4514TIP3   OH213547   6.086   2.318   1.801  0.1752 -0.3622 -0.0618
 4514TIP3    H113548   6.148   2.327   1.873  1.1243  0.0776 -0.8992
 4514TIP3    H213549   6.006   2.359   1.832  0.7081  0.2193  0.5718
 4515TIP3   OH213550   5.445   0.211   2.356 -0.4856  0.3076  0.5471
 4515TIP3    H113551   5.391   0.182   2.283 -0.6399  2.1437 -0.1247
 4515TIP3    H213552   5.413   0.161   2.431 -2.0503  0.2128 -0.1412
 4516TIP3   OH213553   3.944   4.172   1.175  0.2296 -0.2587  0.4765
 4516TIP3    H113554   4.020   4.131   1.217  0.7661 -0.0798 -0.3047
 4516TIP3    H213555   3.894   4.208   1.248  0.4099 -1.1831  1.0717
 4517TIP3   OH213556   1.159   3.745   2.882 -0.3406 -0.3651 -0.4186
 4517TIP3    H113557   1.073   3.756   2.842 -1.0108 -0.6473  0.8760
 4517TIP3    H213558   1.157   3.658   2.921 -0.5009  0.5702  1.8748
 4518TIP3   OH213559   0.864   5.113   1.843 -0.0158 -0.6555 -0.3885
 4518TIP3    H113560   0.795   5.055   1.874  0.2280 -1.2227 -0.8905
 4518TIP3    H213561   0.849   5.120   1.749 -0.3555  0.5199 -0.2708
 4519TIP3   OH213562   5.306   3.487   0.718  0.2637 -0.1054  0.3433
 4519TIP3    H113563   5.251   3.417   0.683  1.8013 -1.2697  0.1532
 4519TIP3    H213564   5.262   3.514   0.799 -0.5009 -1.1320  0.2855
 4520TIP3   OH213565   5.679   2.265   1.459  0.0426  0.1536  0.4238
 4520TIP3    H113566   5.606   2.226   1.411  1.4957 -1.0258 -0.8987
 4520TIP3    H213567   5.640   2.342   1.501 -2.7540 -2.1505  2.5074
 4521TIP3   OH213568   2.032   1.441   2.983  0.2239 -0.4629 -0.8094
 4521TIP3    H113569   2.087   1.476   3.053 -1.1965  0.0308  0.1029
 4521TIP3    H213570   2.067   1.480   2.902  1.2340 -0.2108 -0.2581
 4522TIP3   OH213571   4.086   4.817   2.179 -0.1683 -0.5713  0.7494
 4522TIP3    H113572   4.129   4.776   2.255  1.0185 -1.0651 -0.1527
 4522TIP3    H213573   4.117   4.767   2.104 -0.4895  0.5642 -0.1748
 4523TIP3   OH213574   1.939   3.538   3.869 -0.2666 -0.2786 -0.3462
 4523TIP3    H113575   1.910   3.626   3.895 -2.0936 -1.2014  1.0211
 4523TIP3    H213576   2.006   3.515   3.933 -0.4340 -0.2072 -0.1417
 4524TIP3   OH213577   1.673   1.161   1.581 -0.5384  0.1845 -0.0182
 4524TIP3    H113578   1.641   1.198   1.663  0.3601  0.6387  0.1431
 4524TIP3    H213579   1.597   1.163   1.522 -1.2812 -0.4776  0.8931
 4525TIP3   OH213580   4.510   1.364   2.176 -0.6394  0.3808  0.3059
 4525TIP3    H113581   4.563   1.440   2.201 -1.7265  0.8516  1.2922
 4525TIP3    H213582   4.522   1.356   2.082 -0.7994  2.0260  0.1226
 4526TIP3   OH213583   0.474   3.591   4.733 -0.6112  0.6882  0.1210
 4526TIP3    H113584   0.435   3.504   4.726  2.6340 -0.9630  0.6179
 4526TIP3    H213585   0.497   3.615   4.643 -0.5781  0.5411  0.0897
 4527TIP3   OH213586   3.001   0.110   0.072 -0.4655  0.7800 -0.2029
 4527TIP3    H113587   2.978   0.177   0.137  1.1966  0.9014  0.3052
 4527TIP3    H213588   3.093   0.129   0.050 -0.2536 -0.7675 -0.7421
 4528TIP3   OH213589   2.579   0.062   1.747  0.2729  0.0085 -0.5162
 4528TIP3    H113590   2.541  -0.019   1.780 -0.9437  0.3663 -0.9696
 4528TIP3    H213591   2.564   0.058   1.652  1.2308  0.2404 -0.6826
 4529TIP3   OH213592   2.810   0.915   4.051 -0.2461 -0.0489  0.3433
 4529TIP3    H113593   2.736   0.972   4.073  0.2660  0.6376  0.3268
 4529TIP3    H213594   2.851   0.895   4.135 -0.0624  0.1158  0.2940
 4530TIP3   OH213595   3.814   3.075   3.116 -0.6543  0.5254  0.1105
 4530TIP3    H113596   3.764   3.071   3.197 -1.7838 -2.0566 -0.5964
 4530TIP3    H213597   3.749   3.096   3.049 -0.1382  0.4866 -0.4114
 4531TIP3   OH213598   1.144   3.037   1.059  0.4952 -0.5969  0.2122
 4531TIP3    H113599   1.133   3.058   0.966 -0.4625  0.6259  0.5718
 4531TIP3    H213600   1.199   2.959   1.059 -0.7788 -1.5830 -1.4544
 4532TIP3   OH213601   0.045   2.890   3.045 -0.0122 -0.0608  0.2132
 4532TIP3    H113602  -0.027   2.826   3.044  0.3901 -0.5188 -0.7148
 4532TIP3    H213603   0.060   2.910   2.953  1.8655 -0.9318  0.2950
 4533TIP3   OH213604   6.292   4.882   3.907  0.6455  0.1853  0.4206
 4533TIP3    H113605   6.363   4.831   3.869  2.0931  0.5625  2.4904
 4533TIP3    H213606   6.223   4.880   3.840  1.9537 -1.5551 -0.9688
 4534TIP3   OH213607   0.607   4.674   4.923 -0.0207  0.5456 -0.3452
 4534TIP3    H113608   0.700   4.664   4.900 -0.2654  2.2084 -2.4140
 4534TIP3    H213609   0.608   4.729   5.001  0.7460 -0.1427  0.1442
 4535TIP3   OH213610   0.486   4.342   0.576  0.2556 -0.1386  0.4208
 4535TIP3    H113611   0.579   4.334   0.597  0.2779 -2.8810 -0.2599
 4535TIP3    H213612   0.441   4.340   0.661  0.7890  1.0807  0.7423
 4536TIP3   OH213613   1.709   5.799   3.376 -0.4584  0.4978 -0.1843
 4536TIP3    H113614   1.742   5.709   3.372  0.3305  0.7910 -0.4988
 4536TIP3    H213615   1.614   5.790   3.367 -0.6378 -0.4658  2.0710
 4537TIP3   OH213616   6.290   1.005   4.021 -0.4058  0.1998 -0.5258
 4537TIP3    H113617   6.368   0.970   3.976 -0.4344  0.7895 -1.0320
 4537TIP3    H213618   6.222   0.941   4.002 -0.0578 -0.3101 -0.1029
 4538TIP3   OH213619   4.672   3.480   0.948 -0.6571  0.0699 -0.6234
 4538TIP3    H113620   4.605   3.453   1.011  1.8229 -0.6607  1.8834
 4538TIP3    H213621   4.683   3.403   0.892 -0.0445 -0.8704  0.7177
 4539TIP3   OH213622   3.213   4.664   0.422 -0.5745  0.5257 -0.1899
 4539TIP3    H113623   3.259   4.717   0.487  0.1594  1.9396 -1.7854
 4539TIP3    H213624   3.281   4.610   0.381 -0.7984  0.6097 -0.6851
 4540TIP3   OH213625   6.342   1.630   4.063  0.0639 -0.0720  0.1660
 4540TIP3    H113626   6.325   1.537   4.052 -2.1817  0.1675  1.1920
 4540TIP3    H213627   6.308   1.670   3.983 -2.1774  0.1641  1.1844
 4541TIP3   OH213628   1.337   0.759   0.244  0.0722 -0.5904  0.1189
 4541TIP3    H113629   1.396   0.686   0.261 -0.6149 -1.4152 -0.9140
 4541TIP3    H213630   1.274   0.756   0.316  0.2018 -0.8507  0.2243
 4542TIP3   OH213631   5.744   0.426   4.445  0.0681 -0.3147 -0.7775
 4542TIP3    H113632   5.703   0.389   4.367  2.4440 -3.0211 -0.8826
 4542TIP3    H213633   5.834   0.393   4.444  0.7274  1.0115  2.1989
 4543TIP3   OH213634  -0.003   1.443   2.820 -0.0885 -0.0565 -0.5943
 4543TIP3    H113635  -0.059   1.367   2.837  0.3426  0.1676  2.3933
 4543TIP3    H213636   0.077   1.406   2.784 -0.8905 -0.7163 -1.7550
 4544TIP3   OH213637   1.260   3.065   3.192  0.2165 -0.4472 -0.0080
 4544TIP3    H113638   1.304   2.980   3.196 -1.5128 -1.3557  1.4142
 4544TIP3    H213639   1.212   3.063   3.109  1.0462 -0.3828 -0.4982
 4545TIP3   OH213640   5.472   0.994   0.707 -0.0471  0.1488  0.1622
 4545TIP3    H113641   5.386   0.987   0.667 -0.1228 -0.8581  0.4506
 4545TIP3    H213642   5.511   1.072   0.669 -2.4486  2.7958  2.6743
 4546TIP3   OH213643   4.265   4.604   4.971 -0.0645  0.0956 -0.0683
 4546TIP3    H113644   4.330   4.593   4.901  0.1869 -0.5991  0.2567
 4546TIP3    H213645   4.302   4.555   5.045 -0.7641  0.0416  0.2509
 4547TIP3   OH213646   4.635   4.311   2.421  0.2838  0.0422  0.1575
 4547TIP3    H113647   4.669   4.363   2.493 -0.1022 -0.3982  0.6688
 4547TIP3    H213648   4.541   4.330   2.418  0.4810  0.9258 -0.9705
 4548TIP3   OH213649   1.496   1.893   0.915 -0.4967 -0.1858  0.3231
 4548TIP3    H113650   1.580   1.929   0.886 -1.0109  0.0479 -0.9302
 4548TIP3    H213651   1.515   1.801   0.934 -0.3381 -0.6489 -1.8352
 4549TIP3   OH213652   4.653   2.768   1.165  0.8012  0.9028  0.3079
 4549TIP3    H113653   4.655   2.796   1.073  2.5883  0.5722  0.2202
 4549TIP3    H213654   4.684   2.678   1.163  0.5439  0.7887  1.2133
 4550TIP3   OH213655   4.211   0.157   2.294  0.3128 -0.4707 -0.0723
 4550TIP3    H113656   4.281   0.206   2.250  0.3171 -0.2376  0.1930
 4550TIP3    H213657   4.135   0.214   2.290  0.4308 -0.2482  0.6219
 4551TIP3   OH213658   0.583   4.545   3.602  0.1537  0.6223 -0.1639
 4551TIP3    H113659   0.625   4.606   3.663 -1.9754  0.6381  1.3938
 4551TIP3    H213660   0.626   4.461   3.620 -0.5171  0.5931  1.5242
 4552TIP3   OH213661   2.266   1.322   3.156  0.4722 -0.6358  0.3073
 4552TIP3    H113662   2.315   1.376   3.217 -2.2688  2.8935 -0.3142
 4552TIP3    H213663   2.301   1.345   3.070 -2.7807  3.0679 -0.3038
 4553TIP3   OH213664   5.128   5.085   2.224 -0.0192  0.1998  0.6119
 4553TIP3    H113665   5.160   5.041   2.303  1.9521  0.2550 -0.0971
 4553TIP3    H213666   5.206   5.098   2.171 -0.7388  3.1602  0.1026
 4554TIP3   OH213667   1.777   4.744   4.519 -0.0407  0.2019  0.1204
 4554TIP3    H113668   1.771   4.796   4.439 -1.5023 -0.1082  0.0107
 4554TIP3    H213669   1.770   4.808   4.590  1.3353  0.4869  0.0399
 4555TIP3   OH213670   1.298   0.263   4.454  0.9479 -0.3498  0.2383
 4555TIP3    H113671   1.333   0.310   4.530 -0.4036 -0.5015  0.9791
 4555TIP3    H213672   1.353   0.292   4.381 -0.2694  2.9731  0.4874
 4556TIP3   OH213673   0.031   4.087   4.620 -1.0849  0.5077  0.3426
 4556TIP3    H113674  -0.061   4.083   4.645 -1.4479  0.5041 -0.9441
 4556TIP3    H213675   0.032   4.062   4.528  0.2640  0.0275  0.4708
 4557TIP3   OH213676   0.153   2.764   5.164  0.6323  0.1451 -0.5715
 4557TIP3    H113677   0.086   2.708   5.204  0.4548  0.6183 -0.2009
 4557TIP3    H213678   0.114   2.851   5.161  1.2631  0.4522 -0.2428
 4558TIP3   OH213679   3.708   4.109   2.514  0.0058 -0.4863  0.5019
 4558TIP3    H113680   3.735   4.021   2.485 -2.0570 -1.5479  1.5441
 4558TIP3    H213681   3.686   4.097   2.607 -0.8459  0.9942  0.5133
 4559TIP3   OH213682   5.012   3.772   0.272  0.2204  0.0850  0.0518
 4559TIP3    H113683   4.965   3.753   0.353  0.7974  1.7574  0.8329
 4559TIP3    H213684   5.045   3.861   0.284  0.1647  0.4649 -2.1013
 4560TIP3   OH213685   0.056   0.109   3.647  0.0396  0.2700 -0.2806
 4560TIP3    H113686  -0.030   0.068   3.636  0.2048 -0.4115  0.7479
 4560TIP3    H213687   0.116   0.054   3.596 -0.0410  0.3519 -0.4602
 4561TIP3   OH213688   6.254   1.177   2.799  0.3600  0.3710  0.3751
 4561TIP3    H113689   6.252   1.141   2.888 -1.7060  1.9988  1.0626
 4561TIP3    H213690   6.339   1.149   2.765 -0.1379 -3.1614  1.5848
 4562TIP3   OH213691   4.452   2.326   4.116  0.4886  0.5063  0.0135
 4562TIP3    H113692   4.403   2.312   4.034 -1.1419 -0.7363  1.1144
 4562TIP3    H213693   4.521   2.259   4.114  0.2261  0.2357 -0.1974
 4563TIP3   OH213694   1.513   3.805   3.483  0.2118 -0.2901  0.2230
 4563TIP3    H113695   1.585   3.801   3.420 -0.6502  1.2106 -0.9070
 4563TIP3    H213696   1.467   3.886   3.462 -1.1072 -0.6142  1.7040
 4564TIP3   OH213697   4.643   2.917   4.191  0.1448  0.4906  0.5822
 4564TIP3    H113698   4.667   2.844   4.248 -0.0686 -0.3768 -0.3922
 4564TIP3    H213699   4.696   2.904   4.112 -3.1229 -1.3701 -1.5633
 4565TIP3   OH213700   4.117   2.222   4.065  0.6453  0.6858 -0.0181
 4565TIP3    H113701   4.070   2.153   4.018 -0.9322  1.4466  0.3757
 4565TIP3    H213702   4.187   2.249   4.005  1.6736 -1.5852  0.0309
 4566TIP3   OH213703   0.580   5.918   2.834  0.6456  0.1341  0.4002
 4566TIP3    H113704   0.636   5.843   2.858 -0.4650 -0.5294  0.9927
 4566TIP3    H213705   0.510   5.917   2.899  0.1443  1.1868 -0.1087
 4567TIP3   OH213706   0.100   2.382   2.624 -0.0161 -0.1956 -0.2813
 4567TIP3    H113707   0.112   2.311   2.688  0.0735 -1.5159 -1.6833
 4567TIP3    H213708   0.079   2.459   2.676  1.1800 -0.9488  1.4002
 4568TIP3   OH213709   0.526   5.837   4.554 -0.4849  0.7813  0.4923
 4568TIP3    H113710   0.434   5.826   4.530 -0.2354  0.3549 -0.3072
 4568TIP3    H213711   0.555   5.912   4.502 -0.0721  0.1728 -0.1651
 4569TIP3   OH213712   2.832   5.052   0.666  0.1760  0.0365  0.4680
 4569TIP3    H113713   2.914   5.011   0.637 -0.2185 -0.0523 -0.5826
 4569TIP3    H213714   2.769   4.980   0.670 -0.1013  0.2637  0.2638
 4570TIP3   OH213715   3.316   4.476   3.834  0.0136 -0.8508 -0.4327
 4570TIP3    H113716   3.358   4.561   3.826 -0.5941 -0.5447 -0.4551
 4570TIP3    H213717   3.267   4.481   3.916  1.0487 -1.6656  0.2615
 4571TIP3   OH213718   5.596   2.108   2.566 -0.1772  0.0327 -0.4167
 4571TIP3    H113719   5.684   2.144   2.578 -0.7975  1.5109 -0.1365
 4571TIP3    H213720   5.560   2.100   2.654 -1.4307  2.3938 -0.6400
 4572TIP3   OH213721   3.257   5.462   2.672  0.3576 -0.2734  0.1777
 4572TIP3    H113722   3.324   5.403   2.705 -0.7719 -1.5768  0.2352
 4572TIP3    H213723   3.284   5.480   2.582  0.4103 -1.4026 -0.0532
 4573TIP3   OH213724   4.403   4.718   1.882  0.5770 -0.1804  0.0763
 4573TIP3    H113725   4.468   4.663   1.838  0.0552 -0.3854 -0.4538
 4573TIP3    H213726   4.453   4.765   1.949  1.0061 -1.4269  0.6681
 4574TIP3   OH213727   5.554   0.630   0.491 -0.2876  0.2014  0.1549
 4574TIP3    H113728   5.549   0.612   0.397 -0.6311 -0.4500  0.2930
 4574TIP3    H213729   5.505   0.559   0.532 -0.0892  0.4459  0.8340
 4575TIP3   OH213730   2.679   0.607   4.176  0.2222 -0.2464 -0.1600
 4575TIP3    H113731   2.704   0.519   4.147 -1.0922 -0.2612 -1.3554
 4575TIP3    H213732   2.615   0.636   4.112 -1.1079  0.6726  1.4913
 4576TIP3   OH213733   4.123   3.071   1.341  0.1160  0.1635 -0.4149
 4576TIP3    H113734   4.168   3.136   1.395 -1.4263  1.5425 -0.7279
 4576TIP3    H213735   4.047   3.045   1.394  1.6012 -2.7920  0.4976
 4577TIP3   OH213736   3.733   2.157   2.182 -0.5694 -0.3756 -0.3170
 4577TIP3    H113737   3.681   2.081   2.156  0.7825 -1.4720  0.0775
 4577TIP3    H213738   3.736   2.154   2.277  0.4488 -0.4996 -0.3416
 4578TIP3   OH213739   1.822   5.926   1.328  0.8561  0.0383  0.1251
 4578TIP3    H113740   1.813   5.974   1.410  0.9064  0.9850 -0.4064
 4578TIP3    H213741   1.869   5.846   1.351  0.8028  0.2623  1.0276
 4579TIP3   OH213742   5.087   1.946   4.185 -0.0465 -0.1357 -0.4961
 4579TIP3    H113743   5.045   2.008   4.244  1.0623  0.4507 -0.2976
 4579TIP3    H213744   5.180   1.961   4.196  0.2246 -1.1627 -1.1838
 4580TIP3   OH213745   0.551   2.544   4.012 -0.5815  0.3816  0.0126
 4580TIP3    H113746   0.615   2.535   4.083 -0.8945 -0.8569  0.1718
 4580TIP3    H213747   0.486   2.476   4.031 -2.5762  2.3257  0.4765
 4581TIP3   OH213748   1.871   0.060   4.498  0.6951  0.3350 -0.3748
 4581TIP3    H113749   1.907   0.071   4.586 -1.0697  0.7171  0.3600
 4581TIP3    H213750   1.820   0.140   4.484 -1.0737 -0.7932 -0.6972
 4582TIP3   OH213751   0.138   2.313   4.194  0.2754  0.1293 -0.1113
 4582TIP3    H113752   0.103   2.226   4.215  1.0497 -0.2705 -0.4735
 4582TIP3    H213753   0.140   2.359   4.279  0.0546 -0.2673  0.1117
 4583TIP3   OH213754   4.037   5.893   0.014  0.0671 -0.2286  0.2002
 4583TIP3    H113755   4.067   5.825   0.075 -0.6007 -1.5262 -0.8742
 4583TIP3    H213756   4.031   5.972   0.068  0.3746 -1.1266  1.6067
 4584TIP3   OH213757   3.066   5.783   4.677 -0.5214  0.3514  0.0270
 4584TIP3    H113758   3.043   5.833   4.598  1.8381 -0.2622 -1.1597
 4584TIP3    H213759   3.144   5.734   4.651  0.1160 -0.1494  2.6684
 4585TIP3   OH213760   0.341   1.486   3.394 -0.1119  0.2827 -0.3612
 4585TIP3    H113761   0.326   1.396   3.366 -0.2635 -0.2621  1.3527
 4585TIP3    H213762   0.256   1.529   3.382 -0.0464  0.2096 -1.1554
 4586TIP3   OH213763   2.068   1.333   2.240 -0.8412  0.2743 -0.0113
 4586TIP3    H113764   2.008   1.259   2.251 -1.0358  0.7581  3.3152
 4586TIP3    H213765   2.011   1.409   2.227 -0.9567  0.5229  1.7198
 4587TIP3   OH213766   3.540   1.022   3.248  0.0503 -0.4243  0.0113
 4587TIP3    H113767   3.572   1.083   3.181 -0.2545  0.2680  0.4836
 4587TIP3    H213768   3.615   0.965   3.266  0.3810 -0.1123 -0.3482
 4588TIP3   OH213769   2.995   2.532   0.136 -0.0378  0.0549 -0.3786
 4588TIP3    H113770   3.036   2.615   0.112  0.2928  0.5398  1.6962
 4588TIP3    H213771   3.067   2.477   0.166 -0.3028 -0.8764 -1.3989
 4589TIP3   OH213772   3.263   0.198   0.007 -0.0744  0.1526 -0.1275
 4589TIP3    H113773   3.351   0.205   0.044 -0.5557 -1.3571  1.4708
 4589TIP3    H213774   3.220   0.280   0.033 -0.3142 -0.7504  2.6345
 4590TIP3   OH213775   5.728   0.777   4.372  0.4094 -0.2503  0.0061
 4590TIP3    H113776   5.717   0.720   4.296 -0.0610  0.0042 -0.1207
 4590TIP3    H213777   5.821   0.801   4.371  0.0377  1.3346 -1.6422
 4591TIP3   OH213778   4.233   0.851   2.658 -0.1656 -0.3021  0.0046
 4591TIP3    H113779   4.260   0.827   2.570  1.8018  0.2128  0.4090
 4591TIP3    H213780   4.202   0.941   2.651  0.6107 -0.0345 -0.0692
 4592TIP3   OH213781   4.665   3.642   4.956  0.3825 -0.1835 -0.1941
 4592TIP3    H113782   4.644   3.722   4.908  4.1485  0.6298 -0.8247
 4592TIP3    H213783   4.675   3.575   4.889  1.6021 -0.0338 -0.1955
 4593TIP3   OH213784   0.416   1.123   2.228  0.1349 -0.4634  0.3515
 4593TIP3    H113785   0.476   1.049   2.240  1.7263  0.2134 -2.6125
 4593TIP3    H213786   0.458   1.195   2.274  1.6415 -0.0281 -1.5945
 4594TIP3   OH213787   5.838   5.066   5.096  0.2564 -0.7820 -0.1415
 4594TIP3    H113788   5.790   4.984   5.110 -0.8938 -0.2296 -0.7235
 4594TIP3    H213789   5.800   5.102   5.016  0.8796  0.2357  0.0066
 4595TIP3   OH213790   1.231   1.358   0.543 -0.0038  0.2800 -0.4845
 4595TIP3    H113791   1.157   1.313   0.502  0.2794  1.2067 -2.1017
 4595TIP3    H213792   1.251   1.430   0.483  2.1953  0.0627 -0.0699
 4596TIP3   OH213793   3.799   1.982   3.213  0.7648 -0.2553 -0.4616
 4596TIP3    H113794   3.770   1.891   3.221  0.7526 -0.1263  1.9271
 4596TIP3    H213795   3.855   1.996   3.290  0.2892  1.9261 -0.4374
 4597TIP3   OH213796   3.320   4.761   1.272  0.8041  0.3731 -0.2645
 4597TIP3    H113797   3.299   4.851   1.248 -1.5376  0.4148  1.6437
 4597TIP3    H213798   3.327   4.763   1.367 -1.0477 -1.7493 -0.0137
 4598TIP3   OH213799   0.035   5.572   4.720  0.2359 -0.0334 -0.1672
 4598TIP3    H113800   0.080   5.525   4.650 -0.3474  0.7247 -1.0729
 4598TIP3    H213801   0.096   5.570   4.793  0.0332 -2.6493  0.0317
 4599TIP3   OH213802   3.639   1.484   3.403 -0.1040 -0.3258 -0.5418
 4599TIP3    H113803   3.721   1.441   3.428  0.6654  0.8622 -0.9366
 4599TIP3    H213804   3.572   1.416   3.414  0.9296 -1.3311 -0.2363
 4600TIP3   OH213805   5.982   2.974   4.173 -0.6117 -0.2394 -0.2312
 4600TIP3    H113806   5.993   3.063   4.140 -1.0413 -0.2410 -0.3787
 4600TIP3    H213807   5.959   2.984   4.265  0.1091 -0.2224 -0.0452
 4601TIP3   OH213808   1.834   0.873   4.794  0.1745  0.1242 -0.0197
 4601TIP3    H113809   1.796   0.813   4.858 -0.0311  0.6765  0.3859
 4601TIP3    H213810   1.882   0.816   4.734  0.0699 -0.4370  0.4146
 4602TIP3   OH213811   3.127   4.954   2.048  0.5164 -0.1087 -0.3592
 4602TIP3    H113812   3.048   4.966   2.100  1.2433  0.8819  0.5539
 4602TIP3    H213813   3.154   4.865   2.066  0.7314  0.2002  0.9495
 4603TIP3   OH213814   6.001   2.540   3.312  0.2143  0.2709  0.0448
 4603TIP3    H113815   5.906   2.526   3.311  0.3156 -0.4299 -0.6077
 4603TIP3    H213816   6.018   2.579   3.398 -0.8536  1.8813 -0.4063
 4604TIP3   OH213817   3.665   1.383   0.758  0.3173  0.2968  0.3341
 4604TIP3    H113818   3.662   1.437   0.837  0.9647  1.3878 -0.3727
 4604TIP3    H213819   3.758   1.368   0.742  0.2724  1.3576 -1.0615
 4605TIP3   OH213820   4.988   1.374   5.029 -0.0785 -0.3271  0.3519
 4605TIP3    H113821   5.018   1.291   5.065  0.0615 -0.7992 -0.8190
 4605TIP3    H213822   5.056   1.400   4.967 -1.0854 -0.3876 -0.8185
 4606TIP3   OH213823   0.565   1.062   1.992 -0.6559  0.0250  0.0333
 4606TIP3    H113824   0.520   1.104   2.064  1.9264  0.9449  1.2447
 4606TIP3    H213825   0.646   1.028   2.031  0.9853  0.8160 -2.4194
 4607TIP3   OH213826   5.690   0.337   0.631 -0.5054 -0.2705 -0.3199
 4607TIP3    H113827   5.725   0.253   0.660 -0.6289  0.1200  1.0456
 4607TIP3    H213828   5.661   0.380   0.712  1.6621  2.0628 -0.6477
 4608TIP3   OH213829   3.876   0.491   0.807  0.1496  0.4644 -0.2496
 4608TIP3    H113830   3.834   0.411   0.839 -1.0934  0.5897 -1.4954
 4608TIP3    H213831   3.957   0.498   0.859  0.6585 -1.9734 -0.5920
 4609TIP3   OH213832   3.161   4.459   2.817  0.1266 -0.0604 -0.1804
 4609TIP3    H113833   3.251   4.440   2.845  1.3938  2.7692 -1.8777
 4609TIP3    H213834   3.148   4.406   2.739  0.1547 -0.7611  0.2825
 4610TIP3   OH213835   1.577   0.680   2.680  0.2559  0.2190  0.0199
 4610TIP3    H113836   1.573   0.637   2.595 -2.3249  0.6802 -0.1698
 4610TIP3    H213837   1.596   0.772   2.660 -0.2714  0.3117 -0.0715
 4611TIP3   OH213838   3.342   4.889   2.284  0.8603 -0.5790  0.6807
 4611TIP3    H113839   3.359   4.983   2.285  0.7331 -0.5530  0.3928
 4611TIP3    H213840   3.424   4.849   2.314  0.7165 -0.3478  1.4067
 4612TIP3   OH213841   1.062   0.874   0.453 -0.2285 -0.5355 -0.5550
 4612TIP3    H113842   1.039   0.782   0.462 -1.0504 -0.1239  2.7083
 4612TIP3    H213843   1.004   0.920   0.514  1.6551  1.8661 -0.4005
 4613TIP3   OH213844   4.916   5.762   2.974 -0.0392 -0.8407 -0.2077
 4613TIP3    H113845   4.859   5.816   2.918 -0.3815  0.1392  1.0546
 4613TIP3    H213846   4.860   5.689   3.000 -0.2180 -0.7182 -0.2472
 4614TIP3   OH213847   1.315   4.131   4.825 -0.5725 -0.1743 -0.0432
 4614TIP3    H113848   1.286   4.199   4.764  2.8708  0.0410 -1.6804
 4614TIP3    H213849   1.346   4.179   4.901  0.9380  0.0852 -0.7901
 4615TIP3   OH213850   4.783   1.940   0.511  0.2405 -0.5786 -0.0394
 4615TIP3    H113851   4.839   1.864   0.527  0.0579 -0.2961  2.2639
 4615TIP3    H213852   4.712   1.907   0.456  1.0303 -1.6584 -0.4328
 4616TIP3   OH213853   2.655   0.084   2.083 -0.7048 -0.1008  0.2156
 4616TIP3    H113854   2.700   0.079   1.999  1.4489 -0.6466  1.3435
 4616TIP3    H213855   2.654  -0.007   2.115 -0.2110  0.2965  1.3999
 4617TIP3   OH213856   3.857   4.284   0.401 -0.0650 -0.2709 -0.5089
 4617TIP3    H113857   3.935   4.242   0.436  0.3883  0.4773 -0.6019
 4617TIP3    H213858   3.829   4.227   0.329  0.7410 -0.2373 -0.8547
 4618TIP3   OH213859   2.773   2.627   0.294 -0.3291  0.3120 -0.1191
 4618TIP3    H113860   2.839   2.638   0.363 -0.2912  1.7657 -0.3460
 4618TIP3    H213861   2.824   2.606   0.215 -0.2163  0.5079 -0.0983
 4619TIP3   OH213862   4.460   4.958   3.960 -0.3314  0.8099 -0.3109
 4619TIP3    H113863   4.494   5.027   3.903  1.2914  0.7145  0.4885
 4619TIP3    H213864   4.527   4.947   4.027 -1.8527  0.4258  1.2291
 4620TIP3   OH213865   3.073   0.091   4.029 -0.3774  0.0318  0.1411
 4620TIP3    H113866   3.078   0.147   3.952 -2.2899 -0.9989 -0.7917
 4620TIP3    H213867   3.162   0.057   4.040 -0.4133 -1.2644 -2.7517
 4621TIP3   OH213868   2.382   3.264   3.699  0.1224 -0.7960 -0.4239
 4621TIP3    H113869   2.350   3.318   3.627 -0.1389 -1.4085 -0.7713
 4621TIP3    H213870   2.473   3.244   3.677  0.7919  0.9316  0.5551
 4622TIP3   OH213871   0.685   3.877   4.816  0.0560  0.2925 -0.0357
 4622TIP3    H113872   0.604   3.865   4.866  0.8993  0.6866  1.4668
 4622TIP3    H213873   0.655   3.906   4.730 -1.3718  2.4818  1.1038
 4623TIP3   OH213874   3.701   3.464   0.389 -0.1076  0.1046  0.1938
 4623TIP3    H113875   3.733   3.375   0.379 -1.4131 -0.2932 -0.9014
 4623TIP3    H213876   3.777   3.519   0.371  0.4462 -0.7898 -0.3074
 4624TIP3   OH213877   2.128   0.936   3.653  0.6118  0.0045 -0.5402
 4624TIP3    H113878   2.087   1.003   3.599  2.3188  0.6526 -1.1013
 4624TIP3    H213879   2.088   0.854   3.625 -0.2037  0.5958 -1.1263
 4625TIP3   OH213880   0.696   2.863   1.373 -0.3756  0.1201 -0.1078
 4625TIP3    H113881   0.791   2.862   1.376 -0.2384 -1.7443 -2.4488
 4625TIP3    H213882   0.669   2.778   1.407 -1.1440  0.1533 -0.5948
 4626TIP3   OH213883   5.235   1.222   0.700  0.4192  0.3199 -0.2983
 4626TIP3    H113884   5.293   1.229   0.776 -0.0522  1.4485 -0.0236
 4626TIP3    H213885   5.263   1.292   0.641  0.0017  0.2278 -0.6149
 4627TIP3   OH213886   4.417   2.116   3.145 -0.3890 -0.1970  0.3588
 4627TIP3    H113887   4.481   2.175   3.184  0.9113 -1.4923  0.2518
 4627TIP3    H213888   4.430   2.124   3.050 -1.2639  0.4593  0.2783
 4628TIP3   OH213889   4.395   0.332   2.167 -0.4986  0.9005  0.0769
 4628TIP3    H113890   4.330   0.327   2.096  0.9289 -0.0904 -1.2373
 4628TIP3    H213891   4.454   0.401   2.140 -0.1331  0.7466  0.4749
 4629TIP3   OH213892   2.659   2.013   1.652  0.3026  0.1286  0.3831
 4629TIP3    H113893   2.640   1.920   1.652 -3.2680  0.6976 -0.7831
 4629TIP3    H213894   2.584   2.054   1.696  0.5578  2.5577 -1.2080
 4630TIP3   OH213895   5.452   5.419   0.846 -0.0975 -0.4409 -0.1306
 4630TIP3    H113896   5.477   5.511   0.854  0.4464 -0.5227 -0.8392
 4630TIP3    H213897   5.419   5.396   0.933  0.2994  0.2624  0.2152
 4631TIP3   OH213898   0.653   0.703   0.800  0.1875  0.9723 -0.2727
 4631TIP3    H113899   0.653   0.796   0.824  0.7104  1.0965 -0.7286
 4631TIP3    H213900   0.676   0.657   0.881  0.1267  1.2532 -0.0958
 4632TIP3   OH213901   2.982   5.333   0.770 -0.7246 -0.3960  0.2669
 4632TIP3    H113902   2.906   5.291   0.810 -2.4801  0.2478 -2.1791
 4632TIP3    H213903   3.029   5.261   0.728 -0.1308 -0.7397  1.4659
 4633TIP3   OH213904   2.824   4.480   1.118 -0.0353  0.2651  0.3357
 4633TIP3    H113905   2.752   4.422   1.091  0.8861 -1.3416  1.1487
 4633TIP3    H213906   2.871   4.499   1.038  0.6394 -1.5746  0.2476
 4634TIP3   OH213907   0.492   0.806   3.037 -0.1504  0.1311 -0.4102
 4634TIP3    H113908   0.580   0.789   3.070 -1.1040 -0.5521  2.0273
 4634TIP3    H213909   0.457   0.720   3.016 -0.2938  0.3847 -1.2253
 4635TIP3   OH213910   1.350   5.749   2.612  0.2770  0.0023 -0.7629
 4635TIP3    H113911   1.272   5.792   2.578  0.3974 -0.3287 -1.4690
 4635TIP3    H213912   1.319   5.666   2.647  0.4201 -0.5306 -1.8464
 4636TIP3   OH213913   5.220   3.564   1.313 -0.6621  0.6814  0.2546
 4636TIP3    H113914   5.286   3.633   1.301 -2.1670  2.2980  0.7021
 4636TIP3    H213915   5.210   3.558   1.408  2.0703 -2.9010  0.5072
 4637TIP3   OH213916   1.529   0.152   5.207 -0.1438 -0.2174 -0.2822
 4637TIP3    H113917   1.507   0.073   5.157  0.5487  0.6258 -2.0303
 4637TIP3    H213918   1.544   0.219   5.140  2.4379  0.5975  0.9822
 4638TIP3   OH213919   3.420   3.917   3.922  0.1805 -0.7172  0.4332
 4638TIP3    H113920   3.364   3.990   3.948 -1.5552 -1.5364 -0.7743
 4638TIP3    H213921   3.481   3.956   3.860  1.0250  0.2043  1.7915
 4639TIP3   OH213922   0.997   2.501   1.357 -0.0785 -0.1418 -0.0278
 4639TIP3    H113923   1.055   2.462   1.421 -0.3916  0.8437  0.8858
 4639TIP3    H213924   1.014   2.453   1.276  2.0581  0.1868  0.1857
 4640TIP3   OH213925   2.151   4.512   3.202  0.2117  0.4076  0.0168
 4640TIP3    H113926   2.200   4.505   3.120  1.5948 -0.4776  0.8904
 4640TIP3    H213927   2.109   4.427   3.213 -0.3507  0.6764  0.0112
 4641TIP3   OH213928   2.097   5.075   1.598 -0.0181  0.2976  0.2218
 4641TIP3    H113929   2.105   5.098   1.690  0.9990 -4.4660  1.6077
 4641TIP3    H213930   2.175   5.111   1.557  1.5749 -0.7322  2.1677
 4642TIP3   OH213931   3.313   4.958   4.871 -0.0250  0.1786 -0.4143
 4642TIP3    H113932   3.396   4.948   4.917 -0.8411 -0.0020  1.0998
 4642TIP3    H213933   3.320   4.900   4.795  0.9272 -0.4714  0.1531
 4643TIP3   OH213934   1.411   1.223   2.492  0.3871  0.2204  0.3307
 4643TIP3    H113935   1.409   1.224   2.397 -2.3748  0.0898  0.2916
 4643TIP3    H213936   1.383   1.135   2.516  1.9608 -0.0563  1.3225
 4644TIP3   OH213937   6.303   2.104   4.270 -0.2509 -0.1876 -0.1023
 4644TIP3    H113938   6.341   2.026   4.310 -2.7498 -1.9541 -0.8907
 4644TIP3    H213939   6.289   2.079   4.179 -1.7441  0.9129 -0.2039
 4645TIP3   OH213940   3.025   4.411   1.977 -0.0097 -0.1567 -0.0623
 4645TIP3    H113941   2.950   4.377   2.025  1.0169 -0.6789  1.2435
 4645TIP3    H213942   3.101   4.388   2.031  0.9979  1.5085 -0.6674
 4646TIP3   OH213943   2.969   3.787   0.850  0.1365  0.6350  0.6483
 4646TIP3    H113944   2.977   3.861   0.910 -1.9983  1.1997  0.3508
 4646TIP3    H213945   2.904   3.730   0.892 -1.1264  0.8654 -0.8992
 4647TIP3   OH213946   1.353   4.591   0.821  0.6511 -0.0156  0.0567
 4647TIP3    H113947   1.385   4.524   0.761 -0.3355 -0.4153 -0.0409
 4647TIP3    H213948   1.324   4.543   0.898 -0.9369  0.1675 -0.3827
 4648TIP3   OH213949   5.514   4.014   1.367 -0.2614  0.0528 -0.0198
 4648TIP3    H113950   5.578   4.075   1.332 -0.1591 -0.0725 -0.0530
 4648TIP3    H213951   5.525   4.019   1.462  0.4026 -0.6112 -0.0522
 4649TIP3   OH213952   0.643   0.708   4.081  0.7354 -0.7650 -0.1654
 4649TIP3    H113953   0.614   0.723   4.171 -1.9698 -0.5697 -0.9899
 4649TIP3    H213954   0.665   0.795   4.048 -1.0595 -0.4265 -0.5398
 4650TIP3   OH213955   1.940   1.618   0.036  0.4032 -0.3567 -1.3184
 4650TIP3    H113956   2.010   1.657  -0.017  0.5310  0.6704 -0.4146
 4650TIP3    H213957   1.979   1.604   0.122 -0.5993  0.5502 -0.7005
 4651TIP3   OH213958   2.169   0.124   3.573 -0.0056 -0.5483  0.1981
 4651TIP3    H113959   2.077   0.099   3.564 -0.3886  1.1053 -0.8458
 4651TIP3    H213960   2.207   0.108   3.487  0.4259 -0.2646  0.3351
 4652TIP3   OH213961   5.742   4.597   4.561  0.9135 -0.2408 -0.1982
 4652TIP3    H113962   5.686   4.673   4.576  0.4292 -0.5295 -0.5143
 4652TIP3    H213963   5.686   4.535   4.514  1.5618 -0.4484 -0.7112
 4653TIP3   OH213964   1.544   4.332   2.528  0.1762 -0.2119 -0.0985
 4653TIP3    H113965   1.588   4.413   2.504 -0.9956  1.2094  2.2140
 4653TIP3    H213966   1.452   4.347   2.507 -0.2529 -0.4178  1.5527
 4654TIP3   OH213967   0.919   0.561   3.167 -0.4906  0.5217 -0.1586
 4654TIP3    H113968   0.923   0.570   3.262 -1.0465 -0.9960  0.0279
 4654TIP3    H213969   1.005   0.527   3.142 -0.5306  0.3955 -0.1269
 4655TIP3   OH213970   2.251   2.137   3.373 -0.2752 -0.3879 -0.5124
 4655TIP3    H113971   2.228   2.219   3.330  0.1633 -0.0530 -0.1171
 4655TIP3    H213972   2.273   2.078   3.301  0.1933  0.0875 -0.7681
 4656TIP3   OH213973   1.018   3.523   4.809 -0.0558  0.1260 -0.1321
 4656TIP3    H113974   0.929   3.557   4.808 -0.5664 -1.1475  0.2184
 4656TIP3    H213975   1.029   3.485   4.896  1.0407  0.7939  0.0428
 4657TIP3   OH213976   5.620   4.766   2.625  0.1744  0.2606  0.0726
 4657TIP3    H113977   5.590   4.857   2.633 -1.6034 -0.4405  2.6497
 4657TIP3    H213978   5.661   4.747   2.709 -0.2055 -1.5405 -0.1067
 4658TIP3   OH213979   4.458   1.234   2.622 -0.7276 -0.4651  0.5549
 4658TIP3    H113980   4.498   1.149   2.601 -1.2173 -0.7525  0.7480
 4658TIP3    H213981   4.531   1.294   2.633 -0.4106 -0.3286 -1.7916
 4659TIP3   OH213982   3.089   0.274   3.838  0.3630 -0.0923  0.2474
 4659TIP3    H113983   3.157   0.273   3.770 -1.5742 -3.8574 -1.9740
 4659TIP3    H213984   3.021   0.331   3.803  0.1617 -0.5479 -0.1187
 4660TIP3   OH213985   0.194   5.805   4.518 -0.3452  0.2154  0.4851
 4660TIP3    H113986   0.167   5.882   4.467  0.8558  0.0409 -0.4506
 4660TIP3    H213987   0.194   5.733   4.455  1.1122 -0.0233  0.7326
 4661TIP3   OH213988   1.573   5.325   2.394  0.2523  0.3140 -0.1773
 4661TIP3    H113989   1.562   5.253   2.455  3.5551 -0.8780 -0.7767
 4661TIP3    H213990   1.615   5.286   2.317  0.6180  2.5881 -1.2372
 4662TIP3   OH213991   4.853   4.849   1.704 -0.5653 -0.2109  0.5353
 4662TIP3    H113992   4.855   4.874   1.611 -2.0563 -0.7251  0.3319
 4662TIP3    H213993   4.944   4.855   1.732 -0.0110 -0.4506 -1.0800
 4663TIP3   OH213994   0.286   2.698   4.050 -0.1859 -0.1662 -0.1755
 4663TIP3    H113995   0.297   2.666   4.139 -1.9329  2.1885  0.9660
 4663TIP3    H213996   0.369   2.678   4.007  0.9253 -0.7839  2.1330
 4664TIP3   OH213997   5.427   1.441   3.709 -0.4204 -0.4434 -0.2472
 4664TIP3    H113998   5.512   1.441   3.666 -0.4921 -1.3526 -0.4096
 4664TIP3    H213999   5.365   1.460   3.639 -0.2309  2.6025  0.2433
 4665TIP3   OH214000   5.259   0.670   4.675  0.1924 -0.2910  0.0693
 4665TIP3    H114001   5.202   0.626   4.612  0.8169 -0.1078 -0.6357
 4665TIP3    H214002   5.328   0.708   4.622  0.3828  0.4135  0.8115
 4666TIP3   OH214003   2.431   3.348   2.195  0.1980  0.6903 -0.3292
 4666TIP3    H114004   2.505   3.287   2.200  1.6127  2.3807  0.1963
 4666TIP3    H214005   2.448   3.399   2.115 -2.1392 -0.9526 -2.0171
 4667TIP3   OH214006   5.212   2.946   3.272  0.5553  0.2740  0.1918
 4667TIP3    H114007   5.206   2.898   3.189  0.1362  0.8127 -0.0902
 4667TIP3    H214008   5.228   2.877   3.337  1.0914 -0.1320 -0.3527
 4668TIP3   OH214009   6.007   2.435   2.973 -0.6419 -0.6958 -0.0663
 4668TIP3    H114010   5.934   2.494   2.955 -0.8443 -1.4504 -1.9357
 4668TIP3    H214011   5.965   2.352   2.995 -0.3414 -0.4997  1.3480
 4669TIP3   OH214012   1.567   5.104   2.607 -0.7152  0.0012  0.0108
 4669TIP3    H114013   1.651   5.061   2.597 -2.2989 -3.6268  0.6573
 4669TIP3    H214014   1.568   5.140   2.696  0.1377  0.0170 -0.0006
 4670TIP3   OH214015   2.395   2.960   1.098 -0.8520 -0.4136  0.5867
 4670TIP3    H114016   2.461   3.017   1.059 -0.4700  0.4584  2.4210
 4670TIP3    H214017   2.314   3.012   1.094 -1.1312 -0.9030 -0.3355
 4671TIP3   OH214018   4.900   3.791   5.017 -0.0515 -0.3775  0.0159
 4671TIP3    H114019   4.811   3.796   5.051 -0.4916  0.4096 -1.1941
 4671TIP3    H214020   4.931   3.881   5.018  0.3399 -0.5055 -0.5805
 4672TIP3   OH214021   0.872   4.003   1.049  0.4728  0.3618  0.1855
 4672TIP3    H114022   0.901   3.925   1.003 -1.0061 -0.7360  1.0199
 4672TIP3    H214023   0.889   4.075   0.988 -0.8999 -0.9640 -1.8747
 4673TIP3   OH214024   4.492   0.166   4.084  0.1019 -0.1181 -0.5133
 4673TIP3    H114025   4.532   0.119   4.012 -0.6023 -0.4026 -0.7211
 4673TIP3    H214026   4.452   0.243   4.044  0.4766  0.1924 -0.2993
 4674TIP3   OH214027   4.890   3.350   0.107  0.4532  0.6362  0.7832
 4674TIP3    H114028   4.852   3.286   0.047 -0.8901  1.6385  0.5213
 4674TIP3    H214029   4.985   3.342   0.093  0.2114  0.4421 -1.0565
 4675TIP3   OH214030   5.453   2.122   2.820  0.4977  0.3254 -0.0804
 4675TIP3    H114031   5.367   2.150   2.789  1.3741  3.5511  0.1046
 4675TIP3    H214032   5.437   2.037   2.861 -1.9189 -0.8336 -3.1095
 4676TIP3   OH214033   4.595   1.266   3.687  0.3016 -0.3885  0.0999
 4676TIP3    H114034   4.508   1.226   3.681  1.3083 -2.5684 -1.2084
 4676TIP3    H214035   4.643   1.229   3.613  2.2511  1.0628  0.5615
 4677TIP3   OH214036   1.551   2.607   4.166  0.4084  0.2222 -0.5378
 4677TIP3    H114037   1.543   2.555   4.246  0.7126  0.5304 -0.3018
 4677TIP3    H214038   1.541   2.543   4.095  1.1539 -0.2239 -0.2566
 4678TIP3   OH214039   3.576   4.653   0.736  0.3419  0.1537  0.0545
 4678TIP3    H114040   3.659   4.638   0.691 -0.3319 -1.0146 -0.8482
 4678TIP3    H214041   3.579   4.593   0.811  0.7415  0.8623  0.6122
 4679TIP3   OH214042   4.397   0.543   2.652 -0.9214  0.4204 -0.1233
 4679TIP3    H114043   4.444   0.469   2.689 -1.0812  0.3338 -0.0937
 4679TIP3    H214044   4.321   0.555   2.710 -0.5728  0.9858  0.2250
 4680TIP3   OH214045   4.637   5.590   2.424 -0.2188  0.0840 -0.1908
 4680TIP3    H114046   4.709   5.539   2.462 -0.6441 -0.4253 -0.0602
 4680TIP3    H214047   4.558   5.539   2.444 -0.4439 -0.2712 -1.9029
 4681TIP3   OH214048   1.072   0.386   3.568  0.1404  0.0057 -0.6943
 4681TIP3    H114049   1.052   0.463   3.515 -0.9904  0.1878 -0.0445
 4681TIP3    H214050   1.025   0.315   3.524 -1.9279  0.3985  0.7361
 4682TIP3   OH214051   3.074   4.336   1.234 -0.3337  0.3142 -0.3123
 4682TIP3    H114052   3.065   4.278   1.158  0.8849  0.7193 -0.7772
 4682TIP3    H214053   3.141   4.399   1.209  1.3626 -0.5552  1.7010
 4683TIP3   OH214054   2.482   0.301   1.838 -0.2804 -0.0300  0.5703
 4683TIP3    H114055   2.532   0.223   1.812  1.9233  1.2921  0.6173
 4683TIP3    H214056   2.470   0.291   1.933  1.8586  0.6171  0.9673
 4684TIP3   OH214057   0.037   3.248   2.378  0.2059  0.6031  0.3054
 4684TIP3    H114058   0.045   3.337   2.412 -1.1349  0.7498  0.3013
 4684TIP3    H214059  -0.057   3.237   2.362  0.4521 -0.5108 -0.5108
 4685TIP3   OH214060   3.817   5.769   1.128 -0.1476 -0.1341 -0.2506
 4685TIP3    H114061   3.817   5.673   1.122 -1.8031 -0.3204  1.5906
 4685TIP3    H214062   3.747   5.797   1.070 -0.7436 -0.1747  0.4419
 4686TIP3   OH214063   2.549   3.017   1.358 -0.1377  0.3224 -0.0515
 4686TIP3    H114064   2.493   2.993   1.284  0.0860  0.2813 -0.2101
 4686TIP3    H214065   2.635   2.982   1.335 -0.4175 -1.1611  0.9757
 4687TIP3   OH214066   0.158   5.188   0.983 -0.1949 -0.0986  0.5786
 4687TIP3    H114067   0.064   5.208   0.985 -0.2041  0.1200 -1.0091
 4687TIP3    H214068   0.176   5.168   0.891  1.2967 -0.2653  0.8890
 4688TIP3   OH214069   2.600   1.308   4.687 -0.8385  0.0343 -0.3466
 4688TIP3    H114070   2.618   1.215   4.699  1.4798  0.4755  0.0790
 4688TIP3    H214071   2.617   1.348   4.772  2.1763  1.3259 -1.4335
 4689TIP3   OH214072   2.164   0.605   4.910  0.0991  0.1841 -0.3986
 4689TIP3    H114073   2.192   0.683   4.861  1.6556  0.1223  0.3406
 4689TIP3    H214074   2.135   0.640   4.994  2.2158 -0.1146  0.5065
 4690TIP3   OH214075   1.913   0.566   1.476 -0.5827  0.5426 -0.3058
 4690TIP3    H114076   1.923   0.660   1.467  1.4309  0.4956  0.7445
 4690TIP3    H214077   1.853   0.541   1.407 -0.4503  2.4711 -1.1772
 4691TIP3   OH214078   0.880   0.791   1.904  1.1023 -0.1576 -0.4352
 4691TIP3    H114079   0.881   0.699   1.878 -1.0527 -0.5806  0.7921
 4691TIP3    H214080   0.961   0.827   1.867  1.3157 -2.1907 -2.1247
 4692TIP3   OH214081   4.617   4.173   4.398 -0.0997  0.4556 -0.2779
 4692TIP3    H114082   4.562   4.206   4.327 -0.9052 -1.2541 -0.5187
 4692TIP3    H214083   4.606   4.078   4.393  0.8693  0.2335  1.3150
 4693TIP3   OH214084   6.148   4.188   3.457  0.1958  0.1944 -0.0838
 4693TIP3    H114085   6.101   4.155   3.380 -0.2876  1.5681 -0.4000
 4693TIP3    H214086   6.095   4.261   3.488  1.1923  0.6235  0.6413
 4694TIP3   OH214087   1.574   3.559   1.160 -0.8431 -0.4187 -0.0054
 4694TIP3    H114088   1.642   3.497   1.185 -1.5439 -1.2557 -0.1506
 4694TIP3    H214089   1.499   3.538   1.216 -1.2586 -0.0427 -0.4008
 4695TIP3   OH214090   4.128   5.140   2.257  0.2991 -0.3904  0.0997
 4695TIP3    H114091   4.093   5.171   2.174  0.4843 -0.7131 -0.1024
 4695TIP3    H214092   4.208   5.191   2.270 -1.6881  2.5617  2.0460
 4696TIP3   OH214093   1.114   5.559   1.819 -0.3419  0.4039 -0.0534
 4696TIP3    H114094   1.121   5.513   1.736  1.5158 -0.5643  0.5974
 4696TIP3    H214095   1.156   5.643   1.804 -1.6955  1.0286 -0.5821
 4697TIP3   OH214096   2.534   2.284   0.448  0.3113 -0.0167  0.3920
 4697TIP3    H114097   2.514   2.199   0.487 -0.0758 -0.1122  0.0013
 4697TIP3    H214098   2.596   2.325   0.508 -0.9829  0.2399  1.6172
 4698TIP3   OH214099   1.084   4.104   3.072  0.4435 -0.0204 -0.3395
 4698TIP3    H114100   0.992   4.121   3.051  0.4873 -0.4030 -0.8688
 4698TIP3    H214101   1.128   4.187   3.057  0.0356  0.4315  0.8467
 4699TIP3   OH214102   0.600   5.725   3.214 -0.8253  0.0752 -0.0709
 4699TIP3    H114103   0.570   5.816   3.206 -0.9571 -0.0261 -0.8150
 4699TIP3    H214104   0.520   5.675   3.230 -0.5263  0.3183  2.5574
 4700TIP3   OH214105   3.347   4.805   0.718  0.1781  0.3497  0.1661
 4700TIP3    H114106   3.369   4.831   0.808  1.2595  0.7028 -0.1903
 4700TIP3    H214107   3.414   4.741   0.694 -1.3148 -1.3692  0.3206
 4701TIP3   OH214108   4.323   5.648   0.479  0.4053  0.1767 -0.7033
 4701TIP3    H114109   4.250   5.608   0.526  2.2159 -0.2908  1.9055
 4701TIP3    H214110   4.290   5.734   0.451 -1.6755 -0.7567 -1.2567
 4702TIP3   OH214111   1.062   0.002   1.022 -0.6926  0.4667  0.0180
 4702TIP3    H114112   0.971   0.032   1.021 -1.5140 -1.6761  2.1103
 4702TIP3    H214113   1.091   0.016   1.112  0.3621 -0.7734 -0.1059
 4703TIP3   OH214114   3.014   4.158   4.125 -0.8420  0.1185 -0.2094
 4703TIP3    H114115   2.991   4.078   4.171  1.2678 -0.3475  0.0980
 4703TIP3    H214116   2.929   4.201   4.108 -1.8210 -0.7457  2.1293
 4704TIP3   OH214117   2.929   0.700   4.345 -1.0013  0.4950 -0.4683
 4704TIP3    H114118   2.875   0.680   4.268 -0.3975 -3.3662 -0.1271
 4704TIP3    H214119   2.932   0.617   4.393  0.2169  2.2666  2.7518
 4705TIP3   OH214120   5.511   0.116   4.192 -0.2890 -0.3863 -0.3353
 4705TIP3    H114121   5.464   0.073   4.264  3.7225 -1.6942  1.8011
 4705TIP3    H214122   5.483   0.068   4.114 -2.1157 -1.3325  0.8175
 4706TIP3   OH214123   3.165   0.155   0.552 -0.1699  0.5749 -0.2840
 4706TIP3    H114124   3.253   0.117   0.544 -0.6376 -0.6681  0.2195
 4706TIP3    H214125   3.109   0.096   0.502 -0.9648  0.4419  0.7407
 4707TIP3   OH214126   0.469   3.404   3.158  0.3453  0.6069  0.5472
 4707TIP3    H114127   0.419   3.483   3.177 -1.3735 -0.5704  1.1918
 4707TIP3    H214128   0.416   3.357   3.093  1.7700  0.3638 -0.4922
 4708TIP3   OH214129   5.848   2.495   0.114 -0.2880  0.1616  0.1223
 4708TIP3    H114130   5.888   2.537   0.190  1.1073  0.3554 -0.6851
 4708TIP3    H214131   5.907   2.422   0.093 -1.2410 -0.5559 -0.1231
 4709TIP3   OH214132   1.369   4.762   3.380  0.0550  0.4521 -0.1658
 4709TIP3    H114133   1.455   4.722   3.372  0.2513  1.1517 -2.1258
 4709TIP3    H214134   1.381   4.834   3.442  0.5993 -0.1343  0.4158
 4710TIP3   OH214135   4.878   4.304   2.934  0.0089  0.2114  0.2308
 4710TIP3    H114136   4.973   4.304   2.927  0.2225 -0.1559  2.4139
 4710TIP3    H214137   4.848   4.362   2.864  1.8323  0.4455 -0.3917
 4711TIP3   OH214138   5.317   1.881   4.308 -0.1995 -0.0792 -0.4939
 4711TIP3    H114139   5.403   1.840   4.319 -0.2512 -0.5038 -1.5348
 4711TIP3    H214140   5.295   1.915   4.394  0.7830 -0.4303 -0.0956
 4712TIP3   OH214141   5.390   2.653   2.870 -0.4536 -0.1520  0.2970
 4712TIP3    H114142   5.332   2.599   2.815 -2.0153  1.0666  0.6721
 4712TIP3    H214143   5.387   2.740   2.830 -0.4048  0.3859  1.4289
 4713TIP3   OH214144   5.620   1.313   2.268 -0.4469  0.3354  0.3839
 4713TIP3    H114145   5.609   1.408   2.263  1.9510  0.6328 -2.6867
 4713TIP3    H214146   5.534   1.277   2.246 -1.4765  1.7296  1.9511
 4714TIP3   OH214147   5.168   4.591   1.847 -0.6769  0.5393  0.1331
 4714TIP3    H114148   5.174   4.664   1.908  2.5740 -0.0993  0.7676
 4714TIP3    H214149   5.098   4.536   1.882  0.2152  0.8432  2.5797
 4715TIP3   OH214150   5.013   3.136   2.292  0.0814  0.1319 -0.6095
 4715TIP3    H114151   4.946   3.187   2.246 -0.3971  0.0464 -0.0204
 4715TIP3    H214152   5.010   3.168   2.382  1.1634  0.4514 -0.6762
 4716TIP3   OH214153   2.686   0.599   2.022 -0.0128 -0.0931  0.6709
 4716TIP3    H114154   2.646   0.551   1.950 -1.5503  0.4534  1.1334
 4716TIP3    H214155   2.661   0.550   2.100  1.4299 -0.5363  0.8991
 4717TIP3   OH214156   4.681   3.750   0.336 -0.5391  0.8384 -0.5932
 4717TIP3    H114157   4.754   3.729   0.394 -0.3599 -1.1791 -1.4496
 4717TIP3    H214158   4.603   3.734   0.389 -0.3925  2.0932  0.0346
 4718TIP3   OH214159   0.113   3.754   0.046 -0.8644  0.0349  0.1417
 4718TIP3    H114160   0.025   3.725   0.024 -0.7001 -0.5433  0.2242
 4718TIP3    H214161   0.129   3.828  -0.012 -0.9924 -0.5471 -0.6487
 4719TIP3   OH214162   4.299   2.493   5.095  0.5007  0.0461 -0.5230
 4719TIP3    H114163   4.367   2.558   5.114 -0.3487  1.4006 -1.9579
 4719TIP3    H214164   4.224   2.521   5.147  0.6341 -0.7575  0.1241
 4720TIP3   OH214165   0.517   5.351   2.398 -0.3223  0.7617 -0.2143
 4720TIP3    H114166   0.457   5.315   2.333 -0.0673 -0.1402  0.0288
 4720TIP3    H214167   0.582   5.399   2.347  0.7084 -1.1310 -0.7905
 4721TIP3   OH214168   4.812   2.842   0.041  0.3423 -0.2441  0.1301
 4721TIP3    H114169   4.884   2.868  -0.016  1.9483 -0.5529  1.8817
 4721TIP3    H214170   4.852   2.779   0.102 -1.8829 -1.9135 -0.0025
 4722TIP3   OH214171   1.202   5.347   3.370  0.1870  0.3115 -0.6330
 4722TIP3    H114172   1.238   5.309   3.290 -0.4533 -2.0422  0.1173
 4722TIP3    H214173   1.112   5.314   3.374 -0.3993  1.8994  0.1407
 4723TIP3   OH214174   2.367   5.053   0.516  0.0027 -0.2331 -0.6674
 4723TIP3    H114175   2.374   4.978   0.456  1.3558 -0.2063 -0.5654
 4723TIP3    H214176   2.361   5.129   0.459 -0.3986 -0.3353 -0.7662
 4724TIP3   OH214177   3.590   3.847   4.823  0.5246 -0.1608 -0.3707
 4724TIP3    H114178   3.634   3.762   4.829  0.7992 -0.0793 -1.1473
 4724TIP3    H214179   3.513   3.830   4.768  0.2926 -0.0204 -0.0905
 4725TIP3   OH214180   5.221   2.174   2.242 -0.3996 -0.2906  0.3420
 4725TIP3    H114181   5.176   2.254   2.214 -0.8227 -0.7034 -0.1859
 4725TIP3    H214182   5.198   2.109   2.175  2.4286 -0.0590 -1.0243
 4726TIP3   OH214183   1.974   3.454   0.104  0.1105  0.0481  0.2299
 4726TIP3    H114184   1.943   3.367   0.076 -1.0241  0.0492  1.3530
 4726TIP3    H214185   2.060   3.438   0.142 -0.1877 -0.6595  0.6487
 4727TIP3   OH214186   4.875   0.130   4.999  0.0197  0.3501 -0.2494
 4727TIP3    H114187   4.800   0.084   5.036  0.1144  0.5041  0.1308
 4727TIP3    H214188   4.931   0.060   4.965 -0.7259  0.2663 -1.3724
 4728TIP3   OH214189   4.837   0.122   3.605  0.3069  0.2842  0.4012
 4728TIP3    H114190   4.909   0.159   3.554 -1.8239  1.8632 -1.6918
 4728TIP3    H214191   4.840   0.028   3.586  2.5679  0.0545  1.5107
 4729TIP3   OH214192   4.858   1.227   2.401  0.8470  0.2906 -0.5128
 4729TIP3    H114193   4.933   1.286   2.393  0.5961  0.9731  1.6259
 4729TIP3    H214194   4.894   1.140   2.381  2.1609  0.6374  0.2606
 4730TIP3   OH214195   3.727   3.571   2.593  0.6420 -0.1745  0.3036
 4730TIP3    H114196   3.815   3.545   2.621  1.0682 -0.4410 -1.2050
 4730TIP3    H214197   3.718   3.534   2.505 -0.8835  0.0759  0.3348
 4731TIP3   OH214198   6.245   2.172   3.680 -0.3525  0.1653 -0.1947
 4731TIP3    H114199   6.280   2.092   3.718 -1.6801 -0.6839 -0.6825
 4731TIP3    H214200   6.267   2.167   3.587  2.4977  2.0246  0.2556
 4732TIP3   OH214201   2.216   1.168   5.164 -0.4771  0.7002  0.1526
 4732TIP3    H114202   2.269   1.170   5.244 -0.2384  0.9254 -0.0091
 4732TIP3    H214203   2.247   1.243   5.113  1.2089 -0.8850 -1.3056
 4733TIP3   OH214204   3.494   4.938   0.982 -0.1080  0.1497 -0.3863
 4733TIP3    H114205   3.568   4.998   0.983  0.2661 -0.3149 -0.1102
 4733TIP3    H214206   3.434   4.973   1.048 -0.5565  1.0373 -1.2405
 4734TIP3   OH214207   6.172   4.816   0.011 -0.4401  0.2252 -0.0017
 4734TIP3    H114208   6.091   4.859  -0.018  0.4010  0.7675 -1.7087
 4734TIP3    H214209   6.200   4.865   0.088 -1.6928  0.0726  0.5652
 4735TIP3   OH214210   3.463   1.502   2.208 -0.1491 -0.1186  0.0113
 4735TIP3    H114211   3.385   1.481   2.157  0.1693 -0.2276 -0.4462
 4735TIP3    H214212   3.536   1.477   2.151  0.2230 -1.7194  1.1309
 4736TIP3   OH214213   3.504   4.612   4.956  0.2227  0.2538 -0.3558
 4736TIP3    H114214   3.482   4.653   5.040 -0.5941  0.7765 -0.8181
 4736TIP3    H214215   3.463   4.526   4.959  0.4537  0.1506 -0.0990
 4737TIP3   OH214216   3.140   3.707   4.377  0.4979  0.3215 -0.2125
 4737TIP3    H114217   3.083   3.713   4.454  0.5701 -0.6747 -0.0646
 4737TIP3    H214218   3.202   3.637   4.398  1.1104  0.6680 -0.8047
 4738TIP3   OH214219   3.615   0.678   0.169  0.2357 -0.6087  0.7505
 4738TIP3    H114220   3.630   0.771   0.186 -0.7951 -0.4477  0.8255
 4738TIP3    H214221   3.689   0.634   0.213  1.4963  0.2288 -0.4432
 4739TIP3   OH214222   3.205   0.245   4.676  0.3238  0.3538 -0.4681
 4739TIP3    H114223   3.138   0.307   4.705  0.0887 -0.3035  0.4498
 4739TIP3    H214224   3.213   0.261   4.582 -2.4427 -0.7381 -1.0133
 4740TIP3   OH214225   5.043   3.348   3.604 -0.0396 -0.5002 -0.0639
 4740TIP3    H114226   4.955   3.343   3.567  0.0330 -0.4140 -0.2492
 4740TIP3    H214227   5.091   3.407   3.545 -0.0730  0.0705  0.4674
 4741TIP3   OH214228   4.080   5.516   5.118  0.0727 -0.0589  0.0512
 4741TIP3    H114229   4.175   5.514   5.104 -0.1553 -2.2012 -2.0513
 4741TIP3    H214230   4.060   5.430   5.156 -1.0769  0.1705  0.0060
 4742TIP3   OH214231   2.416   4.574   1.054  0.0457 -0.1148 -0.3818
 4742TIP3    H114232   2.477   4.550   0.985 -0.1841 -1.1700 -0.2353
 4742TIP3    H214233   2.342   4.514   1.043 -0.4878  0.4437  0.0942
 4743TIP3   OH214234   6.372   3.385   0.075  0.0564 -0.6630  0.6783
 4743TIP3    H114235   6.320   3.332   0.135 -0.0750  1.2383  2.3354
 4743TIP3    H214236   6.329   3.470   0.074  0.7472 -0.2771 -1.2315
 4744TIP3   OH214237   0.747   3.934   4.107 -0.3055  0.2621  0.1222
 4744TIP3    H114238   0.653   3.933   4.086 -0.7523  0.2058  1.9571
 4744TIP3    H214239   0.773   3.842   4.107 -0.1115  0.3057 -0.8755
 4745TIP3   OH214240   1.560   2.485   4.431  0.1219 -0.3021 -0.0295
 4745TIP3    H114241   1.596   2.397   4.419  0.8541 -0.0728  0.4365
 4745TIP3    H214242   1.637   2.541   4.440 -0.3255  0.0449  2.1628
 4746TIP3   OH214243   6.252   3.648   3.385  0.0267 -0.2919  0.4352
 4746TIP3    H114244   6.305   3.719   3.348 -0.1983 -0.2479  0.1909
 4746TIP3    H214245   6.306   3.610   3.453  0.7236 -0.8015 -0.3838
 4747TIP3   OH214246   5.775   5.858   4.763 -0.1616  0.5358  0.1019
 4747TIP3    H114247   5.795   5.891   4.675  0.2387  2.1437  0.7587
 4747TIP3    H214248   5.861   5.854   4.806 -0.3336 -0.4232  0.3641
 4748TIP3   OH214249   4.204   1.937   1.591  0.1378 -0.5413  0.1494
 4748TIP3    H114250   4.121   1.984   1.577 -0.6496 -1.2294  2.1803
 4748TIP3    H214251   4.268   1.986   1.539 -1.3692  0.5306 -0.7748
 4749TIP3   OH214252   0.751   3.042   1.651 -0.1297  0.6625 -0.0949
 4749TIP3    H114253   0.846   3.051   1.658 -0.1703  1.0714 -0.0494
 4749TIP3    H214254   0.737   2.948   1.640  0.3948  0.7683 -2.0184
 4750TIP3   OH214255   4.328   1.009   1.568 -0.3967  0.6881 -0.2404
 4750TIP3    H114256   4.249   1.053   1.598 -0.7558 -0.6259  0.8316
 4750TIP3    H214257   4.311   0.986   1.477 -0.3623  2.3526 -0.6846
 4751TIP3   OH214258   1.679   1.156   2.647  0.3212  0.1959  0.2848
 4751TIP3    H114259   1.588   1.185   2.651 -0.0718 -1.0950  1.6353
 4751TIP3    H214260   1.728   1.222   2.696 -0.0650  0.3305  0.4890
 4752TIP3   OH214261   3.242   5.641   3.486 -0.5446 -0.1407  0.2870
 4752TIP3    H114262   3.169   5.670   3.432  0.0490 -0.9105 -0.9556
 4752TIP3    H214263   3.319   5.653   3.431 -0.0645 -2.1358  0.4711
 4753TIP3   OH214264   5.246   3.434   3.380  0.6254 -0.3430 -0.4328
 4753TIP3    H114265   5.306   3.490   3.330 -1.7094  0.0474 -3.0567
 4753TIP3    H214266   5.264   3.346   3.347  0.2105 -0.3078 -0.7595
 4754TIP3   OH214267   5.172   1.037   1.121  0.4192  0.3769  0.0928
 4754TIP3    H114268   5.251   1.085   1.099  0.7051 -0.7239 -1.4052
 4754TIP3    H214269   5.165   1.045   1.216  1.8847  1.1403  0.1607
 4755TIP3   OH214270   1.896   3.165   5.054  0.1730 -0.2041  0.1488
 4755TIP3    H114271   1.801   3.169   5.062  0.0679  0.3753 -1.0838
 4755TIP3    H214272   1.913   3.080   5.013  0.2394 -0.5409  0.8595
 4756TIP3   OH214273   1.939   3.604   4.327  0.4969 -0.0487 -0.0268
 4756TIP3    H114274   1.893   3.644   4.254  3.3252  0.8194 -1.4585
 4756TIP3    H214275   1.869   3.565   4.381 -1.9925  2.5592 -1.1177
 4757TIP3   OH214276   2.976   4.222   1.003 -0.1764  0.0154  0.3508
 4757TIP3    H114277   2.881   4.228   0.993 -0.6712 -4.6017 -0.1025
 4757TIP3    H214278   3.004   4.167   0.929  3.1364  2.2180 -0.2550
 4758TIP3   OH214279   6.010   5.161   3.511  0.2707 -0.5230 -0.3021
 4758TIP3    H114280   5.991   5.159   3.417  0.7269 -1.9614 -0.3916
 4758TIP3    H214281   6.101   5.188   3.517  0.2058 -0.3087 -0.2579
 4759TIP3   OH214282   4.239   1.384   0.639 -0.1770  0.2473 -0.0471
 4759TIP3    H114283   4.229   1.479   0.630  0.0372  0.2719 -0.0237
 4759TIP3    H214284   4.264   1.354   0.552  2.4781  0.5598  0.5301
 4760TIP3   OH214285   1.917   4.929   1.439 -0.0627  0.0361 -0.0312
 4760TIP3    H114286   1.888   4.841   1.463  0.3604 -0.7142 -2.0454
 4760TIP3    H214287   1.981   4.953   1.506 -1.3798 -0.4726  1.4704
 4761TIP3   OH214288   3.601   1.691   3.572  0.3920  0.2993 -0.5613
 4761TIP3    H114289   3.620   1.629   3.502 -0.8734 -0.7073 -0.0562
 4761TIP3    H214290   3.531   1.746   3.537  0.2701  0.2726 -0.3625
 4762TIP3   OH214291   3.159   4.051   2.040  0.2503  0.3510 -0.2358
 4762TIP3    H114292   3.200   3.978   1.994  2.6273  1.6809 -0.3607
 4762TIP3    H214293   3.077   4.015   2.073 -0.0246 -1.5561 -2.7070
 4763TIP3   OH214294   1.887   4.005   1.047 -0.0024  0.3649  0.6461
 4763TIP3    H114295   1.949   3.932   1.055  0.0140  0.4917  1.8882
 4763TIP3    H214296   1.901   4.057   1.126 -0.5672  1.2906  0.1551
 4764TIP3   OH214297   3.467   4.488   2.014  0.1739 -0.2168  0.4503
 4764TIP3    H114298   3.509   4.570   2.038  2.2741 -1.2954  0.7172
 4764TIP3    H214299   3.418   4.509   1.934  2.9050  0.7407 -1.1117
 4765TIP3   OH214300   1.283   2.721   4.533  0.8278 -0.8662 -0.0457
 4765TIP3    H114301   1.189   2.737   4.527  1.1693  1.5421  0.3611
 4765TIP3    H214302   1.317   2.748   4.447  1.4376  0.7705  0.6810
 4766TIP3   OH214303   2.067   5.763   3.541  0.1386 -0.0282 -0.2574
 4766TIP3    H114304   2.070   5.787   3.634 -1.0597  0.0132 -0.2161
 4766TIP3    H214305   2.127   5.825   3.499  1.6813 -0.8573  0.6330
 4767TIP3   OH214306   5.178   0.622   1.940  0.3453 -0.3351  0.2864
 4767TIP3    H114307   5.184   0.654   2.030  0.1297  3.1139 -0.7463
 4767TIP3    H214308   5.099   0.568   1.938  1.4169 -2.1372  2.5049
 4768TIP3   OH214309   3.879   0.322   4.848  0.0694 -0.2426  0.5159
 4768TIP3    H114310   3.916   0.290   4.930 -0.4834 -1.6712  0.2364
 4768TIP3    H214311   3.952   0.363   4.802  0.7416 -0.8623  1.0268
 4769TIP3   OH214312   0.905   0.782   0.739  0.3921 -0.3090 -0.0777
 4769TIP3    H114313   0.810   0.773   0.748  0.3951  0.4850  0.8775
 4769TIP3    H214314   0.918   0.868   0.700  0.7328 -0.3692 -0.1071
 4770TIP3   OH214315   5.839   4.140   0.880 -0.5209 -0.1508 -0.1374
 4770TIP3    H114316   5.924   4.176   0.905 -0.8176 -0.7236  1.9182
 4770TIP3    H214317   5.821   4.074   0.947 -1.7380 -1.3894 -1.6073
 4771TIP3   OH214318   1.892   0.101   3.514 -0.5466 -0.6523 -0.1368
 4771TIP3    H114319   1.858   0.188   3.536  0.1577 -0.4240  0.0585
 4771TIP3    H214320   1.818   0.042   3.530 -1.4120  0.0384 -1.4211
 4772TIP3   OH214321   5.377   4.908   2.743 -0.3556 -0.1450 -0.1115
 4772TIP3    H114322   5.359   4.830   2.690 -0.6181 -0.1414 -0.0282
 4772TIP3    H214323   5.444   4.955   2.694 -1.5515  0.5464 -1.1412
 4773TIP3   OH214324   1.541   5.225   2.869 -0.2695  0.1762  0.1075
 4773TIP3    H114325   1.549   5.320   2.865 -0.5606  0.1833 -0.4022
 4773TIP3    H214326   1.584   5.201   2.950 -0.5069  0.7822  0.4233
 4774TIP3   OH214327   3.740   2.067   0.371 -0.2642 -0.0707  0.3403
 4774TIP3    H114328   3.799   2.123   0.320  0.3027 -1.3750 -0.5118
 4774TIP3    H214329   3.652   2.090   0.340  0.0003 -0.0545 -0.4332
 4775TIP3   OH214330   1.094   0.391   4.698 -0.0353  0.6847 -0.4502
 4775TIP3    H114331   1.097   0.456   4.628  1.1277 -1.1067 -2.1446
 4775TIP3    H214332   1.165   0.416   4.757  0.4452  0.9400 -1.1255
 4776TIP3   OH214333   2.606   4.106   4.541  0.8405 -0.3214 -0.4645
 4776TIP3    H114334   2.515   4.132   4.530  0.6418 -1.3619 -1.3902
 4776TIP3    H214335   2.654   4.189   4.539 -0.1274  0.3139  0.8689
 4777TIP3   OH214336   4.735   4.789   3.611 -0.3285  0.1126 -0.5185
 4777TIP3    H114337   4.771   4.792   3.522 -1.2226  0.4268 -0.8918
 4777TIP3    H214338   4.786   4.721   3.656  0.4199  0.2504 -1.1379
 4778TIP3   OH214339   5.627   0.785   3.021  0.0308  0.4245  0.2005
 4778TIP3    H114340   5.705   0.815   2.973  0.2157 -1.4223 -0.7473
 4778TIP3    H214341   5.576   0.864   3.036  0.0450  1.1652 -2.9653
 4779TIP3   OH214342   0.361   5.554   1.922  0.3091 -0.3642 -0.8455
 4779TIP3    H114343   0.395   5.496   1.854 -0.3655 -1.3915 -0.3370
 4779TIP3    H214344   0.360   5.640   1.882  1.1665 -0.7345 -1.6896
 4780TIP3   OH214345   2.467   3.887   0.730  0.2934  0.0474 -0.3092
 4780TIP3    H114346   2.384   3.848   0.705  0.1187  0.6619 -0.7093
 4780TIP3    H214347   2.450   3.927   0.816  0.9966 -2.3957  1.0620
 4781TIP3   OH214348   4.169   4.269   1.045 -0.4039 -0.2589  0.2178
 4781TIP3    H114349   4.209   4.296   1.128 -0.1823 -0.5668  0.2137
 4781TIP3    H214350   4.085   4.232   1.069  0.2606 -1.6786  0.4649
 4782TIP3   OH214351   4.786   1.294   4.542  0.0339  0.1144 -0.2110
 4782TIP3    H114352   4.837   1.272   4.620 -0.5946 -0.4486  0.0454
 4782TIP3    H214353   4.797   1.219   4.484  0.2523  0.4011 -0.5537
 4783TIP3   OH214354   3.911   2.970   2.553  0.1172 -0.8166 -0.7476
 4783TIP3    H114355   3.996   2.985   2.512  0.0417 -0.6707 -0.8529
 4783TIP3    H214356   3.848   2.975   2.481 -0.2273  1.3982 -0.3699
 4784TIP3   OH214357   2.245   4.367   1.051 -0.1031 -0.5080 -0.3427
 4784TIP3    H114358   2.238   4.356   0.956 -2.0939 -1.8837 -0.1008
 4784TIP3    H214359   2.272   4.281   1.083 -0.9868 -0.5249  0.4248
 4785TIP3   OH214360   2.277   0.081   3.327  0.6393 -0.2850 -0.0942
 4785TIP3    H114361   2.265   0.028   3.248  1.5001  1.0254 -1.1566
 4785TIP3    H214362   2.268   0.171   3.296  0.7525  0.2507  1.3687
 4786TIP3   OH214363   3.393   0.646   3.810  0.7461 -0.3269  0.0495
 4786TIP3    H114364   3.324   0.582   3.795  1.6559 -2.3086  3.2380
 4786TIP3    H214365   3.467   0.614   3.757 -0.0882  0.7143 -1.8433
 4787TIP3   OH214366   1.755   0.475   4.257  0.0104 -0.1305 -0.1195
 4787TIP3    H114367   1.770   0.569   4.249 -1.7374  0.1452 -0.4144
 4787TIP3    H214368   1.791   0.438   4.177  0.6505  0.2783 -0.0313
 4788TIP3   OH214369   2.753   5.953   0.354 -0.3228 -0.1370 -0.7315
 4788TIP3    H114370   2.696   5.902   0.297 -2.3898 -1.1297  2.0128
 4788TIP3    H214371   2.694   6.013   0.399  0.9068 -0.4699  1.4636
 4789TIP3   OH214372   1.821   0.785   4.283 -0.4485 -0.3736  0.3328
 4789TIP3    H114373   1.767   0.824   4.351  0.4913  1.6419 -0.0175
 4789TIP3    H214374   1.773   0.800   4.202  0.0565  0.3604  0.1612
 4790TIP3   OH214375   4.202   5.719   1.315  0.2766  0.1983  0.1486
 4790TIP3    H114376   4.230   5.670   1.392  1.9252 -0.6178 -0.9089
 4790TIP3    H214377   4.179   5.805   1.349  0.1046 -0.4075  1.6620
 4791TIP3   OH214378   2.505   4.326   3.867 -0.1145 -0.3220 -0.2860
 4791TIP3    H114379   2.475   4.410   3.831 -0.1360  0.1900  0.8777
 4791TIP3    H214380   2.523   4.272   3.790 -2.0239  0.0499 -1.0537
 4792TIP3   OH214381   3.888   5.255   4.012  0.1463 -0.0302 -0.2712
 4792TIP3    H114382   3.904   5.162   4.029  0.8810 -0.4629 -2.8778
 4792TIP3    H214383   3.932   5.301   4.083  1.7459 -1.6221 -0.1687
 4793TIP3   OH214384   5.804   5.309   3.618  0.5184  0.6619  0.3584
 4793TIP3    H114385   5.898   5.297   3.603  0.3387 -0.5117  0.0495
 4793TIP3    H214386   5.799   5.347   3.706  1.3173  1.8947 -0.0967
 4794TIP3   OH214387   0.896   3.870   3.187  0.3731  0.5763  0.6409
 4794TIP3    H114388   0.880   3.961   3.211  0.4029  0.3896  1.3918
 4794TIP3    H214389   0.883   3.868   3.092  1.1974  1.5354  0.4853
 4795TIP3   OH214390   1.672   0.770   0.760  0.3307 -0.7821  0.5688
 4795TIP3    H114391   1.650   0.691   0.710  1.6185 -0.9083  0.1455
 4795TIP3    H214392   1.729   0.820   0.702 -1.3758  1.0610  0.3866
 4796TIP3   OH214393   4.238   3.079   2.077 -0.4862 -0.1538  0.2317
 4796TIP3    H114394   4.205   3.042   1.995 -1.9724 -0.1280  0.7896
 4796TIP3    H214395   4.321   3.034   2.091 -1.2156 -1.7296 -0.2220
 4797TIP3   OH214396   4.851   3.701   0.864 -0.4633 -0.2708 -0.2410
 4797TIP3    H114397   4.787   3.635   0.891 -0.6071 -0.1927 -0.3924
 4797TIP3    H214398   4.823   3.781   0.908 -1.4131  0.1604 -1.5694
 4798TIP3   OH214399   5.837   5.005   1.546 -0.2181  0.6065  0.5335
 4798TIP3    H114400   5.833   4.981   1.454  2.2836 -0.7954  0.7011
 4798TIP3    H214401   5.861   5.098   1.546 -1.1803  0.8747 -0.1729
 4799TIP3   OH214402   2.954   1.608   3.478  0.2951 -0.1206  0.3516
 4799TIP3    H114403   3.015   1.541   3.511 -0.2950  0.2198  2.2320
 4799TIP3    H214404   2.992   1.691   3.505 -0.8142  0.1145  1.2416
 4800TIP3   OH214405   2.703   1.505   4.303 -0.6998 -0.1269 -0.4293
 4800TIP3    H114406   2.615   1.480   4.275 -0.7012 -0.1840 -0.3700
 4800TIP3    H214407   2.689   1.575   4.367 -0.6690  1.0504 -1.6468
 4801TIP3   OH214408   1.563   2.356   0.575  0.5216  0.1212 -0.3034
 4801TIP3    H114409   1.512   2.299   0.517  0.9144 -0.2089 -0.3251
 4801TIP3    H214410   1.545   2.445   0.543 -1.8527  0.2178  1.1025
 4802TIP3   OH214411   4.821   1.452   1.357  0.4363 -0.0902 -0.1839
 4802TIP3    H114412   4.878   1.525   1.380  0.2666  0.3738 -1.2033
 4802TIP3    H214413   4.752   1.455   1.424  0.6604  0.4187  0.0317
 4803TIP3   OH214414   2.675   0.149   0.049  0.2490 -0.0022  0.7646
 4803TIP3    H114415   2.655   0.070   0.100 -1.8592 -0.2077 -0.2666
 4803TIP3    H214416   2.721   0.116  -0.028  0.4062 -0.0839  0.8922
 4804TIP3   OH214417   5.574   2.142   0.568  0.1332 -0.3377 -0.8258
 4804TIP3    H114418   5.635   2.068   0.561  1.0179  0.2837  0.0343
 4804TIP3    H214419   5.607   2.207   0.507  0.6515  0.2142  0.0371
 4805TIP3   OH214420   2.960   2.209   3.618 -0.5847  0.1236  0.3107
 4805TIP3    H114421   3.027   2.277   3.629  0.2955 -0.5924 -0.4687
 4805TIP3    H214422   2.988   2.138   3.675  0.8812 -1.2829 -2.0095
 4806TIP3   OH214423   1.334   2.127   0.587  0.0163 -0.7959 -0.1810
 4806TIP3    H114424   1.396   2.055   0.574 -0.2753 -1.3171  1.1297
 4806TIP3    H214425   1.287   2.134   0.504  2.2610  0.0690 -1.4549
 4807TIP3   OH214426   3.022   2.493   2.543 -0.1172  0.6488  0.3778
 4807TIP3    H114427   2.962   2.522   2.474 -2.4007  0.1215  2.0324
 4807TIP3    H214428   2.974   2.424   2.589  3.1951 -2.6142 -0.4659
 4808TIP3   OH214429   1.530   3.035   0.289  0.1163 -0.6096  0.0807
 4808TIP3    H114430   1.460   2.970   0.287  0.0812 -0.6418  1.4555
 4808TIP3    H214431   1.489   3.114   0.326  0.6991 -0.5249  0.5731
 4809TIP3   OH214432   3.880   1.551   1.004  0.0655 -0.0428  0.0644
 4809TIP3    H114433   3.788   1.557   0.981  0.7736 -0.8435 -3.6202
 4809TIP3    H214434   3.920   1.629   0.964  1.0870  0.0399  1.1795
 4810TIP3   OH214435   3.202   0.299   1.189 -0.1520 -0.9433  0.3268
 4810TIP3    H114436   3.138   0.231   1.168 -2.1163  0.1076  2.4267
 4810TIP3    H214437   3.158   0.381   1.168  0.7339 -0.2114  1.2274
 4811TIP3   OH214438   4.903   4.107   0.481  0.3558  0.0840  0.6782
 4811TIP3    H114439   4.840   4.078   0.547  1.2003 -3.0289  0.2644
 4811TIP3    H214440   4.988   4.079   0.515  1.0938  0.6841 -0.5848
 4812TIP3   OH214441   1.175   1.660   1.500  0.1718 -0.0523 -0.1690
 4812TIP3    H114442   1.238   1.648   1.429 -0.1052  0.7623 -0.5648
 4812TIP3    H214443   1.098   1.611   1.472  0.7527 -1.4114  0.5143
 4813TIP3   OH214444   4.289   4.614   2.905  0.0745 -0.5279 -0.0323
 4813TIP3    H114445   4.318   4.644   2.991 -1.1889  1.0784 -0.1400
 4813TIP3    H214446   4.308   4.520   2.905  0.4346 -0.4843  1.8481
 4814TIP3   OH214447   5.608   3.072   0.989  0.1901  0.2508  0.2140
 4814TIP3    H114448   5.699   3.041   0.994 -0.2079 -0.7635  1.6822
 4814TIP3    H214449   5.614   3.166   1.003  0.9677  0.0806  1.1487
 4815TIP3   OH214450   4.561   5.670   4.799 -0.5291 -0.0763 -0.2272
 4815TIP3    H114451   4.494   5.728   4.761  0.0954  0.8679  0.0657
 4815TIP3    H214452   4.644   5.715   4.781 -0.0586 -0.6827  0.3786
 4816TIP3   OH214453   0.188   3.645   3.477  0.4088  0.1443 -0.3563
 4816TIP3    H114454   0.175   3.685   3.391  1.0479 -0.5783 -0.7996
 4816TIP3    H214455   0.283   3.638   3.486  0.3300 -0.3901  0.1295
 4817TIP3   OH214456   5.709   1.052   2.460  0.2267 -0.4095  0.3429
 4817TIP3    H114457   5.648   1.003   2.405 -0.2019  1.1932 -0.6815
 4817TIP3    H214458   5.751   1.114   2.400  0.8952  0.3479  1.5506
 4818TIP3   OH214459   4.805   5.798   4.816 -0.1282  0.1361 -0.0149
 4818TIP3    H114460   4.895   5.769   4.811  0.0812  0.7380  0.1630
 4818TIP3    H214461   4.805   5.885   4.776 -0.6128  0.1718  0.0519
 4819TIP3   OH214462   3.061   3.820   3.170  0.0524  0.5211  0.1636
 4819TIP3    H114463   3.053   3.910   3.138 -4.4839  0.8657  1.6350
 4819TIP3    H214464   3.076   3.830   3.264 -0.1943 -0.2751  0.2882
 4820TIP3   OH214465   1.026   4.455   1.338 -0.2094 -0.0967 -0.3368
 4820TIP3    H114466   0.999   4.365   1.326 -0.9871 -0.3356  2.5058
 4820TIP3    H214467   0.945   4.504   1.350  0.2994  0.3240  1.6968
 4821TIP3   OH214468   0.216   4.117   2.855 -0.0705 -0.0109  0.6524
 4821TIP3    H114469   0.267   4.041   2.886 -0.0503  0.7287  2.6228
 4821TIP3    H214470   0.228   4.182   2.924 -1.8638  1.0101  0.0499
 4822TIP3   OH214471   3.622   4.664   1.210  0.0780 -0.5001 -0.3045
 4822TIP3    H114472   3.614   4.628   1.121 -0.1664 -0.2185 -0.3962
 4822TIP3    H214473   3.546   4.629   1.256 -1.2368  1.3986 -0.9111
 4823TIP3   OH214474   1.244   0.250   2.485  0.1151 -0.0959 -0.9020
 4823TIP3    H114475   1.245   0.159   2.453  3.4904  0.0059 -1.4867
 4823TIP3    H214476   1.283   0.245   2.572  2.0019  0.9111 -1.6336
 4824TIP3   OH214477   2.443   5.677   1.787  0.3328 -0.1202  0.0312
 4824TIP3    H114478   2.422   5.768   1.767  0.5380 -0.1681 -0.4232
 4824TIP3    H214479   2.368   5.645   1.837 -0.1792  0.0178 -0.6387
 4825TIP3   OH214480   5.908   4.253   3.039 -0.3784 -0.0187 -0.2907
 4825TIP3    H114481   5.861   4.334   3.018  0.9192  0.7800 -0.2526
 4825TIP3    H214482   5.869   4.187   2.982 -0.7378  0.8787 -1.1153
 4826TIP3   OH214483   4.935   2.729   3.019 -0.0542 -0.2884  0.8648
 4826TIP3    H114484   4.868   2.688   2.965  0.8526  0.7947 -1.2591
 4826TIP3    H214485   4.978   2.657   3.064 -1.2094 -1.2039  0.5489
 4827TIP3   OH214486   4.822   5.108   1.532 -0.0272 -0.1184  0.5188
 4827TIP3    H114487   4.802   5.125   1.624 -1.9319  0.3344  0.0650
 4827TIP3    H214488   4.738   5.119   1.487  1.2589  2.1317 -1.6193
 4828TIP3   OH214489   4.205   2.070   0.370  0.2655  0.0255  0.2091
 4828TIP3    H114490   4.214   2.059   0.465  2.2325 -3.6985 -0.2244
 4828TIP3    H214491   4.291   2.101   0.341 -0.1136  0.4908 -0.4519
 4829TIP3   OH214492   0.703   3.175   0.789  0.0840 -0.1942  0.2748
 4829TIP3    H114493   0.764   3.111   0.753  4.2757  3.1183  0.7090
 4829TIP3    H214494   0.726   3.181   0.882 -0.0924  1.9076  0.2258
 4830TIP3   OH214495   5.711   3.611   4.592 -0.2629 -0.0310 -0.0640
 4830TIP3    H114496   5.799   3.602   4.557 -0.2563  0.5959 -0.2156
 4830TIP3    H214497   5.722   3.608   4.687 -0.1187 -0.2622 -0.0876
 4831TIP3   OH214498   5.746   3.347   1.559 -0.1443 -0.4533 -0.2046
 4831TIP3    H114499   5.689   3.322   1.632 -2.2055 -0.6200 -1.7452
 4831TIP3    H214500   5.782   3.264   1.527 -0.0413 -0.4938  0.0208
 4832TIP3   OH214501   4.839   0.719   5.087  0.0920 -0.4648 -0.6263
 4832TIP3    H114502   4.819   0.812   5.071 -1.0100 -0.9066 -2.0425
 4832TIP3    H214503   4.918   0.703   5.035 -0.2867 -0.5479 -1.1835
 4833TIP3   OH214504   3.574   2.708   5.158  0.2345  0.1837  0.0168
 4833TIP3    H114505   3.606   2.774   5.221 -2.0871 -1.0405  2.7083
 4833TIP3    H214506   3.539   2.759   5.086 -1.3047  1.9852  1.9144
 4834TIP3   OH214507   1.190   4.590   4.719  0.1556  0.6595  0.5911
 4834TIP3    H114508   1.192   4.551   4.807  0.5818  0.3835  0.4632
 4834TIP3    H214509   1.209   4.517   4.660 -0.4502  0.7814  0.2455
 4835TIP3   OH214510   6.079   5.874   2.612  0.0067 -0.2258  0.2453
 4835TIP3    H114511   6.111   5.834   2.693 -0.5337 -0.0218  0.5640
 4835TIP3    H214512   6.099   5.967   2.622 -0.3038 -0.1604  0.2648
 4836TIP3   OH214513   3.851   1.484   0.490 -0.1975  0.3456 -0.3356
 4836TIP3    H114514   3.881   1.485   0.399 -0.3527  0.4531 -0.3851
 4836TIP3    H214515   3.807   1.568   0.502  1.5577  1.2164  0.4224
 4837TIP3   OH214516   5.393   5.674   2.386 -0.0898 -0.1332 -0.2078
 4837TIP3    H114517   5.439   5.756   2.402 -0.4320 -0.2299  1.5096
 4837TIP3    H214518   5.427   5.614   2.453 -0.9986 -0.9112 -0.4144
 4838TIP3   OH214519   2.124   3.925   3.470 -0.3945 -0.1748  0.1315
 4838TIP3    H114520   2.146   4.010   3.509  0.5105  0.0405 -0.7964
 4838TIP3    H214521   2.207   3.893   3.434 -1.1583 -0.3937 -1.5283
 4839TIP3   OH214522   3.094   0.675   1.612 -0.0110 -0.4228 -0.1776
 4839TIP3    H114523   3.005   0.639   1.608  0.1992 -0.8162 -2.7911
 4839TIP3    H214524   3.100   0.733   1.536  1.9233 -0.2865  0.0264
 4840TIP3   OH214525   2.353   3.815   4.478  0.4095 -0.4299 -0.0279
 4840TIP3    H114526   2.276   3.813   4.421 -0.2806 -0.8524  0.9007
 4840TIP3    H214527   2.318   3.815   4.567  1.4888 -0.9492  0.4184
 4841TIP3   OH214528   1.827   0.768   2.104 -0.7232  0.6651 -0.0165
 4841TIP3    H114529   1.807   0.679   2.134 -1.2712  0.7525 -0.1111
 4841TIP3    H214530   1.834   0.820   2.184 -2.7135  1.0100 -0.0228
 4842TIP3   OH214531   5.021   4.251   0.761 -0.2584 -0.1385  0.1669
 4842TIP3    H114532   4.960   4.325   0.763  0.4807  0.5614 -1.4983
 4842TIP3    H214533   5.014   4.216   0.672  0.3918 -1.2412  0.5297
 4843TIP3   OH214534   2.346   4.354   4.082 -0.1909  0.2976 -0.9305
 4843TIP3    H114535   2.409   4.350   4.009 -0.7751  0.4523 -1.4511
 4843TIP3    H214536   2.296   4.273   4.075 -0.1036  0.2103 -0.5615
 4844TIP3   OH214537   2.469   0.129   4.881  0.5487 -0.1389 -0.4892
 4844TIP3    H114538   2.434   0.211   4.914  3.1776  1.0424 -0.3377
 4844TIP3    H214539   2.456   0.066   4.952  1.7641  1.1335  0.9407
 4845TIP3   OH214540   3.333   4.455   2.311 -0.8328  0.3723 -0.0223
 4845TIP3    H114541   3.428   4.445   2.315 -0.9327 -0.2857  1.9944
 4845TIP3    H214542   3.305   4.391   2.245  0.0844  0.4886 -0.5443
 4846TIP3   OH214543   2.838   4.864   2.621 -0.1506 -0.4404 -0.4978
 4846TIP3    H114544   2.901   4.890   2.554  0.0022  1.9395  0.4900
 4846TIP3    H214545   2.891   4.842   2.697 -0.4503  0.6854  0.0520
 4847TIP3   OH214546   3.452   1.579   1.187  0.2673  0.0680  0.2922
 4847TIP3    H114547   3.386   1.558   1.121  1.5177  0.2141 -1.0533
 4847TIP3    H214548   3.452   1.674   1.192  0.6763  0.0913 -0.0538
 4848TIP3   OH214549   1.278   3.275   0.130 -0.1198  0.3612 -0.4014
 4848TIP3    H114550   1.206   3.330   0.099 -1.1658 -0.6845  0.0840
 4848TIP3    H214551   1.324   3.249   0.051 -1.0824 -0.0319 -0.8454
 4849TIP3   OH214552   5.122   2.413   2.958 -0.2455  0.2162  0.2922
 4849TIP3    H114553   5.123   2.335   3.014 -1.4954  0.1309  0.2340
 4849TIP3    H214554   5.113   2.486   3.019 -0.6651  0.1899  0.2673
 4850TIP3   OH214555   4.096   3.203   2.671 -0.0194 -0.2418  0.5267
 4850TIP3    H114556   4.082   3.143   2.744  0.0087 -1.3931 -0.3802
 4850TIP3    H214557   4.191   3.199   2.655 -0.0371 -0.0746  0.3792
 4851TIP3   OH214558   3.756   0.556   4.761  0.5397  0.4733 -0.1797
 4851TIP3    H114559   3.764   0.463   4.781  2.0775  0.4683 -0.6389
 4851TIP3    H214560   3.662   0.574   4.763  0.1342 -1.3371 -1.2464
 4852TIP3   OH214561   3.169   1.527   2.568 -0.1771  0.8482 -0.0440
 4852TIP3    H114562   3.208   1.595   2.513  0.5934 -0.7044 -1.5335
 4852TIP3    H214563   3.075   1.535   2.553 -0.1638  2.0331  0.3956
 4853TIP3   OH214564   1.766   4.587   2.183  0.4685  0.8020 -0.6404
 4853TIP3    H114565   1.847   4.638   2.188  1.9212 -1.4463  0.6733
 4853TIP3    H214566   1.796   4.496   2.180 -2.0154 -0.1108  0.1658
 4854TIP3   OH214567   2.840   0.826   0.166  0.2030  0.6289  0.3574
 4854TIP3    H114568   2.748   0.829   0.191  0.3091 -0.8063  1.0586
 4854TIP3    H214569   2.868   0.917   0.162 -1.5963  1.1767 -1.2487
 4855TIP3   OH214570   2.219   3.133   1.029  0.1943  0.1146  0.0987
 4855TIP3    H114571   2.214   3.137   0.934  3.2801  0.1352 -0.1726
 4855TIP3    H214572   2.134   3.100   1.057 -0.6451 -0.2835 -2.6794
 4856TIP3   OH214573   1.319   5.802   1.951 -0.3237 -0.3939  0.0238
 4856TIP3    H114574   1.318   5.748   2.030 -0.6202  0.9458  0.9800
 4856TIP3    H214575   1.411   5.824   1.939 -0.2309 -0.9079 -0.2343
 4857TIP3   OH214576  -0.007   5.176   0.554  0.5622 -0.1116 -0.6121
 4857TIP3    H114577   0.035   5.200   0.472 -1.4899 -0.1551 -1.7563
 4857TIP3    H214578  -0.003   5.255   0.608 -2.1912  1.5758 -2.6170
 4858TIP3   OH214579   4.274   3.359   4.818  0.2794 -0.4527  0.3986
 4858TIP3    H114580   4.227   3.423   4.871  0.0598 -0.7292  0.5385
 4858TIP3    H214581   4.359   3.350   4.861  0.0781 -0.7233  0.7452
 4859TIP3   OH214582   2.793   5.222   3.958  0.0284  0.2198 -0.1400
 4859TIP3    H114583   2.857   5.287   3.988  1.3025 -0.9688 -0.1767
 4859TIP3    H214584   2.740   5.268   3.892  1.1447  1.1058 -0.4428
 4860TIP3   OH214585   1.620   2.233   4.651  0.8625  0.4833 -0.0124
 4860TIP3    H114586   1.597   2.205   4.562  0.8252 -0.4051  0.2735
 4860TIP3    H214587   1.561   2.183   4.708  1.9236 -0.1086  0.5916
 4861TIP3   OH214588   5.440   3.993   5.213 -0.8449 -0.3358 -0.2248
 4861TIP3    H114589   5.484   3.921   5.168  1.0224  0.2432  0.5967
 4861TIP3    H214590   5.372   4.021   5.152  0.6820 -0.4824 -2.0948
 4862TIP3   OH214591   2.336   1.914   3.211 -0.3609  0.0144  0.4181
 4862TIP3    H114592   2.409   1.880   3.262 -0.1470  0.9039  0.7248
 4862TIP3    H214593   2.365   1.910   3.120  0.6888  1.7735  0.6429
 4863TIP3   OH214594   4.173   3.921   1.156 -0.7988 -0.4937 -0.3740
 4863TIP3    H114595   4.128   3.848   1.198 -1.1633 -0.1151 -0.1049
 4863TIP3    H214596   4.251   3.936   1.209 -1.5991  0.4216  0.5766
 4864TIP3   OH214597   0.646   5.852   1.564 -0.6485  0.1361  0.7301
 4864TIP3    H114598   0.655   5.780   1.626  0.6176 -0.1468  0.2396
 4864TIP3    H214599   0.620   5.810   1.482 -1.9286  0.4688  0.9452
 4865TIP3   OH214600   0.960   2.886   3.217 -0.4676  0.5936  0.3990
 4865TIP3    H114601   0.904   2.951   3.259 -1.0058 -1.0501  2.4480
 4865TIP3    H214602   1.045   2.896   3.260 -0.3505  0.4377  0.2051
 4866TIP3   OH214603   5.931   3.512   1.475 -0.7109 -0.6611  0.6823
 4866TIP3    H114604   5.857   3.458   1.503 -2.6359  0.9945 -0.8460
 4866TIP3    H214605   5.957   3.475   1.390 -1.2871  0.0710  0.1712
 4867TIP3   OH214606   3.406   0.503   0.147  0.0525 -0.2784  0.2855
 4867TIP3    H114607   3.435   0.414   0.169  1.6132 -0.0638 -0.7557
 4867TIP3    H214608   3.484   0.557   0.157 -0.4181  0.6581 -0.8859
 4868TIP3   OH214609   4.529   3.276   4.969 -0.0734 -0.6374 -0.2246
 4868TIP3    H114610   4.476   3.271   5.048 -1.6935 -1.8231 -1.3228
 4868TIP3    H214611   4.521   3.190   4.928 -0.8910  0.4909 -2.6591
 4869TIP3   OH214612   1.699   1.434   2.531 -0.2753  0.3239  0.1667
 4869TIP3    H114613   1.696   1.353   2.480  0.4640  0.1645  0.3718
 4869TIP3    H214614   1.609   1.468   2.528 -0.3024  0.1692 -0.9964
 4870TIP3   OH214615   5.247   0.588   2.238  0.1382 -0.0262  0.1516
 4870TIP3    H114616   5.158   0.557   2.254 -0.4984  2.1216  1.1983
 4870TIP3    H214617   5.298   0.557   2.313 -0.3568  0.8493  0.8788
 4871TIP3   OH214618   5.337   2.966   5.038  0.4663  0.4905  0.2202
 4871TIP3    H114619   5.356   3.043   5.092  1.4767  0.3821  0.0250
 4871TIP3    H214620   5.366   2.892   5.091  1.8079  0.4026 -0.5944
 4872TIP3   OH214621   1.252   2.608   0.153 -0.2603 -0.7458  0.5065
 4872TIP3    H114622   1.164   2.645   0.150  0.2139  0.5341  1.6066
 4872TIP3    H214623   1.286   2.619   0.064 -0.0529  1.7637  0.8305
 4873TIP3   OH214624   6.002   0.374   4.453 -0.0721  0.1726 -0.0191
 4873TIP3    H114625   6.056   0.450   4.477 -1.9732  1.7047 -0.3579
 4873TIP3    H214626   6.029   0.306   4.514 -0.0273  1.8920  2.0122
 4874TIP3   OH214627   2.023   0.378   4.856 -0.3484 -0.3314 -0.5856
 4874TIP3    H114628   2.051   0.463   4.889 -2.7060  0.3971 -0.2648
 4874TIP3    H214629   2.088   0.355   4.790  0.4226  1.6487 -0.5775
 4875TIP3   OH214630   0.239   2.643   4.548  0.2408 -0.4315  0.0979
 4875TIP3    H114631   0.153   2.682   4.540  0.3972 -0.0351  0.3610
 4875TIP3    H214632   0.288   2.702   4.605  0.4780 -1.0013  0.4994
 4876TIP3   OH214633   2.686   4.062   5.087 -0.2478 -0.0109  0.1129
 4876TIP3    H114634   2.635   4.143   5.093  0.3968  0.4395 -0.4221
 4876TIP3    H214635   2.747   4.066   5.160 -0.4982 -0.2170  0.3355
 4877TIP3   OH214636   6.257   2.125   1.700 -0.5964  0.3252 -0.4006
 4877TIP3    H114637   6.195   2.198   1.709 -0.9683  0.2705 -2.1768
 4877TIP3    H214638   6.271   2.095   1.790 -2.2008  1.1308  0.1620
 4878TIP3   OH214639   2.815   2.446   3.771 -0.3079  0.1023  0.0968
 4878TIP3    H114640   2.860   2.370   3.808  1.8749  0.6668 -1.1856
 4878TIP3    H214641   2.757   2.409   3.704 -2.6920 -0.7248  2.4429
 4879TIP3   OH214642   4.700   5.887   2.070 -0.3656  0.2939  0.3101
 4879TIP3    H114643   4.630   5.952   2.063  0.4469  1.1861  0.3131
 4879TIP3    H214644   4.693   5.837   1.988 -1.3602 -0.0163  0.5611
 4880TIP3   OH214645   1.905   3.876   0.224  0.1071  0.2321 -0.7156
 4880TIP3    H114646   1.908   3.965   0.190 -1.2478  0.5766 -0.0373
 4880TIP3    H214647   1.979   3.870   0.284 -0.5951  1.3953  0.3169
 4881TIP3   OH214648   2.015   2.906   3.719  0.3744  0.0668 -0.4974
 4881TIP3    H114649   2.028   2.845   3.791 -1.1758 -0.7073 -0.8228
 4881TIP3    H214650   2.102   2.939   3.699  1.1583 -1.4676  0.1972
 4882TIP3   OH214651   3.450   2.615   1.761  0.1653 -0.2844  0.7246
 4882TIP3    H114652   3.538   2.599   1.795  0.5784  1.2435  0.4531
 4882TIP3    H214653   3.391   2.577   1.827  1.0225 -0.8083  1.1963
 4883TIP3   OH214654   5.274   0.968   0.212  0.4823 -0.7554  0.0332
 4883TIP3    H114655   5.354   0.982   0.263  1.0721 -0.9668 -0.8198
 4883TIP3    H214656   5.299   0.988   0.122 -0.7940  0.5404 -0.0715
 4884TIP3   OH214657   1.360   2.111   0.855  0.1018 -0.8071 -0.4420
 4884TIP3    H114658   1.420   2.036   0.857  0.1075 -0.8815 -2.0561
 4884TIP3    H214659   1.353   2.133   0.762 -0.0428  1.0981 -0.0077
 4885TIP3   OH214660   3.631   5.927   4.856 -0.0184  0.4093  0.4287
 4885TIP3    H114661   3.716   5.929   4.811 -0.2402 -0.1560 -0.0244
 4885TIP3    H214662   3.648   5.881   4.938  0.4481  1.6829  1.0678
 4886TIP3   OH214663   1.614   5.460   2.675  0.2896 -0.7258  0.0643
 4886TIP3    H114664   1.706   5.435   2.666  0.7649  0.8144  0.2111
 4886TIP3    H214665   1.567   5.405   2.613  1.3347 -1.4084 -0.1451
 4887TIP3   OH214666   5.887   1.237   2.213  0.0575 -0.1632  0.1338
 4887TIP3    H114667   5.881   1.187   2.132  0.7872 -1.8925  1.0854
 4887TIP3    H214668   5.797   1.266   2.230  0.1310  1.6486 -2.0690
 4888TIP3   OH214669   0.779   1.751   3.756 -0.1174  0.0333 -0.4378
 4888TIP3    H114670   0.728   1.670   3.760 -2.6990  1.5441  0.9746
 4888TIP3    H214671   0.829   1.751   3.838 -1.9057  0.8120  0.7334
 4889TIP3   OH214672   5.330   5.672   2.013  0.1858  0.1572  0.0155
 4889TIP3    H114673   5.419   5.669   1.980 -0.3087 -1.6885 -1.2966
 4889TIP3    H214674   5.281   5.719   1.945 -0.0954 -0.1318  0.0130
 4890TIP3   OH214675   0.938   1.444   2.656 -0.1203 -0.0198  0.1821
 4890TIP3    H114676   0.995   1.477   2.587 -0.7929  0.6977 -0.0521
 4890TIP3    H214677   0.973   1.358   2.678 -0.6583 -0.8545 -1.9835
 4891TIP3   OH214678   0.215   2.785   0.446 -0.0552  0.3939  0.2036
 4891TIP3    H114679   0.206   2.878   0.427 -1.6151  0.4151  0.9127
 4891TIP3    H214680   0.126   2.750   0.442  0.7623 -1.8800 -3.7442
 4892TIP3   OH214681   4.812   4.484   4.709  0.1890  0.2530  0.0969
 4892TIP3    H114682   4.877   4.514   4.646  1.2220  1.0772  1.4815
 4892TIP3    H214683   4.731   4.530   4.684  0.3762 -0.0352 -1.0687
 4893TIP3   OH214684   5.708   3.692   3.257 -0.3362  0.1469  0.1942
 4893TIP3    H114685   5.733   3.758   3.192  1.1886  0.5732  1.1676
 4893TIP3    H214686   5.644   3.737   3.313 -0.4831  0.2826 -0.0791
 4894TIP3   OH214687   4.292   5.337   2.313 -0.1212  0.4440 -0.1179
 4894TIP3    H114688   4.323   5.329   2.403  1.3778  1.3542 -0.5299
 4894TIP3    H214689   4.339   5.412   2.277 -2.1796  1.3749 -1.0748
 4895TIP3   OH214690   5.753   0.237   4.724  0.1795 -0.1804  0.5368
 4895TIP3    H114691   5.684   0.212   4.786  1.1730 -3.1839  0.5730
 4895TIP3    H214692   5.734   0.329   4.704 -2.6686 -0.3223  2.0090
 4896TIP3   OH214693   3.478   3.042   0.899 -0.1787  0.5111  0.0178
 4896TIP3    H114694   3.555   2.985   0.895 -0.8974 -0.8135  2.6555
 4896TIP3    H214695   3.511   3.129   0.876  1.6071 -0.4049 -1.1004
 4897TIP3   OH214696   3.426   5.090   1.202 -0.5292  0.1269  1.0019
 4897TIP3    H114697   3.477   5.171   1.198 -1.4576  0.7854  1.8990
 4897TIP3    H214698   3.445   5.053   1.288 -0.4724 -0.3678  0.7817
 4898TIP3   OH214699   0.236   2.153   0.302  0.2624 -0.3254  0.2377
 4898TIP3    H114700   0.209   2.065   0.327  0.5443 -1.0773 -1.9258
 4898TIP3    H214701   0.328   2.145   0.278  0.2456  0.5117 -0.1645
 4899TIP3   OH214702   4.538   2.882   2.507  0.0311  0.1743 -0.1946
 4899TIP3    H114703   4.562   2.846   2.592  1.0410 -0.1602 -0.5987
 4899TIP3    H214704   4.603   2.846   2.447 -1.2993 -0.4400 -1.3055
 4900TIP3   OH214705   0.213   4.909   0.418  0.9143  0.4811 -0.5360
 4900TIP3    H114706   0.233   4.885   0.328 -1.1232 -1.3289 -0.5998
 4900TIP3    H214707   0.161   4.836   0.451 -1.4686  2.6534  0.9440
 4901TIP3   OH214708   3.905   5.675   2.611 -0.5330  0.6376  0.0703
 4901TIP3    H114709   3.849   5.748   2.585 -0.3648  0.5766 -0.4650
 4901TIP3    H214710   3.896   5.611   2.540  0.6048  0.8385 -0.2773
 4902TIP3   OH214711   0.735   5.406   1.940 -0.7824 -0.3134  0.1124
 4902TIP3    H114712   0.780   5.354   1.873  0.7184 -0.7784  1.4307
 4902TIP3    H214713   0.656   5.355   1.961 -0.4003 -0.9994 -0.1113
 4903TIP3   OH214714   2.553   4.672   0.831 -0.3340  0.1785  0.0543
 4903TIP3    H114715   2.500   4.609   0.783  1.3971  0.0382 -1.8289
 4903TIP3    H214716   2.643   4.650   0.806  0.3457  3.2474 -0.5414
 4904TIP3   OH214717   3.790   5.541   4.962 -0.4833 -0.0191 -0.8520
 4904TIP3    H114718   3.786   5.501   4.876  0.8199  0.0969 -0.9789
 4904TIP3    H214719   3.877   5.519   4.996 -0.8944  0.1102  0.3469
 4905TIP3   OH214720   2.383   5.514   0.554  0.3022 -0.5797 -0.2819
 4905TIP3    H114721   2.371   5.438   0.611  0.0313  0.1263  0.6256
 4905TIP3    H214722   2.303   5.517   0.501  0.1467 -0.6992 -0.0549
 4906TIP3   OH214723   1.157   4.087   4.286  0.3556  0.3352  0.0362
 4906TIP3    H114724   1.191   4.076   4.375  1.6889 -0.7507 -0.5606
 4906TIP3    H214725   1.110   4.005   4.269  2.0866 -0.4887 -1.0404
 4907TIP3   OH214726   1.482   5.678   4.700  0.5049 -0.1839 -0.7070
 4907TIP3    H114727   1.549   5.610   4.697  0.0019 -0.6551 -2.0903
 4907TIP3    H214728   1.476   5.710   4.610 -0.7425  0.2301 -0.4948
 4908TIP3   OH214729   3.452   3.205   4.423 -0.5829  0.5963 -0.2230
 4908TIP3    H114730   3.507   3.134   4.455 -0.8354  0.1229 -0.8069
 4908TIP3    H214731   3.506   3.284   4.430 -0.2196  0.3081  0.2125
 4909TIP3   OH214732   0.507   3.964   3.984  0.0656  0.2420  0.2797
 4909TIP3    H114733   0.423   3.956   3.940 -0.0706  2.0846  0.1008
 4909TIP3    H214734   0.520   4.059   3.993  1.0452 -0.0295  2.3485
 4910TIP3   OH214735   1.043   0.896   3.315 -0.1531  0.1162  0.0578
 4910TIP3    H114736   1.113   0.834   3.336 -1.5732 -1.2094  1.1214
 4910TIP3    H214737   1.010   0.867   3.230 -1.8070 -1.6217  1.2204
 4911TIP3   OH214738   0.424   0.017   4.154  0.4514 -0.2642 -0.1587
 4911TIP3    H114739   0.341  -0.020   4.185  0.2777 -0.6002 -0.9769
 4911TIP3    H214740   0.484   0.008   4.228  0.2772 -1.7512 -0.1626
 4912TIP3   OH214741   1.955   5.687   4.077 -0.0533 -0.1986  0.4225
 4912TIP3    H114742   1.960   5.601   4.035 -1.4508  0.9078 -2.2494
 4912TIP3    H214743   1.868   5.719   4.056  0.2675  1.7195  1.7399
 4913TIP3   OH214744   2.990   1.856   4.342  0.0927 -0.1684 -0.0330
 4913TIP3    H114745   2.929   1.883   4.411 -1.1041 -1.0167 -0.7119
 4913TIP3    H214746   2.965   1.765   4.323  1.9325 -0.7141  0.0168
 4914TIP3   OH214747   0.752   2.181   4.277  0.1894  0.6421 -0.2212
 4914TIP3    H114748   0.745   2.162   4.371  1.4164 -1.3537 -0.4779
 4914TIP3    H214749   0.690   2.252   4.263  1.3028  2.3039  2.4396
 4915TIP3   OH214750   4.992   1.777   4.392  0.0301 -0.1534  0.1932
 4915TIP3    H114751   5.022   1.820   4.312 -1.0011  1.3254  0.5669
 4915TIP3    H214752   5.036   1.691   4.390 -0.1811 -0.2896 -2.0793
 4916TIP3   OH214753   0.281   4.724   1.547  0.0142  0.7079 -0.0586
 4916TIP3    H114754   0.251   4.677   1.625  1.3559  0.8364  0.5585
 4916TIP3    H214755   0.238   4.679   1.474 -0.3749 -0.1263  0.6694
 4917TIP3   OH214756   1.080   3.543   4.167  0.2764  0.4905 -0.2081
 4917TIP3    H114757   1.168   3.556   4.131  0.5703 -0.2359  0.2159
 4917TIP3    H214758   1.066   3.448   4.161 -0.5498  0.6186 -0.4272
 4918TIP3   OH214759   2.751   4.140   1.826 -0.4853 -0.0380  0.1690
 4918TIP3    H114760   2.725   4.220   1.871 -0.4392  0.0648  0.0107
 4918TIP3    H214761   2.844   4.150   1.809 -0.4024 -0.2762  0.4611
 4919TIP3   OH214762   2.223   4.390   2.676  0.0764 -0.0430 -0.1347
 4919TIP3    H114763   2.224   4.423   2.766 -0.6310  0.4751 -0.3122
 4919TIP3    H214764   2.297   4.434   2.634 -1.0298  1.6223 -0.4561
 4920TIP3   OH214765   4.191   0.646   2.837  0.0692 -0.2284  0.1030
 4920TIP3    H114766   4.199   0.719   2.775  1.5382 -0.3622  0.0882
 4920TIP3    H214767   4.201   0.688   2.923  1.5507 -0.4530  0.0690
 4921TIP3   OH214768   6.036   5.481   1.072 -0.0356  0.6074 -0.5105
 4921TIP3    H114769   6.118   5.447   1.108  1.3166  2.1580 -1.9548
 4921TIP3    H214770   6.036   5.574   1.095 -0.1848  1.1622 -2.5443
 4922TIP3   OH214771   5.006   2.435   1.748 -0.1309  0.3502 -0.0973
 4922TIP3    H114772   5.082   2.429   1.691 -0.4468 -1.1305 -0.3863
 4922TIP3    H214773   5.013   2.523   1.787  2.8702 -0.4349  1.4971
 4923TIP3   OH214774   0.596   5.160   2.909  0.1273  0.4132 -0.6151
 4923TIP3    H114775   0.570   5.169   2.818  1.0154  0.7774 -0.8402
 4923TIP3    H214776   0.692   5.160   2.907  0.1551 -0.0279  0.2727
 4924TIP3   OH214777   2.919   2.873   2.316 -0.0016 -0.0550  0.3177
 4924TIP3    H114778   2.824   2.860   2.311  0.0466 -0.4621  0.4588
 4924TIP3    H214779   2.948   2.865   2.225 -0.0226 -0.5502  0.3536
 4925TIP3   OH214780   5.892   1.364   1.581 -0.1925  0.0376  0.7975
 4925TIP3    H114781   5.802   1.389   1.562 -0.1899 -0.3674  0.2338
 4925TIP3    H214782   5.945   1.438   1.551 -0.2085 -0.4796 -0.5615
 4926TIP3   OH214783   1.077   4.089   3.454 -0.5457 -0.0534  0.0672
 4926TIP3    H114784   1.037   4.106   3.369 -1.5355  2.0618  0.8733
 4926TIP3    H214785   1.170   4.075   3.435 -0.9738 -1.0640 -1.4580
 4927TIP3   OH214786   2.573   5.674   3.442 -0.6803 -0.0732  0.6463
 4927TIP3    H114787   2.519   5.729   3.385  1.2848  0.5170 -0.7354
 4927TIP3    H214788   2.572   5.588   3.400  0.8705  0.3927 -0.4302
 4928TIP3   OH214789   3.703   3.976   1.869  0.4578  0.2403  0.4157
 4928TIP3    H114790   3.709   3.970   1.965 -0.1208  0.6319  0.4794
 4928TIP3    H214791   3.682   3.887   1.841  0.0029  0.2506  0.7078
 4929TIP3   OH214792   1.818   1.189   2.357 -0.7984  0.1214  0.1625
 4929TIP3    H114793   1.876   1.139   2.415  2.1309 -0.0926 -2.6633
 4929TIP3    H214794   1.750   1.127   2.332  0.6520 -1.3569 -0.3197
 4930TIP3   OH214795   0.440   4.198   0.325  0.5946  0.0297 -0.7987
 4930TIP3    H114796   0.526   4.158   0.315  1.3480  0.9846  1.3568
 4930TIP3    H214797   0.438   4.229   0.416 -1.3641  1.5492 -1.2890
 4931TIP3   OH214798   3.719   1.432   3.716 -0.2897 -0.8602  0.0252
 4931TIP3    H114799   3.653   1.367   3.742  0.4400 -1.7064 -0.1915
 4931TIP3    H214800   3.681   1.475   3.640 -0.3522 -1.7370 -0.4529
 4932TIP3   OH214801   3.278   2.989   5.062 -0.1106  0.0074  0.1649
 4932TIP3    H114802   3.228   2.914   5.093  1.3469 -0.7370  0.8004
 4932TIP3    H214803   3.301   3.036   5.143 -0.7860  1.0092 -0.2079
 4933TIP3   OH214804   0.435   3.129   5.166  0.2668 -0.5470  0.3628
 4933TIP3    H114805   0.528   3.119   5.184  0.3909  0.3061  0.2533
 4933TIP3    H214806   0.427   3.217   5.128 -0.5396 -0.7291  0.0855
 4934TIP3   OH214807   4.931   1.063   2.692  0.0703  0.5023 -0.1001
 4934TIP3    H114808   4.932   1.015   2.775  1.0073  0.9633  0.1811
 4934TIP3    H214809   5.010   1.118   2.696  0.4441  0.1141 -1.5409
 4935TIP3   OH214810   1.354   2.391   4.928 -0.2378 -0.6820  0.3629
 4935TIP3    H114811   1.384   2.463   4.873 -2.3661  0.2191  0.2923
 4935TIP3    H214812   1.434   2.347   4.956  0.9914 -0.0722 -1.9665
 4936TIP3   OH214813   5.672   5.263   4.947 -0.0217 -0.2089  0.4958
 4936TIP3    H114814   5.643   5.353   4.937 -2.4621 -0.8790  0.9050
 4936TIP3    H214815   5.597   5.210   4.918  2.1855 -2.1839 -2.2677
 4937TIP3   OH214816   0.501   2.995   2.330  0.1500 -0.0443  0.3760
 4937TIP3    H114817   0.496   3.023   2.422 -0.8040 -0.2060  0.3750
 4937TIP3    H214818   0.508   2.900   2.334 -0.0657 -0.0641  0.2737
 4938TIP3   OH214819   5.196   0.892   2.427 -0.5704  0.0372 -0.1208
 4938TIP3    H114820   5.109   0.877   2.465 -0.9975 -2.0822 -1.7604
 4938TIP3    H214821   5.256   0.847   2.487 -0.9945 -1.3603 -0.7161
 4939TIP3   OH214822   4.872   2.968   2.773 -0.7144  0.0517 -0.1982
 4939TIP3    H114823   4.826   2.956   2.856  0.1035 -1.5608  0.0616
 4939TIP3    H214824   4.870   2.882   2.732  1.2793  0.1335 -0.5797
 4940TIP3   OH214825   0.559   4.665   0.228  0.0840 -0.8113 -0.4134
 4940TIP3    H114826   0.565   4.617   0.146  0.6279 -0.7370 -0.4247
 4940TIP3    H214827   0.531   4.601   0.293 -0.4070 -0.8563 -0.6651
 4941TIP3   OH214828   0.865   1.697   0.974  0.1080 -0.2851 -0.0058
 4941TIP3    H114829   0.863   1.612   1.018  1.0862  0.3718  1.3660
 4941TIP3    H214830   0.857   1.761   1.044  0.3796  0.7851 -0.9176
 4942TIP3   OH214831   4.329   0.456   1.511 -0.3130 -0.0539  0.8278
 4942TIP3    H114832   4.373   0.444   1.596  0.0788  0.5621  0.7184
 4942TIP3    H214833   4.400   0.478   1.451 -0.4283 -1.6524  0.0746
 4943TIP3   OH214834   0.618   1.874   3.523 -0.6618 -0.4106 -0.0398
 4943TIP3    H114835   0.710   1.861   3.504 -0.0592  3.6842 -0.9358
 4943TIP3    H214836   0.614   1.890   3.617  0.0344  1.7364 -0.3188
 4944TIP3   OH214837   2.943   1.337   3.912  0.4965  0.2556 -0.2393
 4944TIP3    H114838   2.948   1.246   3.884 -0.2512 -0.0713  0.6293
 4944TIP3    H214839   2.875   1.337   3.980 -1.6689  1.9535 -2.2580
 4945TIP3   OH214840   2.526   3.448   2.728 -0.2609  0.1170  0.2071
 4945TIP3    H114841   2.485   3.501   2.659 -0.1812  0.0137  0.0808
 4945TIP3    H214842   2.609   3.492   2.746  0.2984 -0.5615 -0.6495
 4946TIP3   OH214843   2.250   0.871   1.224  0.5636 -0.3527  0.1808
 4946TIP3    H114844   2.344   0.869   1.210  0.7564  1.4057  0.9883
 4946TIP3    H214845   2.213   0.831   1.145  1.9575 -1.1698 -0.1007
 4947TIP3   OH214846   1.153   3.579   2.380  0.0221 -0.0622 -0.1561
 4947TIP3    H114847   1.204   3.585   2.461 -1.0090 -0.1351  0.5172
 4947TIP3    H214848   1.123   3.488   2.378 -1.6355  0.4404  0.4503
 4948TIP3   OH214849   3.607   0.884   1.582  0.1599 -0.3766  0.2428
 4948TIP3    H114850   3.700   0.866   1.567  0.2551  0.6302 -0.4531
 4948TIP3    H214851   3.566   0.871   1.497  0.2510  2.5688 -0.3682
 4949TIP3   OH214852   2.873   4.106   3.129 -0.0855 -0.5399 -0.3008
 4949TIP3    H114853   2.861   4.193   3.092  0.8087 -0.4326 -0.3772
 4949TIP3    H214854   2.893   4.050   3.054  0.7082 -0.5272 -0.1103
 4950TIP3   OH214855   5.043   4.652   3.267  0.2317  1.2419  0.4619
 4950TIP3    H114856   5.069   4.571   3.224  0.3535  0.7648  1.3918
 4950TIP3    H214857   5.121   4.680   3.316  0.5572  2.5526 -0.7448
 4951TIP3   OH214858   3.230   4.379   4.559  0.2150  0.4445  0.1293
 4951TIP3    H114859   3.201   4.382   4.468  0.9803 -2.5077 -0.3151
 4951TIP3    H214860   3.325   4.379   4.554  0.2934 -1.4380  0.7402
 4952TIP3   OH214861   2.214   4.783   3.010  0.5503 -0.1491  0.8434
 4952TIP3    H114862   2.156   4.860   3.013 -0.5959 -0.8628 -1.0051
 4952TIP3    H214863   2.178   4.729   2.940  2.3085 -1.6084  0.9905
 4953TIP3   OH214864   5.344   4.794   2.072  0.3837 -0.2004  0.1104
 4953TIP3    H114865   5.368   4.862   2.008  0.8006  0.9009  1.3903
 4953TIP3    H214866   5.394   4.817   2.151 -2.8147  0.6084  2.0495
 4954TIP3   OH214867   4.902   1.649   0.850 -0.7910 -0.0782 -0.0731
 4954TIP3    H114868   4.934   1.587   0.785 -1.2434  0.5559 -0.9156
 4954TIP3    H214869   4.977   1.704   0.871 -0.7321 -0.0676 -0.3138
 4955TIP3   OH214870   3.942   2.809   4.271 -0.0987  0.3259 -0.5355
 4955TIP3    H114871   3.989   2.874   4.323  0.7169  0.4826 -1.4434
 4955TIP3    H214872   3.932   2.734   4.330  0.7057  0.5439 -0.1050
 4956TIP3   OH214873   1.151   2.538   3.354  0.0936  0.1271  0.5388
 4956TIP3    H114874   1.211   2.525   3.427  0.7498  1.4728  0.2753
 4956TIP3    H214875   1.175   2.470   3.290  3.1037  2.0983 -0.6540
 4957TIP3   OH214876   1.228   2.332   3.154 -1.0345  0.2738 -0.2152
 4957TIP3    H114877   1.200   2.257   3.207 -2.6603  1.0283  0.0760
 4957TIP3    H214878   1.172   2.329   3.076  0.3623 -0.0075 -1.2373
 4958TIP3   OH214879   4.341   4.153   4.281 -0.7129  0.1609 -0.5459
 4958TIP3    H114880   4.382   4.171   4.196  0.6116  0.2421  0.0929
 4958TIP3    H214881   4.366   4.062   4.301  2.0053  1.1992  1.3499
 4959TIP3   OH214882   3.378   0.890   4.750 -0.1156  0.3901  0.1097
 4959TIP3    H114883   3.377   0.979   4.785 -0.0526  0.5361 -0.2577
 4959TIP3    H214884   3.468   0.860   4.764  0.1741  0.8015 -0.8009
 4960TIP3   OH214885   3.374   1.327   4.080 -0.1654  0.5336 -0.7125
 4960TIP3    H114886   3.318   1.394   4.040  1.7707  2.3454 -0.5110
 4960TIP3    H214887   3.463   1.362   4.073  0.8836 -1.8710 -0.2557
 4961TIP3   OH214888   6.121   5.059   1.682  0.3956  0.0545 -0.5122
 4961TIP3    H114889   6.043   5.080   1.734  0.0333  1.6948 -1.6435
 4961TIP3    H214890   6.087   5.036   1.596  1.1617  2.8996 -1.6877
 4962TIP3   OH214891   0.714   3.551   3.649  0.2063  0.6803 -0.5848
 4962TIP3    H114892   0.720   3.510   3.563  0.9167  1.6188 -0.9949
 4962TIP3    H214893   0.719   3.645   3.632 -3.1152  1.1302  0.1560
 4963TIP3   OH214894   4.241   1.532   0.882 -0.6190 -0.2866 -0.2981
 4963TIP3    H114895   4.328   1.569   0.895 -0.5080 -0.2443 -1.0727
 4963TIP3    H214896   4.255   1.462   0.818 -1.0043 -0.9347  0.3134
 4964TIP3   OH214897   3.934   2.415   4.060  0.0985  0.0911  0.5151
 4964TIP3    H114898   3.964   2.325   4.067  0.3824  0.2173  0.9717
 4964TIP3    H214899   3.969   2.458   4.138  0.6060  0.7747 -0.0709
 4965TIP3   OH214900   5.792   2.273   2.582 -0.4747 -0.6572  0.0737
 4965TIP3    H114901   5.760   2.341   2.522 -0.5282  1.0665  1.9819
 4965TIP3    H214902   5.866   2.234   2.535 -2.0415 -1.1817 -2.1899
 4966TIP3   OH214903   3.366   0.184   1.568 -0.3493  0.3299  0.0175
 4966TIP3    H114904   3.426   0.119   1.606 -0.6195 -2.2251 -3.4555
 4966TIP3    H214905   3.284   0.135   1.553 -1.3808  2.1492 -0.6109
 4967TIP3   OH214906   4.914   1.438   4.327  0.2343 -0.4239  0.0259
 4967TIP3    H114907   4.831   1.416   4.368 -0.3843 -0.8966 -1.3983
 4967TIP3    H214908   4.890   1.476   4.242  1.3837  2.8210  1.0235
 4968TIP3   OH214909   2.839   0.297   3.555  0.5791 -0.7462  0.2981
 4968TIP3    H114910   2.747   0.305   3.527  0.6773  0.2486  0.2276
 4968TIP3    H214911   2.889   0.335   3.483  0.8012  2.6521  2.0494
 4969TIP3   OH214912   1.242   5.266   2.633  0.0258  0.1190 -0.0954
 4969TIP3    H114913   1.250   5.251   2.539 -2.1137 -1.4648 -0.0862
 4969TIP3    H214914   1.264   5.182   2.673 -2.2227 -0.2096  0.5921
 4970TIP3   OH214915   3.986   2.462   0.866 -0.3636 -0.1146 -0.2721
 4970TIP3    H114916   3.932   2.434   0.940 -1.9145 -0.6600 -1.5242
 4970TIP3    H214917   4.076   2.443   0.892 -0.8707 -0.3268  1.4311
 4971TIP3   OH214918   0.679   3.475   0.932  0.5679  0.4818 -0.2314
 4971TIP3    H114919   0.618   3.404   0.951  1.1647 -0.5978 -2.0586
 4971TIP3    H214920   0.654   3.545   0.992 -1.5198 -0.4400  0.0664
 4972TIP3   OH214921   6.164   5.268   2.784  0.5743 -0.0200 -0.5265
 4972TIP3    H114922   6.132   5.222   2.862 -1.9233  2.0024 -0.2306
 4972TIP3    H214923   6.115   5.228   2.712 -1.2369  1.6778 -0.3245
 4973TIP3   OH214924   3.955   3.671   3.026  0.0491  0.5241 -0.2211
 4973TIP3    H114925   3.921   3.583   3.008 -1.3643  1.1284 -0.6651
 4973TIP3    H214926   4.038   3.656   3.071  0.2181 -1.0349 -0.9753
 4974TIP3   OH214927   1.947   1.693   4.994  0.2097  0.1718  0.4203
 4974TIP3    H114928   1.870   1.705   4.938  0.6683  0.9278 -0.0857
 4974TIP3    H214929   1.919   1.720   5.081 -1.0416 -2.7457  1.0083
 4975TIP3   OH214930   3.127   4.770   3.563 -0.0727  0.6998 -0.1774
 4975TIP3    H114931   3.089   4.783   3.650  0.2190  2.0165 -0.2355
 4975TIP3    H214932   3.119   4.676   3.548 -1.4585  0.6530  0.6651
 4976TIP3   OH214933   5.401   4.363   4.315 -0.5918  0.1059  0.7129
 4976TIP3    H114934   5.377   4.349   4.406 -0.6783  1.6181  0.9491
 4976TIP3    H214935   5.321   4.345   4.265 -0.1251 -2.2931  0.7476
 4977TIP3   OH214936   0.631   2.534   2.706 -0.0356  0.0424 -0.2327
 4977TIP3    H114937   0.537   2.550   2.694  0.0966  0.6804 -0.4390
 4977TIP3    H214938   0.635   2.445   2.742 -0.6541 -0.5964 -1.6315
 4978TIP3   OH214939   2.776   0.328   4.131  0.1926 -0.2474 -0.3740
 4978TIP3    H114940   2.770   0.280   4.048  0.4780 -0.8546 -0.0503
 4978TIP3    H214941   2.774   0.260   4.198  4.7909 -0.3075  0.0358
 4979TIP3   OH214942   2.245   0.595   3.386  0.1178  0.0428  0.0414
 4979TIP3    H114943   2.282   0.534   3.321  0.7401 -1.5886  1.8338
 4979TIP3    H214944   2.257   0.551   3.470 -1.1900  1.8288  1.2409
 4980TIP3   OH214945   6.070   4.184   1.023  0.1905 -0.2967 -0.2638
 4980TIP3    H114946   6.053   4.187   1.117  0.6285  2.3270 -0.1966
 4980TIP3    H214947   6.166   4.184   1.016  0.1614 -0.5346 -0.7034
 4981TIP3   OH214948   3.097   5.683   2.348 -0.3446 -0.1400 -0.5529
 4981TIP3    H114949   3.037   5.722   2.285 -0.6571 -1.1305 -0.8827
 4981TIP3    H214950   3.049   5.686   2.431 -0.6454 -0.4505 -0.7140
 4982TIP3   OH214951   1.548   2.751   5.085 -0.2230  0.0501 -0.0544
 4982TIP3    H114952   1.556   2.699   5.164  0.3518 -0.7205 -0.6047
 4982TIP3    H214953   1.456   2.776   5.081 -0.4551 -0.7373  0.3404
 4983TIP3   OH214954   5.539   2.824   1.098 -0.3104  0.7751  0.8558
 4983TIP3    H114955   5.450   2.799   1.075  0.0061  1.3996 -1.2571
 4983TIP3    H214956   5.547   2.915   1.069  1.4308  0.2816 -0.3655
 4984TIP3   OH214957   3.072   5.899   0.822 -0.3176  0.1357 -0.0556
 4984TIP3    H114958   3.039   5.879   0.735  2.4653  1.9886 -1.6918
 4984TIP3    H214959   3.113   5.817   0.852  1.0639  0.1728 -1.7162
 4985TIP3   OH214960   4.997   1.563   2.080  0.2376  0.1483 -0.6049
 4985TIP3    H114961   5.006   1.506   2.004 -1.9310 -1.2756  0.1187
 4985TIP3    H214962   5.015   1.506   2.155 -0.3486  0.8266  0.0631
 4986TIP3   OH214963   5.040   2.107   1.825  0.1688  0.8320  0.4071
 4986TIP3    H114964   5.066   2.135   1.738 -0.5739  1.3163  0.3369
 4986TIP3    H214965   5.082   2.021   1.836 -0.2087  0.4983 -0.6557
 4987TIP3   OH214966   3.498   3.992   5.120  0.2196 -0.2353  0.1714
 4987TIP3    H114967   3.408   3.995   5.086  0.5425 -0.7414 -0.7626
 4987TIP3    H214968   3.547   4.054   5.066  0.5086 -0.2326  0.4360
 4988TIP3   OH214969   0.698   1.892   1.651  0.2897  0.1545  0.1897
 4988TIP3    H114970   0.657   1.805   1.655  0.7706 -0.2643 -2.3538
 4988TIP3    H214971   0.739   1.902   1.736 -2.0039 -0.9453  1.5353
 4989TIP3   OH214972   2.357   5.291   0.702 -0.3959  0.0977  0.3130
 4989TIP3    H114973   2.308   5.213   0.725 -0.2733  0.1875  0.8879
 4989TIP3    H214974   2.449   5.266   0.714 -0.3960  0.7901  2.0365
 4990TIP3   OH214975   2.754   1.856   0.231  0.3248 -0.0657  0.2201
 4990TIP3    H114976   2.822   1.844   0.298 -2.2847  1.2920  3.3947
 4990TIP3    H214977   2.773   1.942   0.193 -0.4792  1.1604  2.3951
 4991TIP3   OH214978   2.880   4.507   1.751 -0.2578 -0.3833 -0.4593
 4991TIP3    H114979   2.916   4.481   1.836 -0.9972 -1.9079 -0.5839
 4991TIP3    H214980   2.811   4.569   1.772 -0.0766 -0.3392  0.0203
 4992TIP3   OH214981   2.802   4.372   3.074 -0.1747  0.3712  0.8987
 4992TIP3    H114982   2.723   4.423   3.055 -0.1247  0.0511 -0.2707
 4992TIP3    H214983   2.818   4.386   3.167 -0.7460  1.6609  0.8274
 4993TIP3   OH214984   0.841   5.174   3.020  0.8268  0.4222 -0.3251
 4993TIP3    H114985   0.830   5.149   3.112 -1.0040 -2.7263 -1.2412
 4993TIP3    H214986   0.933   5.156   3.001  0.8863 -0.2367  0.5447
 4994TIP3   OH214987   2.452   4.300   4.337 -0.4939 -0.3980  0.0846
 4994TIP3    H114988   2.391   4.237   4.374 -0.5724 -0.6705 -0.5020
 4994TIP3    H214989   2.411   4.329   4.255 -0.2537  0.0812  0.1280
 4995TIP3   OH214990   0.368   1.249   3.206 -0.0908  0.1752  0.3997
 4995TIP3    H114991   0.432   1.236   3.276 -1.7569 -1.4608  1.7220
 4995TIP3    H214992   0.390   1.182   3.141 -0.0227  0.0708  0.5292
 4996TIP3   OH214993   0.808   0.039   4.556 -0.1374  0.1527  0.1921
 4996TIP3    H114994   0.781  -0.050   4.533  0.6093  0.3956 -1.8885
 4996TIP3    H214995   0.729   0.092   4.542  0.1952  0.2314 -1.6344
 4997TIP3   OH214996   5.990   5.680   1.499 -0.1009  0.0795  0.4479
 4997TIP3    H114997   6.031   5.763   1.476 -1.1286  0.3893 -0.3025
 4997TIP3    H214998   5.939   5.699   1.578 -0.0895  0.0770  0.4558
 4998TIP3   OH214999   1.348   2.799   4.266 -0.1114  0.1902 -0.7324
 4998TIP3    H115000   1.369   2.891   4.252 -1.1008  0.4067 -0.8981
 4998TIP3    H215001   1.429   2.752   4.244  0.1116  0.9504 -1.5910
 4999TIP3   OH215002   0.734   5.954   1.838 -0.0216 -0.3050  0.1298
 4999TIP3    H115003   0.723   5.863   1.865 -0.8061 -0.4821 -0.7214
 4999TIP3    H215004   0.668   5.967   1.769 -1.0034  1.3553  1.2881
 5000TIP3   OH215005   5.131   1.801   3.667 -0.1779 -0.0646  0.0318
 5000TIP3    H115006   5.205   1.766   3.617 -1.9941 -1.2659 -1.9838
 5000TIP3    H215007   5.102   1.877   3.616 -1.9437 -1.1930 -0.7238
 5001TIP3   OH215008   4.967   3.985   2.122  0.4859 -0.4821  0.2377
 5001TIP3    H115009   4.974   4.046   2.195  1.3428  0.1123 -0.3164
 5001TIP3    H215010   5.053   3.988   2.080  0.5863 -2.1405  0.2420
 5002TIP3   OH215011   2.430   3.507   2.457  0.2144  0.2103 -0.5681
 5002TIP3    H115012   2.410   3.578   2.396  0.7210  0.4911 -0.4103
 5002TIP3    H215013   2.497   3.455   2.412 -0.1275 -0.1497 -0.6684
 5003TIP3   OH215014   5.504   5.551   1.250  0.3913 -0.1968 -0.0687
 5003TIP3    H115015   5.509   5.552   1.346 -0.2940  0.5771 -0.0292
 5003TIP3    H215016   5.426   5.500   1.230  0.5160 -0.3305 -0.2115
 5004TIP3   OH215017   5.915   5.590   4.459  0.2162 -0.3568 -0.2283
 5004TIP3    H115018   5.980   5.541   4.409 -2.7602 -1.5760 -3.3338
 5004TIP3    H215019   5.915   5.677   4.419  2.4409  0.9528  2.3517
 5005TIP3   OH215020   5.851   0.412   0.179 -0.3315  0.0210 -0.2644
 5005TIP3    H115021   5.859   0.333   0.125  0.8814 -1.1073  1.4830
 5005TIP3    H215022   5.893   0.480   0.127  0.9615 -1.0760 -0.7216
 5006TIP3   OH215023   0.259   5.859   3.604 -0.4885  0.3443  0.1891
 5006TIP3    H115024   0.204   5.828   3.532 -2.7002  0.1954  1.8227
 5006TIP3    H215025   0.329   5.909   3.561 -0.6423 -1.2372 -2.1242
 5007TIP3   OH215026   0.908   5.019   0.619 -0.1174  0.2014  0.2269
 5007TIP3    H115027   0.930   4.933   0.654 -2.7549 -0.7098 -0.1450
 5007TIP3    H215028   0.889   5.072   0.696 -0.3499 -0.1217  0.3953
 5008TIP3   OH215029   2.442   2.077   0.628 -0.5442  0.2377  0.0272
 5008TIP3    H115030   2.375   2.129   0.673 -1.5904 -0.2574 -0.9194
 5008TIP3    H215031   2.420   1.986   0.649 -0.1473  0.0704 -0.2669
 5009TIP3   OH215032   3.906   0.787   4.384 -0.0292  0.1662 -0.0392
 5009TIP3    H115033   3.995   0.782   4.420 -0.2272 -1.1851  0.3312
 5009TIP3    H215034   3.879   0.877   4.398  0.8333  0.2801  0.9765
 5010TIP3   OH215035   5.664   0.091   3.843 -0.1504  0.2142  0.3108
 5010TIP3    H115036   5.672   0.060   3.753 -0.4596  0.7141  0.1065
 5010TIP3    H215037   5.571   0.082   3.863  0.0600 -0.7888  0.9152
 5011TIP3   OH215038   2.880   4.943   1.116 -0.0075 -0.0939 -0.9641
 5011TIP3    H115039   2.823   4.996   1.171  0.1295 -1.1875  0.2775
 5011TIP3    H215040   2.821   4.883   1.069 -0.1290  0.8686 -2.0942
 5012TIP3   OH215041   2.388   4.239   0.341  0.1102  0.3949 -0.0437
 5012TIP3    H115042   2.438   4.178   0.287 -1.2660 -1.0785  0.2586
 5012TIP3    H215043   2.446   4.258   0.415  0.0970 -1.6706  0.5618
 5013TIP3   OH215044   5.492   5.553   2.644 -0.6412  0.3688 -0.3386
 5013TIP3    H115045   5.569   5.575   2.696  0.5165  0.7921 -2.1183
 5013TIP3    H215046   5.483   5.458   2.653  1.4826 -0.0412 -1.8039
 5014TIP3   OH215047   0.924   0.655   4.313  0.1318 -0.0507 -0.5082
 5014TIP3    H115048   0.945   0.698   4.230  1.1294  0.4774 -0.0091
 5014TIP3    H215049   0.877   0.722   4.363 -1.3808 -0.7031 -1.0118
 5015TIP3   OH215050   2.426   3.452   3.022 -0.0282 -0.0404 -0.2868
 5015TIP3    H115051   2.352   3.409   2.980 -1.0166  1.9455 -0.7028
 5015TIP3    H215052   2.469   3.499   2.951  1.3059 -0.6735  0.0673
 5016TIP3   OH215053   3.877   1.126   2.090 -0.3166 -0.0205  0.3128
 5016TIP3    H115054   3.906   1.110   2.180 -3.7997  1.1498  1.8338
 5016TIP3    H215055   3.784   1.147   2.099 -0.6578  0.7834 -3.5513
 5017TIP3   OH215056   2.063   5.215   3.573 -0.0575  0.0261  0.1668
 5017TIP3    H115057   2.073   5.122   3.553  1.3588 -0.0304  1.0216
 5017TIP3    H215058   1.969   5.226   3.589 -0.4248 -0.9801 -1.1643
 5018TIP3   OH215059   2.890   5.670   1.580 -0.1972 -0.1139 -0.0960
 5018TIP3    H115060   2.877   5.759   1.549 -1.4090 -0.1764  0.1746
 5018TIP3    H215061   2.821   5.657   1.645 -0.5470 -1.5177 -0.7164
 5019TIP3   OH215062   2.867   5.914   0.615  0.8129  0.1354 -0.4823
 5019TIP3    H115063   2.820   5.912   0.532  0.5095 -0.7057 -0.3062
 5019TIP3    H215064   2.873   6.007   0.638 -1.5394  0.2511 -0.0853
 5020TIP3   OH215065   3.679   5.171   3.726  0.0392 -0.0975  0.1980
 5020TIP3    H115066   3.761   5.218   3.739 -0.8292  2.0282 -1.3688
 5020TIP3    H215067   3.698   5.109   3.656 -0.0139  1.4514 -1.2470
 5021TIP3   OH215068   0.768   3.288   4.710 -0.2435 -0.4663 -0.5715
 5021TIP3    H115069   0.841   3.233   4.737 -0.8721 -1.6813 -1.2417
 5021TIP3    H215070   0.759   3.353   4.779  1.9020  0.1601 -0.8132
 5022TIP3   OH215071   3.897   1.965   1.748 -0.0719 -0.2906  0.7177
 5022TIP3    H115072   3.914   2.027   1.819 -2.7539 -1.7247  2.8080
 5022TIP3    H215073   3.831   2.007   1.693 -0.0681 -0.2921  0.7122
 5023TIP3   OH215074   5.662   1.360   2.718  0.4506 -0.6472 -0.7812
 5023TIP3    H115075   5.619   1.421   2.658  1.6522 -0.0173 -1.0323
 5023TIP3    H215076   5.754   1.386   2.717  1.0328 -2.5547 -1.0098
 5024TIP3   OH215077   1.211   5.743   5.046 -0.2265  0.3831  0.5641
 5024TIP3    H115078   1.191   5.720   4.956  0.5039  1.0196  0.2260
 5024TIP3    H215079   1.285   5.686   5.069 -0.2972  0.3467  0.7025
 5025TIP3   OH215080   5.613   4.154   3.275 -0.3043  0.2245  0.3362
 5025TIP3    H115081   5.599   4.150   3.180 -0.0464 -0.3639  0.3138
 5025TIP3    H215082   5.588   4.242   3.300 -1.2104  0.1096 -0.1475
 5026TIP3   OH215083   2.321   2.944   0.059  0.8357 -1.1912 -0.1945
 5026TIP3    H115084   2.415   2.943   0.042  0.7720  0.0117 -0.6994
 5026TIP3    H215085   2.313   2.983   0.146  0.8393 -1.9397  0.1437
 5027TIP3   OH215086   2.096   4.803   3.857  0.4897 -0.0989 -0.1220
 5027TIP3    H115087   2.169   4.863   3.843  1.6720 -1.7208 -1.1849
 5027TIP3    H215088   2.118   4.726   3.806 -3.0963  0.2225 -2.5264
 5028TIP3   OH215089   0.552   1.305   2.405 -0.8747  0.1000  0.7810
 5028TIP3    H115090   0.574   1.327   2.496  0.0525 -1.2750  0.9254
 5028TIP3    H215091   0.637   1.300   2.360 -1.3190  0.6619 -0.1385
 5029TIP3   OH215092   1.512   5.501   0.378 -0.1637 -0.5243  0.3394
 5029TIP3    H115093   1.561   5.583   0.378  0.4469 -0.8822  0.5051
 5029TIP3    H215094   1.540   5.456   0.298 -2.2433  0.4304 -0.9952
 5030TIP3   OH215095   4.405   0.031   2.483  0.1826  0.2279 -0.2898
 5030TIP3    H115096   4.352   0.089   2.428  0.2861  2.6277  1.9681
 5030TIP3    H215097   4.495   0.044   2.452  0.3684  2.3290  0.9528
 5031TIP3   OH215098   3.369   1.593   4.876  0.2583  0.5186  0.1572
 5031TIP3    H115099   3.429   1.562   4.944 -0.9591 -0.4413  0.8418
 5031TIP3    H215100   3.324   1.513   4.846 -2.5766  1.4615  1.5544
 5032TIP3   OH215101   2.700   5.072   3.000 -0.1854 -0.3940  0.2647
 5032TIP3    H115102   2.760   5.015   3.049 -1.0492 -0.4745  1.2848
 5032TIP3    H215103   2.613   5.039   3.023 -0.7567  1.6480  1.3407
 5033TIP3   OH215104   6.089   1.833   4.148 -0.5584  0.0991  0.0173
 5033TIP3    H115105   6.139   1.912   4.124  1.0501 -0.3962  1.5365
 5033TIP3    H215106   6.000   1.865   4.163 -0.9135  0.9573 -3.1663
 5034TIP3   OH215107   0.765   3.599   4.782 -0.0213  0.4879 -0.3487
 5034TIP3    H115108   0.722   3.587   4.697 -0.8805  1.3970 -0.0518
 5034TIP3    H215109   0.728   3.680   4.817  1.7283  1.1778  0.0406
 5035TIP3   OH215110   4.605   4.209   1.193  0.3738 -0.1556  0.2940
 5035TIP3    H115111   4.686   4.214   1.245  0.1053  0.3550  0.6794
 5035TIP3    H215112   4.553   4.141   1.235 -0.2056  0.8404  1.2450
 5036TIP3   OH215113   0.772   4.132   4.305 -0.0011 -0.4760  0.4011
 5036TIP3    H115114   0.773   4.067   4.235  0.3978  0.8127 -0.8439
 5036TIP3    H215115   0.816   4.088   4.379 -1.3465 -2.2159  0.2256
 5037TIP3   OH215116   0.554   3.781   1.706 -0.3237 -0.3367 -0.8540
 5037TIP3    H115117   0.483   3.841   1.682  0.1130  1.0244  0.9939
 5037TIP3    H215118   0.568   3.797   1.800 -0.7488 -3.9665 -0.0109
 5038TIP3   OH215119   1.408   1.616   2.981 -0.3606 -0.5052  0.1790
 5038TIP3    H115120   1.500   1.595   2.963 -0.6755 -0.6585 -1.3712
 5038TIP3    H215121   1.403   1.623   3.076  1.0987 -1.2358  0.3286
 5039TIP3   OH215122   3.672   3.147   2.404  0.1055  0.0982  0.0088
 5039TIP3    H115123   3.669   3.242   2.403 -0.7968  0.1171  1.3749
 5039TIP3    H215124   3.673   3.122   2.312  0.4590  1.4265 -0.3692
 5040TIP3   OH215125   0.211   3.431   0.325  0.1049  0.5554  0.1673
 5040TIP3    H115126   0.261   3.383   0.391  0.1344 -0.7960 -0.8014
 5040TIP3    H215127   0.139   3.471   0.374  1.8599  2.2401  1.5225
 5041TIP3   OH215128   1.200   5.706   4.762  0.2634 -0.1457  0.2414
 5041TIP3    H115129   1.175   5.797   4.743 -0.6450 -0.1834  1.1445
 5041TIP3    H215130   1.295   5.704   4.750  0.0068  0.2130 -2.6025
 5042TIP3   OH215131   6.020   0.155   0.451 -0.1478 -0.0876  0.4748
 5042TIP3    H115132   6.084   0.138   0.519  0.6773 -0.4163 -0.3535
 5042TIP3    H215133   5.957   0.215   0.490  0.3763 -0.1798  1.4721
 5043TIP3   OH215134   3.383   3.691   0.765 -0.3105  0.0033 -0.5045
 5043TIP3    H115135   3.405   3.622   0.703  1.2715  0.2655 -0.2822
 5043TIP3    H215136   3.332   3.647   0.833  0.7831 -1.0074 -0.2945
 5044TIP3   OH215137   0.924   0.232   2.057 -0.0189 -0.0196 -0.1796
 5044TIP3    H115138   0.898   0.171   1.988 -2.3718 -0.9390  1.3959
 5044TIP3    H215139   0.875   0.204   2.134  0.4118  2.6046  1.1772
 5045TIP3   OH215140   0.125   3.604   1.970 -0.3481  0.0548 -0.3515
 5045TIP3    H115141   0.142   3.523   1.922  1.0788  0.5545 -0.7422
 5045TIP3    H215142   0.138   3.673   1.905  1.6163  0.7438  0.6896
 5046TIP3   OH215143   5.610   3.353   1.079  0.3227 -0.4133 -0.6503
 5046TIP3    H115144   5.628   3.387   1.167 -0.3139 -2.5720  0.3764
 5046TIP3    H215145   5.575   3.429   1.032 -1.9022  0.2502  1.7889
 5047TIP3   OH215146   2.381   4.927   3.632 -0.2948 -0.1325 -0.3943
 5047TIP3    H115147   2.313   4.937   3.566 -0.6627 -0.3805 -0.0586
 5047TIP3    H215148   2.453   4.882   3.587 -0.9062 -1.1476 -0.3922
 5048TIP3   OH215149   2.194   3.099   4.794  0.4368  0.1930 -0.1882
 5048TIP3    H115150   2.246   3.160   4.846  2.4973 -1.2596 -0.4044
 5048TIP3    H215151   2.167   3.030   4.855 -0.8845  0.6948 -0.1796
 5049TIP3   OH215152   5.123   2.469   4.129  0.4629  0.1604 -0.0014
 5049TIP3    H115153   5.068   2.451   4.206  1.4104 -1.6090  0.3316
 5049TIP3    H215154   5.096   2.403   4.065 -0.5598  1.8411 -1.3730
 5050TIP3   OH215155   5.784   5.515   1.400 -0.0479 -0.0883 -0.1052
 5050TIP3    H115156   5.858   5.570   1.427  1.0469 -0.9319 -1.2684
 5050TIP3    H215157   5.785   5.518   1.305 -1.3641 -0.3446 -0.1527
 5051TIP3   OH215158   0.664   2.134   3.743 -0.1522 -0.3332 -0.2832
 5051TIP3    H115159   0.579   2.091   3.738 -0.5737  0.2520  1.2817
 5051TIP3    H215160   0.669   2.186   3.662 -0.6547 -1.4527 -1.0519
 5052TIP3   OH215161   0.864   1.017   0.592  0.2476  0.0785 -0.3007
 5052TIP3    H115162   0.810   1.050   0.520  1.1904 -0.7889 -1.4359
 5052TIP3    H215163   0.845   1.076   0.665 -1.9643  0.0104 -0.7542
 5053TIP3   OH215164   0.430   0.945   1.792  0.5057  0.1829 -0.4017
 5053TIP3    H115165   0.461   0.986   1.873 -0.9295 -0.5327  0.5583
 5053TIP3    H215166   0.494   0.970   1.726 -0.3711  4.2043  0.0182
 5054TIP3   OH215167   3.881   3.205   4.855  0.0361  0.0610 -0.2250
 5054TIP3    H115168   3.800   3.172   4.815 -0.4819  1.1514 -0.1152
 5054TIP3    H215169   3.859   3.294   4.883  0.2500 -0.7025  2.7539
 5055TIP3   OH215170   5.200   0.944   1.399  0.2634  0.0688  0.2112
 5055TIP3    H115171   5.291   0.966   1.377  0.2283 -0.3587 -0.4059
 5055TIP3    H215172   5.192   0.852   1.376  0.0301 -0.2449  1.4900
 5056TIP3   OH215173   5.775   4.397   1.059 -0.9378  0.5972  0.2829
 5056TIP3    H115174   5.833   4.399   0.983 -1.8012  0.7779 -0.3863
 5056TIP3    H215175   5.818   4.455   1.123 -0.6189  1.1014 -0.3709
 5057TIP3   OH215176   5.578   5.709   4.637 -0.0840 -0.9694  0.2100
 5057TIP3    H115177   5.600   5.785   4.583 -0.3507 -0.4308  0.8331
 5057TIP3    H215178   5.615   5.730   4.723 -0.3820 -1.4322  0.4549
 5058TIP3   OH215179   6.035   5.808   4.837  0.0800 -0.0668 -0.0159
 5058TIP3    H115180   6.108   5.826   4.779 -0.0768  0.6445  0.0047
 5058TIP3    H215181   6.042   5.714   4.856  0.2011 -0.2759 -1.0714
 5059TIP3   OH215182   5.422   4.283   3.767 -0.3886  0.1213 -0.0175
 5059TIP3    H115183   5.351   4.347   3.777  0.2151  1.0398 -1.2824
 5059TIP3    H215184   5.389   4.222   3.701 -0.3037  0.1058 -0.0455
 5060TIP3   OH215185   4.633   1.879   2.092  0.1879 -0.4569 -0.1608
 5060TIP3    H115186   4.687   1.933   2.034 -2.1465  0.2986 -1.7764
 5060TIP3    H215187   4.608   1.938   2.163  0.5836 -0.4856  0.0034
 5061TIP3   OH215188   2.205   4.128   4.025  0.1250  0.2589 -0.2233
 5061TIP3    H115189   2.134   4.155   3.967 -0.0184 -0.7123 -0.5111
 5061TIP3    H215190   2.191   4.035   4.039 -0.0839  0.5428  1.7318
 5062TIP3   OH215191   0.932   0.772   2.701  0.2651 -0.4393 -0.2353
 5062TIP3    H115192   0.933   0.829   2.778  0.9114  2.0961 -2.0061
 5062TIP3    H215193   1.015   0.725   2.705  0.1158 -0.6506  0.7842
 5063TIP3   OH215194   5.753   0.941   4.051  0.7415 -0.6022  0.0573
 5063TIP3    H115195   5.664   0.942   4.086  0.1147 -2.1294 -1.3899
 5063TIP3    H215196   5.785   0.853   4.067  2.4895  0.2257  1.5789
 5064TIP3   OH215197   3.846   0.866   1.959  0.4736 -0.2010 -0.2793
 5064TIP3    H115198   3.780   0.807   1.995  0.1020  0.4639  0.1539
 5064TIP3    H215199   3.886   0.907   2.036  0.1998  0.6693 -0.5875
 5065TIP3   OH215200   1.819   3.804   3.865 -0.1787  0.0235 -0.2858
 5065TIP3    H115201   1.866   3.845   3.792 -1.3994  0.0739 -1.0693
 5065TIP3    H215202   1.727   3.817   3.844 -0.5585 -0.8204  0.7935
 5066TIP3   OH215203   2.426   2.963   0.496 -0.4087  0.0088  0.1503
 5066TIP3    H115204   2.380   2.997   0.420 -2.0414 -1.1299  0.5714
 5066TIP3    H215205   2.365   2.900   0.535  1.1141 -0.8001  1.3477
 5067TIP3   OH215206   0.981   3.719   2.593  0.3682  0.3101 -0.0733
 5067TIP3    H115207   1.040   3.785   2.555  0.3601 -0.0829 -0.7897
 5067TIP3    H215208   0.898   3.766   2.606  0.4319  0.5088 -0.3645
 5068TIP3   OH215209   3.584   3.359   4.926  0.4381  0.1496 -0.0943
 5068TIP3    H115210   3.666   3.376   4.880  1.1336 -1.1095  0.6207
 5068TIP3    H215211   3.527   3.319   4.861  1.3616 -1.4781  0.0518
 5069TIP3   OH215212   6.212   2.834   4.102 -0.0543  0.0007  0.2295
 5069TIP3    H115213   6.177   2.749   4.128  0.1693 -0.0175  0.4768
 5069TIP3    H215214   6.138   2.894   4.110 -0.2937 -0.2309 -0.2567
 5070TIP3   OH215215   3.157   1.143   2.044  0.1354 -0.3569  0.2365
 5070TIP3    H115216   3.228   1.131   2.106 -0.8033 -1.9487  1.0766
 5070TIP3    H215217   3.181   1.089   1.969  1.4002  1.7732 -1.0088
 5071TIP3   OH215218   2.191   5.433   0.864  0.2805  0.1864 -0.3843
 5071TIP3    H115219   2.265   5.393   0.817  1.9032  0.6220  1.6759
 5071TIP3    H215220   2.129   5.361   0.875  1.1218 -0.6105 -0.7162
 5072TIP3   OH215221   3.014   2.356   1.983  0.1103 -0.0645  0.0889
 5072TIP3    H115222   2.960   2.291   1.937  1.0225 -0.0649 -1.0213
 5072TIP3    H215223   2.954   2.428   2.002 -0.5126 -0.4920 -0.2131
 5073TIP3   OH215224   4.646   1.775   0.903  0.3487  0.0403 -0.4099
 5073TIP3    H115225   4.682   1.861   0.927 -0.2993  0.1969  0.0158
 5073TIP3    H215226   4.706   1.743   0.835 -0.5707  1.7737 -2.1752
 5074TIP3   OH215227   4.702   3.402   3.041 -0.3732  0.2466 -0.2809
 5074TIP3    H115228   4.643   3.335   3.076 -0.0612  0.2517  0.2719
 5074TIP3    H215229   4.702   3.387   2.947  1.3760 -1.9487  0.0052
 5075TIP3   OH215230   6.167   2.971   3.604 -0.4261  0.0368  0.3604
 5075TIP3    H115231   6.244   2.983   3.659  2.1280  1.2115 -3.1345
 5075TIP3    H215232   6.132   2.885   3.629  1.1592  0.0659  2.9858
 5076TIP3   OH215233   5.301   0.489   5.170 -0.6329  0.1943  0.1143
 5076TIP3    H115234   5.337   0.531   5.092  0.1834  0.1716  0.4710
 5076TIP3    H215235   5.268   0.404   5.139 -0.2095  0.1366 -0.1873
 5077TIP3   OH215236   2.015   2.537   2.221 -0.5483  0.0762  0.3165
 5077TIP3    H115237   1.955   2.608   2.244 -1.0654 -0.3992  0.4760
 5077TIP3    H215238   2.024   2.486   2.302  0.1234  0.1741  0.3114
 5078TIP3   OH215239   1.577   0.204   2.357 -0.5877  0.4109 -0.1970
 5078TIP3    H115240   1.553   0.126   2.306 -0.3354 -0.0999  0.4440
 5078TIP3    H215241   1.543   0.186   2.445  0.2255  0.6494  0.1720
 5079TIP3   OH215242   0.304   2.045   3.068 -0.2599  0.1612  0.2969
 5079TIP3    H115243   0.339   2.023   3.154 -1.8441  0.1882  0.9784
 5079TIP3    H215244   0.254   1.968   3.042  2.8173 -1.2418 -2.1505
 5080TIP3   OH215245   1.458   4.294   2.795  0.2541 -0.1339 -0.6591
 5080TIP3    H115246   1.462   4.313   2.701 -0.2074  1.4432 -0.3946
 5080TIP3    H215247   1.538   4.330   2.831  0.2245 -0.3425 -0.3771
 5081TIP3   OH215248   2.031   2.383   2.442 -0.2492 -0.1347 -0.1400
 5081TIP3    H115249   1.969   2.313   2.418 -1.7513 -0.1860  3.3282
 5081TIP3    H215250   2.111   2.337   2.465 -0.2092 -0.4114 -0.7919
 5082TIP3   OH215251   1.714   5.053   0.372 -0.9170  0.1308 -0.0299
 5082TIP3    H115252   1.708   5.061   0.277 -0.9002 -0.3196 -0.0706
 5082TIP3    H215253   1.703   4.959   0.390 -1.2737  0.2540  0.4394
 5083TIP3   OH215254   3.641   5.217   0.882  0.0181  0.2707 -0.6543
 5083TIP3    H115255   3.711   5.211   0.946 -0.3359 -1.8803 -0.3708
 5083TIP3    H215256   3.685   5.230   0.799  0.5664  1.6739 -0.1623
 5084TIP3   OH215257   1.875   3.896   2.095  0.5534  0.3468 -0.1881
 5084TIP3    H115258   1.801   3.941   2.135  0.6433  0.6233 -0.3310
 5084TIP3    H215259   1.920   3.964   2.044  0.0223 -0.1470 -1.3505
 5085TIP3   OH215260   2.504   0.095   0.526 -0.1854  0.0188 -0.0467
 5085TIP3    H115261   2.595   0.084   0.552 -0.1804 -0.9679 -0.4533
 5085TIP3    H215262   2.495   0.189   0.509  0.1641  0.5083  2.1740
 5086TIP3   OH215263   2.345   1.812   1.519 -0.4034 -0.0211 -0.0001
 5086TIP3    H115264   2.276   1.801   1.585 -0.4064 -3.4716 -0.4255
 5086TIP3    H215265   2.426   1.818   1.570 -0.5699 -0.8689  0.3779
 5087TIP3   OH215266   2.807   0.464   0.599 -0.2484 -0.5444  0.1326
 5087TIP3    H115267   2.897   0.475   0.570 -0.6649 -0.2418 -1.1065
 5087TIP3    H215268   2.798   0.525   0.672  0.0075  0.9120 -1.0078
 5088TIP3   OH215269   5.403   2.637   1.489  0.4897 -0.1577 -0.5456
 5088TIP3    H115270   5.422   2.545   1.506 -0.6567 -0.2661  0.2066
 5088TIP3    H215271   5.489   2.678   1.481  1.0169 -1.3829 -1.4319
 5089TIP3   OH215272   3.988   3.567   0.153 -0.0936 -0.2407  0.9648
 5089TIP3    H115273   4.008   3.544   0.244  2.9982  0.3578  0.5466
 5089TIP3    H215274   3.947   3.653   0.158 -0.0259 -0.2508  1.8189
 5090TIP3   OH215275   3.611   5.018   0.104  0.5870 -0.0718 -0.5741
 5090TIP3    H115276   3.683   4.974   0.057  1.0409 -0.1948  0.2251
 5090TIP3    H215277   3.572   4.950   0.158 -0.6834 -0.2098 -1.5995
 5091TIP3   OH215278   3.986   3.951   0.444  0.3086 -0.2227 -0.4614
 5091TIP3    H115279   3.915   4.002   0.483  0.2609  0.1176 -0.9693
 5091TIP3    H215280   4.059   3.961   0.504  0.6410  1.3553 -1.0551
 5092TIP3   OH215281   0.240   2.046   3.968  0.6058 -0.1373 -0.4843
 5092TIP3    H115282   0.246   1.967   4.022  0.3830 -0.5012 -0.9850
 5092TIP3    H215283   0.319   2.096   3.990 -0.7065  0.9843  2.1136
 5093TIP3   OH215284   4.464   5.600   4.505  0.3096  0.3562  0.1751
 5093TIP3    H115285   4.410   5.676   4.483 -0.5017 -0.3301 -0.2670
 5093TIP3    H215286   4.428   5.569   4.588  0.1392  0.0049 -0.0284
 5094TIP3   OH215287   4.218   5.313   1.083  0.1802 -0.3295 -0.2462
 5094TIP3    H115288   4.131   5.353   1.084 -0.1234 -0.9668  0.4040
 5094TIP3    H215289   4.277   5.382   1.113 -0.1586 -0.0197 -0.2844
 5095TIP3   OH215290   4.208   0.234   4.971 -1.0580  0.5019  0.4080
 5095TIP3    H115291   4.188   0.324   4.945 -0.5971  0.4915  0.0116
 5095TIP3    H215292   4.304   0.229   4.969 -1.0961 -0.1279 -0.0266
 5096TIP3   OH215293   5.053   5.565   0.621  0.4968  0.3419 -0.0511
 5096TIP3    H115294   5.114   5.502   0.658  2.0165  1.9607  0.3153
 5096TIP3    H215295   5.106   5.617   0.560 -0.6023  1.5376 -0.0288
 5097TIP3   OH215296   3.726   1.072   3.880 -0.1045 -0.2522  0.2335
 5097TIP3    H115297   3.659   1.125   3.837 -0.6131  0.0961  1.4151
 5097TIP3    H215298   3.685   0.986   3.892  0.5489 -0.8080 -1.2434
 5098TIP3   OH215299   3.190   2.402   0.756 -0.5526  0.1626 -0.0705
 5098TIP3    H115300   3.126   2.440   0.697  1.0203 -0.2298 -2.1429
 5098TIP3    H215301   3.217   2.320   0.713  1.3601  0.3557  0.6574
 5099TIP3   OH215302   3.118   0.768   3.314 -1.0055 -0.4477  0.0516
 5099TIP3    H115303   3.158   0.847   3.351  1.4602 -1.0640 -1.0296
 5099TIP3    H215304   3.124   0.781   3.219  0.2460 -2.2106 -0.1656
 5100TIP3   OH215305   0.880   5.874   0.769  0.0759 -0.0968 -0.5235
 5100TIP3    H115306   0.873   5.780   0.785  0.0471  0.1221  0.8062
 5100TIP3    H215307   0.971   5.887   0.742  0.9060 -0.1563  1.9797
 5101TIP3   OH215308   1.815   3.771   0.567 -0.7921 -0.0280 -0.0556
 5101TIP3    H115309   1.772   3.728   0.641 -0.2528 -0.2321  0.1409
 5101TIP3    H215310   1.898   3.802   0.602  0.2591 -1.6739 -1.0077
 5102TIP3   OH215311   5.933   2.069   4.762 -0.4268  0.9315  0.8601
 5102TIP3    H115312   5.860   2.006   4.765  0.1029  0.1553 -0.8740
 5102TIP3    H215313   6.011   2.016   4.783 -0.0779  1.1767  0.2166
 5103TIP3   OH215314   4.611   5.831   3.817 -0.2814  0.4303  0.1921
 5103TIP3    H115315   4.545   5.821   3.749 -0.3857  0.9469  0.2097
 5103TIP3    H215316   4.564   5.816   3.899  0.1304 -1.5838  0.1153
 5104TIP3   OH215317   4.543   4.642   4.976  0.1263 -0.1348 -0.2984
 5104TIP3    H115318   4.587   4.570   5.021 -2.0628 -0.2955  1.7250
 5104TIP3    H215319   4.536   4.711   5.042 -0.9234  0.6065 -1.1517
 5105TIP3   OH215320   5.079   0.531   4.521  0.0383  0.4007  0.2493
 5105TIP3    H115321   5.060   0.530   4.427  0.3871 -0.9096  0.1708
 5105TIP3    H215322   4.993   0.528   4.563 -0.0913 -0.7782 -0.0596
 5106TIP3   OH215323   5.119   2.215   3.146 -0.5422  0.0135  0.1704
 5106TIP3    H115324   5.137   2.253   3.232 -1.0750 -3.0917  1.8156
 5106TIP3    H215325   5.168   2.132   3.146 -1.6715 -0.7352 -1.9570
 5107TIP3   OH215326   0.526   4.429   0.971 -0.0592 -0.0946  0.1919
 5107TIP3    H115327   0.486   4.348   0.942  1.0847 -0.2677 -0.9957
 5107TIP3    H215328   0.453   4.488   0.989 -0.8828 -1.2034  0.5620
 5108TIP3   OH215329   4.064   4.054   1.428 -0.2901 -0.0115  0.3543
 5108TIP3    H115330   3.988   4.034   1.482 -0.8053 -2.2561 -1.0801
 5108TIP3    H215331   4.140   4.038   1.485 -0.8079 -2.5746  0.4234
 5109TIP3   OH215332   6.132   0.889   4.764 -0.2503  0.1117 -0.0759
 5109TIP3    H115333   6.156   0.944   4.838  0.9158 -1.3950  0.7272
 5109TIP3    H215334   6.180   0.926   4.690  1.1628 -0.2664  0.6187
 5110TIP3   OH215335   5.844   3.038   3.746 -0.2565 -0.0026  0.5339
 5110TIP3    H115336   5.916   3.068   3.800  0.0470  0.0321  0.1122
 5110TIP3    H215337   5.765   3.058   3.797  0.0018  0.4676  0.7526
 5111TIP3   OH215338   5.401   2.682   0.773  0.2114 -0.3182  0.1488
 5111TIP3    H115339   5.306   2.695   0.770  0.0822 -1.1464  0.3385
 5111TIP3    H215340   5.437   2.767   0.747 -0.6066 -0.5185 -1.8943
 5112TIP3   OH215341   5.231   3.768   3.468  0.4428  0.6187  0.1043
 5112TIP3    H115342   5.269   3.762   3.381  0.8501 -0.7720  0.3435
 5112TIP3    H215343   5.292   3.719   3.524  0.2998  1.6429  1.2102
 5113TIP3   OH215344   6.243   0.173   3.218  0.1921 -0.0777  0.1041
 5113TIP3    H115345   6.195   0.255   3.206  1.0835  0.5874  0.8427
 5113TIP3    H215346   6.223   0.121   3.140 -1.4744  0.2723  0.2708
 5114TIP3   OH215347   0.837   5.824   2.202 -0.3510  0.6812 -0.4429
 5114TIP3    H115348   0.823   5.768   2.125  2.5881 -0.4757 -0.2660
 5114TIP3    H215349   0.897   5.891   2.172  0.9526  0.1248  0.8443
 5115TIP3   OH215350   1.678   4.237   2.219 -0.2235  0.2940 -0.6611
 5115TIP3    H115351   1.588   4.256   2.247 -0.0242  0.2762  0.0227
 5115TIP3    H215352   1.686   4.142   2.228 -0.3349  0.2183 -1.3416
 5116TIP3   OH215353   2.189   3.386   2.678  0.6790  0.3343 -0.2017
 5116TIP3    H115354   2.173   3.480   2.679 -2.4945 -0.0815 -0.0438
 5116TIP3    H215355   2.226   3.369   2.591 -0.1885  1.5548 -0.8429
 5117TIP3   OH215356   5.794   2.498   1.308  0.2933 -0.3149  0.1737
 5117TIP3    H115357   5.803   2.412   1.349  0.4601 -0.1698  0.4502
 5117TIP3    H215358   5.822   2.560   1.376  2.8555 -0.1901 -0.8828
 5118TIP3   OH215359   3.895   0.357   4.459 -0.1442 -0.4974  0.0181
 5118TIP3    H115360   3.959   0.285   4.459 -0.7356 -1.0519  1.1208
 5118TIP3    H215361   3.823   0.325   4.514 -0.1199  1.2008  1.1247
 5119TIP3   OH215362   3.026   0.065   2.431 -0.1504 -0.1574  0.1394
 5119TIP3    H115363   3.099   0.127   2.435 -1.2861  1.1906  0.8093
 5119TIP3    H215364   2.979   0.088   2.351  0.1690 -1.0572 -0.3206
 5120TIP3   OH215365   3.340   4.718   0.025  0.2637  0.4829  0.3717
 5120TIP3    H115366   3.346   4.735   0.119  0.3450  0.7444  0.3208
 5120TIP3    H215367   3.381   4.633   0.013  0.9176  0.7779  0.4792
 5121TIP3   OH215368   1.844   0.227   0.225 -0.5555 -0.1159  0.6481
 5121TIP3    H115369   1.825   0.134   0.216  0.5442 -0.4001  1.1109
 5121TIP3    H215370   1.854   0.259   0.136  0.9979 -0.8835  0.5142
 5122TIP3   OH215371   3.929   0.372   5.116  0.0877 -0.1376  0.2900
 5122TIP3    H115372   3.995   0.304   5.132 -1.4704 -1.5968  0.8665
 5122TIP3    H215373   3.911   0.409   5.202 -0.9385 -0.8501  0.4025
 5123TIP3   OH215374   3.820   0.084   0.304  0.2025  0.3704 -0.6700
 5123TIP3    H115375   3.821   0.083   0.209  3.6110 -1.5628 -0.7757
 5123TIP3    H215376   3.807  -0.007   0.329 -0.7350  0.8639  0.7295
 5124TIP3   OH215377   3.184   2.960   2.883 -0.3007  0.5973 -0.2143
 5124TIP3    H115378   3.163   2.956   2.790 -0.7053 -1.8143 -0.0779
 5124TIP3    H215379   3.124   2.897   2.924 -0.7885  2.2657  1.8287
 5125TIP3   OH215380   1.696   4.913   3.362  0.2383 -0.0334 -0.8141
 5125TIP3    H115381   1.679   4.821   3.382  1.6717  0.1496  1.6714
 5125TIP3    H215382   1.627   4.961   3.406  1.3624  0.1973  0.7738
 5126TIP3   OH215383   2.804   1.588   2.051 -0.8068 -0.2989 -0.4216
 5126TIP3    H115384   2.880   1.625   2.096 -0.6808  0.7567 -1.4717
 5126TIP3    H215385   2.730   1.607   2.109 -0.5393  0.3415 -0.2860
 5127TIP3   OH215386   5.283   4.757   3.326 -0.4506 -0.4460 -0.6496
 5127TIP3    H115387   5.345   4.700   3.373 -1.5391 -1.1535 -0.0331
 5127TIP3    H215388   5.312   4.846   3.348 -0.2890 -0.7682  0.5135
 5128TIP3   OH215389   5.142   2.324   4.914 -0.6811  0.1905 -0.3331
 5128TIP3    H115390   5.048   2.312   4.927 -0.3419  0.1440  3.1399
 5128TIP3    H215391   5.179   2.321   5.003  2.7432 -0.8927 -1.6141
 5129TIP3   OH215392   6.216   2.432   2.054  0.0166 -0.0479 -0.0283
 5129TIP3    H115393   6.148   2.495   2.078 -0.0774 -0.8167  1.8949
 5129TIP3    H215394   6.289   2.486   2.023 -1.0886  0.8250 -1.2242
 5130TIP3   OH215395   5.088   4.218   3.560  0.2307  0.2688  0.6239
 5130TIP3    H115396   5.073   4.220   3.466  3.0054  1.7582  0.1133
 5130TIP3    H215397   5.061   4.130   3.587  0.9037 -0.7795 -1.8791
 5131TIP3   OH215398   3.275   5.514   1.705 -0.4626 -0.0109 -0.0885
 5131TIP3    H115399   3.345   5.556   1.754 -0.1836 -2.2772  1.6521
 5131TIP3    H215400   3.318   5.475   1.629  0.1688 -1.1169  0.8016
 5132TIP3   OH215401   0.036   4.423   1.962  0.3149 -0.3328  0.2142
 5132TIP3    H115402   0.068   4.333   1.955  1.0162  0.0464 -2.5930
 5132TIP3    H215403  -0.034   4.429   1.898  1.1934  1.4543 -0.6401
 5133TIP3   OH215404   4.760   1.530   3.253  0.3767 -0.4080  0.6895
 5133TIP3    H115405   4.835   1.588   3.266 -0.7495  1.2328  0.2237
 5133TIP3    H215406   4.749   1.527   3.158 -1.2188  0.8835  0.7870
 5134TIP3   OH215407   4.299   2.692   3.012 -0.3555  0.1957  0.1175
 5134TIP3    H115408   4.219   2.661   3.055  0.3477 -2.2264 -0.1382
 5134TIP3    H215409   4.340   2.750   3.076 -1.8759  0.7958  0.5837
 5135TIP3   OH215410   3.786   0.512   1.863 -0.0160  0.1434  0.2219
 5135TIP3    H115411   3.708   0.528   1.810  0.0533 -0.9276 -0.2250
 5135TIP3    H215412   3.761   0.541   1.951 -1.2742 -1.0572  0.2973
 5136TIP3   OH215413   4.769   1.669   3.812 -0.4134  0.3460  0.4093
 5136TIP3    H115414   4.817   1.623   3.744 -1.6036  1.8255 -1.5483
 5136TIP3    H215415   4.685   1.623   3.818 -0.3434  0.2685  0.8163
 5137TIP3   OH215416   5.718   6.010   3.632 -0.1107 -0.3533 -0.8062
 5137TIP3    H115417   5.804   5.978   3.660  0.7976  4.5270  3.3115
 5137TIP3    H215418   5.660   5.936   3.648  2.6657 -2.4333  0.6244
 5138TIP3   OH215419   3.574   1.892   2.323  0.5550 -0.4425  0.4888
 5138TIP3    H115420   3.610   1.888   2.234 -0.5457  1.7680 -0.1166
 5138TIP3    H215421   3.481   1.876   2.312  0.2188  1.0200  1.0736
 5139TIP3   OH215422   4.565   0.184   1.136 -0.0806  0.0612  0.1346
 5139TIP3    H115423   4.492   0.243   1.153  0.8650  1.0785  0.7772
 5139TIP3    H215424   4.636   0.242   1.109  0.2757 -0.9812 -1.2432
 5140TIP3   OH215425   2.962   0.428   4.706  0.0265 -0.4615 -0.4250
 5140TIP3    H115426   2.959   0.371   4.782  0.5622 -0.6333 -0.5298
 5140TIP3    H215427   2.919   0.508   4.735 -1.4909 -1.2135 -0.5452
 5141TIP3   OH215428   1.917   5.238   2.528  0.0687 -0.1841 -0.2545
 5141TIP3    H115429   1.967   5.184   2.590 -0.5290  0.0881  0.4789
 5141TIP3    H215430   1.838   5.187   2.509  0.8565 -0.8832 -1.8746
 5142TIP3   OH215431   1.570   0.196   1.353  0.5502  0.1620 -0.3530
 5142TIP3    H115432   1.595   0.216   1.444  0.6900 -2.8427  0.4029
 5142TIP3    H215433   1.520   0.272   1.324 -1.0615  0.5006  2.8881
 5143TIP3   OH215434   2.918   1.214   1.554 -0.1674  0.5409  0.1000
 5143TIP3    H115435   2.917   1.302   1.516 -2.8121  0.1717 -0.8793
 5143TIP3    H215436   2.882   1.157   1.486  0.2179 -1.0985  1.1958
 5144TIP3   OH215437   4.710   5.897   1.155 -0.0886  0.5463 -0.0356
 5144TIP3    H115438   4.715   5.823   1.215  0.7656  0.4758 -0.1839
 5144TIP3    H215439   4.689   5.858   1.070  1.7731  0.2927 -0.4151
 5145TIP3   OH215440   0.936   1.352   4.735  0.5617  0.2248  0.1144
 5145TIP3    H115441   0.980   1.349   4.820 -0.4684 -0.1900  0.6522
 5145TIP3    H215442   0.863   1.413   4.747 -1.2360 -1.8336  0.3900
 5146TIP3   OH215443   5.569   5.182   4.378  0.2474 -0.4874  0.9525
 5146TIP3    H115444   5.595   5.263   4.422  1.5034 -1.2775  1.7240
 5146TIP3    H215445   5.548   5.122   4.449  1.1683 -1.4218  0.4675
 5147TIP3   OH215446   3.148   2.273   2.809  0.1322  0.3137 -0.1602
 5147TIP3    H115447   3.234   2.314   2.797 -0.0027  0.9245  0.8231
 5147TIP3    H215448   3.095   2.341   2.850 -1.0743  0.2062 -1.4742
 5148TIP3   OH215449   5.557   4.548   2.445 -0.1649  0.0175  0.3118
 5148TIP3    H115450   5.582   4.619   2.505  0.6528 -0.6995  0.8473
 5148TIP3    H215451   5.469   4.523   2.473 -0.1217  0.2544  0.6793
 5149TIP3   OH215452   4.863   5.225   3.689  0.0530  0.1129 -0.2616
 5149TIP3    H115453   4.814   5.238   3.608  0.1161  2.3648 -0.0026
 5149TIP3    H215454   4.946   5.271   3.675  0.0415  0.5873  1.0940
 5150TIP3   OH215455   0.720   3.054   2.667  0.4577 -0.1666  0.8018
 5150TIP3    H115456   0.742   2.962   2.658  2.2856  0.1831  1.2128
 5150TIP3    H215457   0.626   3.059   2.648  0.5309 -1.9433 -0.1802
 5151TIP3   OH215458   0.065   5.735   0.793 -0.6089  0.0210  0.1704
 5151TIP3    H115459   0.131   5.689   0.845 -2.1594 -2.3390  0.1752
 5151TIP3    H215460  -0.014   5.682   0.803 -2.0962  1.8803 -1.1374
 5152TIP3   OH215461   4.632   1.862   4.394 -0.2644 -0.1918  0.1001
 5152TIP3    H115462   4.653   1.800   4.325 -0.4653 -0.6224  0.4208
 5152TIP3    H215463   4.539   1.848   4.411 -0.4417  0.5541 -0.1751
 5153TIP3   OH215464   2.063   5.821   1.833 -0.3762 -0.0559  0.5661
 5153TIP3    H115465   2.008   5.898   1.848 -1.0212 -0.2676 -0.6428
 5153TIP3    H215466   2.129   5.851   1.771 -0.4312 -0.3815  0.3501
 5154TIP3   OH215467   5.998   1.819   0.854  0.4128  0.4726 -0.2972
 5154TIP3    H115468   5.921   1.797   0.803  0.7488  0.0975 -0.6547
 5154TIP3    H215469   5.972   1.895   0.907 -0.3248  0.0963 -0.1032
 5155TIP3   OH215470   6.177   0.517   2.649  0.4056  0.3784 -0.7690
 5155TIP3    H115471   6.248   0.580   2.661  0.7118 -0.3474  1.8234
 5155TIP3    H215472   6.101   0.571   2.624  1.1644  1.5057 -0.7250
 5156TIP3   OH215473   1.479   2.596   3.388 -0.1584  0.1808  0.1261
 5156TIP3    H115474   1.441   2.678   3.418 -1.5525 -1.0871  2.0240
 5156TIP3    H215475   1.572   2.616   3.374 -0.3158  1.8843  1.2806
 5157TIP3   OH215476   3.606   1.577   0.961 -0.1011  0.3561 -0.3127
 5157TIP3    H115477   3.566   1.560   1.046 -2.2508 -0.0533 -1.3307
 5157TIP3    H215478   3.535   1.566   0.898  1.1124  1.8973 -2.0785
 5158TIP3   OH215479   0.936   2.251   5.171  0.1690  0.2395 -0.1846
 5158TIP3    H115480   0.846   2.260   5.202  0.1008  0.7201 -0.5163
 5158TIP3    H215481   0.937   2.166   5.126  0.2527 -0.4345  1.0507
 5159TIP3   OH215482   3.079   0.354   5.164  0.1578  0.1247  0.7011
 5159TIP3    H115483   3.093   0.418   5.095  1.1616  0.4789  1.2149
 5159TIP3    H215484   3.090   0.403   5.246 -1.6325 -0.1435  1.1483
 5160TIP3   OH215485   1.611   3.572   4.012 -0.1409 -0.3292 -0.6726
 5160TIP3    H115486   1.629   3.562   3.919  1.3356 -3.6548 -0.1592
 5160TIP3    H215487   1.690   3.614   4.048 -0.2102 -0.1314 -0.7530
 5161TIP3   OH215488   3.880   5.057   1.905 -0.3986 -0.3350  0.7242
 5161TIP3    H115489   3.823   5.057   1.828 -0.9973  1.9694  1.1119
 5161TIP3    H215490   3.829   5.099   1.974  1.1771  0.3554  1.5297
 5162TIP3   OH215491   5.780   4.128   0.621  0.0059  0.7655 -0.1005
 5162TIP3    H115492   5.814   4.123   0.710 -0.3711  1.5629  0.0971
 5162TIP3    H215493   5.821   4.206   0.583 -0.5580  0.9757 -0.2992
 5163TIP3   OH215494   1.488   2.634   2.095 -0.3705  0.0755 -0.3586
 5163TIP3    H115495   1.451   2.549   2.116 -1.1562  0.9150  1.8868
 5163TIP3    H215496   1.413   2.688   2.070  0.2950 -0.2848 -3.7169
 5164TIP3   OH215497   3.370   5.251   0.940  0.2121 -0.0171 -0.0841
 5164TIP3    H115498   3.328   5.166   0.942  0.7236 -0.3284 -1.4750
 5164TIP3    H215499   3.464   5.232   0.941  0.3340  0.5057 -0.7806
 5165TIP3   OH215500   3.064   0.343   1.735 -0.2043  0.3150  0.4105
 5165TIP3    H115501   3.144   0.393   1.720 -0.6283  0.2167 -2.8189
 5165TIP3    H215502   2.993   0.405   1.719 -0.7255 -0.7806 -1.9166
 5166TIP3   OH215503   2.331   3.024   1.825  0.7608 -0.5509 -0.0224
 5166TIP3    H115504   2.329   3.105   1.876 -2.1362  0.8483 -2.0827
 5166TIP3    H215505   2.408   3.034   1.769  1.8718 -0.4586  1.4410
 5167TIP3   OH215506   1.399   0.590   2.140  0.3476  0.6261  0.1237
 5167TIP3    H115507   1.423   0.664   2.196  0.4789 -1.0319  2.4019
 5167TIP3    H215508   1.304   0.597   2.129 -0.5621 -1.3768  4.5186
 5168TIP3   OH215509   5.285   0.324   1.782 -0.4926 -0.3876 -0.1110
 5168TIP3    H115510   5.250   0.236   1.769 -0.0915 -0.8842  1.8367
 5168TIP3    H215511   5.210   0.377   1.806 -0.3879 -0.8238  1.2912
 5169TIP3   OH215512   3.406   1.804   2.636  0.2885  0.2037  0.2073
 5169TIP3    H115513   3.375   1.760   2.557 -1.0871 -0.0946  0.8842
 5169TIP3    H215514   3.331   1.803   2.696  0.3633  2.9874  0.4878
 5170TIP3   OH215515   1.710   2.410   2.256  0.1888  0.2291 -0.2021
 5170TIP3    H115516   1.748   2.467   2.189  1.5404 -0.3922  0.0030
 5170TIP3    H215517   1.712   2.462   2.336  1.0937  0.0351 -0.0887
 5171TIP3   OH215518   3.777   2.576   3.642  0.0032 -0.0691  0.2421
 5171TIP3    H115519   3.727   2.656   3.659 -0.6359 -0.1811 -0.9814
 5171TIP3    H215520   3.850   2.579   3.704  0.3709  1.7836 -0.2284
 5172TIP3   OH215521   6.255   2.632   0.208 -0.1409 -0.0102  0.1885
 5172TIP3    H115522   6.268   2.725   0.226  1.0270 -0.0074 -0.5351
 5172TIP3    H215523   6.169   2.612   0.244  1.2422  0.3698  4.1169
 5173TIP3   OH215524   1.144   5.812   1.713 -0.2872 -0.8365  0.6258
 5173TIP3    H115525   1.227   5.784   1.673 -0.5747 -0.3080 -0.3836
 5173TIP3    H215526   1.089   5.836   1.638 -1.1812 -0.7066  1.3116
 5174TIP3   OH215527   6.053   0.850   4.074  0.6957  0.0416  0.2971
 5174TIP3    H115528   6.052   0.885   4.163  0.0386 -1.8966  1.0984
 5174TIP3    H215529   6.056   0.755   4.085  2.7923 -0.2448 -1.7564
 5175TIP3   OH215530   2.983   5.674   3.892  0.1078  0.4360  0.0400
 5175TIP3    H115531   3.019   5.761   3.909 -0.8372  0.7353  0.5670
 5175TIP3    H215532   2.924   5.687   3.817  0.1599  0.2033 -0.0411
 5176TIP3   OH215533   3.754   2.580   2.276  0.4076 -0.0461 -0.0123
 5176TIP3    H115534   3.820   2.561   2.209 -0.0010  0.9487 -0.7310
 5176TIP3    H215535   3.670   2.564   2.231  0.1394 -1.5967  0.9790
 5177TIP3   OH215536   2.425   4.765   2.196 -0.5924  0.7922  0.3361
 5177TIP3    H115537   2.402   4.832   2.131  1.5415  1.1284 -0.1786
 5177TIP3    H215538   2.476   4.813   2.262 -0.1694 -0.0949  0.6708
 5178TIP3   OH215539   1.175   5.802   3.356  0.3897  0.1423 -0.1605
 5178TIP3    H115540   1.140   5.891   3.349  1.7315  0.6646 -0.5239
 5178TIP3    H215541   1.139   5.769   3.438  0.0936  1.1245  0.1193
 5179TIP3   OH215542   2.602   5.138   5.164 -0.1049 -0.8821  0.5196
 5179TIP3    H115543   2.664   5.187   5.218  0.1510  0.2281 -0.7078
 5179TIP3    H215544   2.580   5.199   5.093 -2.3712 -1.3514  0.7493
 5180TIP3   OH215545   3.166   0.463   0.045 -0.4415 -0.2845 -0.0649
 5180TIP3    H115546   3.252   0.488   0.081 -0.0752 -0.0772 -1.0499
 5180TIP3    H215547   3.139   0.538  -0.007  0.5884 -1.7435 -2.9347
 5181TIP3   OH215548   2.060   4.822   4.142  0.3369 -0.1492 -0.4015
 5181TIP3    H115549   2.073   4.781   4.056 -0.6895  1.1677 -1.2294
 5181TIP3    H215550   2.137   4.875   4.156  0.2880  0.0155 -0.7457
 5182TIP3   OH215551   4.455   2.996   0.406 -0.1185  0.2266 -0.7015
 5182TIP3    H115552   4.527   3.042   0.449 -1.3236  0.6203  0.9607
 5182TIP3    H215553   4.383   3.058   0.405 -1.9328 -1.6467  1.9785
 5183TIP3   OH215554   6.020   0.846   4.351  0.1104 -0.2860 -0.0139
 5183TIP3    H115555   6.078   0.779   4.388 -0.0949 -0.6972 -0.4237
 5183TIP3    H215556   6.045   0.927   4.396  0.1598 -0.6903  0.7040
 5184TIP3   OH215557   3.304   5.749   4.276 -0.1855  0.3856 -0.2565
 5184TIP3    H115558   3.242   5.702   4.220  0.7571  0.7658 -1.6797
 5184TIP3    H215559   3.390   5.727   4.240  0.3728  1.6164  0.2827
 5185TIP3   OH215560   0.647   0.558   3.503  0.1268 -0.0268 -0.0513
 5185TIP3    H115561   0.710   0.588   3.569  1.0361  0.8548 -1.2824
 5185TIP3    H215562   0.590   0.497   3.551  0.5377  0.8339  1.6268
 5186TIP3   OH215563   5.185   0.917   2.936  0.3597 -0.5678 -0.0500
 5186TIP3    H115564   5.194   0.982   3.006  0.4457 -3.0548  2.4137
 5186TIP3    H215565   5.091   0.910   2.922  0.3695  0.4718 -0.8083
 5187TIP3   OH215566   4.922   4.236   2.593  0.1073  0.9031  0.1854
 5187TIP3    H115567   4.954   4.307   2.537  1.2330  1.7889  1.8511
 5187TIP3    H215568   4.878   4.282   2.665  0.2979 -0.1331  0.9716
 5188TIP3   OH215569   5.224   4.650   0.604 -0.0734  0.0171  0.0204
 5188TIP3    H115570   5.280   4.574   0.616 -0.6190 -0.2337  1.1353
 5188TIP3    H215571   5.137   4.620   0.632 -0.5737  0.6774 -0.7645
 5189TIP3   OH215572   0.469   3.115   2.920 -0.0472 -0.5829  0.0355
 5189TIP3    H115573   0.377   3.115   2.947 -0.0399 -1.7434  0.1228
 5189TIP3    H215574   0.467   3.138   2.827 -0.3050  0.6712  0.3317
 5190TIP3   OH215575   5.156   2.589   2.740  0.4685  0.5264 -0.0123
 5190TIP3    H115576   5.115   2.527   2.799 -1.0883 -0.6444 -2.1667
 5190TIP3    H215577   5.116   2.673   2.761  0.5331  0.2863  1.0917
 5191TIP3   OH215578   2.258   2.082   0.296 -0.5610 -0.0250  0.7228
 5191TIP3    H115579   2.348   2.065   0.323 -0.9731  0.3337  2.5010
 5191TIP3    H215580   2.265   2.124   0.210  0.9344 -0.3970  0.6449
 5192TIP3   OH215581   4.078   5.614   3.539  0.0477 -0.1065  0.6616
 5192TIP3    H115582   4.047   5.700   3.566 -0.8673 -0.8615  2.1626
 5192TIP3    H215583   4.079   5.562   3.619  0.9710 -1.3887 -0.1378
 5193TIP3   OH215584   3.057   0.412   0.492 -0.3359 -0.5883 -0.4070
 5193TIP3    H115585   3.089   0.327   0.522  2.0008  0.4527  0.3002
 5193TIP3    H215586   3.136   0.461   0.470 -1.6781  0.8355 -2.5075
 5194TIP3   OH215587   4.155   5.302   0.256 -0.0816  0.9559 -0.2438
 5194TIP3    H115588   4.084   5.243   0.232  2.0645 -1.0982 -2.0085
 5194TIP3    H215589   4.158   5.299   0.352  0.1588 -2.1765 -0.2579
 5195TIP3   OH215590   0.018   2.160   5.208  0.4255 -0.4011  0.0188
 5195TIP3    H115591   0.104   2.203   5.207 -0.4745  1.5148 -1.4722
 5195TIP3    H215592   0.006   2.129   5.118 -0.5849 -0.3136  0.1134
 5196TIP3   OH215593   4.861   4.841   4.715 -0.0612 -0.1489  0.0739
 5196TIP3    H115594   4.845   4.824   4.622 -1.9303  0.0224  0.3297
 5196TIP3    H215595   4.936   4.785   4.737  0.9635  0.4408 -1.7067
 5197TIP3   OH215596   4.551   0.482   0.343 -0.1318  0.4042 -0.1425
 5197TIP3    H115597   4.491   0.416   0.379  0.5407  0.5997  1.4501
 5197TIP3    H215598   4.523   0.564   0.383 -0.2771  0.9167 -1.2592
 5198TIP3   OH215599   1.659   0.559   2.056 -0.0438  0.0807  0.0636
 5198TIP3    H115600   1.678   0.644   2.015  0.9625  0.2357  0.8022
 5198TIP3    H215601   1.564   0.558   2.066 -0.3250  0.1042 -2.0821
 5199TIP3   OH215602   5.985   0.808   2.652  0.2816  1.0962 -0.2000
 5199TIP3    H115603   6.008   0.793   2.561  0.9644  0.8555  0.0042
 5199TIP3    H215604   5.894   0.837   2.650 -0.1592 -0.2574 -0.8471
 5200TIP3   OH215605   5.122   5.971   0.748 -0.0042  0.6846  0.0894
 5200TIP3    H115606   5.209   5.941   0.723 -0.5863 -1.7844  0.6941
 5200TIP3    H215607   5.083   6.005   0.667  0.7423 -0.3058 -0.7149
 5201TIP3   OH215608   1.178   5.945   0.988  0.1262 -0.0616 -0.1687
 5201TIP3    H115609   1.220   5.964   1.072 -1.0714  0.1487  0.4032
 5201TIP3    H215610   1.085   5.935   1.009 -0.3921  1.2449 -1.6514
 5202TIP3   OH215611   3.372   0.108   2.858  0.4223  0.6213  0.6037
 5202TIP3    H115612   3.460   0.097   2.823  1.3892 -0.2737  3.1303
 5202TIP3    H215613   3.324   0.030   2.829  1.3659 -0.3836  1.6831
 5203TIP3   OH215614   2.310   0.504   3.643  0.0919  0.0305  0.4332
 5203TIP3    H115615   2.349   0.580   3.686  0.8603  0.6874 -1.3593
 5203TIP3    H215616   2.362   0.429   3.674  0.1069  0.3742  1.2591
 5204TIP3   OH215617   0.421   3.541   4.154 -0.6667 -0.6114 -0.5335
 5204TIP3    H115618   0.347   3.482   4.165 -0.8135 -0.3727 -0.2205
 5204TIP3    H215619   0.450   3.528   4.064 -0.4296 -1.4727 -0.3406
 5205TIP3   OH215620   4.331   3.350   3.252 -0.0776 -0.3045  0.1271
 5205TIP3    H115621   4.385   3.296   3.193  0.4375  0.7809 -0.4098
 5205TIP3    H215622   4.294   3.286   3.313 -0.2525 -1.4069 -1.0685
 5206TIP3   OH215623   1.490   1.122   1.393  0.3105 -0.4333  0.0390
 5206TIP3    H115624   1.517   1.064   1.321  2.5063  1.3354 -0.6966
 5206TIP3    H215625   1.461   1.202   1.349  0.6861  0.2976  1.0872
 5207TIP3   OH215626   6.191   0.914   2.893 -0.3079  0.6963  0.0776
 5207TIP3    H115627   6.198   0.918   2.797  2.8469 -0.8477  0.0994
 5207TIP3    H215628   6.187   0.821   2.913  0.0418  0.9613  1.4578
 5208TIP3   OH215629   2.679   2.239   4.551 -0.5134 -0.4028 -0.0581
 5208TIP3    H115630   2.607   2.272   4.498 -0.2036  1.8762  0.8362
 5208TIP3    H215631   2.699   2.310   4.611 -0.1628 -2.4717  2.4451
 5209TIP3   OH215632   1.628   1.767   3.039 -0.1918 -0.3856  0.0430
 5209TIP3    H115633   1.656   1.857   3.024  0.7060 -0.2753  2.0391
 5209TIP3    H215634   1.614   1.731   2.952  0.0412  1.4934 -0.8111
 5210TIP3   OH215635   2.449   5.220   2.536 -1.0929 -0.5019  0.1268
 5210TIP3    H115636   2.536   5.191   2.564 -1.2652 -0.4335  0.7338
 5210TIP3    H215637   2.450   5.315   2.549 -1.4424 -0.5679  0.6373
 5211TIP3   OH215638   1.446   1.541   2.591 -0.0754  0.3925 -0.2501
 5211TIP3    H115639   1.451   1.486   2.670  1.5021 -2.0911 -1.9276
 5211TIP3    H215640   1.463   1.630   2.623 -0.4482 -0.3725  2.3223
 5212TIP3   OH215641   2.624   5.246   4.886 -0.3873 -0.1364 -0.6937
 5212TIP3    H115642   2.640   5.339   4.868 -0.2778  0.3536  1.5366
 5212TIP3    H215643   2.539   5.229   4.846 -2.5146  2.1810  2.3230
 5213TIP3   OH215644   2.978   4.949   4.325  0.2492 -0.4869  0.4816
 5213TIP3    H115645   2.930   4.914   4.400 -0.1059 -0.3356  0.3261
 5213TIP3    H215646   3.017   5.030   4.358  0.2336 -0.5074  0.5509
 5214TIP3   OH215647   2.554   3.037   3.081 -0.0490  0.4077  0.0956
 5214TIP3    H115648   2.556   3.094   3.158  0.1465  0.9758 -0.3197
 5214TIP3    H215649   2.589   3.092   3.011 -0.3574 -0.0568 -0.4262
 5215TIP3   OH215650   0.082   4.750   3.345  0.0813 -0.2823 -0.4250
 5215TIP3    H115651   0.014   4.803   3.387 -0.4802 -1.1415 -0.2197
 5215TIP3    H215652   0.083   4.668   3.395  2.4745  0.3331  0.6710
 5216TIP3   OH215653   0.094   2.888   3.980 -0.3395  0.0502 -0.0024
 5216TIP3    H115654   0.149   2.829   4.031 -0.8201 -0.0284  0.4344
 5216TIP3    H215655   0.011   2.890   4.027 -1.0925 -0.7103 -1.2497
 5217TIP3   OH215656   5.220   4.899   4.197  0.2171 -0.4386 -0.1454
 5217TIP3    H115657   5.137   4.910   4.150 -0.3506  0.1618  0.9579
 5217TIP3    H215658   5.231   4.804   4.201 -1.6330 -0.6536  1.6608
 5218TIP3   OH215659   0.833   2.741   4.813  0.3217  0.3907  0.1146
 5218TIP3    H115660   0.754   2.756   4.864  0.2697 -1.8744  0.8373
 5218TIP3    H215661   0.893   2.697   4.874  1.6984  0.9976 -0.7446
 5219TIP3   OH215662   3.064   1.395   3.604  0.0415 -0.4317 -0.3507
 5219TIP3    H115663   3.057   1.404   3.699  2.4449  0.6632 -0.1847
 5219TIP3    H215664   3.088   1.303   3.590  0.8547 -0.3218  0.2333
 5220TIP3   OH215665   0.546   5.023   1.557  0.2685 -0.3180  0.0751
 5220TIP3    H115666   0.520   5.006   1.466 -0.2927 -0.1698  0.2005
 5220TIP3    H215667   0.633   5.062   1.551 -0.5413  1.5065 -0.5416
 5221TIP3   OH215668   4.440   4.822   2.725  0.7057 -0.7736  0.1034
 5221TIP3    H115669   4.398   4.764   2.789 -0.1191  2.3823  2.7407
 5221TIP3    H215670   4.504   4.872   2.777  1.3059  0.7204 -1.9550
 5222TIP3   OH215671   4.366   4.606   0.255  0.4628 -0.0661 -0.2633
 5222TIP3    H115672   4.459   4.614   0.274  0.4962 -0.7134 -0.1400
 5222TIP3    H215673   4.361   4.602   0.160  0.6076 -0.4967 -0.2574
 5223TIP3   OH215674   1.988   0.702   1.870 -0.3736  0.4054  0.1614
 5223TIP3    H115675   1.966   0.726   1.960  0.6346 -0.3549  0.6343
 5223TIP3    H215676   2.059   0.763   1.846 -1.9738  1.9681 -0.8818
 5224TIP3   OH215677   2.547   4.919   0.272 -0.3505  0.0736  0.1371
 5224TIP3    H115678   2.552   4.843   0.213 -1.0269  0.0740  0.0689
 5224TIP3    H215679   2.551   4.995   0.214 -1.9310  0.0727 -0.0140
 5225TIP3   OH215680   3.752   0.655   1.241  0.2328 -0.9253  0.3456
 5225TIP3    H115681   3.743   0.680   1.333  0.1939  0.5394 -0.0301
 5225TIP3    H215682   3.666   0.618   1.218  0.7226 -2.7639  1.2783
 5226TIP3   OH215683   0.997   3.739   0.070 -0.2122 -0.2915  0.6984
 5226TIP3    H115684   1.018   3.647   0.054  1.6115  0.2052  0.0718
 5226TIP3    H215685   1.039   3.786  -0.002 -0.4413  1.1110  1.4536
 5227TIP3   OH215686   2.607   3.788   4.364  0.2153 -0.3328  0.0357
 5227TIP3    H115687   2.532   3.832   4.403  0.5209 -2.0474  2.7971
 5227TIP3    H215688   2.570   3.716   4.314 -0.0809  0.7737 -1.4073
 5228TIP3   OH215689   1.273   0.338   3.309 -0.7420  0.1296 -0.2639
 5228TIP3    H115690   1.278   0.364   3.401 -3.7193  1.0858 -0.2637
 5228TIP3    H215691   1.358   0.363   3.272  1.8021 -2.9922  2.7251
 5229TIP3   OH215692   2.662   4.607   2.468  0.2309 -0.1173  0.2788
 5229TIP3    H115693   2.713   4.545   2.519  1.4723  0.5950 -0.0551
 5229TIP3    H215694   2.678   4.692   2.509 -0.3987  0.1755 -0.0576
 5230TIP3   OH215695   2.825   1.687   1.404 -0.0415 -0.4127 -0.6722
 5230TIP3    H115696   2.868   1.627   1.343 -0.4960 -1.3785 -0.0548
 5230TIP3    H215697   2.808   1.635   1.482  0.3170  0.7504  0.2055
 5231TIP3   OH215698   1.272   2.348   0.956 -0.7943  0.4993  0.4800
 5231TIP3    H115699   1.207   2.357   0.886 -0.2451 -2.1528 -0.4831
 5231TIP3    H215700   1.313   2.263   0.940  2.6525  1.8575  1.2778
 5232TIP3   OH215701   1.172   0.311   4.118  0.5906  0.0623 -0.4233
 5232TIP3    H115702   1.091   0.325   4.166 -0.9926  0.4342 -3.0140
 5232TIP3    H215703   1.204   0.399   4.098  0.5041 -0.0672 -1.1592
 5233TIP3   OH215704   4.548   5.763   1.453 -0.2137 -0.3554  0.4826
 5233TIP3    H115705   4.545   5.800   1.541 -0.1501  1.2356 -0.1493
 5233TIP3    H215706   4.618   5.697   1.457  1.5088  1.4001  1.0468
 5234TIP3   OH215707   4.591   2.529   3.454  0.3246 -0.3434 -0.0959
 5234TIP3    H115708   4.554   2.600   3.507  1.3278  0.1346 -0.0056
 5234TIP3    H215709   4.654   2.573   3.397 -0.0949 -0.9773 -1.0651
 5235TIP3   OH215710   4.336   3.252   1.516 -0.4186 -0.2103 -0.2341
 5235TIP3    H115711   4.421   3.290   1.494  0.6499 -3.2665 -1.9879
 5235TIP3    H215712   4.335   3.251   1.612  1.6436 -0.2387 -0.1601
 5236TIP3   OH215713   4.098   4.239   4.038 -0.2123  0.3981 -0.0488
 5236TIP3    H115714   4.053   4.305   3.985 -1.0059  0.6164  0.8854
 5236TIP3    H215715   4.159   4.289   4.092  0.2220  0.2225 -0.3708
 5237TIP3   OH215716   5.176   0.508   1.610  0.2129 -0.1541  0.1589
 5237TIP3    H115717   5.226   0.581   1.647  1.0851 -0.1509 -0.9545
 5237TIP3    H215718   5.238   0.435   1.609 -0.5208 -0.8076  0.8547
 5238TIP3   OH215719   1.380   0.727   1.786 -0.1196 -0.0004 -0.0302
 5238TIP3    H115720   1.415   0.639   1.802  2.1692  0.3263 -2.5917
 5238TIP3    H215721   1.370   0.732   1.691 -0.9037  2.2838  0.1218
 5239TIP3   OH215722   4.258   1.288   2.952  0.1091 -0.0375  0.4358
 5239TIP3    H115723   4.232   1.216   2.894  0.4787 -0.8996  1.3284
 5239TIP3    H215724   4.255   1.366   2.896 -1.2516 -0.5916 -0.2952
 5240TIP3   OH215725   5.301   4.099   3.103  0.0428 -0.1045 -0.2836
 5240TIP3    H115726   5.247   4.052   3.166 -0.5199  0.0825 -0.6184
 5240TIP3    H215727   5.244   4.112   3.028 -0.3200  2.4043  0.3345
 5241TIP3   OH215728   1.817   4.643   1.275 -0.4084  0.3207  0.3784
 5241TIP3    H115729   1.828   4.635   1.370  1.7187  0.2689  0.1696
 5241TIP3    H215730   1.901   4.617   1.238 -0.1163  3.2308 -1.3771
 5242TIP3   OH215731   1.775   0.013   0.046 -0.0796  0.0067 -0.1416
 5242TIP3    H115732   1.725  -0.066   0.024  1.4607 -1.1961  0.4304
 5242TIP3    H215733   1.734   0.083  -0.004  0.4623 -1.7284 -3.2448
 5243TIP3   OH215734   4.920   2.596   4.571  0.3175 -0.0331 -0.3762
 5243TIP3    H115735   4.878   2.515   4.601  0.6969 -0.6622 -1.4813
 5243TIP3    H215736   4.997   2.605   4.627  1.3478 -1.5117 -1.4638
 5244TIP3   OH215737   4.375   4.451   2.432 -0.0765  0.1107  0.6241
 5244TIP3    H115738   4.372   4.547   2.424 -0.8731  0.0416  0.0694
 5244TIP3    H215739   4.286   4.426   2.455  0.1971 -0.4804  1.0766
 5245TIP3   OH215740   5.620   1.015   1.534 -0.0249 -0.0375  0.4783
 5245TIP3    H115741   5.710   1.041   1.551 -0.4221  0.7410  1.4938
 5245TIP3    H215742   5.595   0.963   1.611 -0.2624 -0.7256 -0.0582
 5246TIP3   OH215743   2.951   2.966   4.438  0.4991 -0.5108  0.0601
 5246TIP3    H115744   3.028   3.020   4.423  2.0577 -1.7562  2.8213
 5246TIP3    H215745   2.907   3.007   4.513  1.0524 -2.2800  1.4182
 5247TIP3   OH215746   5.559   1.760   4.418  0.0857  0.2234  0.1868
 5247TIP3    H115747   5.575   1.666   4.423  1.9524  0.3334 -2.0675
 5247TIP3    H215748   5.631   1.794   4.366 -1.2590  2.7224 -0.2041
 5248TIP3   OH215749   4.189   1.325   0.336  0.0818 -0.0223 -0.4357
 5248TIP3    H115750   4.280   1.295   0.341 -0.1331 -1.3372 -3.0035
 5248TIP3    H215751   4.144   1.259   0.283 -2.3583  0.7245  0.5328
 5249TIP3   OH215752   3.525   5.831   2.331  0.5456  0.2354  0.3501
 5249TIP3    H115753   3.462   5.854   2.398  1.0223 -0.8572  1.2141
 5249TIP3    H215754   3.498   5.744   2.301  0.4214  0.6454 -0.7836
 5250TIP3   OH215755   0.434   5.112   4.561  0.1439 -0.1446  0.1819
 5250TIP3    H115756   0.353   5.150   4.525  0.6498 -0.4663 -1.3463
 5250TIP3    H215757   0.501   5.178   4.543  0.9079 -1.4307 -1.9200
 5251TIP3   OH215758   5.876   2.936   4.957  0.2857 -0.4331 -0.2864
 5251TIP3    H115759   5.839   2.848   4.964  1.6632 -1.0240 -0.2874
 5251TIP3    H215760   5.970   2.923   4.952  0.5913  1.1062  0.7259
 5252TIP3   OH215761   2.974   1.329   0.437  0.0105  0.0126 -0.0609
 5252TIP3    H115762   3.061   1.293   0.456 -0.6790 -1.1576  1.0067
 5252TIP3    H215763   2.952   1.294   0.351  0.9954  1.1627 -0.8293
 5253TIP3   OH215764   1.735   5.419   2.963  0.2950 -0.0439  0.2127
 5253TIP3    H115765   1.797   5.486   2.932 -0.3811  1.4872  1.9174
 5253TIP3    H215766   1.651   5.465   2.966 -0.1145 -0.8352  1.8129
 5254TIP3   OH215767   0.228   3.011   0.867 -0.2981 -0.0888  0.2006
 5254TIP3    H115768   0.197   3.102   0.868  0.6008  0.2320  0.3727
 5254TIP3    H215769   0.322   3.019   0.850 -0.3554 -1.0360 -0.6439
 5255TIP3   OH215770   1.144   2.734   4.107 -0.1520 -0.4499  0.6538
 5255TIP3    H115771   1.073   2.683   4.146  0.8972 -0.6557  2.3719
 5255TIP3    H215772   1.207   2.747   4.178  0.9025  0.9016 -0.4608
 5256TIP3   OH215773   1.203   5.446   4.681 -0.2324  0.1790 -0.3060
 5256TIP3    H115774   1.181   5.537   4.702  3.3794  1.5767 -1.6253
 5256TIP3    H215775   1.195   5.442   4.585 -0.4510 -0.9656 -0.2519
 5257TIP3   OH215776   0.410   3.527   2.042 -0.1411 -0.3073  0.0820
 5257TIP3    H115777   0.449   3.614   2.043  0.0462 -0.3854  1.6064
 5257TIP3    H215778   0.320   3.540   2.075 -0.4332 -0.5537 -0.6027
 5258TIP3   OH215779   5.294   5.953   2.910 -0.2712  0.2457 -0.2386
 5258TIP3    H115780   5.229   5.910   2.966  0.9140 -1.3664 -0.0412
 5258TIP3    H215781   5.344   5.881   2.872 -0.5133  1.3174 -2.7945
 5259TIP3   OH215782   4.510   3.599   3.244 -0.3856 -0.8018 -0.1756
 5259TIP3    H115783   4.440   3.533   3.255 -1.2390  0.3088  1.5445
 5259TIP3    H215784   4.591   3.550   3.261 -0.8984 -1.6721 -0.1351
 5260TIP3   OH215785   1.000   5.180   3.937  0.3021  0.0010 -0.2122
 5260TIP3    H115786   0.986   5.254   3.995 -0.6889  1.7060 -2.4734
 5260TIP3    H215787   1.089   5.192   3.904  0.4265 -0.2812  0.0128
 5261TIP3   OH215788   6.003   3.841   1.499  0.0992  0.0235 -0.1455
 5261TIP3    H115789   5.958   3.898   1.436 -2.2626 -0.9065  0.5893
 5261TIP3    H215790   6.024   3.899   1.573  0.2214  0.5094 -0.5599
 5262TIP3   OH215791   4.209   5.345   4.309 -0.0001 -0.2466  0.1515
 5262TIP3    H115792   4.174   5.365   4.396  0.5764 -1.6540  0.7315
 5262TIP3    H215793   4.266   5.269   4.323  1.2118  0.3648 -1.2132
 5263TIP3   OH215794   3.022   4.546   4.353  0.5037 -0.1352  0.3400
 5263TIP3    H115795   3.048   4.455   4.344 -2.0065 -0.7696 -1.3396
 5263TIP3    H215796   2.930   4.548   4.327 -0.3050  2.4502  2.8477
 5264TIP3   OH215797   0.081   0.695   2.500 -0.3248  0.3783  0.7493
 5264TIP3    H115798   0.114   0.736   2.420  0.2706  0.2746  0.9414
 5264TIP3    H215799   0.017   0.757   2.535 -2.1061 -0.4127 -0.8549
 5265TIP3   OH215800   1.972   0.430   0.432  0.3044  0.0551 -0.0945
 5265TIP3    H115801   1.945   0.519   0.411  2.0704  0.9048  0.9551
 5265TIP3    H215802   1.946   0.378   0.356  0.4038  1.7131 -1.3248
 5266TIP3   OH215803   2.912   0.720   4.750 -0.4038 -0.1198  0.0055
 5266TIP3    H115804   3.002   0.710   4.718 -0.5303 -1.1893 -0.0608
 5266TIP3    H215805   2.909   0.807   4.788  1.2422 -0.7958  1.8209
 5267TIP3   OH215806   5.681   5.536   4.944  0.0196  0.2181  0.3592
 5267TIP3    H115807   5.735   5.595   4.891 -1.2814  0.4484 -0.7519
 5267TIP3    H215808   5.743   5.473   4.981  1.0800  0.6461 -0.6552
 5268TIP3   OH215809   3.018   2.049   3.204 -0.2224  0.1199 -0.1225
 5268TIP3    H115810   2.948   2.062   3.139 -0.8902 -0.8428  0.3756
 5268TIP3    H215811   2.973   2.017   3.282  0.4837  1.9141  1.0858
 5269TIP3   OH215812   2.004   5.258   0.943 -0.2144  0.1296 -0.3431
 5269TIP3    H115813   1.990   5.194   1.013  0.8073  1.8175  1.5318
 5269TIP3    H215814   1.937   5.325   0.959 -1.0265 -0.2304 -2.0305
 5270TIP3   OH215815   5.440   0.922   2.777 -0.3487  0.0233 -0.3005
 5270TIP3    H115816   5.367   0.912   2.837 -0.9672  0.5404 -0.9440
 5270TIP3    H215817   5.427   1.008   2.738  0.0803 -0.2633 -1.1052
 5271TIP3   OH215818   5.175   0.224   4.447 -0.0064 -0.5872 -0.5351
 5271TIP3    H115819   5.087   0.215   4.410  0.1726  0.1902 -1.1885
 5271TIP3    H215820   5.229   0.167   4.393  0.0739 -0.2344 -0.8337
 5272TIP3   OH215821   5.148   1.419   3.381  0.0579  0.3870 -0.9017
 5272TIP3    H115822   5.227   1.368   3.360  0.9790  1.1682  0.5160
 5272TIP3    H215823   5.174   1.510   3.368  0.5700  0.9202  2.8769
 5273TIP3   OH215824   0.976   4.756   3.178  0.3997 -0.3858  0.4924
 5273TIP3    H115825   1.056   4.717   3.212  0.9313  1.3656  1.3366
 5273TIP3    H215826   1.001   4.792   3.093  0.9992  1.5644  1.4284
 5274TIP3   OH215827   4.874   2.277   4.619 -0.3343 -0.6440  0.1699
 5274TIP3    H115828   4.842   2.276   4.709  0.9337 -0.2841  0.6530
 5274TIP3    H215829   4.868   2.186   4.591 -0.0203 -0.8999  0.8982
 5275TIP3   OH215830   0.393   1.807   1.398  0.2581  0.5489  0.1903
 5275TIP3    H115831   0.430   1.734   1.448  0.8578 -1.2816 -2.6783
 5275TIP3    H215832   0.305   1.818   1.434 -0.1676 -2.2085  0.1924
 5276TIP3   OH215833   1.446   0.213   4.899  0.8945 -0.5103  0.2948
 5276TIP3    H115834   1.452   0.118   4.892 -1.6091 -0.6270 -1.4347
 5276TIP3    H215835   1.474   0.246   4.814 -0.8649  0.1028 -0.0782
 5277TIP3   OH215836   5.235   0.560   1.295 -0.2514  0.3157  0.1551
 5277TIP3    H115837   5.263   0.504   1.368  1.1326  0.2767 -0.3756
 5277TIP3    H215838   5.298   0.541   1.225 -0.9111  1.1428 -0.6836
 5278TIP3   OH215839   4.091   4.078   2.484  0.3746  0.0509  0.3234
 5278TIP3    H115840   4.033   4.037   2.548 -0.9115  0.0584 -0.7992
 5278TIP3    H215841   4.175   4.034   2.496 -0.8507 -2.7891 -0.6118
 5279TIP3   OH215842   1.298   1.659   0.769 -0.4462 -0.6297  0.5076
 5279TIP3    H115843   1.242   1.590   0.733  0.1308 -0.4495 -0.8009
 5279TIP3    H215844   1.245   1.702   0.835 -0.4578 -3.0588  2.2313
 5280TIP3   OH215845   3.948   5.186   3.401 -0.3081 -0.3755 -0.4091
 5280TIP3    H115846   3.874   5.227   3.355 -0.8384 -1.3765 -0.4666
 5280TIP3    H215847   4.014   5.255   3.405 -1.5943  0.8649  0.4948
 5281TIP3   OH215848   5.629   2.518   4.662  0.1573  0.6293 -0.4053
 5281TIP3    H115849   5.696   2.582   4.639  0.7479  0.1095 -0.1570
 5281TIP3    H215850   5.556   2.570   4.695  0.5935  1.1772 -0.2994
 5282TIP3   OH215851   1.664   1.571   2.854  0.8466 -0.2681 -0.0049
 5282TIP3    H115852   1.715   1.491   2.858 -0.1076 -0.9258 -0.6627
 5282TIP3    H215853   1.700   1.619   2.779  1.2848 -0.1578  0.2687
 5283TIP3   OH215854   3.015   3.320   1.659  0.5331 -0.0162 -0.4580
 5283TIP3    H115855   3.033   3.403   1.615  0.0027  0.6486  0.5525
 5283TIP3    H215856   2.922   3.305   1.645  0.5458 -0.2459 -0.2960
 5284TIP3   OH215857   2.352   5.882   4.370  0.1239 -0.4512 -0.3093
 5284TIP3    H115858   2.376   5.819   4.302  1.1486 -1.2159  0.7145
 5284TIP3    H215859   2.257   5.879   4.374 -0.0159  0.0769 -2.1140
 5285TIP3   OH215860   1.417   0.297   3.560  0.2372  0.7553 -1.0596
 5285TIP3    H115861   1.427   0.203   3.577 -0.9804  0.4214 -2.0311
 5285TIP3    H215862   1.364   0.329   3.632 -0.0131  0.5382 -1.1487
 5286TIP3   OH215863   4.330   0.363   3.570  0.2051 -0.0299  0.6575
 5286TIP3    H115864   4.379   0.283   3.553  0.1973 -0.2943  1.8018
 5286TIP3    H215865   4.388   0.433   3.541  0.8454 -0.3916  1.0315
 5287TIP3   OH215866   5.892   4.881   3.513 -0.2298 -0.1303  0.0138
 5287TIP3    H115867   5.933   4.954   3.466 -1.6686  0.1958 -0.7898
 5287TIP3    H215868   5.911   4.804   3.459 -0.0786 -0.0974  0.0193
 5288TIP3   OH215869   0.123   1.223   4.040 -0.1860 -0.4060 -0.6996
 5288TIP3    H115870   0.105   1.263   4.125 -0.9884  1.8013 -1.8251
 5288TIP3    H215871   0.076   1.140   4.042 -0.3012 -0.3341  0.9382
 5289TIP3   OH215872   2.983   3.685   5.135 -0.8350 -0.4827 -0.6610
 5289TIP3    H115873   3.019   3.617   5.077 -0.2369 -0.6395 -0.1188
 5289TIP3    H215874   2.895   3.703   5.099 -1.1054 -1.7217 -0.6685
 5290TIP3   OH215875   2.343   4.178   3.072 -0.7312  0.2460 -0.0088
 5290TIP3    H115876   2.383   4.182   3.159 -0.2031 -0.4322 -0.2088
 5290TIP3    H215877   2.392   4.109   3.027 -1.0965  0.4920 -0.7941
 5291TIP3   OH215878   1.647   2.082   3.655  0.0244  0.6751  0.6287
 5291TIP3    H115879   1.706   2.044   3.589  0.1154  2.3898 -0.3349
 5291TIP3    H215880   1.559   2.056   3.626  0.1532  0.1551  0.6942
 5292TIP3   OH215881   3.540   4.492   3.432 -0.2867  0.1663 -0.4149
 5292TIP3    H115882   3.535   4.459   3.521  0.6590 -0.3869 -0.5466
 5292TIP3    H215883   3.464   4.455   3.387 -0.2022 -0.3955 -0.1008
 5293TIP3   OH215884   3.596   5.881   3.149 -0.4011  0.1280  0.2237
 5293TIP3    H115885   3.684   5.896   3.186  1.0113 -0.5559 -2.5545
 5293TIP3    H215886   3.570   5.967   3.117 -0.5904  0.2490  0.6890
 5294TIP3   OH215887   1.550   3.855   3.852 -0.2453  0.0685 -0.4938
 5294TIP3    H115888   1.509   3.833   3.935  0.4508  1.7251  0.3485
 5294TIP3    H215889   1.491   3.921   3.813  0.2301  0.4644 -0.5554
 5295TIP3   OH215890   0.751   4.869   0.225  0.1604  0.2718 -0.9118
 5295TIP3    H115891   0.682   4.804   0.218  0.9124 -0.7844  0.7984
 5295TIP3    H215892   0.819   4.839   0.165 -0.0759  0.2874 -1.1913
 5296TIP3   OH215893   0.875   4.817   3.663 -0.1817 -0.1266 -0.0213
 5296TIP3    H115894   0.899   4.844   3.751  0.8507  1.9996 -0.8827
 5296TIP3    H215895   0.949   4.844   3.608 -1.0007 -0.9607 -1.6074
 5297TIP3   OH215896   2.772   2.474   1.241  0.4987 -0.3283 -0.7500
 5297TIP3    H115897   2.755   2.382   1.262  2.9073 -0.5276  0.7230
 5297TIP3    H215898   2.689   2.519   1.260 -0.0995 -1.9019  0.5426
 5298TIP3   OH215899   5.676   5.919   5.068 -0.6666 -0.1143  0.2612
 5298TIP3    H115900   5.626   5.841   5.091  0.2249 -1.1892 -1.2812
 5298TIP3    H215901   5.695   5.909   4.975  0.3130  1.4769  0.2532
 5299TIP3   OH215902   5.281   5.957   0.288  0.3761 -0.3476  0.0345
 5299TIP3    H115903   5.363   5.929   0.247  1.5166 -0.1041  1.9814
 5299TIP3    H215904   5.282   6.053   0.278  1.7680 -0.0307  2.3474
 5300TIP3   OH215905   4.824   1.549   3.558 -0.0127  0.1715  0.6534
 5300TIP3    H115906   4.888   1.580   3.493  2.3659 -2.6107  1.4928
 5300TIP3    H215907   4.786   1.471   3.518 -0.3773 -0.1230  1.5587
 5301TIP3   OH215908   3.397   5.836   4.764  0.1172 -0.1601 -0.1051
 5301TIP3    H115909   3.481   5.866   4.800  0.4249 -0.1596 -0.8027
 5301TIP3    H215910   3.396   5.870   4.674 -0.7624  0.0813 -0.0082
 5302TIP3   OH215911   2.546   4.826   3.434 -0.4333  0.1631  0.0628
 5302TIP3    H115912   2.524   4.792   3.347  0.1968 -0.0119 -0.0286
 5302TIP3    H215913   2.641   4.829   3.436 -0.4575  1.4195  0.2704
 5303TIP3   OH215914   0.444   3.077   2.613 -0.8658  0.4038  0.4298
 5303TIP3    H115915   0.360   3.122   2.613 -0.5751  1.0128  2.0536
 5303TIP3    H215916   0.432   3.004   2.673  0.0914  1.2051  1.6462
 5304TIP3   OH215917   3.533   2.138   3.137  0.4870  0.0292 -0.2565
 5304TIP3    H115918   3.572   2.155   3.052  0.2114  0.5362 -0.2844
 5304TIP3    H215919   3.587   2.068   3.175 -0.0567 -0.9889 -1.3051
 5305TIP3   OH215920   6.153   5.148   1.409 -0.8227 -0.2080  0.0038
 5305TIP3    H115921   6.212   5.218   1.439 -1.1898 -0.8942  2.6155
 5305TIP3    H215922   6.080   5.194   1.367 -0.4984  0.9354  0.6473
 5306TIP3   OH215923   4.175   1.344   2.068 -0.1597  0.3784 -0.6412
 5306TIP3    H115924   4.097   1.374   2.020 -0.1382 -0.3443 -1.1471
 5306TIP3    H215925   4.234   1.419   2.067 -0.4077  0.5719 -1.2284
 5307TIP3   OH215926   5.921   1.260   2.961 -0.1347  1.0890 -0.2222
 5307TIP3    H115927   6.012   1.242   2.985 -0.8077  0.4419  2.1173
 5307TIP3    H215928   5.926   1.291   2.871  2.2863  0.0353 -0.5430
 5308TIP3   OH215929   2.634   2.733   2.453  0.0098 -0.3017  0.2180
 5308TIP3    H115930   2.606   2.769   2.537  1.6863 -0.5848  0.9273
 5308TIP3    H215931   2.570   2.766   2.390  0.1304  1.9768  1.2066
 5309TIP3   OH215932   6.108   1.572   2.876 -0.1676 -1.1762  0.0521
 5309TIP3    H115933   6.121   1.592   2.969 -0.6032  0.3692 -0.1881
 5309TIP3    H215934   6.183   1.516   2.853  1.8382  1.0894  0.5824
 5310TIP3   OH215935   4.640   0.860   1.322  0.0694 -0.6804  0.3381
 5310TIP3    H115936   4.721   0.898   1.290 -0.3924 -0.3045 -0.4134
 5310TIP3    H215937   4.593   0.833   1.243 -1.7341  1.5741  0.5052
 5311TIP3   OH215938   0.998   5.142   3.556  0.2373  0.5126  0.3372
 5311TIP3    H115939   0.957   5.207   3.499  0.7026  1.5320  1.1364
 5311TIP3    H215940   0.936   5.132   3.628 -0.5257 -1.0475 -0.4697
 5312TIP3   OH215941   4.904   1.089   4.699 -0.2507 -0.6210 -0.3281
 5312TIP3    H115942   4.987   1.137   4.694 -0.1059 -0.9247 -0.8606
 5312TIP3    H215943   4.908   1.027   4.627  0.4276 -2.7963  1.4662
 5313TIP3   OH215944   4.329   4.105   3.328  0.3443  0.1915  0.3594
 5313TIP3    H115945   4.295   4.047   3.396  0.9546 -0.9903 -0.3189
 5313TIP3    H215946   4.277   4.185   3.337 -0.1886 -0.2661  1.6241
 5314TIP3   OH215947   2.366   5.535   4.799  0.0517  0.0988 -0.7843
 5314TIP3    H115948   2.459   5.520   4.817  0.5668  0.9105 -2.5743
 5314TIP3    H215949   2.325   5.531   4.885  1.8915  0.7123  0.1858
 5315TIP3   OH215950   6.088   0.670   2.391 -0.1324 -0.5506 -0.0637
 5315TIP3    H115951   6.117   0.610   2.321  2.2310 -0.0487  0.4034
 5315TIP3    H215952   6.099   0.757   2.353  0.9311 -0.2829  0.8300
 5316TIP3   OH215953   1.859   3.438   3.283  0.3126  0.6949  0.2312
 5316TIP3    H115954   1.837   3.374   3.352  0.3513  0.2662 -0.1482
 5316TIP3    H215955   1.787   3.501   3.286 -0.3164  0.0073 -0.1414
 5317TIP3   OH215956   0.183   2.878   0.082 -0.3573 -0.1047 -0.2794
 5317TIP3    H115957   0.245   2.935   0.037  0.8366 -0.7914  0.4500
 5317TIP3    H215958   0.231   2.796   0.096 -1.4522 -0.6839  0.2575
 5318TIP3   OH215959   1.894   0.643   2.659 -0.1199 -0.2568  0.1838
 5318TIP3    H115960   1.827   0.671   2.722 -0.2410  0.1641 -0.1259
 5318TIP3    H215961   1.977   0.665   2.701 -0.2122  0.5444 -0.0354
 5319TIP3   OH215962   3.431   1.205   1.378 -0.4136 -0.2385 -0.2111
 5319TIP3    H115963   3.490   1.181   1.450 -1.2531 -0.3397  0.4465
 5319TIP3    H215964   3.490   1.216   1.303  0.4408 -0.4160  0.4120
 5320TIP3   OH215965   5.055   3.475   4.286 -0.3014 -0.0844  0.0091
 5320TIP3    H115966   4.972   3.435   4.314  0.5342 -2.2493 -0.4383
 5320TIP3    H215967   5.044   3.489   4.192  0.1158 -1.1484 -0.2089
 5321TIP3   OH215968   2.820   5.432   5.112  0.5203 -0.2086  0.2628
 5321TIP3    H115969   2.891   5.375   5.081 -0.0125 -0.6415 -0.1685
 5321TIP3    H215970   2.800   5.399   5.199 -0.3060 -1.2002 -0.2737
 5322TIP3   OH215971   0.187   0.009   0.997  0.3709 -0.3111  0.4525
 5322TIP3    H115972   0.179   0.015   1.092 -0.0158 -1.7991  0.5370
 5322TIP3    H215973   0.267   0.057   0.977  1.5070 -1.5599  1.7493
 5323TIP3   OH215974   2.842   0.567   1.470  0.4416 -0.1055  0.5490
 5323TIP3    H115975   2.906   0.497   1.455  0.2652  0.2097 -2.4215
 5323TIP3    H215976   2.765   0.539   1.420  0.3089  2.0521 -0.5694
 5324TIP3   OH215977   6.348   2.251   4.629 -0.7366  0.2970 -0.0715
 5324TIP3    H115978   6.260   2.254   4.666 -0.3919  0.0707  0.8136
 5324TIP3    H215979   6.361   2.159   4.606 -0.9661  0.4457 -0.8118
 5325TIP3   OH215980   2.256   3.218   2.352 -0.1089  0.1489  0.3441
 5325TIP3    H115981   2.323   3.273   2.311 -1.6926  2.3717  0.5382
 5325TIP3    H215982   2.205   3.185   2.279  1.0130 -1.3934  0.2084
 5326TIP3   OH215983   1.925   2.370   4.617  0.6490  0.5009 -1.1997
 5326TIP3    H115984   1.855   2.304   4.613 -0.6791  1.8232 -0.6085
 5326TIP3    H215985   2.006   2.319   4.604 -0.1859 -1.4801  0.7194
 5327TIP3   OH215986   6.000   4.521   4.628 -0.2524 -0.1479  0.1732
 5327TIP3    H115987   6.054   4.594   4.597 -1.1057  1.3255  1.9899
 5327TIP3    H215988   5.912   4.542   4.599 -0.5704 -0.2676  1.0467
 5328TIP3   OH215989   5.333   0.279   3.227 -0.3958  0.4131  0.0911
 5328TIP3    H115990   5.288   0.292   3.311  0.7982  0.0707  0.8190
 5328TIP3    H215991   5.425   0.267   3.251  0.0039  0.4974 -1.2958
 5329TIP3   OH215992   5.769   2.093   3.827 -0.4260  0.6544 -0.0966
 5329TIP3    H115993   5.716   2.041   3.887 -0.2733  0.2376 -0.3181
 5329TIP3    H215994   5.790   2.172   3.876 -1.6159  1.0228 -0.1624
 5330TIP3   OH215995   6.137   0.162   2.301 -0.4602 -0.0069  0.1893
 5330TIP3    H115996   6.226   0.165   2.265 -0.8107 -0.5476 -0.7779
 5330TIP3    H215997   6.149   0.156   2.395  0.5286 -0.1458  0.0669
 5331TIP3   OH215998   5.883   5.180   1.185  0.5081 -0.3812 -0.6852
 5331TIP3    H115999   5.820   5.232   1.236 -0.8335 -1.3761 -1.2734
 5331TIP3    H216000   5.841   5.095   1.176  2.9974 -1.8728  0.9151
 5332TIP3   OH216001   5.977   1.140   0.751  0.2405 -0.3486  0.0003
 5332TIP3    H116002   6.039   1.184   0.692  0.5320 -0.6509  0.0818
 5332TIP3    H216003   5.927   1.082   0.694 -0.2824  0.2290 -0.1413
 5333TIP3   OH216004   5.184   5.791   2.225  0.6482 -0.1233  1.1286
 5333TIP3    H116005   5.261   5.759   2.271  0.7587 -2.7443 -0.6964
 5333TIP3    H216006   5.213   5.806   2.135 -0.8690 -0.8684  0.4823
 5334TIP3   OH216007   6.221   2.603   2.334  0.1372 -0.0345 -0.1833
 5334TIP3    H116008   6.285   2.533   2.323 -0.4037 -0.8595  1.5353
 5334TIP3    H216009   6.141   2.568   2.295 -0.0517 -0.2679  0.4008
 5335TIP3   OH216010   6.211   2.283   1.163  1.0073  0.0492  0.1839
 5335TIP3    H116011   6.218   2.229   1.085 -1.3226  0.2284 -0.2221
 5335TIP3    H216012   6.301   2.294   1.194  1.7942 -1.4934 -1.4501
 5336TIP3   OH216013   1.343   4.265   5.072 -0.0545  0.1685 -0.1537
 5336TIP3    H116014   1.432   4.254   5.105  0.7084  0.2762 -2.0451
 5336TIP3    H216015   1.300   4.319   5.139  1.1041 -0.3686  1.0804
 5337TIP3   OH216016   1.379   5.084   0.406 -0.4039 -0.1149  0.0306
 5337TIP3    H116017   1.473   5.080   0.420 -0.4424 -1.8122 -0.0201
 5337TIP3    H216018   1.356   4.998   0.372 -2.3246 -0.6079  2.2992
 5338TIP3   OH216019   3.635   0.412   5.057 -0.2579  0.7610 -0.2912
 5338TIP3    H116020   3.724   0.389   5.030 -1.6812 -1.6335 -3.5306
 5338TIP3    H216021   3.626   0.505   5.034  1.2129  0.8777 -0.4570
 5339TIP3   OH216022   3.369   3.915   3.068  0.8556  0.7529 -0.6081
 5339TIP3    H116023   3.385   3.892   2.976 -0.0412 -1.4263 -0.2801
 5339TIP3    H216024   3.289   3.968   3.065 -0.1511 -0.7385 -0.9698
 5340TIP3   OH216025   0.641   3.677   2.095 -0.1322  0.1687  0.1028
 5340TIP3    H116026   0.677   3.710   2.178 -1.0336 -0.8945  0.9444
 5340TIP3    H216027   0.566   3.733   2.077 -2.2581 -1.8059  2.0333
 5341TIP3   OH216028   5.743   4.928   2.860  0.6626 -0.0760  0.6801
 5341TIP3    H116029   5.659   4.944   2.903 -0.1819  0.4577 -1.0833
 5341TIP3    H216030   5.793   4.877   2.924 -0.9750 -0.3594  1.7940
 5342TIP3   OH216031   6.198   4.885   4.302 -0.3087 -0.2409  0.3226
 5342TIP3    H116032   6.274   4.843   4.262 -2.3226 -1.6945 -2.2928
 5342TIP3    H216033   6.219   4.979   4.301  1.7404 -0.6622  0.4526
 5343TIP3   OH216034   0.963   1.480   1.466 -0.4423 -0.5099 -0.1394
 5343TIP3    H116035   0.925   1.504   1.550  0.2307  2.7498 -0.6407
 5343TIP3    H216036   0.896   1.502   1.401 -0.4335 -1.7104 -0.5874
 5344TIP3   OH216037   5.792   3.821   0.734 -0.5140 -0.1824 -0.4055
 5344TIP3    H116038   5.837   3.798   0.815  1.3601  1.2544 -0.9777
 5344TIP3    H216039   5.714   3.869   0.763 -0.6125 -0.8877  0.5539
 5345TIP3   OH216040   4.264   5.019   2.012 -0.2028 -0.0688 -0.3457
 5345TIP3    H116041   4.331   4.953   2.026 -0.1244 -0.1606 -1.1422
 5345TIP3    H216042   4.186   4.984   2.057  0.5224  0.5015  1.4529
 5346TIP3   OH216043   2.692   5.404   1.450  0.2051  0.3385 -0.3236
 5346TIP3    H116044   2.720   5.383   1.360 -0.0049 -1.3342 -0.0286
 5346TIP3    H216045   2.732   5.336   1.503 -1.7483 -0.1934  0.5364
 5347TIP3   OH216046   3.356   2.203   1.477 -0.2938 -0.4853  0.0337
 5347TIP3    H116047   3.347   2.250   1.560  0.9956 -1.2042  0.5949
 5347TIP3    H216048   3.325   2.266   1.411 -0.0530  0.5841  0.9190
 5348TIP3   OH216049   1.305   2.036   5.029  0.0997 -0.4577  0.2316
 5348TIP3    H116050   1.371   1.977   5.067  0.3745  0.2728  0.9282
 5348TIP3    H216051   1.277   2.091   5.102  0.9098  1.2496 -0.6596
 5349TIP3   OH216052   4.208   0.600   4.146  0.2471 -0.3470 -0.3375
 5349TIP3    H116053   4.174   0.525   4.194  0.3545 -0.1611  0.0311
 5349TIP3    H216054   4.284   0.628   4.196 -0.1862  0.4285 -0.0977
 5350TIP3   OH216055   2.832   1.950   4.571  0.3959 -0.2568 -0.1828
 5350TIP3    H116056   2.861   1.969   4.660 -0.9709  0.7716  0.0726
 5350TIP3    H216057   2.756   2.007   4.557  1.6238  0.9743 -2.6330
 5351TIP3   OH216058   3.867   4.455   0.924  0.0153  0.0823 -0.3803
 5351TIP3    H116059   3.775   4.434   0.909  0.0596 -0.0523 -0.4648
 5351TIP3    H216060   3.902   4.378   0.969 -0.5271  1.1606  2.0365
 5352TIP3   OH216061   2.242   1.189   4.477  0.3611  0.0487  0.0756
 5352TIP3    H116062   2.299   1.266   4.480 -1.1786  1.3054 -1.3654
 5352TIP3    H216063   2.291   1.122   4.524  3.5295  0.7204 -1.9650
 5353TIP3   OH216064   5.771   0.780   0.317 -0.2758  0.2313  0.3371
 5353TIP3    H116065   5.735   0.736   0.394 -0.2536  0.6350  0.5818
 5353TIP3    H216066   5.865   0.786   0.335 -0.1827 -0.2025  0.0110
 5354TIP3   OH216067   2.866   3.957   0.083 -1.2519 -0.0592  0.3722
 5354TIP3    H116068   2.929   3.937   0.152 -1.9173 -1.4605  0.6040
 5354TIP3    H216069   2.906   4.030   0.035  0.2468 -0.5069  0.8878
 5355TIP3   OH216070   2.989   2.596   3.194 -0.6751 -0.4704  0.0402
 5355TIP3    H116071   3.049   2.559   3.260  0.2227  0.7753 -0.0485
 5355TIP3    H216072   3.043   2.607   3.116 -1.1402  0.2273 -0.1910
 5356TIP3   OH216073   2.061   1.446   5.089  0.4156  0.3073 -0.2992
 5356TIP3    H116074   2.025   1.386   5.154 -2.7970 -0.7042 -2.7549
 5356TIP3    H216075   1.994   1.514   5.079  2.2174  2.1656 -0.4527
 5357TIP3   OH216076   1.417   1.263   2.219 -0.4708  0.3217 -0.0526
 5357TIP3    H116077   1.394   1.189   2.163 -0.2593  0.2001  0.0183
 5357TIP3    H216078   1.336   1.312   2.230 -0.3162  0.9317 -1.3343
 5358TIP3   OH216079   2.089   3.561   0.939  0.1341  0.6405  0.2428
 5358TIP3    H116080   2.009   3.526   0.899  0.6056 -0.3220  0.1291
 5358TIP3    H216081   2.059   3.638   0.988 -0.6437  1.1315 -0.9510
 5359TIP3   OH216082   4.150   0.372   2.751 -0.5607  0.5970 -0.4265
 5359TIP3    H116083   4.073   0.316   2.759 -0.7457  0.7065 -1.3056
 5359TIP3    H216084   4.136   0.441   2.816 -0.8111  0.1790 -0.0279
 5360TIP3   OH216085   3.944   4.345   1.633 -0.2621 -0.5613  0.0103
 5360TIP3    H116086   4.012   4.412   1.639 -0.6751 -0.0637 -0.6061
 5360TIP3    H216087   3.972   4.276   1.692  0.1444  0.1946  0.7246
 5361TIP3   OH216088   3.158   2.349   4.025  0.5688  0.1699 -0.3744
 5361TIP3    H116089   3.215   2.425   4.015 -0.5911  1.2876  1.1229
 5361TIP3    H216090   3.205   2.292   4.086  0.9097  0.2268 -0.5836
 5362TIP3   OH216091   2.899   2.537   1.720 -0.6330  0.0376 -0.1085
 5362TIP3    H116092   2.942   2.542   1.805 -0.2114 -1.4824 -0.1973
 5362TIP3    H216093   2.837   2.465   1.729  0.9606 -1.6338 -1.7114
 5363TIP3   OH216094   2.522   0.731   1.233 -0.9321  0.2975 -0.2346
 5363TIP3    H116095   2.548   0.749   1.143 -0.4273 -0.1206 -0.1736
 5363TIP3    H216096   2.593   0.767   1.287 -1.0572  0.2214 -0.0171
 5364TIP3   OH216097   6.109   3.861   2.142 -0.4193  0.1360  0.2668
 5364TIP3    H116098   6.079   3.881   2.231  2.2921 -1.9482  1.8252
 5364TIP3    H216099   6.131   3.946   2.104 -2.9510  1.2090  0.9595
 5365TIP3   OH216100   0.560   4.369   3.056 -0.4026  0.1824 -0.0371
 5365TIP3    H116101   0.653   4.386   3.040 -0.6693  1.6889 -0.1572
 5365TIP3    H216102   0.516   4.403   2.978 -1.0713 -0.3133  0.1190
 5366TIP3   OH216103   4.217   4.106   4.518 -0.3245 -0.1716 -0.4560
 5366TIP3    H116104   4.122   4.095   4.507 -0.2653  1.0337 -2.8933
 5366TIP3    H216105   4.245   4.148   4.437  1.8125  2.5487  1.5286
 5367TIP3   OH216106   1.871   2.321   2.815 -0.4088  0.1855 -0.6121
 5367TIP3    H116107   1.779   2.347   2.815  0.1839  2.5412 -0.7652
 5367TIP3    H216108   1.894   2.317   2.908 -1.0326 -2.0679 -0.5057
 5368TIP3   OH216109   3.114   0.970   2.637  0.1551 -0.0560 -0.4558
 5368TIP3    H116110   3.104   1.039   2.572 -2.1748  1.7110  1.5843
 5368TIP3    H216111   3.168   1.009   2.706  0.7764 -1.1328 -0.3054
 5369TIP3   OH216112   2.763   0.454   3.018 -0.1845 -0.0436  0.1420
 5369TIP3    H116113   2.775   0.370   2.976 -0.2356  0.3561 -0.6928
 5369TIP3    H216114   2.779   0.518   2.948 -0.9460  0.6127  0.5609
 5370TIP3   OH216115   5.590   4.030   4.494  0.5501 -0.4006  0.3672
 5370TIP3    H116116   5.636   4.091   4.553 -1.1749  2.1500 -0.7120
 5370TIP3    H216117   5.634   4.041   4.410 -0.4814  0.2756 -0.1041
 5371TIP3   OH216118   5.334   1.148   2.231 -0.0958  0.3181 -0.2643
 5371TIP3    H116119   5.250   1.143   2.185  0.1212  0.7364 -0.7249
 5371TIP3    H216120   5.383   1.072   2.201 -0.7884 -0.6668  1.0176
 5372TIP3   OH216121   0.670   2.267   3.484 -0.2516  0.1193 -0.1461
 5372TIP3    H116122   0.724   2.341   3.510 -0.0019 -0.3443  0.7335
 5372TIP3    H216123   0.732   2.195   3.474 -0.7591 -0.7006  1.9640
 5373TIP3   OH216124   2.522   0.831   2.599 -0.0808 -0.1804  0.1592
 5373TIP3    H116125   2.448   0.852   2.542  0.6765  1.5399 -0.2517
 5373TIP3    H216126   2.583   0.785   2.542  0.0148  0.1756 -0.0313
 5374TIP3   OH216127   5.395   1.173   1.093  0.0095  0.3621  0.5309
 5374TIP3    H116128   5.397   1.226   1.013  2.1070  0.0884  0.3626
 5374TIP3    H216129   5.429   1.231   1.161  0.2633 -0.0905  0.7918
 5375TIP3   OH216130   6.323   0.759   0.948 -0.6352 -0.6506 -0.4352
 5375TIP3    H116131   6.264   0.829   0.921 -0.9568 -1.4614 -1.9023
 5375TIP3    H216132   6.397   0.805   0.989 -0.8912  0.5331 -1.2580
 5376TIP3   OH216133   2.306   5.673   1.429 -0.0961  0.1190  0.4051
 5376TIP3    H116134   2.370   5.703   1.364 -0.0639 -1.0776 -0.1338
 5376TIP3    H216135   2.344   5.593   1.465 -0.3163  0.5339  1.6023
 5377TIP3   OH216136   2.074   3.121   3.108  0.0636 -0.5268 -0.1812
 5377TIP3    H116137   2.072   3.186   3.038  0.2588  0.8913  1.0828
 5377TIP3    H216138   2.151   3.068   3.090 -0.3166 -0.6789 -1.4427
 5378TIP3   OH216139   5.684   3.692   1.234 -0.1517 -0.1401 -0.2072
 5378TIP3    H116140   5.609   3.747   1.212 -0.0215 -1.1562 -3.9404
 5378TIP3    H216141   5.647   3.617   1.280 -1.1889  0.2220 -0.4280
 5379TIP3   OH216142   5.160   0.232   0.494  0.0616 -0.0813 -0.2299
 5379TIP3    H116143   5.139   0.274   0.411 -0.4600  0.9270  0.3898
 5379TIP3    H216144   5.093   0.263   0.555  1.3678  0.5570  0.9740
 5380TIP3   OH216145   3.748   1.681   1.945  0.0125  0.0536  0.0537
 5380TIP3    H116146   3.788   1.612   1.893  2.3604  0.2143  1.4786
 5380TIP3    H216147   3.733   1.641   2.031 -1.1425  0.5560  0.1029
 5381TIP3   OH216148   2.674   4.446   0.674 -0.5469  0.7705 -0.4382
 5381TIP3    H116149   2.654   4.387   0.746  0.7993 -0.2479 -0.8554
 5381TIP3    H216150   2.769   4.451   0.673 -0.5911  4.1111  0.4599
 5382TIP3   OH216151   2.992   5.764   0.106 -0.4928  0.0584  0.3401
 5382TIP3    H116152   3.008   5.826   0.177  1.5962  2.5266 -2.0494
 5382TIP3    H216153   2.927   5.807   0.051  0.2428 -0.2974 -0.8465
 5383TIP3   OH216154   5.837   0.381   1.264 -0.1972  0.0511  0.4842
 5383TIP3    H116155   5.880   0.431   1.334  0.6828  0.2879 -0.2116
 5383TIP3    H216156   5.852   0.290   1.287 -0.5165  0.1121  0.9659
 5384TIP3   OH216157   4.312   4.932   3.444 -0.1310 -0.3311 -0.2356
 5384TIP3    H116158   4.282   4.852   3.487 -1.0196 -0.8750 -1.7726
 5384TIP3    H216159   4.393   4.955   3.489  0.1481 -2.1016  0.2381
 5385TIP3   OH216160   3.235   2.446   2.348  0.1845  0.3538 -0.0260
 5385TIP3    H116161   3.209   2.368   2.298  0.5418  0.9560 -1.1624
 5385TIP3    H216162   3.160   2.463   2.405  0.1461 -0.8813  0.3317
 5386TIP3   OH216163   2.797   1.301   4.139 -0.0306  0.2417 -0.2156
 5386TIP3    H116164   2.796   1.377   4.197  0.3996 -0.4279  0.6993
 5386TIP3    H216165   2.713   1.258   4.154 -0.6413  0.9719 -1.3665
 5387TIP3   OH216166   5.481   0.302   0.395  0.0418  0.3514  0.2630
 5387TIP3    H116167   5.548   0.270   0.455  0.5063  1.3430  0.2879
 5387TIP3    H216168   5.416   0.343   0.451 -1.8632 -2.6680  0.4734
 5388TIP3   OH216169   5.216   5.724   4.370 -0.3139 -0.2976 -0.1252
 5388TIP3    H116170   5.270   5.799   4.348 -1.1029 -0.3121 -2.3014
 5388TIP3    H216171   5.138   5.761   4.411 -0.4079  0.0310 -0.6002
 5389TIP3   OH216172   1.092   5.444   2.095 -0.5008  0.3589  0.1316
 5389TIP3    H116173   1.095   5.453   2.000  0.6940  3.6981  0.3719
 5389TIP3    H216174   0.998   5.445   2.116 -0.7690 -0.3546 -0.9707
 5390TIP3   OH216175   5.601   3.553   1.673  0.2918  0.1052 -0.1787
 5390TIP3    H116176   5.618   3.557   1.767  1.0433  0.2110 -0.3111
 5390TIP3    H216177   5.643   3.632   1.638  0.0047  0.0730 -0.5998
 5391TIP3   OH216178   4.090   4.595   1.009 -0.2195 -0.1664  0.4272
 5391TIP3    H116179   4.030   4.523   0.993 -1.0617  0.3908  0.9960
 5391TIP3    H216180   4.117   4.584   1.101  1.3532 -0.9832 -0.0949
 5392TIP3   OH216181   3.097   1.154   0.949  0.2453  0.2460  0.4571
 5392TIP3    H116182   3.187   1.122   0.940 -0.1480 -0.7670 -0.0910
 5392TIP3    H216183   3.062   1.153   0.860 -0.7866 -0.9174  0.8433
 5393TIP3   OH216184   5.605   4.778   4.735 -0.0417  0.3899  0.4861
 5393TIP3    H116185   5.601   4.720   4.811  0.6105  0.1896  0.3722
 5393TIP3    H216186   5.523   4.761   4.689 -0.6027  0.7666  1.3184
 5394TIP3   OH216187   1.424   3.657   2.273 -0.1338 -0.0969 -0.3272
 5394TIP3    H116188   1.345   3.605   2.291  1.2003 -2.5630 -1.1269
 5394TIP3    H216189   1.471   3.659   2.356  0.2416 -0.9986 -0.5074
 5395TIP3   OH216190   2.204   0.279   3.840  0.5200 -0.0067 -0.0663
 5395TIP3    H116191   2.253   0.233   3.772  0.2047 -1.4730  0.6723
 5395TIP3    H216192   2.240   0.246   3.922 -0.5271  0.1835  0.4826
 5396TIP3   OH216193   4.307   1.870   0.595  0.1635 -0.0621  0.5280
 5396TIP3    H116194   4.321   1.838   0.684 -0.9801 -1.8684  0.1092
 5396TIP3    H216195   4.283   1.792   0.545  1.2734  0.8274 -1.4892
 5397TIP3   OH216196   0.405   4.879   1.737 -0.4279 -0.2559 -0.1220
 5397TIP3    H116197   0.360   4.818   1.678  0.0410 -0.8645  0.1474
 5397TIP3    H216198   0.444   4.944   1.679 -0.3787 -0.5785 -0.4524
 5398TIP3   OH216199   0.791   2.465   0.580 -0.1760 -0.0091 -0.3214
 5398TIP3    H116200   0.704   2.448   0.543  0.1502  0.7892 -1.5441
 5398TIP3    H216201   0.796   2.561   0.584  0.1801 -0.0638  0.9486
 5399TIP3   OH216202   1.222   3.828   3.644 -0.3378  0.4038  0.3014
 5399TIP3    H116203   1.214   3.732   3.637  0.2423  0.3784 -0.0932
 5399TIP3    H216204   1.315   3.845   3.628 -0.6775  1.1421 -1.0099
 5400TIP3   OH216205   6.006   1.349   1.891 -0.3133  0.5236 -1.0300
 5400TIP3    H116206   5.941   1.280   1.904 -0.4377  0.8548  0.2811
 5400TIP3    H216207   6.009   1.395   1.975  1.1197  0.9450 -1.2821
 5401TIP3   OH216208   3.785   0.538   3.323 -0.6938  0.4953  0.1189
 5401TIP3    H116209   3.754   0.601   3.258  1.6197  1.7041  0.0486
 5401TIP3    H216210   3.830   0.592   3.389  0.2652 -0.9705  0.7181
 5402TIP3   OH216211   0.833   2.842   1.982 -0.4387  0.5318  0.2263
 5402TIP3    H116212   0.897   2.782   1.943 -0.6753  1.5424 -1.8807
 5402TIP3    H216213   0.758   2.786   2.002  0.1577 -0.2365  0.3499
 5403TIP3   OH216214   1.378   1.668   1.290  0.1600  0.1961  0.3381
 5403TIP3    H116215   1.458   1.637   1.249  0.0641  0.6571 -0.2096
 5403TIP3    H216216   1.402   1.752   1.330 -0.3169  0.9031 -0.8181
 5404TIP3   OH216217   2.920   3.554   4.290  0.2222  0.1227  0.2438
 5404TIP3    H116218   2.843   3.601   4.319 -0.7831 -1.2560 -0.1061
 5404TIP3    H216219   2.993   3.615   4.306 -1.0985  2.1929 -1.1453
 5405TIP3   OH216220   4.344   4.320   4.683  0.2387 -0.4112 -0.4924
 5405TIP3    H116221   4.282   4.295   4.752 -0.6711  2.8049 -0.0000
 5405TIP3    H216222   4.290   4.324   4.604  0.1002  0.9545 -0.3469
 5406TIP3   OH216223   0.188   1.396   3.834 -0.5596 -0.1612  0.0187
 5406TIP3    H116224   0.243   1.473   3.849  1.4141 -1.5640  0.3664
 5406TIP3    H216225   0.169   1.363   3.922  0.2766 -1.1660 -0.1619
 5407TIP3   OH216226   3.306   1.280   2.543  0.2660 -0.0843 -0.2460
 5407TIP3    H116227   3.288   1.372   2.564 -0.4502 -0.3860  0.5197
 5407TIP3    H216228   3.356   1.247   2.618  0.5362 -0.3204 -0.5258
 5408TIP3   OH216229   6.159   0.484   2.206 -0.1929 -0.5051 -0.1012
 5408TIP3    H116230   6.220   0.469   2.278  1.4913  2.7072 -0.6676
 5408TIP3    H216231   6.180   0.416   2.142  2.2332 -0.0460  0.1239
 5409TIP3   OH216232   3.075   4.264   4.773  0.1018  0.0951 -0.2300
 5409TIP3    H116233   3.134   4.303   4.709  3.1857  0.8175  2.7484
 5409TIP3    H216234   3.103   4.173   4.780 -0.8635 -0.2384 -0.5643
 5410TIP3   OH216235   1.084   2.960   4.421 -0.1826 -0.0630 -0.4168
 5410TIP3    H116236   1.090   2.882   4.366 -0.1454  0.4585 -1.1571
 5410TIP3    H216237   1.004   3.004   4.392 -0.6858 -0.2702  0.6013
 5411TIP3   OH216238   3.404   2.953   2.506  0.2244 -0.6153 -0.8569
 5411TIP3    H116239   3.326   2.904   2.480  1.4007 -1.6393 -2.6692
 5411TIP3    H216240   3.437   2.991   2.425  1.0292  0.6956  0.0497
 5412TIP3   OH216241   5.894   4.602   4.326  0.2323  0.6179  0.4266
 5412TIP3    H116242   5.818   4.563   4.282  1.2977 -0.6958 -0.3008
 5412TIP3    H216243   5.855   4.658   4.393 -1.4419 -1.8791  1.7485
 5413TIP3   OH216244   3.332   1.455   0.985  0.1771  0.6891 -0.3517
 5413TIP3    H116245   3.361   1.366   0.963 -2.0897 -0.1602 -0.2515
 5413TIP3    H216246   3.325   1.499   0.901 -0.5817  0.0938 -0.6194
 5414TIP3   OH216247   2.831   2.191   2.201 -0.6868 -0.6339 -0.0834
 5414TIP3    H116248   2.776   2.238   2.263 -1.0381 -2.3461  0.9873
 5414TIP3    H216249   2.770   2.159   2.135 -0.7192 -1.0117  0.1255
 5415TIP3   OH216250   4.387   2.105   4.310 -0.0824  0.0548  0.7822
 5415TIP3    H116251   4.364   2.018   4.278 -3.1134  1.2198 -0.6670
 5415TIP3    H216252   4.305   2.140   4.345  1.0606  2.2521  1.4734
 5416TIP3   OH216253   4.372   4.914   1.656  0.4562 -0.5425  0.5910
 5416TIP3    H116254   4.371   4.834   1.708 -2.6116  0.1514  1.7942
 5416TIP3    H216255   4.345   4.887   1.569  0.3302 -0.9546  0.7557
 5417TIP3   OH216256   2.468   4.033   2.225 -0.4839 -0.6204  0.5883
 5417TIP3    H116257   2.386   4.070   2.259 -0.5027 -0.1578  0.0554
 5417TIP3    H216258   2.466   4.053   2.132 -1.5440 -3.9038 -0.2280
 5418TIP3   OH216259   2.387   3.565   5.092  0.1583 -0.2564 -0.0371
 5418TIP3    H116260   2.336   3.615   5.029  1.5730  2.4455  0.7899
 5418TIP3    H216261   2.331   3.559   5.169 -1.0431 -2.3752 -1.0048
 5419TIP3   OH216262   0.144   0.759   3.577  0.5145 -0.2945 -0.7468
 5419TIP3    H116263   0.077   0.695   3.552  0.9203 -0.3881 -1.6291
 5419TIP3    H216264   0.207   0.756   3.505  0.3206  1.4103 -1.0239
 5420TIP3   OH216265   1.538   3.246   4.878  0.5262  0.3333  0.0536
 5420TIP3    H116266   1.554   3.152   4.887 -0.2888  0.3858  3.1117
 5420TIP3    H216267   1.447   3.252   4.848  1.2159  0.2025 -2.2560
 5421TIP3   OH216268   5.539   3.076   0.413  0.2383 -0.0381  0.3311
 5421TIP3    H116269   5.578   3.119   0.337  1.3180 -1.6876 -0.0947
 5421TIP3    H216270   5.448   3.061   0.389  0.7634 -1.2600 -0.9749
 5422TIP3   OH216271   0.060   1.386   3.212 -0.1737 -0.1041  0.2212
 5422TIP3    H116272   0.008   1.425   3.283 -0.2664 -1.0616  0.6941
 5422TIP3    H216273   0.048   1.291   3.223  0.1488 -0.2721 -0.8250
 5423TIP3   OH216274   4.586   3.502   0.561 -0.0731  0.4391  0.6223
 5423TIP3    H116275   4.618   3.489   0.472  0.7941  1.2465  0.7918
 5423TIP3    H216276   4.543   3.420   0.584 -1.5898  0.6988 -1.0396
 5424TIP3   OH216277   5.170   5.935   5.032  0.3150  0.0590 -0.3272
 5424TIP3    H116278   5.115   5.860   5.009 -1.3354  0.3292  2.3765
 5424TIP3    H216279   5.234   5.900   5.095 -0.1305  0.7782  0.5462
 5425TIP3   OH216280   0.158   2.510   2.051 -0.0068 -0.0671 -0.3538
 5425TIP3    H116281   0.206   2.589   2.024  1.6688 -1.4500 -1.6723
 5425TIP3    H216282   0.226   2.444   2.066 -1.3807 -1.4278  0.1980
 5426TIP3   OH216283   1.137   1.823   4.957 -0.4478  0.0643 -0.3654
 5426TIP3    H116284   1.208   1.886   4.947 -0.3770  0.0756  0.2131
 5426TIP3    H216285   1.140   1.797   5.049  0.3780 -1.7962 -0.8723
 5427TIP3   OH216286   4.467   3.544   4.524 -0.4204  0.4540  0.3993
 5427TIP3    H116287   4.452   3.449   4.525  0.9548  0.2190  0.8210
 5427TIP3    H216288   4.410   3.577   4.593 -0.5629 -0.1304  0.5702
 5428TIP3   OH216289   5.050   0.487   4.228 -0.0322 -0.3462  0.7873
 5428TIP3    H116290   5.056   0.554   4.161 -0.3031 -0.2701  0.8390
 5428TIP3    H216291   4.983   0.427   4.196  0.8973 -1.1359  0.2636
 5429TIP3   OH216292   5.760   4.714   3.139  0.0566 -0.3177  0.3376
 5429TIP3    H116293   5.768   4.667   3.222  1.6235  0.9914  0.9773
 5429TIP3    H216294   5.848   4.712   3.102  0.1525  1.9472  0.3356
 5430TIP3   OH216295   5.413   4.423   0.675 -0.1513  0.7255 -0.4499
 5430TIP3    H116296   5.404   4.340   0.628 -1.0592  1.8353 -2.3436
 5430TIP3    H216297   5.478   4.404   0.743  0.1879 -1.3429 -1.2513
 5431TIP3   OH216298   5.522   2.140   4.742 -0.4276 -0.1589  0.3106
 5431TIP3    H116299   5.589   2.186   4.691 -1.3749  2.4119  1.1913
 5431TIP3    H216300   5.440   2.163   4.700 -1.0963  0.7052  1.9735
 5432TIP3   OH216301   3.096   5.480   2.886  0.5810 -0.2513  0.7141
 5432TIP3    H116302   3.073   5.393   2.852 -1.0214 -0.3817  2.0245
 5432TIP3    H216303   3.149   5.519   2.817  0.5825 -1.9268 -0.2893
 5433TIP3   OH216304   1.852   2.210   0.644  0.0463  0.3926 -0.0080
 5433TIP3    H116305   1.760   2.227   0.662  0.4693  0.0794  2.9318
 5433TIP3    H216306   1.895   2.295   0.652  0.3705  0.1047  1.4742
 5434TIP3   OH216307   3.072   3.514   4.937  0.5871  0.4182 -0.0265
 5434TIP3    H116308   3.029   3.497   4.853  0.5987  0.7177 -0.0919
 5434TIP3    H216309   3.161   3.540   4.914  0.8046 -0.1888  0.1079
 5435TIP3   OH216310   2.480   3.544   3.267  0.1032  0.0134 -0.4031
 5435TIP3    H116311   2.450   3.504   3.185  0.5659 -0.1366 -0.5019
 5435TIP3    H216312   2.564   3.502   3.284  0.0271  0.0773  0.1283
 5436TIP3   OH216313   1.900   3.200   2.857 -0.1511 -0.1818 -0.6142
 5436TIP3    H116314   1.901   3.228   2.765 -1.7027 -1.2606 -1.0066
 5436TIP3    H216315   1.919   3.106   2.853 -1.3861 -0.4817  0.0322
 5437TIP3   OH216316   4.304   1.646   2.298  0.2364 -0.2640  0.0161
 5437TIP3    H116317   4.266   1.734   2.292 -0.9719 -0.8150 -0.7335
 5437TIP3    H216318   4.329   1.624   2.208  2.6645  0.1774  0.5079
 5438TIP3   OH216319   3.755   2.107   3.682 -0.3255  0.0583 -0.5626
 5438TIP3    H116320   3.728   2.017   3.701  0.2266 -0.2570 -1.2681
 5438TIP3    H216321   3.675   2.158   3.693 -0.6872 -0.5419 -0.3404
 5439TIP3   OH216322   3.633   3.149   5.158 -0.4660  0.2436 -0.6366
 5439TIP3    H116323   3.672   3.237   5.159 -0.9281  0.4571  0.8063
 5439TIP3    H216324   3.568   3.153   5.088 -0.3872  1.0080 -0.6736
 5440TIP3   OH216325   0.573   3.742   1.026  0.1322  0.2998 -0.3614
 5440TIP3    H116326   0.547   3.817   0.973  2.7373  1.4363 -0.2265
 5440TIP3    H216327   0.646   3.775   1.080  1.4649 -2.3387 -0.3720
 5441TIP3   OH216328   4.584   0.517   1.652 -0.1152 -0.2940  0.6749
 5441TIP3    H116329   4.541   0.446   1.699  0.6821 -0.5668  1.0105
 5441TIP3    H216330   4.666   0.479   1.620 -0.6754 -0.1456 -1.0376
 5442TIP3   OH216331   0.212   3.631   1.581 -0.2674 -0.2606  0.1320
 5442TIP3    H116332   0.285   3.609   1.523 -1.7200 -0.5328 -1.6851
 5442TIP3    H216333   0.236   3.715   1.620  1.4988 -0.8777  0.4757
 5443TIP3   OH216334   5.242   0.844   2.151  0.2395 -0.0084  0.1745
 5443TIP3    H116335   5.212   0.884   2.232 -1.4232 -1.4892  0.3544
 5443TIP3    H216336   5.234   0.750   2.165  0.0556 -0.3145 -1.6443
 5444TIP3   OH216337   1.076   0.018   4.127 -0.4139  0.0842 -0.0327
 5444TIP3    H116338   1.112   0.100   4.092 -0.1536  0.7968  1.7905
 5444TIP3    H216339   1.142  -0.012   4.189 -0.3741 -1.7031 -0.8810
 5445TIP3   OH216340   0.021   4.124   0.789  0.4253 -0.7514  0.1008
 5445TIP3    H116341  -0.069   4.090   0.786 -0.2595  0.9343  0.1463
 5445TIP3    H216342   0.070   4.069   0.729 -1.1167 -0.4467 -1.5050
 5446TIP3   OH216343   0.892   1.797   2.672  0.4665  0.2682 -0.0434
 5446TIP3    H116344   0.855   1.848   2.744  0.3435  0.9860 -0.6060
 5446TIP3    H216345   0.954   1.738   2.714 -0.2696  0.0410  0.7552
 5447TIP3   OH216346   0.439   2.705   3.318 -0.5206 -0.6585  0.0602
 5447TIP3    H116347   0.503   2.744   3.378 -2.4240  0.4601  1.4694
 5447TIP3    H216348   0.453   2.611   3.327  1.0071 -0.4488  0.2171
 5448TIP3   OH216349   0.699   4.080   2.126  0.0328  0.6598 -0.1055
 5448TIP3    H116350   0.607   4.104   2.114  0.3664  2.1630  0.2176
 5448TIP3    H216351   0.707   4.062   2.220 -0.6295 -2.7473 -0.5561
 5449TIP3   OH216352   6.006   2.556   0.333  0.1870 -0.0098 -0.3547
 5449TIP3    H116353   5.996   2.650   0.315 -2.6700 -0.1558 -0.0312
 5449TIP3    H216354   5.961   2.543   0.416  1.2924 -1.5630  0.0409
 5450TIP3   OH216355   6.190   0.842   3.621 -0.1362  0.7740  0.1860
 5450TIP3    H116356   6.183   0.917   3.679  0.1780 -0.5014  1.9334
 5450TIP3    H216357   6.281   0.840   3.593 -0.1761  1.0962  0.0257
 5451TIP3   OH216358   2.283   1.272   2.538  0.7812 -0.2553  0.2681
 5451TIP3    H116359   2.356   1.222   2.573 -0.3220 -2.1343  0.0033
 5451TIP3    H216360   2.206   1.219   2.556 -0.7297  2.1913  1.6154
 5452TIP3   OH216361   1.148   1.861   3.397  0.1143 -0.2663  0.1286
 5452TIP3    H116362   1.215   1.824   3.454 -0.9266 -4.1672 -0.8629
 5452TIP3    H216363   1.077   1.886   3.456  1.0130  0.5904  0.8776
 5453TIP3   OH216364   4.650   1.427   2.527 -0.0960 -0.3137  0.5860
 5453TIP3    H116365   4.702   1.506   2.540 -0.3065 -0.3495  1.7121
 5453TIP3    H216366   4.699   1.378   2.460 -0.1827  0.9294 -0.4313
 5454TIP3   OH216367   5.261   1.137   4.048  0.3629 -0.2570 -0.0108
 5454TIP3    H116368   5.231   1.066   3.990  1.8476 -0.7590 -0.2128
 5454TIP3    H216369   5.221   1.216   4.011 -0.9697 -0.9075 -0.0425
 5455TIP3   OH216370   3.671   4.968   0.479  0.2056  0.5666 -0.1591
 5455TIP3    H116371   3.705   4.962   0.568 -0.2788 -0.5142 -0.0325
 5455TIP3    H216372   3.749   4.972   0.424  0.5088  1.3822  0.3114
 5456TIP3   OH216373   0.317   2.997   4.645  0.5296  0.5127 -0.0576
 5456TIP3    H116374   0.354   3.052   4.577  1.0956 -2.0603 -1.9608
 5456TIP3    H216375   0.387   2.989   4.711  2.1081 -1.2427 -1.8141
 5457TIP3   OH216376   4.630   0.997   0.305  0.0847 -0.2665 -0.5786
 5457TIP3    H116377   4.567   1.058   0.267  1.3413  0.4336 -1.6284
 5457TIP3    H216378   4.668   1.044   0.379 -0.8375 -0.8163  0.2631
 5458TIP3   OH216379   2.986   4.361   3.886  0.2973  0.3879  0.2234
 5458TIP3    H116380   2.926   4.406   3.827 -2.7504 -1.3341  1.6928
 5458TIP3    H216381   3.040   4.430   3.924 -2.2532  2.4384  0.3795
 5459TIP3   OH216382   4.598   4.819   4.624 -0.1466 -0.2167 -0.4926
 5459TIP3    H116383   4.588   4.727   4.646  1.0568 -0.4926 -1.0056
 5459TIP3    H216384   4.617   4.862   4.707 -1.1747 -0.3384 -0.1792
 5460TIP3   OH216385   3.883   2.363   4.827 -0.3468 -0.2063 -0.3972
 5460TIP3    H116386   3.943   2.438   4.836 -1.3777  0.4376  1.6381
 5460TIP3    H216387   3.807   2.386   4.880 -1.2375 -2.1874 -0.7135
 5461TIP3   OH216388   2.578   1.459   0.808 -0.6314  0.4580 -0.1756
 5461TIP3    H116389   2.495   1.425   0.774 -0.3273  0.7121 -1.1944
 5461TIP3    H216390   2.638   1.454   0.734  0.6547 -0.9756  0.8940
 5462TIP3   OH216391   5.032   3.649   2.256  0.1529 -0.4610 -0.3332
 5462TIP3    H116392   5.098   3.715   2.277 -1.0440  0.4072  0.8002
 5462TIP3    H216393   4.948   3.690   2.277 -0.7242 -1.8084 -1.0426
 5463TIP3   OH216394   1.168   1.173   3.838  0.2086  0.4802 -0.5195
 5463TIP3    H116395   1.193   1.113   3.909 -2.4202 -1.0480 -0.7392
 5463TIP3    H216396   1.091   1.218   3.872 -1.0463 -0.2062 -2.3198
 5464TIP3   OH216397   2.894   2.708   1.521 -0.2476 -0.1337 -0.4973
 5464TIP3    H116398   2.980   2.750   1.512 -0.0402 -0.6522 -1.0113
 5464TIP3    H216399   2.909   2.635   1.580  0.1386 -1.4363 -2.1257
 5465TIP3   OH216400   0.996   1.751   3.993  0.1901 -0.1964 -0.3336
 5465TIP3    H116401   0.928   1.780   4.053 -0.2812 -1.2800 -0.3262
 5465TIP3    H216402   1.067   1.722   4.050 -0.8842 -2.7607 -0.2043
 5466TIP3   OH216403   4.136   1.979   3.807 -0.2299 -0.6308 -0.0630
 5466TIP3    H116404   4.151   1.914   3.877 -1.6185  0.7829  1.6286
 5466TIP3    H216405   4.217   1.977   3.756  0.8560 -1.7139  1.5863
 5467TIP3   OH216406   4.875   5.530   0.420 -0.0050 -0.2218  1.0182
 5467TIP3    H116407   4.951   5.533   0.477  1.4083  1.5844 -0.8171
 5467TIP3    H216408   4.807   5.577   0.468  1.7790  3.1637  0.5073
 5468TIP3   OH216409   4.816   5.645   1.088 -0.8672  0.0096 -0.2648
 5468TIP3    H116410   4.765   5.568   1.063  0.1291 -0.5196 -0.7207
 5468TIP3    H216411   4.841   5.685   1.005 -0.2416  0.0527 -0.0648
 5469TIP3   OH216412   2.396   0.846   3.364 -0.4109 -0.4127  0.2697
 5469TIP3    H116413   2.332   0.786   3.401 -1.7205 -0.0163 -1.2151
 5469TIP3    H216414   2.440   0.796   3.295 -2.1112  0.4613 -1.5738
 5470TIP3   OH216415   6.181   1.617   3.155  0.0279 -0.2401 -0.3059
 5470TIP3    H116416   6.252   1.583   3.209 -0.9125 -3.0825 -0.6999
 5470TIP3    H216417   6.102   1.573   3.188 -1.4756  2.2216 -0.3804
 5471TIP3   OH216418   0.327   3.690   1.159  0.5440  0.1769 -0.2111
 5471TIP3    H116419   0.411   3.724   1.129  2.7637 -4.0993  0.4372
 5471TIP3    H216420   0.330   3.697   1.254 -0.9601  1.9946 -0.2162
 5472TIP3   OH216421   5.073   2.233   0.996 -0.5635 -0.2615 -0.0722
 5472TIP3    H116422   5.163   2.215   0.971 -0.0643 -0.4052  1.6542
 5472TIP3    H216423   5.053   2.318   0.956  0.5866  0.0980  0.0906
 5473TIP3   OH216424   1.784   5.065   0.059  0.4277  0.0788  0.1589
 5473TIP3    H116425   1.786   5.161   0.055 -0.8877  0.0817 -1.7181
 5473TIP3    H216426   1.859   5.037   0.008  0.1173  0.1183 -0.3233
 5474TIP3   OH216427   5.492   5.313   3.456 -0.2340 -0.9402  0.0522
 5474TIP3    H116428   5.476   5.291   3.365 -0.2167  1.1484 -0.4949
 5474TIP3    H216429   5.560   5.252   3.484  0.2822 -1.1278 -1.5354
 5475TIP3   OH216430   4.092   1.977   0.113 -0.5812 -0.2440  0.1297
 5475TIP3    H116431   4.134   2.010   0.192  1.8957 -0.0787 -1.1629
 5475TIP3    H216432   4.002   1.958   0.140 -0.0510  0.5504  2.7544
 5476TIP3   OH216433   2.627   4.907   0.553 -0.0264  0.2325  0.3131
 5476TIP3    H116434   2.607   4.921   0.460  2.1917 -0.3353 -0.3169
 5476TIP3    H216435   2.563   4.961   0.599 -0.6403  1.2427 -1.5770
 5477TIP3   OH216436   0.352   2.558   4.291  0.2521 -0.0274  0.8610
 5477TIP3    H116437   0.420   2.492   4.293 -0.2129 -0.6626 -1.3384
 5477TIP3    H216438   0.279   2.519   4.339  0.7719 -0.1257  1.5825
 5478TIP3   OH216439   1.965   1.134   1.127  1.1127 -0.4714 -0.7909
 5478TIP3    H116440   2.047   1.134   1.176  2.1395  0.2949 -2.4310
 5478TIP3    H216441   1.937   1.225   1.128  1.3079 -0.3932 -1.8628
 5479TIP3   OH216442   6.259   4.749   1.599  0.8124 -0.1634 -0.1264
 5479TIP3    H116443   6.268   4.844   1.591  0.8731 -0.0278  1.3895
 5479TIP3    H216444   6.210   4.724   1.520  1.1691  1.0577 -0.7682
 5480TIP3   OH216445   5.357   0.076   2.088  0.2668 -0.5179  0.0988
 5480TIP3    H116446   5.423   0.144   2.076  0.0619 -0.3908 -0.3403
 5480TIP3    H216447   5.402  -0.006   2.069 -0.4398 -0.2527 -3.5581
 5481TIP3   OH216448   1.138   5.855   0.720  0.4948 -0.5191  0.3384
 5481TIP3    H116449   1.218   5.827   0.676  1.4604  1.2918  0.8163
 5481TIP3    H216450   1.165   5.878   0.808 -0.4468  0.5759  0.3708
 5482TIP3   OH216451   0.666   1.879   5.028  0.5292  0.0103 -0.0497
 5482TIP3    H116452   0.676   1.881   5.123  1.2342 -2.3744 -0.0082
 5482TIP3    H216453   0.745   1.921   4.994  0.2444  0.9281  0.3872
 5483TIP3   OH216454   5.541   1.327   1.409  0.0026  0.3794 -0.1362
 5483TIP3    H116455   5.625   1.352   1.369 -0.1424  0.6539 -0.2709
 5483TIP3    H216456   5.508   1.408   1.448 -0.6260  0.4887 -0.8577
 5484TIP3   OH216457   5.160   0.622   0.376  0.3189 -0.1039  0.5211
 5484TIP3    H116458   5.088   0.576   0.332 -1.0696  0.8054  1.7442
 5484TIP3    H216459   5.137   0.619   0.469  1.8407  0.2919  0.9381
 5485TIP3   OH216460   5.268   5.044   0.298  0.4355 -0.1084 -0.1378
 5485TIP3    H116461   5.199   5.003   0.246 -0.4044  0.2669  0.6435
 5485TIP3    H216462   5.267   4.996   0.381  1.0772 -0.0636 -0.1021
 5486TIP3   OH216463   3.872   4.534   1.280 -0.5412  0.5800 -0.2385
 5486TIP3    H116464   3.808   4.604   1.286  0.2820  1.6057 -2.4183
 5486TIP3    H216465   3.826   4.456   1.312 -2.0904  1.7148  0.4045
 5487TIP3   OH216466   2.201  -0.004   1.432  0.2507 -0.5748 -0.7435
 5487TIP3    H116467   2.139   0.045   1.487 -0.6024 -3.1493  0.7517
 5487TIP3    H216468   2.211   0.050   1.354 -1.2126  1.5701  0.4473
 5488TIP3   OH216469   3.772   3.965   3.477  0.1537  0.2842  0.0306
 5488TIP3    H116470   3.829   4.043   3.477 -1.0288  1.1923 -0.7331
 5488TIP3    H216471   3.684   4.001   3.479 -0.4680 -0.9687 -2.0064
 5489TIP3   OH216472   3.126   5.380   2.274 -0.1137 -0.1885  0.6442
 5489TIP3    H116473   3.145   5.347   2.362 -0.5640  1.1938  1.3000
 5489TIP3    H216474   3.145   5.474   2.280  0.2432 -0.1441 -0.8653
 5490TIP3   OH216475   4.009   5.415   1.619 -0.0562  0.0706 -0.0246
 5490TIP3    H116476   4.053   5.453   1.695  0.5228 -1.5155  0.4831
 5490TIP3    H216477   4.079   5.370   1.571 -1.0292 -2.3936  0.7137
 5491TIP3   OH216478   2.601   1.752   2.793 -0.1916  0.3878 -0.1442
 5491TIP3    H116479   2.663   1.759   2.866 -0.3170  1.0765 -0.0887
 5491TIP3    H216480   2.621   1.828   2.738  0.1122 -0.3108 -1.0051
 5492TIP3   OH216481   2.498   1.675   4.272 -0.5053 -0.1059 -0.5329
 5492TIP3    H116482   2.535   1.675   4.183 -0.3623  1.3210 -0.5087
 5492TIP3    H216483   2.554   1.736   4.320 -0.6235 -0.8189  0.5269
 5493TIP3   OH216484   3.078   3.109   3.435 -0.0705 -0.1328  0.4979
 5493TIP3    H116485   3.097   3.015   3.436 -0.8507 -0.3031  1.1818
 5493TIP3    H216486   3.093   3.136   3.526  0.2390  0.4246  0.2803
 5494TIP3   OH216487   2.554   1.886   1.080 -0.1275  0.0929  0.0599
 5494TIP3    H116488   2.605   1.809   1.054  0.8840  0.8063 -0.1134
 5494TIP3    H216489   2.586   1.908   1.168 -3.1573 -1.9944  1.8819
 5495TIP3   OH216490   0.962   4.644   0.548 -0.0790 -0.1775  0.4208
 5495TIP3    H116491   0.984   4.686   0.465 -1.6062 -0.3763 -0.1090
 5495TIP3    H216492   0.985   4.709   0.615  0.0525  0.4539 -0.2303
 5496TIP3   OH216493   0.436   5.934   3.096  0.5214 -0.0088  0.1250
 5496TIP3    H116494   0.340   5.936   3.100  0.3821 -0.1233 -1.9151
 5496TIP3    H216495   0.462   6.023   3.121 -0.2854  0.7381 -1.5264
 5497TIP3   OH216496   2.637   1.406   4.966  0.1981 -0.0881  0.1360
 5497TIP3    H116497   2.688   1.383   5.043  0.0656 -0.6704  0.0562
 5497TIP3    H216498   2.680   1.484   4.930  0.3949  0.0505  0.6634
 5498TIP3   OH216499   1.130  -0.000   0.553  0.3445 -0.1603  0.0583
 5498TIP3    H116500   1.149   0.094   0.551  0.0411 -0.1063 -1.0689
 5498TIP3    H216501   1.102  -0.020   0.464 -3.2167 -0.5664  1.1358
 5499TIP3   OH216502  -0.009   4.355   3.174  0.6259  0.0361  0.2333
 5499TIP3    H116503  -0.048   4.272   3.145  0.6563 -0.2177  0.8961
 5499TIP3    H216504   0.079   4.354   3.138  0.3980  0.0988 -0.3383
 5500TIP3   OH216505   1.061   2.016   3.955 -0.0514 -0.2982 -0.1812
 5500TIP3    H116506   1.039   1.923   3.953  2.5222 -1.0323  0.9940
 5500TIP3    H216507   1.090   2.032   4.045  2.5259  0.7762 -1.0940
 5501TIP3   OH216508   4.006   2.794   0.869  0.0996 -0.0995 -0.0038
 5501TIP3    H116509   4.005   2.699   0.884  1.4173  0.0395  1.2340
 5501TIP3    H216510   4.069   2.827   0.933 -0.6499  1.6703 -0.1342
 5502TIP3   OH216511   4.649   4.940   2.376 -0.0773 -0.0710  0.7307
 5502TIP3    H116512   4.700   4.948   2.457  1.5597 -2.0085 -0.0019
 5502TIP3    H216513   4.609   5.026   2.364  1.8308  1.1070  2.1733
 5503TIP3   OH216514   1.086   0.244   1.228  0.4094 -0.1783  0.2630
 5503TIP3    H116515   1.020   0.264   1.294  0.3756  1.4543 -0.2390
 5503TIP3    H216516   1.124   0.161   1.257 -0.4026 -0.0836  1.6864
 5504TIP3   OH216517   2.780   3.112   1.927  0.1972  0.4981 -0.2059
 5504TIP3    H116518   2.709   3.160   1.970  0.2123  0.0300  0.3418
 5504TIP3    H216519   2.787   3.030   1.975  0.6199  0.2223 -0.7221
 5505TIP3   OH216520   1.237   1.089   4.688 -0.3648  0.1888 -0.5169
 5505TIP3    H116521   1.181   1.023   4.645 -0.3451  0.9224 -1.7184
 5505TIP3    H216522   1.184   1.122   4.761 -1.3457  0.5647 -1.3714
 5506TIP3   OH216523   1.955   4.291   0.043 -0.3509 -0.2040  0.1638
 5506TIP3    H116524   1.986   4.325   0.127  1.8784 -0.7630 -0.3682
 5506TIP3    H216525   2.035   4.274  -0.007 -1.6086  0.6713 -2.3270
 5507TIP3   OH216526   5.090   5.009   2.771  0.0904 -0.4840  0.3218
 5507TIP3    H116527   5.082   4.915   2.787  1.0523 -0.3693  1.6500
 5507TIP3    H216528   5.173   5.033   2.811 -0.5504  1.0890  0.7818
 5508TIP3   OH216529   6.214   3.264   0.268 -0.0611  0.1800 -0.4915
 5508TIP3    H116530   6.262   3.185   0.292  1.0130  0.9281 -0.1014
 5508TIP3    H216531   6.240   3.329   0.333  0.3921  1.3320 -1.7735
 5509TIP3   OH216532   5.939   1.141   4.278  0.0911  0.6307  0.1109
 5509TIP3    H116533   5.915   1.147   4.185 -0.5520 -0.5813  0.1717
 5509TIP3    H216534   5.859   1.111   4.322  0.9976 -1.0857  0.6896
 5510TIP3   OH216535   1.447   4.605   2.198 -0.0570 -0.3082  0.2353
 5510TIP3    H116536   1.541   4.589   2.189 -0.2078 -1.2189  0.1963
 5510TIP3    H216537   1.441   4.694   2.231  0.8979 -0.8409  1.9902
 5511TIP3   OH216538   0.424   3.673   2.441  0.6754  0.0484  0.3707
 5511TIP3    H116539   0.409   3.580   2.453  2.6081 -0.3308  0.1089
 5511TIP3    H216540   0.500   3.679   2.383  0.6767  1.7896  0.4765
 5512TIP3   OH216541   5.295   1.607   2.111 -0.0305 -0.0632  0.4506
 5512TIP3    H116542   5.218   1.640   2.156 -2.4715 -4.4060  0.0558
 5512TIP3    H216543   5.340   1.554   2.177 -0.7820 -2.3006 -0.7291
 5513TIP3   OH216544   1.070   0.045   3.637  0.2207 -0.2537 -0.5139
 5513TIP3    H116545   1.051   0.071   3.547 -0.2759  0.8450 -0.0991
 5513TIP3    H216546   1.106   0.124   3.678  0.5819 -0.7857  0.2210
 5514TIP3   OH216547   6.298   3.212   3.144  0.1070 -0.4323 -0.5113
 5514TIP3    H116548   6.340   3.144   3.195 -0.0298  0.2167  0.4933
 5514TIP3    H216549   6.267   3.168   3.065 -0.3402 -1.6141  0.3005
 5515TIP3   OH216550   2.467   2.144   3.089  0.2741  0.0901  0.0183
 5515TIP3    H116551   2.435   2.057   3.064  1.0022 -0.0181 -0.5668
 5515TIP3    H216552   2.420   2.204   3.031  0.0065  0.0628  0.2054
 5516TIP3   OH216553   2.628   5.356   3.766 -0.1315 -0.4713 -0.0874
 5516TIP3    H116554   2.661   5.428   3.712 -0.1653  0.3418  0.9566
 5516TIP3    H216555   2.602   5.289   3.703 -0.2073  0.4750 -1.0827
 5517TIP3   OH216556   5.401   1.940   0.486 -0.1266 -0.1294 -0.0717
 5517TIP3    H116557   5.411   2.025   0.527 -1.7770 -0.0323  0.2248
 5517TIP3    H216558   5.481   1.926   0.436  0.2385  1.5049  0.0343
 5518TIP3   OH216559   1.695   4.071   3.364  0.3053 -0.1867  0.0552
 5518TIP3    H116560   1.710   4.154   3.408  2.8902 -0.7174  0.3197
 5518TIP3    H216561   1.675   4.095   3.273 -1.3865  0.7652  0.6440
 5519TIP3   OH216562   2.092   5.890   2.238 -0.7767  0.2109  0.2859
 5519TIP3    H116563   2.015   5.879   2.182  0.0967 -0.0802 -0.8969
 5519TIP3    H216564   2.088   5.981   2.268 -1.3547  0.3175 -0.1079
 5520TIP3   OH216565   5.578   0.219   1.674 -0.0535 -0.7184 -0.0976
 5520TIP3    H116566   5.516   0.205   1.602  1.7668 -1.2342 -1.6449
 5520TIP3    H216567   5.586   0.314   1.680 -0.2174 -0.6679 -0.6064
 5521TIP3   OH216568   2.267   2.833   2.004  0.1178 -0.0528 -0.3786
 5521TIP3    H116569   2.176   2.851   2.030  0.4500  0.4214  0.4892
 5521TIP3    H216570   2.283   2.892   1.931  0.2192  1.0209  0.4889
 5522TIP3   OH216571   5.677   3.927   3.988 -0.7879  0.1063 -0.2108
 5522TIP3    H116572   5.692   3.833   3.978  0.1585  0.0655  1.2705
 5522TIP3    H216573   5.704   3.964   3.904 -1.4290 -0.9417 -0.9151
 5523TIP3   OH216574   0.242   5.250   3.974 -0.0165  0.2853  0.2370
 5523TIP3    H116575   0.263   5.159   3.998 -1.5719 -0.2824 -0.4467
 5523TIP3    H216576   0.262   5.300   4.052 -1.8344 -1.0581  1.6634
 5524TIP3   OH216577   3.839   4.802   2.022 -0.2836  0.5164  0.2441
 5524TIP3    H116578   3.857   4.875   1.964 -0.3483 -0.0386 -0.4964
 5524TIP3    H216579   3.921   4.786   2.068  0.4258 -0.3962 -1.2672
 5525TIP3   OH216580   2.289   5.647   3.941 -0.0220  0.4357 -0.2189
 5525TIP3    H116581   2.327   5.666   3.856 -1.4795 -1.5610 -1.4177
 5525TIP3    H216582   2.216   5.708   3.950  1.1469  1.7828  0.4120
 5526TIP3   OH216583   5.723   4.955   2.132 -0.1932  0.3100 -0.7561
 5526TIP3    H116584   5.804   4.904   2.123 -0.8765 -0.8445 -0.6637
 5526TIP3    H216585   5.657   4.902   2.088 -1.1300  0.6590  0.1861
 5527TIP3   OH216586   5.508   5.900   2.115 -0.0275  0.3718  0.4722
 5527TIP3    H116587   5.490   5.991   2.090  0.6097  0.3595 -0.0710
 5527TIP3    H216588   5.504   5.851   2.034 -1.8942 -0.3705  0.9799
 5528TIP3   OH216589   0.158   4.076   0.241 -0.6292  0.2826 -0.5577
 5528TIP3    H116590   0.192   3.994   0.277 -3.5673 -0.7712  0.1200
 5528TIP3    H216591   0.229   4.139   0.255  0.8298 -1.5797  1.1145
 5529TIP3   OH216592   5.953   1.948   3.478  1.0760 -0.2664 -0.0560
 5529TIP3    H116593   6.029   1.905   3.438  1.0522  0.3987 -0.8626
 5529TIP3    H216594   5.943   2.029   3.427  0.8271  0.4513  1.1108
 5530TIP3   OH216595   5.411   0.497   2.688  0.2243 -0.0395  0.5637
 5530TIP3    H116596   5.501   0.518   2.716 -0.4432  0.6803  2.2962
 5530TIP3    H216597   5.356   0.558   2.736 -1.1529  0.3683 -1.4188
 5531TIP3   OH216598   3.675   2.720   3.954 -0.1176 -0.4641  0.1892
 5531TIP3    H116599   3.658   2.781   4.026  0.1676  0.8056 -0.7816
 5531TIP3    H216600   3.637   2.763   3.877  0.5358 -1.2848 -0.6112
 5532TIP3   OH216601   1.395   1.840   2.704  0.1873 -0.4093 -0.3543
 5532TIP3    H116602   1.349   1.868   2.783  1.6149  0.3920  0.2337
 5532TIP3    H216603   1.478   1.887   2.707  1.0497 -1.7820 -1.3680
 5533TIP3   OH216604   4.785   0.746   0.432  0.3570 -0.8198  0.0006
 5533TIP3    H116605   4.808   0.771   0.522 -0.1995 -0.7567  0.1297
 5533TIP3    H216606   4.842   0.800   0.377  1.1340 -1.2949  0.3214
 5534TIP3   OH216607   0.781   2.011   2.271 -0.5107  0.3248 -0.4414
 5534TIP3    H116608   0.829   2.070   2.328 -0.4798 -1.1575  1.1717
 5534TIP3    H216609   0.727   1.959   2.331  0.1905 -1.9317 -1.6651
 5535TIP3   OH216610   5.405   4.613   4.618 -0.1630 -0.1960 -0.8938
 5535TIP3    H116611   5.317   4.634   4.587 -1.0009 -2.0517  0.0892
 5535TIP3    H216612   5.409   4.518   4.617  2.4659 -0.1570 -2.4830
 5536TIP3   OH216613   2.510   2.822   4.242  0.1787  0.0659 -0.7867
 5536TIP3    H116614   2.487   2.809   4.150  1.7977 -1.1512 -1.0551
 5536TIP3    H216615   2.511   2.734   4.279 -1.8194  0.6327  0.7944
 5537TIP3   OH216616   3.095   2.690   1.251 -0.0433 -0.1006  0.4289
 5537TIP3    H116617   3.064   2.613   1.205 -1.5644  0.6231  0.1610
 5537TIP3    H216618   3.085   2.762   1.188  0.7292  0.4189  0.8787
 5538TIP3   OH216619   5.354   5.275   3.725  0.6696  0.0351 -0.1830
 5538TIP3    H116620   5.358   5.312   3.813 -1.3850  0.8841 -0.3937
 5538TIP3    H216621   5.408   5.333   3.671 -1.6843  2.2644 -0.3095
 5539TIP3   OH216622   0.744   3.377   0.618  0.1625 -0.2700  0.6365
 5539TIP3    H116623   0.821   3.397   0.670  0.7476 -0.9721  0.0586
 5539TIP3    H216624   0.697   3.311   0.668  0.4181 -0.5127  0.5581
 5540TIP3   OH216625   4.396   0.325   1.764 -0.1136  0.3125 -0.8091
 5540TIP3    H116626   4.345   0.384   1.820  2.1790  1.5148  0.1955
 5540TIP3    H216627   4.413   0.249   1.820 -1.6101 -0.5629 -1.5029
 5541TIP3   OH216628   5.190   4.051   0.603 -0.3982 -0.4727 -0.1121
 5541TIP3    H116629   5.270   4.098   0.629 -0.4132 -0.2847 -0.3976
 5541TIP3    H216630   5.207   3.960   0.627 -0.5837 -0.2463  0.9606
 5542TIP3   OH216631   5.891   2.607   4.861 -0.2026  0.2082  0.0969
 5542TIP3    H116632   5.894   2.661   4.781  0.6317  0.1152  0.0532
 5542TIP3    H216633   5.876   2.518   4.829  0.2409  0.1548  0.0280
 5543TIP3   OH216634   6.120   1.574   2.074  0.1168 -0.3555 -0.3936
 5543TIP3    H116635   6.036   1.600   2.112 -0.5909 -1.3912 -1.2074
 5543TIP3    H216636   6.169   1.536   2.147 -0.1832  0.0830  0.0442
 5544TIP3   OH216637   2.269   0.324   1.669  0.2086  0.1006  0.2511
 5544TIP3    H116638   2.323   0.320   1.748  0.7535  0.6082 -0.0856
 5544TIP3    H216639   2.207   0.395   1.686  0.8398  0.7458 -0.0810
 5545TIP3   OH216640   6.042   2.229   2.482  0.0367 -0.5908 -0.0848
 5545TIP3    H116641   6.101   2.205   2.410  0.8608 -0.7493  0.6350
 5545TIP3    H216642   6.060   2.321   2.498 -1.0865 -0.1920 -0.9315
 5546TIP3   OH216643   0.466   3.408   3.917  0.2200 -0.4001  0.2617
 5546TIP3    H116644   0.406   3.473   3.879  0.1178 -1.4933 -1.5767
 5546TIP3    H216645   0.414   3.328   3.921  0.9192 -0.8395  0.7125
 5547TIP3   OH216646   5.669   3.595   0.896  0.4328 -0.3295  0.1052
 5547TIP3    H116647   5.674   3.644   0.814  1.9484  0.4097  0.6089
 5547TIP3    H216648   5.618   3.651   0.954  0.3980 -0.3030  0.0494
 5548TIP3   OH216649   6.211   1.240   3.339 -0.2619  0.0947 -0.2370
 5548TIP3    H116650   6.209   1.165   3.399  3.3166  1.0311  1.3028
 5548TIP3    H216651   6.136   1.294   3.366 -0.8874 -1.2730  0.9240
 5549TIP3   OH216652   5.465   0.062   0.221 -0.2302 -0.3028 -0.0006
 5549TIP3    H116653   5.480   0.151   0.254  0.3611 -0.2389 -0.4353
 5549TIP3    H216654   5.424   0.016   0.295 -2.3344  0.8366 -0.3556
 5550TIP3   OH216655   4.459   0.169   0.373  0.0797  0.4830  0.8752
 5550TIP3    H116656   4.387   0.232   0.377  0.7746  1.4471 -0.8065
 5550TIP3    H216657   4.417   0.088   0.344 -0.6903  0.3392  2.2770
 5551TIP3   OH216658   4.773   0.557   3.167  0.1668  0.3173  0.3078
 5551TIP3    H116659   4.701   0.620   3.167  0.2935  0.4698 -0.4200
 5551TIP3    H216660   4.849   0.607   3.197 -0.0210  0.1539  1.0853
 5552TIP3   OH216661   0.323   2.867   3.069  0.0413  0.1512  0.3621
 5552TIP3    H116662   0.370   2.822   3.139 -0.7748 -0.7201  0.3681
 5552TIP3    H216663   0.231   2.859   3.093 -0.3225 -0.9757 -1.2536
 5553TIP3   OH216664   3.472   1.705   4.631  1.0114 -0.3365 -0.2485
 5553TIP3    H116665   3.465   1.669   4.720  2.2991 -0.4355 -0.1634
 5553TIP3    H216666   3.524   1.640   4.583  0.5294 -0.1659 -1.0134
 5554TIP3   OH216667   4.190   5.975   1.471  0.3015 -0.4116  0.1298
 5554TIP3    H116668   4.193   5.930   1.555  0.3951  0.3380  0.5356
 5554TIP3    H216669   4.126   6.045   1.483  2.2440  1.4240  0.4801
 5555TIP3   OH216670   1.978   0.209   1.195 -0.7262 -0.0451  0.7817
 5555TIP3    H116671   2.009   0.191   1.107  1.1637 -0.6348  1.5171
 5555TIP3    H216672   1.896   0.160   1.202 -0.4227 -0.7523 -0.3487
 5556TIP3   OH216673   1.393   0.334   1.603  0.4010  0.3077 -0.2963
 5556TIP3    H116674   1.362   0.414   1.560 -1.7439  0.2847  1.0651
 5556TIP3    H216675   1.470   0.362   1.652 -1.0933  1.9526  1.2693
 5557TIP3   OH216676   2.304   1.978   4.110 -0.2017 -0.1322  0.3387
 5557TIP3    H116677   2.369   2.026   4.059 -1.2073  0.3482 -0.5386
 5557TIP3    H216678   2.224   1.983   4.058 -1.0264 -0.4567  1.5217
 5558TIP3   OH216679   0.617   0.657   3.815 -0.4025  0.4708  0.4665
 5558TIP3    H116680   0.582   0.569   3.799  1.7765 -0.3190 -0.3482
 5558TIP3    H216681   0.636   0.658   3.908 -5.2313  2.0476  1.7113
 5559TIP3   OH216682   0.374   1.982   0.539 -0.0034  0.3048  0.1803
 5559TIP3    H116683   0.350   1.959   0.449 -0.6189  1.0497  0.1491
 5559TIP3    H216684   0.291   2.006   0.580 -0.3396 -3.2762  1.9755
 5560TIP3   OH216685   2.768   0.032   4.382 -0.2129 -0.0344  0.3208
 5560TIP3    H116686   2.862   0.054   4.384  0.0955 -1.3189  1.4570
 5560TIP3    H216687   2.746   0.029   4.289  0.9673 -0.1126  0.0299
 5561TIP3   OH216688   5.469   0.456   1.176 -0.0740 -0.0127 -0.2251
 5561TIP3    H116689   5.508   0.492   1.096 -2.8779 -0.6510 -2.0173
 5561TIP3    H216690   5.467   0.362   1.161 -1.5512 -0.0567  0.1387
 5562TIP3   OH216691   2.791   2.354   2.667  0.2332 -0.1784  0.1664
 5562TIP3    H116692   2.711   2.405   2.660  0.2460 -0.1409  0.3011
 5562TIP3    H216693   2.797   2.329   2.759 -0.8424 -2.1465 -0.2334
 5563TIP3   OH216694   0.274   5.418   5.199  1.0151 -0.0889  0.5704
 5563TIP3    H116695   0.326   5.471   5.138 -0.1884 -1.1653 -1.5088
 5563TIP3    H216696   0.315   5.332   5.196  0.5535 -0.3198  0.7724
 5564TIP3   OH216697   6.358   5.873   0.340 -0.3371  0.3727  0.3518
 5564TIP3    H116698   6.379   5.838   0.254 -0.2298 -2.2288  1.3413
 5564TIP3    H216699   6.266   5.899   0.334 -0.0476  1.1851 -0.7998
 5565TIP3   OH216700   6.134   5.742   2.855  0.3659 -0.2775 -0.6128
 5565TIP3    H116701   6.073   5.669   2.850  1.9553 -1.6642 -0.5802
 5565TIP3    H216702   6.138   5.764   2.948 -0.4354  0.1667 -0.6723
 5566TIP3   OH216703   5.812   1.624   2.516  0.7255 -0.1477 -0.1609
 5566TIP3    H116704   5.860   1.696   2.475  1.3100 -0.3189  0.2135
 5566TIP3    H216705   5.873   1.589   2.581 -0.4932  0.6636  1.4718
 5567TIP3   OH216706   1.820   0.929   1.219  0.1262  0.7581  0.0704
 5567TIP3    H116707   1.855   1.009   1.180  0.1181  1.0768  0.7037
 5567TIP3    H216708   1.753   0.900   1.158  0.8155  0.6835 -0.6618
 5568TIP3   OH216709   4.631   2.611   1.463  0.0689  0.0455  0.2937
 5568TIP3    H116710   4.708   2.554   1.471  1.1639  1.1004 -1.9345
 5568TIP3    H216711   4.664   2.699   1.478 -0.7586  0.5071 -0.5139
 5569TIP3   OH216712   3.944   5.845   1.630 -0.0309  0.7125 -0.5478
 5569TIP3    H116713   3.898   5.821   1.550  0.7470  0.3173 -0.8905
 5569TIP3    H216714   3.922   5.937   1.644 -0.6594  0.6186 -0.8763
 5570TIP3   OH216715   3.044   4.749   4.141 -0.0015 -0.3147 -0.3803
 5570TIP3    H116716   3.018   4.824   4.194  0.5135 -0.0946 -0.4360
 5570TIP3    H216717   2.968   4.691   4.143 -0.6113  0.4463 -0.7782
 5571TIP3   OH216718   1.351   3.215   0.377  0.2037  0.0632 -0.2438
 5571TIP3    H116719   1.276   3.161   0.402  1.8987 -2.8614 -0.9956
 5571TIP3    H216720   1.325   3.253   0.293 -0.2004 -1.5662 -0.9000
 5572TIP3   OH216721   3.314   4.485   1.259 -0.1218 -0.2198 -0.0446
 5572TIP3    H116722   3.386   4.467   1.319 -1.7478  1.4717  2.6163
 5572TIP3    H216723   3.295   4.578   1.272 -1.5612 -0.1618 -2.1198
 5573TIP3   OH216724   4.187   3.626   3.786  0.2020 -0.1640  0.3459
 5573TIP3    H116725   4.191   3.566   3.861  0.2033 -2.0457 -1.0792
 5573TIP3    H216726   4.273   3.617   3.744 -0.1305  0.1313 -0.4142
 5574TIP3   OH216727   1.526   1.333   0.468 -0.0560 -0.0265  0.3603
 5574TIP3    H116728   1.562   1.349   0.555 -1.0544  0.6530  0.6746
 5574TIP3    H216729   1.432   1.318   0.483 -0.2130 -0.0666 -0.5794
 5575TIP3   OH216730   4.412   2.991   3.617 -0.0308  0.2667 -0.1124
 5575TIP3    H116731   4.329   2.953   3.645  0.3157 -0.2452  0.2244
 5575TIP3    H216732   4.388   3.046   3.542 -0.6167 -0.1860 -0.2692
 5576TIP3   OH216733   3.704   1.802   1.112  0.2011  0.6280 -0.6967
 5576TIP3    H116734   3.765   1.847   1.053  0.3917  0.4672 -0.6245
 5576TIP3    H216735   3.667   1.732   1.059  0.8905  0.0521 -0.4274
 5577TIP3   OH216736   2.297   2.651   4.817 -1.0458 -0.3759  0.5008
 5577TIP3    H116737   2.335   2.567   4.843 -0.7643 -1.1709 -2.1438
 5577TIP3    H216738   2.202   2.639   4.829 -0.9178 -0.6397  1.2722
 5578TIP3   OH216739   2.078   3.362   1.682 -0.0610  0.9569 -0.6107
 5578TIP3    H116740   2.018   3.324   1.747  0.7830 -1.6621 -1.2560
 5578TIP3    H216741   2.028   3.434   1.643 -1.9407  0.2937  0.4213
 5579TIP3   OH216742   5.810   3.661   2.251  0.2170  0.3047  0.2423
 5579TIP3    H116743   5.733   3.718   2.257  0.0847  0.0904  0.6075
 5579TIP3    H216744   5.823   3.629   2.340  1.3152  1.1083  0.3851
 5580TIP3   OH216745   5.201   1.936   3.180  0.5632  0.4528 -0.5976
 5580TIP3    H116746   5.119   1.902   3.144  1.0424  1.2162 -2.5656
 5580TIP3    H216747   5.221   1.878   3.253 -1.6337  0.1572 -0.1506
 5581TIP3   OH216748   0.826   2.748   2.980  0.5332 -0.3312  0.1429
 5581TIP3    H116749   0.891   2.737   3.049 -0.8572  0.1622  1.5933
 5581TIP3    H216750   0.783   2.831   3.000 -1.9641 -1.6220  0.5285
 5582TIP3   OH216751   3.224   5.018   4.158  0.5442 -0.4120 -0.1381
 5582TIP3    H116752   3.137   4.983   4.139  0.3126 -0.3651  0.8116
 5582TIP3    H216753   3.237   5.086   4.092 -1.0108  1.0027  0.9233
 5583TIP3   OH216754   0.195   5.543   2.431 -0.0130 -0.1845  0.2714
 5583TIP3    H116755   0.183   5.636   2.411  2.1022  0.0424 -0.2720
 5583TIP3    H216756   0.170   5.498   2.350 -0.3314 -0.0249  0.2790
 5584TIP3   OH216757   3.836   5.458   4.634 -0.0744  0.3923  0.0375
 5584TIP3    H116758   3.851   5.372   4.594  1.0914  1.2200 -1.4022
 5584TIP3    H216759   3.743   5.474   4.622 -0.6483 -1.2962  1.6994
 5585TIP3   OH216760   2.309   4.564   1.584  0.4245  0.6399  0.3005
 5585TIP3    H116761   2.217   4.566   1.609  0.6719 -2.0590  1.8630
 5585TIP3    H216762   2.309   4.534   1.493 -0.2512 -0.9292  0.7843
 5586TIP3   OH216763   5.212   0.968   1.711  0.1786  0.7054  0.5605
 5586TIP3    H116764   5.213   1.043   1.652 -1.3515 -0.0277 -0.4801
 5586TIP3    H216765   5.119   0.947   1.721  0.5894 -2.0250 -0.5050
 5587TIP3   OH216766   1.603   3.313   3.176 -0.2561  0.4639 -0.4504
 5587TIP3    H116767   1.588   3.234   3.227 -0.9681 -0.3651 -1.8845
 5587TIP3    H216768   1.592   3.385   3.239 -0.4504 -0.5392  0.6885
 5588TIP3   OH216769   3.290   5.844   2.473 -0.3051 -0.2301 -0.0813
 5588TIP3    H116770   3.287   5.818   2.565  0.9783 -0.7959 -0.1862
 5588TIP3    H216771   3.212   5.803   2.434 -1.2238  0.5480  0.8570
 5589TIP3   OH216772   5.621   0.786   3.410  0.5219  0.7007 -0.0835
 5589TIP3    H116773   5.692   0.822   3.462 -0.0817  1.3324  0.3152
 5589TIP3    H216774   5.638   0.818   3.321 -0.4233  2.6889  0.3864
 5590TIP3   OH216775   1.739   0.870   1.600 -0.3855 -0.1377 -0.3760
 5590TIP3    H116776   1.693   0.953   1.615  1.5930  1.0054 -0.2517
 5590TIP3    H216777   1.699   0.834   1.521 -2.3541  0.1115  0.4607
 5591TIP3   OH216778   3.550   3.429   0.999  0.2583  0.4589  0.0582
 5591TIP3    H116779   3.573   3.424   0.906  0.8582  0.5020  0.2000
 5591TIP3    H216780   3.617   3.377   1.043  1.1615  2.0445  0.6536
 5592TIP3   OH216781   3.538   3.394   1.476  0.0294  0.4490  0.3923
 5592TIP3    H116782   3.494   3.405   1.391  2.8741  1.9398 -1.0456
 5592TIP3    H216783   3.486   3.446   1.537 -1.2451  0.6054 -0.7771
 5593TIP3   OH216784   4.071   5.021   3.651 -0.0039 -0.1097  0.5310
 5593TIP3    H116785   4.032   5.089   3.597 -1.5736 -2.1914 -1.1315
 5593TIP3    H216786   4.164   5.042   3.653 -0.3210  1.5765 -0.6583
 5594TIP3   OH216787   4.143   0.458   4.798  0.2907 -0.3219  0.1573
 5594TIP3    H116788   4.162   0.552   4.806 -1.9155  0.1667  0.1843
 5594TIP3    H216789   4.214   0.424   4.743  0.6157  1.5394 -0.6536
 5595TIP3   OH216790   0.017   2.964   2.067 -0.0940  0.2879  0.5464
 5595TIP3    H116791   0.057   3.046   2.041 -0.2762 -0.0994 -1.0171
 5595TIP3    H216792  -0.074   2.988   2.088 -0.7865  0.2006 -2.0287
 5596TIP3   OH216793   0.483   1.938   3.296  0.9863  0.2009 -0.4996
 5596TIP3    H116794   0.467   1.854   3.254  0.0208  0.2964 -0.3444
 5596TIP3    H216795   0.520   1.916   3.381 -1.7708 -0.2293  0.7043
 5597TIP3   OH216796   1.680   2.481   4.870  0.0635  0.3276 -0.4455
 5597TIP3    H116797   1.656   2.408   4.814 -0.3324 -0.5747  0.8369
 5597TIP3    H216798   1.601   2.535   4.874  0.3892  0.9080 -1.4774
 5598TIP3   OH216799   4.787   1.106   3.099  0.4317 -0.1542  0.5837
 5598TIP3    H116800   4.836   1.183   3.070 -0.5970  0.6326  0.8621
 5598TIP3    H216801   4.698   1.138   3.111  0.2501 -1.0898  1.9518
 5599TIP3   OH216802   2.188   4.943   3.379  0.1927  0.7098 -0.0291
 5599TIP3    H116803   2.112   4.959   3.323  0.1854  1.2884  0.1368
 5599TIP3    H216804   2.175   4.855   3.414 -1.3453  1.4663  1.4493
 5600TIP3   OH216805   3.525   0.541   1.133  0.8314 -0.0185  0.3130
 5600TIP3    H116806   3.501   0.633   1.118  2.5461  0.6860  1.6171
 5600TIP3    H216807   3.464   0.511   1.200 -0.1925 -0.0753 -0.6174
 5601TIP3   OH216808   5.479   5.680   5.090 -0.5597  0.1791  0.2346
 5601TIP3    H116809   5.545   5.634   5.141  0.9216  1.5689 -0.3259
 5601TIP3    H216810   5.424   5.611   5.052  0.5933 -1.0174  0.6891
 5602TIP3   OH216811   4.891   5.387   4.365  0.0119 -0.1933  0.5711
 5602TIP3    H116812   4.852   5.309   4.325 -0.4398  0.1768  0.2799
 5602TIP3    H216813   4.944   5.353   4.437  1.6727 -0.9949 -0.9307
 5603TIP3   OH216814   5.154   3.202   0.990 -0.4236 -1.0740 -0.0262
 5603TIP3    H116815   5.060   3.185   0.978 -0.0074 -3.1171 -0.7157
 5603TIP3    H216816   5.193   3.180   0.906  0.4795  2.0407 -0.5729
 5604TIP3   OH216817   3.105   4.504   3.528 -0.1195  0.5867 -0.4270
 5604TIP3    H116818   3.098   4.457   3.444 -1.0607 -1.5948  0.7770
 5604TIP3    H216819   3.123   4.435   3.592 -4.2992  1.3353  1.8861
 5605TIP3   OH216820   6.242   2.074   0.873  0.5229  0.2862 -0.0951
 5605TIP3    H116821   6.200   2.056   0.789 -0.8088  2.6123 -0.0103
 5605TIP3    H216822   6.258   1.988   0.910 -1.1645 -0.7703 -1.6230
 5606TIP3   OH216823   3.994   2.259   0.656 -0.1172  0.2585 -0.3604
 5606TIP3    H116824   3.962   2.169   0.669 -0.6827  0.3120 -1.2936
 5606TIP3    H216825   3.958   2.307   0.731 -0.9210 -0.0268 -0.5441
 5607TIP3   OH216826   3.035   2.463   4.601 -0.1762 -0.4941  0.2458
 5607TIP3    H116827   3.008   2.546   4.640  0.2520 -0.6145  0.8197
 5607TIP3    H216828   3.054   2.483   4.510 -3.5408 -0.6660 -0.6239
 5608TIP3   OH216829   4.724   5.387   2.882  0.0525  0.0985 -0.0253
 5608TIP3    H116830   4.799   5.440   2.855 -0.4974  1.0248  0.1906
 5608TIP3    H216831   4.648   5.436   2.851 -0.4732 -1.9262 -2.2327
 5609TIP3   OH216832   4.400   5.847   2.768 -0.6255 -0.2332 -0.1124
 5609TIP3    H116833   4.396   5.900   2.688 -1.2399  0.1184  0.1375
 5609TIP3    H216834   4.319   5.795   2.766 -1.4121  0.8904  1.0110
 5610TIP3   OH216835   2.551   2.665   0.438 -0.1056 -0.2275 -0.7764
 5610TIP3    H116836   2.544   2.733   0.506  1.1453 -0.9950  0.1570
 5610TIP3    H216837   2.645   2.660   0.419 -0.2492 -1.2958 -1.2531
 5611TIP3   OH216838   4.467   2.292   0.493  0.0865  0.6228  0.1141
 5611TIP3    H116839   4.382   2.279   0.537  0.4142  0.9161  0.8568
 5611TIP3    H216840   4.514   2.210   0.508  0.9569  1.4175  2.0804
 5612TIP3   OH216841   3.600   2.401   0.551 -0.1365  0.5378 -0.1175
 5612TIP3    H116842   3.661   2.427   0.621  0.1804 -0.7043  0.0854
 5612TIP3    H216843   3.588   2.307   0.563 -0.9404  0.5039 -1.0774
 5613TIP3   OH216844   2.572  -0.013   3.443  0.4225  0.5750  0.2269
 5613TIP3    H116845   2.542   0.002   3.354  0.3238  1.0465  0.3334
 5613TIP3    H216846   2.665   0.013   3.442  0.5307  0.1890  0.1646
 5614TIP3   OH216847   5.810   2.608   4.332 -0.1867 -0.2285 -0.3295
 5614TIP3    H116848   5.719   2.582   4.313 -0.8223  1.0325  0.8092
 5614TIP3    H216849   5.838   2.548   4.401 -0.0290 -0.8105 -0.8857
 5615TIP3   OH216850   5.105   4.886   1.884 -0.4238 -0.0815  0.3321
 5615TIP3    H116851   5.139   4.962   1.931 -1.0451  0.1901  0.3485
 5615TIP3    H216852   5.130   4.901   1.792 -1.7339  0.8518  0.0906
 5616TIP3   OH216853   4.260   5.807   1.735 -0.0408 -0.4539 -0.2578
 5616TIP3    H116854   4.284   5.734   1.678 -0.0558 -0.6927  0.0420
 5616TIP3    H216855   4.195   5.771   1.795 -1.5796  0.3118 -1.3973
 5617TIP3   OH216856   3.931   3.189   0.150  0.2687  0.3834 -0.5185
 5617TIP3    H116857   3.999   3.138   0.106  0.2461  1.2749 -1.6370
 5617TIP3    H216858   3.849   3.149   0.120  0.2593 -0.4467  0.5306
 5618TIP3   OH216859   0.683   0.667   2.739  0.1157  0.0808 -0.1468
 5618TIP3    H116860   0.776   0.687   2.750 -0.5730  2.7123  1.5923
 5618TIP3    H216861   0.676   0.574   2.763  2.3971 -0.4953 -1.3912
 5619TIP3   OH216862   0.216   5.004   5.184  0.0151 -0.1070 -0.0791
 5619TIP3    H116863   0.223   4.909   5.171  0.8371 -0.1361  0.5166
 5619TIP3    H216864   0.122   5.021   5.187 -0.2494 -0.5099 -2.9189
 5620TIP3   OH216865   4.444   1.707   2.561  0.4495  0.0747  0.3373
 5620TIP3    H116866   4.386   1.774   2.598  0.1954 -0.2094  0.4567
 5620TIP3    H216867   4.400   1.680   2.480 -0.1689 -0.9469  0.9917
 5621TIP3   OH216868   3.450   1.320   1.940  0.2505 -0.1582 -0.0125
 5621TIP3    H116869   3.392   1.395   1.932  1.8266  1.0427 -0.7671
 5621TIP3    H216870   3.422   1.260   1.872  1.1980  1.3591 -1.8290
 5622TIP3   OH216871   4.432   0.716   1.727 -0.1368 -0.3188  0.3785
 5622TIP3    H116872   4.484   0.788   1.691 -0.1995 -0.7212 -0.5300
 5622TIP3    H216873   4.483   0.637   1.707 -0.9362 -0.6846 -0.2337
 5623TIP3   OH216874   4.840   2.909   0.394  0.3190 -0.1517 -0.1969
 5623TIP3    H116875   4.886   2.849   0.335 -0.7538 -1.0724 -0.1284
 5623TIP3    H216876   4.775   2.854   0.438  0.8505  0.5787  1.5998
 5624TIP3   OH216877   4.752   2.178   2.978 -0.3977  0.5987  0.1120
 5624TIP3    H116878   4.749   2.262   3.023 -0.1138  1.2480 -1.0513
 5624TIP3    H216879   4.670   2.174   2.928 -1.0470 -0.4348  1.2093
 5625TIP3   OH216880   1.056   1.895   4.694 -0.0013 -0.0030  0.0289
 5625TIP3    H116881   1.124   1.962   4.695  0.1454 -0.1519  0.0934
 5625TIP3    H216882   1.062   1.853   4.780 -2.3287  2.1181  1.3852
 5626TIP3   OH216883   2.010   3.642   2.928  0.2661  0.0209 -0.1931
 5626TIP3    H116884   2.075   3.672   2.864  2.0538 -1.2766  0.9235
 5626TIP3    H216885   2.050   3.659   3.013 -1.9366  1.4588  0.6504
 5627TIP3   OH216886   3.583   0.793   4.239  0.3858  0.1976  0.3115
 5627TIP3    H116887   3.532   0.781   4.320 -2.5923 -0.5779 -1.5062
 5627TIP3    H216888   3.667   0.751   4.257 -0.1240  0.1562  3.0209
 5628TIP3   OH216889   5.682   0.790   2.681 -0.1295  0.3728 -0.6513
 5628TIP3    H116890   5.629   0.839   2.617 -0.1091 -0.3239 -1.2094
 5628TIP3    H216891   5.623   0.777   2.755 -0.6008  0.0185 -1.0771
 5629TIP3   OH216892   4.682   1.036   2.567  0.9259  0.0832  0.1863
 5629TIP3    H116893   4.688   1.091   2.489  1.0802  3.3153  2.3275
 5629TIP3    H216894   4.759   1.058   2.619 -0.0513 -0.6702  2.0476
 5630TIP3   OH216895   1.311   5.331   0.206  0.0097 -0.1818 -0.2150
 5630TIP3    H116896   1.347   5.281   0.280 -2.3060 -2.1854 -0.3096
 5630TIP3    H216897   1.314   5.270   0.132  1.8765  1.6374 -1.7942
 5631TIP3   OH216898   5.782   1.017   0.601  0.3472 -0.1621 -0.6764
 5631TIP3    H116899   5.702   1.069   0.599 -0.0943 -0.6275  1.6576
 5631TIP3    H216900   5.811   1.014   0.510 -1.5530  1.1287 -1.3915
 5632TIP3   OH216901   4.529   2.036   1.784 -0.0017  0.0771 -0.6219
 5632TIP3    H116902   4.618   2.016   1.755 -0.6017 -0.2510 -2.3428
 5632TIP3    H216903   4.477   2.037   1.704 -2.2039 -2.9795  0.5685
 5633TIP3   OH216904   5.695   4.642   1.624 -0.3422 -0.3019 -0.2551
 5633TIP3    H116905   5.638   4.689   1.563  0.7892  1.0956 -0.2825
 5633TIP3    H216906   5.635   4.588   1.676 -1.5449  0.1401 -1.1316
 5634TIP3   OH216907   0.190   3.396   4.153  0.0819  0.2879  0.1045
 5634TIP3    H116908   0.173   3.360   4.066  2.0536 -1.6521  0.4322
 5634TIP3    H216909   0.105   3.425   4.184 -0.8240  0.1371 -2.0769
 5635TIP3   OH216910   4.363   0.498   0.819  0.2588  0.5158 -0.2945
 5635TIP3    H116911   4.298   0.467   0.881  0.4783 -0.2718 -0.4331
 5635TIP3    H216912   4.376   0.424   0.759  1.7253  0.4051  0.1008
 5636TIP3   OH216913   3.088   5.126   3.730  0.0161  0.1026 -0.4121
 5636TIP3    H116914   3.117   5.160   3.815  0.4981  0.0681 -0.5592
 5636TIP3    H216915   3.077   5.032   3.745 -0.3507  0.1678 -0.2666
 5637TIP3   OH216916   1.452   3.817   1.176 -0.2984  0.3526  0.3849
 5637TIP3    H116917   1.480   3.903   1.209 -0.6547  0.9894 -0.9295
 5637TIP3    H216918   1.533   3.766   1.173 -0.3276  0.0324  2.8209
 5638TIP3   OH216919   2.557   3.032   0.836 -0.2312 -0.1634  0.1593
 5638TIP3    H116920   2.562   3.079   0.752 -0.5730 -0.8077 -0.2317
 5638TIP3    H216921   2.542   3.100   0.901  0.1568  0.3603 -0.2891
 5639TIP3   OH216922   0.328   2.362   4.031 -0.2781  0.2135  0.2308
 5639TIP3    H116923   0.249   2.335   4.078  0.4349  0.2805  1.5124
 5639TIP3    H216924   0.391   2.292   4.048 -0.5138 -0.6171 -2.0747
 5640TIP3   OH216925   5.939   3.151   4.765 -0.6751  0.1883  0.5552
 5640TIP3    H116926   5.898   3.089   4.826  1.6227 -0.9544  1.0551
 5640TIP3    H216927   6.028   3.162   4.799 -0.0817  1.3906 -1.2765
 5641TIP3   OH216928   2.162   0.322   3.246 -0.4411  0.1635 -0.3655
 5641TIP3    H116929   2.085   0.347   3.298 -0.6603 -2.2266  0.5850
 5641TIP3    H216930   2.130   0.318   3.156 -1.6023 -1.2138  0.0719
 5642TIP3   OH216931   1.366   0.125   3.091 -0.5900 -0.5347 -0.2338
 5642TIP3    H116932   1.404   0.202   3.133  0.3999 -0.2353 -1.5982
 5642TIP3    H216933   1.280   0.116   3.131 -0.4664  0.8887  0.4256
 5643TIP3   OH216934   1.932   2.331   3.763 -0.3937  0.1340  0.6950
 5643TIP3    H116935   1.891   2.418   3.760  0.2340  0.4363  0.6760
 5643TIP3    H216936   2.025   2.348   3.746 -0.3668 -0.6146  0.0829
 5644TIP3   OH216937   1.421   2.805   2.736 -0.4777 -0.1229  0.0526
 5644TIP3    H116938   1.336   2.767   2.757 -0.1722  0.7803  3.5161
 5644TIP3    H216939   1.478   2.729   2.721 -1.0526 -0.9405  1.7131
 5645TIP3   OH216940   5.745   5.745   0.663 -0.2275 -0.1808  0.4964
 5645TIP3    H116941   5.716   5.727   0.574 -2.0600 -0.3205  1.0825
 5645TIP3    H216942   5.830   5.788   0.653 -0.0132 -0.9482 -1.2647
 5646TIP3   OH216943   3.326   0.749   1.122  0.5444  0.2607 -0.3059
 5646TIP3    H116944   3.242   0.715   1.153  0.3681  1.6785  0.8240
 5646TIP3    H216945   3.318   0.844   1.128  1.9243  0.4522 -1.0351
 5647TIP3   OH216946   2.288   0.920   4.123  0.3853  0.7054  0.2690
 5647TIP3    H116947   2.279   0.955   4.035  0.1758 -1.4008 -0.5897
 5647TIP3    H216948   2.216   0.960   4.172 -0.2184  1.0078 -0.8265
 5648TIP3   OH216949   3.534   2.659   0.148  0.4679  0.1925  0.2548
 5648TIP3    H116950   3.538   2.663   0.244  2.0578 -0.3630  0.2446
 5648TIP3    H216951   3.560   2.569   0.127 -0.4092  0.1414 -0.6966
 5649TIP3   OH216952   2.995   4.821   4.977 -0.6094 -0.2170 -0.3366
 5649TIP3    H116953   2.930   4.884   4.946 -0.3565  0.2041 -0.0293
 5649TIP3    H216954   3.078   4.849   4.937 -0.0372  1.0638  1.5954
 5650TIP3   OH216955   0.895   0.270   1.435 -0.3201 -0.9028  0.1779
 5650TIP3    H116956   0.875   0.329   1.507  1.0862 -1.0768  0.7481
 5650TIP3    H216957   0.922   0.188   1.478 -1.0335 -1.5481 -0.5740
 5651TIP3   OH216958   0.908   1.323   0.080  0.1850 -0.6885  0.0298
 5651TIP3    H116959   0.966   1.352   0.151  0.6634 -0.5569 -0.4114
 5651TIP3    H216960   0.919   1.390   0.012 -0.3644 -0.7489 -0.1219
 5652TIP3   OH216961   0.059   0.390   4.588 -0.0288  0.2414 -0.7755
 5652TIP3    H116962   0.093   0.444   4.660  0.1756  2.0911 -2.1847
 5652TIP3    H216963  -0.022   0.432   4.562 -1.0270 -1.4298 -0.5463
 5653TIP3   OH216964   1.765   5.978   1.587  0.1416  0.5092 -0.0704
 5653TIP3    H116965   1.805   6.029   1.658 -2.7675  1.0005  1.3780
 5653TIP3    H216966   1.758   5.889   1.623 -0.6022  0.5834 -0.0006
 5654TIP3   OH216967   1.300   4.021   0.201 -0.1793 -0.3525 -0.9473
 5654TIP3    H116968   1.357   4.072   0.144  2.3637 -1.2641  0.6532
 5654TIP3    H216969   1.331   4.039   0.289  0.1526 -3.7636 -0.2308
 5655TIP3   OH216970   5.760   5.441   3.366  0.1577  0.0300 -0.2779
 5655TIP3    H116971   5.831   5.505   3.376  2.5199 -1.9907 -2.7671
 5655TIP3    H216972   5.763   5.390   3.447  2.0189 -0.3952 -0.5693
 5656TIP3   OH216973   5.016   1.743   3.023 -0.2774 -0.1332  0.3553
 5656TIP3    H116974   4.933   1.698   3.040  0.4803 -2.3042 -1.1915
 5656TIP3    H216975   4.991   1.833   3.004 -2.5911 -1.2198 -2.4338
 5657TIP3   OH216976   6.275   4.185   0.389  0.0047  0.6390 -0.0738
 5657TIP3    H116977   6.357   4.148   0.356 -0.7418 -2.4272  1.1277
 5657TIP3    H216978   6.302   4.243   0.460  1.1876  0.5265 -0.4030
 5658TIP3   OH216979   1.459   2.612   4.790 -0.1625  0.5802  0.3517
 5658TIP3    H116980   1.415   2.691   4.821 -2.2876 -0.4554  0.1284
 5658TIP3    H216981   1.453   2.617   4.694 -2.2331 -0.8155  0.3526
 5659TIP3   OH216982   0.591   0.585   2.144 -0.2138  0.3026  0.7825
 5659TIP3    H116983   0.686   0.581   2.140 -0.1898  0.9608  0.5435
 5659TIP3    H216984   0.565   0.507   2.193  0.3527 -0.6126 -0.3548
 5660TIP3   OH216985   5.970   0.724   1.423  0.0074  0.0633 -0.3434
 5660TIP3    H116986   6.002   0.747   1.335  0.4063  0.4639 -0.0985
 5660TIP3    H216987   5.880   0.758   1.425  0.4896  1.4136 -0.0851
 5661TIP3   OH216988   4.544   0.643   0.967  0.1591 -0.0156  0.3303
 5661TIP3    H116989   4.495   0.601   0.896  1.1037  0.8297 -0.8624
 5661TIP3    H216990   4.479   0.694   1.015 -0.2929  0.4122 -0.7079
 5662TIP3   OH216991   5.194   1.719   2.364 -0.6650 -0.3115 -0.4050
 5662TIP3    H116992   5.111   1.765   2.350  0.1236  1.8673  1.3380
 5662TIP3    H216993   5.260   1.782   2.337  0.4682 -1.1926  0.2467
 5663TIP3   OH216994   1.833   2.618   3.820  0.0624 -0.1084  0.4869
 5663TIP3    H116995   1.741   2.643   3.811 -0.3950 -1.4853  1.0389
 5663TIP3    H216996   1.849   2.624   3.914 -0.3395 -2.6438  0.7778
 5664TIP3   OH216997   5.093   0.050   0.214  0.4206 -0.2943  0.3481
 5664TIP3    H116998   5.013   0.035   0.264 -0.3121 -1.6398 -1.1524
 5664TIP3    H216999   5.164   0.032   0.276 -0.4385 -0.3437  1.3369
 5665TIP3   OH217000   2.537   4.674   1.344  0.1964 -0.8208  0.5003
 5665TIP3    H117001   2.628   4.668   1.374 -0.0775 -1.4036  1.2420
 5665TIP3    H217002   2.522   4.593   1.296  0.8340  0.3878 -1.8682
 5666TIP3   OH217003   5.850   0.427   4.952  0.1800  0.3656 -0.5418
 5666TIP3    H117004   5.914   0.486   4.992  0.6718 -0.0164 -0.7623
 5666TIP3    H217005   5.894   0.391   4.875 -0.2877  0.0756 -0.6801
 5667TIP3   OH217006   3.672   5.572   0.997  0.3497  0.8282 -0.5083
 5667TIP3    H117007   3.598   5.557   0.938  0.4367 -3.3664  0.1546
 5667TIP3    H217008   3.748   5.541   0.949  1.3392  2.5911 -0.1741
 5668TIP3   OH217009   5.278   1.551   1.777  0.1457  0.2490 -0.4421
 5668TIP3    H117010   5.301   1.584   1.864 -0.7774 -0.0882 -0.0620
 5668TIP3    H217011   5.356   1.567   1.724  0.4746  1.0779  0.2741
 5669TIP3   OH217012   1.045   0.269   0.298 -0.3458 -0.1653 -0.0554
 5669TIP3    H117013   1.021   0.282   0.390 -1.3898 -0.0125 -0.3308
 5669TIP3    H217014   1.077   0.355   0.269  0.8734 -0.4429  0.3938
 5670TIP3   OH217015   2.271   3.350   3.445  0.0003  0.5849  0.6857
 5670TIP3    H117016   2.251   3.400   3.365 -0.4204 -1.3334 -0.4835
 5670TIP3    H217017   2.192   3.357   3.498  0.6216  2.6533  1.4025
 5671TIP3   OH217018   0.281   5.562   0.598 -0.2279  0.0774  0.1579
 5671TIP3    H117019   0.325   5.637   0.558  0.1068 -0.0077  0.3621
 5671TIP3    H217020   0.195   5.560   0.556 -0.0494  0.2623 -0.2266
 5672TIP3   OH217021   3.969   2.452   1.982 -0.3068 -0.1434  0.0533
 5672TIP3    H117022   3.903   2.519   1.962  0.1894 -0.0697 -1.4905
 5672TIP3    H217023   3.922   2.369   1.974 -0.3806 -0.0646 -0.3711
 5673TIP3   OH217024   4.379   1.108   4.123 -0.8070 -0.4836 -0.2563
 5673TIP3    H117025   4.371   1.030   4.178 -0.5523 -0.3677 -0.0495
 5673TIP3    H217026   4.300   1.159   4.140 -1.1699 -0.8890 -0.6995
 5674TIP3   OH217027   0.790   4.099   5.195  0.4828 -0.2952  0.1290
 5674TIP3    H117028   0.815   4.008   5.215 -1.5792 -0.9764 -0.1806
 5674TIP3    H217029   0.771   4.099   5.101  0.7079  0.5309  0.0753
 5675TIP3   OH217030   3.208   3.146   2.209  0.1619  0.4707 -0.2442
 5675TIP3    H117031   3.196   3.054   2.188  1.4941  0.7411 -2.4381
 5675TIP3    H217032   3.156   3.193   2.143  0.2049  1.3038  0.2985
 5676TIP3   OH217033   2.194   3.499   2.195 -0.2663 -0.0068 -0.2981
 5676TIP3    H117034   2.239   3.583   2.204 -1.0779  0.4335 -0.2573
 5676TIP3    H217035   2.263   3.436   2.175  0.4021  0.6000  0.0675
 5677TIP3   OH217036   5.511   0.288   1.937 -0.9114  0.3486 -0.3844
 5677TIP3    H117037   5.448   0.326   1.875 -0.1438 -0.7171 -1.8921
 5677TIP3    H217038   5.573   0.240   1.881  1.5668  1.7733  0.9725
 5678TIP3   OH217039   4.369   3.080   0.937  0.3539  0.4759  0.6794
 5678TIP3    H117040   4.355   2.997   0.982  2.2915 -0.0270  0.4602
 5678TIP3    H217041   4.289   3.094   0.887 -1.4487  0.5160  3.3447
 5679TIP3   OH217042   4.700   4.649   2.042 -0.1233 -0.3341 -0.2665
 5679TIP3    H117043   4.640   4.711   2.083  1.3836  0.4465  0.8764
 5679TIP3    H217044   4.701   4.673   1.950  0.4821  1.4578  0.1565
 5680TIP3   OH217045   0.595   3.009   1.177  0.1208  0.1045 -0.3653
 5680TIP3    H117046   0.597   2.972   1.266 -2.7637  0.0409 -0.2245
 5680TIP3    H217047   0.618   2.936   1.120 -0.1332 -0.4451  0.2266
 5681TIP3   OH217048   3.258   2.511   1.929 -0.1909 -0.1179 -0.3625
 5681TIP3    H117049   3.189   2.452   1.960  2.4567 -3.3659 -0.1294
 5681TIP3    H217050   3.301   2.541   2.009 -0.4354  0.8014 -0.5614
 5682TIP3   OH217051   2.246   2.940   4.176  0.2636 -0.1354 -0.2187
 5682TIP3    H117052   2.334   2.957   4.208 -0.4586 -0.6836  2.2948
 5682TIP3    H217053   2.199   3.022   4.192  0.1643 -0.0185 -1.0583
 5683TIP3   OH217054   5.453   0.067   0.841  0.3405  0.3618  0.1996
 5683TIP3    H117055   5.370   0.025   0.863  0.5182 -0.3140 -0.3680
 5683TIP3    H217056   5.435   0.161   0.848 -0.1356  0.2071  1.2433
 5684TIP3   OH217057   0.141   4.334   2.686  0.5531  0.2968 -0.0117
 5684TIP3    H117058   0.149   4.251   2.733 -0.2850  0.1408 -0.1311
 5684TIP3    H217059   0.171   4.400   2.748  2.4674 -0.1894 -0.3347
 5685TIP3   OH217060   5.923   1.424   2.722 -0.4986 -0.0184 -0.2321
 5685TIP3    H117061   5.965   1.429   2.636 -0.7948  1.4147 -0.3125
 5685TIP3    H217062   5.971   1.486   2.777  0.1081 -1.3928  0.8469
 5686TIP3   OH217063   4.438   5.666   1.968 -0.5576 -0.2437 -0.4145
 5686TIP3    H117064   4.506   5.695   1.908 -0.2140  0.1963  0.1683
 5686TIP3    H217065   4.396   5.748   1.997 -0.0633 -0.3682  0.6898
 5687TIP3   OH217066   3.509   1.893   0.588 -0.4469  0.2238 -0.6184
 5687TIP3    H117067   3.548   1.837   0.521 -1.1218  1.4015 -2.0701
 5687TIP3    H217068   3.421   1.913   0.554 -0.6672  1.1575  0.4323
 5688TIP3   OH217069   0.113   4.216   4.978 -0.3433  0.4044 -0.1883
 5688TIP3    H117070   0.152   4.300   4.955 -0.1877  0.2211 -0.5968
 5688TIP3    H217071   0.163   4.151   4.929 -0.1954  0.0319  0.4434
 5689TIP3   OH217072   2.465   3.571   3.560  0.1695 -0.3193  0.6362
 5689TIP3    H117073   2.483   3.646   3.505  0.3126  0.1356  1.2929
 5689TIP3    H217074   2.408   3.515   3.507 -1.1598  0.9472  0.6739
 5690TIP3   OH217075   3.030   0.366   1.450  0.6533  0.1407 -0.3377
 5690TIP3    H117076   3.078   0.352   1.532  1.6915 -0.2534 -0.9959
 5690TIP3    H217077   3.038   0.284   1.403 -1.7215 -0.3795  0.0162
 5691TIP3   OH217078   4.224   1.135   2.242  0.0629 -0.3419  0.3201
 5691TIP3    H117079   4.204   1.168   2.154  2.7697  1.1204  0.1628
 5691TIP3    H217080   4.247   1.213   2.292 -0.2838 -1.2931  2.0280
 5692TIP3   OH217081   4.508   3.892   4.311 -0.2118 -0.2837  0.2001
 5692TIP3    H117082   4.451   3.825   4.275  1.1001 -1.3957  0.1229
 5692TIP3    H217083   4.541   3.855   4.393 -1.2587  1.2281  1.3737
 5693TIP3   OH217084   5.846   1.693   4.003 -0.3022 -0.3499 -0.3851
 5693TIP3    H117085   5.922   1.751   4.008 -0.0035 -0.8234  1.2908
 5693TIP3    H217086   5.877   1.616   3.955  0.4143 -0.6761  0.5537
 5694TIP3   OH217087   2.479   3.600   4.175 -0.0192  0.3102  0.3073
 5694TIP3    H117088   2.493   3.591   4.081  0.3703  0.4308  0.3500
 5694TIP3    H217089   2.491   3.512   4.211  1.0893  0.4775  0.3930
 5695TIP3   OH217090   6.195   5.761   3.512 -0.0101 -0.5324  0.1404
 5695TIP3    H117091   6.220   5.677   3.552  0.3861  0.3371  1.7956
 5695TIP3    H217092   6.174   5.818   3.586 -0.1407  0.8861 -0.9454
 5696TIP3   OH217093   5.942   4.070   3.986  0.2769 -0.5387  0.3598
 5696TIP3    H117094   5.905   3.982   4.000 -0.6994 -0.3626 -0.9265
 5696TIP3    H217095   5.871   4.130   4.011  0.6293 -0.1316  0.3903
 5697TIP3   OH217096   4.306   4.273   1.331  0.2574  0.8052  0.1045
 5697TIP3    H117097   4.292   4.199   1.390  2.4295  0.8027  0.7180
 5697TIP3    H217098   4.311   4.349   1.389 -0.1507  1.1779 -0.3424
 5698TIP3   OH217099   6.163   5.380   2.244 -0.0310 -0.4164 -0.2172
 5698TIP3    H117100   6.072   5.396   2.267  0.3808  1.4363  0.3081
 5698TIP3    H217101   6.199   5.332   2.319  0.1384  1.5382  1.0349
 5699TIP3   OH217102   2.280   0.684   0.793 -0.7471  0.3968  0.5444
 5699TIP3    H117103   2.225   0.692   0.716 -0.2383  1.0942  0.2381
 5699TIP3    H217104   2.367   0.711   0.764 -0.1093 -1.1814  0.8867
 5700TIP3   OH217105   4.604   3.128   4.370  0.0630 -0.1589  0.3541
 5700TIP3    H117106   4.631   3.060   4.309  1.3500  1.9673 -1.5974
 5700TIP3    H217107   4.670   3.126   4.439  2.4024  1.4750 -1.6505
 5701TIP3   OH217108   6.325   3.729   1.680 -0.0183  0.9674  0.2698
 5701TIP3    H117109   6.404   3.675   1.669 -0.3312  0.7346 -1.0360
 5701TIP3    H217110   6.286   3.731   1.593 -2.0831  0.1122  1.1073
 5702TIP3   OH217111   3.816   1.851   4.897 -0.2003  0.0640 -0.1493
 5702TIP3    H117112   3.826   1.789   4.825 -0.6883  0.4097 -0.5193
 5702TIP3    H217113   3.813   1.937   4.854 -0.5178  0.2684  0.2779
 5703TIP3   OH217114   4.789   1.845   1.277 -0.5013 -0.4781 -0.1371
 5703TIP3    H117115   4.814   1.877   1.364  0.0245 -0.9370 -0.1097
 5703TIP3    H217116   4.789   1.923   1.222  1.7865 -0.5260 -0.3009
 5704TIP3   OH217117   2.322   4.989   4.948 -0.1828 -0.3854 -0.1312
 5704TIP3    H117118   2.385   4.947   4.890 -1.0834 -0.5327 -1.0223
 5704TIP3    H217119   2.243   5.000   4.895 -0.3576  1.3638  0.4281
 5705TIP3   OH217120   3.540   2.117   2.487  0.1294 -0.0221  0.2802
 5705TIP3    H117121   3.570   2.082   2.571 -0.7458  0.3219  0.7529
 5705TIP3    H217122   3.534   2.040   2.431  1.7097 -0.1244  0.1986
 5706TIP3   OH217123   1.199   5.529   0.460 -0.1287 -0.1080  0.2134
 5706TIP3    H117124   1.294   5.541   0.458 -0.1553  0.2383  0.8323
 5706TIP3    H217125   1.170   5.573   0.540 -0.9891  1.0281 -0.6787
 5707TIP3   OH217126   6.131   3.968   3.667  0.1886  0.2787  0.0231
 5707TIP3    H117127   6.218   3.934   3.687  0.3742 -0.2327 -1.4902
 5707TIP3    H217128   6.140   4.063   3.676  0.3033  0.1308  1.9459
 5708TIP3   OH217129   2.886   1.912   2.122  0.3036  0.2277  0.0343
 5708TIP3    H117130   2.894   1.993   2.172 -1.8539 -0.3328  1.4008
 5708TIP3    H217131   2.913   1.936   2.033  0.1311  2.3171  0.4976
 5709TIP3   OH217132   4.486   2.974   2.196  0.0490 -0.0322  0.1821
 5709TIP3    H117133   4.568   3.022   2.188 -0.3022  0.4958 -0.3820
 5709TIP3    H217134   4.476   2.959   2.290  0.3966  0.6028  0.3266
 5710TIP3   OH217135   5.984   3.421   0.482  0.2342 -0.4014 -0.6962
 5710TIP3    H117136   6.008   3.383   0.566  0.4867 -1.2505 -1.1476
 5710TIP3    H217137   5.956   3.347   0.428 -1.1050  0.2660 -0.9764
 5711TIP3   OH217138   6.088   2.772   2.683  0.1040 -0.7392  0.6463
 5711TIP3    H117139   6.061   2.861   2.662 -0.1883 -0.8798  0.4267
 5711TIP3    H217140   6.168   2.758   2.632 -1.3697 -1.5905 -1.5542
 5712TIP3   OH217141   6.299   1.604   0.828  0.0950  0.5560 -0.2274
 5712TIP3    H117142   6.296   1.667   0.900  0.7936  1.5334 -1.0149
 5712TIP3    H217143   6.352   1.532   0.861  1.5193  1.5808 -0.1655
 5713TIP3   OH217144   3.760   5.522   3.794  0.4894 -0.2869 -0.2635
 5713TIP3    H117145   3.775   5.578   3.870 -2.4147 -1.1128  1.0716
 5713TIP3    H217146   3.719   5.579   3.729  0.1916 -0.2227 -0.0211
 5714TIP3   OH217147   0.259   2.458   3.458 -0.0625 -0.4294  0.1183
 5714TIP3    H117148   0.324   2.407   3.411 -0.2925 -1.4757  0.9167
 5714TIP3    H217149   0.306   2.496   3.532  0.0768  0.4384 -0.3954
 5715TIP3   OH217150   5.020   2.309   0.271 -0.1565 -0.1016 -0.1469
 5715TIP3    H117151   4.976   2.357   0.201  1.4267  0.0501 -1.0591
 5715TIP3    H217152   4.957   2.241   0.296 -1.0456  0.3194 -1.1726
 5716TIP3   OH217153   1.620   4.652   4.834  0.0061 -0.3782  0.5952
 5716TIP3    H117154   1.640   4.745   4.843  0.0857 -0.4411  1.1076
 5716TIP3    H217155   1.697   4.615   4.790 -0.5610  0.0054 -0.7765
 5717TIP3   OH217156   1.645   1.414   3.870  0.4437  0.0964  0.2272
 5717TIP3    H117157   1.663   1.328   3.909 -0.6189 -1.1799 -1.8845
 5717TIP3    H217158   1.691   1.412   3.786 -0.4338  1.1940 -0.2981
 5718TIP3   OH217159   1.141   2.711   2.385 -0.1884  0.2235 -0.4077
 5718TIP3    H117160   1.193   2.637   2.354 -0.9391 -0.2503 -0.5616
 5718TIP3    H217161   1.084   2.733   2.312 -2.8552 -1.6996  0.9423
 5719TIP3   OH217162   5.257   4.324   0.903  0.1420 -0.5423  0.2577
 5719TIP3    H117163   5.308   4.384   0.849 -0.0237  0.0174  0.7032
 5719TIP3    H217164   5.183   4.298   0.848 -0.0187  0.0075  0.2124
 5720TIP3   OH217165   4.179   1.627   1.393 -0.5803  0.2610  0.0372
 5720TIP3    H117166   4.233   1.702   1.367 -0.8852  0.4354 -0.1056
 5720TIP3    H217167   4.169   1.577   1.312 -0.1919 -0.0540  0.1820
 5721TIP3   OH217168   3.967   0.732   4.712  0.6414  0.3574 -0.2884
 5721TIP3    H117169   3.884   0.689   4.691  1.4316 -1.4170  0.0004
 5721TIP3    H217170   4.011   0.744   4.627  0.7106 -0.0701 -0.3158
 5722TIP3   OH217171   0.718   4.182   4.904  0.6474 -1.0136 -0.3779
 5722TIP3    H117172   0.672   4.237   4.841  0.3199 -1.1256 -0.2351
 5722TIP3    H217173   0.805   4.168   4.864  0.3762 -1.2482 -0.8979
 5723TIP3   OH217174   0.238   3.896   0.993 -0.1944  0.0250  0.1639
 5723TIP3    H117175   0.182   3.962   1.033  0.5919 -0.1581  1.6617
 5723TIP3    H217176   0.246   3.828   1.060  0.5195 -0.6919 -0.6262
 5724TIP3   OH217177   1.839   3.040   0.211  0.4167 -0.7133 -0.1158
 5724TIP3    H117178   1.877   2.979   0.274 -0.0492  1.5976  2.6180
 5724TIP3    H217179   1.906   3.108   0.200 -1.0545  1.1287  1.3816
 5725TIP3   OH217180   3.610   1.804   4.023 -0.6108 -0.1915  0.3003
 5725TIP3    H117181   3.673   1.751   3.973 -2.7149 -1.3543 -1.3143
 5725TIP3    H217182   3.559   1.849   3.955 -0.3990  2.1510  1.6030
 5726TIP3   OH217183   4.401   1.415   4.140 -0.3977  0.3866 -0.1072
 5726TIP3    H117184   4.420   1.441   4.230  3.1306  2.3645 -1.2253
 5726TIP3    H217185   4.435   1.326   4.133  0.7268  0.7701  0.1970
 5727TIP3   OH217186   0.409   0.832   0.370  0.7269  0.3288  0.2269
 5727TIP3    H117187   0.401   0.764   0.437  0.5243  0.5437  0.4267
 5727TIP3    H217188   0.495   0.819   0.331  0.2881 -0.6844 -0.4467
 5728TIP3   OH217189   6.062   3.310   0.726 -0.0198  0.4368 -0.1779
 5728TIP3    H117190   6.084   3.368   0.799 -1.1600  0.6331  0.0241
 5728TIP3    H217191   6.025   3.232   0.768  0.1571  0.1674 -0.5180
 5729TIP3   OH217192   5.568   1.126   3.489  0.0526  0.2490  0.3793
 5729TIP3    H117193   5.602   1.075   3.415 -1.1520 -1.5738  1.0107
 5729TIP3    H217194   5.637   1.120   3.555  0.8521  1.3275 -0.3278
 5730TIP3   OH217195   2.903   5.537   1.896  0.1845 -0.0940 -0.1009
 5730TIP3    H117196   2.904   5.455   1.945  0.0413 -0.8624 -1.3331
 5730TIP3    H217197   2.919   5.511   1.805  1.0459  1.3385 -0.4006
 5731TIP3   OH217198   0.765   1.250   3.718  0.4974 -0.6536 -0.0860
 5731TIP3    H117199   0.806   1.211   3.641  0.9771 -2.2338  0.9399
 5731TIP3    H217200   0.766   1.344   3.700  0.0472 -1.0146 -2.2658
 5732TIP3   OH217201   5.233   4.093   5.047 -0.3735  0.2685  0.0427
 5732TIP3    H117202   5.219   4.183   5.078 -1.2562 -0.7714  3.0519
 5732TIP3    H217203   5.161   4.076   4.987 -0.9573  1.1731  0.4627
 5733TIP3   OH217204   6.014   5.128   2.970  0.9032  0.1762 -0.6519
 5733TIP3    H117205   6.064   5.053   3.001  0.1983 -0.3328 -0.7244
 5733TIP3    H217206   5.972   5.163   3.049 -1.3299 -1.4469 -1.0317
 5734TIP3   OH217207   4.690   3.073   3.286 -0.5070  0.0559 -0.0887
 5734TIP3    H117208   4.767   3.122   3.313 -1.5350  1.7770 -0.0882
 5734TIP3    H217209   4.654   3.037   3.367  1.9228 -3.4852 -0.3711
 5735TIP3   OH217210   2.083   5.865   4.365 -0.3212 -0.5169  1.4725
 5735TIP3    H117211   1.990   5.876   4.342 -0.3700  0.7672  2.1787
 5735TIP3    H217212   2.089   5.775   4.396 -0.8789 -1.3196 -0.5448
 5736TIP3   OH217213   2.574   4.399   5.147  0.3752 -0.4202 -0.0293
 5736TIP3    H117214   2.562   4.370   5.057  0.3832 -2.4237  0.5770
 5736TIP3    H217215   2.556   4.493   5.144  0.8729 -0.3320 -2.1971
 5737TIP3   OH217216   6.252   2.721   1.955  0.2904 -1.0838 -0.1707
 5737TIP3    H117217   6.284   2.685   1.872  0.6149 -0.3621 -0.3634
 5737TIP3    H217218   6.302   2.801   1.968 -1.6821  0.3140 -0.6789
 5738TIP3   OH217219   3.642   3.532   3.103 -0.1893  0.4883  0.5402
 5738TIP3    H117220   3.661   3.529   3.197  1.2649  0.4057  0.2560
 5738TIP3    H217221   3.712   3.481   3.063 -1.3855 -0.3753 -0.5193
 5739TIP3   OH217222   5.407   1.572   1.186  0.2211 -0.0968 -0.0459
 5739TIP3    H117223   5.373   1.543   1.271 -0.3802  1.4950  0.2789
 5739TIP3    H217224   5.351   1.528   1.122  0.9842 -1.7020  0.3257
 5740TIP3   OH217225   0.424   5.465   3.869  0.3445  0.0505 -0.0836
 5740TIP3    H117226   0.369   5.392   3.899  1.4418 -0.2253  1.3460
 5740TIP3    H217227   0.362   5.526   3.829 -0.6675 -1.4240 -0.8839
 5741TIP3   OH217228   0.208   3.262   2.911  0.2563 -0.1927  0.1245
 5741TIP3    H117229   0.127   3.242   2.865 -0.8849  1.5644  1.2593
 5741TIP3    H217230   0.190   3.241   3.002  0.7539  1.0301  0.5277
 5742TIP3   OH217231   0.285   1.422   1.716  0.0001 -0.7569  0.4181
 5742TIP3    H117232   0.224   1.354   1.745  0.4906 -1.8124 -0.9189
 5742TIP3    H217233   0.360   1.373   1.681  0.7642  0.5000  0.2586
 5743TIP3   OH217234   0.052   1.115   1.048  0.3346 -0.1057 -0.1002
 5743TIP3    H117235   0.066   1.191   1.104 -1.5474  0.7191 -0.6848
 5743TIP3    H217236   0.035   1.043   1.109  2.1752 -0.1129  0.4552
 5744TIP3   OH217237   3.093   2.013   0.238  0.1407  0.4532  0.7469
 5744TIP3    H117238   3.042   1.960   0.300  0.2254 -0.4180  0.0995
 5744TIP3    H217239   3.069   2.103   0.258 -0.1176  0.1651  1.7942
 5745TIP3   OH217240   5.478   4.060   2.070 -0.5666  0.4875  0.1201
 5745TIP3    H117241   5.556   4.006   2.071 -0.9137 -0.0063  0.5942
 5745TIP3    H217242   5.499   4.131   2.008  0.0332  0.0440 -0.1935
 5746TIP3   OH217243   4.917   2.490   2.545  0.6855 -0.2197  0.1984
 5746TIP3    H117244   4.978   2.512   2.615  1.6704 -0.6576 -0.5038
 5746TIP3    H217245   4.950   2.407   2.510  0.2558  0.0399 -0.8432
 5747TIP3   OH217246   0.558   2.786   0.172 -0.1939  0.0349 -0.2019
 5747TIP3    H117247   0.549   2.770   0.266 -0.8167 -0.6644 -0.3751
 5747TIP3    H217248   0.615   2.863   0.166  0.1582 -0.1448  0.7352
 5748TIP3   OH217249   1.848   2.558   4.212  0.1747  0.4036  0.2619
 5748TIP3    H117250   1.876   2.624   4.149 -1.7195  0.8934 -0.1450
 5748TIP3    H217251   1.759   2.536   4.185  0.7708 -2.3888  0.3528
 5749TIP3   OH217252   3.464   3.407   3.698 -0.4046  0.4219 -0.0599
 5749TIP3    H117253   3.466   3.354   3.777 -0.5786 -1.7881 -1.4433
 5749TIP3    H217254   3.371   3.420   3.679 -0.3661  0.8342  0.0272
 5750TIP3   OH217255   5.635   4.030   2.592 -0.3530  0.4160 -0.3761
 5750TIP3    H117256   5.571   3.960   2.581  0.4848 -0.4548  0.0671
 5750TIP3    H217257   5.624   4.086   2.515  1.0735 -1.9410 -2.4278
 5751TIP3   OH217258   1.612   1.975   0.592  0.0671  0.6197  0.2064
 5751TIP3    H117259   1.702   1.989   0.563 -0.0147  0.3712 -0.1729
 5751TIP3    H217260   1.611   1.884   0.621 -0.8744 -0.5209 -2.9511
 5752TIP3   OH217261   3.570   4.250   4.271 -0.0804  0.4649 -0.2732
 5752TIP3    H117262   3.568   4.325   4.330 -0.4681  0.0373  0.2659
 5752TIP3    H217263   3.494   4.197   4.297  0.7298 -0.5994 -0.0061
 5753TIP3   OH217264   0.006   3.029   0.270 -0.1885  0.8928 -0.1320
 5753TIP3    H117265   0.067   2.989   0.208 -0.3589  0.6127 -0.1208
 5753TIP3    H217266   0.054   3.033   0.353 -0.7388 -0.8594  0.3097
 5754TIP3   OH217267   5.048   2.638   2.320 -0.8620 -0.4655 -0.4508
 5754TIP3    H117268   5.015   2.557   2.357 -0.5724 -0.6800 -0.6533
 5754TIP3    H217269   4.974   2.699   2.324 -1.2752 -0.9326 -0.8906
 5755TIP3   OH217270   2.865   0.273   0.264 -0.1685  0.0805 -0.0809
 5755TIP3    H117271   2.887   0.367   0.261  0.8929 -0.1811 -1.7397
 5755TIP3    H217272   2.789   0.264   0.207 -1.4184  0.1820  1.5261
 5756TIP3   OH217273   1.497   5.820   1.378  0.3929  0.2113  0.5405
 5756TIP3    H117274   1.556   5.888   1.412 -2.4754  2.7459  0.9579
 5756TIP3    H217275   1.454   5.785   1.456 -1.1311  0.9749  0.0861
 5757TIP3   OH217276   4.636   5.442   1.044  0.0956 -0.3471 -0.5588
 5757TIP3    H117277   4.636   5.388   0.965 -1.2360 -1.8110  0.3712
 5757TIP3    H217278   4.544   5.464   1.059  0.0855 -1.4844  1.4466
 5758TIP3   OH217279   2.882   1.613   3.810 -0.0521  0.4579 -0.4762
 5758TIP3    H117280   2.896   1.527   3.849  0.5220  0.3295 -0.9433
 5758TIP3    H217281   2.789   1.616   3.790 -0.2627  0.3395  0.4455
 5759TIP3   OH217282   3.034   4.470   4.975 -0.0974 -0.4011  0.1094
 5759TIP3    H117283   3.033   4.394   4.917  0.6027  0.9990 -1.8254
 5759TIP3    H217284   2.981   4.535   4.930  1.0055  0.9714  0.7209
 5760TIP3   OH217285   1.124   5.235   0.376 -0.2470 -0.1543  0.2337
 5760TIP3    H117286   1.159   5.321   0.397 -0.6028 -0.0738  0.4941
 5760TIP3    H217287   1.201   5.179   0.367  0.0222  0.3178 -0.5306
 5761TIP3   OH217288   4.559   2.956   5.116 -0.0279  0.2482 -0.0107
 5761TIP3    H117289   4.638   2.937   5.066 -0.3703  1.1311 -0.9314
 5761TIP3    H217290   4.487   2.934   5.057 -0.4571  0.6277  0.3601
 5762TIP3   OH217291   0.971   4.233   4.748 -0.5343  0.2567 -0.1624
 5762TIP3    H117292   0.924   4.314   4.728  0.6094  0.9368 -0.1952
 5762TIP3    H217293   1.063   4.257   4.742 -0.1726 -1.0932 -0.3035
 5763TIP3   OH217294   2.256   3.993   2.480  0.2570 -0.0722  0.0553
 5763TIP3    H117295   2.185   3.981   2.417 -1.2945 -0.4779  1.7545
 5763TIP3    H217296   2.274   4.086   2.479  0.0172 -0.0319 -0.7416
 5764TIP3   OH217297   4.553   5.378   3.220 -0.3560  0.2613  0.3917
 5764TIP3    H117298   4.477   5.408   3.170 -0.1170 -0.1960 -0.2626
 5764TIP3    H217299   4.569   5.289   3.188  0.7140  0.5088  0.2201
 5765TIP3   OH217300   1.089   2.026   1.055 -0.4356  0.0253  0.2999
 5765TIP3    H117301   1.167   2.025   1.111  1.1397  3.2021 -1.5508
 5765TIP3    H217302   1.123   2.043   0.967 -3.0865 -1.1741 -1.0916
 5766TIP3   OH217303   2.977   1.421   2.317  0.0732 -0.1982  0.2060
 5766TIP3    H117304   2.935   1.351   2.268  0.3927  0.4297 -0.9964
 5766TIP3    H217305   3.053   1.446   2.265  0.7721  0.0958  1.3182
 5767TIP3   OH217306   4.206   5.287   3.877 -0.0360  0.2010 -0.2439
 5767TIP3    H117307   4.235   5.236   3.801  0.7896  1.6792 -0.9431
 5767TIP3    H217308   4.190   5.220   3.944  1.8468 -0.9501 -0.8501
 5768TIP3   OH217309   1.776   4.502   0.302 -0.3139  0.2579 -0.4860
 5768TIP3    H117310   1.831   4.443   0.354 -0.0445  0.2292 -0.7952
 5768TIP3    H217311   1.711   4.444   0.261 -1.0723  0.3922  0.4968
 5769TIP3   OH217312   1.616   5.912   1.138 -0.1021  0.5241 -0.1568
 5769TIP3    H117313   1.582   5.857   1.208  1.6086 -0.8973 -0.3709
 5769TIP3    H217314   1.709   5.925   1.160  0.0925  1.3359 -1.3547
 5770TIP3   OH217315   0.979   3.354   0.805  0.5059  0.4954 -0.1737
 5770TIP3    H117316   0.986   3.409   0.884  1.1198 -0.6387  0.5813
 5770TIP3    H217317   0.954   3.268   0.838  1.2359 -0.1160 -1.1744
 5771TIP3   OH217318   0.174   1.869   1.618  0.1451 -0.1008  0.5186
 5771TIP3    H117319   0.082   1.873   1.594  0.5777 -1.9949 -1.9757
 5771TIP3    H217320   0.208   1.956   1.599 -0.7951  0.1106 -0.2981
 5772TIP3   OH217321   0.245   2.569   5.007 -0.3461  0.1247 -0.4594
 5772TIP3    H117322   0.219   2.644   5.060 -1.4300 -1.3917  1.2701
 5772TIP3    H217323   0.163   2.524   4.988  0.4468 -1.8191  0.4497
 5773TIP3   OH217324  -0.016   3.776   0.326  0.3499 -0.1632  0.0905
 5773TIP3    H117325   0.050   3.774   0.396  0.4927 -1.5922 -0.0421
 5773TIP3    H217326   0.035   3.779   0.245  0.2031  0.5953  0.0202
 5774TIP3   OH217327   0.032   3.303   5.098  0.5291 -0.0666  0.2610
 5774TIP3    H117328   0.053   3.396   5.093  2.9797 -0.6038 -0.8316
 5774TIP3    H217329   0.102   3.260   5.050 -1.3422 -2.4027 -0.5608
 5775TIP3   OH217330   0.476   5.581   5.098  0.6388 -0.0711 -0.1660
 5775TIP3    H117331   0.468   5.668   5.136 -1.0021  0.8284 -2.3249
 5775TIP3    H217332   0.503   5.597   5.008  1.9709 -1.9350 -0.1471
 5776TIP3   OH217333   1.076   5.085   2.075 -0.0062  0.0889  0.1210
 5776TIP3    H117334   1.068   5.176   2.103  0.8895  0.0565  0.5170
 5776TIP3    H217335   0.990   5.063   2.040 -0.6219  0.6835  1.2234
 5777TIP3   OH217336   5.109   1.007   0.575 -0.3278  0.8758  0.0015
 5777TIP3    H117337   5.174   0.949   0.536 -2.4967  0.1597 -2.9135
 5777TIP3    H217338   5.158   1.087   0.596  1.6372  0.1336 -1.4314
 5778TIP3   OH217339   3.413   0.962   3.599  0.1131 -0.2927 -0.3115
 5778TIP3    H117340   3.346   0.948   3.665 -0.1328  2.3109  0.1269
 5778TIP3    H217341   3.483   0.901   3.621 -0.9808 -1.1454  0.8740
 5779TIP3   OH217342   2.936   1.331   4.514  0.1862 -0.3122 -0.1029
 5779TIP3    H117343   2.885   1.299   4.587 -3.3767  1.3198 -1.6407
 5779TIP3    H217344   2.898   1.289   4.437 -0.4178  2.5436 -1.5315
 5780TIP3   OH217345   0.817   1.192   5.083  0.1746 -0.0477 -0.2080
 5780TIP3    H117346   0.745   1.250   5.109  0.2554 -0.7394  1.7810
 5780TIP3    H217347   0.881   1.201   5.154  0.2282 -2.4728  0.1486
 5781TIP3   OH217348   0.558   2.053   1.921 -0.1772 -0.0389 -0.8308
 5781TIP3    H117349   0.646   2.036   1.887 -0.8814 -0.1857 -2.6755
 5781TIP3    H217350   0.543   2.146   1.903 -0.3317  0.0334 -0.3382
 5782TIP3   OH217351   0.049   5.639   1.120  0.3326 -0.1624  0.4466
 5782TIP3    H117352   0.004   5.703   1.175  1.6813  1.0568  0.2154
 5782TIP3    H217353   0.005   5.556   1.137 -0.3392  0.4974  2.1101
 5783TIP3   OH217354   2.779   2.907   1.286  0.0487 -0.4062 -0.0025
 5783TIP3    H117355   2.816   2.831   1.332 -0.6707 -1.2090 -0.6987
 5783TIP3    H217356   2.776   2.880   1.194 -1.2137  0.0351 -0.1108
 5784TIP3   OH217357   4.369   3.175   3.966  0.1738  0.9710  0.1661
 5784TIP3    H117358   4.277   3.201   3.960 -0.4454 -0.9995  0.3764
 5784TIP3    H217359   4.368   3.081   3.949  1.9664  0.6157  1.7229
 5785TIP3   OH217360   0.022   0.502   1.003  0.0315 -0.2350 -0.2235
 5785TIP3    H117361   0.010   0.595   0.984 -2.4760  0.0388  2.0522
 5785TIP3    H217362  -0.028   0.457   0.935  1.1344  0.0574 -1.2498
 5786TIP3   OH217363   4.950   0.060   1.105 -0.1827  0.3523  0.1339
 5786TIP3    H117364   4.860   0.056   1.140 -0.0069  3.7924  1.3367
 5786TIP3    H217365   4.945   0.123   1.033  0.6460 -2.2923 -2.4297
 5787TIP3   OH217366   3.310   3.815   1.055 -0.3685  0.1308  0.1592
 5787TIP3    H117367   3.405   3.825   1.059 -0.3803 -0.0014  0.8531
 5787TIP3    H217368   3.283   3.868   0.980  0.2639  0.0645 -0.1211
 5788TIP3   OH217369   5.837   4.709   3.985  0.3836  0.0920  0.2324
 5788TIP3    H117370   5.904   4.771   4.014  1.2687 -0.2404 -1.0008
 5788TIP3    H217371   5.756   4.742   4.022  0.7740  2.1714 -0.6217
 5789TIP3   OH217372   4.701   1.911   5.121 -0.4009 -0.3638 -0.1996
 5789TIP3    H117373   4.670   1.874   5.038 -1.2731  1.5162 -0.7671
 5789TIP3    H217374   4.793   1.932   5.105 -0.6890  0.4274 -0.8753
 5790TIP3   OH217375   2.677   1.103   0.416 -0.6246  0.4864  0.1588
 5790TIP3    H117376   2.661   1.114   0.509 -1.7880 -0.8968  0.1669
 5790TIP3    H217377   2.594   1.128   0.374 -0.3047  0.5344 -0.4517
 5791TIP3   OH217378   4.109   1.712   3.081  0.0183 -0.1574 -0.3286
 5791TIP3    H117379   4.103   1.764   3.161 -1.0838 -0.3809 -0.2516
 5791TIP3    H217380   4.083   1.773   3.011  0.5679 -0.0819 -0.4722
 5792TIP3   OH217381   5.823   2.183   1.807 -0.7606  0.5034  0.3144
 5792TIP3    H117382   5.774   2.241   1.749 -1.3194  1.7174  1.9014
 5792TIP3    H217383   5.833   2.234   1.888 -1.2275 -1.6084  1.7779
 5793TIP3   OH217384   5.598   0.478   1.657  0.5550 -0.6584  0.5839
 5793TIP3    H117385   5.614   0.528   1.577 -0.2243 -1.0774  0.1470
 5793TIP3    H217386   5.528   0.525   1.701  1.0495 -0.3751  1.0762
 5794TIP3   OH217387   4.663   5.483   2.055  0.0092 -0.0845 -0.2167
 5794TIP3    H117388   4.609   5.484   1.975 -0.9799 -1.1265  0.4075
 5794TIP3    H217389   4.738   5.537   2.033 -0.8984  0.7676 -1.3995
 5795TIP3   OH217390   1.738   0.048   2.885  0.4542 -0.1094 -0.6502
 5795TIP3    H117391   1.804   0.026   2.819  0.7610  0.2324 -0.4583
 5795TIP3    H217392   1.783   0.039   2.968 -0.5246 -2.7707 -0.3040
 5796TIP3   OH217393   3.767   5.308   1.768 -0.2377 -0.4690  0.7412
 5796TIP3    H117394   3.808   5.309   1.855  0.5378  0.4034  0.3901
 5796TIP3    H217395   3.840   5.289   1.708  0.0810  2.6563 -0.0602
 5797TIP3   OH217396   6.220   4.587   3.735  0.0414 -0.4471 -0.5058
 5797TIP3    H117397   6.164   4.580   3.813 -0.9387  3.2006 -0.7017
 5797TIP3    H217398   6.158   4.592   3.662  0.7313  0.3838 -1.0509
 5798TIP3   OH217399   4.909   4.755   1.405  0.0078 -0.2249 -0.1926
 5798TIP3    H117400   4.987   4.711   1.438  0.0214 -0.2818 -0.3004
 5798TIP3    H217401   4.944   4.831   1.357 -0.0638  0.8274  1.3232
 5799TIP3   OH217402   3.471   1.603   4.297 -0.0153  0.1077  0.0862
 5799TIP3    H117403   3.554   1.569   4.332 -0.1374  0.6497  0.9279
 5799TIP3    H217404   3.477   1.587   4.203  0.5902 -0.8268  0.2612
 5800TIP3   OH217405   4.308   1.378   2.434 -0.0980 -0.3983  0.2452
 5800TIP3    H117406   4.369   1.437   2.391  0.1821 -0.2626  0.8147
 5800TIP3    H217407   4.359   1.337   2.504 -0.3240 -1.2306 -0.0665
 5801TIP3   OH217408   2.078   0.419   5.146  0.3675 -0.3999 -0.0671
 5801TIP3    H117409   2.076   0.390   5.054  1.1048 -0.6687 -0.0041
 5801TIP3    H217410   1.986   0.427   5.170  0.1361  1.1099 -1.2785
 5802TIP3   OH217411   1.944   4.382   1.886  0.7617 -0.1161  0.0769
 5802TIP3    H117412   1.928   4.476   1.893 -0.4332 -0.3927  1.7147
 5802TIP3    H217413   1.868   4.348   1.838 -0.3964 -0.5652  2.0689
 5803TIP3   OH217414   3.570   2.288   2.812  0.3749 -0.0117  0.4812
 5803TIP3    H117415   3.553   2.207   2.861 -0.7146 -0.9747 -1.3833
 5803TIP3    H217416   3.527   2.275   2.728  1.6952  1.8153 -0.5552
 5804TIP3   OH217417   5.479   2.361   0.161  0.2504 -0.0296  0.5751
 5804TIP3    H117418   5.406   2.379   0.221  0.7661  0.7907  0.9764
 5804TIP3    H217419   5.497   2.445   0.119  0.3195 -0.4533 -0.2620
 5805TIP3   OH217420   6.099   0.141   3.514 -0.2299  0.0547 -0.6004
 5805TIP3    H117421   6.104   0.222   3.465 -0.1982  0.4122 -0.0175
 5805TIP3    H217422   6.089   0.169   3.605  3.2752 -0.5229  0.0896
 5806TIP3   OH217423   5.669   1.044   4.352  0.2047 -0.7387 -0.3050
 5806TIP3    H117424   5.672   0.957   4.391 -0.3709 -0.6699 -0.0856
 5806TIP3    H217425   5.606   1.036   4.281 -0.1609 -0.4072 -0.0261
 5807TIP3   OH217426   4.377   2.823   4.342  0.1803 -0.2956 -0.4139
 5807TIP3    H117427   4.366   2.766   4.266 -0.5743  0.0950 -0.6065
 5807TIP3    H217428   4.384   2.911   4.304 -0.9552 -0.0119 -0.0048
 5808TIP3   OH217429   5.018   4.507   4.903  1.1879 -0.2329 -0.2340
 5808TIP3    H117430   4.951   4.492   4.837  2.3152 -2.1137 -1.0302
 5808TIP3    H217431   4.982   4.473   4.984 -0.0934  1.8329  0.1416
 5809TIP3   OH217432   2.727   4.757   3.697  0.6911  0.6469 -0.2028
 5809TIP3    H117433   2.781   4.798   3.630  2.4549  0.2024  0.8755
 5809TIP3    H217434   2.728   4.818   3.770 -3.0056  2.1642 -1.1934
 5810TIP3   OH217435   0.269   4.519   2.222 -0.0816  0.3806 -0.3237
 5810TIP3    H117436   0.270   4.558   2.135  0.5677  1.3748  0.1260
 5810TIP3    H217437   0.177   4.497   2.237 -0.2649  0.6303 -1.0648
 5811TIP3   OH217438   6.311   4.051   0.041 -0.1786 -0.2684 -0.3460
 5811TIP3    H117439   6.328   4.132  -0.007 -1.7752 -0.7656 -1.8202
 5811TIP3    H217440   6.366   4.058   0.120 -1.1624  2.7740  0.1998
 5812TIP3   OH217441   1.424   5.404   4.242 -0.2377 -0.4328  0.2284
 5812TIP3    H117442   1.465   5.490   4.248 -1.6477  0.3065 -0.3204
 5812TIP3    H217443   1.465   5.363   4.166 -0.8838  0.5154 -0.6516
 5813TIP3   OH217444   1.977   5.390   2.289 -0.3003  0.1573 -0.1473
 5813TIP3    H117445   1.943   5.476   2.313  1.0626  0.3986  1.1362
 5813TIP3    H217446   1.999   5.349   2.373  0.8216 -0.6792 -0.8159
 5814TIP3   OH217447   1.566   0.412   1.012  0.4903  0.0548  0.1444
 5814TIP3    H117448   1.572   0.330   0.962 -0.1245 -1.6653  2.7155
 5814TIP3    H217449   1.480   0.408   1.054 -0.7644  3.3680 -1.7035
 5815TIP3   OH217450   5.387   3.435   4.266  0.1068  0.8463 -0.1557
 5815TIP3    H117451   5.324   3.504   4.287 -1.0998 -0.3341  0.2527
 5815TIP3    H217452   5.365   3.409   4.176 -0.5518 -0.1196  0.2692
 5816TIP3   OH217453   1.943   1.888   2.163  0.0919  0.0873 -0.5578
 5816TIP3    H117454   1.897   1.971   2.160  0.1876  0.1494 -0.3147
 5816TIP3    H217455   1.885   1.827   2.118 -0.2926  0.1358 -0.1388
 5817TIP3   OH217456   1.395   1.580   4.536  0.4038  0.0381  0.0623
 5817TIP3    H117457   1.479   1.550   4.568  0.6511  0.9544  0.2992
 5817TIP3    H217458   1.330   1.529   4.585  0.7927  0.5346  1.1238
 5818TIP3   OH217459   1.893   1.578   2.242  0.5632 -0.0636 -0.1506
 5818TIP3    H117460   1.804   1.547   2.259 -0.5027  2.3790 -0.7268
 5818TIP3    H217461   1.889   1.612   2.152  1.6102  1.5008  0.3521
 5819TIP3   OH217462   3.522   1.248   3.783 -0.0073  0.5130 -0.4699
 5819TIP3    H117463   3.466   1.172   3.799  0.5088 -0.0230 -1.1257
 5819TIP3    H217464   3.461   1.320   3.768 -0.5855 -0.3495 -2.5833
 5820TIP3   OH217465   1.580   1.111   4.921  0.3466 -0.1838 -0.2865
 5820TIP3    H117466   1.575   1.077   4.832 -1.1069 -0.5909 -0.0787
 5820TIP3    H217467   1.519   1.056   4.971 -0.5295  1.4139  0.4881
 5821TIP3   OH217468   1.820   4.029   3.649 -0.0096  0.0147  0.0499
 5821TIP3    H117469   1.802   3.980   3.569 -1.8163  0.2765  0.2525
 5821TIP3    H217470   1.759   4.102   3.647  2.5643  2.3131 -0.1925
 5822TIP3   OH217471   5.278   4.682   0.323  0.3665  0.3513  0.0842
 5822TIP3    H117472   5.359   4.730   0.306  1.7843 -1.6657  0.7053
 5822TIP3    H217473   5.282   4.659   0.415  0.7911 -2.5989 -0.5729
 5823TIP3   OH217474   5.188   5.312   2.784 -0.5228 -0.0833 -0.3317
 5823TIP3    H117475   5.127   5.241   2.764 -2.5055  0.3447  3.2165
 5823TIP3    H217476   5.133   5.390   2.790  0.9365  0.9827 -0.2716
 5824TIP3   OH217477   0.571   4.239   3.949  0.1303 -0.0964 -0.1042
 5824TIP3    H117478   0.484   4.278   3.941 -0.1333 -0.5192  0.5929
 5824TIP3    H217479   0.593   4.210   3.860  0.0561  1.0406 -0.5039
 5825TIP3   OH217480   5.570   0.483   4.946 -0.2969  0.1962  0.3344
 5825TIP3    H117481   5.659   0.467   4.916 -1.2428 -1.7996 -1.7387
 5825TIP3    H217482   5.531   0.396   4.952 -1.7072  0.9072  2.6548
 5826TIP3   OH217483   3.040   0.867   3.051 -0.1459 -0.4634 -0.1686
 5826TIP3    H117484   3.034   0.947   2.999 -1.8560 -0.2556  0.2837
 5826TIP3    H217485   2.950   0.848   3.077  0.4270 -1.5930  1.1692
 5827TIP3   OH217486   4.312   1.870   1.195 -0.5129  0.3055 -0.0421
 5827TIP3    H117487   4.303   1.946   1.252 -1.3082  0.2517 -0.0916
 5827TIP3    H217488   4.403   1.842   1.206  0.3219  2.2977 -1.3120
 5828TIP3   OH217489   3.306   2.006   2.228 -0.0170 -0.3977 -0.3309
 5828TIP3    H117490   3.245   2.070   2.265  0.5779  0.0361 -0.0648
 5828TIP3    H217491   3.259   1.923   2.232 -0.4582 -0.1354  0.1990
 5829TIP3   OH217492   2.957   3.927   4.441  0.3423  0.2180 -0.1420
 5829TIP3    H117493   2.902   3.931   4.520  1.3137 -0.7589  0.6029
 5829TIP3    H217494   2.904   3.878   4.378 -0.5663  1.2674 -0.2130
 5830TIP3   OH217495   3.148   5.563   4.145 -0.3669 -0.0398  0.3060
 5830TIP3    H117496   3.130   5.469   4.138 -0.2235 -0.0656  0.2900
 5830TIP3    H217497   3.068   5.605   4.114 -1.0235 -0.1598  1.7200
 5831TIP3   OH217498   1.456   3.793   2.845  0.5378  0.3298  0.1214
 5831TIP3    H117499   1.506   3.717   2.873 -0.1542 -0.8634 -1.6782
 5831TIP3    H217500   1.424   3.833   2.926  1.5931 -0.7945  1.1307
 5832TIP3   OH217501   2.553   4.671   5.113  0.2139 -0.0767  0.0840
 5832TIP3    H117502   2.559   4.686   5.019  1.0718  0.6533  0.2331
 5832TIP3    H217503   2.601   4.745   5.152 -0.0045 -0.4405  1.0848
 5833TIP3   OH217504   3.110   3.723   1.823  0.3001  0.9049 -0.0871
 5833TIP3    H117505   3.054   3.758   1.892 -1.3062  0.0801 -0.9112
 5833TIP3    H217506   3.178   3.674   1.868 -1.0821 -0.1459  0.9081
 5834TIP3   OH217507   0.891   1.684   0.523 -0.6186  0.5116 -0.0916
 5834TIP3    H117508   0.830   1.703   0.594 -0.8084  1.2826 -0.4561
 5834TIP3    H217509   0.977   1.710   0.558 -0.4501 -0.7462  0.4887
 5835TIP3   OH217510   3.926   5.909   4.026  0.2402 -1.1072  0.1378
 5835TIP3    H117511   3.852   5.970   4.027 -0.6779 -2.1912  0.5945
 5835TIP3    H217512   3.936   5.882   4.117  1.7134 -0.4089  0.2132
 5836TIP3   OH217513   2.766   2.934   0.998 -0.0544 -0.6392 -0.3470
 5836TIP3    H117514   2.690   2.957   0.945 -0.3081 -0.9115 -0.1045
 5836TIP3    H217515   2.839   2.983   0.959  0.1472 -2.2479 -2.1021
 5837TIP3   OH217516   2.271   5.154   2.319 -0.1568 -0.4363  0.5403
 5837TIP3    H117517   2.314   5.145   2.405  0.6550  2.1039  0.4919
 5837TIP3    H217518   2.317   5.227   2.277 -2.8319  0.7624 -0.5810
 5838TIP3   OH217519   2.213   5.618   2.592 -0.1443 -0.8637  0.3380
 5838TIP3    H117520   2.138   5.675   2.578 -0.2757 -1.5361 -2.3297
 5838TIP3    H217521   2.289   5.672   2.569 -0.0233 -0.9092  0.6260
 5839TIP3   OH217522   1.961   5.377   2.016 -0.3897  0.0459 -0.2805
 5839TIP3    H117523   2.041   5.430   2.009  1.6790 -2.6026  1.1053
 5839TIP3    H217524   1.943   5.374   2.110  1.0776 -3.5247  0.0330
 5840TIP3   OH217525   1.489   5.994   2.772 -0.2622 -0.5314  0.1876
 5840TIP3    H117526   1.575   6.003   2.812 -0.1711 -2.3883  0.5184
 5840TIP3    H217527   1.489   5.905   2.737 -1.7524 -0.2699 -0.5366
 5841TIP3   OH217528   4.254   2.248   0.636 -0.2108  1.2407 -0.1082
 5841TIP3    H117529   4.159   2.258   0.637 -0.3531  0.2084 -0.7234
 5841TIP3    H217530   4.286   2.311   0.700 -1.1858  2.7937 -1.0785
 5842TIP3   OH217531   5.685   0.498   3.890  0.4553 -0.6487  0.2403
 5842TIP3    H117532   5.593   0.474   3.895  0.6746 -1.8574 -0.7961
 5842TIP3    H217533   5.692   0.550   3.811  0.7589 -1.1224 -0.0512
 5843TIP3   OH217534   5.110   3.828   2.702 -0.2256  0.3939 -0.1952
 5843TIP3    H117535   5.078   3.760   2.642 -1.4606  1.8211 -1.2363
 5843TIP3    H217536   5.204   3.831   2.686  0.0322 -1.7059  0.5890
 5844TIP3   OH217537   4.971   0.896   4.224  0.1112 -0.3251 -0.1860
 5844TIP3    H117538   5.037   0.951   4.265  0.5422 -0.8998 -0.0839
 5844TIP3    H217539   4.909   0.957   4.184  0.8824  0.2312 -0.5597
 5845TIP3   OH217540   5.597   0.821   1.742 -0.5042  0.6504  0.2643
 5845TIP3    H117541   5.632   0.868   1.817 -0.3578  3.2088 -1.2939
 5845TIP3    H217542   5.576   0.734   1.776  0.2703  1.4482  3.0434
 5846TIP3   OH217543   5.998   2.894   0.482 -0.9780 -0.1287 -0.3194
 5846TIP3    H117544   5.999   2.989   0.466  2.2551 -0.1980 -1.3899
 5846TIP3    H217545   5.940   2.859   0.415 -2.7360  1.1079  0.5027
 5847TIP3   OH217546   4.204   4.117   2.807 -0.4028  0.1215 -0.6075
 5847TIP3    H117547   4.255   4.060   2.749  0.3791 -0.5311  0.6840
 5847TIP3    H217548   4.115   4.113   2.771 -0.2213 -1.3478 -0.9799
 5848TIP3   OH217549   4.975   2.016   2.977 -0.5227  0.1010  0.1503
 5848TIP3    H117550   5.016   2.081   3.034  0.1756  0.4513 -0.7264
 5848TIP3    H217551   4.890   2.054   2.955 -0.2956  0.5180 -0.0095
 5849TIP3   OH217552   0.562   4.618   4.419 -0.3637  0.0396  0.0771
 5849TIP3    H117553   0.525   4.704   4.438  1.6540  1.1216 -0.6887
 5849TIP3    H217554   0.495   4.557   4.451 -1.0157  1.8264  2.4393
 5850TIP3   OH217555   2.504   0.709   0.626  0.2626  0.6922 -0.1344
 5850TIP3    H117556   2.584   0.754   0.599  1.0767 -0.8041 -0.2978
 5850TIP3    H217557   2.527   0.616   0.627 -1.4155  0.2412  0.0388
 5851TIP3   OH217558   1.539   3.099   1.947 -0.6576  0.1432 -0.6850
 5851TIP3    H117559   1.550   3.020   2.000  1.2611 -0.2837 -1.6698
 5851TIP3    H217560   1.483   3.156   2.001  2.4005  0.3932  2.6122
 5852TIP3   OH217561   3.937   5.147   0.217  0.3441  0.0614  0.6525
 5852TIP3    H117562   3.935   5.056   0.247  0.3691  0.2517  1.2380
 5852TIP3    H217563   3.896   5.144   0.130 -3.5288  0.1155  2.2932
 5853TIP3   OH217564   6.220   0.103   0.696 -0.2434 -0.2622 -0.1929
 5853TIP3    H117565   6.267   0.019   0.703 -1.2155 -0.7381  1.1037
 5853TIP3    H217566   6.232   0.144   0.782  0.4072  1.0600 -0.8892
 5854TIP3   OH217567   0.616   1.707   2.153  0.6159 -0.7419  0.3000
 5854TIP3    H117568   0.610   1.649   2.229 -1.0219 -0.3568  0.4978
 5854TIP3    H217569   0.668   1.782   2.183 -1.2185  0.1027  1.5325
 5855TIP3   OH217570   0.690   0.444   2.397 -0.2741  0.5445 -0.2020
 5855TIP3    H117571   0.757   0.390   2.357 -0.9408 -0.3774 -0.0972
 5855TIP3    H217572   0.692   0.421   2.490 -1.9155 -0.8223 -0.4610
 5856TIP3   OH217573   5.938   1.301   4.750  0.2501 -0.5401 -0.1147
 5856TIP3    H117574   6.033   1.313   4.746  0.1765 -0.0508 -0.5984
 5856TIP3    H217575   5.923   1.250   4.829  0.7289  1.3232  1.2612
 5857TIP3   OH217576   2.164   3.052   2.642 -0.5073 -0.4313 -0.3567
 5857TIP3    H117577   2.099   2.983   2.654 -0.1427 -0.8950 -0.9724
 5857TIP3    H217578   2.164   3.070   2.548 -0.3954  0.2049 -0.2383
 5858TIP3   OH217579   0.849   2.095   0.929  0.7821  0.4122  0.2563
 5858TIP3    H117580   0.902   2.116   1.006 -0.3265 -0.4956  1.3107
 5858TIP3    H217581   0.852   2.174   0.875  0.6870  1.4995  1.7758
 5859TIP3   OH217582   1.410   3.404   4.459 -0.6192  0.5354  0.1179
 5859TIP3    H117583   1.371   3.471   4.402 -1.8378 -0.3237 -0.1220
 5859TIP3    H217584   1.386   3.430   4.547  0.9959  1.6980  0.2408
 5860TIP3   OH217585   3.441   2.849   2.032  0.6734 -0.0700  0.1949
 5860TIP3    H117586   3.434   2.754   2.041  1.0629  0.0863  3.7046
 5860TIP3    H217587   3.475   2.878   2.117 -0.9144  3.3649 -0.1848
 5861TIP3   OH217588   0.379   1.853   0.291  0.0603  0.1517  0.5734
 5861TIP3    H117589   0.380   1.873   0.197  0.4834  0.2644  0.5993
 5861TIP3    H217590   0.405   1.761   0.296 -0.3515  0.0330  0.5556
 5862TIP3   OH217591   2.308   2.228   2.610  0.7135  0.6415 -0.1855
 5862TIP3    H117592   2.343   2.173   2.540 -0.5135  0.4417 -0.6715
 5862TIP3    H217593   2.300   2.168   2.685 -0.6633  0.0892 -0.7274
 5863TIP3   OH217594   2.745   0.617   3.856  0.2612 -0.4139 -0.2535
 5863TIP3    H117595   2.699   0.654   3.781  0.9598 -0.0677 -0.5183
 5863TIP3    H217596   2.759   0.691   3.915  0.9982 -0.3912 -0.4457
 5864TIP3   OH217597   1.085   0.162   1.779 -0.1108  0.5642  0.2175
 5864TIP3    H117598   1.006   0.216   1.786 -0.5150  0.0927 -0.5260
 5864TIP3    H217599   1.128   0.171   1.864 -0.5812  1.4112  0.3804
 5865TIP3   OH217600   4.550   1.947   3.445 -0.5768 -0.0308  0.3210
 5865TIP3    H117601   4.629   1.997   3.422 -0.7627  0.7121  1.2488
 5865TIP3    H217602   4.524   1.906   3.363 -0.3635  1.3357 -0.4713
 5866TIP3   OH217603   4.467   1.720   1.522  0.0238 -0.5595  0.4641
 5866TIP3    H117604   4.441   1.658   1.591  2.3591 -2.0633  0.1245
 5866TIP3    H217605   4.442   1.805   1.556  1.1974 -1.2252  3.3105
 5867TIP3   OH217606   1.734   1.308   3.202  0.3772 -0.8544  0.1469
 5867TIP3    H117607   1.654   1.294   3.150 -0.4564 -0.1117  1.1819
 5867TIP3    H217608   1.762   1.397   3.181  1.1954 -1.2579 -0.5294
 5868TIP3   OH217609   3.855   5.311   2.097 -0.0238  0.2191 -0.2352
 5868TIP3    H117610   3.807   5.278   2.173 -1.9395  1.6630 -0.7366
 5868TIP3    H217611   3.931   5.356   2.134 -1.1052  1.1900  0.8789
 5869TIP3   OH217612   4.446   0.096   4.614 -0.0910 -0.4001  0.1264
 5869TIP3    H117613   4.507   0.023   4.605  1.7470  1.1938 -1.0568
 5869TIP3    H217614   4.405   0.104   4.528  0.7451  0.7761 -0.1865
 5870TIP3   OH217615   6.106   3.890   4.985 -0.5761 -0.0569  0.5933
 5870TIP3    H117616   6.103   3.983   4.962 -0.1602 -0.3433 -0.7307
 5870TIP3    H217617   6.137   3.888   5.075  0.4152  1.0585  0.2965
 5871TIP3   OH217618   4.784   0.348   1.095 -0.5798  0.1119 -0.9103
 5871TIP3    H117619   4.773   0.441   1.075 -1.5653  0.1742 -0.1239
 5871TIP3    H217620   4.878   0.338   1.112 -0.6895  1.2966  0.5686
 5872TIP3   OH217621   5.097   5.074   3.467  0.3218  0.7171  0.3762
 5872TIP3    H117622   5.068   5.150   3.517 -1.0347 -0.1112  0.9345
 5872TIP3    H217623   5.166   5.035   3.520 -1.8816 -0.8229  2.3864
 5873TIP3   OH217624   4.025   3.567   3.550 -0.1419 -0.0443  0.1235
 5873TIP3    H117625   3.995   3.654   3.523 -0.3105 -0.0027  0.4395
 5873TIP3    H217626   4.079   3.584   3.627  0.4050 -0.1530 -0.2319
 5874TIP3   OH217627   3.938   4.031   0.911 -0.1969  0.0258  0.4672
 5874TIP3    H117628   4.028   4.005   0.891 -0.7076  0.2618 -2.5719
 5874TIP3    H217629   3.941   4.058   1.003  3.2930  1.9801 -0.0500
 5875TIP3   OH217630   2.450   0.294   0.304  0.5102 -0.2497  0.3931
 5875TIP3    H117631   2.487   0.340   0.229  2.5880 -0.9052  0.9312
 5875TIP3    H217632   2.381   0.239   0.267  0.8857  0.1209 -0.9064
 5876TIP3   OH217633   4.765   1.861   1.770 -0.1515 -0.0139 -0.2091
 5876TIP3    H117634   4.820   1.855   1.848 -1.7407 -2.6601  0.8387
 5876TIP3    H217635   4.739   1.771   1.752 -1.7556  0.8008 -2.4248
 5877TIP3   OH217636   5.941   2.383   4.469 -0.0521 -0.3162  0.2874
 5877TIP3    H117637   5.980   2.459   4.514 -0.3485 -0.7862  1.3691
 5877TIP3    H217638   6.005   2.360   4.402  0.3344  0.5012  0.3584
 5878TIP3   OH217639   1.939   5.073   3.286  0.0870 -0.3283  0.0797
 5878TIP3    H117640   1.859   5.029   3.312  0.3586 -0.5782  0.5007
 5878TIP3    H217641   1.918   5.166   3.287 -0.9543 -0.4703 -2.3034
 5879TIP3   OH217642   5.464   1.859   0.182 -0.2137 -0.0499 -0.1241
 5879TIP3    H117643   5.418   1.941   0.200 -1.2573 -0.0199 -2.5575
 5879TIP3    H217644   5.557   1.881   0.192 -0.5506  0.7444  1.6343
 5880TIP3   OH217645   3.520   2.083   4.297  0.1061 -0.1395  0.1617
 5880TIP3    H117646   3.484   1.997   4.273 -1.0929  0.2693  0.3959
 5880TIP3    H217647   3.605   2.086   4.253 -0.6575 -0.6654 -1.4709
 5881TIP3   OH217648   5.007   0.693   3.199 -0.4566  0.3604  0.2006
 5881TIP3    H117649   5.037   0.678   3.109  0.1312 -1.5667  0.6566
 5881TIP3    H217650   5.040   0.780   3.222  1.6385 -0.1651 -0.6006
 5882TIP3   OH217651   1.577   5.079   0.690  0.4170 -0.1018  0.4542
 5882TIP3    H117652   1.599   5.172   0.682  0.2420 -0.1352 -0.6607
 5882TIP3    H217653   1.493   5.078   0.735 -0.1005  0.3557 -0.4736
 5883TIP3   OH217654   5.261   2.992   2.297 -0.1123  0.5729  0.4844
 5883TIP3    H117655   5.191   2.967   2.358 -0.7383  1.7103  0.2708
 5883TIP3    H217656   5.219   3.053   2.236  0.4563 -0.7000 -1.2367
 5884TIP3   OH217657   5.582   2.962   3.298 -0.0533 -0.2896  0.3769
 5884TIP3    H117658   5.639   3.023   3.250  0.5095 -1.2557 -0.2084
 5884TIP3    H217659   5.606   2.974   3.390  0.2585  0.1616  0.2414
 5885TIP3   OH217660   0.032   4.048   3.506 -0.1331  0.5381 -0.5007
 5885TIP3    H117661  -0.046   4.101   3.492  0.1528  0.8693 -0.8774
 5885TIP3    H217662   0.045   4.001   3.423  0.1701  0.6297 -0.5081
 5886TIP3   OH217663   5.608   3.086   3.874 -0.5678  0.5004  0.5558
 5886TIP3    H117664   5.540   3.021   3.891 -1.8809  1.8207  0.5371
 5886TIP3    H217665   5.641   3.108   3.961 -0.0327 -0.2489  0.5550
 5887TIP3   OH217666   0.927   4.557   4.906 -0.0668  0.2349 -0.1856
 5887TIP3    H117667   0.880   4.534   4.987 -1.8507 -0.9481 -1.4595
 5887TIP3    H217668   1.019   4.540   4.925 -0.5997 -1.4017  1.1798
 5888TIP3   OH217669   5.071   1.153   5.144 -0.2521  0.5708  0.0301
 5888TIP3    H117670   5.051   1.060   5.154 -0.1163  0.3442 -1.5305
 5888TIP3    H217671   5.120   1.176   5.223 -1.9654 -0.1793  1.3638
 5889TIP3   OH217672   4.618   1.383   0.832  0.3813  0.1209 -0.0795
 5889TIP3    H117673   4.698   1.361   0.785  0.5797  2.9602 -1.2984
 5889TIP3    H217674   4.648   1.419   0.915  0.1904 -1.3984  0.6807
 5890TIP3   OH217675   3.453   2.604   2.561 -0.8080 -0.0702  0.0297
 5890TIP3    H117676   3.540   2.643   2.553 -0.0125 -1.0592  2.6977
 5890TIP3    H217677   3.452   2.535   2.495  1.3181 -1.4252  1.2914
 5891TIP3   OH217678   4.812   2.061   1.105 -0.0417 -0.2329 -0.0596
 5891TIP3    H117679   4.873   2.131   1.084 -1.6980  1.0637 -0.8433
 5891TIP3    H217680   4.737   2.077   1.047 -1.8320 -0.7293  2.0042
 5892TIP3   OH217681   2.850   5.452   2.638 -0.5280 -0.3152 -0.0177
 5892TIP3    H117682   2.893   5.405   2.709 -1.0805 -1.1187 -0.2111
 5892TIP3    H217683   2.761   5.417   2.635 -0.6203 -0.0371 -0.8745
 5893TIP3   OH217684   6.145   0.543   3.752  0.0752 -0.3423 -0.9620
 5893TIP3    H117685   6.202   0.595   3.809 -2.2426  0.2926  0.9574
 5893TIP3    H217686   6.205   0.493   3.697  2.4550  0.3498  0.8292
 5894TIP3   OH217687   3.175   4.079   3.042  0.1988 -0.1964  0.6672
 5894TIP3    H117688   3.113   4.107   2.975 -0.0661 -0.3563  0.8438
 5894TIP3    H217689   3.231   4.156   3.057 -0.7883  0.3953  1.4581
 5895TIP3   OH217690   1.132   3.043   2.551 -0.0141 -0.7371 -0.6930
 5895TIP3    H117691   1.098   2.957   2.572  0.9500 -1.5075 -2.1189
 5895TIP3    H217692   1.176   3.072   2.631 -1.0214 -1.1987  0.0509
 5896TIP3   OH217693   3.197   5.142   2.933  0.4583 -0.2873 -0.4817
 5896TIP3    H117694   3.269   5.201   2.957  1.0335 -0.1550 -2.3237
 5896TIP3    H217695   3.153   5.122   3.015  1.4993  1.0877  0.4490
 5897TIP3   OH217696   0.579   5.852   2.259  0.1283 -0.1818  0.8994
 5897TIP3    H117697   0.674   5.843   2.252 -0.0836 -2.6840  0.3387
 5897TIP3    H217698   0.562   5.860   2.353  0.8577 -0.0311  1.0249
 5898TIP3   OH217699   3.324   0.115   2.344 -0.1791 -0.5287  0.2003
 5898TIP3    H117700   3.332   0.107   2.439  0.2175  0.1018  0.2225
 5898TIP3    H217701   3.294   0.205   2.329 -3.5867 -1.5768 -0.1004
 5899TIP3   OH217702   1.882   5.535   0.582  0.1806 -0.5724  0.1412
 5899TIP3    H117703   1.830   5.456   0.567  0.1393 -0.7911  1.3689
 5899TIP3    H217704   1.831   5.605   0.542  0.9389 -1.3348 -2.3517
 5900TIP3   OH217705   2.731   3.748   2.669  0.3887  0.4703  0.0347
 5900TIP3    H117706   2.801   3.797   2.625  0.3350  1.0087  0.5318
 5900TIP3    H217707   2.650   3.788   2.637  0.3304  0.3344  0.0130
 5901TIP3   OH217708   3.263   1.936   0.463 -0.1364  0.1093 -0.5736
 5901TIP3    H117709   3.262   1.930   0.368 -0.3422 -1.5540 -0.5058
 5901TIP3    H217710   3.194   1.876   0.491  1.2303 -0.9714  0.6510
 5902TIP3   OH217711   3.363   2.462   1.302 -0.5821 -0.1972 -0.5947
 5902TIP3    H117712   3.293   2.404   1.272 -0.2655 -0.4911 -0.7757
 5902TIP3    H217713   3.318   2.543   1.325 -1.1782 -0.8330  0.6023
 5903TIP3   OH217714   3.812   1.618   1.335 -0.5675 -0.1208  0.5485
 5903TIP3    H117715   3.837   1.566   1.258 -0.0752  0.0401  0.5963
 5903TIP3    H217716   3.767   1.694   1.298  1.3404  0.9372  0.2729
 5904TIP3   OH217717   0.295   0.546   4.062 -0.2401 -0.1077 -0.2470
 5904TIP3    H117718   0.385   0.566   4.088 -0.4222  0.0201  0.2917
 5904TIP3    H217719   0.274   0.614   3.998  0.9478 -1.6670 -2.4133
 5905TIP3   OH217720   3.297   4.316   3.117 -0.0662 -0.5579 -0.1811
 5905TIP3    H117721   3.365   4.294   3.181  0.2175  1.2694  0.1730
 5905TIP3    H217722   3.327   4.397   3.077 -1.3339 -0.5109 -1.0837
 5906TIP3   OH217723   4.179   0.902   3.619  0.1597 -0.0249 -0.7556
 5906TIP3    H117724   4.100   0.866   3.661  0.0977 -0.3633 -1.1568
 5906TIP3    H217725   4.153   0.990   3.591  0.6362  0.7879  1.1942
 5907TIP3   OH217726   6.103   3.274   2.449  0.1061 -0.1443  0.0348
 5907TIP3    H117727   6.040   3.335   2.487 -0.1976 -0.7093  0.4693
 5907TIP3    H217728   6.124   3.310   2.363 -0.5774  0.2157  0.0159
 5908TIP3   OH217729   0.862   5.811   3.971  0.0701  0.0148  0.4532
 5908TIP3    H117730   0.856   5.907   3.977  0.9784  0.0118  1.6966
 5908TIP3    H217731   0.947   5.795   3.930  1.1435 -0.2659  2.6511
 5909TIP3   OH217732   2.226   1.555   2.012 -0.4437  0.3739  0.5181
 5909TIP3    H117733   2.266   1.589   2.091  0.8370 -0.0106  0.0656
 5909TIP3    H217734   2.174   1.480   2.041  0.6091 -0.2201  0.9252
 5910TIP3   OH217735   0.759   5.692   2.539 -0.4025 -0.5331 -0.2537
 5910TIP3    H117736   0.835   5.712   2.484 -0.1746 -0.7521 -0.0253
 5910TIP3    H217737   0.767   5.599   2.558  1.2332  0.0745  2.6364
 5911TIP3   OH217738   2.378   0.149   4.192 -0.1133  0.6007  0.3935
 5911TIP3    H117739   2.351   0.241   4.203 -1.8926  0.1966 -0.2405
 5911TIP3    H217740   2.307   0.099   4.232 -0.1176 -0.5491 -1.0120
 5912TIP3   OH217741   1.896   4.346   3.722 -0.1979 -0.2477  0.1204
 5912TIP3    H117742   1.872   4.361   3.814 -1.0811 -2.0961  0.2167
 5912TIP3    H217743   1.991   4.356   3.721 -0.3311  1.5016  0.8706
 5913TIP3   OH217744   3.725   1.045   1.786  0.2700 -0.1381  0.3401
 5913TIP3    H117745   3.669   0.988   1.734  0.5422 -0.0449 -0.0575
 5913TIP3    H217746   3.779   0.985   1.837  1.2161 -0.2715 -0.7688
 5914TIP3   OH217747   4.379   0.949   2.098 -0.1714  0.3405  0.8012
 5914TIP3    H117748   4.439   0.886   2.139 -0.4397 -0.1921  0.3877
 5914TIP3    H217749   4.337   0.993   2.172  0.1168  0.1270  1.0981
 5915TIP3   OH217750   0.884   2.400   3.622  0.0885 -0.1334  1.0222
 5915TIP3    H117751   0.893   2.328   3.685  0.3515 -0.2807  0.8179
 5915TIP3    H217752   0.837   2.468   3.670  0.0985 -0.3288  1.3115
 5916TIP3   OH217753   1.729   4.879   3.076 -0.2057 -0.3506  0.1862
 5916TIP3    H117754   1.809   4.829   3.059  0.4290  0.1855  1.4950
 5916TIP3    H217755   1.724   4.885   3.171 -1.6722 -0.1343  0.1217
 5917TIP3   OH217756   2.314   3.503  -0.012 -0.8614 -0.3504  0.2593
 5917TIP3    H117757   2.310   3.424   0.042  2.6355  0.1281  1.4597
 5917TIP3    H217758   2.286   3.574   0.047 -0.3204 -0.2367  0.3801
 5918TIP3   OH217759   4.688   2.669   4.368  0.0759 -0.3723  0.0428
 5918TIP3    H117760   4.664   2.698   4.456  1.0743 -1.0614  0.5590
 5918TIP3    H217761   4.701   2.575   4.376  1.6629 -0.2270 -0.4673
 5919TIP3   OH217762   0.605   2.786   1.003  0.3958 -0.0944  0.0177
 5919TIP3    H117763   0.510   2.775   1.002  0.1077  2.0073 -1.1826
 5919TIP3    H217764   0.638   2.711   1.053 -1.9071 -0.6705  0.7544
 5920TIP3   OH217765   0.085   3.030   5.144 -0.1729  0.1885  0.2123
 5920TIP3    H117766   0.059   3.120   5.124  0.9030  0.3310 -0.6855
 5920TIP3    H217767   0.177   3.025   5.118 -0.0372 -1.0049  0.8225
 5921TIP3   OH217768   3.801   4.276   1.386  0.1821 -0.3449 -0.2572
 5921TIP3    H117769   3.724   4.237   1.429  0.3882 -0.2893  0.1752
 5921TIP3    H217770   3.846   4.323   1.457 -0.0175  0.6104 -0.7546
 5922TIP3   OH217771   5.212   4.026   1.986 -0.3487 -0.1451  0.3878
 5922TIP3    H117772   5.305   4.043   2.001  0.1288 -2.5917  0.6309
 5922TIP3    H217773   5.197   4.053   1.895  0.5508  0.4173  0.3964
 5923TIP3   OH217774   3.928   2.842   2.988 -0.4400  0.0753  0.6641
 5923TIP3    H117775   3.849   2.882   3.024  0.1498  0.5509  1.4480
 5923TIP3    H217776   3.997   2.863   3.051  0.5907  0.7664 -0.6501
 5924TIP3   OH217777   2.059   4.801   4.436 -0.0408 -0.1645  0.2530
 5924TIP3    H117778   1.984   4.746   4.455 -1.5773  1.9008  0.6033
 5924TIP3    H217779   2.072   4.793   4.341 -0.6020 -0.6470  0.2141
 5925TIP3   OH217780   0.544   2.718   4.639  0.0670  0.3804 -0.1686
 5925TIP3    H117781   0.546   2.766   4.722  0.0921  0.7623 -0.3878
 5925TIP3    H217782   0.510   2.631   4.662 -1.9195  1.1257 -0.0828
 5926TIP3   OH217783   3.659   0.852   4.694 -0.5723  0.1902 -0.3013
 5926TIP3    H117784   3.735   0.828   4.748  1.8151  1.5461 -2.7545
 5926TIP3    H217785   3.673   0.945   4.673 -2.4577  0.2582 -1.5562
 5927TIP3   OH217786   0.996   3.266   3.904  0.5960  0.4712  0.0925
 5927TIP3    H117787   0.990   3.357   3.875 -0.9669  0.2293 -0.4306
 5927TIP3    H217788   0.978   3.214   3.826 -0.2555 -0.2506  0.7554
 5928TIP3   OH217789   3.889   1.603   2.728 -0.5172 -0.4580  0.4215
 5928TIP3    H117790   3.850   1.596   2.640 -0.1154  1.4024  0.0602
 5928TIP3    H217791   3.956   1.670   2.719  2.0924 -2.7829  1.2918
 5929TIP3   OH217792   3.692   1.577   4.892  0.0011 -0.1964  0.7328
 5929TIP3    H117793   3.682   1.648   4.955 -0.6223 -0.1369  0.5728
 5929TIP3    H217794   3.648   1.503   4.933 -0.2796 -0.1958  0.4306
 5930TIP3   OH217795   5.190   4.428   0.207  0.1590  0.2751 -0.5314
 5930TIP3    H117796   5.192   4.509   0.257  1.3979  0.8683 -1.4835
 5930TIP3    H217797   5.098   4.401   0.208 -0.2843  1.7234 -0.2471
 5931TIP3   OH217798   4.846   1.268   0.712  0.6078 -0.1966  0.3283
 5931TIP3    H117799   4.905   1.239   0.781  1.6065 -0.1140 -0.4773
 5931TIP3    H217800   4.902   1.311   0.648 -0.4562  0.8802  0.0639
 5932TIP3   OH217801   5.815   2.687   1.499  0.4181  0.2601  0.0095
 5932TIP3    H117802   5.818   2.777   1.530 -0.0462 -0.0685  1.0372
 5932TIP3    H217803   5.826   2.634   1.578 -0.1772 -0.5851 -0.4627
 5933TIP3   OH217804   4.939   4.824   4.442  0.2868 -0.0309  0.8269
 5933TIP3    H117805   4.939   4.754   4.376  0.7959 -0.9339  1.7652
 5933TIP3    H217806   4.952   4.904   4.391 -0.6832 -0.5697 -0.3075
 5934TIP3   OH217807   2.683   1.647   1.001 -0.1205  0.0543 -0.1409
 5934TIP3    H117808   2.772   1.681   0.993 -0.3565  0.6572 -0.1858
 5934TIP3    H217809   2.671   1.594   0.922 -0.3469  1.2300 -0.9117
 5935TIP3   OH217810   3.373   2.629   2.209 -0.0044  0.5363 -0.2442
 5935TIP3    H117811   3.304   2.591   2.264  0.4354  0.2649  0.1321
 5935TIP3    H217812   3.412   2.698   2.263 -0.4011  1.1272 -0.7000
 5936TIP3   OH217813   3.211   5.373   0.157  0.5286  0.1482  0.2873
 5936TIP3    H117814   3.165   5.334   0.083 -1.1865 -1.2328  1.9937
 5936TIP3    H217815   3.201   5.468   0.144 -0.2321 -0.0793 -0.9370
 5937TIP3   OH217816   1.350   3.383   2.756 -0.2760 -0.4465 -0.6915
 5937TIP3    H117817   1.289   3.333   2.703  1.4247 -2.0865 -1.1873
 5937TIP3    H217818   1.432   3.334   2.753  0.2019 -0.1509  2.6610
 5938TIP3   OH217819   6.125   2.935   3.292  0.0018  0.7516  0.0655
 5938TIP3    H117820   6.202   2.992   3.298  0.5792 -0.0573  0.4201
 5938TIP3    H217821   6.089   2.936   3.381  0.5959 -0.2317  0.3260
 5939TIP3   OH217822   2.233   5.505   5.058  0.6678  0.3062  0.3761
 5939TIP3    H117823   2.184   5.586   5.069 -0.7020 -0.3184 -0.7799
 5939TIP3    H217824   2.183   5.439   5.107  0.8152 -0.1685 -0.0977
 5940TIP3   OH217825   6.012   1.572   4.607  0.0344  0.4219 -0.3615
 5940TIP3    H117826   5.932   1.520   4.605 -0.0756  0.5942 -2.3633
 5940TIP3    H217827   6.083   1.508   4.606 -0.0741  0.2827  0.4535
 5941TIP3   OH217828   2.877   5.364   4.289  0.1571 -0.4571  0.5985
 5941TIP3    H117829   2.787   5.332   4.285 -1.5170  3.6393  0.6329
 5941TIP3    H217830   2.888   5.413   4.207  2.8055 -1.7007  0.1173
 5942TIP3   OH217831   2.993   1.975   1.892 -0.1927 -0.3855  0.5333
 5942TIP3    H117832   2.943   2.055   1.879  0.1626 -0.3015 -0.3988
 5942TIP3    H217833   2.988   1.930   1.808  0.7714 -0.6782  0.6198
 5943TIP3   OH217834   5.364   2.557   5.004 -0.2379  0.4598  0.4292
 5943TIP3    H117835   5.401   2.469   5.005 -1.6822 -0.2006 -0.4589
 5943TIP3    H217836   5.387   2.592   4.918  0.4526  1.0299  0.8317
 5944TIP3   OH217837   5.041   2.469   0.576  0.9191 -0.3129  0.2991
 5944TIP3    H117838   4.947   2.455   0.573  1.0100 -0.7691 -0.8083
 5944TIP3    H217839   5.051   2.564   0.586  0.3425 -0.1406 -0.6611
 5945TIP3   OH217840   3.876   5.097   4.988 -0.5290 -0.0701  0.5473
 5945TIP3    H117841   3.786   5.065   4.991 -0.6034 -0.1646 -1.2798
 5945TIP3    H217842   3.897   5.100   4.895  1.0604  0.8091  0.8930
 5946TIP3   OH217843   5.564   2.514   4.288 -0.6070 -0.0974  0.1818
 5946TIP3    H117844   5.499   2.493   4.355  0.6083  0.7997  1.7134
 5946TIP3    H217845   5.545   2.454   4.215 -1.3017 -1.8785  1.7616
 5947TIP3   OH217846   0.377   5.652   0.851  0.2573 -0.2557  0.2463
 5947TIP3    H117847   0.416   5.737   0.830  2.1043 -1.0002  0.4659
 5947TIP3    H217848   0.340   5.622   0.768  0.4336  0.3343 -0.0561
 5948TIP3   OH217849   3.266   3.610   2.047  0.0339  0.6612  0.0880
 5948TIP3    H117850   3.359   3.613   2.068  0.5776  1.6281 -2.1726
 5948TIP3    H217851   3.223   3.661   2.116  1.4191  1.8748  0.0901
 5949TIP3   OH217852   5.746   4.466   2.059  0.0726 -0.5928  0.0208
 5949TIP3    H117853   5.754   4.374   2.085  0.3522 -0.6749 -0.3468
 5949TIP3    H217854   5.836   4.494   2.040  0.0587 -0.0711  0.6929
 5950TIP3   OH217855   0.469   3.516   1.676  0.0413  0.2229 -0.1624
 5950TIP3    H117856   0.511   3.597   1.703  1.5743 -0.1465 -1.2868
 5950TIP3    H217857   0.541   3.453   1.669 -0.7554 -0.5781 -1.6941
 5951TIP3   OH217858   2.146   2.830   0.854 -0.2456  0.3551 -0.3558
 5951TIP3    H117859   2.102   2.765   0.799 -0.9126 -0.4540  1.0806
 5951TIP3    H217860   2.084   2.847   0.925  1.3263 -0.0380  1.1738
 5952TIP3   OH217861   2.534   0.499   0.849 -0.1328 -0.3228 -0.6072
 5952TIP3    H117862   2.531   0.404   0.864  1.3202 -0.0316  2.1359
 5952TIP3    H217863   2.449   0.530   0.881  0.1066 -0.5311  0.2657
 5953TIP3   OH217864   5.484   2.840   2.017 -0.1344 -0.1131 -0.1941
 5953TIP3    H117865   5.448   2.926   2.038  0.6565 -0.0610  0.9742
 5953TIP3    H217866   5.439   2.815   1.935 -2.7345 -0.0014  1.0978
 5954TIP3   OH217867   0.721   5.490   3.232  0.6936  0.3093 -0.2460
 5954TIP3    H117868   0.671   5.439   3.168  0.7818 -0.2342  0.1075
 5954TIP3    H217869   0.707   5.581   3.207 -1.2817  0.2374  0.4188
 5955TIP3   OH217870   1.786   1.242   5.023 -0.0780 -0.0861 -0.3145
 5955TIP3    H117871   1.860   1.186   5.045 -1.1855 -0.8316  1.7692
 5955TIP3    H217872   1.712   1.183   5.014 -0.6521  0.7433 -1.4457
 5956TIP3   OH217873   2.576   2.997   4.532 -0.3278  0.4848 -0.4019
 5956TIP3    H117874   2.514   2.934   4.570  0.1244  0.7441  0.8094
 5956TIP3    H217875   2.538   3.020   4.447 -2.2286  1.0947  0.5612
 5957TIP3   OH217876   3.301   3.484   4.424 -0.5642 -0.1297 -0.1548
 5957TIP3    H117877   3.390   3.458   4.399  0.0085  0.7488  0.8844
 5957TIP3    H217878   3.255   3.401   4.436  0.8320 -0.7253  1.7268
 5958TIP3   OH217879   1.666   0.642   0.443  0.0205  0.0373 -0.2304
 5958TIP3    H117880   1.760   0.654   0.429 -0.0587 -0.7042 -1.5691
 5958TIP3    H217881   1.661   0.588   0.521  0.7740 -1.1017 -0.9415
 5959TIP3   OH217882   0.654   3.725   0.503 -0.4934  0.6861 -0.4791
 5959TIP3    H117883   0.704   3.705   0.583  0.2480  0.7870 -0.9068
 5959TIP3    H217884   0.638   3.820   0.508  1.4996  1.1291 -1.5073
 5960TIP3   OH217885   1.700   2.852   4.376  0.4866  0.7450 -0.3106
 5960TIP3    H117886   1.613   2.883   4.403  0.4635  0.2267  0.2441
 5960TIP3    H217887   1.704   2.762   4.409  0.7922  0.3707 -1.3314
 5961TIP3   OH217888   3.314   3.937   1.803  0.0467  0.4451  0.5594
 5961TIP3    H117889   3.309   3.842   1.798  1.4939  0.3842 -0.3463
 5961TIP3    H217890   3.302   3.966   1.713 -1.6831  1.2410  0.9941
 5962TIP3   OH217891   3.449   0.764   1.404 -0.2173 -0.0728 -0.1769
 5962TIP3    H117892   3.431   0.674   1.430  0.1716  0.0996  0.7573
 5962TIP3    H217893   3.412   0.773   1.317 -1.4693 -0.7416  0.2672
 5963TIP3   OH217894   0.718   0.977   4.058  0.1297  0.0119  0.2036
 5963TIP3    H117895   0.678   1.030   3.990  0.5916  0.2033  0.0764
 5963TIP3    H217896   0.723   1.035   4.134  1.9039  0.6365 -0.3322
 5964TIP3   OH217897   3.207   2.194   3.353 -0.1941 -0.4986 -0.4854
 5964TIP3    H117898   3.200   2.283   3.320 -1.4124 -0.7493 -0.9537
 5964TIP3    H217899   3.138   2.146   3.307  1.0767 -1.9198 -0.9989
 5965TIP3   OH217900   0.789   1.569   1.695  0.7108  0.0481  0.4447
 5965TIP3    H117901   0.829   1.502   1.751  1.1536 -0.0671 -0.0056
 5965TIP3    H217902   0.733   1.619   1.754  1.7066  0.3657  1.1458
 5966TIP3   OH217903   5.217   1.643   2.636  0.7861  0.2942 -0.1918
 5966TIP3    H117904   5.207   1.736   2.658 -0.8706 -0.1398  1.0345
 5966TIP3    H217905   5.207   1.640   2.541  1.4261  1.4222 -0.3112
 5967TIP3   OH217906   1.222   3.951   2.534 -0.6314 -0.0889  0.3673
 5967TIP3    H117907   1.221   4.026   2.592  0.2786 -0.8875  1.4494
 5967TIP3    H217908   1.145   3.963   2.478 -0.5409  1.5908  0.5479
 5968TIP3   OH217909   4.266   5.034   0.360  0.4418 -0.3837 -0.4886
 5968TIP3    H117910   4.312   5.095   0.303 -0.0907  0.1652 -0.3454
 5968TIP3    H217911   4.320   5.029   0.439 -0.5721  1.6204  0.4092
 5969TIP3   OH217912   3.097   4.689   1.865 -0.0985  0.4093  0.3622
 5969TIP3    H117913   3.146   4.701   1.946  1.5400  0.7137 -0.6287
 5969TIP3    H217914   3.074   4.596   1.865  1.9401 -0.1475  0.1165
 5970TIP3   OH217915   4.129   4.671   1.954 -0.4884  0.2873  0.5248
 5970TIP3    H117916   4.096   4.716   1.877 -0.4922 -0.5257  0.0369
 5970TIP3    H217917   4.224   4.666   1.941 -0.5704 -0.5595  0.1674
 5971TIP3   OH217918   1.025   5.657   3.563  0.5155 -0.3163  0.4199
 5971TIP3    H117919   1.029   5.694   3.651  1.7401  0.1173  0.1982
 5971TIP3    H217920   0.931   5.657   3.542  0.2865  0.4444  1.3550
 5972TIP3   OH217921   3.010   1.559   4.681 -0.4999  0.5919 -0.2453
 5972TIP3    H117922   3.002   1.472   4.642  0.1668  0.5747 -0.3617
 5972TIP3    H217923   3.082   1.600   4.632  1.2487  0.1002  1.7459
 5973TIP3   OH217924   2.373   4.310   0.782 -0.1518 -0.3892  0.1016
 5973TIP3    H117925   2.374   4.398   0.745 -1.3433 -0.5061 -0.2501
 5973TIP3    H217926   2.466   4.287   0.794  0.1664  0.8525  0.0833
 5974TIP3   OH217927   0.258   4.568   1.322 -0.6960  0.0757  0.1796
 5974TIP3    H117928   0.193   4.507   1.288  1.8418 -1.8646 -1.5085
 5974TIP3    H217929   0.284   4.620   1.247  0.2302  0.3071  0.6468
 5975TIP3   OH217930   0.891   3.980   2.901  0.0181 -0.1328  0.0762
 5975TIP3    H117931   0.910   4.023   2.818 -0.3239  0.4043  0.2707
 5975TIP3    H217932   0.799   3.952   2.894 -0.3268  0.7969  0.6375
 5976TIP3   OH217933   5.274   5.444   1.090  0.3604 -0.5359  0.5374
 5976TIP3    H117934   5.199   5.390   1.068  0.1056 -0.4596  1.1735
 5976TIP3    H217935   5.239   5.532   1.098  0.5527 -0.4668  0.6413
 5977TIP3   OH217936   2.417   5.429   1.471 -0.0562  0.9056  0.5296
 5977TIP3    H117937   2.384   5.341   1.489  2.8694 -0.7416 -1.3501
 5977TIP3    H217938   2.513   5.419   1.469  0.3449  3.9391 -0.7624
 5978TIP3   OH217939   0.642   5.893   0.503  0.1180  0.2833 -0.4626
 5978TIP3    H117940   0.720   5.943   0.477  0.1199  0.9257  0.7005
 5978TIP3    H217941   0.669   5.801   0.493  0.2480  0.4731 -2.2330
 5979TIP3   OH217942   2.190   1.800   1.876  0.3401  0.0391  0.2958
 5979TIP3    H117943   2.229   1.841   1.953 -1.1305  0.6511  0.7441
 5979TIP3    H217944   2.181   1.708   1.900 -0.3741  0.2794  0.9761
 5980TIP3   OH217945   5.479   0.600   1.879  0.5450 -0.4056  0.3823
 5980TIP3    H117946   5.391   0.633   1.862  0.2095 -1.9737 -1.2196
 5980TIP3    H217947   5.474   0.559   1.965  0.0216  0.4496  0.7702
 5981TIP3   OH217948   2.903   2.331   3.328  0.1561 -0.3517 -0.1021
 5981TIP3    H117949   2.995   2.330   3.301  0.5281  1.0899  0.9411
 5981TIP3    H217950   2.872   2.418   3.302 -0.0328  0.3075  2.1273
 5982TIP3   OH217951   1.233   2.187   3.779 -0.4313  0.1078  0.4239
 5982TIP3    H117952   1.173   2.145   3.842 -1.3782  0.6228 -0.1067
 5982TIP3    H217953   1.290   2.241   3.833 -0.1319 -0.7556  0.9882
 5983TIP3   OH217954   4.722   0.701   4.220 -0.6144  0.1456  0.8052
 5983TIP3    H117955   4.729   0.730   4.129 -0.1009 -0.8116  0.5212
 5983TIP3    H217956   4.764   0.770   4.271  1.5066 -0.5197  0.0597
 5984TIP3   OH217957   6.252   1.954   2.379  0.1385  0.2661 -0.3884
 5984TIP3    H117958   6.234   2.015   2.308  0.3806  0.8882  0.0798
 5984TIP3    H217959   6.341   1.975   2.407  0.7875 -1.2493 -1.1603
 5985TIP3   OH217960   3.766   0.770   3.140 -0.0437 -0.7313 -0.4064
 5985TIP3    H117961   3.854   0.733   3.145  0.3053  0.0496 -0.5469
 5985TIP3    H217962   3.720   0.718   3.075  0.0033 -1.7696  0.3762
 5986TIP3   OH217963   5.338   5.677   0.668 -0.2744  0.0293 -0.3034
 5986TIP3    H117964   5.383   5.663   0.584  1.8981 -2.5582  1.0963
 5986TIP3    H217965   5.377   5.757   0.703 -0.0831  0.2864 -1.0844
 5987TIP3   OH217966   0.839   3.096   2.077  0.6221  0.2135  0.3667
 5987TIP3    H117967   0.838   3.008   2.039 -1.3102 -0.0322  0.8923
 5987TIP3    H217968   0.920   3.099   2.127  2.7250  0.1667 -2.7520
 5988TIP3   OH217969   4.230   2.122   1.314 -0.1317 -0.3913  0.1592
 5988TIP3    H117970   4.139   2.143   1.335  0.0616  0.8708 -0.2250
 5988TIP3    H217971   4.254   2.184   1.246  0.3377 -2.1339 -1.3529
 5989TIP3   OH217972   5.060   3.827   1.579 -0.0147 -0.0991  0.9925
 5989TIP3    H117973   5.131   3.781   1.535 -0.3114 -0.3029  0.7245
 5989TIP3    H217974   5.060   3.791   1.668 -1.0136 -1.5177  0.4593
 5990TIP3   OH217975   0.037   4.263   1.048  0.1912 -0.3668 -0.5091
 5990TIP3    H117976   0.055   4.190   1.107  3.3255  1.1315  0.5788
 5990TIP3    H217977   0.071   4.235   0.963  1.3380 -0.2456 -0.1062
 5991TIP3   OH217978   3.606   5.276   0.023  0.1127 -0.1286  0.0576
 5991TIP3    H117979   3.700   5.286   0.009  0.3283 -1.9335 -0.0495
 5991TIP3    H217980   3.596   5.186   0.052 -1.5256  0.2449  0.7723
 5992TIP3   OH217981   2.611   3.263   0.694 -0.2650 -0.1424 -0.8079
 5992TIP3    H117982   2.547   3.325   0.658 -0.0778  0.4410 -0.1713
 5992TIP3    H217983   2.676   3.252   0.624 -0.0673  0.7378 -0.7753
 5993TIP3   OH217984   0.571   2.705   2.064 -0.6429 -0.5329  0.0957
 5993TIP3    H117985   0.510   2.777   2.042 -2.5532 -1.1841  2.7430
 5993TIP3    H217986   0.560   2.642   1.993  0.8882  1.5877 -2.1603
 5994TIP3   OH217987   3.418   5.710   0.353 -0.1798  0.2195 -0.2588
 5994TIP3    H117988   3.370   5.694   0.434 -1.8895 -0.6688 -1.3800
 5994TIP3    H217989   3.491   5.766   0.379 -0.3758 -0.4656  1.9578
 5995TIP3   OH217990   5.093   3.281   2.900  0.0548  0.2809 -0.4748
 5995TIP3    H117991   5.163   3.281   2.835 -0.4341  1.2099 -1.0213
 5995TIP3    H217992   5.013   3.261   2.850 -0.0534 -0.9842  0.1745
 5996TIP3   OH217993   2.955   3.947   1.120  0.0022  0.4788  0.9464
 5996TIP3    H117994   2.984   4.035   1.140  0.2626  0.5357  0.3454
 5996TIP3    H217995   2.860   3.955   1.109  0.2474  1.1456 -1.2846
 5997TIP3   OH217996   0.079   0.922   3.806  0.1879 -0.2741  0.0325
 5997TIP3    H117997   0.087   1.016   3.790 -0.2042 -0.1022  0.8291
 5997TIP3    H217998   0.125   0.881   3.732 -0.1143  0.5319 -0.6123
 5998TIP3   OH217999   3.973   1.068   0.234 -0.1443  0.1903  0.4508
 5998TIP3    H118000   3.940   1.155   0.213  2.5219  0.9216 -1.1498
 5998TIP3    H218001   4.010   1.035   0.152  0.7506 -1.5981  1.4939
 5999TIP3   OH218002   2.392   1.847   0.017  0.1683  0.3705 -0.2917
 5999TIP3    H118003   2.409   1.939   0.037  1.5398  0.0067  0.3586
 5999TIP3    H218004   2.476   1.804   0.028 -0.2173 -0.8045 -1.6361
 6000TIP3   OH218005   5.608   2.477   2.466 -0.6779  0.0773  0.0913
 6000TIP3    H118006   5.645   2.503   2.550  0.8432 -1.6668  0.0374
 6000TIP3    H218007   5.523   2.440   2.488  0.2367 -1.5682  1.1114
 6001TIP3   OH218008   5.305   1.653   0.880 -0.2015  0.2831  0.8001
 6001TIP3    H118009   5.257   1.736   0.889 -1.7381 -0.4367 -0.3255
 6001TIP3    H218010   5.259   1.592   0.937 -0.2519 -0.2670  0.1809
 6002TIP3   OH218011   1.614   3.155   3.416 -0.1602  0.5127 -0.0556
 6002TIP3    H118012   1.697   3.200   3.436 -0.2993  0.3217  1.0384
 6002TIP3    H218013   1.639   3.063   3.406 -0.3725  0.2747  1.3966
 6003TIP3   OH218014   2.172   3.661   2.569  0.0470 -0.0238 -0.1863
 6003TIP3    H118015   2.123   3.717   2.509  1.4985  1.7530  0.1942
 6003TIP3    H218016   2.261   3.660   2.534  0.3803 -0.8768  0.6515
 6004TIP3   OH218017   2.647   0.865   1.706  0.2427  0.5130 -0.1252
 6004TIP3    H118018   2.614   0.938   1.654 -0.6506 -1.0716 -1.9086
 6004TIP3    H218019   2.589   0.792   1.685  0.0338 -0.3451  2.8990
 6005TIP3   OH218020   4.147   5.049   1.214  0.0332 -0.0911 -0.0597
 6005TIP3    H118021   4.115   4.960   1.201 -1.7432  0.2620  1.3743
 6005TIP3    H218022   4.149   5.088   1.127  0.6472 -1.4465 -0.6781
 6006TIP3   OH218023   4.880   5.531   3.843 -0.1282  0.4280 -0.1369
 6006TIP3    H118024   4.892   5.613   3.890 -0.5168  0.1003  0.5581
 6006TIP3    H218025   4.935   5.468   3.890  0.2626  0.3077 -0.7368
 6007TIP3   OH218026   1.785   5.316   3.336 -0.1853 -0.0370  0.6540
 6007TIP3    H118027   1.750   5.313   3.425  0.3610 -0.1075  0.8719
 6007TIP3    H218028   1.830   5.400   3.330  1.5208 -0.8859  1.1277
 6008TIP3   OH218029   1.509   3.354   4.127  0.4858 -0.5104 -0.4845
 6008TIP3    H118030   1.569   3.421   4.094  2.6225 -2.8961 -1.7924
 6008TIP3    H218031   1.433   3.359   4.069 -0.2143  1.8370  0.5115
 6009TIP3   OH218032   4.897   4.009   1.451 -0.4385 -0.3670 -0.3886
 6009TIP3    H118033   4.970   3.967   1.496 -0.1887  0.5571  0.0985
 6009TIP3    H218034   4.917   3.997   1.358 -0.4701 -1.4595 -0.2721
 6010TIP3   OH218035   2.894   4.735   2.308 -0.5218 -0.2048 -0.7689
 6010TIP3    H118036   2.962   4.730   2.374 -0.7837 -0.5140 -0.5211
 6010TIP3    H218037   2.887   4.828   2.287  0.4670 -0.2441 -1.3104
 6011TIP3   OH218038   4.098   0.172   4.518  0.0224  0.2911  0.4701
 6011TIP3    H118039   4.104   0.115   4.595 -1.2607  0.0437  0.4112
 6011TIP3    H218040   4.146   0.125   4.450  0.0482 -0.1197  0.7674
 6012TIP3   OH218041   0.923   2.025   0.098  0.8340 -0.4596 -0.0701
 6012TIP3    H118042   0.996   1.968   0.073  0.2977 -0.2971 -2.2508
 6012TIP3    H218043   0.877   1.977   0.167  0.0278 -3.0947 -2.2422
 6013TIP3   OH218044   0.143   2.320   0.523  0.1943  0.2174  0.5768
 6013TIP3    H118045   0.070   2.359   0.475  1.4599  2.3557  0.2323
 6013TIP3    H218046   0.173   2.249   0.467  0.1706  1.1826 -0.7128
 6014TIP3   OH218047   2.186   4.374   3.775  0.0539  1.0861 -0.1284
 6014TIP3    H118048   2.213   4.461   3.746  0.1927  0.8855 -0.6123
 6014TIP3    H218049   2.151   4.387   3.863  2.6609  1.2143  0.9829
 6015TIP3   OH218050   0.151   2.507   3.126  0.2202  0.1073 -0.1784
 6015TIP3    H118051   0.079   2.560   3.160  1.0665  0.9593  0.3409
 6015TIP3    H218052   0.186   2.461   3.203  1.2446  0.9472 -0.1239
 6016TIP3   OH218053   1.785   4.290   1.231 -0.5258 -0.2096 -0.0110
 6016TIP3    H118054   1.774   4.345   1.308 -1.1707  2.1860 -1.7157
 6016TIP3    H218055   1.877   4.261   1.235 -0.3567  0.4297  1.2499
 6017TIP3   OH218056   2.171   1.478   3.618  0.1249  0.3887  0.1848
 6017TIP3    H118057   2.261   1.508   3.631  0.1229  1.1267 -1.2962
 6017TIP3    H218058   2.123   1.556   3.591 -0.2154 -0.5778 -2.2911
 6018TIP3   OH218059   5.228   2.496   1.248  0.3167  0.7710  0.5472
 6018TIP3    H118060   5.266   2.492   1.160 -1.2114  0.4163 -0.1235
 6018TIP3    H218061   5.156   2.559   1.240  0.6415  1.3369  1.7576
 6019TIP3   OH218062   3.530   5.478   5.130  0.1552 -0.1065  0.6107
 6019TIP3    H118063   3.497   5.402   5.083  3.1072 -0.9837 -0.3081
 6019TIP3    H218064   3.605   5.508   5.077  2.5660 -0.0171  3.7697
 6020TIP3   OH218065   5.797   3.425   2.790 -0.4551  0.3708  0.4568
 6020TIP3    H118066   5.821   3.429   2.883  1.1573 -1.0558  0.1579
 6020TIP3    H218067   5.814   3.514   2.757  4.2040 -0.2629  0.4355
 6021TIP3   OH218068   2.355   3.657   1.193 -0.2398  0.5506  0.4126
 6021TIP3    H118069   2.383   3.599   1.122  0.5259 -0.8371  1.8014
 6021TIP3    H218070   2.428   3.717   1.206 -0.0916  0.3526  0.4921
 6022TIP3   OH218071   0.383   2.412   1.609 -0.4317 -0.4218  0.2126
 6022TIP3    H118072   0.325   2.480   1.575 -0.7468 -1.3493 -1.1484
 6022TIP3    H218073   0.439   2.388   1.535  3.6039  2.2386  2.0034
 6023TIP3   OH218074   1.943   1.950   1.776 -0.2497  0.1384  0.1611
 6023TIP3    H118075   2.015   1.929   1.836  1.0384 -0.9168 -1.6374
 6023TIP3    H218076   1.930   2.044   1.786  1.8107  0.4726  0.1233
 6024TIP3   OH218077   2.601   2.428   1.741  0.0465 -0.3216 -0.5323
 6024TIP3    H118078   2.600   2.510   1.691 -0.4379  0.1751  0.2765
 6024TIP3    H218079   2.555   2.449   1.822 -0.6891 -1.5808 -0.6042
 6025TIP3   OH218080   6.304   0.921   1.259  0.0741 -0.4016 -0.4869
 6025TIP3    H118081   6.347   0.866   1.325 -0.8069  1.0011  1.3518
 6025TIP3    H218082   6.249   0.860   1.210 -0.5481 -1.2897  1.2078
 6026TIP3   OH218083   3.205   3.814   3.728 -0.1714 -0.0989  0.4607
 6026TIP3    H118084   3.191   3.891   3.783  0.6604  0.5484 -0.1869
 6026TIP3    H218085   3.139   3.751   3.756 -1.4172  1.1582  0.4423
 6027TIP3   OH218086   5.997   5.790   4.066 -0.7606  0.8385 -0.4957
 6027TIP3    H118087   6.079   5.832   4.090 -1.0745  1.6104 -0.7361
 6027TIP3    H218088   6.022   5.704   4.033 -0.2387  0.1706  1.5458
 6028TIP3   OH218089   4.916   1.453   0.188 -0.0418 -0.4121  0.1182
 6028TIP3    H118090   4.890   1.362   0.206 -2.9172  0.7930  2.8820
 6028TIP3    H218091   4.872   1.475   0.107 -0.9650 -0.9183  0.4678
 6029TIP3   OH218092   1.167   1.144   1.775  0.3740  0.0345 -0.5225
 6029TIP3    H118093   1.192   1.224   1.821  0.3180 -1.3361  2.1337
 6029TIP3    H218094   1.152   1.171   1.685 -0.7391  3.2198  0.4836
 6030TIP3   OH218095   2.904   2.264   3.945 -0.4134 -0.0169 -0.1619
 6030TIP3    H118096   2.971   2.324   3.979 -0.0399  0.7288 -2.0582
 6030TIP3    H218097   2.953   2.188   3.915 -0.8952 -1.4092  2.3059
 6031TIP3   OH218098   6.175   2.410   1.420 -0.3530 -0.4455  0.4578
 6031TIP3    H118099   6.190   2.365   1.337  0.1844 -1.0025  0.8495
 6031TIP3    H218100   6.101   2.363   1.460 -1.9377  1.0622 -0.5797
 6032TIP3   OH218101   5.540   5.582   3.171  0.4375 -0.1636  0.5587
 6032TIP3    H118102   5.583   5.579   3.257 -2.3696 -0.2132  2.0612
 6032TIP3    H218103   5.494   5.666   3.170 -1.0603 -0.9571 -0.1125
 6033TIP3   OH218104   1.990   1.784   2.989 -0.1005  0.0175  0.2093
 6033TIP3    H118105   1.980   1.786   3.084 -1.5218  0.5588  0.0747
 6033TIP3    H218106   2.007   1.875   2.965  0.9776 -0.2250 -0.0127
 6034TIP3   OH218107   2.083   4.595   1.178 -0.3702 -0.8766  0.5828
 6034TIP3    H118108   2.070   4.672   1.122  0.0885 -0.2088  1.3813
 6034TIP3    H218109   2.137   4.536   1.125  0.7364  0.0795  0.6061
 6035TIP3   OH218110   3.366   1.144   4.911 -0.0990  0.0152 -0.3626
 6035TIP3    H118111   3.347   1.235   4.887  2.1313  1.1641  1.7996
 6035TIP3    H218112   3.363   1.143   5.007  1.3816 -1.8040 -0.2751
 6036TIP3   OH218113   3.625   1.358   2.748 -0.5393 -0.1492 -0.5816
 6036TIP3    H118114   3.617   1.435   2.691 -1.4321  1.9288  2.1068
 6036TIP3    H218115   3.553   1.301   2.723 -2.3219  1.7749 -0.1062
 6037TIP3   OH218116   4.183   2.445   3.640 -0.5255  0.4177 -0.2523
 6037TIP3    H118117   4.188   2.413   3.550 -0.6556 -1.7165  0.4334
 6037TIP3    H218118   4.140   2.530   3.634 -3.2597 -0.9631 -1.9583
 6038TIP3   OH218119   0.165   3.160   2.618 -0.3732  0.7579 -0.3104
 6038TIP3    H118120   0.131   3.174   2.530 -1.2624 -1.4624 -0.3674
 6038TIP3    H218121   0.099   3.198   2.676  0.2022  2.2017 -0.5759
 6039TIP3   OH218122   1.470   0.027   2.830 -0.2419  0.2063  0.1955
 6039TIP3    H118123   1.565   0.034   2.835 -0.0829 -1.7086  0.8296
 6039TIP3    H218124   1.440   0.029   2.921 -0.3731 -3.0983  0.3458
 6040TIP3   OH218125   4.011   2.773   1.192  0.2602 -0.2073 -0.4941
 6040TIP3    H118126   4.104   2.787   1.211  0.5306 -0.5975 -1.4964
 6040TIP3    H218127   4.000   2.678   1.199 -0.0437 -0.1697 -0.4732
 6041TIP3   OH218128   2.989   5.274   3.526 -0.3597 -0.0048  0.2424
 6041TIP3    H118129   3.057   5.223   3.571  0.9938 -0.3485 -2.0414
 6041TIP3    H218130   3.027   5.294   3.440 -3.4022 -0.7935 -1.4255
 6042TIP3   OH218131   2.227   3.597   0.221  0.2888  0.0544  0.2936
 6042TIP3    H118132   2.158   3.628   0.279 -0.7711  0.6656 -1.2229
 6042TIP3    H218133   2.297   3.567   0.279 -1.0291 -0.0696  1.8596
 6043TIP3   OH218134   1.501   0.972   4.668 -0.1731  0.1172  0.3172
 6043TIP3    H118135   1.528   0.999   4.581  0.8354 -1.5376  0.0692
 6043TIP3    H218136   1.407   0.991   4.672 -0.0744  0.9252 -0.8173
 6044TIP3   OH218137   4.459   3.958   3.698 -0.2257 -0.4985 -0.0281
 6044TIP3    H118138   4.395   3.926   3.635 -0.8520 -0.4154  0.5492
 6044TIP3    H218139   4.426   4.043   3.725  0.7084  0.0358 -0.5253
 6045TIP3   OH218140   0.819   0.594   1.019 -0.0242  0.1637 -0.8201
 6045TIP3    H118141   0.880   0.656   0.979 -0.1719  0.4038 -0.6779
 6045TIP3    H218142   0.850   0.508   0.991  1.0489  0.2122  0.1620
 6046TIP3   OH218143   6.162   4.215   3.934 -0.1845 -0.3162  0.1210
 6046TIP3    H118144   6.091   4.151   3.943 -0.2865 -0.1792  0.2792
 6046TIP3    H218145   6.118   4.298   3.920 -0.0499 -0.3726 -0.7322
 6047TIP3   OH218146   2.188   0.235   0.997 -0.0536  0.2104 -0.0626
 6047TIP3    H118147   2.166   0.328   0.986  1.1027  0.3372 -1.6116
 6047TIP3    H218148   2.240   0.213   0.920  0.1278 -1.6117  0.5258
 6048TIP3   OH218149   4.262   0.719   3.402 -0.3730 -0.2078 -0.0214
 6048TIP3    H118150   4.273   0.625   3.420 -1.1486  0.0903  2.2371
 6048TIP3    H218151   4.280   0.762   3.485 -1.2923  1.5666 -0.6955
 6049TIP3   OH218152   1.248   3.505   0.437  0.4848 -0.1687  0.2001
 6049TIP3    H118153   1.186   3.452   0.386 -0.4276  0.1666  0.9214
 6049TIP3    H218154   1.242   3.593   0.399  0.7357 -0.2019  0.0844
 6050TIP3   OH218155   0.866   4.806   2.282 -0.3954 -0.5622  0.3078
 6050TIP3    H118156   0.832   4.819   2.370 -0.5285 -0.1521  0.1959
 6050TIP3    H218157   0.791   4.775   2.231 -0.5497  0.1032  0.1203
 6051TIP3   OH218158   0.692   1.844  -0.011  0.5452 -0.2760 -0.1860
 6051TIP3    H118159   0.785   1.845  -0.032  1.2948 -0.4553  2.7621
 6051TIP3    H218160   0.686   1.877   0.079 -2.5394  2.2748 -1.1301
 6052TIP3   OH218161   2.656   2.389   0.715  0.4333  0.0961 -0.6560
 6052TIP3    H118162   2.703   2.443   0.779  2.1277 -0.9498 -0.9444
 6052TIP3    H218163   2.568   2.426   0.713  1.4050  2.6898 -0.6458
 6053TIP3   OH218164   0.001   5.337   1.442 -0.2367 -0.2981  0.4536
 6053TIP3    H118165   0.060   5.376   1.507 -0.2360  0.1656  0.1842
 6053TIP3    H218166   0.056   5.276   1.393 -0.3935 -1.1337  1.3082
 6054TIP3   OH218167   5.040   3.531   1.580  0.0548  0.0870  0.1857
 6054TIP3    H118168   5.045   3.443   1.542 -0.6848 -0.0898  0.4839
 6054TIP3    H218169   4.962   3.570   1.541 -0.8555 -0.1822  1.6643
 6055TIP3   OH218170   3.998   0.462   0.574  0.2247  0.7982  0.0104
 6055TIP3    H118171   3.975   0.389   0.518  1.1186  0.0076  0.6336
 6055TIP3    H218172   3.956   0.443   0.658  0.5212  0.9558  0.1967
 6056TIP3   OH218173   3.662   1.202   1.561 -0.1841  0.3342  0.0642
 6056TIP3    H118174   3.707   1.162   1.635  0.2138  2.1047  0.8451
 6056TIP3    H218175   3.705   1.164   1.484  0.7204 -0.1191  0.7630
 6057TIP3   OH218176   2.842   3.991   2.584  0.0065 -0.9523 -0.2333
 6057TIP3    H118177   2.885   4.073   2.608 -0.7616 -0.4715 -0.4950
 6057TIP3    H218178   2.773   4.016   2.524 -1.7513 -1.4913  1.4430
 6058TIP3   OH218179   3.985   3.462   0.900 -0.0047 -0.3237 -0.4224
 6058TIP3    H118180   3.912   3.472   0.839 -0.0596 -1.7643 -0.6390
 6058TIP3    H218181   3.952   3.495   0.984 -0.4779  0.1791 -0.8083
 6059TIP3   OH218182   5.038   4.195   3.289 -0.4644  0.0623 -0.1225
 6059TIP3    H118183   5.036   4.105   3.255  1.1163  0.3654 -1.1020
 6059TIP3    H218184   5.056   4.249   3.213 -1.5852  1.2620  0.4322
 6060TIP3   OH218185   3.471   2.990   4.002 -0.4126 -0.0437 -0.6941
 6060TIP3    H118186   3.535   2.940   4.052 -0.2226 -0.2938 -1.1845
 6060TIP3    H218187   3.392   2.935   4.003 -1.2469  1.0567  1.4618
 6061TIP3   OH218188   3.719   5.799   5.078 -0.2237 -0.0650  0.1551
 6061TIP3    H118189   3.725   5.786   5.172 -0.6291 -2.2423 -0.0675
 6061TIP3    H218190   3.728   5.711   5.041  0.5743  0.8093 -1.8801
 6062TIP3   OH218191   1.532   5.547   0.738  0.2484 -0.2815  0.0627
 6062TIP3    H118192   1.437   5.548   0.752  0.3332  0.7629  0.6246
 6062TIP3    H218193   1.549   5.460   0.703 -0.5654 -1.5439  2.5595
 6063TIP3   OH218194   0.629   2.990   4.553 -0.0568 -0.3310 -0.2373
 6063TIP3    H118195   0.579   3.071   4.565 -0.2250 -0.3633 -0.7099
 6063TIP3    H218196   0.573   2.934   4.500 -0.0548 -0.8680  0.3149
 6064TIP3   OH218197   5.434   2.567   0.491  0.2055  0.1613  0.1165
 6064TIP3    H118198   5.374   2.510   0.444 -0.5134  1.7859 -1.0433
 6064TIP3    H218199   5.432   2.536   0.582  0.3105 -1.9778 -0.5684
 6065TIP3   OH218200   2.422   1.413   3.370  0.2739  0.1367  0.1888
 6065TIP3    H118201   2.432   1.323   3.398  1.0618 -0.0517 -0.6436
 6065TIP3    H218202   2.358   1.451   3.431  0.0742 -0.9210  0.6517
 6066TIP3   OH218203   3.888   2.701   5.062  0.6017  0.3178  0.3462
 6066TIP3    H118204   3.853   2.783   5.028  1.5489  0.5621 -0.0698
 6066TIP3    H218205   3.939   2.665   4.990 -1.1859 -1.5209 -0.0816
 6067TIP3   OH218206   3.468   4.910   3.540 -0.0060 -0.4383 -0.3238
 6067TIP3    H118207   3.415   4.977   3.584  0.5219 -0.3789  0.2409
 6067TIP3    H218208   3.555   4.949   3.535  0.1279 -0.7845 -0.6864
 6068TIP3   OH218209   5.446   5.106   4.870  0.2728  0.1284 -0.2310
 6068TIP3    H118210   5.437   5.091   4.964 -1.5857 -1.5370 -0.6135
 6068TIP3    H218211   5.358   5.129   4.841  1.1909  2.5711 -1.3039
 6069TIP3   OH218212   1.339   0.362   1.142 -0.2101  0.3319 -0.0987
 6069TIP3    H118213   1.357   0.274   1.111  0.0165 -0.5104  2.2181
 6069TIP3    H218214   1.244   0.369   1.143 -0.2227  0.6195 -1.5069
 6070TIP3   OH218215   4.752   1.483   2.244 -0.4265 -0.3102 -0.6308
 6070TIP3    H118216   4.822   1.418   2.237 -0.0816 -0.0039 -0.1470
 6070TIP3    H218217   4.796   1.561   2.279 -0.9080  0.0578 -0.8372
 6071TIP3   OH218218   0.138   3.279   0.861  0.2776  0.9613 -0.3091
 6071TIP3    H118219   0.045   3.302   0.859 -0.0113  0.1127  1.3577
 6071TIP3    H218220   0.180   3.354   0.904 -0.0675  0.2275  1.3942
 6072TIP3   OH218221   1.983   5.592   2.856  0.0412 -0.3881 -0.1362
 6072TIP3    H118222   1.984   5.601   2.951 -0.7555  0.4280 -0.1992
 6072TIP3    H218223   1.933   5.668   2.824 -0.8593 -1.3567 -1.1241
 6073TIP3   OH218224   3.037   4.172   1.710  0.4070 -0.3870  0.1826
 6073TIP3    H118225   3.077   4.113   1.773  1.4728  0.8913  0.7462
 6073TIP3    H218226   3.098   4.245   1.703  0.3672 -0.5074 -2.3933
 6074TIP3   OH218227   4.427   5.363   2.819 -0.2293 -0.1309 -0.2783
 6074TIP3    H118228   4.437   5.329   2.908  0.1525  0.4817 -0.0766
 6074TIP3    H218229   4.352   5.422   2.824  0.1020  0.2919 -0.2375
 6075TIP3   OH218230   5.149   2.302   1.966 -0.3507 -0.1943  0.3916
 6075TIP3    H118231   5.109   2.218   1.943 -0.8041  0.2049 -0.3141
 6075TIP3    H218232   5.116   2.363   1.900 -0.3436  0.6264  1.1292
 6076TIP3   OH218233   1.181   4.427   3.652 -0.8468 -0.6822  0.4393
 6076TIP3    H118234   1.242   4.444   3.724 -0.5229  2.3617 -0.4300
 6076TIP3    H218235   1.238   4.417   3.575 -1.3268 -0.6875  0.0825
 6077TIP3   OH218236   2.115   2.215   0.474  0.2158 -0.5368 -0.0268
 6077TIP3    H118237   2.167   2.159   0.417 -1.2060 -0.8298 -1.1071
 6077TIP3    H218238   2.070   2.274   0.414  0.9173  1.1374  1.0185
 6078TIP3   OH218239   2.593   0.636   4.431  0.3500  0.0004  0.1179
 6078TIP3    H118240   2.548   0.720   4.441 -0.9424 -0.7010  0.3628
 6078TIP3    H218241   2.621   0.634   4.340  0.3605  0.6880  0.1034
 6079TIP3   OH218242   0.506   5.148   2.580  0.2964  0.3852  0.6019
 6079TIP3    H118243   0.443   5.099   2.527  0.2154  1.4769 -0.3517
 6079TIP3    H218244   0.516   5.231   2.534  0.4755  1.2542  2.1406
 6080TIP3   OH218245   1.761   3.907   2.677  0.2044  0.3030  0.0157
 6080TIP3    H118246   1.822   3.972   2.712  1.4713  0.5818 -2.4683
 6080TIP3    H218247   1.680   3.954   2.662  0.6068  0.9206 -0.2469
 6081TIP3   OH218248   0.895   2.840   0.536  0.1506  0.3518  0.3303
 6081TIP3    H118249   0.844   2.905   0.488  0.6234  0.2849 -0.2748
 6081TIP3    H218250   0.898   2.874   0.626 -0.9528  0.3495  0.3828
 6082TIP3   OH218251   0.532   4.054   3.157 -0.0586 -0.3032  0.1937
 6082TIP3    H118252   0.480   4.078   3.234  0.1236  2.0679 -0.3326
 6082TIP3    H218253   0.492   4.104   3.085  0.6426 -1.3660 -0.9680
 6083TIP3   OH218254   2.629   1.137   1.992  0.1870 -0.1794  0.2963
 6083TIP3    H118255   2.718   1.120   1.961  0.7966 -1.3148  2.5243
 6083TIP3    H218256   2.593   1.050   2.010 -1.1270  0.3094  0.1107
 6084TIP3   OH218257   4.803   0.584   1.001 -0.3443 -0.6588  0.6158
 6084TIP3    H118258   4.713   0.615   1.000 -0.7320 -1.7257  1.0780
 6084TIP3    H218259   4.851   0.650   1.051 -0.9182 -0.2350  0.6101
 6085TIP3   OH218260   0.257   5.824   2.442  0.5414  0.1750  0.3692
 6085TIP3    H118261   0.342   5.782   2.455  0.5051 -0.5791 -1.5386
 6085TIP3    H218262   0.264   5.906   2.491  2.1574 -0.1418  0.7409
 6086TIP3   OH218263   2.615   4.938   2.355  0.3356 -0.0686 -0.1450
 6086TIP3    H118264   2.704   4.903   2.351  0.3189 -0.1739  0.3648
 6086TIP3    H218265   2.621   5.024   2.314  0.6221 -0.1817 -0.3417
 6087TIP3   OH218266   6.228   4.270   2.600  0.1591  0.1532  0.0339
 6087TIP3    H118267   6.256   4.247   2.512 -0.5689  2.1826 -0.7784
 6087TIP3    H218268   6.308   4.296   2.645  0.4170 -0.0831 -0.2864
 6088TIP3   OH218269   0.464   3.543   0.714 -0.3922  0.5479  0.6254
 6088TIP3    H118270   0.464   3.636   0.689 -0.7560  0.4197  0.1149
 6088TIP3    H218271   0.553   3.526   0.745  0.3743  0.5420 -1.3724
 6089TIP3   OH218272   5.900   5.175   1.789  1.0434 -0.1377  0.1628
 6089TIP3    H118273   5.816   5.207   1.820  1.5622  1.3640  0.0809
 6089TIP3    H218274   5.921   5.229   1.713  1.8341 -0.8526 -0.1523
 6090TIP3   OH218275   3.563   2.834   2.299 -0.5660 -0.0855 -0.2894
 6090TIP3    H118276   3.597   2.802   2.382 -2.0093 -1.4409 -0.1680
 6090TIP3    H218277   3.641   2.856   2.248  0.3498  0.7914  1.3948
 6091TIP3   OH218278   5.239   1.939   2.867 -0.1678 -0.1379  0.0440
 6091TIP3    H118279   5.161   1.983   2.902  1.2494  1.5734  1.2380
 6091TIP3    H218280   5.264   1.877   2.935 -0.7272 -1.0422 -0.5518
 6092TIP3   OH218281   3.239   2.338   1.681  0.3614 -1.0443  0.5385
 6092TIP3    H118282   3.239   2.388   1.763 -0.4536 -1.5862  0.8883
 6092TIP3    H218283   3.165   2.278   1.690 -1.6718  0.8890 -1.8011
 6093TIP3   OH218284   3.930   0.623   4.987 -0.1122 -0.4843  0.0753
 6093TIP3    H118285   3.876   0.638   4.910 -1.9115 -0.9534  1.1786
 6093TIP3    H218286   3.908   0.534   5.015  0.8160 -0.4743  0.8937
 6094TIP3   OH218287   4.861   4.727   2.611  0.1979  0.2675 -0.0911
 6094TIP3    H118288   4.858   4.823   2.606  2.9399  0.5517  1.5027
 6094TIP3    H218289   4.866   4.698   2.520  0.0470  1.6727 -0.5750
 6095TIP3   OH218290   5.418   4.390   2.998 -0.0208  0.4516  0.3349
 6095TIP3    H118291   5.432   4.470   3.049  0.9409  0.3466  0.2569
 6095TIP3    H218292   5.459   4.321   3.051  0.1460  0.1911 -0.1339
 6096TIP3   OH218293   6.353   5.166   1.775  0.2418 -0.1315 -0.3134
 6096TIP3    H118294   6.413   5.114   1.722 -0.0719  1.4046 -2.2716
 6096TIP3    H218295   6.268   5.123   1.765  0.7035 -1.5493  1.4096
 6097TIP3   OH218296   0.076   0.533   0.091  0.1872 -0.0891 -0.4319
 6097TIP3    H118297   0.092   0.523   0.185  0.4235  0.4176 -0.4115
 6097TIP3    H218298  -0.004   0.483   0.074  1.8320 -2.8876 -0.5596
 6098TIP3   OH218299   2.787   3.003   2.768 -1.0255 -0.2071  0.2483
 6098TIP3    H118300   2.790   3.057   2.847 -0.1774 -0.1417  0.1840
 6098TIP3    H218301   2.829   3.056   2.701  0.4888 -1.1932  0.3551
 6099TIP3   OH218302   5.486   4.861   3.693  0.3712 -0.2941 -0.5162
 6099TIP3    H118303   5.510   4.785   3.745 -0.6485 -0.0051  0.4179
 6099TIP3    H218304   5.547   4.930   3.722 -0.7503  0.1139  0.9922
 6100TIP3   OH218305   1.943   1.706   4.142  0.1814  0.5205 -0.1539
 6100TIP3    H118306   1.980   1.646   4.077 -0.7763 -0.0741 -0.1685
 6100TIP3    H218307   1.898   1.649   4.204  1.3602  1.0489  1.2490
 6101TIP3   OH218308   3.719   3.784   2.964 -0.1218 -0.0270  0.1521
 6101TIP3    H118309   3.654   3.713   2.961 -1.4644  1.1837 -2.0756
 6101TIP3    H218310   3.803   3.739   2.975 -0.9732 -1.9234 -0.6062
 6102TIP3   OH218311   5.012   4.217   1.182  0.1040  0.0831 -0.2019
 6102TIP3    H118312   5.020   4.175   1.097 -0.3439  0.7996 -0.6101
 6102TIP3    H218313   5.096   4.199   1.226  0.0767 -0.8721 -0.5121
 6103TIP3   OH218314   0.372   1.622   1.158  0.6493 -0.3315  0.5278
 6103TIP3    H118315   0.362   1.718   1.160 -0.8049 -0.4599  0.6382
 6103TIP3    H218316   0.423   1.602   1.236  1.3828  0.3862  0.2530
 6104TIP3   OH218317   0.060   1.613   1.350 -0.2520 -0.1123  0.2283
 6104TIP3    H118318   0.048   1.614   1.444  1.4659 -0.2119  0.4909
 6104TIP3    H218319   0.030   1.699   1.321  0.7024  0.5508  1.1143
 6105TIP3   OH218320   4.869   0.142   1.710 -0.2685  0.3612  0.4816
 6105TIP3    H118321   4.867   0.233   1.680  2.5564  0.8546  1.5694
 6105TIP3    H218322   4.961   0.117   1.708 -1.0201 -2.8753 -0.7470
 6106TIP3   OH218323   6.372   3.771   2.168  0.0108  0.0626  0.1047
 6106TIP3    H118324   6.393   3.705   2.102  0.1289 -0.9933  1.1594
 6106TIP3    H218325   6.276   3.778   2.166  0.0712  0.7348 -0.8193
 6107TIP3   OH218326   2.475   5.591   5.148  0.0371  0.0468 -0.2685
 6107TIP3    H118327   2.390   5.566   5.110 -1.0495  2.7448  0.2120
 6107TIP3    H218328   2.536   5.584   5.075 -1.3528  1.6921 -1.6854
 6108TIP3   OH218329   5.653   4.472   4.260  0.2597 -0.0151 -0.0832
 6108TIP3    H118330   5.602   4.488   4.180 -0.5344 -1.2367  0.1527
 6108TIP3    H218331   5.614   4.393   4.297  2.3011 -0.9508  0.1565
 6109TIP3   OH218332   4.468   1.276   0.364 -0.5250  0.3417 -0.5705
 6109TIP3    H118333   4.537   1.264   0.299 -0.9131  0.8551 -1.0865
 6109TIP3    H218334   4.510   1.322   0.437 -0.1475 -0.0252 -0.5506
 6110TIP3   OH218335   4.301   4.059   1.892  0.0265  0.2454  0.1620
 6110TIP3    H118336   4.307   3.964   1.903 -1.1429  0.1219 -0.0500
 6110TIP3    H218337   4.275   4.091   1.979  1.1000  0.4539  0.4114
 6111TIP3   OH218338   2.742   5.701   3.740  0.4469  0.2209 -0.5169
 6111TIP3    H118339   2.752   5.759   3.664 -1.0765 -0.7656 -1.5388
 6111TIP3    H218340   2.706   5.620   3.703 -1.4054  0.0990  1.3970
 6112TIP3   OH218341   1.143   5.751   0.016 -0.3538 -0.3066 -0.2551
 6112TIP3    H118342   1.098   5.693   0.078  1.9560 -1.7490  0.2053
 6112TIP3    H218343   1.150   5.699  -0.064 -1.7008  0.8751 -1.1951
 6113TIP3   OH218344   1.292   5.327   5.019 -0.8870 -0.3812  0.1602
 6113TIP3    H118345   1.200   5.311   5.000 -0.3944 -1.5872 -1.4929
 6113TIP3    H218346   1.339   5.287   4.945  0.8776  2.0552 -0.1526
 6114TIP3   OH218347   3.108   2.956   1.073 -0.4926 -0.3403 -0.2584
 6114TIP3    H118348   3.041   3.015   1.039  0.8876  0.5606 -1.5361
 6114TIP3    H218349   3.186   3.011   1.080  0.1831 -1.4218  0.9665
 6115TIP3   OH218350   1.229   5.474   3.590 -0.1194  0.1648 -0.3626
 6115TIP3    H118351   1.168   5.548   3.585 -0.1114  0.2177  0.2916
 6115TIP3    H218352   1.229   5.437   3.502  2.0023  2.6028 -1.4983
 6116TIP3   OH218353   3.773   1.467   0.210  0.6996 -0.2310 -0.5774
 6116TIP3    H118354   3.693   1.422   0.236  0.7817 -1.4244 -2.2951
 6116TIP3    H218355   3.776   1.459   0.115  2.1917  0.9432 -0.6661
 6117TIP3   OH218356   4.714   1.217   1.534  0.4663 -0.4307 -0.1244
 6117TIP3    H118357   4.666   1.199   1.454 -0.3593 -1.1817  0.5129
 6117TIP3    H218358   4.788   1.156   1.533  1.5610  0.8631 -1.2024
 6118TIP3   OH218359   3.810   0.709   0.981  0.1641  0.2112 -0.1434
 6118TIP3    H118360   3.815   0.625   0.934  1.2488  0.3860 -0.3571
 6118TIP3    H218361   3.783   0.684   1.070 -0.8168 -0.2292 -0.5553
 6119TIP3   OH218362   1.026   0.612   2.469 -0.2800  1.0945  0.7745
 6119TIP3    H118363   1.009   0.532   2.520 -1.2432 -0.7384 -2.1635
 6119TIP3    H218364   1.114   0.638   2.496  0.5527 -1.6584  1.0840
 6120TIP3   OH218365   2.569   3.613   0.650  0.5736 -0.6650  0.0735
 6120TIP3    H118366   2.545   3.704   0.665 -0.5822 -1.0151  0.4683
 6120TIP3    H218367   2.536   3.566   0.726 -0.1256 -1.6229 -0.7920
 6121TIP3   OH218368   1.257   1.317   3.164 -0.1269 -0.1049 -0.1937
 6121TIP3    H118369   1.353   1.309   3.165  0.0895  2.0408 -0.4980
 6121TIP3    H218370   1.240   1.402   3.123 -2.1792 -0.4271 -0.1141
 6122TIP3   OH218371   4.266   3.896   3.531  0.1099 -0.1948 -0.0071
 6122TIP3    H118372   4.212   3.853   3.465 -1.3936  4.3709 -2.1819
 6122TIP3    H218373   4.203   3.926   3.597  0.7259  0.4449  0.3027
 6123TIP3   OH218374   1.904   1.812   1.333  0.4976  0.0995  0.2043
 6123TIP3    H118375   1.986   1.856   1.356 -0.5668  1.9265  0.6961
 6123TIP3    H218376   1.888   1.751   1.406  0.3616  1.2699  1.1786
 6124TIP3   OH218377   3.248   1.834   4.867 -0.3422 -0.2058  0.4090
 6124TIP3    H118378   3.299   1.754   4.855  1.6364  0.9408  0.6884
 6124TIP3    H218379   3.232   1.839   4.961  0.0423  0.0178  0.4631
 6125TIP3   OH218380   2.019   0.666   3.579 -0.2097 -0.2021 -0.0765
 6125TIP3    H118381   2.000   0.574   3.599 -1.1031 -0.1271 -0.5236
 6125TIP3    H218382   2.079   0.663   3.505  0.5558 -0.4335  0.5438
 6126TIP3   OH218383   3.605   4.817   3.928 -0.0774 -0.5451 -0.1972
 6126TIP3    H118384   3.620   4.812   4.023 -0.1504 -0.6944 -0.1922
 6126TIP3    H218385   3.669   4.756   3.891 -1.2565 -1.9045 -0.1099
 6127TIP3   OH218386   0.605   2.348   1.095 -0.2497  0.3576 -0.1835
 6127TIP3    H118387   0.514   2.323   1.080  0.0058  0.3220 -1.8485
 6127TIP3    H218388   0.650   2.323   1.015  0.9095  1.9110 -0.0533
 6128TIP3   OH218389   1.870   1.685   2.685 -0.1109  0.4960 -0.0013
 6128TIP3    H118390   1.924   1.661   2.610 -1.2425 -2.1324 -0.0789
 6128TIP3    H218391   1.931   1.689   2.758  0.2326 -3.7734  0.2026
 6129TIP3   OH218392   1.383   2.146   4.446 -0.4623  0.3709  0.1236
 6129TIP3    H118393   1.435   2.066   4.452 -0.7666  0.1741  0.1575
 6129TIP3    H218394   1.310   2.124   4.389 -0.8798  0.4366  0.6180
 6130TIP3   OH218395   1.279   5.407   1.258  0.3841  0.3258  0.2219
 6130TIP3    H118396   1.318   5.493   1.245 -1.6845  1.6099  1.8014
 6130TIP3    H218397   1.224   5.393   1.181  0.8812  0.3258 -0.1328
 6131TIP3   OH218398   2.700   2.693   5.122  0.0890 -0.1498  0.0819
 6131TIP3    H118399   2.623   2.636   5.114 -0.4172  0.0503  2.6531
 6131TIP3    H218400   2.675   2.773   5.076 -0.5047 -0.7737 -0.7048
 6132TIP3   OH218401   2.528   2.114   3.967  0.1450 -0.1825  0.7899
 6132TIP3    H118402   2.513   2.187   3.907  0.5618 -2.8291 -2.8671
 6132TIP3    H218403   2.589   2.148   4.032  0.3824  2.6768 -0.7837
 6133TIP3   OH218404   2.401   5.668   4.201  0.0424  1.2791 -0.1360
 6133TIP3    H118405   2.361   5.586   4.230  0.0640  1.2802 -0.1031
 6133TIP3    H218406   2.374   5.678   4.110  1.4025  0.3719 -0.6727
 6134TIP3   OH218407   1.042   4.167   5.032  0.9294 -0.2857  0.5911
 6134TIP3    H118408   1.015   4.205   4.948 -1.5546 -1.3342  0.8058
 6134TIP3    H218409   1.044   4.073   5.016  3.3269 -0.3714  1.0175
 6135TIP3   OH218410   0.069   5.838   1.712 -0.4271  0.8064  0.0833
 6135TIP3    H118411   0.060   5.920   1.665 -1.7307 -0.6791 -2.4535
 6135TIP3    H218412  -0.018   5.819   1.745  0.0158  0.7399  1.2629
 6136TIP3   OH218413   0.197   1.558   4.587 -0.3492 -0.5906  0.0672
 6136TIP3    H118414   0.190   1.568   4.492  1.1978  1.3466  0.1095
 6136TIP3    H218415   0.115   1.514   4.612  0.1172 -3.1261 -2.3685
 6137TIP3   OH218416   5.319   3.964   3.790  0.7708 -0.3485 -0.2586
 6137TIP3    H118417   5.322   4.012   3.708  1.2531  0.0935  0.0146
 6137TIP3    H218418   5.402   3.916   3.794  0.7246 -0.4156 -0.0588
 6138TIP3   OH218419   3.406   5.261   3.099  0.2990  0.9650  0.4949
 6138TIP3    H118420   3.426   5.190   3.160  0.9869  1.8737  1.3598
 6138TIP3    H218421   3.488   5.277   3.054 -0.3683 -0.1612 -1.2290
 6139TIP3   OH218422   5.530   5.013   3.007 -0.1811  0.3359  0.1572
 6139TIP3    H118423   5.521   4.982   3.097  1.3548  0.7092  0.4634
 6139TIP3    H218424   5.443   5.046   2.984 -1.0792 -1.4342  0.8487
 6140TIP3   OH218425   5.135   3.567   2.570 -0.3433 -0.1808  0.0783
 6140TIP3    H118426   5.212   3.559   2.514  1.2435 -0.0548  2.1069
 6140TIP3    H218427   5.160   3.522   2.651 -3.4307 -2.5467 -0.0862
 6141TIP3   OH218428   2.196   1.360   1.726 -0.4066 -0.1146 -0.4121
 6141TIP3    H118429   2.141   1.324   1.657 -1.1593  0.5453 -0.1673
 6141TIP3    H218430   2.246   1.429   1.682 -2.8534  2.2139  0.1926
 6142TIP3   OH218431   3.078   4.797   0.958 -0.1282 -0.1733  0.3443
 6142TIP3    H118432   3.056   4.857   1.030 -0.9241 -0.2536  0.1759
 6142TIP3    H218433   3.100   4.854   0.885 -0.8822 -0.0790  0.1854
 6143TIP3   OH218434   1.677   1.424   1.956 -0.2931  0.4900  0.3559
 6143TIP3    H118435   1.772   1.418   1.945 -0.2679 -0.3473  0.9373
 6143TIP3    H218436   1.644   1.336   1.935 -0.8410  0.5240  1.0273
 6144TIP3   OH218437   4.961   1.598   1.692 -0.4288 -0.4700 -0.2247
 6144TIP3    H118438   4.876   1.567   1.662  0.0289  0.1363 -2.3556
 6144TIP3    H218439   5.021   1.525   1.674 -0.0142  0.1794 -1.6393
 6145TIP3   OH218440   2.721   5.171   1.230  0.4694  0.1787 -0.3609
 6145TIP3    H118441   2.718   5.099   1.294  0.3386  0.8749  0.4245
 6145TIP3    H218442   2.807   5.210   1.241  1.3416 -1.0748 -2.1793
 6146TIP3   OH218443   6.094   2.336   4.788  0.3330 -0.1066  0.1960
 6146TIP3    H118444   6.078   2.408   4.728 -1.6862 -0.1244  0.6455
 6146TIP3    H218445   6.011   2.290   4.793  1.1038 -1.4520  1.2528
 6147TIP3   OH218446   6.249   2.112   1.972 -0.6274  0.7453  0.4067
 6147TIP3    H118447   6.220   2.024   1.994  0.4504  0.1286 -0.5351
 6147TIP3    H218448   6.323   2.129   2.031 -1.0581  1.1817  0.8364
 6148TIP3   OH218449   2.080   3.027   4.513  0.4388  0.6747 -0.4997
 6148TIP3    H118450   1.994   3.061   4.489  0.1676 -0.5265 -1.3341
 6148TIP3    H218451   2.062   2.963   4.582  0.6842  0.5135 -0.5847
 6149TIP3   OH218452   4.845   2.193   4.896 -0.5227  0.3464  0.7176
 6149TIP3    H118453   4.763   2.152   4.868 -0.5178  1.6175 -1.3232
 6149TIP3    H218454   4.894   2.121   4.937 -2.2612 -0.6407  1.1750
 6150TIP3   OH218455   4.058   4.055   2.207 -0.5929 -0.2439  0.1506
 6150TIP3    H118456   4.139   4.004   2.207  0.9431  1.9737 -1.8245
 6150TIP3    H218457   4.042   4.075   2.299  0.1183 -2.1351  0.7325
 6151TIP3   OH218458   3.976   0.963   4.858  0.3744  0.1254 -0.5858
 6151TIP3    H118459   3.986   0.921   4.943  1.3673  0.0955 -0.7107
 6151TIP3    H218460   4.012   0.899   4.796  0.3380  0.4602 -0.9507
 6152TIP3   OH218461   2.348   4.541   2.409 -0.0761  0.2185 -0.6860
 6152TIP3    H118462   2.414   4.492   2.360  0.1921 -0.2604  0.1342
 6152TIP3    H218463   2.395   4.618   2.442  0.4988 -0.8190  1.0867
 6153TIP3   OH218464   3.647   4.100   4.000 -0.8920 -0.2779  0.3013
 6153TIP3    H118465   3.631   4.015   4.040 -0.8438  0.4223  1.8965
 6153TIP3    H218466   3.646   4.162   4.074 -2.4062  1.3100 -0.9462
 6154TIP3   OH218467   3.631   0.192   1.085 -0.0241  0.2685 -0.0218
 6154TIP3    H118468   3.683   0.113   1.098  0.2540  0.6256  1.1304
 6154TIP3    H218469   3.588   0.206   1.170 -0.1233  1.3139 -0.2388
 6155TIP3   OH218470   4.317   3.165   0.032  0.1330  0.8066  0.1592
 6155TIP3    H118471   4.289   3.257   0.035  0.6528  1.0570 -1.5700
 6155TIP3    H218472   4.398   3.163   0.084 -0.4123  1.1000  1.0412
 6156TIP3   OH218473   3.110   3.760   0.147  0.0673  0.2609  0.2580
 6156TIP3    H118474   3.161   3.695   0.098  1.8020  0.0536  2.2049
 6156TIP3    H218475   3.066   3.709   0.216  0.1817  0.9417  0.8406
 6157TIP3   OH218476   2.450   5.847   4.697  0.1439  0.2572  0.1553
 6157TIP3    H118477   2.447   5.836   4.792  0.6489 -0.5161  0.0960
 6157TIP3    H218478   2.387   5.783   4.664  0.7049 -0.1946 -0.0642
 6158TIP3   OH218479   2.382   1.011   4.656  0.7677 -0.2207 -0.7034
 6158TIP3    H118480   2.366   0.917   4.646  1.6554 -0.3972 -0.4704
 6158TIP3    H218481   2.451   1.018   4.722  0.0447  0.6397 -0.0025
 6159TIP3   OH218482   4.036   4.708   0.592 -0.9111 -0.2892  0.2795
 6159TIP3    H118483   4.076   4.749   0.515 -2.5539  0.5889 -0.1321
 6159TIP3    H218484   4.108   4.658   0.632  0.6473  1.3594 -0.3344
 6160TIP3   OH218485   3.149   0.973   0.238  0.0636  0.3470  0.0470
 6160TIP3    H118486   3.194   0.957   0.155  0.9251  4.5356 -0.4815
 6160TIP3    H218487   3.215   0.952   0.304  1.1664  1.7802 -0.5579
 6161TIP3   OH218488   4.793   4.746   3.321 -0.0505  0.2569  0.5927
 6161TIP3    H118489   4.882   4.719   3.300 -0.3365 -0.8170  0.7298
 6161TIP3    H218490   4.796   4.842   3.317  1.2783  0.2751  1.2709
 6162TIP3   OH218491   0.482   0.286   2.196  0.4978  0.0702 -0.1097
 6162TIP3    H118492   0.445   0.231   2.266 -0.2497  0.8413  0.1247
 6162TIP3    H218493   0.568   0.249   2.179  0.0810 -1.0603  0.1638
 6163TIP3   OH218494   4.411   4.925   3.198 -0.1972  0.2877  0.3404
 6163TIP3    H118495   4.411   4.910   3.293  0.3494 -1.3546  0.1093
 6163TIP3    H218496   4.341   4.988   3.184 -1.6798 -1.0031  1.6194
 6164TIP3   OH218497   0.025   1.834   0.996 -0.5469  0.0946 -0.4216
 6164TIP3    H118498  -0.007   1.828   1.086 -3.7794  2.8413 -1.1652
 6164TIP3    H218499   0.084   1.910   0.997 -0.6959  0.2156 -0.6236
 6165TIP3   OH218500   6.118   5.437   1.585  0.3197  0.1320  1.3208
 6165TIP3    H118501   6.122   5.530   1.607  0.2073  0.3274  0.5159
 6165TIP3    H218502   6.197   5.421   1.534 -0.7159  0.2893 -0.4009
 6166TIP3   OH218503   3.534   4.428   1.433  0.6021 -0.0490 -0.2667
 6166TIP3    H118504   3.491   4.346   1.457 -0.9912  1.1084  1.0833
 6166TIP3    H218505   3.577   4.457   1.514 -1.0793  1.6833  0.1149
 6167TIP3   OH218506   2.093   2.899   4.952  0.0115  0.0912 -0.5120
 6167TIP3    H118507   2.080   2.920   5.044  2.8034  1.1668 -0.2366
 6167TIP3    H218508   2.030   2.830   4.933 -0.3434 -0.4954  2.3319
 6168TIP3   OH218509   4.948   1.879   2.649 -0.0938 -0.2673 -0.4829
 6168TIP3    H118510   5.009   1.949   2.627 -0.0487 -0.5798 -1.4132
 6168TIP3    H218511   4.871   1.924   2.684 -0.0941  0.2568 -1.1380
 6169TIP3   OH218512   1.539   4.261   3.691  0.2158  0.4259  0.1889
 6169TIP3    H118513   1.622   4.277   3.647  0.0830 -0.3100 -0.3526
 6169TIP3    H218514   1.547   4.307   3.775  0.7735  1.1973 -0.2701
 6170TIP3   OH218515   4.493   4.283   1.570  0.3476  0.0245  0.1813
 6170TIP3    H118516   4.499   4.345   1.497  1.9667  1.1455  1.1973
 6170TIP3    H218517   4.581   4.244   1.575 -0.8421 -3.1278 -1.0000
 6171TIP3   OH218518   1.537   0.555   3.532 -0.1034  0.2417 -0.0184
 6171TIP3    H118519   1.519   0.643   3.566  1.4004  0.3492  0.5908
 6171TIP3    H218520   1.477   0.498   3.581  2.4483  0.2768  3.5802
 6172TIP3   OH218521   1.733   0.297   4.456 -0.1591 -0.4007 -0.2365
 6172TIP3    H118522   1.805   0.349   4.492  0.3944  0.6763 -2.6753
 6172TIP3    H218523   1.713   0.338   4.372 -2.0311 -2.1256 -0.7197
 6173TIP3   OH218524   0.408   4.484   1.800  0.1078  0.0747 -0.6942
 6173TIP3    H118525   0.383   4.392   1.803  0.6783 -0.0677  0.5585
 6173TIP3    H218526   0.325   4.531   1.797 -0.1954 -0.4711 -1.1241
 6174TIP3   OH218527   4.789   2.331   1.663  0.5843  0.2560  0.1891
 6174TIP3    H118528   4.876   2.358   1.693  0.7192  0.9408 -0.7570
 6174TIP3    H218529   4.728   2.377   1.721  0.8356  1.8241 -0.7135
 6175TIP3   OH218530   5.948   5.120   3.875  0.2311 -0.6240 -0.6131
 6175TIP3    H118531   5.922   5.211   3.867  2.3345  0.0702 -0.3309
 6175TIP3    H218532   5.978   5.111   3.966 -0.5506 -1.7760 -0.4506
 6176TIP3   OH218533   1.954   1.724   0.803 -0.2439 -0.0533 -0.1154
 6176TIP3    H118534   2.021   1.693   0.864 -1.1400  1.0067  1.4867
 6176TIP3    H218535   2.001   1.782   0.743  0.5061 -0.4506  0.0689
 6177TIP3   OH218536   1.183   1.481   2.934 -0.3632 -0.4761  0.2046
 6177TIP3    H118537   1.121   1.551   2.952 -0.1429  0.1104 -1.2141
 6177TIP3    H218538   1.268   1.524   2.933 -0.1329 -0.9220  0.1965
 6178TIP3   OH218539   5.383   5.113   1.628 -0.1107  0.0541  0.3360
 6178TIP3    H118540   5.397   5.109   1.534 -0.9132 -0.3183  0.2285
 6178TIP3    H218541   5.432   5.038   1.663 -0.2670 -0.1299  0.1603
 6179TIP3   OH218542   2.449   1.332   1.278  0.6237  0.2646  0.1389
 6179TIP3    H118543   2.449   1.413   1.228 -2.8896 -0.5216 -1.5091
 6179TIP3    H218544   2.494   1.269   1.221  1.3039  0.5170  0.3872
 6180TIP3   OH218545   4.865   4.432   0.370  0.7742 -0.0163 -0.1075
 6180TIP3    H118546   4.901   4.354   0.328 -0.8052 -0.6877 -0.3107
 6180TIP3    H218547   4.817   4.399   0.446 -0.6654  0.6218 -0.6948
 6181TIP3   OH218548   1.826   2.153   2.394  0.4968  0.7524 -0.4223
 6181TIP3    H118549   1.759   2.085   2.388  0.3910  0.9065 -1.0661
 6181TIP3    H218550   1.871   2.135   2.477  0.4051 -0.0442 -0.5343
 6182TIP3   OH218551   0.652   3.797   3.808 -0.1120  0.2043 -0.0987
 6182TIP3    H118552   0.625   3.819   3.719 -0.9761  1.8760  0.5258
 6182TIP3    H218553   0.600   3.856   3.864  0.6417 -0.5748  1.4889
 6183TIP3   OH218554   3.732   1.454   2.141  0.3419 -0.6682 -0.4754
 6183TIP3    H118555   3.808   1.409   2.103  1.2163  0.4056 -0.0370
 6183TIP3    H218556   3.722   1.413   2.227 -0.0850 -1.3630 -0.8458
 6184TIP3   OH218557   0.933   1.854   1.206 -0.9149 -0.2592  0.4368
 6184TIP3    H118558   0.913   1.902   1.287 -1.7023  1.2010 -0.5735
 6184TIP3    H218559   0.983   1.917   1.153  2.4176 -2.2035  0.9630
 6185TIP3   OH218560   3.193   3.121   0.749 -0.0506 -0.0092  0.2269
 6185TIP3    H118561   3.224   3.197   0.798  0.7271 -0.1760  0.0143
 6185TIP3    H218562   3.258   3.109   0.680  1.4406 -2.5162  1.9046
 6186TIP3   OH218563   3.459   2.137   3.732  0.2847  0.0687  0.2562
 6186TIP3    H118564   3.507   2.206   3.687 -1.1040  2.5495  2.3005
 6186TIP3    H218565   3.462   2.161   3.825 -2.9898 -0.7938  0.7142
 6187TIP3   OH218566   4.590   1.246   0.076 -0.5268  0.0538  0.6400
 6187TIP3    H118567   4.515   1.305   0.067 -0.1606  0.4892  0.3959
 6187TIP3    H218568   4.633   1.248  -0.009 -0.2943 -0.2734  0.7483
 6188TIP3   OH218569   4.452   0.885   3.901 -0.0269  0.5975  0.0839
 6188TIP3    H118570   4.400   0.942   3.959  0.9768  1.8545 -0.2172
 6188TIP3    H218571   4.455   0.931   3.818 -0.5854 -0.7116 -0.6963
 6189TIP3   OH218572   2.355   2.334   2.896 -0.0258 -0.2732 -0.7524
 6189TIP3    H118573   2.293   2.272   2.857 -2.5547  1.6257  0.0395
 6189TIP3    H218574   2.436   2.319   2.848 -1.0724 -2.7900 -1.9426
 6190TIP3   OH218575   1.260   4.598   4.396  0.2002  0.2350 -0.3044
 6190TIP3    H118576   1.328   4.565   4.337 -0.3108 -0.0500 -0.7353
 6190TIP3    H218577   1.309   4.631   4.472  0.7984 -0.3953 -0.4033
 6191TIP3   OH218578   0.989   5.239   5.017 -0.2448  0.0965 -0.2329
 6191TIP3    H118579   0.944   5.319   5.045  0.2193 -0.2003  1.4666
 6191TIP3    H218580   0.980   5.179   5.091 -0.7864 -1.5316 -1.5745
 6192TIP3   OH218581   5.562   1.731   1.026  0.4590  0.4603  0.0520
 6192TIP3    H118582   5.543   1.818   1.061  1.7120  0.0968  1.7601
 6192TIP3    H218583   5.495   1.675   1.065  1.5492  0.1447  1.5463
 6193TIP3   OH218584   1.536   5.332   0.980  0.1013 -0.2205  0.0614
 6193TIP3    H118585   1.514   5.426   0.976  1.6572  0.1452 -0.6406
 6193TIP3    H218586   1.586   5.322   1.061 -0.1942 -0.4762  0.2126
 6194TIP3   OH218587   1.038   1.536   4.945  0.1288  0.5421 -0.1077
 6194TIP3    H118588   0.986   1.524   5.025 -0.3691  1.5621 -0.2669
 6194TIP3    H218589   1.107   1.598   4.971 -0.5896  1.6251 -0.6837
 6195TIP3   OH218590   3.953   4.317   2.183  0.2567  0.3068  0.0600
 6195TIP3    H118591   3.944   4.222   2.177  2.6994  0.0994 -1.2807
 6195TIP3    H218592   4.025   4.339   2.124  0.5866  2.8570  1.2598
 6196TIP3   OH218593   5.327   4.035   4.420 -0.0634 -0.1446  0.4673
 6196TIP3    H118594   5.403   4.021   4.476  1.2415  3.7231 -0.0479
 6196TIP3    H218595   5.361   4.034   4.331 -0.4376  1.9337  0.2409
 6197TIP3   OH218596   6.072   4.227   1.293  0.1929  0.0974  0.2777
 6197TIP3    H118597   6.154   4.190   1.325 -0.7903 -0.1461  2.7413
 6197TIP3    H218598   6.072   4.317   1.324 -0.1916  0.2946 -0.2831
 6198TIP3   OH218599   3.841   3.505   0.644  0.7175  0.3795 -0.0295
 6198TIP3    H118600   3.766   3.447   0.635  1.0746 -0.7619  3.1879
 6198TIP3    H218601   3.804   3.593   0.639 -0.2722 -0.1024 -1.9011
 6199TIP3   OH218602   2.485   1.911   2.581  0.1287  0.1667  0.3363
 6199TIP3    H118603   2.409   1.853   2.585 -1.0082  1.6188  0.3291
 6199TIP3    H218604   2.520   1.899   2.493  0.3573 -1.0180  0.5647
 6200TIP3   OH218605   5.072   2.635   3.432  0.1230  0.0526 -0.1721
 6200TIP3    H118606   5.066   2.621   3.526 -0.6116  0.5577 -0.1343
 6200TIP3    H218607   5.009   2.704   3.414 -0.6441 -0.8819 -1.2171
 6201TIP3   OH218608   3.103   2.778   5.156  0.5067 -0.6658 -0.6169
 6201TIP3    H118609   3.037   2.729   5.106 -1.3366  0.2734  0.7697
 6201TIP3    H218610   3.148   2.712   5.209 -1.3077 -1.0406  0.5395
 6202TIP3   OH218611   2.942   4.565   2.944  0.2899 -0.4593 -0.2573
 6202TIP3    H118612   3.014   4.516   2.904 -1.4209 -1.1253 -2.7518
 6202TIP3    H218613   2.893   4.500   2.994 -0.3507 -0.7084 -1.1911
 6203TIP3   OH218614   1.410   2.494   0.350  0.2610 -0.2938  0.1551
 6203TIP3    H118615   1.487   2.472   0.298 -0.0119  0.2114 -0.4711
 6203TIP3    H218616   1.355   2.547   0.292  0.1936  0.7366  1.1127
 6204TIP3   OH218617   5.531   5.908   0.756  0.2272  0.2599  0.3430
 6204TIP3    H118618   5.489   5.946   0.679 -2.7340 -0.7346  1.3315
 6204TIP3    H218619   5.586   5.838   0.721  2.9955  2.9233 -1.1731
 6205TIP3   OH218620   1.256   0.364   3.779  0.4886 -0.0325  0.1589
 6205TIP3    H118621   1.287   0.454   3.784  0.8965 -0.2114  1.1630
 6205TIP3    H218622   1.181   0.368   3.720  0.8727  0.8503 -0.2941
 6206TIP3   OH218623   3.760   2.098   4.166 -0.0780 -0.1429 -0.0577
 6206TIP3    H118624   3.806   2.094   4.082 -1.1022  0.5456 -0.6756
 6206TIP3    H218625   3.829   2.115   4.230  0.6200  0.1739 -0.8665
 6207TIP3   OH218626   0.065   5.270   4.241 -0.5140 -0.1886 -0.2300
 6207TIP3    H118627   0.153   5.265   4.277  0.3885  0.6301 -2.1569
 6207TIP3    H218628   0.049   5.182   4.205 -0.7777 -0.5369  0.7205
 6208TIP3   OH218629   5.796   2.321   3.969  0.6182  0.2783  0.4092
 6208TIP3    H118630   5.883   2.359   3.971  1.2904 -1.2297  0.9361
 6208TIP3    H218631   5.776   2.301   4.061  1.0359 -2.2041  0.0239
 6209TIP3   OH218632   2.811   1.576   1.669  0.1707  0.0935  0.2362
 6209TIP3    H118633   2.784   1.521   1.742 -0.3165 -0.2863 -0.2289
 6209TIP3    H218634   2.905   1.562   1.662 -0.0353 -1.1260 -0.2428
 6210TIP3   OH218635   5.382   0.600   3.119 -0.0940  0.8031  0.5360
 6210TIP3    H118636   5.400   0.694   3.123 -0.9990  0.9778  0.6129
 6210TIP3    H218637   5.342   0.586   3.034 -0.0658  0.5014  0.5702
 6211TIP3   OH218638   0.922   5.167   4.310  0.0072 -0.0823  0.3518
 6211TIP3    H118639   0.997   5.204   4.263 -0.9836 -0.6130 -1.7441
 6211TIP3    H218640   0.955   5.084   4.345  0.0118 -1.1627 -2.0281
 6212TIP3   OH218641   1.694   2.508   2.490 -0.1858  0.2972  0.3220
 6212TIP3    H118642   1.685   2.413   2.486 -1.1377  0.4128 -0.8099
 6212TIP3    H218643   1.627   2.536   2.552 -1.2515  0.3614 -0.8140
 6213TIP3   OH218644   4.012   3.497   0.426  0.4573  0.9502  0.1274
 6213TIP3    H118645   4.102   3.514   0.454  0.3617  1.0959  0.3469
 6213TIP3    H218646   3.960   3.500   0.506  0.0606  2.2146 -0.1444
 6214TIP3   OH218647   3.607   5.679   3.585  0.1845 -0.1652  0.2944
 6214TIP3    H118648   3.530   5.690   3.529 -0.5473  1.9303  1.5713
 6214TIP3    H218649   3.680   5.668   3.524 -0.7782  0.5305 -1.0313
 6215TIP3   OH218650   1.462   2.882   3.443 -0.6357 -0.1232  0.0266
 6215TIP3    H118651   1.499   2.879   3.531 -1.8752 -0.1584  0.5728
 6215TIP3    H218652   1.426   2.970   3.435 -0.7611 -0.2065 -0.3515
 6216TIP3   OH218653   1.011   3.511   3.469 -0.3390 -0.6830 -0.2765
 6216TIP3    H118654   1.040   3.535   3.557  0.3158 -0.6434 -0.4975
 6216TIP3    H218655   1.050   3.577   3.412  0.7372 -1.7249 -0.7872
 6217TIP3   OH218656   1.602   4.801   0.632 -0.6557 -0.2056  0.2557
 6217TIP3    H118657   1.605   4.896   0.641  0.5189 -0.3292  1.6813
 6217TIP3    H218658   1.680   4.779   0.582 -0.8248 -0.4378  0.0920
 6218TIP3   OH218659   1.168   4.948   2.503 -0.0856 -0.0848 -0.4672
 6218TIP3    H118660   1.167   4.861   2.544  1.1192  0.1924  0.1975
 6218TIP3    H218661   1.095   4.995   2.545 -0.7307 -0.7585 -0.8178
 6219TIP3   OH218662   2.897   5.023   2.286  0.3645  0.1347  0.3133
 6219TIP3    H118663   2.965   5.038   2.352  0.4664  0.0095  0.2376
 6219TIP3    H218664   2.881   5.110   2.249  0.3349  0.1988  0.4751
 6220TIP3   OH218665   1.972   3.469   2.403 -0.7379  0.0032 -0.1560
 6220TIP3    H118666   2.033   3.475   2.330  1.8852  1.0945  1.9864
 6220TIP3    H218667   1.957   3.559   2.430 -1.0607 -0.4066  1.1257
 6221TIP3   OH218668   5.433   5.454   1.813  0.2206  0.1085 -0.1844
 6221TIP3    H118669   5.384   5.397   1.873  1.3607 -0.9720 -0.2488
 6221TIP3    H218670   5.365   5.497   1.761 -0.7586  0.5207  1.3669
 6222TIP3   OH218671   3.723   2.731   2.495 -0.0119 -0.1247 -0.4609
 6222TIP3    H118672   3.747   2.661   2.434  0.9790 -1.0913  0.9526
 6222TIP3    H218673   3.801   2.743   2.549 -1.1607 -0.0248  1.2520
 6223TIP3   OH218674   0.284   3.911   4.596  0.6249 -0.3122  0.2660
 6223TIP3    H118675   0.240   3.932   4.513 -0.8318 -1.9688  0.5645
 6223TIP3    H218676   0.216   3.919   4.662  1.9940  1.9470  1.5170
 6224TIP3   OH218677   3.608   4.391   0.874 -0.3423 -0.3208  0.0317
 6224TIP3    H118678   3.596   4.360   0.964  0.8702 -0.2318  0.2422
 6224TIP3    H218679   3.570   4.323   0.819  0.9514 -1.5035  0.5421
 6225TIP3   OH218680   0.533   2.299   5.033  0.1661  0.0005  0.4166
 6225TIP3    H118681   0.558   2.254   4.952 -0.3597 -1.2451  0.9269
 6225TIP3    H218682   0.521   2.229   5.097 -2.2368  0.6920  0.8368
 6226TIP3   OH218683   3.252   1.544   4.482 -0.2061  0.5519  0.3080
 6226TIP3    H118684   3.322   1.521   4.543 -1.0264  0.5468  1.2738
 6226TIP3    H218685   3.295   1.552   4.397  0.7451 -0.6883  0.6594
 6227TIP3   OH218686   4.395   5.476   4.919  0.6320  0.2535 -0.2491
 6227TIP3    H118687   4.417   5.470   5.012 -2.7432  0.8378  0.7232
 6227TIP3    H218688   4.457   5.540   4.883  2.0894 -0.0834  1.5325
 6228TIP3   OH218689   1.256   2.987   1.858  0.1139 -0.0937 -0.2517
 6228TIP3    H118690   1.178   3.014   1.809  0.2637  1.0736  0.1368
 6228TIP3    H218691   1.329   3.028   1.813  0.3971 -0.2052  0.0995
 6229TIP3   OH218692   0.755   3.690   1.525 -0.3192  0.7260  0.0901
 6229TIP3    H118693   0.766   3.595   1.523  1.7034  0.8889  0.9176
 6229TIP3    H218694   0.687   3.705   1.590  2.4891 -0.0427  3.5084
 6230TIP3   OH218695   6.174   0.268   2.026 -0.1175 -0.1035 -0.2361
 6230TIP3    H118696   6.212   0.181   2.036 -0.0277  0.1119  1.7449
 6230TIP3    H218697   6.080   0.253   2.025 -0.0846 -0.3561 -1.8324
 6231TIP3   OH218698   2.668   0.170   3.212  0.2340  0.6045 -0.4640
 6231TIP3    H118699   2.743   0.172   3.153  0.1108  0.9316 -0.6095
 6231TIP3    H218700   2.675   0.250   3.263 -0.0222  0.6416 -0.4854
 6232TIP3   OH218701   4.317   4.431   4.416  0.4118  0.1185 -0.1392
 6232TIP3    H118702   4.393   4.488   4.429 -0.3826  0.9845  0.9728
 6232TIP3    H218703   4.354   4.346   4.395  1.7672  0.1547  1.8094
 6233TIP3   OH218704   1.509   5.067   3.152  0.1197  0.2641 -0.3251
 6233TIP3    H118705   1.565   5.091   3.226  0.0922  1.9933 -0.8195
 6233TIP3    H218706   1.531   4.975   3.135  2.1887  0.6228  0.0352
 6234TIP3   OH218707   4.334   2.328   2.556 -0.0684 -0.7708 -0.2080
 6234TIP3    H118708   4.291   2.302   2.637  1.4007 -0.9715  0.5373
 6234TIP3    H218709   4.350   2.422   2.566  2.3051 -1.2160  0.8597
 6235TIP3   OH218710   4.872   1.983   3.272 -0.5463 -0.7728  0.4189
 6235TIP3    H118711   4.817   2.056   3.300  0.9985  0.0396  1.4742
 6235TIP3    H218712   4.840   1.962   3.184 -2.2469 -0.0787  0.8236
 6236TIP3   OH218713   6.182   3.350   2.186  0.8203 -0.3542  0.2141
 6236TIP3    H118714   6.261   3.320   2.141  1.0224  0.9777 -0.3659
 6236TIP3    H218715   6.164   3.436   2.147 -0.6776 -0.4582  0.6335
 6237TIP3   OH218716   4.031   5.465   1.193 -0.0113 -0.5054  0.1443
 6237TIP3    H118717   4.085   5.530   1.238  0.0452  0.5110 -1.3207
 6237TIP3    H218718   3.942   5.483   1.223  0.1834 -0.7180  0.8626
 6238TIP3   OH218719   4.882   5.629   1.351  0.2065  0.3675  0.1624
 6238TIP3    H118720   4.821   5.567   1.393  1.6331 -1.1890  0.0204
 6238TIP3    H218721   4.859   5.626   1.258  1.4847 -1.5045 -0.1615
 6239TIP3   OH218722   2.664   3.238   0.130 -0.1473  0.4084  0.2593
 6239TIP3    H118723   2.599   3.290   0.176 -0.7772 -0.0531 -0.0904
 6239TIP3    H218724   2.638   3.147   0.146  0.8383  0.2008  0.7213
 6240TIP3   OH218725   5.609   4.799   3.440 -0.4581 -0.6480 -0.2024
 6240TIP3    H118726   5.664   4.870   3.473 -0.7570 -0.8418  0.7279
 6240TIP3    H218727   5.528   4.804   3.491  0.5905 -3.4265  2.0514
 6241TIP3   OH218728   4.374   1.468   4.396  0.0126  0.2738 -0.2547
 6241TIP3    H118729   4.429   1.518   4.457 -1.5135  0.3639  1.1258
 6241TIP3    H218730   4.288   1.469   4.436 -0.7665 -0.8011 -1.8096
 6242TIP3   OH218731   4.452   5.040   0.931  0.7658  0.3109  0.1714
 6242TIP3    H118732   4.540   5.013   0.902 -0.0190 -2.8825  0.4675
 6242TIP3    H218733   4.392   4.994   0.871 -0.7353 -0.1315  1.9384
 6243TIP3   OH218734   2.743   3.343   0.945  0.4314  0.0484 -0.4184
 6243TIP3    H118735   2.719   3.313   0.858 -1.2288  0.6119 -0.1797
 6243TIP3    H218736   2.751   3.438   0.937  2.0126 -0.0385 -0.3242
 6244TIP3   OH218737   5.858   2.160   1.228  0.4235 -0.1731 -0.5690
 6244TIP3    H118738   5.915   2.090   1.258  1.1802 -0.2987 -2.1979
 6244TIP3    H218739   5.773   2.140   1.268  0.7922 -1.6079 -0.4380
 6245TIP3   OH218740   0.555   6.002   4.112  0.0665  0.1300  0.3812
 6245TIP3    H118741   0.459   6.001   4.108  0.0426  2.0176 -1.0696
 6245TIP3    H218742   0.583   5.933   4.052 -0.4215  0.7875 -0.6392
 6246TIP3   OH218743   0.605   2.124   4.844 -0.1079 -0.0925  0.0786
 6246TIP3    H118744   0.571   2.047   4.888 -0.0386 -0.0977  0.1232
 6246TIP3    H218745   0.658   2.090   4.772  0.2672 -0.0931  0.3537
 6247TIP3   OH218746   1.726   5.122   0.968  0.1212 -0.1402 -0.2551
 6247TIP3    H118747   1.712   5.182   0.895  0.4488  0.2674  0.0128
 6247TIP3    H218748   1.695   5.170   1.045 -0.6112 -0.7266 -0.1762
 6248TIP3   OH218749   2.676   2.380   3.548 -0.1693 -0.1444 -0.3048
 6248TIP3    H118750   2.581   2.368   3.557 -0.0527 -0.7824  0.1474
 6248TIP3    H218751   2.685   2.454   3.488 -0.9569  0.8546  0.7700
 6249TIP3   OH218752   2.357   1.721   2.206 -0.3111 -0.1917 -0.1168
 6249TIP3    H118753   2.448   1.741   2.230 -1.0949  1.3727  1.8461
 6249TIP3    H218754   2.327   1.660   2.273 -0.8102 -0.4524 -0.5698
 6250TIP3   OH218755   0.760   5.386   4.993 -0.2015 -0.4363  0.3663
 6250TIP3    H118756   0.700   5.313   4.980 -0.9393  0.4862 -1.9041
 6250TIP3    H218757   0.781   5.416   4.905  0.7283  1.5972  1.2071
 6251TIP3   OH218758   0.738   3.712   2.391 -0.2966 -0.0212 -0.0881
 6251TIP3    H118759   0.730   3.774   2.464 -1.2313 -1.3147  0.9648
 6251TIP3    H218760   0.823   3.732   2.352 -0.8708  2.4095 -0.3010
 6252TIP3   OH218761   3.439   1.949   1.830 -0.4653  0.2834 -0.1664
 6252TIP3    H118762   3.462   1.915   1.743 -0.4130  1.1650 -0.5098
 6252TIP3    H218763   3.482   2.034   1.834 -0.2840  0.1474  0.8228
 6253TIP3   OH218764   2.437   2.277   4.404 -0.1157 -0.2023  0.7881
 6253TIP3    H118765   2.436   2.197   4.351 -0.6489  1.5074 -2.0333
 6253TIP3    H218766   2.349   2.283   4.440 -0.4542 -0.2902  0.0016
 6254TIP3   OH218767   4.074   1.609   3.924 -0.2919  0.2982  0.2884
 6254TIP3    H118768   4.150   1.664   3.944  1.0629 -0.2998 -2.7363
 6254TIP3    H218769   4.095   1.525   3.963 -0.1136  0.5440  0.7369
 6255TIP3   OH218770   3.798   1.957   2.445 -0.2547  0.3027 -0.5455
 6255TIP3    H118771   3.870   1.935   2.386  0.1973  2.0340 -0.7128
 6255TIP3    H218772   3.719   1.937   2.396  0.1149  0.1946 -1.1114
 6256TIP3   OH218773   4.194   4.382   0.470  0.4845  0.0397  0.0157
 6256TIP3    H118774   4.139   4.375   0.548  0.3310 -0.4753 -0.1353
 6256TIP3    H218775   4.192   4.294   0.431  0.7258  0.2397 -0.4556
 6257TIP3   OH218776   3.810   4.645   0.321  0.2484 -0.6972  0.7044
 6257TIP3    H118777   3.901   4.631   0.294  0.0116  0.5018 -0.8834
 6257TIP3    H218778   3.760   4.579   0.273  0.2084 -0.9858  1.1367
 6258TIP3   OH218779   1.022   0.217   4.431  0.6446  0.2990 -0.6414
 6258TIP3    H118780   1.116   0.223   4.410  0.6980  0.7389 -0.2850
 6258TIP3    H218781   0.979   0.270   4.364  0.6218 -0.1786 -1.0055
 6259TIP3   OH218782   0.592   3.322   3.470 -0.5803  1.0947  0.1065
 6259TIP3    H118783   0.627   3.279   3.548 -1.4445  0.2892  0.0609
 6259TIP3    H218784   0.669   3.364   3.430 -0.0996  1.4380  1.3149
 6260TIP3   OH218785   5.626   2.925   5.163 -0.8785  0.1169  0.5441
 6260TIP3    H118786   5.659   2.842   5.129 -1.4765 -0.4129  1.2285
 6260TIP3    H218787   5.600   2.906   5.253 -0.5455  1.1776  0.8848
 6261TIP3   OH218788   0.390   2.959   3.621  0.2700 -0.5039  0.0785
 6261TIP3    H118789   0.439   2.979   3.541  0.6746 -2.1127 -0.1176
 6261TIP3    H218790   0.448   2.984   3.692  1.5493 -2.5676 -0.1470
 6262TIP3   OH218791   2.749   3.204   1.618  0.0795 -0.4822  0.5178
 6262TIP3    H118792   2.788   3.123   1.587 -0.6760  0.1048 -2.2737
 6262TIP3    H218793   2.665   3.209   1.572 -0.0648  1.6830  0.9082
 6263TIP3   OH218794   2.615   3.804   1.822 -0.0044 -0.8203 -0.1240
 6263TIP3    H118795   2.546   3.738   1.815 -1.5009  0.6784 -0.2058
 6263TIP3    H218796   2.661   3.800   1.738  0.6875 -2.5172  0.2992
 6264TIP3   OH218797   0.794   0.973   2.091 -0.1045 -0.3987 -0.6560
 6264TIP3    H118798   0.828   0.931   2.169  0.7432  1.5880  0.1182
 6264TIP3    H218799   0.816   0.914   2.020  2.5279 -0.5314  0.1712
 6265TIP3   OH218800   4.156   2.046   0.964  0.0531  0.0412 -0.2870
 6265TIP3    H118801   4.213   2.120   0.987  1.7901 -1.8667  2.0869
 6265TIP3    H218802   4.191   2.014   0.881  0.4881  0.7375 -0.3846
 6266TIP3   OH218803   1.159   1.793   3.676  0.0687  0.0423 -0.2453
 6266TIP3    H118804   1.178   1.711   3.722 -0.3378  1.0327  1.7767
 6266TIP3    H218805   1.063   1.794   3.667  0.0352  0.5155  0.1529
 6267TIP3   OH218806   0.371   4.606   3.410  0.2354 -0.3397 -0.0461
 6267TIP3    H118807   0.447   4.637   3.460 -0.1585  0.4241  0.0966
 6267TIP3    H218808   0.295   4.631   3.463 -0.1343 -0.6999 -0.3974
 6268TIP3   OH218809   4.217   0.051   4.764  0.5105  0.0696  0.6161
 6268TIP3    H118810   4.305   0.068   4.729  0.2283  0.9941  0.3194
 6268TIP3    H218811   4.206   0.116   4.833  0.2609 -0.4014  1.0209
 6269TIP3   OH218812   1.959   5.302   1.326  0.0731  0.1521  0.1676
 6269TIP3    H118813   1.921   5.318   1.413 -0.0613  0.2135  0.0982
 6269TIP3    H218814   2.048   5.336   1.331 -0.1745  0.8312  0.0513
 6270TIP3   OH218815   5.849   2.708   2.348 -0.2423  0.1697 -0.2512
 6270TIP3    H118816   5.818   2.737   2.262 -1.3567  0.1613  0.1219
 6270TIP3    H218817   5.865   2.789   2.397 -0.4152  0.1778 -0.2047
 6271TIP3   OH218818   1.365   3.574   4.995  0.1530  0.0327  0.0469
 6271TIP3    H118819   1.301   3.570   4.924  2.5283 -2.1711 -2.2126
 6271TIP3    H218820   1.368   3.485   5.030  3.4798 -0.6240 -1.5276
 6272TIP3   OH218821   3.745   4.239   3.763  0.3750  0.2327 -0.3813
 6272TIP3    H118822   3.797   4.167   3.798 -0.7439 -0.7073 -0.5909
 6272TIP3    H218823   3.717   4.289   3.840 -0.3138 -0.5942 -0.0825
 6273TIP3   OH218824   1.492   3.570   3.691 -0.2149 -0.0440  0.3027
 6273TIP3    H118825   1.574   3.521   3.700 -0.1966  0.2872  2.3708
 6273TIP3    H218826   1.519   3.656   3.660 -0.0967 -0.7387 -1.7140
 6274TIP3   OH218827   1.010   4.129   0.183  0.8009 -0.7914 -0.4601
 6274TIP3    H118828   1.057   4.154   0.103  0.1280  0.1377 -0.5803
 6274TIP3    H218829   1.079   4.106   0.245  1.4425  0.8208 -0.5414
 6275TIP3   OH218830   5.460   0.783   0.886 -0.4078  0.3405  0.5387
 6275TIP3    H118831   5.459   0.836   0.806  0.9897 -0.1655  0.1555
 6275TIP3    H218832   5.483   0.846   0.955  2.0818  0.1787 -0.0310
 6276TIP3   OH218833   0.758   3.496   3.382 -0.1774 -0.5888  0.4230
 6276TIP3    H118834   0.853   3.491   3.393 -0.0020 -0.3572 -0.8938
 6276TIP3    H218835   0.744   3.569   3.321 -1.1520 -1.1320 -0.0257
 6277TIP3   OH218836   1.661   5.543   3.916  0.4862 -0.2852 -0.0461
 6277TIP3    H118837   1.638   5.457   3.953  0.9960  0.5080  2.2996
 6277TIP3    H218838   1.595   5.558   3.848 -0.2812 -2.0325  0.2485
 6278TIP3   OH218839   3.439   0.515   4.755 -0.2343  0.4397 -0.1414
 6278TIP3    H118840   3.356   0.506   4.709 -1.4751  0.0154  2.0011
 6278TIP3    H218841   3.422   0.583   4.821  0.7852 -0.3320  0.9568
 6279TIP3   OH218842   4.776   3.770   2.336 -0.2394  0.6843 -0.0972
 6279TIP3    H118843   4.808   3.857   2.359 -2.0560  1.6070 -0.8494
 6279TIP3    H218844   4.682   3.773   2.355 -0.4392 -0.9393 -0.6341
 6280TIP3   OH218845   4.045   5.249   1.369 -0.3429 -0.1253  0.2861
 6280TIP3    H118846   4.048   5.329   1.315 -0.2375  0.2763  0.8764
 6280TIP3    H218847   4.077   5.180   1.311  1.4140  0.5941  0.3328
 6281TIP3   OH218848   0.769   4.411   4.326 -1.1122  0.2415 -0.1138
 6281TIP3    H118849   0.804   4.348   4.389 -1.5127 -2.0765 -2.0426
 6281TIP3    H218850   0.734   4.482   4.380 -2.9124 -2.3440  2.4388
 6282TIP3   OH218851   4.827   1.973   4.560  0.3209  0.4379  0.3907
 6282TIP3    H118852   4.755   1.947   4.502  1.2863  1.9761 -1.6181
 6282TIP3    H218853   4.891   1.902   4.551 -0.2256 -0.1345  0.9055
 6283TIP3   OH218854   1.351   3.660   1.658 -0.3381  0.4509 -0.5436
 6283TIP3    H118855   1.408   3.732   1.632  0.9083 -0.5731 -0.7435
 6283TIP3    H218856   1.381   3.585   1.605 -2.3098  0.0339 -1.1688
 6284TIP3   OH218857   5.105   2.195   1.546  0.0965 -0.1230 -0.1606
 6284TIP3    H118858   5.116   2.290   1.556  0.2606 -0.2066  0.5354
 6284TIP3    H218859   5.104   2.181   1.451  0.4745  0.5270 -0.2726
 6285TIP3   OH218860   0.435   0.054   0.883 -0.5654 -0.7557 -0.3146
 6285TIP3    H118861   0.474   0.002   0.813  1.3576  0.9959 -0.6326
 6285TIP3    H218862   0.503   0.061   0.949 -1.3455 -0.0043  0.4433
 6286TIP3   OH218863   6.099   2.083   0.250 -0.1145  0.5095  0.7383
 6286TIP3    H118864   6.127   2.169   0.218 -2.2954  1.0419  0.0938
 6286TIP3    H218865   6.087   2.095   0.344  1.9626  0.1851  1.0849
 6287TIP3   OH218866   3.807   2.976   2.206  0.1507 -0.8342  0.0072
 6287TIP3    H118867   3.887   2.951   2.253  0.5776  1.1220  0.3990
 6287TIP3    H218868   3.839   3.013   2.123 -0.3114  0.4100  0.3774
 6288TIP3   OH218869   3.655   2.178   1.185  0.2173  0.4449  0.0910
 6288TIP3    H118870   3.599   2.247   1.220  1.7350  0.9126  1.7709
 6288TIP3    H218871   3.664   2.115   1.257 -0.1034 -0.8813 -0.9770
 6289TIP3   OH218872   0.899   1.992   0.512 -0.2065  0.1736  0.1481
 6289TIP3    H118873   0.918   2.085   0.528 -0.6085  0.1881  0.5536
 6289TIP3    H218874   0.847   1.965   0.587  0.8266 -0.6723  0.5890
 6290TIP3   OH218875   1.997   4.724   2.145  0.2871 -0.4126  0.2056
 6290TIP3    H118876   2.070   4.662   2.143  0.5969 -0.0557  0.2713
 6290TIP3    H218877   2.037   4.807   2.172  0.1098  0.1196 -1.1229
 6291TIP3   OH218878   5.193   3.009   1.543 -0.5799  0.4034 -0.5271
 6291TIP3    H118879   5.231   2.997   1.456  0.6616  1.6639 -0.2086
 6291TIP3    H218880   5.179   3.104   1.550 -0.4792  0.3414  0.7024
 6292TIP3   OH218881   0.107   3.511   0.631 -0.0540 -0.0810 -0.1937
 6292TIP3    H118882   0.062   3.485   0.711  0.7988 -0.2958  0.2246
 6292TIP3    H218883   0.173   3.443   0.618  1.3071  1.1234  0.1590
 6293TIP3   OH218884   2.119   4.344   0.265 -0.1837  0.0189  0.1415
 6293TIP3    H118885   2.059   4.347   0.340  0.2617 -0.7254  0.5409
 6293TIP3    H218886   2.205   4.327   0.304  0.4055  1.6384 -0.3736
 6294TIP3   OH218887   2.633   5.962   2.125 -0.3813  0.1036  0.2568
 6294TIP3    H118888   2.724   5.934   2.110 -0.7723 -0.7982 -0.5057
 6294TIP3    H218889   2.623   6.041   2.073 -0.1712 -0.0581 -0.0288
 6295TIP3   OH218890   4.372   5.559   1.141  0.3129 -0.5166  0.3023
 6295TIP3    H118891   4.345   5.601   1.223 -1.9590 -1.5633  0.1557
 6295TIP3    H218892   4.319   5.601   1.074  0.1763 -1.5349 -0.2456
 6296TIP3   OH218893   6.076   0.801   1.159 -0.8245  0.0329 -0.4573
 6296TIP3    H118894   6.078   0.744   1.083 -0.9989 -0.5177 -0.0562
 6296TIP3    H218895   6.013   0.870   1.137 -0.1665  0.4178 -1.1798
 6297TIP3   OH218896   5.143   5.737   1.318  0.4331 -0.1449  0.8266
 6297TIP3    H118897   5.137   5.711   1.226  2.1139 -2.3873  1.2876
 6297TIP3    H218898   5.060   5.708   1.356 -0.3529  0.9604  0.0440
 6298TIP3   OH218899   0.443   5.910   0.792 -0.1491 -0.0787  0.0433
 6298TIP3    H118900   0.513   5.969   0.821 -0.3377  0.7173 -1.0696
 6298TIP3    H218901   0.372   5.969   0.766  0.1161 -0.7133 -2.2999
 6299TIP3   OH218902   5.005   0.692   1.430 -0.3573 -0.5162  0.3257
 6299TIP3    H118903   5.074   0.631   1.454 -0.3352 -0.4587  0.4091
 6299TIP3    H218904   4.949   0.696   1.507  0.2670  0.4458  0.7421
 6300TIP3   OH218905   4.498   4.925   0.490  0.8713 -0.2616 -0.3244
 6300TIP3    H118906   4.575   4.977   0.468  1.3413 -0.8122 -0.0115
 6300TIP3    H218907   4.526   4.834   0.476 -0.3345 -0.4031 -2.1538
 6301TIP3   OH218908   4.603   1.868   3.955  0.1411  0.5423  0.3965
 6301TIP3    H118909   4.670   1.804   3.931 -1.2004 -0.5635 -0.4829
 6301TIP3    H218910   4.568   1.836   4.038 -1.0780 -0.3594 -0.4282
 6302TIP3   OH218911   0.540   2.470   0.463 -0.1253 -0.2948  0.1321
 6302TIP3    H118912   0.516   2.466   0.370  0.2499 -1.2662  0.0630
 6302TIP3    H218913   0.456   2.471   0.509 -0.3255  1.1036 -0.2371
 6303TIP3   OH218914   0.088   0.144   4.339  0.4867 -0.6553  0.7092
 6303TIP3    H118915   0.044   0.214   4.291  0.2459 -1.1322  0.2251
 6303TIP3    H218916   0.064   0.159   4.430  0.0548 -0.3814  0.5535
 6304TIP3   OH218917   4.284   2.356   0.203  0.4147 -0.4178 -0.8688
 6304TIP3    H118918   4.338   2.309   0.267  1.0430 -0.2532 -1.2608
 6304TIP3    H218919   4.344   2.372   0.129  0.9288  2.9711  0.0976
 6305TIP3   OH218920   0.815   2.216   2.920 -0.1498 -0.5443  0.0300
 6305TIP3    H118921   0.736   2.265   2.898 -0.8716 -1.3992  0.6335
 6305TIP3    H218922   0.790   2.163   2.996  1.7576  1.0967  1.9272
 6306TIP3   OH218923   3.486   2.364   1.038 -0.7921  0.0696  0.4070
 6306TIP3    H118924   3.456   2.274   1.027  1.3215 -0.5158 -1.2542
 6306TIP3    H218925   3.446   2.411   0.965 -0.1446 -0.0451 -0.0322
 6307TIP3   OH218926   1.079   3.148   1.653  0.3967  0.4732  0.2655
 6307TIP3    H118927   1.112   3.179   1.569  0.0408 -0.9046 -0.4263
 6307TIP3    H218928   1.076   3.052   1.643 -2.4290  0.4336  0.7734
 6308TIP3   OH218929   5.044   3.143   2.611 -0.4191  0.3863  0.1521
 6308TIP3    H118930   5.130   3.180   2.630  0.5878 -1.7479 -0.0276
 6308TIP3    H218931   5.022   3.093   2.690 -0.4575 -0.8931 -0.6557
 6309TIP3   OH218932   3.821   0.403   2.497 -1.1186  0.0933 -0.4784
 6309TIP3    H118933   3.828   0.346   2.573  0.7935  1.2681  0.3098
 6309TIP3    H218934   3.727   0.409   2.480 -1.7298  0.7481  2.5543
 6310TIP3   OH218935   4.977   0.131   3.976  0.3670  0.1808  0.2448
 6310TIP3    H118936   4.950   0.084   4.055 -0.9145  1.1947  0.4442
 6310TIP3    H218937   4.900   0.182   3.951  0.2583 -1.1438 -2.4673
 6311TIP3   OH218938   5.255   0.081   3.013  0.6053  0.1092 -0.0417
 6311TIP3    H118939   5.286   0.157   2.962  1.6245  0.4426  1.0241
 6311TIP3    H218940   5.287   0.098   3.102  1.7318 -2.0546  0.0287
 6312TIP3   OH218941   1.503   4.800   4.232  0.4562  0.2759 -0.5674
 6312TIP3    H118942   1.469   4.870   4.288 -0.1589  0.4628 -1.1706
 6312TIP3    H218943   1.599   4.810   4.237  0.5032 -0.6801  1.6898
 6313TIP3   OH218944   3.527   5.730   4.103  0.3964 -0.2024 -0.2456
 6313TIP3    H118945   3.561   5.819   4.093  0.3322 -0.2217 -0.6263
 6313TIP3    H218946   3.497   5.705   4.016  1.2259 -0.9289 -0.3403
 6314TIP3   OH218947   4.574   1.024   4.761 -0.1152 -0.0484  0.9354
 6314TIP3    H118948   4.554   1.047   4.670  2.4762 -0.5258  0.1649
 6314TIP3    H218949   4.561   1.106   4.810  0.2555  0.6882 -0.1804
 6315TIP3   OH218950   3.210   1.871   4.522 -0.5539 -0.2520 -0.5032
 6315TIP3    H118951   3.143   1.804   4.530 -0.1811 -0.5222  0.4822
 6315TIP3    H218952   3.208   1.897   4.430 -0.6239 -1.6907 -0.9247
 6316TIP3   OH218953   1.147   1.295   1.544 -0.3869  0.2231 -0.6191
 6316TIP3    H118954   1.085   1.358   1.507 -0.0474  2.4423  2.1990
 6316TIP3    H218955   1.230   1.342   1.544 -0.2612  0.1692  2.1903
 6317TIP3   OH218956   0.371   0.769   3.938  0.2571 -0.6786  0.5733
 6317TIP3    H118957   0.442   0.769   3.873  0.2891  1.5217  0.5358
 6317TIP3    H218958   0.364   0.861   3.965 -1.1177 -1.2265  2.2022
 6318TIP3   OH218959   1.099   1.010   1.125  0.1227  0.7008 -0.4382
 6318TIP3    H118960   1.113   1.025   1.031 -1.0680  0.5524 -0.6574
 6318TIP3    H218961   1.094   1.098   1.162 -0.3266  0.7846 -0.6787
 6319TIP3   OH218962   2.685   4.349   1.988  0.7218  0.2777 -0.2270
 6319TIP3    H118963   2.639   4.379   2.066  0.0158  0.3611 -0.6660
 6319TIP3    H218964   2.669   4.417   1.923  1.2400  0.1715 -0.4708
 6320TIP3   OH218965   2.521   0.015   1.196  0.0095  0.1855  0.6167
 6320TIP3    H118966   2.490  -0.051   1.133  1.8386  0.1906 -0.3454
 6320TIP3    H218967   2.441   0.050   1.235 -1.0650 -1.5488  0.0643
 6321TIP3   OH218968   1.094   2.323   1.170 -0.3276  0.0846 -0.2503
 6321TIP3    H118969   1.147   2.319   1.091 -0.2245 -1.1759 -0.1384
 6321TIP3    H218970   1.104   2.236   1.210 -0.4856  0.6497  1.0732
 6322TIP3   OH218971   0.932   1.205   3.931 -0.0822  0.0984 -0.0435
 6322TIP3    H118972   0.867   1.197   3.861  2.1331 -0.1367 -2.1898
 6322TIP3    H218973   0.887   1.254   4.000 -3.1988 -1.8583 -0.4953
 6323TIP3   OH218974   0.472   4.358   2.103 -0.1558  0.1289  0.4963
 6323TIP3    H118975   0.402   4.398   2.154 -0.3002  0.8667 -0.2556
 6323TIP3    H218976   0.431   4.338   2.018  0.4530  0.2714  0.1616
 6324TIP3   OH218977   0.171   0.896   0.280  0.0948 -0.0071 -0.0957
 6324TIP3    H118978   0.141   0.857   0.361  1.5750 -1.0556 -0.0148
 6324TIP3    H218979   0.266   0.900   0.288  0.4374 -1.5571 -2.3678
 6325TIP3   OH218980   5.318   3.595   3.822  0.3010  0.1183  0.3555
 6325TIP3    H118981   5.339   3.667   3.881  1.8431  1.0509 -1.2434
 6325TIP3    H218982   5.239   3.625   3.777 -0.7408 -0.4924  1.6985
 6326TIP3   OH218983   6.265   5.171   3.381 -0.3429  0.0280 -0.2068
 6326TIP3    H118984   6.283   5.114   3.307 -0.0727 -0.2699  0.0854
 6326TIP3    H218985   6.349   5.176   3.429 -0.3274  0.7578 -0.2914
 6327TIP3   OH218986   1.425   2.330   3.930  0.3256  0.4461  0.2851
 6327TIP3    H118987   1.447   2.321   4.023  1.3676 -1.2315 -0.0901
 6327TIP3    H218988   1.400   2.422   3.920 -0.5961  0.4812  2.3786
 6328TIP3   OH218989   5.712   0.476   2.768 -0.2907 -0.3739 -0.1032
 6328TIP3    H118990   5.765   0.400   2.793  1.3171  0.5044 -0.7338
 6328TIP3    H218991   5.729   0.488   2.675  1.9927  2.5857  0.5587
 6329TIP3   OH218992   3.131   4.825   3.847  0.3382 -0.1012 -0.0974
 6329TIP3    H118993   3.115   4.810   3.940 -0.1318 -1.1471 -0.3261
 6329TIP3    H218994   3.224   4.810   3.835  0.4425  0.2557  0.2335
 6330TIP3   OH218995   2.507   1.947   0.313  0.1621 -0.4986 -0.0476
 6330TIP3    H118996   2.509   1.902   0.398  0.3386 -1.4302 -0.5321
 6330TIP3    H218997   2.593   1.929   0.275  0.6990  1.2528  0.2391
 6331TIP3   OH218998   1.599   2.899   3.173 -0.5468 -0.0528  0.3424
 6331TIP3    H118999   1.674   2.956   3.159 -0.2087 -0.2163  1.4046
 6331TIP3    H219000   1.626   2.840   3.243 -1.8027  0.1313  1.0119
 6332TIP3   OH219001   4.450   4.673   1.479 -0.0819  0.3512 -0.0969
 6332TIP3    H119002   4.478   4.604   1.418  0.8393  2.2655 -1.9562
 6332TIP3    H219003   4.523   4.680   1.541  0.2115  0.2376 -0.4252
 6333TIP3   OH219004   6.056   1.956   0.615  0.0841  0.4744 -0.1345
 6333TIP3    H119005   6.045   1.892   0.686  2.8090 -0.1971 -0.2112
 6333TIP3    H219006   6.022   1.911   0.537 -1.2612  0.5192  0.4079
 6334TIP3   OH219007   3.065   4.509   1.512 -0.1764  0.1393 -0.0216
 6334TIP3    H119008   3.075   4.591   1.559 -0.7714 -0.2864  0.8665
 6334TIP3    H219009   3.014   4.453   1.570 -1.5721 -0.1715 -1.4596
 6335TIP3   OH219010   5.050   0.308   3.403  0.4823 -0.6698  0.1615
 6335TIP3    H119011   5.061   0.337   3.493 -0.1783 -0.6697  0.2442
 6335TIP3    H219012   5.098   0.373   3.351  2.7409 -1.8667  0.6357
 6336TIP3   OH219013   0.198   0.757   4.337  0.2554 -0.3754  0.1233
 6336TIP3    H119014   0.155   0.843   4.330 -0.7696 -0.7785  1.0673
 6336TIP3    H219015   0.129   0.694   4.313  0.7203 -0.9758  0.3431
 6337TIP3   OH219016   1.218   5.221   3.709  0.8003 -0.3413 -0.6463
 6337TIP3    H119017   1.133   5.195   3.673  0.3808 -0.6047  0.4862
 6337TIP3    H219018   1.215   5.316   3.714  0.7317 -0.3250 -0.9749
 6338TIP3   OH219019   0.326   4.336   2.460  0.0252 -0.2409  0.3413
 6338TIP3    H119020   0.264   4.325   2.532 -0.1371  1.2638  0.4549
 6338TIP3    H219021   0.289   4.406   2.406  2.0836  1.4445  0.9713
 6339TIP3   OH219022   4.991   2.711   0.242  0.2435  0.7043  0.8862
 6339TIP3    H119023   5.031   2.641   0.190  0.7768  1.4775  0.2253
 6339TIP3    H219024   5.020   2.694   0.331 -0.6244 -0.6085  0.9529
 6340TIP3   OH219025   0.966   5.551   3.837 -0.1256  0.0805  0.1689
 6340TIP3    H119026   0.936   5.489   3.904  0.0229 -2.1836 -1.7255
 6340TIP3    H219027   1.043   5.592   3.876 -0.3649 -0.7495  1.6105
 6341TIP3   OH219028   2.085   3.590   4.544 -0.0372 -0.3313 -0.1607
 6341TIP3    H119029   2.040   3.624   4.622  0.5797 -1.4500  0.7275
 6341TIP3    H219030   2.014   3.565   4.485 -0.6104 -1.2717  0.8628
 6342TIP3   OH219031   1.496   5.333   4.482  0.3440 -0.0511  0.2884
 6342TIP3    H119032   1.409   5.321   4.519  0.0480  0.9451 -0.0553
 6342TIP3    H219033   1.480   5.361   4.392  1.0409 -1.2439 -0.2345
 6343TIP3   OH219034   6.334   4.498   3.455  0.9853  0.2933  0.2182
 6343TIP3    H119035   6.367   4.442   3.525  1.6234 -0.8690 -0.9763
 6343TIP3    H219036   6.327   4.440   3.379 -0.4617  1.3380 -0.4872
 6344TIP3   OH219037   3.275   4.837   3.359 -0.1845 -0.3918  0.2781
 6344TIP3    H119038   3.349   4.888   3.393 -0.7208 -0.0188  0.9361
 6344TIP3    H219039   3.222   4.818   3.437 -0.7019 -0.7778 -0.1618
 6345TIP3   OH219040   2.491   1.972   4.350 -0.1889  0.0353  0.3626
 6345TIP3    H119041   2.416   1.963   4.291 -0.7006  0.6730  0.9060
 6345TIP3    H219042   2.456   1.950   4.436  0.5003 -0.6556  0.4752
 6346TIP3   OH219043   4.187   3.562   3.152 -0.6118 -0.9643  0.0286
 6346TIP3    H119044   4.191   3.471   3.182 -0.7016 -0.5179  1.4449
 6346TIP3    H219045   4.278   3.590   3.146 -0.5991 -1.0074  0.0144
 6347TIP3   OH219046   2.172   2.253   4.485  0.1562 -0.2406  0.1235
 6347TIP3    H119047   2.129   2.326   4.439  3.2998  0.9455 -1.2184
 6347TIP3    H219048   2.127   2.175   4.453 -0.1526  0.8148 -2.2413
 6348TIP3   OH219049   3.869   0.957   2.942 -0.3882  0.7560 -0.1074
 6348TIP3    H119050   3.881   0.973   3.035 -2.0703  0.3378  0.2220
 6348TIP3    H219051   3.853   0.863   2.935  2.1474  0.3216 -1.1501
 6349TIP3   OH219052   0.216   4.797   3.662 -0.2934  0.5193  0.2241
 6349TIP3    H119053   0.249   4.886   3.673  1.1556  0.1020 -0.4569
 6349TIP3    H219054   0.133   4.807   3.616 -1.5618  1.6686  2.5817
 6350TIP3   OH219055   1.180   0.588   5.206  0.5312 -0.7162 -0.2771
 6350TIP3    H119056   1.270   0.619   5.207  0.1790  0.7908 -3.2555
 6350TIP3    H219057   1.172   0.542   5.123 -1.5731 -0.3160 -0.3484
 6351TIP3   OH219058   5.331   5.364   0.433 -0.2401  0.0952  0.0572
 6351TIP3    H119059   5.419   5.373   0.395  0.7426 -1.5784  1.7696
 6351TIP3    H219060   5.274   5.348   0.357  1.2811 -0.9264 -0.9376
 6352TIP3   OH219061   0.850   3.794   1.809  0.0760 -0.2847  0.2831
 6352TIP3    H119062   0.844   3.886   1.835  1.6564  0.1016 -0.6178
 6352TIP3    H219063   0.814   3.791   1.721 -1.0584 -0.7641  0.7472
 6353TIP3   OH219064   2.951   1.582   0.874  0.3420  0.5479  0.5062
 6353TIP3    H119065   2.905   1.517   0.821  0.5423 -0.0882  1.0950
 6353TIP3    H219066   2.981   1.533   0.951 -1.1667  1.7537  1.9255
 6354TIP3   OH219067   0.800   5.392   1.629  0.5904 -0.1300  0.4870
 6354TIP3    H119068   0.794   5.298   1.613 -0.6707  0.0174  0.0150
 6354TIP3    H219069   0.894   5.412   1.619  0.8383 -1.2784  0.3600
 6355TIP3   OH219070   4.678   3.822   3.603 -0.7909  0.3371  0.6018
 6355TIP3    H119071   4.657   3.825   3.509  1.6800  0.1279 -0.0333
 6355TIP3    H219072   4.644   3.904   3.638 -0.0798  1.3332 -0.9184
 6356TIP3   OH219073   4.809   2.742   2.639 -0.3990  0.5203  0.2620
 6356TIP3    H119074   4.729   2.727   2.690  0.8729  0.6905  2.4553
 6356TIP3    H219075   4.844   2.654   2.623 -0.7525  0.4711 -0.2610
 6357TIP3   OH219076   0.278   1.407   2.764 -0.6368  0.1417 -0.1888
 6357TIP3    H119077   0.324   1.323   2.766 -1.2981 -0.2930 -1.7894
 6357TIP3    H219078   0.301   1.448   2.847  0.6847 -1.0894  0.1041
 6358TIP3   OH219079   2.219   2.785   0.474  0.4891  0.0628  0.8123
 6358TIP3    H119080   2.247   2.700   0.441 -3.8575 -1.4624  0.4191
 6358TIP3    H219081   2.235   2.780   0.568  3.1079  0.1476  0.4353
 6359TIP3   OH219082   0.329   4.327   0.032  0.0826 -0.5989  0.1471
 6359TIP3    H119083   0.317   4.263   0.103  0.5600  1.8837  2.6343
 6359TIP3    H219084   0.399   4.290  -0.022 -2.2242 -3.9635 -0.8835
 6360TIP3   OH219085   4.250   3.192   0.410  0.4536 -0.1576  0.0341
 6360TIP3    H119086   4.159   3.164   0.396  0.3092  1.5136 -3.3979
 6360TIP3    H219087   4.242   3.274   0.459  0.0452  0.1741 -0.5677
 6361TIP3   OH219088   0.120   4.644   0.390 -0.7386  0.0925  0.0630
 6361TIP3    H119089   0.198   4.590   0.386 -0.9412 -0.4214  2.0598
 6361TIP3    H219090   0.065   4.613   0.318  1.5935  1.7417 -2.6134
 6362TIP3   OH219091   4.874   2.829   2.371  0.1284  0.1167  0.2356
 6362TIP3    H119092   4.856   2.923   2.365 -1.6188 -0.2689 -1.9075
 6362TIP3    H219093   4.840   2.803   2.457  0.4793  1.3977  0.7805
 6363TIP3   OH219094   5.450   5.771   2.809 -0.2626  0.0612 -0.7909
 6363TIP3    H119095   5.545   5.758   2.800 -0.0420  1.8216 -1.2509
 6363TIP3    H219096   5.413   5.729   2.732 -0.2213 -3.4033  0.8445
 6364TIP3   OH219097   1.823   2.309   0.047  0.0414 -0.6049 -0.1586
 6364TIP3    H119098   1.814   2.248  -0.026 -0.0177 -2.6707  1.4570
 6364TIP3    H219099   1.738   2.306   0.091  0.8038 -1.3675  1.3726
 6365TIP3   OH219100   5.018   2.967   3.767  0.0626 -0.2717 -0.0397
 6365TIP3    H119101   5.105   2.980   3.731  0.0336 -1.8117 -0.7392
 6365TIP3    H219102   4.959   2.980   3.693 -0.3170  0.6359  0.4019
 6366TIP3   OH219103   0.333   3.657   0.205 -0.1771 -0.1141  0.3661
 6366TIP3    H119104   0.290   3.574   0.226  0.1444 -0.2941  0.3200
 6366TIP3    H219105   0.276   3.698   0.141  0.5622 -1.1128 -0.9830
 6367TIP3   OH219106   0.510   5.426   1.709  0.2029  0.5105 -0.1978
 6367TIP3    H119107   0.524   5.333   1.725  0.2638 -0.0487 -3.0442
 6367TIP3    H219108   0.598   5.463   1.706  0.1597  0.9363  1.9312
 6368TIP3   OH219109   4.438   5.753   4.035  0.0826  0.0251  0.3689
 6368TIP3    H119110   4.431   5.669   4.082 -1.0430 -0.0302  0.1413
 6368TIP3    H219111   4.382   5.812   4.085 -0.1608  0.2908 -0.2206
 6369TIP3   OH219112   0.323   1.827   2.783  0.4845  0.2173 -0.2721
 6369TIP3    H119113   0.247   1.886   2.783 -0.0259 -0.3290 -2.9663
 6369TIP3    H219114   0.399   1.886   2.780  0.0406  0.7726 -0.9022
 6370TIP3   OH219115   2.025   2.352   2.011  0.2789  0.1166  0.1347
 6370TIP3    H119116   1.999   2.422   2.070 -1.2333 -0.9132  0.7759
 6370TIP3    H219117   1.979   2.274   2.045 -1.7723 -0.2700 -3.0768
 6371TIP3   OH219118   2.613   3.536   0.093 -0.3379 -0.0631  0.0555
 6371TIP3    H119119   2.529   3.559   0.052  0.3798  0.0636 -1.3833
 6371TIP3    H219120   2.647   3.619   0.126 -0.3880  0.0247 -0.1100
 6372TIP3   OH219121   4.931   5.597   1.771  0.6034 -0.1487 -0.1455
 6372TIP3    H119122   4.874   5.521   1.761 -0.5950  0.5344  1.0591
 6372TIP3    H219123   4.877   5.671   1.745  0.5156  0.6357  2.0599
 6373TIP3   OH219124   2.687   4.721   1.085  0.6870  0.0628 -0.2740
 6373TIP3    H119125   2.592   4.708   1.091  0.5010  1.2348 -0.3598
 6373TIP3    H219126   2.724   4.633   1.089 -0.4004 -0.4039 -0.1444
 6374TIP3   OH219127   0.623   4.017   4.584 -0.1846 -0.1837  0.0181
 6374TIP3    H119128   0.715   4.029   4.559 -0.4281  0.3085 -0.6944
 6374TIP3    H219129   0.594   4.105   4.610 -0.1471 -0.5533  1.3807
 6375TIP3   OH219130   4.076   2.875   2.756  0.9073  0.2971 -0.2019
 6375TIP3    H119131   4.023   2.870   2.835  1.6250  0.6927  0.3086
 6375TIP3    H219132   4.017   2.844   2.686  0.4352 -0.5570  0.5503
 6376TIP3   OH219133   2.891   3.976   2.884 -0.0286 -0.5803 -0.4124
 6376TIP3    H119134   2.866   3.883   2.891 -0.3733 -0.4430  0.2447
 6376TIP3    H219135   2.852   4.005   2.802  0.7531 -1.2232 -1.0295
 6377TIP3   OH219136   0.372   4.242   0.801 -0.6688 -0.1044  0.1908
 6377TIP3    H119137   0.323   4.176   0.751 -0.8650 -0.4004  0.7648
 6377TIP3    H219138   0.304   4.291   0.847 -0.4798  0.0949  0.2544
 6378TIP3   OH219139   2.636   1.707   0.011 -0.4571 -0.4254 -0.1957
 6378TIP3    H119140   2.697   1.735   0.080 -0.4310  0.0835 -0.4233
 6378TIP3    H219141   2.677   1.736  -0.070 -1.0786  0.0752 -0.3410
 6379TIP3   OH219142   3.486   0.367   3.665 -0.8465  0.1947 -0.3752
 6379TIP3    H119143   3.443   0.285   3.689  1.3656 -0.1818  2.9130
 6379TIP3    H219144   3.563   0.340   3.615 -0.3376  0.2881  0.3559
 6380TIP3   OH219145   5.195   0.986   4.742  0.1415  0.1614 -0.1976
 6380TIP3    H119146   5.117   0.974   4.688  0.1800 -2.3417  0.1808
 6380TIP3    H219147   5.171   0.949   4.827  0.9715  1.5894  0.7055
 6381TIP3   OH219148   3.057   3.350   0.500 -0.4953 -0.6663  0.6914
 6381TIP3    H119149   3.075   3.350   0.594  0.8128  1.5776  0.5026
 6381TIP3    H219150   3.140   3.325   0.459 -0.7718 -0.6471  0.0976
 6382TIP3   OH219151   3.669   2.425   4.985 -0.1301 -0.0503 -0.4396
 6382TIP3    H119152   3.673   2.489   5.056  0.8855  1.0414 -1.4422
 6382TIP3    H219153   3.612   2.466   4.920  0.0111 -0.4570 -0.8209
 6383TIP3   OH219154   5.550   2.477   1.667  0.0196  0.4781 -0.4636
 6383TIP3    H119155   5.611   2.551   1.678 -1.2424  1.6366 -0.9309
 6383TIP3    H219156   5.489   2.486   1.740 -0.2845  0.0213 -0.6593
 6384TIP3   OH219157   0.589   2.395   4.347  0.1679  0.4178  0.1688
 6384TIP3    H119158   0.641   2.467   4.311 -0.2921  0.3541 -0.6513
 6384TIP3    H219159   0.592   2.407   4.442  1.3353  0.6474  0.1085
 6385TIP3   OH219160   1.059   2.422   4.429  0.1691  0.0462 -0.0379
 6385TIP3    H119161   1.143   2.403   4.470  0.7981 -1.6368 -1.9268
 6385TIP3    H219162   1.000   2.354   4.462 -0.3723  0.9863  0.9780
 6386TIP3   OH219163   2.103   5.932   2.973  0.4665  0.0491  0.2074
 6386TIP3    H119164   2.015   5.940   3.011  0.9251  0.4349  1.2343
 6386TIP3    H219165   2.104   5.845   2.933 -0.1183 -0.3051  0.9237
 6387TIP3   OH219166   0.592   1.602   1.494 -0.2137 -0.6118  0.1230
 6387TIP3    H119167   0.519   1.542   1.511 -1.8368  1.3285  0.4171
 6387TIP3    H219168   0.661   1.573   1.553 -2.5102  0.3829  3.6032
 6388TIP3   OH219169   3.652   0.542   3.807 -0.0824  0.6043 -0.1834
 6388TIP3    H119170   3.696   0.548   3.723  1.8598 -1.3006  0.5928
 6388TIP3    H219171   3.571   0.493   3.789  0.8736 -0.8066 -0.7892
 6389TIP3   OH219172   4.179   3.988   0.625 -0.0364 -0.5504 -0.5478
 6389TIP3    H119173   4.215   4.072   0.655 -2.8921  0.8370 -0.7425
 6389TIP3    H219174   4.169   3.937   0.706  2.0352 -0.9327 -0.4636
 6390TIP3   OH219175   3.824   5.963   3.267 -0.4100 -0.3610 -0.0218
 6390TIP3    H119176   3.890   6.001   3.209  1.8112 -1.3510  1.7160
 6390TIP3    H219177   3.854   5.983   3.355 -1.9597 -1.6460  0.8708
 6391TIP3   OH219178   2.869   3.412   4.682 -0.3373 -0.3797 -0.6167
 6391TIP3    H119179   2.808   3.483   4.699 -0.5808 -0.4924 -1.0214
 6391TIP3    H219180   2.815   3.341   4.647 -0.6030 -1.8178  2.3517
 6392TIP3   OH219181   2.049   3.059   3.377  0.1160  0.2004  0.8298
 6392TIP3    H119182   2.106   2.983   3.384  1.5914  1.3729  2.3473
 6392TIP3    H219183   2.044   3.078   3.283 -0.2168 -1.6740  0.4341
 6393TIP3   OH219184   2.720   5.508   3.283  0.4157 -0.0136 -0.2056
 6393TIP3    H119185   2.715   5.600   3.256  1.3160  0.4478  1.1194
 6393TIP3    H219186   2.793   5.472   3.232  0.4615  0.1677 -0.2660
 6394TIP3   OH219187   2.324   1.217   0.599 -0.0351 -0.3279 -0.3345
 6394TIP3    H119188   2.324   1.312   0.609  0.9819 -0.2574 -0.8930
 6394TIP3    H219189   2.277   1.185   0.676 -1.5386  0.6710 -0.8096
 6395TIP3   OH219190   0.045   5.616   0.494  0.6333  0.7230 -0.3800
 6395TIP3    H119191   0.051   5.711   0.482 -0.5416  0.8174 -0.3352
 6395TIP3    H219192  -0.049   5.597   0.488  0.9136 -0.5340 -1.0999
 6396TIP3   OH219193   4.198   1.334   1.738  0.4616  0.0720 -0.1994
 6396TIP3    H119194   4.159   1.297   1.659  1.8273  0.8706 -1.2728
 6396TIP3    H219195   4.191   1.263   1.803 -0.7802 -0.5490 -0.9652
 6397TIP3   OH219196   2.041   3.142   4.203 -0.4037  0.2130  0.2925
 6397TIP3    H119197   1.959   3.108   4.240 -0.8179  0.0578 -0.7222
 6397TIP3    H219198   2.065   3.214   4.260 -0.9320 -0.1296  0.9582
 6398TIP3   OH219199   3.156   3.446   1.095  0.3413  0.4893  0.4601
 6398TIP3    H119200   3.078   3.403   1.131 -0.2460 -0.0094 -1.2955
 6398TIP3    H219201   3.136   3.539   1.100  0.0980  0.4103  1.0227
 6399TIP3   OH219202   0.022   2.588   4.706  0.1354  0.3657 -0.4620
 6399TIP3    H119203   0.082   2.571   4.779  0.7025  0.6071 -0.8674
 6399TIP3    H219204   0.029   2.682   4.691 -1.2301  0.5985  0.2500
 6400TIP3   OH219205   1.177   3.017   0.453  0.3525 -0.1174 -0.1427
 6400TIP3    H119206   1.233   2.973   0.517 -0.1205 -0.9520 -0.2875
 6400TIP3    H219207   1.174   2.957   0.378 -1.4084 -0.5340  0.1979
 6401TIP3   OH219208   5.486   1.299   3.937 -0.1046  0.0505 -0.3020
 6401TIP3    H119209   5.411   1.240   3.934 -0.1174  0.1112 -1.8521
 6401TIP3    H219210   5.477   1.354   3.860  1.2177  0.4504 -0.2036
 6402TIP3   OH219211   2.083   3.344   3.668  0.2676  0.1034  0.0222
 6402TIP3    H119212   2.081   3.411   3.737  0.0788 -1.0508  1.1768
 6402TIP3    H219213   2.097   3.262   3.715 -0.2614 -0.7671 -1.2927
 6403TIP3   OH219214   3.585   4.336   2.306  0.5959 -0.2573  0.3391
 6403TIP3    H119215   3.581   4.244   2.280  1.3110 -0.0366 -0.5915
 6403TIP3    H219216   3.677   4.351   2.326  0.5016  0.2903  0.3651
 6404TIP3   OH219217   4.761   4.272   4.010 -0.2679  0.1196 -0.0084
 6404TIP3    H119218   4.800   4.258   3.924 -0.8995 -2.6770  0.0482
 6404TIP3    H219219   4.810   4.214   4.069 -0.2670  1.4861  1.4095
 6405TIP3   OH219220   0.035   0.338   2.988  0.3558 -0.0741  0.3359
 6405TIP3    H119221   0.054   0.413   3.043 -0.2619 -1.2798  2.2918
 6405TIP3    H219222   0.087   0.267   3.025 -1.1595 -1.2688  0.3031
 6406TIP3   OH219223   1.023   3.867   4.219  0.1487  0.1768 -0.4790
 6406TIP3    H119224   0.931   3.863   4.190 -0.6483 -0.1165  1.8294
 6406TIP3    H219225   1.032   3.793   4.278  0.8187  2.0820  2.0024
 6407TIP3   OH219226   2.746   5.714   0.787 -0.0672  0.1772 -0.2568
 6407TIP3    H119227   2.792   5.786   0.743  0.4846  0.0024  0.0256
 6407TIP3    H219228   2.654   5.739   0.785 -0.1084  0.0174 -1.8392
 6408TIP3   OH219229   6.276   4.174   2.869 -0.0462 -0.2806 -0.4439
 6408TIP3    H119230   6.371   4.169   2.883 -0.0887 -2.5188 -0.5329
 6408TIP3    H219231   6.238   4.145   2.952 -0.5927 -0.9364 -0.9047
 6409TIP3   OH219232   5.353   4.495   4.877 -0.8941 -0.5905 -0.7314
 6409TIP3    H119233   5.350   4.419   4.819 -2.3371 -0.2988 -1.0741
 6409TIP3    H219234   5.386   4.566   4.821  1.9408 -1.2272 -0.0288
 6410TIP3   OH219235   3.519   0.181   4.522 -0.2564  0.0923  0.1524
 6410TIP3    H119236   3.582   0.190   4.594 -0.8602  0.2763  0.6589
 6410TIP3    H219237   3.488   0.269   4.505  0.0355  0.0799 -0.4841
 6411TIP3   OH219238   2.610   5.673   3.007  0.3169  0.2188 -0.4129
 6411TIP3    H119239   2.601   5.669   2.912 -1.5371  1.8190 -0.3547
 6411TIP3    H219240   2.550   5.606   3.039  2.0356 -1.3646 -0.3413
 6412TIP3   OH219241   2.135   3.744   3.175  0.0830 -0.3303 -0.4950
 6412TIP3    H119242   2.131   3.669   3.234 -1.1683  0.9280  1.1266
 6412TIP3    H219243   2.225   3.775   3.180  0.1673 -0.6714  0.2191
 6413TIP3   OH219244   5.430   4.684   4.321  0.1674  0.1804 -0.1096
 6413TIP3    H119245   5.375   4.629   4.377 -0.0836  1.0678  0.5343
 6413TIP3    H219246   5.507   4.702   4.375  2.7685 -3.7274 -2.1008
 6414TIP3   OH219247   6.059   3.212   3.523 -0.0809  0.4211  0.3624
 6414TIP3    H119248   6.026   3.274   3.589  1.0396  0.3166  1.0390
 6414TIP3    H219249   6.080   3.133   3.573 -1.2104 -0.4230 -0.4548
 6415TIP3   OH219250   5.755   3.968   1.079  0.0934  0.1143 -0.2688
 6415TIP3    H119251   5.806   3.904   1.129 -1.4575 -2.0807 -1.3601
 6415TIP3    H219252   5.728   4.033   1.144 -0.7300 -1.9143  1.5519
 6416TIP3   OH219253   0.463   3.015   0.469 -0.0062 -0.1677 -0.3518
 6416TIP3    H119254   0.445   3.064   0.389 -1.3421 -0.5587 -0.3113
 6416TIP3    H219255   0.474   2.925   0.440 -0.1068 -0.2483 -0.1464
 6417TIP3   OH219256   3.260   5.642   0.130 -0.1708 -0.2993  0.0627
 6417TIP3    H119257   3.334   5.660   0.188  0.1098  0.1287 -0.4261
 6417TIP3    H219258   3.190   5.698   0.164  0.1467  0.3421 -0.3098
 6418TIP3   OH219259   3.219   3.482   3.651 -0.0167  0.0540  0.0753
 6418TIP3    H119260   3.224   3.515   3.562 -0.8907  0.5456  0.1982
 6418TIP3    H219261   3.179   3.553   3.701  2.2532  0.5846  1.2818
 6419TIP3   OH219262   1.799   0.956   5.160 -0.1262 -0.5089  0.4485
 6419TIP3    H119263   1.762   0.884   5.109 -1.2947  1.3993 -1.5383
 6419TIP3    H219264   1.875   0.984   5.108 -0.1290  0.1756  0.8149
 6420TIP3   OH219265   2.233   2.797   1.636 -0.0537  0.1979  0.1766
 6420TIP3    H119266   2.276   2.879   1.660 -1.7764  1.0293  0.6007
 6420TIP3    H219267   2.250   2.788   1.542  1.8515 -0.0498  0.5055
 6421TIP3   OH219268   1.504   4.533   4.276 -0.3908 -0.4233 -0.1713
 6421TIP3    H119269   1.507   4.621   4.238 -3.1583 -1.1986 -2.4857
 6421TIP3    H219270   1.549   4.477   4.212  2.1268 -0.6944  1.6836
 6422TIP3   OH219271   3.458   1.685   0.253 -0.1043 -0.1970  0.1154
 6422TIP3    H119272   3.437   1.770   0.216  0.6852  0.5630  1.3417
 6422TIP3    H219273   3.553   1.677   0.244  0.0505 -0.1774  1.5460
 6423TIP3   OH219274   1.919   4.657   1.884  0.0864 -0.0047 -0.6065
 6423TIP3    H119275   1.856   4.721   1.850 -0.5146  0.4544  1.2525
 6423TIP3    H219276   1.974   4.708   1.944 -0.5789 -1.2402  1.1300
 6424TIP3   OH219277   3.853   5.104   1.019  0.1041 -0.8078 -0.1700
 6424TIP3    H119278   3.857   5.028   1.078  0.5134 -0.4040  0.3249
 6424TIP3    H219279   3.865   5.067   0.932 -1.0071 -1.4803 -0.0585
 6425TIP3   OH219280   0.785   0.294   0.985  0.0661 -0.1442 -0.5605
 6425TIP3    H119281   0.783   0.199   0.991 -0.2836 -0.0882  0.3450
 6425TIP3    H219282   0.714   0.324   1.042  0.5479  0.6749 -0.3723
 6426TIP3   OH219283   4.663   1.111   2.228  0.0253  0.0210 -0.2258
 6426TIP3    H119284   4.607   1.181   2.194 -0.8013 -0.8736 -0.7834
 6426TIP3    H219285   4.734   1.156   2.273 -0.1611  1.2247 -1.0877
 6427TIP3   OH219286   0.378   2.157   1.287  0.4026  0.4471  0.0902
 6427TIP3    H119287   0.324   2.144   1.365  0.9108  0.1955  0.4070
 6427TIP3    H219288   0.425   2.239   1.305  1.6405 -0.3691  0.7251
 6428TIP3   OH219289   2.509   2.107   4.724 -0.1213  0.1515  0.0944
 6428TIP3    H119290   2.568   2.143   4.657 -0.3484  0.0465 -0.1685
 6428TIP3    H219291   2.564   2.092   4.800  0.2665 -0.2879 -0.2671
 6429TIP3   OH219292   1.103   4.426   0.666  0.0468  0.0173 -0.7438
 6429TIP3    H119293   1.076   4.512   0.633 -1.2124  0.1720  0.5673
 6429TIP3    H219294   1.102   4.436   0.761 -0.2022 -1.4711 -0.5677
 6430TIP3   OH219295   0.733   0.333   0.718  0.4146  0.3283 -0.0789
 6430TIP3    H119296   0.645   0.370   0.725  0.5210  0.5739 -0.0571
 6430TIP3    H219297   0.754   0.306   0.808  0.1043 -0.3240 -0.1915
 6431TIP3   OH219298   1.291   3.633   2.622 -0.2826  0.2468  0.3695
 6431TIP3    H119299   1.318   3.544   2.645 -1.0308 -0.0719  0.0419
 6431TIP3    H219300   1.303   3.683   2.702 -2.5762 -0.7779  1.4661
 6432TIP3   OH219301   5.651   1.889   1.786 -0.3281 -0.3454 -0.3844
 6432TIP3    H119302   5.569   1.854   1.820 -1.8326  2.7306 -0.4587
 6432TIP3    H219303   5.690   1.935   1.860  0.9095 -1.0138 -0.5908
 6433TIP3   OH219304   5.961   5.731   3.705  0.7184 -1.0549  0.2019
 6433TIP3    H119305   5.961   5.815   3.750  1.8608 -0.4283 -0.9073
 6433TIP3    H219306   5.868   5.707   3.699  0.3096  0.5098 -0.1553
 6434TIP3   OH219307   2.461   5.780   2.553  0.4303  0.1390  0.0572
 6434TIP3    H119308   2.429   5.860   2.511 -1.2322 -0.0265  0.8999
 6434TIP3    H219309   2.544   5.806   2.594 -0.4026  1.6630  0.8932
 6435TIP3   OH219310   2.432   0.405   4.977  0.7400 -0.1639  0.5097
 6435TIP3    H119311   2.403   0.451   5.055  2.9465  0.0280  1.2937
 6435TIP3    H219312   2.375   0.437   4.907  0.6946  2.0081  1.4723
 6436TIP3   OH219313   0.311   4.415   4.269  0.8175 -0.1243 -0.3399
 6436TIP3    H119314   0.382   4.351   4.277 -0.0235 -1.0120  0.1566
 6436TIP3    H219315   0.304   4.431   4.175  1.5560 -0.1617 -0.4075
 6437TIP3   OH219316   4.012   4.487   2.857  0.1235  0.0577  0.9187
 6437TIP3    H119317   4.046   4.418   2.801 -0.2319  0.2176  0.5063
 6437TIP3    H219318   4.086   4.546   2.871  0.1487  0.1384  0.4337
 6438TIP3   OH219319   0.091   0.861   0.570  0.0565  0.2077 -0.2566
 6438TIP3    H119320   0.171   0.816   0.598 -1.1071 -2.0431 -0.3049
 6438TIP3    H219321   0.071   0.922   0.640  1.5803  0.4877 -0.0496
 6439TIP3   OH219322   2.637   5.532   4.892 -0.4483 -0.2285 -0.0547
 6439TIP3    H119323   2.674   5.558   4.808 -1.7407  1.2945 -0.1949
 6439TIP3    H219324   2.713   5.506   4.944  0.4503 -0.4466 -1.4241
 6440TIP3   OH219325   5.096   3.268   3.881  0.2675  0.1977  0.2595
 6440TIP3    H119326   5.098   3.293   3.789  1.3793  1.5564  0.6182
 6440TIP3    H219327   5.077   3.174   3.880 -1.2613  0.4804 -1.2767
 6441TIP3   OH219328   1.797   4.870   4.281 -0.0747 -0.8084 -0.4715
 6441TIP3    H119329   1.883   4.842   4.250 -0.0616 -0.3299 -0.8810
 6441TIP3    H219330   1.811   4.958   4.315  0.1744 -1.7476  2.1031
 6442TIP3   OH219331   4.681   2.504   4.813  0.2115 -0.3889  0.3561
 6442TIP3    H119332   4.680   2.430   4.874 -1.0072 -1.6843 -1.1595
 6442TIP3    H219333   4.751   2.561   4.846  1.2608 -2.2432  1.5215
 6443TIP3   OH219334   2.068   3.708   3.669 -1.0151  0.3827  0.2024
 6443TIP3    H119335   2.045   3.685   3.579  2.7127  0.6292 -0.9621
 6443TIP3    H219336   2.037   3.633   3.721 -0.5923 -1.2068 -1.7213
 6444TIP3   OH219337   4.895   0.394   2.987 -0.4332  0.1720  0.5531
 6444TIP3    H119338   4.916   0.310   3.030 -2.5782  0.3801  2.2083
 6444TIP3    H219339   4.852   0.445   3.056  0.0353  2.3357 -0.6751
 6445TIP3   OH219340   5.086   4.425   3.956 -0.2680  0.0831 -0.3848
 6445TIP3    H119341   5.109   4.371   4.032  1.1047  1.9833  0.6410
 6445TIP3    H219342   5.135   4.387   3.883  2.5500  1.1798  0.7828
 6446TIP3   OH219343   1.357   3.381   3.856 -0.4683  0.4999 -0.2083
 6446TIP3    H119344   1.424   3.441   3.824 -0.1378  1.2453  1.7613
 6446TIP3    H219345   1.381   3.296   3.817  1.0136  0.9633 -0.3725
 6447TIP3   OH219346   1.716   1.341   0.985  0.6292 -0.0362  0.5315
 6447TIP3    H119347   1.767   1.417   1.014  0.5626  0.5306 -0.7494
 6447TIP3    H219348   1.780   1.270   0.977  1.3835  0.7854 -1.5161
 6448TIP3   OH219349   3.797   1.646   3.878  0.2090 -0.2634  0.2445
 6448TIP3    H119350   3.889   1.628   3.897  1.0245  0.7369 -2.2894
 6448TIP3    H219351   3.770   1.573   3.822  0.1095  0.5050 -0.7224
 6449TIP3   OH219352   2.113   2.245   0.061 -0.3938  0.2076 -0.5719
 6449TIP3    H119353   2.035   2.251   0.116  0.1035  0.8276  0.0767
 6449TIP3    H219354   2.078   2.228  -0.027 -1.2639  0.5216 -0.3032
 6450TIP3   OH219355   3.351   1.681   2.402 -0.1132 -0.0454  0.5596
 6450TIP3    H119356   3.280   1.710   2.346  0.7689  1.6479  0.2416
 6450TIP3    H219357   3.404   1.623   2.346 -0.6492 -0.4549  0.4721
 6451TIP3   OH219358   1.926   1.430   1.143  0.1562 -0.0009 -0.1866
 6451TIP3    H119359   1.981   1.438   1.220  1.3733 -1.5815 -0.8493
 6451TIP3    H219360   1.980   1.463   1.071 -1.1829  2.0449 -0.3373
 6452TIP3   OH219361   4.764   5.163   4.037 -0.0627  0.9669  0.0397
 6452TIP3    H119362   4.732   5.116   3.959 -0.1588  1.3925 -0.1790
 6452TIP3    H219363   4.685   5.191   4.082 -0.0504 -0.8233  1.2605
 6453TIP3   OH219364   5.267   2.364   0.379  0.3194 -0.5638 -0.3868
 6453TIP3    H119365   5.172   2.357   0.369  0.2004  0.6389 -0.1844
 6453TIP3    H219366   5.286   2.312   0.458 -0.2010 -0.5624 -0.2536
 6454TIP3   OH219367   2.786   5.908   1.484  0.5137  0.0279 -0.5147
 6454TIP3    H119368   2.716   5.939   1.427 -0.1819  0.1713  0.3947
 6454TIP3    H219369   2.780   5.963   1.562  1.4571 -0.1572 -0.2928
 6455TIP3   OH219370   1.092   4.700   0.298  0.2690  0.2680  0.4279
 6455TIP3    H119371   1.045   4.754   0.234 -2.0126 -1.3493  0.6461
 6455TIP3    H219372   1.173   4.675   0.253 -0.2004  1.0686 -0.9358
 6456TIP3   OH219373   6.130   1.809   4.530 -0.3269  0.0047  0.1619
 6456TIP3    H119374   6.092   1.722   4.539  0.9091 -0.3982  1.9740
 6456TIP3    H219375   6.119   1.849   4.616 -1.4235  1.9207 -0.7833
 6457TIP3   OH219376   0.960   3.459   4.545 -0.1234 -0.1345  0.1118
 6457TIP3    H119377   0.902   3.383   4.543 -0.0325 -0.2796  1.6356
 6457TIP3    H219378   0.989   3.464   4.636  1.2962  0.6642 -0.3600
 6458TIP3   OH219379   3.857   0.621   3.578 -0.2910 -0.4097  0.1581
 6458TIP3    H119380   3.915   0.549   3.604 -0.1430 -0.2486  0.2778
 6458TIP3    H219381   3.915   0.684   3.535 -0.2401  0.0916  0.9356
 6459TIP3   OH219382   1.168   5.319   0.677 -0.4433  0.4346  0.3167
 6459TIP3    H119383   1.249   5.268   0.685 -1.5810 -1.2550  1.8641
 6459TIP3    H219384   1.108   5.261   0.630 -0.5804  1.9881 -1.5670
 6460TIP3   OH219385   1.432   4.281   1.404  0.3391  0.2202 -0.5099
 6460TIP3    H119386   1.399   4.354   1.351  0.4903 -0.0107 -0.9333
 6460TIP3    H219387   1.458   4.320   1.487  0.0513  0.5848 -0.5894
 6461TIP3   OH219388   6.177   4.920   1.987  0.1584  0.0623 -0.5345
 6461TIP3    H119389   6.165   5.007   2.026 -1.4400 -0.0212 -0.7810
 6461TIP3    H219390   6.185   4.937   1.894  0.7011  0.0030 -0.5010
 6462TIP3   OH219391   2.681   1.045   4.668 -0.2543  0.0787 -0.0520
 6462TIP3    H119392   2.691   0.992   4.590  0.3138 -1.3985  0.9835
 6462TIP3    H219393   2.757   1.023   4.722 -0.0527  1.8751  0.4756
 6463TIP3   OH219394   3.095   2.084   1.121 -0.7391  0.1068 -0.1742
 6463TIP3    H119395   3.157   2.049   1.056 -0.7248 -1.5529  0.6877
 6463TIP3    H219396   3.012   2.088   1.075 -0.7280 -1.0570 -0.3101
 6464TIP3   OH219397   0.587   1.972   0.974 -0.6053 -0.4317 -0.5985
 6464TIP3    H119398   0.604   1.949   1.065 -1.9784 -1.0269 -0.4622
 6464TIP3    H219399   0.667   2.016   0.944 -0.1883 -0.1143  0.9237
 6465TIP3   OH219400   0.234   3.387   1.831 -0.5218  0.5116 -0.4024
 6465TIP3    H119401   0.244   3.398   1.737 -0.7232 -0.0024 -0.4873
 6465TIP3    H219402   0.323   3.397   1.866 -0.0533 -1.4945 -0.8864
 6466TIP3   OH219403   4.544   4.647   4.392 -0.1016 -0.4815  0.5541
 6466TIP3    H119404   4.617   4.602   4.349 -0.7816 -1.4080  0.3655
 6466TIP3    H219405   4.587   4.699   4.460  0.9458  0.6353 -0.8858
 6467TIP3   OH219406   3.721   1.024   1.075 -0.6939  0.1912 -0.7570
 6467TIP3    H119407   3.728   0.928   1.072 -1.3979  0.1551 -1.2966
 6467TIP3    H219408   3.775   1.054   1.003  1.1841  0.3090  0.6243
 6468TIP3   OH219409   1.959   5.331   0.120  0.4650 -0.1755 -0.2770
 6468TIP3    H119410   2.028   5.274   0.087  0.9833 -0.1708  0.7536
 6468TIP3    H219411   1.968   5.326   0.215  0.5112  1.6080 -0.1602
 6469TIP3   OH219412   0.682   0.675   4.664  0.1756 -0.1076 -0.3710
 6469TIP3    H119413   0.705   0.764   4.639  0.7808 -0.7787 -2.3626
 6469TIP3    H219414   0.606   0.685   4.721  2.0682  1.8407  2.0624
 6470TIP3   OH219415   2.807   2.106   2.499  0.1766  0.4803 -0.5836
 6470TIP3    H119416   2.726   2.115   2.449 -0.7651 -2.5278  0.1710
 6470TIP3    H219417   2.812   2.185   2.552 -2.0478  0.9319 -0.9687
 6471TIP3   OH219418   2.861   5.774   3.091  0.0663  0.5170 -0.8046
 6471TIP3    H119419   2.845   5.868   3.081  0.9560  0.6842 -0.7914
 6471TIP3    H219420   2.792   5.732   3.041  0.8134  1.2226 -2.4868
 6472TIP3   OH219421   3.501   2.640   1.117 -0.3790 -0.4241  0.4817
 6472TIP3    H119422   3.460   2.565   1.160 -3.4751  1.5936  1.4022
 6472TIP3    H219423   3.475   2.632   1.026 -3.0677  0.7805  1.0356
 6473TIP3   OH219424   0.250   0.356   3.732 -0.6232  0.4124  0.1870
 6473TIP3    H119425   0.266   0.269   3.768 -0.9199 -0.8141 -2.3851
 6473TIP3    H219426   0.164   0.380   3.765  0.2997  0.7117  2.5743
 6474TIP3   OH219427   5.470   2.958   3.036  0.6296 -0.8163  0.3857
 6474TIP3    H119428   5.474   2.862   3.030  1.8544 -0.8453  1.2324
 6474TIP3    H219429   5.456   2.975   3.129  0.1721 -0.1787  0.1998
 6475TIP3   OH219430   1.427   3.094   1.693  0.6192  0.1995  0.3843
 6475TIP3    H119431   1.472   3.114   1.776  0.8111  1.5908 -0.0344
 6475TIP3    H219432   1.476   3.143   1.627  0.3449 -0.7369 -0.5389
 6476TIP3   OH219433   4.957   2.083   2.173  0.0928 -0.5868 -0.5134
 6476TIP3    H119434   4.881   2.069   2.230  0.4057 -0.3209 -0.0203
 6476TIP3    H219435   4.923   2.073   2.084 -0.1933 -2.0717 -0.2651
 6477TIP3   OH219436   0.733   3.443   2.298 -0.3635 -0.7007  0.0207
 6477TIP3    H119437   0.725   3.390   2.378 -0.3736  1.5900  1.6258
 6477TIP3    H219438   0.735   3.533   2.329  0.3443  0.2517 -2.5604
 6478TIP3   OH219439   3.861   2.262   3.408  0.0000  0.1951  0.0721
 6478TIP3    H119440   3.809   2.300   3.479  0.7774  0.5496  0.4632
 6478TIP3    H219441   3.815   2.288   3.328 -1.2505 -0.7536  0.4402
 6479TIP3   OH219442   4.922   4.543   4.450 -0.0820  0.2956  0.2117
 6479TIP3    H119443   4.856   4.522   4.384  0.9612  0.6428 -0.9886
 6479TIP3    H219444   4.995   4.483   4.432 -0.0255 -0.0519  1.4810
 6480TIP3   OH219445   4.023   1.354   3.692 -0.2015  0.1710 -0.0375
 6480TIP3    H119446   3.936   1.390   3.673  0.4209  1.5218 -0.4163
 6480TIP3    H219447   4.030   1.357   3.787 -1.0288 -1.0995  0.0882
 6481TIP3   OH219448   2.930   1.431   1.873  0.4827  0.6968  0.6406
 6481TIP3    H119449   3.011   1.465   1.835 -0.8281  2.4954 -0.6964
 6481TIP3    H219450   2.891   1.506   1.917 -1.5181  0.4561 -0.6225
 6482TIP3   OH219451   2.073   0.674   4.281  0.0819 -0.0946  0.4699
 6482TIP3    H119452   2.117   0.749   4.322  2.4834  0.7442 -3.0969
 6482TIP3    H219453   1.982   0.703   4.270  0.4652  1.4579  1.0459
 6483TIP3   OH219454   2.668   0.618   4.708  0.1608  0.4278 -0.1096
 6483TIP3    H119455   2.749   0.667   4.718 -0.0706  0.9663 -0.8075
 6483TIP3    H219456   2.650   0.619   4.614 -0.2285 -0.3794 -0.0560
 6484TIP3   OH219457   5.353   0.626   4.923 -0.2948 -0.6598  0.3516
 6484TIP3    H119458   5.351   0.656   4.832 -0.8447 -0.6427  0.3620
 6484TIP3    H219459   5.435   0.578   4.931  1.7504  2.6482  0.9064
 6485TIP3   OH219460   1.121   1.275   1.236  0.1659 -0.0168  0.5859
 6485TIP3    H119461   1.138   1.264   1.330  0.6045 -1.7041  0.3392
 6485TIP3    H219462   1.156   1.362   1.216  0.0726  0.3730  1.9809
 6486TIP3   OH219463   4.047   2.594   4.865  0.4885  0.2282  0.4420
 6486TIP3    H119464   4.034   2.636   4.780 -0.2861  1.8103  1.3057
 6486TIP3    H219465   4.141   2.575   4.869  0.5262  0.1040 -0.7656
 6487TIP3   OH219466   4.304   4.178   0.798 -0.0778  0.2593 -0.1699
 6487TIP3    H119467   4.284   4.225   0.879  0.7535 -0.0509  0.2221
 6487TIP3    H219468   4.395   4.199   0.778 -0.0533 -0.2377 -0.6347
 6488TIP3   OH219469   4.309   3.952   2.607  0.1325 -0.5928 -0.4851
 6488TIP3    H119470   4.404   3.960   2.614 -0.0847  0.7235  2.2809
 6488TIP3    H219471   4.290   3.863   2.637  0.3895 -0.1019  1.2586
 6489TIP3   OH219472   0.403   4.433   4.556 -0.5444  0.2148  0.2511
 6489TIP3    H119473   0.402   4.413   4.462  0.2633 -2.2709  0.6953
 6489TIP3    H219474   0.318   4.404   4.588 -0.0753 -0.8295  0.5920
 6490TIP3   OH219475   1.787   1.780   4.786  0.4505 -0.1123 -0.6186
 6490TIP3    H119476   1.778   1.871   4.814 -1.4772  0.2548 -2.2285
 6490TIP3    H219477   1.825   1.786   4.698 -0.1926 -0.8251 -0.9480
 6491TIP3   OH219478   2.576   1.117   4.120 -0.3825  0.1977 -0.2212
 6491TIP3    H119479   2.491   1.125   4.075 -0.4222  0.2796 -0.1309
 6491TIP3    H219480   2.557   1.142   4.210 -1.0121 -2.9096  0.6338
 6492TIP3   OH219481   1.255   3.312   0.704 -0.1936  0.5647  0.2231
 6492TIP3    H119482   1.181   3.252   0.712  0.3985 -0.4019 -1.1456
 6492TIP3    H219483   1.280   3.332   0.794 -1.3821 -0.0090  0.6957
 6493TIP3   OH219484   5.851   0.297   3.977  0.0267  0.4497 -0.5783
 6493TIP3    H119485   5.790   0.363   3.943 -1.7804 -1.1037 -0.5175
 6493TIP3    H219486   5.818   0.276   4.064  1.7468  0.8495  0.2045
 6494TIP3   OH219487   2.380   5.689   3.682 -0.3698  0.3508 -0.3895
 6494TIP3    H119488   2.446   5.758   3.667 -1.0594  1.2579  0.5951
 6494TIP3    H219489   2.395   5.626   3.611  0.4912  1.3550 -1.1392
 6495TIP3   OH219490   1.014   5.955   5.048  0.0657 -0.1445 -0.4346
 6495TIP3    H119491   1.030   6.024   5.112 -2.8918 -0.7185  1.0743
 6495TIP3    H219492   1.095   5.904   5.048  0.0898 -0.3411  3.2083
 6496TIP3   OH219493   2.755   3.390   1.377 -0.2770 -1.1490  0.4546
 6496TIP3    H119494   2.676   3.362   1.424 -1.8295 -0.4562 -1.5994
 6496TIP3    H219495   2.782   3.471   1.421 -1.1286 -1.0266  0.7737
 6497TIP3   OH219496   1.690   5.534   4.602  0.4085  0.6388  0.4478
 6497TIP3    H119497   1.643   5.467   4.552  1.3388  1.2314 -1.3056
 6497TIP3    H219498   1.745   5.578   4.538  2.7720  0.5033  2.2490
 6498TIP3   OH219499   0.263   4.112   1.353  0.1682  0.1342 -0.5650
 6498TIP3    H119500   0.291   4.021   1.364  0.6249  0.1678 -1.3658
 6498TIP3    H219501   0.306   4.159   1.424 -0.2877 -0.3107  0.0208
 6499TIP3   OH219502   3.581   2.351   3.637 -0.2242  0.1286 -0.4583
 6499TIP3    H119503   3.589   2.362   3.542  0.0685 -1.1578 -0.6009
 6499TIP3    H219504   3.650   2.407   3.673  0.5848 -0.4405 -1.0815
 6500TIP3   OH219505   3.551   4.931   4.481 -0.2145  1.2543  0.0244
 6500TIP3    H119506   3.528   4.982   4.559 -0.1774 -1.0282  1.6480
 6500TIP3    H219507   3.507   4.847   4.495  0.5073  0.4849 -2.0390
 6501TIP3   OH219508   0.872   3.035   4.261 -0.0173 -0.4261  0.2663
 6501TIP3    H119509   0.920   3.019   4.180  2.4658  2.4414  0.9482
 6501TIP3    H219510   0.832   3.121   4.248  1.1561  0.5101  2.2507
 6502TIP3   OH219511   1.159   5.654   2.275  0.4202 -0.2811 -0.2346
 6502TIP3    H119512   1.226   5.617   2.332  0.1998 -1.0607 -0.4776
 6502TIP3    H219513   1.134   5.583   2.217 -0.3091  0.1267 -0.4366
 6503TIP3   OH219514   6.274   4.798   5.092  0.2297 -0.7195 -0.0086
 6503TIP3    H119515   6.257   4.858   5.165  2.3742 -0.3315  0.2433
 6503TIP3    H219516   6.189   4.789   5.048 -1.7806 -2.7401  3.7475
 6504TIP3   OH219517   5.067   0.074   2.036  0.0046 -0.2906  0.0973
 6504TIP3    H119518   5.155   0.097   2.064  0.9550 -0.8929 -2.1567
 6504TIP3    H219519   5.013   0.148   2.063  0.4840 -1.2347  4.3310
 6505TIP3   OH219520   5.423   0.326   0.887  0.1234  0.4288  0.0367
 6505TIP3    H119521   5.357   0.335   0.955  0.7841 -0.2594  0.7856
 6505TIP3    H219522   5.474   0.407   0.893 -0.2204  0.6600 -0.0928
 6506TIP3   OH219523   6.057   5.306   4.068 -0.6341  0.1515  0.1645
 6506TIP3    H119524   6.016   5.301   4.154 -1.0211  1.8937  0.1233
 6506TIP3    H219525   6.139   5.354   4.083 -0.0549 -0.6901 -0.2381
 6507TIP3   OH219526   6.069   1.111   2.606 -0.6200 -0.2215 -0.0272
 6507TIP3    H119527   5.989   1.124   2.657  0.4615 -1.0062  1.9841
 6507TIP3    H219528   6.140   1.114   2.671  0.7816 -2.1639 -1.3521
 6508TIP3   OH219529   0.089   3.523   2.706 -0.5813  0.3993  0.0131
 6508TIP3    H119530   0.018   3.495   2.764  0.3465 -1.5953  0.2684
 6508TIP3    H219531   0.053   3.514   2.618 -0.2270 -2.1425  0.0557
 6509TIP3   OH219532   2.029   1.224   3.272  0.3855  0.6820  0.6768
 6509TIP3    H119533   1.954   1.236   3.214 -0.3929 -0.9534  1.2823
 6509TIP3    H219534   2.105   1.249   3.219 -0.4487  0.9263 -0.4347
 6510TIP3   OH219535   2.172   1.145   4.811  1.1698  0.5824 -0.0701
 6510TIP3    H119536   2.236   1.113   4.747  0.3873  0.9662 -1.0889
 6510TIP3    H219537   2.220   1.209   4.863  1.5597  1.0606 -0.9878
 6511TIP3   OH219538   2.168   0.866   2.587 -0.0666 -0.3595  0.3346
 6511TIP3    H119539   2.206   0.921   2.656 -1.5610  0.1387  0.7967
 6511TIP3    H219540   2.232   0.869   2.516  1.1282 -0.2214  1.3797
 6512TIP3   OH219541   6.104   0.414   4.810  0.4817 -0.1639  0.1668
 6512TIP3    H119542   6.117   0.325   4.777  1.8793 -0.6910  1.9553
 6512TIP3    H219543   6.159   0.418   4.888 -0.1298  2.0523  0.5369
 6513TIP3   OH219544   1.490   2.431   1.254  0.2412 -0.0820 -0.3228
 6513TIP3    H119545   1.547   2.398   1.324  1.0999  1.1551 -0.3993
 6513TIP3    H219546   1.470   2.354   1.201  0.1193 -0.9278  0.8934
 6514TIP3   OH219547   2.825   1.513   0.631  0.4548  0.7393 -0.3564
 6514TIP3    H119548   2.847   1.582   0.569  0.6302 -0.3680 -1.5668
 6514TIP3    H219549   2.839   1.431   0.582  0.2698 -0.1561  1.0335
 6515TIP3   OH219550   2.466   1.386   4.201  0.1852 -0.0086 -0.2033
 6515TIP3    H119551   2.401   1.454   4.219 -0.1757 -0.2990 -0.3840
 6515TIP3    H219552   2.416   1.316   4.159  0.4740 -0.5554  0.3470
 6516TIP3   OH219553   4.990   4.811   0.437 -0.1304  0.2478  0.1776
 6516TIP3    H119554   5.055   4.758   0.483 -0.2832 -0.0790  0.0218
 6516TIP3    H219555   5.004   4.790   0.345  0.1931  0.9206  0.0714
 6517TIP3   OH219556   0.345   0.430   4.527  0.7055  0.6662 -0.0602
 6517TIP3    H119557   0.363   0.385   4.444  1.5512 -0.7609  0.8593
 6517TIP3    H219558   0.251   0.418   4.541  0.6884  0.2911 -0.4739
 6518TIP3   OH219559   3.253   1.424   5.158  0.3196  0.4015 -0.0100
 6518TIP3    H119560   3.190   1.353   5.150  0.9345 -0.3400  1.2892
 6518TIP3    H219561   3.226   1.472   5.236  0.2318  1.2727 -0.5623
 6519TIP3   OH219562   1.493   0.432   3.170  0.1020 -0.9076  0.1059
 6519TIP3    H119563   1.497   0.481   3.088  0.0927 -0.8616  0.1327
 6519TIP3    H219564   1.576   0.452   3.214  0.6994 -1.9809 -0.4832
 6520TIP3   OH219565   2.781   5.545   0.980 -0.3161  0.2123 -0.6653
 6520TIP3    H119566   2.782   5.478   0.911  0.7841  2.3422 -2.8921
 6520TIP3    H219567   2.737   5.620   0.940  0.7585  1.6964  0.7754
 6521TIP3   OH219568   4.147   2.656   1.463 -0.0316  0.3844  0.5742
 6521TIP3    H119569   4.078   2.716   1.434  0.1981  1.3175  1.8621
 6521TIP3    H219570   4.101   2.575   1.484 -0.5831  0.6546  0.4283
 6522TIP3   OH219571   2.554   4.486   2.219 -0.4714 -0.8724  0.3962
 6522TIP3    H119572   2.563   4.573   2.179 -0.3577 -1.1173 -0.1251
 6522TIP3    H219573   2.612   4.488   2.295 -2.6818  0.5287  2.1930
 6523TIP3   OH219574   3.306   3.486   3.008 -0.0290 -0.5953  0.1905
 6523TIP3    H119575   3.377   3.488   2.944  0.2139 -1.0154  0.4469
 6523TIP3    H219576   3.326   3.557   3.069 -0.6492  0.2978 -0.5993
 6524TIP3   OH219577   3.851   3.346   2.688 -0.3327 -0.2683 -0.2667
 6524TIP3    H119578   3.775   3.342   2.630 -0.6052 -0.7830  0.1163
 6524TIP3    H219579   3.919   3.296   2.643 -0.2784  0.0234 -0.5162
 6525TIP3   OH219580   3.870   3.448   2.928 -0.6667 -0.0403  0.3141
 6525TIP3    H119581   3.863   3.409   2.840  0.4935 -1.7392  0.9200
 6525TIP3    H219582   3.929   3.389   2.975  0.1424  1.8107  1.7091
 6526TIP3   OH219583   4.483   1.107   3.026  0.2319 -0.2584 -0.0536
 6526TIP3    H119584   4.413   1.171   3.038 -0.5067 -0.9044 -0.7648
 6526TIP3    H219585   4.437   1.026   3.005  1.1917 -0.7525 -0.2722
 6527TIP3   OH219586   4.423   5.299   0.242  0.5100 -0.3332  0.0567
 6527TIP3    H119587   4.459   5.309   0.330  0.0363 -0.5540  0.2773
 6527TIP3    H219588   4.334   5.334   0.248  0.5408 -0.1593 -0.3869
 6528TIP3   OH219589   2.983   5.832   2.841 -0.2715  0.3031 -0.6036
 6528TIP3    H119590   2.974   5.792   2.928  1.5053 -0.2333 -0.6373
 6528TIP3    H219591   2.948   5.920   2.852 -2.3795 -0.5261 -0.0036
 6529TIP3   OH219592   3.084   1.442   3.249  0.0332 -0.5741  0.5189
 6529TIP3    H119593   3.074   1.489   3.332 -1.9833 -0.5759  0.3176
 6529TIP3    H219594   3.083   1.511   3.183 -2.3499 -0.7901  0.2624
 6530TIP3   OH219595   2.121   0.077   4.312 -0.1102  0.2405  0.0126
 6530TIP3    H119596   2.076   0.159   4.335 -2.6746 -1.1694  0.4661
 6530TIP3    H219597   2.110   0.022   4.390  2.6554 -0.1806  0.1956
 6531TIP3   OH219598  -0.023   0.671   3.905 -0.3181 -0.0992  0.2271
 6531TIP3    H119599   0.019   0.742   3.857 -2.4635  1.9320  1.1792
 6531TIP3    H219600   0.018   0.673   3.992  0.0199 -0.4248  0.0780
 6532TIP3   OH219601   1.699   5.264   1.205 -0.1097  0.0175 -0.0363
 6532TIP3    H119602   1.679   5.261   1.298 -0.1713  0.5093 -0.0321
 6532TIP3    H219603   1.782   5.312   1.200  0.4912 -0.9943 -0.1470
 6533TIP3   OH219604   0.943   3.918   4.914  0.2560  0.9119 -0.3666
 6533TIP3    H119605   0.852   3.903   4.888  1.1214 -1.2133 -2.4822
 6533TIP3    H219606   0.951   3.875   4.999 -0.8576  1.7266  0.1729
 6534TIP3   OH219607   5.477   3.526   3.083 -0.2749  0.2977  0.0236
 6534TIP3    H119608   5.498   3.433   3.085 -0.0524  0.3522  0.2358
 6534TIP3    H219609   5.427   3.537   3.002 -0.7926 -0.1114  0.2769
 6535TIP3   OH219610   0.253   4.970   2.521 -0.0120 -0.3754  0.4184
 6535TIP3    H119611   0.170   4.934   2.490 -0.2264 -0.3566  0.9690
 6535TIP3    H219612   0.292   5.010   2.443 -0.2970 -0.7955  0.0527
 6536TIP3   OH219613   0.316   5.833   1.851  0.1963  0.6001 -0.1894
 6536TIP3    H119614   0.296   5.863   1.940  0.9685  1.1601 -0.1944
 6536TIP3    H219615   0.231   5.809   1.814 -0.0004 -1.0544  1.1967
 6537TIP3   OH219616   6.062   5.294   0.064 -0.3059 -0.2354 -0.3542
 6537TIP3    H119617   6.115   5.315   0.141  0.6235 -2.5290 -0.2722
 6537TIP3    H219618   5.981   5.344   0.076  1.3164  2.4883  0.1060
 6538TIP3   OH219619   5.636   1.859   3.409 -0.2906  0.0202 -0.7900
 6538TIP3    H119620   5.702   1.858   3.339 -1.5351  0.1451 -1.9996
 6538TIP3    H219621   5.642   1.947   3.445  1.0911 -0.3672  0.0159
 6539TIP3   OH219622   5.530   5.858   1.171  0.2213  0.4137  0.0389
 6539TIP3    H119623   5.487   5.916   1.234  2.3015  1.5542  0.5354
 6539TIP3    H219624   5.564   5.786   1.225  1.5646  1.1345  0.2270
 6540TIP3   OH219625   0.157   5.201   4.520  0.4408 -0.1690  1.0093
 6540TIP3    H119626   0.170   5.296   4.523  1.4281 -0.2265 -0.5782
 6540TIP3    H219627   0.120   5.179   4.606 -1.7560  1.9164  0.6911
 6541TIP3   OH219628   5.884   5.519   0.075 -0.1325 -0.2922 -0.4655
 6541TIP3    H119629   5.945   5.550   0.008 -0.6898 -0.7656 -1.2006
 6541TIP3    H219630   5.808   5.576   0.067  0.0332  0.0298  0.1707
 6542TIP3   OH219631   2.586   2.947   0.172  0.1777 -0.3756 -0.1575
 6542TIP3    H119632   2.632   2.973   0.252  0.3170 -1.3730  0.1011
 6542TIP3    H219633   2.623   2.862   0.150 -0.0279 -0.2111 -1.1621
 6543TIP3   OH219634   2.090   4.092   2.231  0.5239 -0.4238 -0.2663
 6543TIP3    H119635   2.043   4.124   2.154  3.8410  0.5158 -2.1066
 6543TIP3    H219636   2.094   4.168   2.289  1.1472  0.0268 -0.8711
 6544TIP3   OH219637   0.035   4.167   2.307 -0.1619 -0.1888  0.1821
 6544TIP3    H119638  -0.048   4.181   2.260  0.1388  0.8170 -0.0917
 6544TIP3    H219639   0.056   4.253   2.344  0.2231 -0.6869  1.1556
 6545TIP3   OH219640   6.108   1.540   1.723  0.4544  0.5920  0.4041
 6545TIP3    H119641   6.054   1.613   1.753  0.0643 -0.0959  1.4405
 6545TIP3    H219642   6.075   1.464   1.772  2.7981  0.2712  1.5818
 6546TIP3   OH219643   5.363   0.411   0.619  0.2297 -0.5466 -0.5111
 6546TIP3    H119644   5.386   0.386   0.708  0.7288 -1.0187 -0.7682
 6546TIP3    H219645   5.269   0.393   0.613 -0.3965  1.9077  0.7070
 6547TIP3   OH219646   4.364   5.989   3.004 -0.6793  0.8618 -0.1350
 6547TIP3    H119647   4.318   5.933   3.067  0.6054  1.3959  1.3675
 6547TIP3    H219648   4.399   5.928   2.939  0.0246 -0.0423  1.0392
 6548TIP3   OH219649   5.521   4.308   4.017  0.2071 -0.3341 -0.0816
 6548TIP3    H119650   5.493   4.291   3.926  0.5271  0.0873 -0.2615
 6548TIP3    H219651   5.466   4.250   4.070  1.2208 -1.8821 -0.6612
 6549TIP3   OH219652   5.731   1.120   1.260  0.8021 -0.7365 -0.1487
 6549TIP3    H119653   5.680   1.097   1.337 -0.0876 -1.6893 -0.9875
 6549TIP3    H219654   5.742   1.214   1.266 -0.8761 -0.5285  0.1894
 6550TIP3   OH219655   3.126   0.286   2.887 -0.2141 -0.0702  0.3828
 6550TIP3    H119656   3.195   0.328   2.835 -0.2005 -0.2203  0.2787
 6550TIP3    H219657   3.161   0.200   2.908 -0.1967  0.0101  0.6894
 6551TIP3   OH219658   1.100   5.354   1.054  0.1266 -0.1283 -0.4070
 6551TIP3    H119659   1.065   5.435   1.018 -0.9023 -0.2164  0.3435
 6551TIP3    H219660   1.031   5.289   1.037  0.0344 -0.3767  0.8233
 6552TIP3   OH219661   2.446   5.400   3.994  0.0218  0.2313 -0.3964
 6552TIP3    H119662   2.405   5.487   3.983 -0.9854 -0.3411 -1.4532
 6552TIP3    H219663   2.510   5.395   3.923  0.2260  0.1879 -0.2090
 6553TIP3   OH219664   4.928   0.270   0.633  0.0093 -0.6150 -0.3727
 6553TIP3    H119665   4.878   0.350   0.651 -2.5879 -2.2133  0.1956
 6553TIP3    H219666   4.872   0.220   0.573  0.4368 -2.9389  1.0270
 6554TIP3   OH219667   3.375   1.152   2.250 -0.2068 -0.0888 -0.1000
 6554TIP3    H119668   3.414   1.208   2.318 -1.3070 -0.4446  0.8577
 6554TIP3    H219669   3.448   1.098   2.220  0.3122  0.0715  0.8174
 6555TIP3   OH219670   2.831   4.567   4.131  0.3090 -0.5032  0.3168
 6555TIP3    H119671   2.740   4.596   4.128  0.0114 -1.3902  0.5229
 6555TIP3    H219672   2.830   4.479   4.094  0.9224 -0.8970  1.2038
 6556TIP3   OH219673   4.668   1.860   4.849  0.5694  0.0071  0.0457
 6556TIP3    H119674   4.710   1.928   4.797  1.8895 -0.5653  0.2890
 6556TIP3    H219675   4.575   1.878   4.844  0.8925  1.8199  0.1001
 6557TIP3   OH219676   5.172   5.357   3.095  0.1113 -0.3090 -0.4094
 6557TIP3    H119677   5.091   5.366   3.144 -0.9140 -1.3158 -1.8469
 6557TIP3    H219678   5.148   5.378   3.005  2.1670  2.6385 -0.4229
 6558TIP3   OH219679   2.194   3.641   4.224  0.0245  0.4823  0.4967
 6558TIP3    H119680   2.272   3.635   4.279  0.3056  1.0180  0.1732
 6558TIP3    H219681   2.122   3.612   4.280 -0.0117  2.8815  1.8549
 6559TIP3   OH219682   4.073   1.085   1.618  0.1994  0.1006 -0.3702
 6559TIP3    H119683   4.021   1.011   1.587  1.4585 -0.5099 -1.0609
 6559TIP3    H219684   4.057   1.087   1.712  0.2389 -1.1335 -0.3184
 6560TIP3   OH219685   4.400   0.253   2.720 -0.1357 -0.0732  0.0898
 6560TIP3    H119686   4.401   0.182   2.656  0.4108  0.2210 -0.2383
 6560TIP3    H219687   4.312   0.290   2.715 -0.4590 -0.8018  0.3503
 6561TIP3   OH219688   0.808   1.478   4.056  0.4383  0.1025  0.5347
 6561TIP3    H119689   0.738   1.511   4.113  0.4441  1.1043 -0.0080
 6561TIP3    H219690   0.889   1.497   4.104  0.3498 -1.0983  1.1837
 6562TIP3   OH219691   3.894   2.999   1.522  0.8748 -0.4064 -0.0481
 6562TIP3    H119692   3.811   3.045   1.534  1.0344 -0.2142  0.3677
 6562TIP3    H219693   3.898   2.938   1.596  0.7850 -0.9044 -0.4524
 6563TIP3   OH219694   5.751   1.705   3.611 -0.4343 -0.4650  0.1673
 6563TIP3    H119695   5.733   1.770   3.543  1.3346  0.0959  0.1854
 6563TIP3    H219696   5.760   1.756   3.692 -0.4062 -0.8814  0.4338
 6564TIP3   OH219697   5.288   2.101   3.834 -0.0639 -0.3533 -0.1104
 6564TIP3    H119698   5.258   2.027   3.781 -0.2897 -1.1924  1.1471
 6564TIP3    H219699   5.358   2.140   3.782 -0.2602 -1.1531 -1.0203
 6565TIP3   OH219700   1.794   0.786   3.729  0.0377 -0.0949  0.3448
 6565TIP3    H119701   1.858   0.757   3.664 -0.6983 -0.8854 -0.0604
 6565TIP3    H219702   1.748   0.859   3.687 -0.8210 -0.9680 -0.2826
 6566TIP3   OH219703   0.015   1.062   1.742  0.7370 -0.0982 -0.8371
 6566TIP3    H119704   0.068   0.982   1.732  3.1089  1.1798  0.5079
 6566TIP3    H219705   0.034   1.113   1.664  1.5824  0.3670 -0.3473
 6567TIP3   OH219706   6.042   3.791   4.086  0.4936 -0.0524  0.7116
 6567TIP3    H119707   6.052   3.743   4.169  0.6209  0.2413  0.8673
 6567TIP3    H219708   6.115   3.853   4.086  0.3449  0.1206  0.4960
 6568TIP3   OH219709   3.786   1.238   0.431  0.2955 -0.2352 -0.2521
 6568TIP3    H119710   3.814   1.328   0.450  1.0294 -0.6447  0.7536
 6568TIP3    H219711   3.691   1.241   0.435  0.3003  0.5586 -0.5239
 6569TIP3   OH219712   4.205   1.056   0.884  0.8048  0.1810  0.0621
 6569TIP3    H119713   4.262   1.132   0.891  1.4554 -0.2263 -0.7199
 6569TIP3    H219714   4.157   1.069   0.802  0.6356 -0.0637  0.1202
 6570TIP3   OH219715   3.281   4.211   0.986 -0.6824  0.2106 -0.5565
 6570TIP3    H119716   3.339   4.182   1.057 -1.8171  1.2892  0.8845
 6570TIP3    H219717   3.212   4.144   0.983 -1.0125  0.5232 -0.1342
 6571TIP3   OH219718   3.372   1.319   1.650  0.1101  0.1242  0.1736
 6571TIP3    H119719   3.424   1.239   1.645  0.8141  0.6017 -0.3391
 6571TIP3    H219720   3.410   1.377   1.585 -1.3972  0.3209 -0.5767
 6572TIP3   OH219721   1.711   3.107   0.879 -0.3502  0.0117 -0.3878
 6572TIP3    H119722   1.750   3.118   0.966  1.2738 -0.0373 -1.0673
 6572TIP3    H219723   1.687   3.015   0.875 -1.9316  0.3436  0.5657
 6573TIP3   OH219724   1.970   2.743   4.646  0.2740 -0.1692  0.3029
 6573TIP3    H119725   1.913   2.810   4.683  1.6784  0.2865  1.7772
 6573TIP3    H219726   1.978   2.677   4.715 -0.2685 -1.3941 -0.7449
 6574TIP3   OH219727   0.063   0.857   3.070 -0.3632 -0.2053 -0.6859
 6574TIP3    H119728  -0.011   0.895   3.024  0.4911 -0.3693 -2.2556
 6574TIP3    H219729   0.135   0.859   3.007  0.6339 -1.2233  0.3562
 6575TIP3   OH219730   2.639   5.494   2.312  0.3160 -0.5045  0.0166
 6575TIP3    H119731   2.612   5.547   2.237 -1.6352  1.8307  2.2064
 6575TIP3    H219732   2.566   5.435   2.328  0.8607 -1.2227 -0.0807
 6576TIP3   OH219733   3.572   4.014   1.499  0.0467  0.3537 -0.0803
 6576TIP3    H119734   3.553   3.957   1.425 -0.2406 -1.5782  1.4003
 6576TIP3    H219735   3.498   4.002   1.559  0.4856  1.4965  0.7295
 6577TIP3   OH219736   5.296   0.290   0.121 -1.2277  0.7528 -0.3502
 6577TIP3    H119737   5.213   0.325   0.152  0.6726  4.8381  0.8295
 6577TIP3    H219738   5.341   0.260   0.199 -0.4082  1.5665 -0.4846
 6578TIP3   OH219739   2.827   1.963   3.014  0.2152 -0.0680  0.1364
 6578TIP3    H119740   2.767   1.889   3.024 -0.3121  0.3130 -0.1528
 6578TIP3    H219741   2.859   1.955   2.924  0.1811  0.0317  0.1147
 6579TIP3   OH219742   2.252   3.782   2.812  0.6718 -0.0076  0.0091
 6579TIP3    H119743   2.268   3.875   2.829  1.6849 -0.0157 -0.8680
 6579TIP3    H219744   2.249   3.774   2.717  1.8753 -1.0775  0.0371
 6580TIP3   OH219745   2.152   0.517   2.137  0.3384  0.6242  0.1015
 6580TIP3    H119746   2.073   0.483   2.093 -0.4349  0.6712  1.4163
 6580TIP3    H219747   2.157   0.608   2.109 -0.8714  1.0125  1.0691
 6581TIP3   OH219748   5.425   3.261   1.677  0.1693 -0.1516  0.0856
 6581TIP3    H119749   5.341   3.249   1.722  2.0348 -0.5367  3.8641
 6581TIP3    H219750   5.433   3.355   1.663  0.1923  0.1957  2.1984
 6582TIP3   OH219751   0.916   0.909   3.840  0.2590 -0.4147  0.1336
 6582TIP3    H119752   0.827   0.921   3.808  0.1885 -1.9511 -0.3445
 6582TIP3    H219753   0.937   0.991   3.884 -2.0433 -0.6458  1.8436
 6583TIP3   OH219754   0.543   3.263   1.041  0.0260 -0.1014 -0.5508
 6583TIP3    H119755   0.556   3.178   1.081 -1.8026 -0.7886 -1.3250
 6583TIP3    H219756   0.453   3.287   1.062 -0.0852  0.7798 -1.8838
 6584TIP3   OH219757   4.440   5.727   3.224 -0.1710  0.0406 -0.1968
 6584TIP3    H119758   4.520   5.753   3.270 -0.7808 -0.0291  0.9265
 6584TIP3    H219759   4.375   5.791   3.251 -1.1404 -1.3558  0.9034
 6585TIP3   OH219760   4.328   4.433   3.912 -0.2520 -0.2065  0.1292
 6585TIP3    H119761   4.297   4.455   4.000 -2.4738  0.9671 -0.8531
 6585TIP3    H219762   4.350   4.517   3.873 -0.7881 -0.5426 -0.9295
 6586TIP3   OH219763   1.947   1.377   1.867  0.1633 -0.2460 -0.0105
 6586TIP3    H119764   2.032   1.399   1.828 -0.0294  0.4431 -0.0643
 6586TIP3    H219765   1.940   1.282   1.860  0.4771 -0.2060 -0.9371
 6587TIP3   OH219766   5.596   5.666   3.978 -0.0546  1.0444  0.4040
 6587TIP3    H119767   5.502   5.658   3.994  0.3355  0.9282  3.1655
 6587TIP3    H219768   5.636   5.603   4.037  1.8080  1.5648 -0.2174
 6588TIP3   OH219769   0.891   0.233   3.823  0.0416  0.4677 -0.3485
 6588TIP3    H119770   0.944   0.296   3.775 -1.1736  3.2526  1.7086
 6588TIP3    H219771   0.916   0.245   3.915  0.9777 -3.3463  0.0646
 6589TIP3   OH219772   1.408   1.181   3.682  0.4868  0.1012  0.0625
 6589TIP3    H119773   1.317   1.193   3.708  0.4578  0.1499 -0.0568
 6589TIP3    H219774   1.418   1.239   3.606  1.2568  1.9238  1.4628
 6590TIP3   OH219775   0.751   1.890   2.874 -0.3906  0.5662 -0.9159
 6590TIP3    H119776   0.820   1.919   2.934 -2.4029  2.2706  0.7374
 6590TIP3    H219777   0.686   1.960   2.878 -3.2049 -1.9146 -0.7175
 6591TIP3   OH219778   2.772   0.209   0.539 -0.1031 -0.1879  0.0625
 6591TIP3    H119779   2.780   0.296   0.577 -0.1049 -0.9811  2.0210
 6591TIP3    H219780   2.799   0.219   0.448  0.0360  1.8083  0.2856
 6592TIP3   OH219781   4.343   0.889   2.960 -0.0379 -0.0212 -0.2389
 6592TIP3    H119782   4.401   0.858   2.891 -0.0101 -1.7377  0.4905
 6592TIP3    H219783   4.262   0.912   2.915  0.3806  0.0460 -0.9734
 6593TIP3   OH219784   1.818   5.688   1.728 -0.2727 -0.5339 -0.3156
 6593TIP3    H119785   1.905   5.720   1.751 -0.8808  1.4130 -0.5238
 6593TIP3    H219786   1.822   5.673   1.634 -0.1426 -0.5049 -0.3152
 6594TIP3   OH219787   3.231   5.206   3.962  0.2164  0.2227  0.0095
 6594TIP3    H119788   3.207   5.294   3.934 -0.4058 -0.1121 -0.5718
 6594TIP3    H219789   3.305   5.182   3.906  0.6084  0.5051  0.4073
 6595TIP3   OH219790   5.102   3.596   4.594 -1.1483 -0.1714  0.3413
 6595TIP3    H119791   5.089   3.628   4.683 -1.3039 -0.0749  0.2847
 6595TIP3    H219792   5.030   3.634   4.544 -0.2140  1.0250 -0.1440
 6596TIP3   OH219793   5.706   3.536   0.550 -0.1590 -0.1511 -0.2349
 6596TIP3    H119794   5.757   3.617   0.560 -0.8812  0.2555  0.2033
 6596TIP3    H219795   5.772   3.468   0.538  0.4735  0.4398 -0.1784
 6597TIP3   OH219796   6.113   5.606   3.914 -0.0553  0.1360  0.6941
 6597TIP3    H119797   6.195   5.557   3.908 -0.1572 -0.0299  0.6360
 6597TIP3    H219798   6.114   5.664   3.838  0.0016  0.1212  0.6836
 6598TIP3   OH219799   6.312   1.780   4.334 -0.2499 -0.0680 -0.2052
 6598TIP3    H119800   6.289   1.745   4.248  0.3393 -0.6175 -0.1508
 6598TIP3    H219801   6.231   1.778   4.384 -0.6826  0.6247 -0.8700
 6599TIP3   OH219802   1.328   1.745   2.030  0.3316  0.2926 -0.1053
 6599TIP3    H119803   1.306   1.736   2.122 -1.8563 -0.9662 -0.6784
 6599TIP3    H219804   1.300   1.833   2.006 -0.0283  0.2572  0.1971
 6600TIP3   OH219805   4.224   2.825   0.551 -0.1850 -0.2193  0.1143
 6600TIP3    H119806   4.267   2.844   0.467 -1.1397 -0.5132 -0.4511
 6600TIP3    H219807   4.213   2.730   0.552 -0.2912 -0.2049  0.5295
 6601TIP3   OH219808   5.638   5.456   4.519  0.0623 -0.2481 -0.1081
 6601TIP3    H119809   5.729   5.480   4.539 -0.0429 -0.7513  1.0629
 6601TIP3    H219810   5.587   5.534   4.541  0.2180  0.0982 -0.9402
 6602TIP3   OH219811   4.045   3.266   2.150  0.1652 -0.6257  0.2442
 6602TIP3    H119812   4.111   3.208   2.110  0.5718 -1.2474  1.7230
 6602TIP3    H219813   4.072   3.272   2.241 -0.8736  0.5344  0.4951
 6603TIP3   OH219814   2.500   2.511   5.088 -0.0610 -0.2084  0.3108
 6603TIP3    H119815   2.490   2.430   5.139  1.5882 -1.2022 -0.8506
 6603TIP3    H219816   2.466   2.489   5.002 -0.7042  0.7355  0.3159
 6604TIP3   OH219817   2.306   0.312   2.108 -0.5078  0.3704 -0.0824
 6604TIP3    H119818   2.269   0.398   2.093 -0.1960  0.5174 -0.0147
 6604TIP3    H219819   2.313   0.305   2.203  1.9374  1.3460 -0.1110
 6605TIP3   OH219820   1.837   3.619   1.959  0.2453 -0.0507 -0.4058
 6605TIP3    H119821   1.767   3.571   2.002  1.0424 -0.2699  0.6899
 6605TIP3    H219822   1.860   3.689   2.020  0.2939  0.6443 -1.2022
 6606TIP3   OH219823   2.046   1.890   0.344 -0.0475 -0.0794  0.1176
 6606TIP3    H119824   2.112   1.959   0.351 -1.5961  1.6515 -1.2994
 6606TIP3    H219825   2.076   1.835   0.271 -0.1807  0.7553 -0.5799
 6607TIP3   OH219826   1.959   4.444   4.001  0.1967 -0.5115 -0.7171
 6607TIP3    H119827   1.891   4.509   4.021  1.2232  0.6260 -0.8459
 6607TIP3    H219828   1.990   4.416   4.087 -0.8477 -1.5301 -0.6360
 6608TIP3   OH219829   4.218   5.854   3.311 -0.1476 -0.0975  0.2124
 6608TIP3    H119830   4.151   5.915   3.280 -0.9740 -1.5036 -0.9085
 6608TIP3    H219831   4.200   5.844   3.404 -0.6363  0.5861  0.1995
 6609TIP3   OH219832   0.640   4.173   1.647  0.3711  0.2099  0.3991
 6609TIP3    H119833   0.702   4.125   1.701 -0.6689 -1.0591  0.5211
 6609TIP3    H219834   0.633   4.259   1.689  1.2780  0.0269  0.9497
 6610TIP3   OH219835   3.302   5.584   4.844  0.2386  0.2175  0.0251
 6610TIP3    H119836   3.350   5.507   4.815  2.0926  0.5402  2.0197
 6610TIP3    H219837   3.314   5.648   4.774  1.7795 -0.0960 -0.0235
 6611TIP3   OH219838   3.510   0.199   0.156 -0.3228  0.5471  0.4544
 6611TIP3    H119839   3.577   0.132   0.148 -1.7912 -0.8604 -0.7009
 6611TIP3    H219840   3.492   0.205   0.250  1.4840  1.0624  0.7935
 6612TIP3   OH219841   3.162   0.784   1.360  0.2414 -0.2701  0.1669
 6612TIP3    H119842   3.173   0.878   1.373  1.5880 -0.5356  1.1552
 6612TIP3    H219843   3.234   0.744   1.408  0.1876 -1.7844 -0.9149
 6613TIP3   OH219844   2.630   3.139   3.642  0.3331  0.2056  0.0961
 6613TIP3    H119845   2.658   3.083   3.715 -0.6668  0.7631  0.9396
 6613TIP3    H219846   2.619   3.079   3.568  1.9229 -0.2818  0.2352
 6614TIP3   OH219847   2.276   4.972   4.212  0.0935 -0.3763 -0.7079
 6614TIP3    H119848   2.330   4.935   4.282  0.3562 -0.4082 -0.9303
 6614TIP3    H219849   2.335   4.984   4.139 -0.4456 -1.5714 -1.3710
 6615TIP3   OH219850   0.505   0.353   4.762  0.2184 -0.3225  0.4854
 6615TIP3    H119851   0.435   0.379   4.703 -1.6707 -3.4672  1.1378
 6615TIP3    H219852   0.487   0.400   4.844 -0.3800 -0.1419  0.2506
 6616TIP3   OH219853   3.508   4.359   3.680  0.1946 -0.5288 -0.1883
 6616TIP3    H119854   3.415   4.364   3.704  0.4654  0.9688  0.7371
 6616TIP3    H219855   3.554   4.364   3.764  1.1255 -1.7639 -0.5951
 6617TIP3   OH219856   4.148   0.747   4.496 -0.2582 -0.4053 -1.1839
 6617TIP3    H119857   4.207   0.806   4.543 -1.3291  0.0014 -0.3174
 6617TIP3    H219858   4.201   0.669   4.480  0.4933 -0.0878 -0.3485
 6618TIP3   OH219859   0.246   0.265   4.986 -0.4685  0.5582 -0.0425
 6618TIP3    H119860   0.187   0.246   5.059  0.7730  0.8435  1.0783
 6618TIP3    H219861   0.322   0.209   5.001 -0.5305 -0.0052 -1.6105
 6619TIP3   OH219862   4.382   4.352   2.896 -0.3401 -0.3905 -0.2279
 6619TIP3    H119863   4.316   4.283   2.883  0.6934 -1.1969 -1.4931
 6619TIP3    H219864   4.435   4.321   2.970 -1.2680  0.2122  0.7273
 6620TIP3   OH219865   4.701   5.675   4.386 -0.5330 -0.1118 -0.1273
 6620TIP3    H119866   4.647   5.613   4.435  0.4629 -0.7848  0.1461
 6620TIP3    H219867   4.675   5.761   4.421 -1.5529 -0.3996 -0.1425
 6621TIP3   OH219868   3.217   5.106   0.299  0.3021 -0.0155 -0.0002
 6621TIP3    H119869   3.266   5.067   0.371 -1.2778 -0.6689  0.7592
 6621TIP3    H219870   3.190   5.192   0.332 -0.4476 -0.3275  0.2210
 6622TIP3   OH219871   3.637   3.538   3.393  0.7270  0.2069  0.4580
 6622TIP3    H119872   3.579   3.466   3.418 -2.7981  2.0996 -1.4917
 6622TIP3    H219873   3.622   3.605   3.459  0.6207  0.7697 -0.1313
 6623TIP3   OH219874   0.387   5.591   3.322  0.3759  0.5904  0.2445
 6623TIP3    H119875   0.420   5.532   3.389 -1.9717  0.9775  1.8830
 6623TIP3    H219876   0.294   5.600   3.341  0.0552  2.5259 -1.7164
 6624TIP3   OH219877   5.485   5.386   1.525 -0.2617  0.4154  0.1871
 6624TIP3    H119878   5.395   5.414   1.506  0.0601  1.5363  0.2551
 6624TIP3    H219879   5.474   5.306   1.577 -1.2273  0.7133  0.4783
 6625TIP3   OH219880   1.524   4.255   0.844 -0.3934  0.2834  0.2509
 6625TIP3    H119881   1.487   4.318   0.905 -0.8520 -0.5705  0.8781
 6625TIP3    H219882   1.567   4.308   0.778  0.4215  1.2347  1.4974
 6626TIP3   OH219883   6.002   3.395   1.223 -0.1998 -0.4068 -0.5411
 6626TIP3    H119884   5.954   3.313   1.225  1.3979 -1.4024 -1.0446
 6626TIP3    H219885   6.000   3.422   1.131 -0.4228 -0.0625 -0.4376
 6627TIP3   OH219886   1.101   1.254   2.820  0.3152  0.1646 -0.1595
 6627TIP3    H119887   1.009   1.232   2.807  0.5190 -0.0174 -1.4116
 6627TIP3    H219888   1.099   1.329   2.879 -0.7008  0.8817 -1.0692
 6628TIP3   OH219889   2.442   2.326   1.275 -0.1357  0.0087 -0.7579
 6628TIP3    H119890   2.383   2.273   1.329 -0.7909  1.2231 -0.2453
 6628TIP3    H219891   2.520   2.272   1.265 -1.5057 -1.8902 -1.9169
 6629TIP3   OH219892   5.401   4.629   4.059  0.0308 -0.1574 -0.5003
 6629TIP3    H119893   5.379   4.538   4.041  0.5338 -0.1195 -1.3652
 6629TIP3    H219894   5.372   4.644   4.149 -0.5639 -1.0062 -0.5455
 6630TIP3   OH219895   3.321   3.324   0.436 -0.4038  0.3959  0.0410
 6630TIP3    H119896   3.365   3.302   0.354  0.1520  1.3144  0.0874
 6630TIP3    H219897   3.375   3.392   0.476  1.5083 -2.5767  3.0312
 6631TIP3   OH219898   1.820   1.715   3.695  0.1525  0.2213  0.0954
 6631TIP3    H119899   1.729   1.709   3.724  0.0224 -0.7271 -0.4622
 6631TIP3    H219900   1.817   1.769   3.616 -0.0773 -0.6196 -0.4842
 6632TIP3   OH219901   0.677   3.886   1.348 -0.1135 -0.0998  0.6396
 6632TIP3    H119902   0.607   3.938   1.388  0.4630  0.1684  1.3277
 6632TIP3    H219903   0.698   3.819   1.413  0.9444  0.4418  0.8901
 6633TIP3   OH219904   0.360   4.477   0.372  0.4866  0.0392 -0.3715
 6633TIP3    H119905   0.417   4.429   0.432  0.2757  0.1831 -0.0499
 6633TIP3    H219906   0.339   4.415   0.303 -1.5380 -1.0900  1.1288
 6634TIP3   OH219907   4.796   1.496   4.086 -0.5926  0.3325  0.2634
 6634TIP3    H119908   4.800   1.531   3.997  0.7167 -1.3927 -0.4106
 6634TIP3    H219909   4.738   1.420   4.079 -1.7337  1.0777  1.2459
 6635TIP3   OH219910   4.799   2.634   0.759  0.0530  0.5706  0.3962
 6635TIP3    H119911   4.891   2.649   0.782 -0.3093  0.5913  1.9556
 6635TIP3    H219912   4.754   2.713   0.789 -0.4445  0.6526 -0.5629
 6636TIP3   OH219913   5.327   1.358   3.135 -0.3821 -0.7327  0.3504
 6636TIP3    H119914   5.371   1.388   3.214 -1.3611 -0.5399  0.8383
 6636TIP3    H219915   5.287   1.437   3.098  0.1216 -0.8090 -0.3787
 6637TIP3   OH219916   2.761   5.744   1.988 -0.1886  0.3299 -0.1141
 6637TIP3    H119917   2.716   5.767   1.906 -0.0499 -0.7591 -0.5042
 6637TIP3    H219918   2.798   5.658   1.972 -0.7531 -0.2192  1.3340
 6638TIP3   OH219919   2.179   5.035   0.727  0.0912  0.3288  0.2955
 6638TIP3    H119920   2.206   4.975   0.796  0.1276 -2.2592 -1.8106
 6638TIP3    H219921   2.234   5.012   0.652 -1.9810  0.9075 -1.5158
 6639TIP3   OH219922   1.345   0.029   4.571  0.6332  0.7233  0.0706
 6639TIP3    H119923   1.440   0.025   4.570  0.6436  1.0628 -0.3282
 6639TIP3    H219924   1.323   0.113   4.530  0.1722  0.8026  0.4571
 6640TIP3   OH219925   2.892   2.849   0.709  0.1206  0.8472  0.3337
 6640TIP3    H119926   2.882   2.797   0.789  0.5266  0.0519 -0.1139
 6640TIP3    H219927   2.816   2.826   0.657  0.3251  0.6600  0.1152
   6.34842   5.98535   5.18347   0.00000   0.00000  -2.11614   0.00000  -2.11614  -2.99268
