PSF EXT CMAP XPLOR

         3 !NTITLE
* GENERATED BY CHARMM-GUI (HTTP://WWW.CHARMM-GUI.ORG) V3.7 ON JUN, 13. 2026. JOB
* READ PDB, MANIPULATE STRUCTURE IF NEEDED, AND GENERATE TOPOLOGY FILE          
*  DATE:     6/13/26     11:29:17      CREATED BY USER: charmm-gui              

       153 !NATOM
         1 PROA     1        GLY      N        NH3     -0.300000       14.0070           0
         2 PROA     1        GLY      HT1      HC       0.330000       1.00800           0
         3 PROA     1        GLY      HT2      HC       0.330000       1.00800           0
         4 PROA     1        GLY      HT3      HC       0.330000       1.00800           0
         5 PROA     1        GLY      CA       CT2      0.130000       12.0110           0
         6 PROA     1        GLY      HA1      HB2      0.900000E-01   1.00800           0
         7 PROA     1        GLY      HA2      HB2      0.900000E-01   1.00800           0
         8 PROA     1        GLY      C        C        0.510000       12.0110           0
         9 PROA     1        GLY      O        O       -0.510000       15.9994           0
        10 PROA     2        ASP      N        NH1     -0.470000       14.0070           0
        11 PROA     2        ASP      HN       H        0.310000       1.00800           0
        12 PROA     2        ASP      CA       CT1      0.700000E-01   12.0110           0
        13 PROA     2        ASP      HA       HB1      0.900000E-01   1.00800           0
        14 PROA     2        ASP      CB       CT2A    -0.280000       12.0110           0
        15 PROA     2        ASP      HB1      HA2      0.900000E-01   1.00800           0
        16 PROA     2        ASP      HB2      HA2      0.900000E-01   1.00800           0
        17 PROA     2        ASP      CG       CC       0.620000       12.0110           0
        18 PROA     2        ASP      OD1      OC      -0.760000       15.9994           0
        19 PROA     2        ASP      OD2      OC      -0.760000       15.9994           0
        20 PROA     2        ASP      C        C        0.510000       12.0110           0
        21 PROA     2        ASP      O        O       -0.510000       15.9994           0
        22 PROA     3        SER      N        NH1     -0.470000       14.0070           0
        23 PROA     3        SER      HN       H        0.310000       1.00800           0
        24 PROA     3        SER      CA       CT1      0.700000E-01   12.0110           0
        25 PROA     3        SER      HA       HB1      0.900000E-01   1.00800           0
        26 PROA     3        SER      CB       CT2      0.500000E-01   12.0110           0
        27 PROA     3        SER      HB1      HA2      0.900000E-01   1.00800           0
        28 PROA     3        SER      HB2      HA2      0.900000E-01   1.00800           0
        29 PROA     3        SER      OG       OH1     -0.660000       15.9994           0
        30 PROA     3        SER      HG1      H        0.430000       1.00800           0
        31 PROA     3        SER      C        C        0.510000       12.0110           0
        32 PROA     3        SER      O        O       -0.510000       15.9994           0
        33 PROA     4        GLY      N        NH1     -0.470000       14.0070           0
        34 PROA     4        GLY      HN       H        0.310000       1.00800           0
        35 PROA     4        GLY      CA       CT2     -0.200000E-01   12.0110           0
        36 PROA     4        GLY      HA1      HB2      0.900000E-01   1.00800           0
        37 PROA     4        GLY      HA2      HB2      0.900000E-01   1.00800           0
        38 PROA     4        GLY      C        C        0.510000       12.0110           0
        39 PROA     4        GLY      O        O       -0.510000       15.9994           0
        40 PROA     5        SER      N        NH1     -0.470000       14.0070           0
        41 PROA     5        SER      HN       H        0.310000       1.00800           0
        42 PROA     5        SER      CA       CT1      0.700000E-01   12.0110           0
        43 PROA     5        SER      HA       HB1      0.900000E-01   1.00800           0
        44 PROA     5        SER      CB       CT2      0.500000E-01   12.0110           0
        45 PROA     5        SER      HB1      HA2      0.900000E-01   1.00800           0
        46 PROA     5        SER      HB2      HA2      0.900000E-01   1.00800           0
        47 PROA     5        SER      OG       OH1     -0.660000       15.9994           0
        48 PROA     5        SER      HG1      H        0.430000       1.00800           0
        49 PROA     5        SER      C        C        0.510000       12.0110           0
        50 PROA     5        SER      O        O       -0.510000       15.9994           0
        51 PROA     6        GLY      N        NH1     -0.470000       14.0070           0
        52 PROA     6        GLY      HN       H        0.310000       1.00800           0
        53 PROA     6        GLY      CA       CT2     -0.200000E-01   12.0110           0
        54 PROA     6        GLY      HA1      HB2      0.900000E-01   1.00800           0
        55 PROA     6        GLY      HA2      HB2      0.900000E-01   1.00800           0
        56 PROA     6        GLY      C        C        0.510000       12.0110           0
        57 PROA     6        GLY      O        O       -0.510000       15.9994           0
        58 PROA     7        PRO      N        N       -0.290000       14.0070           0
        59 PROA     7        PRO      CD       CP3       0.00000       12.0110           0
        60 PROA     7        PRO      HD1      HA2      0.900000E-01   1.00800           0
        61 PROA     7        PRO      HD2      HA2      0.900000E-01   1.00800           0
        62 PROA     7        PRO      CA       CP1      0.200000E-01   12.0110           0
        63 PROA     7        PRO      HA       HB1      0.900000E-01   1.00800           0
        64 PROA     7        PRO      CB       CP2     -0.180000       12.0110           0
        65 PROA     7        PRO      HB1      HA2      0.900000E-01   1.00800           0
        66 PROA     7        PRO      HB2      HA2      0.900000E-01   1.00800           0
        67 PROA     7        PRO      CG       CP2     -0.180000       12.0110           0
        68 PROA     7        PRO      HG1      HA2      0.900000E-01   1.00800           0
        69 PROA     7        PRO      HG2      HA2      0.900000E-01   1.00800           0
        70 PROA     7        PRO      C        C        0.510000       12.0110           0
        71 PROA     7        PRO      O        O       -0.510000       15.9994           0
        72 PROA     8        GLY      N        NH1     -0.470000       14.0070           0
        73 PROA     8        GLY      HN       H        0.310000       1.00800           0
        74 PROA     8        GLY      CA       CT2     -0.200000E-01   12.0110           0
        75 PROA     8        GLY      HA1      HB2      0.900000E-01   1.00800           0
        76 PROA     8        GLY      HA2      HB2      0.900000E-01   1.00800           0
        77 PROA     8        GLY      C        C        0.510000       12.0110           0
        78 PROA     8        GLY      O        O       -0.510000       15.9994           0
        79 PROA     9        ASP      N        NH1     -0.470000       14.0070           0
        80 PROA     9        ASP      HN       H        0.310000       1.00800           0
        81 PROA     9        ASP      CA       CT1      0.700000E-01   12.0110           0
        82 PROA     9        ASP      HA       HB1      0.900000E-01   1.00800           0
        83 PROA     9        ASP      CB       CT2A    -0.280000       12.0110           0
        84 PROA     9        ASP      HB1      HA2      0.900000E-01   1.00800           0
        85 PROA     9        ASP      HB2      HA2      0.900000E-01   1.00800           0
        86 PROA     9        ASP      CG       CC       0.620000       12.0110           0
        87 PROA     9        ASP      OD1      OC      -0.760000       15.9994           0
        88 PROA     9        ASP      OD2      OC      -0.760000       15.9994           0
        89 PROA     9        ASP      C        C        0.510000       12.0110           0
        90 PROA     9        ASP      O        O       -0.510000       15.9994           0
        91 PROA     10       PRO      N        N       -0.290000       14.0070           0
        92 PROA     10       PRO      CD       CP3       0.00000       12.0110           0
        93 PROA     10       PRO      HD1      HA2      0.900000E-01   1.00800           0
        94 PROA     10       PRO      HD2      HA2      0.900000E-01   1.00800           0
        95 PROA     10       PRO      CA       CP1      0.200000E-01   12.0110           0
        96 PROA     10       PRO      HA       HB1      0.900000E-01   1.00800           0
        97 PROA     10       PRO      CB       CP2     -0.180000       12.0110           0
        98 PROA     10       PRO      HB1      HA2      0.900000E-01   1.00800           0
        99 PROA     10       PRO      HB2      HA2      0.900000E-01   1.00800           0
       100 PROA     10       PRO      CG       CP2     -0.180000       12.0110           0
       101 PROA     10       PRO      HG1      HA2      0.900000E-01   1.00800           0
       102 PROA     10       PRO      HG2      HA2      0.900000E-01   1.00800           0
       103 PROA     10       PRO      C        C        0.510000       12.0110           0
       104 PROA     10       PRO      O        O       -0.510000       15.9994           0
       105 PROA     11       GLY      N        NH1     -0.470000       14.0070           0
       106 PROA     11       GLY      HN       H        0.310000       1.00800           0
       107 PROA     11       GLY      CA       CT2     -0.200000E-01   12.0110           0
       108 PROA     11       GLY      HA1      HB2      0.900000E-01   1.00800           0
       109 PROA     11       GLY      HA2      HB2      0.900000E-01   1.00800           0
       110 PROA     11       GLY      C        C        0.510000       12.0110           0
       111 PROA     11       GLY      O        O       -0.510000       15.9994           0
       112 PROA     12       SER      N        NH1     -0.470000       14.0070           0
       113 PROA     12       SER      HN       H        0.310000       1.00800           0
       114 PROA     12       SER      CA       CT1      0.700000E-01   12.0110           0
       115 PROA     12       SER      HA       HB1      0.900000E-01   1.00800           0
       116 PROA     12       SER      CB       CT2      0.500000E-01   12.0110           0
       117 PROA     12       SER      HB1      HA2      0.900000E-01   1.00800           0
       118 PROA     12       SER      HB2      HA2      0.900000E-01   1.00800           0
       119 PROA     12       SER      OG       OH1     -0.660000       15.9994           0
       120 PROA     12       SER      HG1      H        0.430000       1.00800           0
       121 PROA     12       SER      C        C        0.510000       12.0110           0
       122 PROA     12       SER      O        O       -0.510000       15.9994           0
       123 PROA     13       GLY      N        NH1     -0.470000       14.0070           0
       124 PROA     13       GLY      HN       H        0.310000       1.00800           0
       125 PROA     13       GLY      CA       CT2     -0.200000E-01   12.0110           0
       126 PROA     13       GLY      HA1      HB2      0.900000E-01   1.00800           0
       127 PROA     13       GLY      HA2      HB2      0.900000E-01   1.00800           0
       128 PROA     13       GLY      C        C        0.510000       12.0110           0
       129 PROA     13       GLY      O        O       -0.510000       15.9994           0
       130 PROA     14       ASP      N        NH1     -0.470000       14.0070           0
       131 PROA     14       ASP      HN       H        0.310000       1.00800           0
       132 PROA     14       ASP      CA       CT1      0.700000E-01   12.0110           0
       133 PROA     14       ASP      HA       HB1      0.900000E-01   1.00800           0
       134 PROA     14       ASP      CB       CT2A    -0.280000       12.0110           0
       135 PROA     14       ASP      HB1      HA2      0.900000E-01   1.00800           0
       136 PROA     14       ASP      HB2      HA2      0.900000E-01   1.00800           0
       137 PROA     14       ASP      CG       CC       0.620000       12.0110           0
       138 PROA     14       ASP      OD1      OC      -0.760000       15.9994           0
       139 PROA     14       ASP      OD2      OC      -0.760000       15.9994           0
       140 PROA     14       ASP      C        C        0.510000       12.0110           0
       141 PROA     14       ASP      O        O       -0.510000       15.9994           0
       142 PROA     15       SER      N        NH1     -0.470000       14.0070           0
       143 PROA     15       SER      HN       H        0.310000       1.00800           0
       144 PROA     15       SER      CA       CT1      0.700000E-01   12.0110           0
       145 PROA     15       SER      HA       HB1      0.900000E-01   1.00800           0
       146 PROA     15       SER      CB       CT2      0.500000E-01   12.0110           0
       147 PROA     15       SER      HB1      HA2      0.900000E-01   1.00800           0
       148 PROA     15       SER      HB2      HA2      0.900000E-01   1.00800           0
       149 PROA     15       SER      OG       OH1     -0.660000       15.9994           0
       150 PROA     15       SER      HG1      H        0.430000       1.00800           0
       151 PROA     15       SER      C        CC       0.340000       12.0110           0
       152 PROA     15       SER      OT1      OC      -0.670000       15.9994           0
       153 PROA     15       SER      OT2      OC      -0.670000       15.9994           0

       154 !NBOND: bonds
         2         1         3         1         4         1         1         5
         8         5         8        10         5         6         5         7
         9         8        14        12        17        14        19        17
        10        11        10        12        20        12        20        22
        12        13        14        15        14        16        21        20
        17        18        26        24        29        26        22        23
        22        24        31        24        31        33        24        25
        26        27        26        28        29        30        32        31
        33        34        33        35        38        35        38        40
        35        36        35        37        39        38        44        42
        47        44        40        41        40        42        49        42
        49        51        42        43        44        45        44        46
        47        48        50        49        51        52        51        53
        56        53        56        58        53        54        53        55
        57        56        70        62        70        72        58        62
        62        64        64        67        67        59        58        59
        63        62        68        67        69        67        60        59
        61        59        65        64        66        64        71        70
        72        73        72        74        77        74        77        79
        74        75        74        76        78        77        83        81
        86        83        88        86        79        80        79        81
        89        81        89        91        81        82        83        84
        83        85        90        89        86        87       103        95
       103       105        91        95        95        97        97       100
       100        92        91        92        96        95       101       100
       102       100        93        92        94        92        98        97
        99        97       104       103       105       106       105       107
       110       107       110       112       107       108       107       109
       111       110       116       114       119       116       112       113
       112       114       121       114       121       123       114       115
       116       117       116       118       119       120       122       121
       123       124       123       125       128       125       128       130
       125       126       125       127       129       128       134       132
       137       134       139       137       130       131       130       132
       140       132       140       142       132       133       134       135
       134       136       141       140       137       138       146       144
       149       146       142       143       142       144       151       144
       144       145       146       147       146       148       149       150
       151       153       151       152

       274 !NTHETA: angles
         2         1         3         2         1         4         2         1         5
         3         1         4         3         1         5         4         1         5
         1         5         6         1         5         7         1         5         8
         6         5         7         6         5         8         7         5         8
         5         8         9         5         8        10         9         8        10
         8        10        11         8        10        12        11        10        12
        10        12        13        10        12        14        10        12        20
        13        12        14        13        12        20        14        12        20
        12        14        15        12        14        16        12        14        17
        15        14        16        15        14        17        16        14        17
        14        17        18        14        17        19        18        17        19
        12        20        21        12        20        22        21        20        22
        20        22        23        20        22        24        23        22        24
        22        24        25        22        24        26        22        24        31
        25        24        26        25        24        31        26        24        31
        24        26        27        24        26        28        24        26        29
        27        26        28        27        26        29        28        26        29
        26        29        30        24        31        32        24        31        33
        32        31        33        31        33        34        31        33        35
        34        33        35        33        35        36        33        35        37
        33        35        38        36        35        37        36        35        38
        37        35        38        35        38        39        35        38        40
        39        38        40        38        40        41        38        40        42
        41        40        42        40        42        43        40        42        44
        40        42        49        43        42        44        43        42        49
        44        42        49        42        44        45        42        44        46
        42        44        47        45        44        46        45        44        47
        46        44        47        44        47        48        42        49        50
        42        49        51        50        49        51        49        51        52
        49        51        53        52        51        53        51        53        54
        51        53        55        51        53        56        54        53        55
        54        53        56        55        53        56        53        56        57
        53        56        58        57        56        58        56        58        59
        56        58        62        59        58        62        58        59        60
        58        59        61        58        59        67        60        59        61
        60        59        67        61        59        67        58        62        63
        58        62        64        58        62        70        63        62        64
        63        62        70        64        62        70        62        64        65
        62        64        66        62        64        67        65        64        66
        65        64        67        66        64        67        59        67        64
        59        67        68        59        67        69        64        67        68
        64        67        69        68        67        69        62        70        71
        62        70        72        71        70        72        70        72        73
        70        72        74        73        72        74        72        74        75
        72        74        76        72        74        77        75        74        76
        75        74        77        76        74        77        74        77        78
        74        77        79        78        77        79        77        79        80
        77        79        81        80        79        81        79        81        82
        79        81        83        79        81        89        82        81        83
        82        81        89        83        81        89        81        83        84
        81        83        85        81        83        86        84        83        85
        84        83        86        85        83        86        83        86        87
        83        86        88        87        86        88        81        89        90
        81        89        91        90        89        91        89        91        92
        89        91        95        92        91        95        91        92        93
        91        92        94        91        92       100        93        92        94
        93        92       100        94        92       100        91        95        96
        91        95        97        91        95       103        96        95        97
        96        95       103        97        95       103        95        97        98
        95        97        99        95        97       100        98        97        99
        98        97       100        99        97       100        92       100        97
        92       100       101        92       100       102        97       100       101
        97       100       102       101       100       102        95       103       104
        95       103       105       104       103       105       103       105       106
       103       105       107       106       105       107       105       107       108
       105       107       109       105       107       110       108       107       109
       108       107       110       109       107       110       107       110       111
       107       110       112       111       110       112       110       112       113
       110       112       114       113       112       114       112       114       115
       112       114       116       112       114       121       115       114       116
       115       114       121       116       114       121       114       116       117
       114       116       118       114       116       119       117       116       118
       117       116       119       118       116       119       116       119       120
       114       121       122       114       121       123       122       121       123
       121       123       124       121       123       125       124       123       125
       123       125       126       123       125       127       123       125       128
       126       125       127       126       125       128       127       125       128
       125       128       129       125       128       130       129       128       130
       128       130       131       128       130       132       131       130       132
       130       132       133       130       132       134       130       132       140
       133       132       134       133       132       140       134       132       140
       132       134       135       132       134       136       132       134       137
       135       134       136       135       134       137       136       134       137
       134       137       138       134       137       139       138       137       139
       132       140       141       132       140       142       141       140       142
       140       142       143       140       142       144       143       142       144
       142       144       145       142       144       146       142       144       151
       145       144       146       145       144       151       146       144       151
       144       146       147       144       146       148       144       146       149
       147       146       148       147       146       149       148       146       149
       146       149       150       144       151       152       144       151       153
       152       151       153

       398 !NPHI: dihedrals
         1         5         8         9         1         5         8        10
         2         1         5         6         2         1         5         7
         2         1         5         8         3         1         5         6
         3         1         5         7         3         1         5         8
         4         1         5         6         4         1         5         7
         4         1         5         8         5         8        10        11
         5         8        10        12         6         5         8         9
         6         5         8        10         7         5         8         9
         7         5         8        10         8        10        12        13
         8        10        12        14         8        10        12        20
         9         8        10        11         9         8        10        12
        10        12        14        15        10        12        14        16
        10        12        14        17        10        12        20        21
        10        12        20        22        11        10        12        13
        11        10        12        14        11        10        12        20
        12        14        17        18        12        14        17        19
        12        20        22        23        12        20        22        24
        13        12        14        15        13        12        14        16
        13        12        14        17        13        12        20        21
        13        12        20        22        14        12        20        21
        14        12        20        22        15        14        12        20
        15        14        17        18        15        14        17        19
        16        14        12        20        16        14        17        18
        16        14        17        19        17        14        12        20
        20        22        24        25        20        22        24        26
        20        22        24        31        21        20        22        23
        21        20        22        24        22        24        26        27
        22        24        26        28        22        24        26        29
        22        24        31        32        22        24        31        33
        23        22        24        25        23        22        24        26
        23        22        24        31        24        26        29        30
        24        31        33        34        24        31        33        35
        25        24        26        27        25        24        26        28
        25        24        26        29        25        24        31        32
        25        24        31        33        26        24        31        32
        26        24        31        33        27        26        24        31
        27        26        29        30        28        26        24        31
        28        26        29        30        29        26        24        31
        31        33        35        36        31        33        35        37
        31        33        35        38        32        31        33        34
        32        31        33        35        33        35        38        39
        33        35        38        40        34        33        35        36
        34        33        35        37        34        33        35        38
        35        38        40        41        35        38        40        42
        36        35        38        39        36        35        38        40
        37        35        38        39        37        35        38        40
        38        40        42        43        38        40        42        44
        38        40        42        49        39        38        40        41
        39        38        40        42        40        42        44        45
        40        42        44        46        40        42        44        47
        40        42        49        50        40        42        49        51
        41        40        42        43        41        40        42        44
        41        40        42        49        42        44        47        48
        42        49        51        52        42        49        51        53
        43        42        44        45        43        42        44        46
        43        42        44        47        43        42        49        50
        43        42        49        51        44        42        49        50
        44        42        49        51        45        44        42        49
        45        44        47        48        46        44        42        49
        46        44        47        48        47        44        42        49
        49        51        53        54        49        51        53        55
        49        51        53        56        50        49        51        52
        50        49        51        53        51        53        56        57
        51        53        56        58        52        51        53        54
        52        51        53        55        52        51        53        56
        53        56        58        59        53        56        58        62
        54        53        56        57        54        53        56        58
        55        53        56        57        55        53        56        58
        56        58        59        60        56        58        59        61
        56        58        59        67        56        58        62        63
        56        58        62        64        56        58        62        70
        57        56        58        59        57        56        58        62
        58        59        67        64        58        59        67        68
        58        59        67        69        58        62        64        65
        58        62        64        66        58        62        64        67
        58        62        70        71        58        62        70        72
        59        58        62        63        59        58        62        64
        59        58        62        70        59        67        64        62
        59        67        64        65        59        67        64        66
        60        59        58        62        60        59        67        64
        60        59        67        68        60        59        67        69
        61        59        58        62        61        59        67        64
        61        59        67        68        61        59        67        69
        62        58        59        67        62        64        67        68
        62        64        67        69        62        70        72        73
        62        70        72        74        63        62        64        65
        63        62        64        66        63        62        64        67
        63        62        70        71        63        62        70        72
        64        62        70        71        64        62        70        72
        65        64        62        70        65        64        67        68
        65        64        67        69        66        64        62        70
        66        64        67        68        66        64        67        69
        67        64        62        70        70        72        74        75
        70        72        74        76        70        72        74        77
        71        70        72        73        71        70        72        74
        72        74        77        78        72        74        77        79
        73        72        74        75        73        72        74        76
        73        72        74        77        74        77        79        80
        74        77        79        81        75        74        77        78
        75        74        77        79        76        74        77        78
        76        74        77        79        77        79        81        82
        77        79        81        83        77        79        81        89
        78        77        79        80        78        77        79        81
        79        81        83        84        79        81        83        85
        79        81        83        86        79        81        89        90
        79        81        89        91        80        79        81        82
        80        79        81        83        80        79        81        89
        81        83        86        87        81        83        86        88
        81        89        91        92        81        89        91        95
        82        81        83        84        82        81        83        85
        82        81        83        86        82        81        89        90
        82        81        89        91        83        81        89        90
        83        81        89        91        84        83        81        89
        84        83        86        87        84        83        86        88
        85        83        81        89        85        83        86        87
        85        83        86        88        86        83        81        89
        89        91        92        93        89        91        92        94
        89        91        92       100        89        91        95        96
        89        91        95        97        89        91        95       103
        90        89        91        92        90        89        91        95
        91        92       100        97        91        92       100       101
        91        92       100       102        91        95        97        98
        91        95        97        99        91        95        97       100
        91        95       103       104        91        95       103       105
        92        91        95        96        92        91        95        97
        92        91        95       103        92       100        97        95
        92       100        97        98        92       100        97        99
        93        92        91        95        93        92       100        97
        93        92       100       101        93        92       100       102
        94        92        91        95        94        92       100        97
        94        92       100       101        94        92       100       102
        95        91        92       100        95        97       100       101
        95        97       100       102        95       103       105       106
        95       103       105       107        96        95        97        98
        96        95        97        99        96        95        97       100
        96        95       103       104        96        95       103       105
        97        95       103       104        97        95       103       105
        98        97        95       103        98        97       100       101
        98        97       100       102        99        97        95       103
        99        97       100       101        99        97       100       102
       100        97        95       103       103       105       107       108
       103       105       107       109       103       105       107       110
       104       103       105       106       104       103       105       107
       105       107       110       111       105       107       110       112
       106       105       107       108       106       105       107       109
       106       105       107       110       107       110       112       113
       107       110       112       114       108       107       110       111
       108       107       110       112       109       107       110       111
       109       107       110       112       110       112       114       115
       110       112       114       116       110       112       114       121
       111       110       112       113       111       110       112       114
       112       114       116       117       112       114       116       118
       112       114       116       119       112       114       121       122
       112       114       121       123       113       112       114       115
       113       112       114       116       113       112       114       121
       114       116       119       120       114       121       123       124
       114       121       123       125       115       114       116       117
       115       114       116       118       115       114       116       119
       115       114       121       122       115       114       121       123
       116       114       121       122       116       114       121       123
       117       116       114       121       117       116       119       120
       118       116       114       121       118       116       119       120
       119       116       114       121       121       123       125       126
       121       123       125       127       121       123       125       128
       122       121       123       124       122       121       123       125
       123       125       128       129       123       125       128       130
       124       123       125       126       124       123       125       127
       124       123       125       128       125       128       130       131
       125       128       130       132       126       125       128       129
       126       125       128       130       127       125       128       129
       127       125       128       130       128       130       132       133
       128       130       132       134       128       130       132       140
       129       128       130       131       129       128       130       132
       130       132       134       135       130       132       134       136
       130       132       134       137       130       132       140       141
       130       132       140       142       131       130       132       133
       131       130       132       134       131       130       132       140
       132       134       137       138       132       134       137       139
       132       140       142       143       132       140       142       144
       133       132       134       135       133       132       134       136
       133       132       134       137       133       132       140       141
       133       132       140       142       134       132       140       141
       134       132       140       142       135       134       132       140
       135       134       137       138       135       134       137       139
       136       134       132       140       136       134       137       138
       136       134       137       139       137       134       132       140
       140       142       144       145       140       142       144       146
       140       142       144       151       141       140       142       143
       141       140       142       144       142       144       146       147
       142       144       146       148       142       144       146       149
       142       144       151       152       142       144       151       153
       143       142       144       145       143       142       144       146
       143       142       144       151       144       146       149       150
       145       144       146       147       145       144       146       148
       145       144       146       149       145       144       151       152
       145       144       151       153       146       144       151       152
       146       144       151       153       147       146       144       151
       147       146       149       150       148       146       144       151
       148       146       149       150       149       146       144       151

        32 !NIMPHI: impropers
         8         5        10         9        10         8        12        11
        20        12        22        21        17        14        19        18
        22        20        24        23        31        24        33        32
        33        31        35        34        38        35        40        39
        40        38        42        41        49        42        51        50
        51        49        53        52        56        53        58        57
        58        56        62        59        70        62        72        71
        72        70        74        73        77        74        79        78
        79        77        81        80        89        81        91        90
        86        83        88        87        91        89        95        92
       103        95       105       104       105       103       107       106
       110       107       112       111       112       110       114       113
       121       114       123       122       123       121       125       124
       128       125       130       129       130       128       132       131
       140       132       142       141       137       134       139       138
       142       140       144       143       151       144       153       152

        19 !NDON: donors
         1         2         1         3         1         4        10        11
        22        23        29        30        33        34        40        41
        47        48        51        52        72        73        79        80
       105       106       112       113       119       120       123       124
       130       131       142       143       149       150

        26 !NACC: acceptors
         9         8        18        17        19        17        21        20
        29         0        32        31        39        38        47         0
        50        49        57        56        71        70        78        77
        87        86        88        86        90        89       104       103
       111       110       119         0       122       121       129       128
       138       137       139       137       141       140       149         0
       152       151       153       151

         0 !NNB

         0         0         0         0         0         0         0         0
         0         0         0         0         0         0         0         0
         0         0         0         0         0         0         0         0
         0         0         0         0         0         0         0         0
         0         0         0         0         0         0         0         0
         0         0         0         0         0         0         0         0
         0         0         0         0         0         0         0         0
         0         0         0         0         0         0         0         0
         0         0         0         0         0         0         0         0
         0         0         0         0         0         0         0         0
         0         0         0         0         0         0         0         0
         0         0         0         0         0         0         0         0
         0         0         0         0         0         0         0         0
         0         0         0         0         0         0         0         0
         0         0         0         0         0         0         0         0
         0         0         0         0         0         0         0         0
         0         0         0         0         0         0         0         0
         0         0         0         0         0         0         0         0
         0         0         0         0         0         0         0         0
         0

        41         0 !NGRP NST2
         0         2         0         7         1         0         9         1         0
        13         2         0        19         1         0        21         1         0
        25         1         0        30         1         0        32         1         0
        37         1         0        39         1         0        43         1         0
        48         1         0        50         1         0        55         1         0
        57         1         0        63         1         0        66         1         0
        69         1         0        71         1         0        76         1         0
        78         1         0        82         2         0        88         1         0
        90         1         0        96         1         0        99         1         0
       102         1         0       104         1         0       109         1         0
       111         1         0       115         1         0       120         1         0
       122         1         0       127         1         0       129         1         0
       133         2         0       139         1         0       141         1         0
       145         1         0       150         2         0

         0         0 !NUMLP NUMLPH

        13 !NCRTERM: cross-terms
         8        10        12        20        10        12        20        22
        20        22        24        31        22        24        31        33
        31        33        35        38        33        35        38        40
        38        40        42        49        40        42        49        51
        49        51        53        56        51        53        56        58
        56        58        62        70        58        62        70        72
        70        72        74        77        72        74        77        79
        77        79        81        89        79        81        89        91
        89        91        95       103        91        95       103       105
       103       105       107       110       105       107       110       112
       110       112       114       121       112       114       121       123
       121       123       125       128       123       125       128       130
       128       130       132       140       130       132       140       142
