Title t= 217.00000 step= 108500
44389
    1GLY      N    1   6.287   3.546   0.868
    1GLY    HT1    2   6.204   3.491   0.901
    1GLY    HT2    3   6.359   3.529   0.941
    1GLY    HT3    4   6.305   3.499   0.777
    1GLY     CA    5   6.245   3.693   0.850
    1GLY    HA1    6   6.162   3.693   0.781
    1GLY    HA2    7   6.334   3.734   0.804
    1GLY      C    8   6.216   3.769   0.982
    1GLY      O    9   6.230   3.713   1.090
    2PRO      N   10   6.185   3.904   0.988
    2PRO     CD   11   6.167   3.983   0.869
    2PRO    HD1   12   6.074   3.947   0.821
    2PRO    HD2   13   6.259   3.974   0.806
    2PRO     CA   14   6.146   3.972   1.112
    2PRO     HA   15   6.238   3.981   1.169
    2PRO     CB   16   6.083   4.103   1.060
    2PRO    HB1   17   6.109   4.180   1.135
    2PRO    HB2   18   5.975   4.085   1.040
    2PRO     CG   19   6.158   4.117   0.928
    2PRO    HG1   20   6.114   4.186   0.852
    2PRO    HG2   21   6.258   4.156   0.956
    2PRO      C   22   6.041   3.893   1.192
    2PRO      O   23   5.941   3.844   1.139
    3GLY      N   24   6.060   3.874   1.321
    3GLY     HN   25   6.144   3.891   1.373
    3GLY     CA   26   5.971   3.807   1.409
    3GLY    HA1   27   5.873   3.841   1.377
    3GLY    HA2   28   5.996   3.835   1.511
    3GLY      C   29   5.966   3.656   1.392
    3GLY      O   30   6.032   3.597   1.304
    4ASP      N   31   5.879   3.592   1.466
    4ASP     HN   32   5.843   3.649   1.539
    4ASP     CA   33   5.837   3.449   1.452
    4ASP     HA   34   5.929   3.394   1.453
    4ASP     CB   35   5.741   3.410   1.569
    4ASP    HB1   36   5.679   3.326   1.531
    4ASP    HB2   37   5.668   3.486   1.603
    4ASP     CG   38   5.817   3.399   1.704
    4ASP    OD1   39   5.942   3.383   1.702
    4ASP    OD2   40   5.754   3.393   1.808
    4ASP      C   41   5.765   3.422   1.315
    4ASP      O   42   5.694   3.510   1.262
    5PRO      N   43   5.775   3.297   1.265
    5PRO     CD   44   5.884   3.200   1.288
    5PRO    HD1   45   5.861   3.150   1.384
    5PRO    HD2   46   5.986   3.243   1.294
    5PRO     CA   47   5.691   3.253   1.148
    5PRO     HA   48   5.723   3.320   1.069
    5PRO     CB   49   5.717   3.104   1.126
    5PRO    HB1   50   5.693   3.062   1.027
    5PRO    HB2   51   5.654   3.040   1.191
    5PRO     CG   52   5.860   3.090   1.182
    5PRO    HG1   53   5.890   2.989   1.216
    5PRO    HG2   54   5.929   3.109   1.097
    5PRO      C   55   5.547   3.284   1.162
    5PRO      O   56   5.500   3.256   1.277
    6GLY      N   57   5.468   3.324   1.061
    6GLY     HN   58   5.516   3.322   0.974
    6GLY     CA   59   5.333   3.362   1.053
    6GLY    HA1   60   5.280   3.270   1.073
    6GLY    HA2   61   5.317   3.402   0.954
    6GLY      C   62   5.285   3.464   1.156
    6GLY      O   63   5.354   3.551   1.204
    7SER      N   64   5.153   3.458   1.180
    7SER     HN   65   5.091   3.400   1.128
    7SER     CA   66   5.089   3.536   1.290
    7SER     HA   67   5.163   3.552   1.368
    7SER     CB   68   5.040   3.677   1.237
    7SER    HB1   69   4.962   3.722   1.302
    7SER    HB2   70   4.997   3.665   1.135
    7SER     OG   71   5.149   3.762   1.245
    7SER    HG1   72   5.217   3.720   1.192
    7SER      C   73   4.973   3.465   1.351
    7SER      O   74   4.917   3.378   1.286
    8GLY      N   75   4.929   3.504   1.472
    8GLY     HN   76   4.984   3.555   1.538
    8GLY     CA   77   4.807   3.449   1.539
    8GLY    HA1   78   4.790   3.520   1.618
    8GLY    HA2   79   4.830   3.349   1.572
    8GLY      C   80   4.665   3.446   1.465
    8GLY      O   81   4.649   3.480   1.351
    9ASN      N   82   4.563   3.389   1.537
    9ASN     HN   83   4.590   3.343   1.621
    9ASN     CA   84   4.423   3.397   1.499
    9ASN     HA   85   4.407   3.459   1.412
    9ASN     CB   86   4.374   3.257   1.466
    9ASN    HB1   87   4.384   3.199   1.561
    9ASN    HB2   88   4.436   3.216   1.384
    9ASN     CG   89   4.227   3.267   1.412
    9ASN    OD1   90   4.171   3.373   1.398
    9ASN    ND2   91   4.165   3.150   1.398
    9ASN   HD21   92   4.065   3.154   1.401
    9ASN   HD22   93   4.214   3.063   1.405
    9ASN      C   94   4.351   3.470   1.621
    9ASN      O   95   4.372   3.424   1.734
   10PRO      N   96   4.265   3.572   1.607
   10PRO     CD   97   4.266   3.658   1.493
   10PRO    HD1   98   4.207   3.617   1.408
   10PRO    HD2   99   4.367   3.667   1.448
   10PRO     CA  100   4.168   3.629   1.713
   10PRO     HA  101   4.229   3.658   1.797
   10PRO     CB  102   4.104   3.750   1.651
   10PRO    HB1  103   4.099   3.820   1.737
   10PRO    HB2  104   4.007   3.744   1.598
   10PRO     CG  105   4.218   3.790   1.555
   10PRO    HG1  106   4.184   3.859   1.475
   10PRO    HG2  107   4.302   3.844   1.602
   10PRO      C  108   4.071   3.531   1.777
   10PRO      O  109   4.008   3.459   1.701
   11GLY      N  110   4.067   3.529   1.910
   11GLY     HN  111   4.135   3.578   1.963
   11GLY     CA  112   3.976   3.438   1.982
   11GLY    HA1  113   4.030   3.399   2.066
   11GLY    HA2  114   3.932   3.363   1.918
   11GLY      C  115   3.861   3.521   2.039
   11GLY      O  116   3.868   3.641   2.061
   12SER      N  117   3.739   3.454   2.066
   12SER     HN  118   3.712   3.371   2.018
   12SER     CA  119   3.638   3.507   2.148
   12SER     HA  120   3.638   3.615   2.152
   12SER     CB  121   3.494   3.462   2.095
   12SER    HB1  122   3.468   3.505   1.996
   12SER    HB2  123   3.417   3.495   2.168
   12SER     OG  124   3.484   3.324   2.076
   12SER    HG1  125   3.526   3.277   2.149
   12SER      C  126   3.645   3.459   2.294
   12SER      O  127   3.566   3.507   2.372
   13GLY      N  128   3.728   3.368   2.337
   13GLY     HN  129   3.796   3.341   2.269
   13GLY     CA  130   3.727   3.300   2.463
   13GLY    HA1  131   3.720   3.386   2.528
   13GLY    HA2  132   3.814   3.240   2.486
   13GLY      C  133   3.604   3.206   2.484
   13GLY      O  134   3.509   3.204   2.403
   14ASP      N  135   3.620   3.124   2.592
   14ASP     HN  136   3.699   3.140   2.651
   14ASP     CA  137   3.520   3.030   2.645
   14ASP     HA  138   3.488   2.954   2.575
   14ASP     CB  139   3.583   2.957   2.768
   14ASP    HB1  140   3.510   2.912   2.840
   14ASP    HB2  141   3.628   3.031   2.838
   14ASP     CG  142   3.674   2.839   2.734
   14ASP    OD1  143   3.768   2.807   2.807
   14ASP    OD2  144   3.653   2.778   2.627
   14ASP      C  145   3.387   3.082   2.700
   14ASP      O  146   3.389   3.198   2.739
   15PRO      N  147   3.270   3.011   2.697
   15PRO     CD  148   3.272   2.868   2.674
   15PRO    HD1  149   3.330   2.829   2.761
   15PRO    HD2  150   3.331   2.841   2.584
   15PRO     CA  151   3.147   3.066   2.747
   15PRO     HA  152   3.136   3.165   2.706
   15PRO     CB  153   3.048   2.959   2.698
   15PRO    HB1  154   3.008   2.998   2.602
   15PRO    HB2  155   2.961   2.951   2.767
   15PRO     CG  156   3.128   2.831   2.683
   15PRO    HG1  157   3.106   2.761   2.766
   15PRO    HG2  158   3.097   2.789   2.585
   15PRO      C  159   3.153   3.075   2.898
   15PRO    OT1  160   3.200   2.982   2.966
   15PRO    OT2  161   3.105   3.177   2.955
   16SOD    SOD  162   4.652   4.738   1.245
   17SOD    SOD  163   1.005   3.037   1.100
   18SOD    SOD  164   2.630   6.148   3.623
   19SOD    SOD  165   7.281   5.130   5.171
   20SOD    SOD  166   3.196   2.394   2.686
   21SOD    SOD  167   6.052   0.698   5.827
   22SOD    SOD  168   4.696   4.981   5.069
   23SOD    SOD  169   0.836   7.646   3.325
   24SOD    SOD  170   0.687   6.982   1.032
   25SOD    SOD  171   5.767   6.921   6.055
   26SOD    SOD  172   1.915   4.606   4.541
   27SOD    SOD  173   0.766   3.635   4.503
   28SOD    SOD  174   7.800   2.017   5.091
   29SOD    SOD  175   5.408   2.809   6.626
   30SOD    SOD  176   8.268   7.419   5.444
   31SOD    SOD  177   2.509   2.497   1.646
   32SOD    SOD  178   6.003   1.320   4.401
   33SOD    SOD  179   6.272   5.054   2.357
   34SOD    SOD  180   4.465   2.094   0.010
   35SOD    SOD  181   6.744   5.029   0.712
   36SOD    SOD  182   1.299   4.153   0.515
   37SOD    SOD  183   7.795   4.523   5.254
   38SOD    SOD  184   6.532   2.210   5.334
   39SOD    SOD  185   2.801   3.285   3.640
   40SOD    SOD  186   3.819   3.776   6.709
   41SOD    SOD  187   6.985   1.297   1.531
   42SOD    SOD  188   6.805   5.405   3.939
   43SOD    SOD  189   6.582   2.824   4.540
   44SOD    SOD  190   0.060   1.863   6.403
   45SOD    SOD  191   3.046   2.470   0.601
   46SOD    SOD  192   2.889   3.888   5.288
   47SOD    SOD  193   4.453   6.506   3.112
   48SOD    SOD  194   3.633   0.177   3.539
   49SOD    SOD  195   8.097   1.596   2.911
   50SOD    SOD  196   4.199   3.624   5.426
   51SOD    SOD  197   5.418   3.879   0.151
   52SOD    SOD  198   4.283   4.892   5.995
   53SOD    SOD  199   5.042   0.846   0.198
   54SOD    SOD  200   0.812   5.506   2.484
   55SOD    SOD  201   0.788   6.294   3.422
   56SOD    SOD  202   1.677   3.441   4.803
   57SOD    SOD  203   7.427   0.321   6.021
   58SOD    SOD  204   7.889   7.332   1.402
   59SOD    SOD  205   2.585   4.479   4.116
   60CLA    CLA  206   1.203   7.397   2.322
   61CLA    CLA  207   2.644   7.649   4.373
   62CLA    CLA  208   1.713   1.257   6.360
   63CLA    CLA  209   2.580   1.688   0.518
   64CLA    CLA  210   6.633   2.503   6.245
   65CLA    CLA  211   7.841   5.249   5.796
   66CLA    CLA  212   7.710   2.844   6.544
   67CLA    CLA  213   6.775   0.297   4.459
   68CLA    CLA  214   3.778   3.742   4.446
   69CLA    CLA  215   2.569   4.328   0.994
   70CLA    CLA  216   7.718   2.363   4.164
   71CLA    CLA  217   2.709   7.482   4.815
   72CLA    CLA  218   4.077   7.615   6.511
   73CLA    CLA  219   0.320   4.771   4.013
   74CLA    CLA  220   7.400   5.733   5.431
   75CLA    CLA  221   1.905   6.517   6.290
   76CLA    CLA  222   0.942   6.282   5.516
   77CLA    CLA  223   5.981   6.678   1.558
   78CLA    CLA  224   2.441   1.724   5.237
   79CLA    CLA  225   4.489   4.499   1.902
   80CLA    CLA  226   7.907   0.720   0.763
   81CLA    CLA  227   4.441   1.543   3.967
   82CLA    CLA  228   1.310   2.750   5.561
   83CLA    CLA  229   7.518   6.073   6.248
   84CLA    CLA  230   7.175   5.161   4.923
   85CLA    CLA  231   5.068   4.321   1.329
   86CLA    CLA  232   7.036   7.152   2.867
   87CLA    CLA  233   2.771   5.076   0.865
   88CLA    CLA  234   7.719   5.286   3.343
   89CLA    CLA  235   3.693   0.476   3.927
   90CLA    CLA  236   4.505   5.965   2.709
   91CLA    CLA  237   5.136   6.046   1.017
   92CLA    CLA  238   0.496   1.582   2.606
   93CLA    CLA  239   6.577   5.729   2.737
   94CLA    CLA  240   2.937   4.327   4.393
   95CLA    CLA  241   1.714   4.763   4.576
   96CLA    CLA  242   2.432   7.125   3.655
   97CLA    CLA  243   0.111   1.631   3.786
   98CLA    CLA  244   6.735   5.311   3.684
   99CLA    CLA  245   3.259   4.848   4.900
  100CLA    CLA  246   4.785   6.733   6.024
  101CLA    CLA  247   5.966   1.924   4.335
  102TIP3   OH2  248   0.865   0.311   4.224
  102TIP3    H1  249   0.808   0.366   4.279
  102TIP3    H2  250   0.893   0.240   4.282
  103TIP3   OH2  251   2.880   2.992   4.887
  103TIP3    H1  252   2.792   2.959   4.870
  103TIP3    H2  253   2.894   2.976   4.981
  104TIP3   OH2  254   0.188   4.108   0.415
  104TIP3    H1  255   0.195   4.179   0.352
  104TIP3    H2  256   0.266   4.116   0.470
  105TIP3   OH2  257   3.642   3.565   4.816
  105TIP3    H1  258   3.728   3.594   4.784
  105TIP3    H2  259   3.654   3.472   4.835
  106TIP3   OH2  260   6.772   3.327   1.189
  106TIP3    H1  261   6.788   3.421   1.197
  106TIP3    H2  262   6.699   3.311   1.249
  107TIP3   OH2  263   6.522   0.854   4.670
  107TIP3    H1  264   6.579   0.791   4.713
  107TIP3    H2  265   6.434   0.819   4.680
  108TIP3   OH2  266   6.128   0.991   5.029
  108TIP3    H1  267   6.203   0.948   5.072
  108TIP3    H2  268   6.118   0.945   4.946
  109TIP3   OH2  269   3.260   1.619   0.817
  109TIP3    H1  270   3.290   1.529   0.809
  109TIP3    H2  271   3.253   1.650   0.727
  110TIP3   OH2  272   6.578   7.783   2.924
  110TIP3    H1  273   6.662   7.739   2.916
  110TIP3    H2  274   6.572   7.840   2.847
  111TIP3   OH2  275   3.000   3.709   1.597
  111TIP3    H1  276   3.054   3.700   1.676
  111TIP3    H2  277   2.921   3.755   1.627
  112TIP3   OH2  278   0.225   7.464   2.729
  112TIP3    H1  279   0.165   7.478   2.802
  112TIP3    H2  280   0.206   7.535   2.668
  113TIP3   OH2  281   2.005   2.281   1.067
  113TIP3    H1  282   1.935   2.261   1.129
  113TIP3    H2  283   1.997   2.213   0.999
  114TIP3   OH2  284   4.354   0.111   0.852
  114TIP3    H1  285   4.262   0.086   0.840
  114TIP3    H2  286   4.357   0.151   0.939
  115TIP3   OH2  287   8.151   1.879   6.175
  115TIP3    H1  288   8.193   1.808   6.127
  115TIP3    H2  289   8.179   1.958   6.129
  116TIP3   OH2  290   6.989   6.080   5.285
  116TIP3    H1  291   6.894   6.086   5.289
  116TIP3    H2  292   7.006   5.993   5.248
  117TIP3   OH2  293   2.986   6.876   2.949
  117TIP3    H1  294   2.936   6.796   2.965
  117TIP3    H2  295   2.942   6.942   3.002
  118TIP3   OH2  296   4.892   0.540   3.933
  118TIP3    H1  297   4.974   0.503   3.966
  118TIP3    H2  298   4.834   0.540   4.008
  119TIP3   OH2  299   4.605   0.180   5.289
  119TIP3    H1  300   4.614   0.261   5.238
  119TIP3    H2  301   4.510   0.171   5.303
  120TIP3   OH2  302   4.291   3.219   3.458
  120TIP3    H1  303   4.243   3.230   3.540
  120TIP3    H2  304   4.224   3.189   3.396
  121TIP3   OH2  305   1.968   5.858   0.717
  121TIP3    H1  306   2.036   5.793   0.699
  121TIP3    H2  307   1.970   5.869   0.812
  122TIP3   OH2  308   2.525   0.120   0.069
  122TIP3    H1  309   2.504   0.147   0.159
  122TIP3    H2  310   2.441   0.123   0.023
  123TIP3   OH2  311   2.334   7.430   0.547
  123TIP3    H1  312   2.353   7.338   0.528
  123TIP3    H2  313   2.407   7.478   0.508
  124TIP3   OH2  314   5.903   0.556   6.211
  124TIP3    H1  315   5.997   0.541   6.204
  124TIP3    H2  316   5.896   0.641   6.256
  125TIP3   OH2  317   1.387   5.199   3.104
  125TIP3    H1  318   1.392   5.104   3.109
  125TIP3    H2  319   1.364   5.217   3.013
  126TIP3   OH2  320   7.146   6.272   5.948
  126TIP3    H1  321   7.176   6.341   5.888
  126TIP3    H2  322   7.133   6.195   5.892
  127TIP3   OH2  323   7.217   5.228   2.081
  127TIP3    H1  324   7.201   5.173   2.004
  127TIP3    H2  325   7.257   5.307   2.046
  128TIP3   OH2  326   0.600   7.224   3.075
  128TIP3    H1  327   0.622   7.311   3.042
  128TIP3    H2  328   0.664   7.166   3.034
  129TIP3   OH2  329   4.766   2.023   1.087
  129TIP3    H1  330   4.723   2.104   1.059
  129TIP3    H2  331   4.839   2.014   1.026
  130TIP3   OH2  332   3.975   3.413   6.407
  130TIP3    H1  333   4.060   3.428   6.366
  130TIP3    H2  334   3.996   3.368   6.489
  131TIP3   OH2  335   8.126   1.055   6.458
  131TIP3    H1  336   8.128   1.029   6.366
  131TIP3    H2  337   8.195   1.121   6.465
  132TIP3   OH2  338   1.176   5.611   0.518
  132TIP3    H1  339   1.080   5.612   0.509
  132TIP3    H2  340   1.208   5.657   0.441
  133TIP3   OH2  341   1.366   5.337   1.170
  133TIP3    H1  342   1.313   5.416   1.179
  133TIP3    H2  343   1.342   5.284   1.246
  134TIP3   OH2  344   5.663   3.274   2.985
  134TIP3    H1  345   5.666   3.261   2.891
  134TIP3    H2  346   5.754   3.289   3.011
  135TIP3   OH2  347   3.226   3.274   5.246
  135TIP3    H1  348   3.139   3.268   5.205
  135TIP3    H2  349   3.229   3.200   5.306
  136TIP3   OH2  350   1.528   5.598   0.838
  136TIP3    H1  351   1.451   5.621   0.890
  136TIP3    H2  352   1.586   5.673   0.846
  137TIP3   OH2  353   5.904   2.123   6.653
  137TIP3    H1  354   5.811   2.113   6.672
  137TIP3    H2  355   5.907   2.154   6.562
  138TIP3   OH2  356   6.167   0.503   5.204
  138TIP3    H1  357   6.201   0.458   5.281
  138TIP3    H2  358   6.158   0.594   5.233
  139TIP3   OH2  359   6.208   4.367   2.983
  139TIP3    H1  360   6.247   4.405   2.904
  139TIP3    H2  361   6.242   4.420   3.055
  140TIP3   OH2  362   0.520   3.810   1.249
  140TIP3    H1  363   0.589   3.745   1.265
  140TIP3    H2  364   0.447   3.759   1.214
  141TIP3   OH2  365   1.377   3.024   5.444
  141TIP3    H1  366   1.387   3.101   5.500
  141TIP3    H2  367   1.318   2.967   5.493
  142TIP3   OH2  368   0.514   4.553   2.700
  142TIP3    H1  369   0.582   4.497   2.738
  142TIP3    H2  370   0.524   4.542   2.606
  143TIP3   OH2  371   7.146   1.497   4.446
  143TIP3    H1  372   7.075   1.473   4.506
  143TIP3    H2  373   7.209   1.424   4.453
  144TIP3   OH2  374   8.218   7.113   4.068
  144TIP3    H1  375   8.158   7.169   4.117
  144TIP3    H2  376   8.194   7.024   4.094
  145TIP3   OH2  377   7.336   3.837   0.578
  145TIP3    H1  378   7.376   3.832   0.665
  145TIP3    H2  379   7.283   3.917   0.580
  146TIP3   OH2  380   5.984   6.818   3.537
  146TIP3    H1  381   5.980   6.736   3.488
  146TIP3    H2  382   6.007   6.791   3.626
  147TIP3   OH2  383   7.439   0.950   6.152
  147TIP3    H1  384   7.526   0.919   6.127
  147TIP3    H2  385   7.386   0.937   6.074
  148TIP3   OH2  386   1.480   2.669   2.555
  148TIP3    H1  387   1.566   2.660   2.594
  148TIP3    H2  388   1.439   2.583   2.565
  149TIP3   OH2  389   1.969   7.183   0.289
  149TIP3    H1  390   1.966   7.104   0.235
  149TIP3    H2  391   1.912   7.246   0.243
  150TIP3   OH2  392   1.536   2.543   4.518
  150TIP3    H1  393   1.576   2.586   4.594
  150TIP3    H2  394   1.501   2.615   4.465
  151TIP3   OH2  395   6.755   2.429   1.099
  151TIP3    H1  396   6.830   2.452   1.045
  151TIP3    H2  397   6.747   2.334   1.091
  152TIP3   OH2  398   0.034   1.918   3.733
  152TIP3    H1  399   0.034   1.826   3.760
  152TIP3    H2  400   0.046   1.914   3.638
  153TIP3   OH2  401   3.091   5.022   4.691
  153TIP3    H1  402   3.154   4.968   4.739
  153TIP3    H2  403   3.138   5.104   4.675
  154TIP3   OH2  404   3.278   6.564   5.459
  154TIP3    H1  405   3.277   6.496   5.392
  154TIP3    H2  406   3.239   6.640   5.417
  155TIP3   OH2  407   2.752   4.664   4.106
  155TIP3    H1  408   2.820   4.597   4.097
  155TIP3    H2  409   2.760   4.694   4.197
  156TIP3   OH2  410   4.511   3.755   0.842
  156TIP3    H1  411   4.456   3.821   0.799
  156TIP3    H2  412   4.535   3.795   0.925
  157TIP3   OH2  413   6.895   5.685   2.710
  157TIP3    H1  414   6.800   5.693   2.709
  157TIP3    H2  415   6.927   5.772   2.683
  158TIP3   OH2  416   7.645   5.654   5.752
  158TIP3    H1  417   7.709   5.635   5.821
  158TIP3    H2  418   7.625   5.747   5.762
  159TIP3   OH2  419   7.017   1.425   0.900
  159TIP3    H1  420   7.092   1.451   0.955
  159TIP3    H2  421   6.975   1.508   0.877
  160TIP3   OH2  422   5.362   5.559   0.777
  160TIP3    H1  423   5.353   5.568   0.872
  160TIP3    H2  424   5.330   5.471   0.758
  161TIP3   OH2  425   4.595   2.478   0.244
  161TIP3    H1  426   4.510   2.492   0.202
  161TIP3    H2  427   4.599   2.544   0.314
  162TIP3   OH2  428   4.839   3.568   6.644
  162TIP3    H1  429   4.770   3.584   6.710
  162TIP3    H2  430   4.863   3.476   6.657
  163TIP3   OH2  431   6.091   7.110   3.787
  163TIP3    H1  432   6.065   7.148   3.871
  163TIP3    H2  433   6.124   7.023   3.809
  164TIP3   OH2  434   1.642   5.316   3.073
  164TIP3    H1  435   1.664   5.409   3.073
  164TIP3    H2  436   1.551   5.313   3.105
  165TIP3   OH2  437   7.641   5.587   2.128
  165TIP3    H1  438   7.721   5.537   2.139
  165TIP3    H2  439   7.573   5.522   2.114
  166TIP3   OH2  440   8.076   7.761   3.927
  166TIP3    H1  441   8.056   7.854   3.917
  166TIP3    H2  442   8.038   7.737   4.011
  167TIP3   OH2  443   4.368   3.038   3.684
  167TIP3    H1  444   4.413   3.098   3.625
  167TIP3    H2  445   4.439   2.996   3.734
  168TIP3   OH2  446   3.737   1.892   2.924
  168TIP3    H1  447   3.794   1.949   2.873
  168TIP3    H2  448   3.701   1.830   2.859
  169TIP3   OH2  449   5.361   6.868   1.001
  169TIP3    H1  450   5.296   6.931   1.031
  169TIP3    H2  451   5.352   6.793   1.059
  170TIP3   OH2  452   3.543   3.343   3.735
  170TIP3    H1  453   3.543   3.435   3.711
  170TIP3    H2  454   3.556   3.296   3.652
  171TIP3   OH2  455   4.595   7.411   5.805
  171TIP3    H1  456   4.507   7.412   5.843
  171TIP3    H2  457   4.645   7.473   5.858
  172TIP3   OH2  458   5.031   1.982   3.972
  172TIP3    H1  459   5.085   2.006   3.897
  172TIP3    H2  460   5.035   1.887   3.976
  173TIP3   OH2  461   0.679   6.413   6.389
  173TIP3    H1  462   0.679   6.467   6.309
  173TIP3    H2  463   0.588   6.386   6.399
  174TIP3   OH2  464   5.241   1.716   5.657
  174TIP3    H1  465   5.298   1.687   5.585
  174TIP3    H2  466   5.157   1.733   5.615
  175TIP3   OH2  467   5.922   7.361   4.229
  175TIP3    H1  468   5.927   7.457   4.220
  175TIP3    H2  469   5.923   7.329   4.139
  176TIP3   OH2  470   6.974   0.255   0.415
  176TIP3    H1  471   6.884   0.263   0.445
  176TIP3    H2  472   6.969   0.263   0.320
  177TIP3   OH2  473   3.472   1.204   4.497
  177TIP3    H1  474   3.378   1.194   4.483
  177TIP3    H2  475   3.494   1.288   4.456
  178TIP3   OH2  476   6.115   2.448   0.896
  178TIP3    H1  477   6.073   2.459   0.811
  178TIP3    H2  478   6.150   2.534   0.917
  179TIP3   OH2  479   5.211   7.401   1.312
  179TIP3    H1  480   5.303   7.408   1.284
  179TIP3    H2  481   5.205   7.459   1.388
  180TIP3   OH2  482   5.900   4.721   6.255
  180TIP3    H1  483   5.901   4.780   6.179
  180TIP3    H2  484   5.809   4.722   6.285
  181TIP3   OH2  485   6.650   0.738   0.257
  181TIP3    H1  486   6.695   0.657   0.234
  181TIP3    H2  487   6.708   0.808   0.226
  182TIP3   OH2  488   4.412   0.929   0.295
  182TIP3    H1  489   4.324   0.893   0.306
  182TIP3    H2  490   4.435   0.910   0.203
  183TIP3   OH2  491   7.839   2.237   1.403
  183TIP3    H1  492   7.765   2.249   1.344
  183TIP3    H2  493   7.802   2.190   1.478
  184TIP3   OH2  494   3.094   4.664   2.224
  184TIP3    H1  495   3.011   4.664   2.270
  184TIP3    H2  496   3.072   4.647   2.132
  185TIP3   OH2  497   5.310   1.841   2.800
  185TIP3    H1  498   5.305   1.887   2.716
  185TIP3    H2  499   5.283   1.751   2.780
  186TIP3   OH2  500   4.047   5.799   2.034
  186TIP3    H1  501   3.953   5.812   2.045
  186TIP3    H2  502   4.076   5.761   2.117
  187TIP3   OH2  503   3.904   1.632   2.317
  187TIP3    H1  504   3.968   1.568   2.348
  187TIP3    H2  505   3.955   1.690   2.260
  188TIP3   OH2  506   4.431   2.869   5.235
  188TIP3    H1  507   4.346   2.914   5.234
  188TIP3    H2  508   4.459   2.872   5.326
  189TIP3   OH2  509   3.619   3.980   4.059
  189TIP3    H1  510   3.656   3.896   4.084
  189TIP3    H2  511   3.684   4.044   4.086
  190TIP3   OH2  512   5.149   6.439   6.501
  190TIP3    H1  513   5.089   6.394   6.442
  190TIP3    H2  514   5.102   6.519   6.527
  191TIP3   OH2  515   3.077   7.154   0.384
  191TIP3    H1  516   3.054   7.204   0.306
  191TIP3    H2  517   2.998   7.157   0.438
  192TIP3   OH2  518   0.986   4.329   2.586
  192TIP3    H1  519   1.080   4.348   2.591
  192TIP3    H2  520   0.959   4.317   2.677
  193TIP3   OH2  521   5.624   5.503   4.064
  193TIP3    H1  522   5.622   5.589   4.021
  193TIP3    H2  523   5.607   5.441   3.994
  194TIP3   OH2  524   6.439   4.233   2.346
  194TIP3    H1  525   6.527   4.198   2.363
  194TIP3    H2  526   6.405   4.255   2.433
  195TIP3   OH2  527   8.171   2.911   0.440
  195TIP3    H1  528   8.087   2.867   0.453
  195TIP3    H2  529   8.216   2.902   0.524
  196TIP3   OH2  530   5.074   5.197   1.857
  196TIP3    H1  531   5.012   5.258   1.897
  196TIP3    H2  532   5.088   5.130   1.923
  197TIP3   OH2  533   7.454   1.089   2.695
  197TIP3    H1  534   7.401   1.161   2.729
  197TIP3    H2  535   7.433   1.015   2.753
  198TIP3   OH2  536   6.928   0.709   2.663
  198TIP3    H1  537   6.970   0.760   2.594
  198TIP3    H2  538   6.866   0.769   2.704
  199TIP3   OH2  539   0.175   5.642   0.738
  199TIP3    H1  540   0.164   5.722   0.790
  199TIP3    H2  541   0.099   5.589   0.760
  200TIP3   OH2  542   7.982   1.992   0.894
  200TIP3    H1  543   7.971   1.933   0.819
  200TIP3    H2  544   8.077   2.001   0.904
  201TIP3   OH2  545   5.981   5.821   1.654
  201TIP3    H1  546   5.946   5.820   1.743
  201TIP3    H2  547   6.063   5.772   1.660
  202TIP3   OH2  548   5.216   2.020   6.098
  202TIP3    H1  549   5.171   2.084   6.153
  202TIP3    H2  550   5.285   1.983   6.154
  203TIP3   OH2  551   6.946   4.239   3.689
  203TIP3    H1  552   6.926   4.246   3.782
  203TIP3    H2  553   7.030   4.193   3.686
  204TIP3   OH2  554   7.830   6.019   5.025
  204TIP3    H1  555   7.807   6.112   5.025
  204TIP3    H2  556   7.844   5.998   5.117
  205TIP3   OH2  557   2.666   6.291   2.944
  205TIP3    H1  558   2.700   6.206   2.917
  205TIP3    H2  559   2.702   6.305   3.031
  206TIP3   OH2  560   2.627   0.150   5.779
  206TIP3    H1  561   2.663   0.085   5.839
  206TIP3    H2  562   2.695   0.217   5.773
  207TIP3   OH2  563   7.455   3.384   6.623
  207TIP3    H1  564   7.545   3.415   6.629
  207TIP3    H2  565   7.429   3.404   6.533
  208TIP3   OH2  566   6.363   6.572   1.083
  208TIP3    H1  567   6.311   6.525   1.147
  208TIP3    H2  568   6.435   6.512   1.062
  209TIP3   OH2  569   0.859   3.939   4.044
  209TIP3    H1  570   0.855   4.034   4.035
  209TIP3    H2  571   0.785   3.917   4.101
  210TIP3   OH2  572   0.935   1.579   5.706
  210TIP3    H1  573   0.925   1.485   5.691
  210TIP3    H2  574   0.892   1.620   5.631
  211TIP3   OH2  575   6.091   0.357   2.588
  211TIP3    H1  576   6.159   0.293   2.571
  211TIP3    H2  577   6.015   0.306   2.616
  212TIP3   OH2  578   5.208   5.318   3.879
  212TIP3    H1  579   5.226   5.240   3.932
  212TIP3    H2  580   5.117   5.339   3.898
  213TIP3   OH2  581   5.541   0.643   1.634
  213TIP3    H1  582   5.515   0.656   1.543
  213TIP3    H2  583   5.497   0.714   1.682
  214TIP3   OH2  584   3.774   6.056   0.506
  214TIP3    H1  585   3.733   5.970   0.497
  214TIP3    H2  586   3.806   6.077   0.418
  215TIP3   OH2  587   0.534   0.651   0.773
  215TIP3    H1  588   0.530   0.571   0.826
  215TIP3    H2  589   0.556   0.720   0.836
  216TIP3   OH2  590   6.309   2.719   2.690
  216TIP3    H1  591   6.286   2.753   2.776
  216TIP3    H2  592   6.405   2.712   2.691
  217TIP3   OH2  593   3.577   0.046   2.528
  217TIP3    H1  594   3.599   0.079   2.440
  217TIP3    H2  595   3.658   0.005   2.559
  218TIP3   OH2  596   1.526   0.701   0.244
  218TIP3    H1  597   1.552   0.679   0.333
  218TIP3    H2  598   1.511   0.616   0.202
  219TIP3   OH2  599   1.131   7.813   2.521
  219TIP3    H1  600   1.105   7.789   2.432
  219TIP3    H2  601   1.123   7.731   2.570
  220TIP3   OH2  602   7.285   3.309   3.765
  220TIP3    H1  603   7.258   3.274   3.850
  220TIP3    H2  604   7.208   3.356   3.733
  221TIP3   OH2  605   1.917   3.639   3.749
  221TIP3    H1  606   1.826   3.662   3.766
  221TIP3    H2  607   1.940   3.578   3.820
  222TIP3   OH2  608   1.966   2.764   0.525
  222TIP3    H1  609   1.974   2.687   0.469
  222TIP3    H2  610   1.925   2.830   0.470
  223TIP3   OH2  611   5.409   4.570   5.253
  223TIP3    H1  612   5.437   4.548   5.164
  223TIP3    H2  613   5.486   4.612   5.292
  224TIP3   OH2  614   2.370   5.807   2.157
  224TIP3    H1  615   2.420   5.733   2.191
  224TIP3    H2  616   2.278   5.783   2.173
  225TIP3   OH2  617   2.229   4.977   5.008
  225TIP3    H1  618   2.196   5.036   4.941
  225TIP3    H2  619   2.323   4.992   5.009
  226TIP3   OH2  620   8.098   6.534   6.681
  226TIP3    H1  621   8.078   6.617   6.638
  226TIP3    H2  622   8.037   6.471   6.642
  227TIP3   OH2  623   6.266   2.597   0.147
  227TIP3    H1  624   6.282   2.680   0.192
  227TIP3    H2  625   6.353   2.559   0.135
  228TIP3   OH2  626   0.171   3.480   0.002
  228TIP3    H1  627   0.096   3.519   0.048
  228TIP3    H2  628   0.157   3.385   0.012
  229TIP3   OH2  629   1.451   0.178   0.279
  229TIP3    H1  630   1.371   0.200   0.328
  229TIP3    H2  631   1.516   0.242   0.309
  230TIP3   OH2  632   1.221   6.214   3.325
  230TIP3    H1  633   1.191   6.151   3.260
  230TIP3    H2  634   1.174   6.295   3.304
  231TIP3   OH2  635   4.366   5.204   5.657
  231TIP3    H1  636   4.436   5.177   5.597
  231TIP3    H2  637   4.357   5.298   5.643
  232TIP3   OH2  638   3.963   1.935   4.946
  232TIP3    H1  639   4.051   1.897   4.958
  232TIP3    H2  640   3.969   1.983   4.863
  233TIP3   OH2  641   1.495   3.863   2.748
  233TIP3    H1  642   1.497   3.888   2.655
  233TIP3    H2  643   1.408   3.889   2.778
  234TIP3   OH2  644   0.767   5.790   6.709
  234TIP3    H1  645   0.839   5.777   6.771
  234TIP3    H2  646   0.791   5.870   6.661
  235TIP3   OH2  647   1.423   3.872   3.748
  235TIP3    H1  648   1.507   3.917   3.754
  235TIP3    H2  649   1.429   3.821   3.667
  236TIP3   OH2  650   5.344   1.285   4.449
  236TIP3    H1  651   5.405   1.227   4.494
  236TIP3    H2  652   5.393   1.318   4.373
  237TIP3   OH2  653   4.304   6.706   4.785
  237TIP3    H1  654   4.221   6.662   4.767
  237TIP3    H2  655   4.282   6.772   4.851
  238TIP3   OH2  656   7.803   3.673   5.254
  238TIP3    H1  657   7.886   3.681   5.302
  238TIP3    H2  658   7.799   3.581   5.229
  239TIP3   OH2  659   0.076   5.804   1.750
  239TIP3    H1  660   0.150   5.811   1.689
  239TIP3    H2  661   0.107   5.747   1.820
  240TIP3   OH2  662   0.320   0.326   0.586
  240TIP3    H1  663   0.275   0.294   0.508
  240TIP3    H2  664   0.250   0.343   0.649
  241TIP3   OH2  665   7.401   6.608   6.395
  241TIP3    H1  666   7.384   6.642   6.483
  241TIP3    H2  667   7.482   6.559   6.404
  242TIP3   OH2  668   3.564   6.180   3.254
  242TIP3    H1  669   3.538   6.269   3.280
  242TIP3    H2  670   3.526   6.169   3.167
  243TIP3   OH2  671   1.649   2.469   0.977
  243TIP3    H1  672   1.720   2.485   1.039
  243TIP3    H2  673   1.688   2.414   0.909
  244TIP3   OH2  674   1.276   1.895   3.280
  244TIP3    H1  675   1.200   1.877   3.225
  244TIP3    H2  676   1.270   1.832   3.352
  245TIP3   OH2  677   6.496   4.819   1.327
  245TIP3    H1  678   6.489   4.763   1.249
  245TIP3    H2  679   6.423   4.881   1.319
  246TIP3   OH2  680   2.839   0.468   0.899
  246TIP3    H1  681   2.888   0.549   0.889
  246TIP3    H2  682   2.773   0.487   0.966
  247TIP3   OH2  683   6.779   4.077   4.847
  247TIP3    H1  684   6.730   4.150   4.807
  247TIP3    H2  685   6.802   4.020   4.774
  248TIP3   OH2  686   6.005   6.874   1.081
  248TIP3    H1  687   5.979   6.820   1.155
  248TIP3    H2  688   5.928   6.875   1.024
  249TIP3   OH2  689   5.002   2.338   3.002
  249TIP3    H1  690   4.941   2.400   2.963
  249TIP3    H2  691   4.999   2.357   3.096
  250TIP3   OH2  692   5.336   7.754   4.246
  250TIP3    H1  693   5.413   7.777   4.193
  250TIP3    H2  694   5.372   7.720   4.327
  251TIP3   OH2  695   3.846   7.683   5.644
  251TIP3    H1  696   3.771   7.681   5.702
  251TIP3    H2  697   3.809   7.691   5.556
  252TIP3   OH2  698   2.408   2.726   6.684
  252TIP3    H1  699   2.394   2.659   6.617
  252TIP3    H2  700   2.497   2.711   6.715
  253TIP3   OH2  701   6.896   2.592   2.796
  253TIP3    H1  702   6.910   2.512   2.744
  253TIP3    H2  703   6.917   2.663   2.735
  254TIP3   OH2  704   3.846   6.720   4.181
  254TIP3    H1  705   3.865   6.642   4.234
  254TIP3    H2  706   3.861   6.793   4.241
  255TIP3   OH2  707   2.782   6.922   0.093
  255TIP3    H1  708   2.841   6.965   0.032
  255TIP3    H2  709   2.831   6.848   0.127
  256TIP3   OH2  710   7.326   4.326   3.854
  256TIP3    H1  711   7.281   4.278   3.785
  256TIP3    H2  712   7.406   4.275   3.868
  257TIP3   OH2  713   6.565   2.700   5.706
  257TIP3    H1  714   6.599   2.788   5.719
  257TIP3    H2  715   6.534   2.673   5.793
  258TIP3   OH2  716   6.214   7.509   1.284
  258TIP3    H1  717   6.215   7.449   1.209
  258TIP3    H2  718   6.187   7.454   1.358
  259TIP3   OH2  719   5.575   2.383   3.699
  259TIP3    H1  720   5.631   2.326   3.646
  259TIP3    H2  721   5.521   2.322   3.750
  260TIP3   OH2  722   4.835   4.190   3.893
  260TIP3    H1  723   4.852   4.267   3.838
  260TIP3    H2  724   4.873   4.117   3.844
  261TIP3   OH2  725   2.320   1.990   2.642
  261TIP3    H1  726   2.237   2.004   2.596
  261TIP3    H2  727   2.327   2.065   2.701
  262TIP3   OH2  728   7.344   6.719   2.417
  262TIP3    H1  729   7.311   6.806   2.439
  262TIP3    H2  730   7.342   6.717   2.322
  263TIP3   OH2  731   7.106   4.392   4.353
  263TIP3    H1  732   7.132   4.379   4.262
  263TIP3    H2  733   7.175   4.348   4.403
  264TIP3   OH2  734   7.234   0.102   1.681
  264TIP3    H1  735   7.314   0.053   1.701
  264TIP3    H2  736   7.221   0.091   1.587
  265TIP3   OH2  737   3.471   6.023   4.222
  265TIP3    H1  738   3.517   6.107   4.224
  265TIP3    H2  739   3.464   5.998   4.314
  266TIP3   OH2  740   6.581   2.450   6.571
  266TIP3    H1  741   6.593   2.482   6.482
  266TIP3    H2  742   6.670   2.438   6.604
  267TIP3   OH2  743   3.252   6.536   2.925
  267TIP3    H1  744   3.252   6.605   2.992
  267TIP3    H2  745   3.163   6.536   2.890
  268TIP3   OH2  746   0.239   4.841   2.197
  268TIP3    H1  747   0.289   4.841   2.279
  268TIP3    H2  748   0.304   4.822   2.130
  269TIP3   OH2  749   0.463   3.630   5.877
  269TIP3    H1  750   0.397   3.562   5.891
  269TIP3    H2  751   0.458   3.685   5.955
  270TIP3   OH2  752   1.207   5.706   4.394
  270TIP3    H1  753   1.283   5.746   4.351
  270TIP3    H2  754   1.234   5.693   4.484
  271TIP3   OH2  755   2.534   2.881   4.294
  271TIP3    H1  756   2.529   2.856   4.386
  271TIP3    H2  757   2.553   2.975   4.296
  272TIP3   OH2  758   8.167   0.105   6.653
  272TIP3    H1  759   8.231   0.173   6.674
  272TIP3    H2  760   8.180   0.038   6.720
  273TIP3   OH2  761   0.578   0.014   3.930
  273TIP3    H1  762   0.651   0.069   3.899
  273TIP3    H2  763   0.557   0.049   4.017
  274TIP3   OH2  764   5.175   0.159   6.357
  274TIP3    H1  765   5.155   0.085   6.299
  274TIP3    H2  766   5.268   0.150   6.377
  275TIP3   OH2  767   2.821   3.918   5.513
  275TIP3    H1  768   2.836   3.846   5.574
  275TIP3    H2  769   2.780   3.987   5.565
  276TIP3   OH2  770   1.804   6.304   2.561
  276TIP3    H1  771   1.723   6.279   2.607
  276TIP3    H2  772   1.805   6.400   2.565
  277TIP3   OH2  773   4.551   0.889   5.864
  277TIP3    H1  774   4.516   0.972   5.897
  277TIP3    H2  775   4.614   0.861   5.931
  278TIP3   OH2  776   0.355   6.024   1.573
  278TIP3    H1  777   0.424   5.980   1.623
  278TIP3    H2  778   0.294   5.954   1.549
  279TIP3   OH2  779   1.380   3.673   6.295
  279TIP3    H1  780   1.384   3.619   6.373
  279TIP3    H2  781   1.335   3.619   6.230
  280TIP3   OH2  782   8.165   7.598   5.570
  280TIP3    H1  783   8.174   7.574   5.662
  280TIP3    H2  784   8.101   7.669   5.569
  281TIP3   OH2  785   8.168   2.907   3.549
  281TIP3    H1  786   8.086   2.862   3.571
  281TIP3    H2  787   8.219   2.905   3.630
  282TIP3   OH2  788   1.266   0.669   5.606
  282TIP3    H1  789   1.255   0.638   5.516
  282TIP3    H2  790   1.177   0.673   5.642
  283TIP3   OH2  791   5.587   4.173   5.019
  283TIP3    H1  792   5.576   4.078   5.025
  283TIP3    H2  793   5.668   4.185   4.969
  284TIP3   OH2  794   7.516   4.233   4.918
  284TIP3    H1  795   7.492   4.321   4.889
  284TIP3    H2  796   7.539   4.186   4.837
  285TIP3   OH2  797   4.027   0.596   1.108
  285TIP3    H1  798   4.062   0.587   1.196
  285TIP3    H2  799   3.996   0.509   1.085
  286TIP3   OH2  800   0.942   4.064   4.748
  286TIP3    H1  801   0.929   4.038   4.839
  286TIP3    H2  802   1.001   3.997   4.712
  287TIP3   OH2  803   3.148   7.360   5.589
  287TIP3    H1  804   3.127   7.366   5.495
  287TIP3    H2  805   3.096   7.429   5.629
  288TIP3   OH2  806   2.157   3.963   0.291
  288TIP3    H1  807   2.099   3.918   0.352
  288TIP3    H2  808   2.137   3.926   0.206
  289TIP3   OH2  809   1.042   0.695   3.212
  289TIP3    H1  810   0.984   0.634   3.166
  289TIP3    H2  811   1.104   0.638   3.258
  290TIP3   OH2  812   0.242   3.769   4.809
  290TIP3    H1  813   0.206   3.766   4.898
  290TIP3    H2  814   0.191   3.704   4.761
  291TIP3   OH2  815   4.830   6.666   2.252
  291TIP3    H1  816   4.777   6.587   2.250
  291TIP3    H2  817   4.916   6.638   2.222
  292TIP3   OH2  818   1.831   7.708   2.642
  292TIP3    H1  819   1.803   7.624   2.605
  292TIP3    H2  820   1.751   7.748   2.675
  293TIP3   OH2  821   1.274   5.438   2.244
  293TIP3    H1  822   1.285   5.375   2.314
  293TIP3    H2  823   1.348   5.498   2.252
  294TIP3   OH2  824   7.488   5.511   6.082
  294TIP3    H1  825   7.413   5.482   6.135
  294TIP3    H2  826   7.501   5.603   6.106
  295TIP3   OH2  827   2.008   6.467   2.332
  295TIP3    H1  828   2.022   6.457   2.426
  295TIP3    H2  829   2.049   6.550   2.309
  296TIP3   OH2  830   7.916   4.219   4.877
  296TIP3    H1  831   7.973   4.180   4.810
  296TIP3    H2  832   7.977   4.250   4.944
  297TIP3   OH2  833   3.052   1.117   1.826
  297TIP3    H1  834   2.985   1.117   1.758
  297TIP3    H2  835   3.032   1.040   1.879
  298TIP3   OH2  836   4.407   2.751   0.943
  298TIP3    H1  837   4.467   2.798   1.002
  298TIP3    H2  838   4.357   2.694   1.001
  299TIP3   OH2  839   3.665   2.061   3.613
  299TIP3    H1  840   3.580   2.025   3.589
  299TIP3    H2  841   3.699   2.097   3.531
  300TIP3   OH2  842   0.643   1.335   2.029
  300TIP3    H1  843   0.608   1.409   2.078
  300TIP3    H2  844   0.614   1.258   2.077
  301TIP3   OH2  845   1.938   2.886   5.307
  301TIP3    H1  846   1.871   2.821   5.328
  301TIP3    H2  847   1.958   2.927   5.391
  302TIP3   OH2  848   7.665   4.006   2.439
  302TIP3    H1  849   7.576   4.011   2.472
  302TIP3    H2  850   7.657   3.956   2.357
  303TIP3   OH2  851   7.829   4.677   5.424
  303TIP3    H1  852   7.905   4.731   5.447
  303TIP3    H2  853   7.784   4.663   5.508
  304TIP3   OH2  854   3.693   3.933   5.521
  304TIP3    H1  855   3.658   3.928   5.433
  304TIP3    H2  856   3.700   4.027   5.539
  305TIP3   OH2  857   1.231   5.764   0.322
  305TIP3    H1  858   1.323   5.780   0.299
  305TIP3    H2  859   1.188   5.848   0.304
  306TIP3   OH2  860   2.299   3.755   1.096
  306TIP3    H1  861   2.232   3.687   1.098
  306TIP3    H2  862   2.377   3.713   1.132
  307TIP3   OH2  863   3.397   1.543   1.520
  307TIP3    H1  864   3.341   1.465   1.516
  307TIP3    H2  865   3.474   1.520   1.469
  308TIP3   OH2  866   7.749   0.340   0.885
  308TIP3    H1  867   7.785   0.383   0.963
  308TIP3    H2  868   7.824   0.300   0.842
  309TIP3   OH2  869   4.023   5.621   6.264
  309TIP3    H1  870   4.077   5.679   6.318
  309TIP3    H2  871   4.038   5.534   6.300
  310TIP3   OH2  872   5.162   2.909   1.640
  310TIP3    H1  873   5.222   2.843   1.604
  310TIP3    H2  874   5.220   2.975   1.679
  311TIP3   OH2  875   6.665   5.886   0.480
  311TIP3    H1  876   6.572   5.903   0.492
  311TIP3    H2  877   6.673   5.791   0.477
  312TIP3   OH2  878   3.509   7.463   3.574
  312TIP3    H1  879   3.575   7.439   3.509
  312TIP3    H2  880   3.559   7.492   3.650
  313TIP3   OH2  881   7.030   6.596   4.001
  313TIP3    H1  882   6.948   6.575   3.956
  313TIP3    H2  883   7.032   6.537   4.076
  314TIP3   OH2  884   1.795   6.210   3.863
  314TIP3    H1  885   1.776   6.164   3.781
  314TIP3    H2  886   1.871   6.265   3.843
  315TIP3   OH2  887   1.583   2.390   3.397
  315TIP3    H1  888   1.577   2.374   3.303
  315TIP3    H2  889   1.526   2.465   3.413
  316TIP3   OH2  890   3.580   0.412   0.772
  316TIP3    H1  891   3.504   0.360   0.745
  316TIP3    H2  892   3.623   0.359   0.839
  317TIP3   OH2  893   3.031   6.185   2.842
  317TIP3    H1  894   3.020   6.280   2.843
  317TIP3    H2  895   3.074   6.165   2.925
  318TIP3   OH2  896   8.228   3.175   2.436
  318TIP3    H1  897   8.210   3.204   2.526
  318TIP3    H2  898   8.145   3.187   2.390
  319TIP3   OH2  899   7.301   1.672   3.974
  319TIP3    H1  900   7.385   1.651   3.932
  319TIP3    H2  901   7.317   1.657   4.067
  320TIP3   OH2  902   7.924   0.256   5.366
  320TIP3    H1  903   7.927   0.335   5.420
  320TIP3    H2  904   7.950   0.186   5.426
  321TIP3   OH2  905   5.652   4.260   0.161
  321TIP3    H1  906   5.663   4.340   0.110
  321TIP3    H2  907   5.612   4.289   0.243
  322TIP3   OH2  908   4.731   0.967   4.294
  322TIP3    H1  909   4.690   0.885   4.323
  322TIP3    H2  910   4.659   1.030   4.295
  323TIP3   OH2  911   8.016   4.225   3.793
  323TIP3    H1  912   8.073   4.182   3.856
  323TIP3    H2  913   8.054   4.312   3.782
  324TIP3   OH2  914   6.849   4.926   3.984
  324TIP3    H1  915   6.835   4.841   3.942
  324TIP3    H2  916   6.762   4.953   4.013
  325TIP3   OH2  917   4.041   5.287   2.970
  325TIP3    H1  918   4.073   5.226   3.036
  325TIP3    H2  919   4.004   5.231   2.901
  326TIP3   OH2  920   8.247   2.661   2.681
  326TIP3    H1  921   8.295   2.742   2.663
  326TIP3    H2  922   8.292   2.623   2.756
  327TIP3   OH2  923   2.494   4.301   4.642
  327TIP3    H1  924   2.560   4.236   4.619
  327TIP3    H2  925   2.494   4.302   4.738
  328TIP3   OH2  926   2.708   1.574   3.865
  328TIP3    H1  927   2.792   1.602   3.901
  328TIP3    H2  928   2.674   1.652   3.821
  329TIP3   OH2  929   1.056   4.875   0.734
  329TIP3    H1  930   1.070   4.965   0.706
  329TIP3    H2  931   0.968   4.853   0.702
  330TIP3   OH2  932   2.474   1.553   3.586
  330TIP3    H1  933   2.456   1.590   3.672
  330TIP3    H2  934   2.453   1.624   3.525
  331TIP3   OH2  935   4.499   2.596   0.703
  331TIP3    H1  936   4.571   2.556   0.751
  331TIP3    H2  937   4.453   2.648   0.768
  332TIP3   OH2  938   0.807   4.612   1.096
  332TIP3    H1  939   0.764   4.558   1.030
  332TIP3    H2  940   0.771   4.581   1.179
  333TIP3   OH2  941   7.365   6.407   2.899
  333TIP3    H1  942   7.446   6.445   2.865
  333TIP3    H2  943   7.298   6.432   2.834
  334TIP3   OH2  944   2.398   2.308   3.912
  334TIP3    H1  945   2.421   2.249   3.841
  334TIP3    H2  946   2.326   2.361   3.876
  335TIP3   OH2  947   1.346   7.346   6.222
  335TIP3    H1  948   1.397   7.325   6.300
  335TIP3    H2  949   1.398   7.414   6.178
  336TIP3   OH2  950   5.283   4.247  -0.001
  336TIP3    H1  951   5.259   4.317  -0.062
  336TIP3    H2  952   5.319   4.293   0.075
  337TIP3   OH2  953   1.242   4.456   2.554
  337TIP3    H1  954   1.330   4.421   2.541
  337TIP3    H2  955   1.233   4.464   2.649
  338TIP3   OH2  956   6.158   2.985   2.235
  338TIP3    H1  957   6.182   3.035   2.157
  338TIP3    H2  958   6.225   3.008   2.300
  339TIP3   OH2  959   5.905   5.491   2.639
  339TIP3    H1  960   5.928   5.402   2.664
  339TIP3    H2  961   5.849   5.522   2.711
  340TIP3   OH2  962   8.264   1.592   2.056
  340TIP3    H1  963   8.195   1.585   2.122
  340TIP3    H2  964   8.239   1.529   1.989
  341TIP3   OH2  965   1.965   5.113   3.719
  341TIP3    H1  966   1.982   5.128   3.626
  341TIP3    H2  967   1.870   5.123   3.728
  342TIP3   OH2  968   6.922   7.282   2.254
  342TIP3    H1  969   7.003   7.334   2.260
  342TIP3    H2  970   6.904   7.256   2.345
  343TIP3   OH2  971   2.728   3.448   3.485
  343TIP3    H1  972   2.734   3.395   3.406
  343TIP3    H2  973   2.771   3.531   3.463
  344TIP3   OH2  974   3.682   2.481   6.569
  344TIP3    H1  975   3.635   2.502   6.489
  344TIP3    H2  976   3.719   2.395   6.553
  345TIP3   OH2  977   5.872   4.563   5.509
  345TIP3    H1  978   5.942   4.499   5.527
  345TIP3    H2  979   5.917   4.647   5.505
  346TIP3   OH2  980   5.998   0.815   6.022
  346TIP3    H1  981   6.038   0.902   6.021
  346TIP3    H2  982   6.037   0.772   6.098
  347TIP3   OH2  983   7.119   3.158   1.251
  347TIP3    H1  984   7.148   3.197   1.169
  347TIP3    H2  985   7.136   3.226   1.317
  348TIP3   OH2  986   1.384   4.929   6.652
  348TIP3    H1  987   1.306   4.959   6.607
  348TIP3    H2  988   1.456   4.973   6.608
  349TIP3   OH2  989   1.489   4.333   2.551
  349TIP3    H1  990   1.576   4.347   2.590
  349TIP3    H2  991   1.497   4.248   2.507
  350TIP3   OH2  992   0.590   4.766   2.118
  350TIP3    H1  993   0.618   4.719   2.196
  350TIP3    H2  994   0.602   4.859   2.139
  351TIP3   OH2  995   5.053   4.064   6.683
  351TIP3    H1  996   4.993   4.136   6.700
  351TIP3    H2  997   5.100   4.089   6.604
  352TIP3   OH2  998   0.066   7.050   0.917
  352TIP3    H1  999   0.143   6.995   0.930
  352TIP3    H2 1000   0.009   7.030   0.991
  353TIP3   OH2 1001   7.765   3.957   1.143
  353TIP3    H1 1002   7.780   3.977   1.235
  353TIP3    H2 1003   7.714   3.876   1.144
  354TIP3   OH2 1004   3.472   1.049   1.984
  354TIP3    H1 1005   3.413   1.115   1.949
  354TIP3    H2 1006   3.560   1.081   1.962
  355TIP3   OH2 1007   2.530   1.027   0.538
  355TIP3    H1 1008   2.468   0.978   0.485
  355TIP3    H2 1009   2.553   1.103   0.484
  356TIP3   OH2 1010   6.993   2.703   3.428
  356TIP3    H1 1011   6.965   2.668   3.512
  356TIP3    H2 1012   7.086   2.684   3.423
  357TIP3   OH2 1013   4.055   1.553   4.176
  357TIP3    H1 1014   4.141   1.533   4.214
  357TIP3    H2 1015   4.033   1.639   4.212
  358TIP3   OH2 1016   5.772   1.107   5.647
  358TIP3    H1 1017   5.686   1.110   5.604
  358TIP3    H2 1018   5.762   1.042   5.716
  359TIP3   OH2 1019   6.966   0.619   6.739
  359TIP3    H1 1020   6.922   0.534   6.746
  359TIP3    H2 1021   6.954   0.659   6.825
  360TIP3   OH2 1022   6.665   2.004   3.179
  360TIP3    H1 1023   6.683   1.995   3.086
  360TIP3    H2 1024   6.647   1.915   3.210
  361TIP3   OH2 1025   2.311   7.409   0.819
  361TIP3    H1 1026   2.308   7.398   0.724
  361TIP3    H2 1027   2.272   7.495   0.835
  362TIP3   OH2 1028   1.797   0.229   1.637
  362TIP3    H1 1029   1.886   0.217   1.604
  362TIP3    H2 1030   1.746   0.161   1.594
  363TIP3   OH2 1031   0.721   6.443   3.020
  363TIP3    H1 1032   0.714   6.370   3.083
  363TIP3    H2 1033   0.689   6.519   3.068
  364TIP3   OH2 1034   7.445   2.872   4.535
  364TIP3    H1 1035   7.528   2.903   4.498
  364TIP3    H2 1036   7.385   2.870   4.460
  365TIP3   OH2 1037   0.333   3.331   1.460
  365TIP3    H1 1038   0.411   3.322   1.515
  365TIP3    H2 1039   0.366   3.329   1.370
  366TIP3   OH2 1040   2.114   5.596   3.708
  366TIP3    H1 1041   2.104   5.632   3.796
  366TIP3    H2 1042   2.181   5.650   3.666
  367TIP3   OH2 1043   7.549   7.532   2.652
  367TIP3    H1 1044   7.572   7.544   2.744
  367TIP3    H2 1045   7.620   7.575   2.604
  368TIP3   OH2 1046   6.190   3.201   2.067
  368TIP3    H1 1047   6.156   3.290   2.054
  368TIP3    H2 1048   6.279   3.214   2.100
  369TIP3   OH2 1049   7.876   2.644   5.011
  369TIP3    H1 1050   7.939   2.581   4.976
  369TIP3    H2 1051   7.919   2.729   5.002
  370TIP3   OH2 1052   5.929   7.726   2.595
  370TIP3    H1 1053   6.013   7.771   2.591
  370TIP3    H2 1054   5.867   7.787   2.554
  371TIP3   OH2 1055   3.605   7.384   1.861
  371TIP3    H1 1056   3.643   7.351   1.780
  371TIP3    H2 1057   3.680   7.400   1.919
  372TIP3   OH2 1058   0.728   1.198   3.044
  372TIP3    H1 1059   0.798   1.163   3.099
  372TIP3    H2 1060   0.773   1.244   2.973
  373TIP3   OH2 1061   5.132   3.229   2.648
  373TIP3    H1 1062   5.197   3.171   2.608
  373TIP3    H2 1063   5.167   3.317   2.633
  374TIP3   OH2 1064   4.183   5.241   5.025
  374TIP3    H1 1065   4.186   5.310   4.958
  374TIP3    H2 1066   4.175   5.289   5.108
  375TIP3   OH2 1067   6.127   3.345   5.777
  375TIP3    H1 1068   6.046   3.340   5.728
  375TIP3    H2 1069   6.107   3.402   5.852
  376TIP3   OH2 1070   5.559   2.783   0.374
  376TIP3    H1 1071   5.475   2.802   0.417
  376TIP3    H2 1072   5.537   2.774   0.282
  377TIP3   OH2 1073   7.838   1.087   2.434
  377TIP3    H1 1074   7.813   1.127   2.517
  377TIP3    H2 1075   7.808   0.997   2.441
  378TIP3   OH2 1076   3.434   6.538   0.781
  378TIP3    H1 1077   3.491   6.590   0.838
  378TIP3    H2 1078   3.366   6.599   0.752
  379TIP3   OH2 1079   2.082   6.000   6.432
  379TIP3    H1 1080   2.047   6.085   6.405
  379TIP3    H2 1081   2.151   5.981   6.368
  380TIP3   OH2 1082   1.446   6.464   3.229
  380TIP3    H1 1083   1.452   6.424   3.142
  380TIP3    H2 1084   1.471   6.393   3.290
  381TIP3   OH2 1085   6.835   0.766   1.750
  381TIP3    H1 1086   6.786   0.686   1.733
  381TIP3    H2 1087   6.925   0.745   1.725
  382TIP3   OH2 1088   4.050   5.739   0.813
  382TIP3    H1 1089   4.018   5.772   0.728
  382TIP3    H2 1090   4.145   5.749   0.808
  383TIP3   OH2 1091   0.833   0.002   3.471
  383TIP3    H1 1092   0.905   0.040   3.420
  383TIP3    H2 1093   0.808  -0.077   3.424
  384TIP3   OH2 1094   0.400   4.916   2.897
  384TIP3    H1 1095   0.461   4.988   2.879
  384TIP3    H2 1096   0.400   4.908   2.992
  385TIP3   OH2 1097   2.447   4.838   1.583
  385TIP3    H1 1098   2.441   4.813   1.675
  385TIP3    H2 1099   2.460   4.755   1.537
  386TIP3   OH2 1100   8.174   0.115   4.658
  386TIP3    H1 1101   8.195   0.181   4.724
  386TIP3    H2 1102   8.081   0.129   4.639
  387TIP3   OH2 1103   6.483   6.813   5.793
  387TIP3    H1 1104   6.478   6.884   5.857
  387TIP3    H2 1105   6.513   6.737   5.842
  388TIP3   OH2 1106   1.396   7.209   2.487
  388TIP3    H1 1107   1.352   7.287   2.453
  388TIP3    H2 1108   1.452   7.242   2.558
  389TIP3   OH2 1109   1.754   1.968   5.450
  389TIP3    H1 1110   1.845   1.937   5.447
  389TIP3    H2 1111   1.725   1.963   5.359
  390TIP3   OH2 1112   2.139   0.289   2.831
  390TIP3    H1 1113   2.058   0.268   2.878
  390TIP3    H2 1114   2.208   0.246   2.881
  391TIP3   OH2 1115   4.141   6.001   0.369
  391TIP3    H1 1116   4.071   6.020   0.306
  391TIP3    H2 1117   4.152   6.083   0.417
  392TIP3   OH2 1118   1.220   5.274   0.293
  392TIP3    H1 1119   1.281   5.316   0.233
  392TIP3    H2 1120   1.144   5.332   0.294
  393TIP3   OH2 1121   7.113   7.092   3.192
  393TIP3    H1 1122   7.069   7.077   3.109
  393TIP3    H2 1123   7.082   7.179   3.220
  394TIP3   OH2 1124   4.661   4.119   0.464
  394TIP3    H1 1125   4.611   4.037   0.464
  394TIP3    H2 1126   4.658   4.148   0.555
  395TIP3   OH2 1127   4.785   5.294   4.665
  395TIP3    H1 1128   4.778   5.308   4.759
  395TIP3    H2 1129   4.698   5.262   4.639
  396TIP3   OH2 1130   4.526   0.234   0.347
  396TIP3    H1 1131   4.608   0.225   0.394
  396TIP3    H2 1132   4.479   0.153   0.364
  397TIP3   OH2 1133   8.224   6.892   2.688
  397TIP3    H1 1134   8.286   6.820   2.695
  397TIP3    H2 1135   8.220   6.929   2.776
  398TIP3   OH2 1136   5.354   6.841   5.768
  398TIP3    H1 1137   5.314   6.834   5.681
  398TIP3    H2 1138   5.307   6.777   5.821
  399TIP3   OH2 1139   0.628   1.660   1.778
  399TIP3    H1 1140   0.655   1.594   1.842
  399TIP3    H2 1141   0.709   1.683   1.733
  400TIP3   OH2 1142   7.850   6.394   0.346
  400TIP3    H1 1143   7.800   6.451   0.405
  400TIP3    H2 1144   7.787   6.328   0.317
  401TIP3   OH2 1145   0.788   2.470   3.910
  401TIP3    H1 1146   0.777   2.375   3.910
  401TIP3    H2 1147   0.732   2.500   3.982
  402TIP3   OH2 1148   4.599   5.958   1.981
  402TIP3    H1 1149   4.529   5.916   2.031
  402TIP3    H2 1150   4.560   5.973   1.895
  403TIP3   OH2 1151   8.104   5.799   2.004
  403TIP3    H1 1152   8.026   5.832   2.048
  403TIP3    H2 1153   8.165   5.873   2.004
  404TIP3   OH2 1154   2.228   6.357   3.460
  404TIP3    H1 1155   2.269   6.296   3.521
  404TIP3    H2 1156   2.285   6.434   3.461
  405TIP3   OH2 1157   2.298   2.176   5.243
  405TIP3    H1 1158   2.283   2.097   5.295
  405TIP3    H2 1159   2.323   2.144   5.157
  406TIP3   OH2 1160   6.886   0.845   0.884
  406TIP3    H1 1161   6.859   0.853   0.792
  406TIP3    H2 1162   6.824   0.899   0.932
  407TIP3   OH2 1163   1.881   7.291   2.386
  407TIP3    H1 1164   1.956   7.320   2.438
  407TIP3    H2 1165   1.919   7.258   2.305
  408TIP3   OH2 1166   2.657   6.953   1.639
  408TIP3    H1 1167   2.626   7.006   1.566
  408TIP3    H2 1168   2.578   6.932   1.689
  409TIP3   OH2 1169   2.160   0.671   5.358
  409TIP3    H1 1170   2.105   0.621   5.298
  409TIP3    H2 1171   2.099   0.731   5.402
  410TIP3   OH2 1172   5.926   3.586   4.701
  410TIP3    H1 1173   5.921   3.632   4.618
  410TIP3    H2 1174   5.887   3.646   4.765
  411TIP3   OH2 1175   4.540   0.696   4.077
  411TIP3    H1 1176   4.578   0.748   4.006
  411TIP3    H2 1177   4.475   0.640   4.034
  412TIP3   OH2 1178   3.669   6.336  -0.041
  412TIP3    H1 1179   3.719   6.320   0.039
  412TIP3    H2 1180   3.584   6.368  -0.011
  413TIP3   OH2 1181   1.126   2.934   2.917
  413TIP3    H1 1182   1.163   3.020   2.937
  413TIP3    H2 1183   1.201   2.882   2.886
  414TIP3   OH2 1184   5.879   1.785   5.778
  414TIP3    H1 1185   5.902   1.790   5.685
  414TIP3    H2 1186   5.949   1.832   5.823
  415TIP3   OH2 1187   3.747   5.983   2.978
  415TIP3    H1 1188   3.738   6.077   2.995
  415TIP3    H2 1189   3.830   5.959   3.019
  416TIP3   OH2 1190   1.675   3.638   0.949
  416TIP3    H1 1191   1.636   3.711   0.901
  416TIP3    H2 1192   1.760   3.672   0.979
  417TIP3   OH2 1193   4.519   4.919   1.205
  417TIP3    H1 1194   4.466   4.976   1.149
  417TIP3    H2 1195   4.534   4.970   1.285
  418TIP3   OH2 1196   3.536   3.359   6.216
  418TIP3    H1 1197   3.575   3.277   6.247
  418TIP3    H2 1198   3.467   3.332   6.156
  419TIP3   OH2 1199   0.305   6.533   6.733
  419TIP3    H1 1200   0.395   6.528   6.700
  419TIP3    H2 1201   0.292   6.625   6.754
  420TIP3   OH2 1202   5.407   1.058   3.063
  420TIP3    H1 1203   5.467   0.999   3.018
  420TIP3    H2 1204   5.463   1.111   3.119
  421TIP3   OH2 1205   3.628   1.581   0.720
  421TIP3    H1 1206   3.609   1.619   0.806
  421TIP3    H2 1207   3.633   1.655   0.661
  422TIP3   OH2 1208   2.857   2.649   2.884
  422TIP3    H1 1209   2.784   2.705   2.860
  422TIP3    H2 1210   2.902   2.696   2.954
  423TIP3   OH2 1211   1.865   2.231   0.473
  423TIP3    H1 1212   1.829   2.189   0.394
  423TIP3    H2 1213   1.820   2.316   0.477
  424TIP3   OH2 1214   7.757   3.051   5.612
  424TIP3    H1 1215   7.782   2.978   5.669
  424TIP3    H2 1216   7.736   3.009   5.528
  425TIP3   OH2 1217   3.955   6.956   4.272
  425TIP3    H1 1218   3.993   7.014   4.206
  425TIP3    H2 1219   3.930   7.015   4.343
  426TIP3   OH2 1220   5.482   0.999   6.565
  426TIP3    H1 1221   5.406   1.025   6.512
  426TIP3    H2 1222   5.449   1.003   6.655
  427TIP3   OH2 1223   2.199   3.767   5.501
  427TIP3    H1 1224   2.257   3.753   5.575
  427TIP3    H2 1225   2.111   3.752   5.536
  428TIP3   OH2 1226   2.513   1.985   4.194
  428TIP3    H1 1227   2.476   2.073   4.191
  428TIP3    H2 1228   2.531   1.969   4.286
  429TIP3   OH2 1229   5.210   6.471   3.164
  429TIP3    H1 1230   5.239   6.544   3.109
  429TIP3    H2 1231   5.282   6.459   3.226
  430TIP3   OH2 1232   3.047   2.785   3.934
  430TIP3    H1 1233   3.135   2.756   3.958
  430TIP3    H2 1234   3.053   2.880   3.928
  431TIP3   OH2 1235   2.777   7.814   0.948
  431TIP3    H1 1236   2.849   7.754   0.930
  431TIP3    H2 1237   2.705   7.782   0.893
  432TIP3   OH2 1238   0.445   5.951   3.970
  432TIP3    H1 1239   0.456   5.895   4.047
  432TIP3    H2 1240   0.529   5.994   3.960
  433TIP3   OH2 1241   1.894   2.704   4.790
  433TIP3    H1 1242   1.891   2.614   4.822
  433TIP3    H2 1243   1.987   2.722   4.777
  434TIP3   OH2 1244   4.805   3.870   2.500
  434TIP3    H1 1245   4.841   3.859   2.588
  434TIP3    H2 1246   4.880   3.859   2.442
  435TIP3   OH2 1247   5.997   5.770   4.517
  435TIP3    H1 1248   5.948   5.837   4.564
  435TIP3    H2 1249   6.087   5.803   4.516
  436TIP3   OH2 1250   7.445   5.278   4.653
  436TIP3    H1 1251   7.363   5.281   4.703
  436TIP3    H2 1252   7.513   5.270   4.719
  437TIP3   OH2 1253   2.361   5.926   2.406
  437TIP3    H1 1254   2.451   5.951   2.427
  437TIP3    H2 1255   2.366   5.894   2.316
  438TIP3   OH2 1256   1.258   3.062   6.722
  438TIP3    H1 1257   1.307   3.063   6.640
  438TIP3    H2 1258   1.241   3.155   6.741
  439TIP3   OH2 1259   1.295   7.670   5.462
  439TIP3    H1 1260   1.256   7.633   5.383
  439TIP3    H2 1261   1.371   7.614   5.479
  440TIP3   OH2 1262   4.557   1.863   0.040
  440TIP3    H1 1263   4.650   1.839   0.050
  440TIP3    H2 1264   4.510   1.781   0.055
  441TIP3   OH2 1265   2.187  -0.001   0.437
  441TIP3    H1 1266   2.236   0.080   0.450
  441TIP3    H2 1267   2.238  -0.051   0.374
  442TIP3   OH2 1268   2.602   6.723   1.392
  442TIP3    H1 1269   2.616   6.679   1.309
  442TIP3    H2 1270   2.599   6.816   1.370
  443TIP3   OH2 1271   0.286   0.370   2.854
  443TIP3    H1 1272   0.366   0.320   2.840
  443TIP3    H2 1273   0.299   0.411   2.940
  444TIP3   OH2 1274   2.938   4.969   1.981
  444TIP3    H1 1275   2.939   4.929   2.067
  444TIP3    H2 1276   3.002   4.919   1.930
  445TIP3   OH2 1277   6.399   5.104   3.618
  445TIP3    H1 1278   6.427   5.014   3.634
  445TIP3    H2 1279   6.408   5.147   3.703
  446TIP3   OH2 1280   1.895   1.363   5.682
  446TIP3    H1 1281   1.898   1.318   5.598
  446TIP3    H2 1282   1.857   1.449   5.663
  447TIP3   OH2 1283   7.824   7.248   5.405
  447TIP3    H1 1284   7.834   7.153   5.399
  447TIP3    H2 1285   7.795   7.275   5.318
  448TIP3   OH2 1286   2.420   3.712   5.707
  448TIP3    H1 1287   2.508   3.712   5.747
  448TIP3    H2 1288   2.365   3.665   5.770
  449TIP3   OH2 1289   5.614   7.465   3.736
  449TIP3    H1 1290   5.581   7.450   3.825
  449TIP3    H2 1291   5.619   7.561   3.729
  450TIP3   OH2 1292   6.534   3.939   4.051
  450TIP3    H1 1293   6.585   3.897   3.981
  450TIP3    H2 1294   6.596   3.996   4.095
  451TIP3   OH2 1295   6.980   3.392   1.729
  451TIP3    H1 1296   6.901   3.348   1.697
  451TIP3    H2 1297   6.951   3.439   1.807
  452TIP3   OH2 1298   2.327   4.718   1.823
  452TIP3    H1 1299   2.233   4.719   1.805
  452TIP3    H2 1300   2.351   4.625   1.816
  453TIP3   OH2 1301   7.215   7.516   5.283
  453TIP3    H1 1302   7.263   7.504   5.365
  453TIP3    H2 1303   7.125   7.531   5.311
  454TIP3   OH2 1304   7.868   7.391   3.695
  454TIP3    H1 1305   7.863   7.368   3.788
  454TIP3    H2 1306   7.929   7.328   3.658
  455TIP3   OH2 1307   0.748   3.838   2.831
  455TIP3    H1 1308   0.693   3.902   2.877
  455TIP3    H2 1309   0.744   3.864   2.739
  456TIP3   OH2 1310   5.286   3.468   4.188
  456TIP3    H1 1311   5.250   3.392   4.142
  456TIP3    H2 1312   5.298   3.534   4.120
  457TIP3   OH2 1313   3.886   2.579   0.100
  457TIP3    H1 1314   3.962   2.597   0.045
  457TIP3    H2 1315   3.906   2.621   0.184
  458TIP3   OH2 1316   2.752   7.607   6.430
  458TIP3    H1 1317   2.716   7.519   6.430
  458TIP3    H2 1318   2.838   7.598   6.388
  459TIP3   OH2 1319   0.870   7.434   0.765
  459TIP3    H1 1320   0.870   7.466   0.855
  459TIP3    H2 1321   0.869   7.338   0.773
  460TIP3   OH2 1322   6.996   6.173   6.396
  460TIP3    H1 1323   7.050   6.211   6.328
  460TIP3    H2 1324   6.906   6.183   6.365
  461TIP3   OH2 1325   0.537   1.432   6.245
  461TIP3    H1 1326   0.452   1.411   6.282
  461TIP3    H2 1327   0.571   1.348   6.213
  462TIP3   OH2 1328   1.122   1.238   5.217
  462TIP3    H1 1329   1.040   1.218   5.261
  462TIP3    H2 1330   1.190   1.218   5.283
  463TIP3   OH2 1331   5.323   2.673   3.903
  463TIP3    H1 1332   5.396   2.665   3.842
  463TIP3    H2 1333   5.280   2.755   3.879
  464TIP3   OH2 1334   3.683   5.264   2.046
  464TIP3    H1 1335   3.683   5.174   2.015
  464TIP3    H2 1336   3.620   5.309   1.990
  465TIP3   OH2 1337   2.026   0.678   1.347
  465TIP3    H1 1338   1.968   0.607   1.372
  465TIP3    H2 1339   1.992   0.755   1.392
  466TIP3   OH2 1340   7.981   3.252   5.699
  466TIP3    H1 1341   7.921   3.187   5.736
  466TIP3    H2 1342   8.003   3.309   5.773
  467TIP3   OH2 1343   3.073   3.878   6.515
  467TIP3    H1 1344   3.107   3.790   6.499
  467TIP3    H2 1345   2.988   3.864   6.558
  468TIP3   OH2 1346   6.047   6.944   3.129
  468TIP3    H1 1347   6.099   7.022   3.151
  468TIP3    H2 1348   5.971   6.949   3.188
  469TIP3   OH2 1349   3.817   4.413   5.187
  469TIP3    H1 1350   3.778   4.379   5.107
  469TIP3    H2 1351   3.839   4.335   5.238
  470TIP3   OH2 1352   3.525   1.854   4.620
  470TIP3    H1 1353   3.571   1.785   4.572
  470TIP3    H2 1354   3.510   1.817   4.707
  471TIP3   OH2 1355   4.718   7.790   1.748
  471TIP3    H1 1356   4.721   7.694   1.747
  471TIP3    H2 1357   4.800   7.816   1.706
  472TIP3   OH2 1358   3.215   4.989   1.460
  472TIP3    H1 1359   3.255   5.030   1.537
  472TIP3    H2 1360   3.124   5.020   1.462
  473TIP3   OH2 1361   4.676   0.125   4.723
  473TIP3    H1 1362   4.763   0.107   4.687
  473TIP3    H2 1363   4.649   0.205   4.678
  474TIP3   OH2 1364   7.906   4.708   1.268
  474TIP3    H1 1365   7.951   4.753   1.340
  474TIP3    H2 1366   7.819   4.688   1.304
  475TIP3   OH2 1367   7.893   0.527   3.508
  475TIP3    H1 1368   7.860   0.541   3.597
  475TIP3    H2 1369   7.817   0.496   3.459
  476TIP3   OH2 1370   2.977   2.483   2.717
  476TIP3    H1 1371   2.915   2.481   2.644
  476TIP3    H2 1372   2.944   2.553   2.774
  477TIP3   OH2 1373   3.894   5.168   5.263
  477TIP3    H1 1374   3.915   5.079   5.236
  477TIP3    H2 1375   3.870   5.160   5.355
  478TIP3   OH2 1376   0.901   6.855   4.204
  478TIP3    H1 1377   0.850   6.935   4.201
  478TIP3    H2 1378   0.951   6.855   4.122
  479TIP3   OH2 1379   4.570   1.007   0.513
  479TIP3    H1 1380   4.646   0.955   0.489
  479TIP3    H2 1381   4.511   0.999   0.438
  480TIP3   OH2 1382   7.255   0.767   3.145
  480TIP3    H1 1383   7.293   0.772   3.058
  480TIP3    H2 1384   7.287   0.684   3.181
  481TIP3   OH2 1385   4.814   3.771   5.167
  481TIP3    H1 1386   4.800   3.865   5.161
  481TIP3    H2 1387   4.909   3.760   5.162
  482TIP3   OH2 1388   4.073   5.447   1.206
  482TIP3    H1 1389   4.098   5.516   1.145
  482TIP3    H2 1390   4.112   5.473   1.290
  483TIP3   OH2 1391   3.026   4.473   5.069
  483TIP3    H1 1392   2.984   4.558   5.079
  483TIP3    H2 1393   3.118   4.493   5.054
  484TIP3   OH2 1394   0.120   5.466   0.193
  484TIP3    H1 1395   0.045   5.505   0.148
  484TIP3    H2 1396   0.161   5.539   0.239
  485TIP3   OH2 1397   2.182   6.218   1.434
  485TIP3    H1 1398   2.111   6.157   1.456
  485TIP3    H2 1399   2.143   6.305   1.446
  486TIP3   OH2 1400   4.160   4.483   4.690
  486TIP3    H1 1401   4.086   4.512   4.637
  486TIP3    H2 1402   4.137   4.394   4.717
  487TIP3   OH2 1403   1.535   4.433   3.683
  487TIP3    H1 1404   1.527   4.403   3.593
  487TIP3    H2 1405   1.451   4.413   3.723
  488TIP3   OH2 1406   7.292   6.793   1.823
  488TIP3    H1 1407   7.343   6.836   1.754
  488TIP3    H2 1408   7.240   6.863   1.861
  489TIP3   OH2 1409   0.572   6.332   3.557
  489TIP3    H1 1410   0.516   6.296   3.626
  489TIP3    H2 1411   0.517   6.392   3.509
  490TIP3   OH2 1412   4.787   6.464   2.494
  490TIP3    H1 1413   4.720   6.405   2.458
  490TIP3    H2 1414   4.740   6.516   2.559
  491TIP3   OH2 1415   6.725   3.831   1.146
  491TIP3    H1 1416   6.803   3.778   1.161
  491TIP3    H2 1417   6.759   3.913   1.107
  492TIP3   OH2 1418   7.677   5.338   4.834
  492TIP3    H1 1419   7.762   5.376   4.809
  492TIP3    H2 1420   7.694   5.294   4.917
  493TIP3   OH2 1421   7.240   0.173   0.341
  493TIP3    H1 1422   7.291   0.164   0.421
  493TIP3    H2 1423   7.151   0.191   0.371
  494TIP3   OH2 1424   7.432   5.482   5.813
  494TIP3    H1 1425   7.426   5.538   5.891
  494TIP3    H2 1426   7.522   5.493   5.783
  495TIP3   OH2 1427   2.527   5.343   0.216
  495TIP3    H1 1428   2.557   5.422   0.261
  495TIP3    H2 1429   2.452   5.313   0.268
  496TIP3   OH2 1430   0.936   3.865   4.946
  496TIP3    H1 1431   0.882   3.858   5.024
  496TIP3    H2 1432   0.977   3.779   4.937
  497TIP3   OH2 1433   5.759   0.945   5.866
  497TIP3    H1 1434   5.765   0.982   5.954
  497TIP3    H2 1435   5.800   0.858   5.874
  498TIP3   OH2 1436   6.907   4.288   1.649
  498TIP3    H1 1437   6.968   4.362   1.651
  498TIP3    H2 1438   6.920   4.244   1.733
  499TIP3   OH2 1439   2.637   4.855   2.074
  499TIP3    H1 1440   2.595   4.775   2.105
  499TIP3    H2 1441   2.595   4.874   1.990
  500TIP3   OH2 1442   4.440   7.586   2.409
  500TIP3    H1 1443   4.407   7.497   2.421
  500TIP3    H2 1444   4.402   7.614   2.326
  501TIP3   OH2 1445   7.335   2.251   1.303
  501TIP3    H1 1446   7.351   2.316   1.371
  501TIP3    H2 1447   7.359   2.168   1.343
  502TIP3   OH2 1448   0.947   0.400   1.398
  502TIP3    H1 1449   0.970   0.470   1.459
  502TIP3    H2 1450   0.854   0.384   1.414
  503TIP3   OH2 1451   2.229   1.631   5.030
  503TIP3    H1 1452   2.244   1.696   4.962
  503TIP3    H2 1453   2.299   1.645   5.093
  504TIP3   OH2 1454   6.277   0.508   5.484
  504TIP3    H1 1455   6.365   0.508   5.521
  504TIP3    H2 1456   6.219   0.518   5.560
  505TIP3   OH2 1457   0.104   0.793   4.560
  505TIP3    H1 1458   0.008   0.798   4.558
  505TIP3    H2 1459   0.126   0.724   4.499
  506TIP3   OH2 1460   0.556   1.557   4.279
  506TIP3    H1 1461   0.476   1.527   4.323
  506TIP3    H2 1462   0.547   1.524   4.190
  507TIP3   OH2 1463   1.027   7.675   3.454
  507TIP3    H1 1464   1.118   7.665   3.426
  507TIP3    H2 1465   1.031   7.680   3.550
  508TIP3   OH2 1466   6.229   2.617   6.141
  508TIP3    H1 1467   6.196   2.547   6.085
  508TIP3    H2 1468   6.242   2.575   6.226
  509TIP3   OH2 1469   1.096   1.192   2.954
  509TIP3    H1 1470   1.064   1.137   2.883
  509TIP3    H2 1471   1.019   1.244   2.980
  510TIP3   OH2 1472   7.780   0.403   5.199
  510TIP3    H1 1473   7.826   0.333   5.244
  510TIP3    H2 1474   7.690   0.371   5.190
  511TIP3   OH2 1475   6.375   6.904   3.011
  511TIP3    H1 1476   6.390   6.971   2.944
  511TIP3    H2 1477   6.292   6.863   2.985
  512TIP3   OH2 1478   3.539   4.460   0.178
  512TIP3    H1 1479   3.565   4.438   0.268
  512TIP3    H2 1480   3.576   4.389   0.125
  513TIP3   OH2 1481   7.367   6.157   4.927
  513TIP3    H1 1482   7.330   6.083   4.975
  513TIP3    H2 1483   7.433   6.193   4.987
  514TIP3   OH2 1484   3.797   2.154   5.769
  514TIP3    H1 1485   3.868   2.096   5.740
  514TIP3    H2 1486   3.778   2.209   5.693
  515TIP3   OH2 1487   0.243   0.694   3.862
  515TIP3    H1 1488   0.254   0.784   3.831
  515TIP3    H2 1489   0.187   0.653   3.796
  516TIP3   OH2 1490   3.786   5.234   5.037
  516TIP3    H1 1491   3.841   5.215   5.113
  516TIP3    H2 1492   3.826   5.310   4.996
  517TIP3   OH2 1493   4.840   4.589   3.864
  517TIP3    H1 1494   4.866   4.646   3.792
  517TIP3    H2 1495   4.845   4.500   3.828
  518TIP3   OH2 1496   5.300   0.437   4.512
  518TIP3    H1 1497   5.302   0.511   4.451
  518TIP3    H2 1498   5.236   0.377   4.475
  519TIP3   OH2 1499   0.490   3.773   1.652
  519TIP3    H1 1500   0.571   3.806   1.614
  519TIP3    H2 1501   0.450   3.849   1.693
  520TIP3   OH2 1502   8.168   3.218   0.614
  520TIP3    H1 1503   8.142   3.150   0.676
  520TIP3    H2 1504   8.132   3.299   0.650
  521TIP3   OH2 1505   1.575   1.458   0.574
  521TIP3    H1 1506   1.566   1.407   0.493
  521TIP3    H2 1507   1.519   1.535   0.559
  522TIP3   OH2 1508   4.357   5.633   4.065
  522TIP3    H1 1509   4.376   5.572   4.136
  522TIP3    H2 1510   4.394   5.716   4.095
  523TIP3   OH2 1511   3.754   0.150   1.758
  523TIP3    H1 1512   3.763   0.057   1.781
  523TIP3    H2 1513   3.754   0.196   1.841
  524TIP3   OH2 1514   4.236   4.941   2.854
  524TIP3    H1 1515   4.181   4.912   2.781
  524TIP3    H2 1516   4.187   4.913   2.932
  525TIP3   OH2 1517   2.192   0.217   5.035
  525TIP3    H1 1518   2.166   0.275   5.107
  525TIP3    H2 1519   2.126   0.148   5.034
  526TIP3   OH2 1520   4.506   7.702   6.243
  526TIP3    H1 1521   4.522   7.623   6.193
  526TIP3    H2 1522   4.410   7.711   6.244
  527TIP3   OH2 1523   0.247   2.064   2.563
  527TIP3    H1 1524   0.227   1.972   2.580
  527TIP3    H2 1525   0.246   2.071   2.467
  528TIP3   OH2 1526   3.704   4.038   5.235
  528TIP3    H1 1527   3.775   4.097   5.262
  528TIP3    H2 1528   3.747   3.953   5.222
  529TIP3   OH2 1529   0.928   6.278   3.966
  529TIP3    H1 1530   0.887   6.338   3.903
  529TIP3    H2 1531   0.856   6.247   4.020
  530TIP3   OH2 1532   1.727   0.838   4.309
  530TIP3    H1 1533   1.636   0.864   4.298
  530TIP3    H2 1534   1.727   0.785   4.389
  531TIP3   OH2 1535   5.494   1.675   4.083
  531TIP3    H1 1536   5.463   1.587   4.061
  531TIP3    H2 1537   5.455   1.731   4.015
  532TIP3   OH2 1538   7.667   3.898   2.730
  532TIP3    H1 1539   7.670   3.845   2.651
  532TIP3    H2 1540   7.757   3.897   2.764
  533TIP3   OH2 1541   6.880   5.372   5.564
  533TIP3    H1 1542   6.802   5.427   5.565
  533TIP3    H2 1543   6.942   5.418   5.508
  534TIP3   OH2 1544   6.283   2.950   5.629
  534TIP3    H1 1545   6.238   2.865   5.632
  534TIP3    H2 1546   6.217   3.010   5.595
  535TIP3   OH2 1547   8.235   4.179   3.034
  535TIP3    H1 1548   8.293   4.194   3.108
  535TIP3    H2 1549   8.254   4.250   2.973
  536TIP3   OH2 1550   1.147   4.143   5.724
  536TIP3    H1 1551   1.173   4.143   5.632
  536TIP3    H2 1552   1.051   4.142   5.721
  537TIP3   OH2 1553   4.071   4.865   1.890
  537TIP3    H1 1554   4.011   4.803   1.847
  537TIP3    H2 1555   4.115   4.909   1.817
  538TIP3   OH2 1556   1.538   6.833   5.457
  538TIP3    H1 1557   1.471   6.768   5.436
  538TIP3    H2 1558   1.554   6.879   5.375
  539TIP3   OH2 1559   4.613   7.006   0.668
  539TIP3    H1 1560   4.608   7.093   0.627
  539TIP3    H2 1561   4.546   7.007   0.736
  540TIP3   OH2 1562   2.135   2.410   5.981
  540TIP3    H1 1563   2.198   2.480   5.961
  540TIP3    H2 1564   2.050   2.450   5.966
  541TIP3   OH2 1565   3.659   7.601   1.654
  541TIP3    H1 1566   3.631   7.529   1.598
  541TIP3    H2 1567   3.688   7.559   1.735
  542TIP3   OH2 1568   6.739   5.322   4.452
  542TIP3    H1 1569   6.815   5.353   4.401
  542TIP3    H2 1570   6.774   5.304   4.539
  543TIP3   OH2 1571   4.076   1.559   3.292
  543TIP3    H1 1572   4.014   1.621   3.251
  543TIP3    H2 1573   4.031   1.475   3.289
  544TIP3   OH2 1574   6.331   5.270   6.150
  544TIP3    H1 1575   6.259   5.314   6.104
  544TIP3    H2 1576   6.366   5.336   6.210
  545TIP3   OH2 1577   3.150   4.447   3.436
  545TIP3    H1 1578   3.197   4.387   3.494
  545TIP3    H2 1579   3.203   4.527   3.438
  546TIP3   OH2 1580   0.051   2.601   4.001
  546TIP3    H1 1581   0.094   2.523   4.037
  546TIP3    H2 1582   0.090   2.612   3.914
  547TIP3   OH2 1583   7.260   5.983   2.581
  547TIP3    H1 1584   7.267   5.996   2.486
  547TIP3    H2 1585   7.318   6.050   2.618
  548TIP3   OH2 1586   1.923   0.896   0.711
  548TIP3    H1 1587   1.838   0.862   0.683
  548TIP3    H2 1588   1.986   0.833   0.675
  549TIP3   OH2 1589   1.188   2.369   3.824
  549TIP3    H1 1590   1.209   2.312   3.749
  549TIP3    H2 1591   1.273   2.402   3.853
  550TIP3   OH2 1592   6.166   6.805   4.682
  550TIP3    H1 1593   6.112   6.840   4.611
  550TIP3    H2 1594   6.125   6.839   4.762
  551TIP3   OH2 1595   1.387   4.305   1.366
  551TIP3    H1 1596   1.315   4.333   1.309
  551TIP3    H2 1597   1.401   4.379   1.426
  552TIP3   OH2 1598   0.029   2.396   1.916
  552TIP3    H1 1599   0.048   2.455   1.989
  552TIP3    H2 1600   0.016   2.310   1.957
  553TIP3   OH2 1601   7.875   0.792   2.168
  553TIP3    H1 1602   7.837   0.859   2.110
  553TIP3    H2 1603   7.968   0.794   2.148
  554TIP3   OH2 1604   0.800   1.729   6.670
  554TIP3    H1 1605   0.865   1.731   6.600
  554TIP3    H2 1606   0.747   1.652   6.651
  555TIP3   OH2 1607   5.540   0.403   3.294
  555TIP3    H1 1608   5.634   0.416   3.277
  555TIP3    H2 1609   5.538   0.346   3.371
  556TIP3   OH2 1610   6.325   4.975   6.786
  556TIP3    H1 1611   6.267   4.980   6.710
  556TIP3    H2 1612   6.406   4.937   6.751
  557TIP3   OH2 1613   2.310   5.557   6.213
  557TIP3    H1 1614   2.296   5.519   6.299
  557TIP3    H2 1615   2.394   5.602   6.220
  558TIP3   OH2 1616   6.754   3.214   1.697
  558TIP3    H1 1617   6.739   3.143   1.635
  558TIP3    H2 1618   6.688   3.280   1.674
  559TIP3   OH2 1619   2.738   5.904   4.576
  559TIP3    H1 1620   2.833   5.919   4.573
  559TIP3    H2 1621   2.729   5.816   4.610
  560TIP3   OH2 1622   1.546   7.394   4.603
  560TIP3    H1 1623   1.462   7.425   4.638
  560TIP3    H2 1624   1.609   7.412   4.673
  561TIP3   OH2 1625   1.965   5.270   6.651
  561TIP3    H1 1626   1.975   5.237   6.561
  561TIP3    H2 1627   2.036   5.228   6.700
  562TIP3   OH2 1628   1.968   1.123   2.702
  562TIP3    H1 1629   1.956   1.128   2.608
  562TIP3    H2 1630   1.885   1.155   2.739
  563TIP3   OH2 1631   6.456   0.438   5.729
  563TIP3    H1 1632   6.378   0.382   5.726
  563TIP3    H2 1633   6.499   0.414   5.811
  564TIP3   OH2 1634   7.603   3.791   3.003
  564TIP3    H1 1635   7.690   3.772   3.038
  564TIP3    H2 1636   7.618   3.841   2.924
  565TIP3   OH2 1637   5.525   4.935   1.713
  565TIP3    H1 1638   5.479   4.898   1.637
  565TIP3    H2 1639   5.617   4.937   1.687
  566TIP3   OH2 1640   5.626   4.612   1.217
  566TIP3    H1 1641   5.629   4.707   1.224
  566TIP3    H2 1642   5.533   4.590   1.219
  567TIP3   OH2 1643   0.244   2.324   4.950
  567TIP3    H1 1644   0.229   2.308   5.043
  567TIP3    H2 1645   0.243   2.237   4.910
  568TIP3   OH2 1646   3.249   5.382   1.003
  568TIP3    H1 1647   3.298   5.386   0.921
  568TIP3    H2 1648   3.214   5.471   1.015
  569TIP3   OH2 1649   2.977   7.793   1.965
  569TIP3    H1 1650   2.991   7.858   1.896
  569TIP3    H2 1651   2.989   7.709   1.921
  570TIP3   OH2 1652   7.943   1.568   0.416
  570TIP3    H1 1653   7.899   1.546   0.334
  570TIP3    H2 1654   7.909   1.505   0.479
  571TIP3   OH2 1655   0.078   6.039   2.379
  571TIP3    H1 1656   0.089   6.131   2.354
  571TIP3    H2 1657  -0.017   6.028   2.388
  572TIP3   OH2 1658   0.528   2.675   3.896
  572TIP3    H1 1659   0.535   2.586   3.861
  572TIP3    H2 1660   0.561   2.669   3.985
  573TIP3   OH2 1661   4.963   1.721   3.975
  573TIP3    H1 1662   5.005   1.642   4.008
  573TIP3    H2 1663   4.935   1.698   3.886
  574TIP3   OH2 1664   1.426   5.794   4.234
  574TIP3    H1 1665   1.453   5.702   4.234
  574TIP3    H2 1666   1.442   5.823   4.144
  575TIP3   OH2 1667   6.708   0.708   4.809
  575TIP3    H1 1668   6.718   0.723   4.903
  575TIP3    H2 1669   6.745   0.621   4.794
  576TIP3   OH2 1670   4.690   7.540   2.177
  576TIP3    H1 1671   4.626   7.601   2.140
  576TIP3    H2 1672   4.765   7.544   2.118
  577TIP3   OH2 1673   1.528   0.084   0.986
  577TIP3    H1 1674   1.493   0.050   1.069
  577TIP3    H2 1675   1.568   0.168   1.010
  578TIP3   OH2 1676   5.896   6.798   2.705
  578TIP3    H1 1677   5.879   6.745   2.627
  578TIP3    H2 1678   5.972   6.851   2.681
  579TIP3   OH2 1679   2.220   3.054   2.318
  579TIP3    H1 1680   2.209   2.959   2.330
  579TIP3    H2 1681   2.314   3.067   2.320
  580TIP3   OH2 1682   5.148   0.463   0.477
  580TIP3    H1 1683   5.227   0.454   0.423
  580TIP3    H2 1684   5.169   0.533   0.539
  581TIP3   OH2 1685   2.403   2.035   4.950
  581TIP3    H1 1686   2.486   2.028   4.996
  581TIP3    H2 1687   2.424   2.076   4.866
  582TIP3   OH2 1688   0.927   4.766   2.156
  582TIP3    H1 1689   0.902   4.692   2.101
  582TIP3    H2 1690   0.870   4.837   2.127
  583TIP3   OH2 1691   5.119   4.185   4.440
  583TIP3    H1 1692   5.112   4.107   4.387
  583TIP3    H2 1693   5.037   4.189   4.489
  584TIP3   OH2 1694   1.496   2.891   5.030
  584TIP3    H1 1695   1.489   2.803   4.994
  584TIP3    H2 1696   1.434   2.892   5.103
  585TIP3   OH2 1697   3.383   4.994   4.316
  585TIP3    H1 1698   3.305   5.048   4.328
  585TIP3    H2 1699   3.384   4.972   4.223
  586TIP3   OH2 1700   6.883   1.498   1.514
  586TIP3    H1 1701   6.888   1.593   1.514
  586TIP3    H2 1702   6.799   1.479   1.471
  587TIP3   OH2 1703   3.804   6.081   5.447
  587TIP3    H1 1704   3.732   6.019   5.456
  587TIP3    H2 1705   3.842   6.063   5.361
  588TIP3   OH2 1706   6.397   4.331   5.430
  588TIP3    H1 1707   6.477   4.384   5.429
  588TIP3    H2 1708   6.418   4.256   5.484
  589TIP3   OH2 1709   2.935   0.519   0.110
  589TIP3    H1 1710   2.884   0.567   0.175
  589TIP3    H2 1711   2.996   0.465   0.161
  590TIP3   OH2 1712   6.966   5.439   0.620
  590TIP3    H1 1713   6.941   5.441   0.527
  590TIP3    H2 1714   6.926   5.518   0.657
  591TIP3   OH2 1715   0.088   3.253   3.584
  591TIP3    H1 1716   0.131   3.283   3.504
  591TIP3    H2 1717   0.005   3.300   3.585
  592TIP3   OH2 1718   8.119   4.616   6.652
  592TIP3    H1 1719   8.148   4.704   6.627
  592TIP3    H2 1720   8.031   4.608   6.614
  593TIP3   OH2 1721   6.286   1.229   3.231
  593TIP3    H1 1722   6.293   1.234   3.326
  593TIP3    H2 1723   6.207   1.176   3.216
  594TIP3   OH2 1724   2.672   3.103   5.915
  594TIP3    H1 1725   2.698   3.042   5.846
  594TIP3    H2 1726   2.700   3.061   5.996
  595TIP3   OH2 1727   5.963   1.214   1.325
  595TIP3    H1 1728   6.010   1.296   1.309
  595TIP3    H2 1729   5.876   1.229   1.286
  596TIP3   OH2 1730   6.909   4.710   0.462
  596TIP3    H1 1731   6.965   4.674   0.531
  596TIP3    H2 1732   6.968   4.726   0.389
  597TIP3   OH2 1733   5.927   0.029   2.415
  597TIP3    H1 1734   6.007   0.027   2.361
  597TIP3    H2 1735   5.959   0.020   2.505
  598TIP3   OH2 1736   6.613   0.393   5.978
  598TIP3    H1 1737   6.690   0.376   5.924
  598TIP3    H2 1738   6.625   0.338   6.055
  599TIP3   OH2 1739   2.795   5.870   5.360
  599TIP3    H1 1740   2.767   5.961   5.345
  599TIP3    H2 1741   2.830   5.870   5.449
  600TIP3   OH2 1742   5.325   4.019   2.613
  600TIP3    H1 1743   5.395   4.004   2.676
  600TIP3    H2 1744   5.264   4.077   2.658
  601TIP3   OH2 1745   4.215   2.936   4.072
  601TIP3    H1 1746   4.297   2.981   4.094
  601TIP3    H2 1747   4.164   3.001   4.024
  602TIP3   OH2 1748   3.599   2.447   6.301
  602TIP3    H1 1749   3.560   2.376   6.250
  602TIP3    H2 1750   3.525   2.500   6.329
  603TIP3   OH2 1751   6.552   6.227   5.448
  603TIP3    H1 1752   6.636   6.206   5.490
  603TIP3    H2 1753   6.564   6.317   5.416
  604TIP3   OH2 1754   0.944   3.223   2.104
  604TIP3    H1 1755   0.967   3.315   2.120
  604TIP3    H2 1756   0.929   3.187   2.191
  605TIP3   OH2 1757   7.992   5.478   0.934
  605TIP3    H1 1758   7.954   5.529   1.005
  605TIP3    H2 1759   7.933   5.492   0.860
  606TIP3   OH2 1760   1.760   6.388   3.071
  606TIP3    H1 1761   1.703   6.335   3.125
  606TIP3    H2 1762   1.729   6.478   3.083
  607TIP3   OH2 1763   4.115   5.731   4.590
  607TIP3    H1 1764   4.035   5.699   4.632
  607TIP3    H2 1765   4.118   5.686   4.505
  608TIP3   OH2 1766   7.566   7.277   5.219
  608TIP3    H1 1767   7.518   7.278   5.136
  608TIP3    H2 1768   7.618   7.197   5.216
  609TIP3   OH2 1769   0.564   2.888   6.543
  609TIP3    H1 1770   0.645   2.894   6.492
  609TIP3    H2 1771   0.586   2.832   6.617
  610TIP3   OH2 1772   7.023   1.382   4.694
  610TIP3    H1 1773   7.079   1.307   4.672
  610TIP3    H2 1774   7.038   1.396   4.787
  611TIP3   OH2 1775   0.693   7.302   3.650
  611TIP3    H1 1776   0.789   7.293   3.649
  611TIP3    H2 1777   0.678   7.395   3.631
  612TIP3   OH2 1778   2.954   7.395   2.096
  612TIP3    H1 1779   2.932   7.408   2.003
  612TIP3    H2 1780   3.048   7.378   2.095
  613TIP3   OH2 1781   0.521   0.992   5.149
  613TIP3    H1 1782   0.458   0.942   5.200
  613TIP3    H2 1783   0.569   0.927   5.098
  614TIP3   OH2 1784   3.838   3.502   1.466
  614TIP3    H1 1785   3.893   3.506   1.387
  614TIP3    H2 1786   3.896   3.470   1.534
  615TIP3   OH2 1787   0.403   1.642   6.473
  615TIP3    H1 1788   0.382   1.551   6.452
  615TIP3    H2 1789   0.492   1.638   6.510
  616TIP3   OH2 1790   0.161   2.564   5.320
  616TIP3    H1 1791   0.228   2.534   5.258
  616TIP3    H2 1792   0.149   2.491   5.380
  617TIP3   OH2 1793   7.846   0.229   3.854
  617TIP3    H1 1794   7.826   0.302   3.912
  617TIP3    H2 1795   7.939   0.238   3.835
  618TIP3   OH2 1796   6.081   5.290   3.572
  618TIP3    H1 1797   6.087   5.341   3.491
  618TIP3    H2 1798   6.028   5.214   3.548
  619TIP3   OH2 1799   6.222   0.754   1.248
  619TIP3    H1 1800   6.230   0.745   1.153
  619TIP3    H2 1801   6.154   0.820   1.261
  620TIP3   OH2 1802   4.965   6.368   0.088
  620TIP3    H1 1803   5.001   6.302   0.029
  620TIP3    H2 1804   4.882   6.395   0.047
  621TIP3   OH2 1805   5.546   4.934   1.253
  621TIP3    H1 1806   5.454   4.912   1.235
  621TIP3    H2 1807   5.560   5.016   1.206
  622TIP3   OH2 1808   7.247   5.542   4.155
  622TIP3    H1 1809   7.198   5.541   4.238
  622TIP3    H2 1810   7.211   5.616   4.106
  623TIP3   OH2 1811   5.183   2.817   0.281
  623TIP3    H1 1812   5.109   2.792   0.226
  623TIP3    H2 1813   5.182   2.913   0.280
  624TIP3   OH2 1814   5.978   3.120   5.900
  624TIP3    H1 1815   6.041   3.179   5.858
  624TIP3    H2 1816   6.031   3.066   5.959
  625TIP3   OH2 1817   1.241   6.598   1.149
  625TIP3    H1 1818   1.163   6.576   1.200
  625TIP3    H2 1819   1.313   6.556   1.196
  626TIP3   OH2 1820   5.829   2.319   0.492
  626TIP3    H1 1821   5.792   2.330   0.404
  626TIP3    H2 1822   5.922   2.302   0.477
  627TIP3   OH2 1823   1.205   0.674   4.310
  627TIP3    H1 1824   1.164   0.749   4.266
  627TIP3    H2 1825   1.248   0.625   4.240
  628TIP3   OH2 1826   3.167   5.866   6.498
  628TIP3    H1 1827   3.257   5.842   6.476
  628TIP3    H2 1828   3.136   5.913   6.420
  629TIP3   OH2 1829   2.380   5.509   5.765
  629TIP3    H1 1830   2.396   5.440   5.701
  629TIP3    H2 1831   2.327   5.468   5.833
  630TIP3   OH2 1832   3.351   6.469   5.951
  630TIP3    H1 1833   3.282   6.528   5.979
  630TIP3    H2 1834   3.415   6.471   6.023
  631TIP3   OH2 1835   4.943   4.623   0.658
  631TIP3    H1 1836   4.928   4.700   0.714
  631TIP3    H2 1837   5.015   4.576   0.701
  632TIP3   OH2 1838   6.035   4.777   5.427
  632TIP3    H1 1839   6.130   4.787   5.429
  632TIP3    H2 1840   6.010   4.793   5.336
  633TIP3   OH2 1841   1.099   6.287   5.240
  633TIP3    H1 1842   1.190   6.277   5.267
  633TIP3    H2 1843   1.053   6.308   5.321
  634TIP3   OH2 1844   3.672   3.802   3.234
  634TIP3    H1 1845   3.622   3.849   3.168
  634TIP3    H2 1846   3.764   3.820   3.214
  635TIP3   OH2 1847   1.580   3.983   0.995
  635TIP3    H1 1848   1.523   3.906   0.997
  635TIP3    H2 1849   1.524   4.053   0.961
  636TIP3   OH2 1850   0.982   2.981   6.184
  636TIP3    H1 1851   1.030   2.898   6.186
  636TIP3    H2 1852   1.051   3.047   6.187
  637TIP3   OH2 1853   1.651   7.332   3.032
  637TIP3    H1 1854   1.728   7.389   3.039
  637TIP3    H2 1855   1.666   7.279   2.954
  638TIP3   OH2 1856   2.371   3.279   3.005
  638TIP3    H1 1857   2.426   3.264   2.927
  638TIP3    H2 1858   2.332   3.193   3.023
  639TIP3   OH2 1859   1.371   4.668   5.803
  639TIP3    H1 1860   1.361   4.700   5.713
  639TIP3    H2 1861   1.304   4.601   5.813
  640TIP3   OH2 1862   2.096   7.633   0.333
  640TIP3    H1 1863   2.180   7.657   0.369
  640TIP3    H2 1864   2.086   7.540   0.354
  641TIP3   OH2 1865   6.028   6.997   2.211
  641TIP3    H1 1866   6.048   6.913   2.252
  641TIP3    H2 1867   5.960   6.978   2.147
  642TIP3   OH2 1868   5.310   1.844   5.019
  642TIP3    H1 1869   5.238   1.807   4.968
  642TIP3    H2 1870   5.310   1.937   4.998
  643TIP3   OH2 1871   7.311   5.862   5.135
  643TIP3    H1 1872   7.351   5.808   5.203
  643TIP3    H2 1873   7.364   5.846   5.057
  644TIP3   OH2 1874   7.051   7.488   0.787
  644TIP3    H1 1875   7.130   7.437   0.771
  644TIP3    H2 1876   7.011   7.496   0.701
  645TIP3   OH2 1877   4.877   7.702   1.120
  645TIP3    H1 1878   4.846   7.750   1.197
  645TIP3    H2 1879   4.825   7.736   1.048
  646TIP3   OH2 1880   3.516   7.563   2.173
  646TIP3    H1 1881   3.575   7.636   2.192
  646TIP3    H2 1882   3.432   7.589   2.210
  647TIP3   OH2 1883   0.982   7.371   3.010
  647TIP3    H1 1884   1.030   7.291   2.993
  647TIP3    H2 1885   1.038   7.441   2.977
  648TIP3   OH2 1886   7.056   1.751   6.071
  648TIP3    H1 1887   6.970   1.782   6.098
  648TIP3    H2 1888   7.056   1.760   5.976
  649TIP3   OH2 1889   5.567   3.911   3.648
  649TIP3    H1 1890   5.475   3.922   3.623
  649TIP3    H2 1891   5.615   3.970   3.590
  650TIP3   OH2 1892   4.091   5.636   1.818
  650TIP3    H1 1893   4.083   5.698   1.890
  650TIP3    H2 1894   4.169   5.584   1.838
  651TIP3   OH2 1895   0.737   1.128   5.747
  651TIP3    H1 1896   0.692   1.186   5.685
  651TIP3    H2 1897   0.772   1.057   5.692
  652TIP3   OH2 1898   3.455   7.160   4.232
  652TIP3    H1 1899   3.382   7.171   4.170
  652TIP3    H2 1900   3.483   7.249   4.252
  653TIP3   OH2 1901   3.648   4.810   1.363
  653TIP3    H1 1902   3.571   4.754   1.357
  653TIP3    H2 1903   3.661   4.843   1.274
  654TIP3   OH2 1904   4.727   0.443   5.824
  654TIP3    H1 1905   4.635   0.446   5.799
  654TIP3    H2 1906   4.733   0.369   5.885
  655TIP3   OH2 1907   3.892   0.308   6.077
  655TIP3    H1 1908   3.883   0.214   6.094
  655TIP3    H2 1909   3.940   0.313   5.994
  656TIP3   OH2 1910   1.248   4.817   6.391
  656TIP3    H1 1911   1.266   4.838   6.299
  656TIP3    H2 1912   1.293   4.886   6.440
  657TIP3   OH2 1913   0.762   7.693   0.681
  657TIP3    H1 1914   0.782   7.735   0.765
  657TIP3    H2 1915   0.779   7.600   0.697
  658TIP3   OH2 1916   3.713   7.460   2.725
  658TIP3    H1 1917   3.643   7.511   2.767
  658TIP3    H2 1918   3.754   7.413   2.797
  659TIP3   OH2 1919   8.065   5.047   2.806
  659TIP3    H1 1920   8.076   5.003   2.890
  659TIP3    H2 1921   8.068   5.141   2.827
  660TIP3   OH2 1922   6.183   3.257   0.498
  660TIP3    H1 1923   6.222   3.312   0.566
  660TIP3    H2 1924   6.253   3.244   0.434
  661TIP3   OH2 1925   8.166   2.937   1.201
  661TIP3    H1 1926   8.151   2.909   1.291
  661TIP3    H2 1927   8.197   3.028   1.209
  662TIP3   OH2 1928   3.023   3.536   5.139
  662TIP3    H1 1929   3.015   3.442   5.156
  662TIP3    H2 1930   3.034   3.543   5.044
  663TIP3   OH2 1931   6.248   2.684   5.631
  663TIP3    H1 1932   6.210   2.654   5.548
  663TIP3    H2 1933   6.342   2.689   5.615
  664TIP3   OH2 1934   0.606   6.254   1.552
  664TIP3    H1 1935   0.662   6.183   1.582
  664TIP3    H2 1936   0.592   6.236   1.459
  665TIP3   OH2 1937   2.561   5.976   6.278
  665TIP3    H1 1938   2.571   6.003   6.186
  665TIP3    H2 1939   2.615   6.039   6.327
  666TIP3   OH2 1940   0.744   3.420   5.105
  666TIP3    H1 1941   0.675   3.468   5.059
  666TIP3    H2 1942   0.791   3.374   5.036
  667TIP3   OH2 1943   5.215   5.220   0.985
  667TIP3    H1 1944   5.287   5.245   0.927
  667TIP3    H2 1945   5.139   5.215   0.928
  668TIP3   OH2 1946   6.917   0.037   4.900
  668TIP3    H1 1947   6.931  -0.057   4.889
  668TIP3    H2 1948   6.865   0.062   4.824
  669TIP3   OH2 1949   5.857   2.692   3.654
  669TIP3    H1 1950   5.915   2.687   3.578
  669TIP3    H2 1951   5.857   2.603   3.690
  670TIP3   OH2 1952   6.751   3.203   1.967
  670TIP3    H1 1953   6.732   3.211   1.873
  670TIP3    H2 1954   6.806   3.279   1.987
  671TIP3   OH2 1955   1.177   4.647   0.638
  671TIP3    H1 1956   1.120   4.709   0.684
  671TIP3    H2 1957   1.266   4.673   0.665
  672TIP3   OH2 1958   0.905   2.086   0.583
  672TIP3    H1 1959   0.864   2.071   0.498
  672TIP3    H2 1960   0.842   2.050   0.646
  673TIP3   OH2 1961   4.656   7.044   0.237
  673TIP3    H1 1962   4.584   7.006   0.287
  673TIP3    H2 1963   4.619   7.125   0.200
  674TIP3   OH2 1964   2.949   2.452   0.376
  674TIP3    H1 1965   2.860   2.475   0.352
  674TIP3    H2 1966   2.996   2.447   0.293
  675TIP3   OH2 1967   1.629   4.471   5.269
  675TIP3    H1 1968   1.535   4.457   5.278
  675TIP3    H2 1969   1.654   4.524   5.345
  676TIP3   OH2 1970   4.954   7.071   5.919
  676TIP3    H1 1971   4.903   7.106   5.992
  676TIP3    H2 1972   4.975   6.981   5.946
  677TIP3   OH2 1973   5.703   7.160   0.553
  677TIP3    H1 1974   5.647   7.107   0.609
  677TIP3    H2 1975   5.779   7.104   0.535
  678TIP3   OH2 1976   0.630   1.982   3.711
  678TIP3    H1 1977   0.646   1.887   3.712
  678TIP3    H2 1978   0.692   2.017   3.775
  679TIP3   OH2 1979   5.179   0.509   5.958
  679TIP3    H1 1980   5.217   0.447   6.021
  679TIP3    H2 1981   5.241   0.582   5.957
  680TIP3   OH2 1982   5.250   0.198   2.617
  680TIP3    H1 1983   5.233   0.104   2.622
  680TIP3    H2 1984   5.229   0.221   2.526
  681TIP3   OH2 1985   5.191   0.091   3.144
  681TIP3    H1 1986   5.125   0.022   3.129
  681TIP3    H2 1987   5.268   0.061   3.096
  682TIP3   OH2 1988   2.753   7.305   2.788
  682TIP3    H1 1989   2.791   7.366   2.725
  682TIP3    H2 1990   2.822   7.290   2.852
  683TIP3   OH2 1991   0.276   2.407   0.453
  683TIP3    H1 1992   0.213   2.335   0.453
  683TIP3    H2 1993   0.350   2.376   0.402
  684TIP3   OH2 1994   1.834   0.614   0.147
  684TIP3    H1 1995   1.806   0.529   0.183
  684TIP3    H2 1996   1.812   0.677   0.216
  685TIP3   OH2 1997   2.560   5.712   2.660
  685TIP3    H1 1998   2.652   5.687   2.661
  685TIP3    H2 1999   2.557   5.790   2.604
  686TIP3   OH2 2000   5.950   1.379   2.593
  686TIP3    H1 2001   5.870   1.419   2.628
  686TIP3    H2 2002   5.951   1.405   2.501
  687TIP3   OH2 2003  -0.005   2.820   0.977
  687TIP3    H1 2004  -0.034   2.821   1.068
  687TIP3    H2 2005   0.065   2.755   0.975
  688TIP3   OH2 2006   2.505   1.137   2.548
  688TIP3    H1 2007   2.540   1.093   2.626
  688TIP3    H2 2008   2.566   1.209   2.531
  689TIP3   OH2 2009   5.541   2.454   4.212
  689TIP3    H1 2010   5.512   2.437   4.122
  689TIP3    H2 2011   5.523   2.373   4.259
  690TIP3   OH2 2012   1.851   1.632   5.962
  690TIP3    H1 2013   1.816   1.660   6.047
  690TIP3    H2 2014   1.840   1.537   5.962
  691TIP3   OH2 2015   0.931   0.540   3.014
  691TIP3    H1 2016   0.901   0.578   2.932
  691TIP3    H2 2017   0.920   0.446   3.002
  692TIP3   OH2 2018   8.183   4.924   0.087
  692TIP3    H1 2019   8.239   4.909   0.163
  692TIP3    H2 2020   8.095   4.931   0.124
  693TIP3   OH2 2021   1.861   7.385   0.115
  693TIP3    H1 2022   1.826   7.426   0.036
  693TIP3    H2 2023   1.953   7.369   0.095
  694TIP3   OH2 2024   2.486   3.259   1.004
  694TIP3    H1 2025   2.493   3.325   0.935
  694TIP3    H2 2026   2.394   3.259   1.028
  695TIP3   OH2 2027   4.820   0.950   6.409
  695TIP3    H1 2028   4.785   0.862   6.394
  695TIP3    H2 2029   4.895   0.936   6.466
  696TIP3   OH2 2030   4.107   3.525   6.042
  696TIP3    H1 2031   4.185   3.484   6.078
  696TIP3    H2 2032   4.046   3.452   6.028
  697TIP3   OH2 2033   6.285   6.669   3.654
  697TIP3    H1 2034   6.274   6.690   3.561
  697TIP3    H2 2035   6.327   6.583   3.655
  698TIP3   OH2 2036   2.166   2.756   3.740
  698TIP3    H1 2037   2.137   2.832   3.792
  698TIP3    H2 2038   2.240   2.789   3.689
  699TIP3   OH2 2039   6.680   5.586   0.339
  699TIP3    H1 2040   6.735   5.592   0.260
  699TIP3    H2 2041   6.732   5.535   0.401
  700TIP3   OH2 2042   4.266   0.472   2.217
  700TIP3    H1 2043   4.172   0.457   2.228
  700TIP3    H2 2044   4.299   0.393   2.175
  701TIP3   OH2 2045   2.435   4.065   5.089
  701TIP3    H1 2046   2.421   3.971   5.074
  701TIP3    H2 2047   2.353   4.095   5.128
  702TIP3   OH2 2048   6.769   6.191   5.605
  702TIP3    H1 2049   6.814   6.263   5.649
  702TIP3    H2 2050   6.817   6.113   5.633
  703TIP3   OH2 2051   2.247   4.945   6.301
  703TIP3    H1 2052   2.272   4.864   6.257
  703TIP3    H2 2053   2.161   4.927   6.339
  704TIP3   OH2 2054   4.942   1.815   5.174
  704TIP3    H1 2055   5.037   1.827   5.165
  704TIP3    H2 2056   4.913   1.889   5.227
  705TIP3   OH2 2057   1.375   6.831   5.829
  705TIP3    H1 2058   1.336   6.882   5.900
  705TIP3    H2 2059   1.426   6.895   5.779
  706TIP3   OH2 2060   3.679   5.130   0.320
  706TIP3    H1 2061   3.680   5.205   0.379
  706TIP3    H2 2062   3.591   5.128   0.284
  707TIP3   OH2 2063   5.804   3.764   0.665
  707TIP3    H1 2064   5.733   3.828   0.671
  707TIP3    H2 2065   5.854   3.790   0.588
  708TIP3   OH2 2066   3.617   2.869   5.141
  708TIP3    H1 2067   3.708   2.874   5.111
  708TIP3    H2 2068   3.600   2.955   5.179
  709TIP3   OH2 2069   2.327   6.642   4.810
  709TIP3    H1 2070   2.321   6.736   4.792
  709TIP3    H2 2071   2.238   6.616   4.833
  710TIP3   OH2 2072   7.218   2.668   1.815
  710TIP3    H1 2073   7.301   2.668   1.768
  710TIP3    H2 2074   7.228   2.599   1.881
  711TIP3   OH2 2075   6.763   4.488   6.262
  711TIP3    H1 2076   6.803   4.435   6.330
  711TIP3    H2 2077   6.822   4.563   6.252
  712TIP3   OH2 2078   7.298   3.003   6.369
  712TIP3    H1 2079   7.238   3.069   6.403
  712TIP3    H2 2080   7.250   2.920   6.377
  713TIP3   OH2 2081   7.693   0.616   2.798
  713TIP3    H1 2082   7.664   0.528   2.822
  713TIP3    H2 2083   7.789   0.610   2.795
  714TIP3   OH2 2084   0.590   1.477   3.896
  714TIP3    H1 2085   0.679   1.484   3.931
  714TIP3    H2 2086   0.537   1.449   3.970
  715TIP3   OH2 2087   3.485   6.053   1.861
  715TIP3    H1 2088   3.467   5.964   1.829
  715TIP3    H2 2089   3.574   6.072   1.830
  716TIP3   OH2 2090   4.243   2.756   0.454
  716TIP3    H1 2091   4.299   2.705   0.395
  716TIP3    H2 2092   4.241   2.844   0.415
  717TIP3   OH2 2093   2.015   0.460   2.044
  717TIP3    H1 2094   1.932   0.503   2.067
  717TIP3    H2 2095   2.079   0.531   2.039
  718TIP3   OH2 2096   7.669   7.737   5.208
  718TIP3    H1 2097   7.733   7.696   5.149
  718TIP3    H2 2098   7.652   7.671   5.275
  719TIP3   OH2 2099   4.599   7.012   6.302
  719TIP3    H1 2100   4.504   7.024   6.304
  719TIP3    H2 2101   4.614   6.933   6.354
  720TIP3   OH2 2102   3.497   2.140   3.852
  720TIP3    H1 2103   3.423   2.126   3.792
  720TIP3    H2 2104   3.572   2.154   3.795
  721TIP3   OH2 2105   0.408   7.179   1.933
  721TIP3    H1 2106   0.421   7.211   2.022
  721TIP3    H2 2107   0.480   7.218   1.883
  722TIP3   OH2 2108   4.357   0.435   4.673
  722TIP3    H1 2109   4.373   0.525   4.647
  722TIP3    H2 2110   4.415   0.383   4.616
  723TIP3   OH2 2111   2.695   2.704   2.162
  723TIP3    H1 2112   2.776   2.675   2.204
  723TIP3    H2 2113   2.653   2.760   2.227
  724TIP3   OH2 2114   3.047   2.320   5.906
  724TIP3    H1 2115   3.129   2.316   5.956
  724TIP3    H2 2116   3.074   2.325   5.815
  725TIP3   OH2 2117   7.574   4.636   4.083
  725TIP3    H1 2118   7.535   4.590   4.158
  725TIP3    H2 2119   7.527   4.602   4.007
  726TIP3   OH2 2120   4.049   2.765   4.804
  726TIP3    H1 2121   4.106   2.816   4.746
  726TIP3    H2 2122   4.084   2.779   4.891
  727TIP3   OH2 2123   4.319   2.256   2.434
  727TIP3    H1 2124   4.239   2.288   2.392
  727TIP3    H2 2125   4.298   2.251   2.527
  728TIP3   OH2 2126   6.717   6.457   1.568
  728TIP3    H1 2127   6.687   6.377   1.610
  728TIP3    H2 2128   6.775   6.427   1.498
  729TIP3   OH2 2129   2.092   1.608   6.688
  729TIP3    H1 2130   2.071   1.516   6.672
  729TIP3    H2 2131   2.182   1.607   6.720
  730TIP3   OH2 2132   7.791   4.312   5.382
  730TIP3    H1 2133   7.833   4.240   5.335
  730TIP3    H2 2134   7.844   4.324   5.460
  731TIP3   OH2 2135   3.300   3.044   6.058
  731TIP3    H1 2136   3.349   2.962   6.074
  731TIP3    H2 2137   3.208   3.018   6.064
  732TIP3   OH2 2138   6.368   6.273   2.700
  732TIP3    H1 2139   6.397   6.186   2.729
  732TIP3    H2 2140   6.274   6.274   2.720
  733TIP3   OH2 2141   0.590   6.845   5.278
  733TIP3    H1 2142   0.643   6.924   5.272
  733TIP3    H2 2143   0.597   6.805   5.191
  734TIP3   OH2 2144   0.467   1.844   1.181
  734TIP3    H1 2145   0.509   1.910   1.125
  734TIP3    H2 2146   0.500   1.862   1.269
  735TIP3   OH2 2147   3.976   0.609   5.833
  735TIP3    H1 2148   3.975   0.698   5.797
  735TIP3    H2 2149   3.903   0.565   5.791
  736TIP3   OH2 2150   5.537   5.851   5.283
  736TIP3    H1 2151   5.600   5.789   5.320
  736TIP3    H2 2152   5.513   5.813   5.198
  737TIP3   OH2 2153   2.104   5.755   6.154
  737TIP3    H1 2154   2.178   5.695   6.144
  737TIP3    H2 2155   2.143   5.843   6.147
  738TIP3   OH2 2156   8.053   0.417   5.857
  738TIP3    H1 2157   8.096   0.402   5.941
  738TIP3    H2 2158   8.090   0.351   5.798
  739TIP3   OH2 2159   0.594   3.493   0.944
  739TIP3    H1 2160   0.587   3.508   0.850
  739TIP3    H2 2161   0.587   3.580   0.983
  740TIP3   OH2 2162   5.174   6.634   1.560
  740TIP3    H1 2163   5.173   6.609   1.653
  740TIP3    H2 2164   5.246   6.584   1.523
  741TIP3   OH2 2165   0.930   7.078   6.212
  741TIP3    H1 2166   0.905   7.016   6.144
  741TIP3    H2 2167   0.848   7.120   6.239
  742TIP3   OH2 2168   2.734   6.279   5.100
  742TIP3    H1 2169   2.774   6.229   5.171
  742TIP3    H2 2170   2.804   6.289   5.035
  743TIP3   OH2 2171   3.561   6.549   5.478
  743TIP3    H1 2172   3.470   6.568   5.500
  743TIP3    H2 2173   3.611   6.586   5.551
  744TIP3   OH2 2174   5.432   4.618   2.162
  744TIP3    H1 2175   5.500   4.666   2.115
  744TIP3    H2 2176   5.416   4.671   2.240
  745TIP3   OH2 2177   1.381   2.239   6.267
  745TIP3    H1 2178   1.466   2.263   6.305
  745TIP3    H2 2179   1.324   2.227   6.342
  746TIP3   OH2 2180   0.424   6.563   0.186
  746TIP3    H1 2181   0.349   6.519   0.225
  746TIP3    H2 2182   0.500   6.525   0.230
  747TIP3   OH2 2183   1.542   0.800   1.677
  747TIP3    H1 2184   1.546   0.867   1.608
  747TIP3    H2 2185   1.580   0.722   1.637
  748TIP3   OH2 2186   6.134   4.520   0.662
  748TIP3    H1 2187   6.175   4.437   0.637
  748TIP3    H2 2188   6.139   4.574   0.583
  749TIP3   OH2 2189   3.370   7.225   1.406
  749TIP3    H1 2190   3.393   7.187   1.491
  749TIP3    H2 2191   3.448   7.213   1.352
  750TIP3   OH2 2192   3.577   3.990   4.905
  750TIP3    H1 2193   3.551   3.977   4.996
  750TIP3    H2 2194   3.600   3.902   4.874
  751TIP3   OH2 2195   3.456   0.131   0.059
  751TIP3    H1 2196   3.383   0.097   0.110
  751TIP3    H2 2197   3.522   0.154   0.124
  752TIP3   OH2 2198   4.715   1.182   5.547
  752TIP3    H1 2199   4.739   1.183   5.640
  752TIP3    H2 2200   4.679   1.094   5.533
  753TIP3   OH2 2201   6.864   5.025   0.030
  753TIP3    H1 2202   6.868   5.003  -0.063
  753TIP3    H2 2203   6.794   4.970   0.065
  754TIP3   OH2 2204   0.772   7.101   0.842
  754TIP3    H1 2205   0.845   7.078   0.784
  754TIP3    H2 2206   0.694   7.069   0.796
  755TIP3   OH2 2207   8.252   2.335   5.308
  755TIP3    H1 2208   8.211   2.259   5.349
  755TIP3    H2 2209   8.184   2.402   5.309
  756TIP3   OH2 2210   2.352   2.252   2.793
  756TIP3    H1 2211   2.378   2.167   2.828
  756TIP3    H2 2212   2.295   2.289   2.860
  757TIP3   OH2 2213   7.348   3.499   4.055
  757TIP3    H1 2214   7.363   3.411   4.088
  757TIP3    H2 2215   7.254   3.504   4.042
  758TIP3   OH2 2216   4.825   4.051   4.838
  758TIP3    H1 2217   4.906   4.022   4.880
  758TIP3    H2 2218   4.805   4.135   4.879
  759TIP3   OH2 2219   4.640   4.847   5.682
  759TIP3    H1 2220   4.711   4.806   5.632
  759TIP3    H2 2221   4.671   4.936   5.700
  760TIP3   OH2 2222   7.569   3.581   4.267
  760TIP3    H1 2223   7.494   3.638   4.283
  760TIP3    H2 2224   7.551   3.541   4.182
  761TIP3   OH2 2225   5.030   4.084   5.021
  761TIP3    H1 2226   5.099   4.140   5.056
  761TIP3    H2 2227   4.965   4.079   5.091
  762TIP3   OH2 2228   8.128   1.990   0.621
  762TIP3    H1 2229   8.065   1.937   0.572
  762TIP3    H2 2230   8.184   1.926   0.665
  763TIP3   OH2 2231   5.325   4.655   1.763
  763TIP3    H1 2232   5.285   4.738   1.737
  763TIP3    H2 2233   5.307   4.595   1.690
  764TIP3   OH2 2234   7.018   0.328   6.724
  764TIP3    H1 2235   7.101   0.330   6.677
  764TIP3    H2 2236   6.965   0.264   6.676
  765TIP3   OH2 2237   6.534   1.003   2.589
  765TIP3    H1 2238   6.459   0.946   2.608
  765TIP3    H2 2239   6.552   0.990   2.496
  766TIP3   OH2 2240   2.285   5.599   5.478
  766TIP3    H1 2241   2.305   5.533   5.411
  766TIP3    H2 2242   2.356   5.591   5.542
  767TIP3   OH2 2243   4.344   0.222   2.632
  767TIP3    H1 2244   4.368   0.150   2.691
  767TIP3    H2 2245   4.308   0.178   2.555
  768TIP3   OH2 2246   7.084   6.030   2.939
  768TIP3    H1 2247   7.116   6.009   2.851
  768TIP3    H2 2248   7.015   5.966   2.956
  769TIP3   OH2 2249   3.254   3.777   3.749
  769TIP3    H1 2250   3.284   3.868   3.749
  769TIP3    H2 2251   3.169   3.780   3.794
  770TIP3   OH2 2252   3.711   2.971   3.912
  770TIP3    H1 2253   3.623   2.965   3.875
  770TIP3    H2 2254   3.702   2.934   4.000
  771TIP3   OH2 2255   4.770   0.884   1.585
  771TIP3    H1 2256   4.706   0.945   1.622
  771TIP3    H2 2257   4.834   0.940   1.540
  772TIP3   OH2 2258   5.143   2.165   2.026
  772TIP3    H1 2259   5.134   2.103   1.953
  772TIP3    H2 2260   5.206   2.230   1.994
  773TIP3   OH2 2261   1.184   5.089   6.592
  773TIP3    H1 2262   1.217   5.170   6.629
  773TIP3    H2 2263   1.125   5.054   6.659
  774TIP3   OH2 2264   3.359   3.793   0.258
  774TIP3    H1 2265   3.312   3.719   0.220
  774TIP3    H2 2266   3.296   3.833   0.319
  775TIP3   OH2 2267   5.268   7.571   3.908
  775TIP3    H1 2268   5.289   7.544   3.818
  775TIP3    H2 2269   5.350   7.610   3.940
  776TIP3   OH2 2270   6.263   3.400   0.029
  776TIP3    H1 2271   6.270   3.493   0.006
  776TIP3    H2 2272   6.306   3.354  -0.042
  777TIP3   OH2 2273   5.477   0.907   5.347
  777TIP3    H1 2274   5.417   0.897   5.421
  777TIP3    H2 2275   5.420   0.906   5.270
  778TIP3   OH2 2276   0.551   3.512   1.534
  778TIP3    H1 2277   0.515   3.600   1.540
  778TIP3    H2 2278   0.571   3.487   1.624
  779TIP3   OH2 2279   5.267   6.240   0.055
  779TIP3    H1 2280   5.338   6.273   0.000
  779TIP3    H2 2281   5.213   6.187  -0.003
  780TIP3   OH2 2282   0.644   1.690   3.400
  780TIP3    H1 2283   0.591   1.709   3.478
  780TIP3    H2 2284   0.607   1.747   3.332
  781TIP3   OH2 2285   1.349   1.226   1.393
  781TIP3    H1 2286   1.280   1.259   1.336
  781TIP3    H2 2287   1.372   1.141   1.356
  782TIP3   OH2 2288   3.424   7.215   1.950
  782TIP3    H1 2289   3.332   7.219   1.925
  782TIP3    H2 2290   3.468   7.272   1.889
  783TIP3   OH2 2291   7.634   6.347   0.579
  783TIP3    H1 2292   7.657   6.436   0.551
  783TIP3    H2 2293   7.670   6.341   0.668
  784TIP3   OH2 2294   0.440   4.184   0.515
  784TIP3    H1 2295   0.463   4.276   0.502
  784TIP3    H2 2296   0.522   4.136   0.498
  785TIP3   OH2 2297   3.913   5.045   2.826
  785TIP3    H1 2298   3.898   4.953   2.850
  785TIP3    H2 2299   3.918   5.045   2.731
  786TIP3   OH2 2300   4.719   0.226   2.180
  786TIP3    H1 2301   4.666   0.201   2.104
  786TIP3    H2 2302   4.695   0.162   2.248
  787TIP3   OH2 2303   7.197   5.797   2.128
  787TIP3    H1 2304   7.275   5.758   2.168
  787TIP3    H2 2305   7.150   5.724   2.089
  788TIP3   OH2 2306   3.010   4.920   5.700
  788TIP3    H1 2307   2.919   4.893   5.714
  788TIP3    H2 2308   3.062   4.848   5.736
  789TIP3   OH2 2309   0.413   2.114   0.229
  789TIP3    H1 2310   0.498   2.073   0.211
  789TIP3    H2 2311   0.371   2.121   0.144
  790TIP3   OH2 2312   5.594   5.901   1.512
  790TIP3    H1 2313   5.662   5.866   1.455
  790TIP3    H2 2314   5.512   5.867   1.476
  791TIP3   OH2 2315   7.751   6.218   1.613
  791TIP3    H1 2316   7.813   6.179   1.674
  791TIP3    H2 2317   7.806   6.268   1.552
  792TIP3   OH2 2318   0.411   1.509   3.222
  792TIP3    H1 2319   0.455   1.573   3.165
  792TIP3    H2 2320   0.452   1.425   3.200
  793TIP3   OH2 2321   7.184   5.092   6.050
  793TIP3    H1 2322   7.143   5.020   6.098
  793TIP3    H2 2323   7.255   5.120   6.107
  794TIP3   OH2 2324   1.405   2.783   3.733
  794TIP3    H1 2325   1.313   2.759   3.748
  794TIP3    H2 2326   1.451   2.699   3.730
  795TIP3   OH2 2327   7.579   6.766   1.348
  795TIP3    H1 2328   7.493   6.743   1.384
  795TIP3    H2 2329   7.635   6.692   1.368
  796TIP3   OH2 2330   5.233   1.442   3.696
  796TIP3    H1 2331   5.237   1.395   3.779
  796TIP3    H2 2332   5.199   1.528   3.718
  797TIP3   OH2 2333   6.621   6.958   4.405
  797TIP3    H1 2334   6.588   7.026   4.346
  797TIP3    H2 2335   6.666   7.007   4.474
  798TIP3   OH2 2336   1.309   1.093   2.131
  798TIP3    H1 2337   1.384   1.127   2.180
  798TIP3    H2 2338   1.250   1.058   2.198
  799TIP3   OH2 2339   3.932   4.182   5.313
  799TIP3    H1 2340   3.960   4.229   5.392
  799TIP3    H2 2341   4.003   4.195   5.251
  800TIP3   OH2 2342   1.957   5.979   3.174
  800TIP3    H1 2343   1.963   5.896   3.222
  800TIP3    H2 2344   1.960   5.954   3.082
  801TIP3   OH2 2345   3.250   4.567   4.552
  801TIP3    H1 2346   3.314   4.498   4.541
  801TIP3    H2 2347   3.300   4.648   4.546
  802TIP3   OH2 2348   2.337   5.657   3.062
  802TIP3    H1 2349   2.407   5.666   2.996
  802TIP3    H2 2350   2.305   5.746   3.076
  803TIP3   OH2 2351   3.705   7.211   2.912
  803TIP3    H1 2352   3.677   7.156   2.839
  803TIP3    H2 2353   3.686   7.159   2.990
  804TIP3   OH2 2354   4.606   0.108   3.004
  804TIP3    H1 2355   4.605   0.197   2.968
  804TIP3    H2 2356   4.514   0.086   3.015
  805TIP3   OH2 2357   4.850   1.656   1.027
  805TIP3    H1 2358   4.906   1.633   0.954
  805TIP3    H2 2359   4.906   1.711   1.083
  806TIP3   OH2 2360   2.595   4.399   5.115
  806TIP3    H1 2361   2.595   4.494   5.109
  806TIP3    H2 2362   2.676   4.372   5.072
  807TIP3   OH2 2363   6.197   4.144   6.279
  807TIP3    H1 2364   6.186   4.134   6.185
  807TIP3    H2 2365   6.120   4.194   6.308
  808TIP3   OH2 2366   4.893   7.026   3.246
  808TIP3    H1 2367   4.963   6.962   3.239
  808TIP3    H2 2368   4.837   7.010   3.170
  809TIP3   OH2 2369   3.651   1.772   1.522
  809TIP3    H1 2370   3.609   1.722   1.451
  809TIP3    H2 2371   3.729   1.721   1.543
  810TIP3   OH2 2372   7.125   3.663   5.811
  810TIP3    H1 2373   7.185   3.678   5.883
  810TIP3    H2 2374   7.146   3.731   5.747
  811TIP3   OH2 2375   3.979   3.890   2.149
  811TIP3    H1 2376   3.956   3.800   2.174
  811TIP3    H2 2377   4.052   3.913   2.206
  812TIP3   OH2 2378   0.613   0.147   2.474
  812TIP3    H1 2379   0.559   0.114   2.403
  812TIP3    H2 2380   0.584   0.238   2.486
  813TIP3   OH2 2381   3.764   2.347   2.326
  813TIP3    H1 2382   3.687   2.347   2.268
  813TIP3    H2 2383   3.733   2.383   2.408
  814TIP3   OH2 2384   8.302   3.167   5.006
  814TIP3    H1 2385   8.254   3.098   4.961
  814TIP3    H2 2386   8.338   3.124   5.084
  815TIP3   OH2 2387   2.199   6.583   3.205
  815TIP3    H1 2388   2.109   6.610   3.219
  815TIP3    H2 2389   2.247   6.665   3.193
  816TIP3   OH2 2390   0.561   1.353   4.517
  816TIP3    H1 2391   0.642   1.314   4.548
  816TIP3    H2 2392   0.543   1.308   4.434
  817TIP3   OH2 2393   6.270   6.898   0.990
  817TIP3    H1 2394   6.331   6.932   1.056
  817TIP3    H2 2395   6.185   6.897   1.034
  818TIP3   OH2 2396   5.887   2.921   1.791
  818TIP3    H1 2397   5.855   2.941   1.703
  818TIP3    H2 2398   5.902   3.007   1.830
  819TIP3   OH2 2399   3.012   2.372   3.155
  819TIP3    H1 2400   2.984   2.440   3.216
  819TIP3    H2 2401   3.107   2.371   3.162
  820TIP3   OH2 2402   3.952   7.710   3.750
  820TIP3    H1 2403   3.875   7.665   3.715
  820TIP3    H2 2404   4.023   7.685   3.691
  821TIP3   OH2 2405   7.264   3.688   4.977
  821TIP3    H1 2406   7.185   3.742   4.987
  821TIP3    H2 2407   7.310   3.698   5.060
  822TIP3   OH2 2408   0.188   2.237   3.270
  822TIP3    H1 2409   0.263   2.187   3.302
  822TIP3    H2 2410   0.126   2.236   3.343
  823TIP3   OH2 2411   7.089   6.508   2.757
  823TIP3    H1 2412   7.069   6.415   2.761
  823TIP3    H2 2413   7.009   6.548   2.722
  824TIP3   OH2 2414   0.324   6.817   6.637
  824TIP3    H1 2415   0.331   6.796   6.544
  824TIP3    H2 2416   0.369   6.902   6.645
  825TIP3   OH2 2417   5.504   1.305   4.216
  825TIP3    H1 2418   5.541   1.226   4.256
  825TIP3    H2 2419   5.569   1.333   4.152
  826TIP3   OH2 2420   0.786   5.637   2.258
  826TIP3    H1 2421   0.695   5.668   2.265
  826TIP3    H2 2422   0.838   5.717   2.253
  827TIP3   OH2 2423   7.825   5.892   4.167
  827TIP3    H1 2424   7.811   5.971   4.219
  827TIP3    H2 2425   7.819   5.922   4.076
  828TIP3   OH2 2426   4.396   6.370   4.829
  828TIP3    H1 2427   4.442   6.452   4.811
  828TIP3    H2 2428   4.376   6.334   4.742
  829TIP3   OH2 2429   1.689   0.600   5.997
  829TIP3    H1 2430   1.784   0.592   6.008
  829TIP3    H2 2431   1.679   0.646   5.913
  830TIP3   OH2 2432   0.188   1.782   6.585
  830TIP3    H1 2433   0.236   1.844   6.639
  830TIP3    H2 2434   0.251   1.712   6.567
  831TIP3   OH2 2435   2.411   1.190   5.412
  831TIP3    H1 2436   2.402   1.095   5.423
  831TIP3    H2 2437   2.363   1.227   5.487
  832TIP3   OH2 2438   2.827   4.313   4.962
  832TIP3    H1 2439   2.821   4.340   4.870
  832TIP3    H2 2440   2.904   4.357   4.995
  833TIP3   OH2 2441   0.982   1.220   4.473
  833TIP3    H1 2442   1.009   1.300   4.519
  833TIP3    H2 2443   0.907   1.188   4.523
  834TIP3   OH2 2444   4.382   2.576   5.441
  834TIP3    H1 2445   4.338   2.651   5.481
  834TIP3    H2 2446   4.472   2.606   5.427
  835TIP3   OH2 2447   0.237   4.997   1.600
  835TIP3    H1 2448   0.296   4.991   1.525
  835TIP3    H2 2449   0.164   4.939   1.577
  836TIP3   OH2 2450   2.898   7.232   4.742
  836TIP3    H1 2451   2.949   7.214   4.821
  836TIP3    H2 2452   2.858   7.317   4.757
  837TIP3   OH2 2453   3.187   0.299   4.424
  837TIP3    H1 2454   3.274   0.328   4.396
  837TIP3    H2 2455   3.137   0.293   4.342
  838TIP3   OH2 2456   6.616   5.888   1.854
  838TIP3    H1 2457   6.533   5.893   1.806
  838TIP3    H2 2458   6.669   5.827   1.803
  839TIP3   OH2 2459   2.494   7.145   4.562
  839TIP3    H1 2460   2.586   7.148   4.586
  839TIP3    H2 2461   2.453   7.093   4.630
  840TIP3   OH2 2462   4.664   3.253   0.942
  840TIP3    H1 2463   4.686   3.343   0.917
  840TIP3    H2 2464   4.695   3.245   1.032
  841TIP3   OH2 2465   3.062   6.304   6.433
  841TIP3    H1 2466   3.004   6.318   6.508
  841TIP3    H2 2467   3.095   6.392   6.412
  842TIP3   OH2 2468   2.865   0.584   6.774
  842TIP3    H1 2469   2.787   0.577   6.718
  842TIP3    H2 2470   2.935   0.611   6.714
  843TIP3   OH2 2471   6.730   6.476   4.063
  843TIP3    H1 2472   6.765   6.429   4.139
  843TIP3    H2 2473   6.722   6.409   3.996
  844TIP3   OH2 2474   0.564   4.325   4.104
  844TIP3    H1 2475   0.506   4.282   4.041
  844TIP3    H2 2476   0.575   4.414   4.069
  845TIP3   OH2 2477   7.084   5.857   5.454
  845TIP3    H1 2478   7.177   5.861   5.432
  845TIP3    H2 2479   7.082   5.833   5.547
  846TIP3   OH2 2480   0.201   1.434   2.463
  846TIP3    H1 2481   0.279   1.481   2.492
  846TIP3    H2 2482   0.132   1.500   2.466
  847TIP3   OH2 2483   3.187   7.421   2.994
  847TIP3    H1 2484   3.280   7.427   2.970
  847TIP3    H2 2485   3.159   7.512   3.002
  848TIP3   OH2 2486   2.365   7.546   5.579
  848TIP3    H1 2487   2.311   7.563   5.502
  848TIP3    H2 2488   2.355   7.625   5.633
  849TIP3   OH2 2489   3.491   0.908   0.238
  849TIP3    H1 2490   3.427   0.932   0.305
  849TIP3    H2 2491   3.499   0.987   0.184
  850TIP3   OH2 2492   6.770   1.819   2.594
  850TIP3    H1 2493   6.683   1.843   2.565
  850TIP3    H2 2494   6.756   1.762   2.670
  851TIP3   OH2 2495   1.798   4.155   1.763
  851TIP3    H1 2496   1.806   4.248   1.781
  851TIP3    H2 2497   1.888   4.123   1.759
  852TIP3   OH2 2498   6.938   2.735   6.216
  852TIP3    H1 2499   6.849   2.706   6.196
  852TIP3    H2 2500   6.951   2.813   6.162
  853TIP3   OH2 2501   3.187   6.095   6.338
  853TIP3    H1 2502   3.140   6.076   6.256
  853TIP3    H2 2503   3.130   6.158   6.383
  854TIP3   OH2 2504   2.277   2.667   4.390
  854TIP3    H1 2505   2.198   2.721   4.397
  854TIP3    H2 2506   2.344   2.716   4.437
  855TIP3   OH2 2507   5.069   5.703   5.878
  855TIP3    H1 2508   5.014   5.780   5.864
  855TIP3    H2 2509   5.029   5.635   5.825
  856TIP3   OH2 2510   5.642   7.645   4.617
  856TIP3    H1 2511   5.614   7.733   4.643
  856TIP3    H2 2512   5.729   7.635   4.657
  857TIP3   OH2 2513   5.452   2.928   0.983
  857TIP3    H1 2514   5.499   2.859   0.935
  857TIP3    H2 2515   5.449   3.002   0.923
  858TIP3   OH2 2516   5.452   4.021   3.116
  858TIP3    H1 2517   5.439   4.108   3.077
  858TIP3    H2 2518   5.421   4.030   3.206
  859TIP3   OH2 2519   6.854   1.053   2.002
  859TIP3    H1 2520   6.909   0.998   1.945
  859TIP3    H2 2521   6.873   1.022   2.090
  860TIP3   OH2 2522   4.722   7.282   1.151
  860TIP3    H1 2523   4.713   7.261   1.244
  860TIP3    H2 2524   4.717   7.378   1.148
  861TIP3   OH2 2525   4.538   2.194   5.214
  861TIP3    H1 2526   4.497   2.187   5.300
  861TIP3    H2 2527   4.614   2.251   5.228
  862TIP3   OH2 2528   5.414   1.056   4.064
  862TIP3    H1 2529   5.435   1.060   4.157
  862TIP3    H2 2530   5.493   1.021   4.022
  863TIP3   OH2 2531   0.364   3.218   0.123
  863TIP3    H1 2532   0.415   3.298   0.133
  863TIP3    H2 2533   0.273   3.248   0.117
  864TIP3   OH2 2534   7.167   3.942   6.404
  864TIP3    H1 2535   7.129   3.856   6.386
  864TIP3    H2 2536   7.174   3.984   6.319
  865TIP3   OH2 2537   4.970   2.467   4.599
  865TIP3    H1 2538   4.883   2.430   4.587
  865TIP3    H2 2539   5.008   2.470   4.511
  866TIP3   OH2 2540   0.082   2.753   1.368
  866TIP3    H1 2541   0.162   2.742   1.317
  866TIP3    H2 2542   0.027   2.678   1.344
  867TIP3   OH2 2543   7.634   3.758   2.241
  867TIP3    H1 2544   7.666   3.730   2.156
  867TIP3    H2 2545   7.577   3.686   2.271
  868TIP3   OH2 2546   1.461   5.331   3.325
  868TIP3    H1 2547   1.413   5.292   3.398
  868TIP3    H2 2548   1.452   5.267   3.254
  869TIP3   OH2 2549   7.090   5.306   2.549
  869TIP3    H1 2550   7.171   5.357   2.557
  869TIP3    H2 2551   7.070   5.280   2.638
  870TIP3   OH2 2552   8.256   2.196   4.028
  870TIP3    H1 2553   8.320   2.264   4.049
  870TIP3    H2 2554   8.307   2.127   3.985
  871TIP3   OH2 2555   3.654   0.451   4.571
  871TIP3    H1 2556   3.684   0.533   4.533
  871TIP3    H2 2557   3.628   0.473   4.660
  872TIP3   OH2 2558   5.914   4.798   2.180
  872TIP3    H1 2559   5.995   4.815   2.131
  872TIP3    H2 2560   5.850   4.774   2.113
  873TIP3   OH2 2561   4.427   2.225   4.546
  873TIP3    H1 2562   4.424   2.288   4.474
  873TIP3    H2 2563   4.388   2.271   4.620
  874TIP3   OH2 2564   4.996   2.653   2.477
  874TIP3    H1 2565   4.995   2.733   2.530
  874TIP3    H2 2566   4.966   2.584   2.537
  875TIP3   OH2 2567   7.914   7.052   3.624
  875TIP3    H1 2568   8.005   7.045   3.596
  875TIP3    H2 2569   7.865   7.068   3.544
  876TIP3   OH2 2570   3.790   3.184   3.544
  876TIP3    H1 2571   3.833   3.182   3.458
  876TIP3    H2 2572   3.697   3.190   3.525
  877TIP3   OH2 2573   3.150   3.356   4.552
  877TIP3    H1 2574   3.105   3.332   4.634
  877TIP3    H2 2575   3.176   3.447   4.565
  878TIP3   OH2 2576   2.377   5.045   2.764
  878TIP3    H1 2577   2.411   5.115   2.820
  878TIP3    H2 2578   2.444   5.032   2.697
  879TIP3   OH2 2579   3.956   2.061   1.195
  879TIP3    H1 2580   3.955   2.117   1.272
  879TIP3    H2 2581   4.049   2.046   1.177
  880TIP3   OH2 2582   1.954   2.873   1.364
  880TIP3    H1 2583   1.950   2.808   1.435
  880TIP3    H2 2584   1.863   2.901   1.352
  881TIP3   OH2 2585   5.244   1.438   0.815
  881TIP3    H1 2586   5.164   1.480   0.784
  881TIP3    H2 2587   5.294   1.508   0.856
  882TIP3   OH2 2588   1.686   1.673   3.981
  882TIP3    H1 2589   1.629   1.745   4.006
  882TIP3    H2 2590   1.627   1.606   3.946
  883TIP3   OH2 2591   3.689   1.374   6.575
  883TIP3    H1 2592   3.781   1.356   6.560
  883TIP3    H2 2593   3.664   1.313   6.645
  884TIP3   OH2 2594   2.840   3.817   5.068
  884TIP3    H1 2595   2.780   3.831   4.996
  884TIP3    H2 2596   2.927   3.818   5.028
  885TIP3   OH2 2597   0.859   7.158   3.259
  885TIP3    H1 2598   0.803   7.234   3.246
  885TIP3    H2 2599   0.800   7.083   3.247
  886TIP3   OH2 2600   2.140   4.498   0.179
  886TIP3    H1 2601   2.101   4.421   0.220
  886TIP3    H2 2602   2.166   4.468   0.092
  887TIP3   OH2 2603   7.546   7.380   1.188
  887TIP3    H1 2604   7.546   7.385   1.283
  887TIP3    H2 2605   7.464   7.334   1.166
  888TIP3   OH2 2606   6.687   4.392   2.943
  888TIP3    H1 2607   6.755   4.457   2.959
  888TIP3    H2 2608   6.717   4.345   2.866
  889TIP3   OH2 2609   2.189   7.090   1.074
  889TIP3    H1 2610   2.123   7.061   1.012
  889TIP3    H2 2611   2.216   7.176   1.041
  890TIP3   OH2 2612   2.727   2.199   3.747
  890TIP3    H1 2613   2.717   2.294   3.740
  890TIP3    H2 2614   2.707   2.180   3.839
  891TIP3   OH2 2615   7.736   6.910   0.315
  891TIP3    H1 2616   7.792   6.934   0.242
  891TIP3    H2 2617   7.787   6.848   0.366
  892TIP3   OH2 2618   6.810   3.408   3.223
  892TIP3    H1 2619   6.719   3.435   3.237
  892TIP3    H2 2620   6.856   3.489   3.202
  893TIP3   OH2 2621   1.247   1.845   3.845
  893TIP3    H1 2622   1.250   1.868   3.937
  893TIP3    H2 2623   1.269   1.751   3.843
  894TIP3   OH2 2624   0.830   4.998   1.521
  894TIP3    H1 2625   0.789   5.002   1.435
  894TIP3    H2 2626   0.780   4.930   1.568
  895TIP3   OH2 2627   0.028   5.876   0.436
  895TIP3    H1 2628   0.110   5.889   0.484
  895TIP3    H2 2629  -0.021   5.957   0.449
  896TIP3   OH2 2630   5.147   3.300   6.224
  896TIP3    H1 2631   5.135   3.391   6.252
  896TIP3    H2 2632   5.060   3.261   6.233
  897TIP3   OH2 2633   2.934   3.306   4.757
  897TIP3    H1 2634   2.865   3.302   4.690
  897TIP3    H2 2635   2.911   3.237   4.819
  898TIP3   OH2 2636   5.694   1.173   6.518
  898TIP3    H1 2637   5.668   1.243   6.459
  898TIP3    H2 2638   5.620   1.113   6.519
  899TIP3   OH2 2639   3.720   7.376   2.124
  899TIP3    H1 2640   3.646   7.432   2.146
  899TIP3    H2 2641   3.782   7.435   2.081
  900TIP3   OH2 2642   4.787   0.753   5.554
  900TIP3    H1 2643   4.697   0.721   5.547
  900TIP3    H2 2644   4.804   0.793   5.468
  901TIP3   OH2 2645   3.239   3.179   2.428
  901TIP3    H1 2646   3.327   3.217   2.433
  901TIP3    H2 2647   3.221   3.146   2.516
  902TIP3   OH2 2648   6.884   3.121   3.284
  902TIP3    H1 2649   6.965   3.103   3.331
  902TIP3    H2 2650   6.886   3.215   3.267
  903TIP3   OH2 2651   6.388   4.214   0.720
  903TIP3    H1 2652   6.472   4.244   0.683
  903TIP3    H2 2653   6.407   4.198   0.812
  904TIP3   OH2 2654   0.140   0.750   3.472
  904TIP3    H1 2655   0.084   0.716   3.402
  904TIP3    H2 2656   0.229   0.740   3.439
  905TIP3   OH2 2657   2.207   5.552   5.185
  905TIP3    H1 2658   2.205   5.529   5.092
  905TIP3    H2 2659   2.299   5.543   5.210
  906TIP3   OH2 2660   4.468   2.992   5.482
  906TIP3    H1 2661   4.528   3.020   5.552
  906TIP3    H2 2662   4.392   2.959   5.529
  907TIP3   OH2 2663   4.452   3.595   5.356
  907TIP3    H1 2664   4.487   3.538   5.288
  907TIP3    H2 2665   4.530   3.633   5.397
  908TIP3   OH2 2666   0.162   2.583   0.958
  908TIP3    H1 2667   0.200   2.571   0.871
  908TIP3    H2 2668   0.118   2.499   0.976
  909TIP3   OH2 2669   6.275   2.538   1.359
  909TIP3    H1 2670   6.205   2.567   1.301
  909TIP3    H2 2671   6.349   2.595   1.339
  910TIP3   OH2 2672   1.556   1.723   1.962
  910TIP3    H1 2673   1.525   1.813   1.965
  910TIP3    H2 2674   1.555   1.701   1.869
  911TIP3   OH2 2675   5.733   1.016   5.137
  911TIP3    H1 2676   5.769   1.054   5.217
  911TIP3    H2 2677   5.643   0.993   5.160
  912TIP3   OH2 2678   2.037   1.415   3.008
  912TIP3    H1 2679   1.998   1.419   2.921
  912TIP3    H2 2680   1.973   1.369   3.061
  913TIP3   OH2 2681   3.630   6.703   6.591
  913TIP3    H1 2682   3.582   6.665   6.517
  913TIP3    H2 2683   3.600   6.793   6.595
  914TIP3   OH2 2684   7.177   1.674   3.024
  914TIP3    H1 2685   7.126   1.742   2.981
  914TIP3    H2 2686   7.251   1.720   3.064
  915TIP3   OH2 2687   7.430   5.158   6.204
  915TIP3    H1 2688   7.462   5.194   6.287
  915TIP3    H2 2689   7.491   5.192   6.138
  916TIP3   OH2 2690   5.878   5.399   4.089
  916TIP3    H1 2691   5.916   5.471   4.039
  916TIP3    H2 2692   5.790   5.428   4.112
  917TIP3   OH2 2693   4.874   3.213   2.712
  917TIP3    H1 2694   4.860   3.245   2.623
  917TIP3    H2 2695   4.969   3.208   2.722
  918TIP3   OH2 2696   1.290   4.686   2.716
  918TIP3    H1 2697   1.353   4.757   2.728
  918TIP3    H2 2698   1.319   4.641   2.636
  919TIP3   OH2 2699   3.664   2.877   6.336
  919TIP3    H1 2700   3.601   2.837   6.396
  919TIP3    H2 2701   3.648   2.834   6.252
  920TIP3   OH2 2702   3.928   3.353   4.622
  920TIP3    H1 2703   3.856   3.386   4.568
  920TIP3    H2 2704   4.004   3.405   4.595
  921TIP3   OH2 2705   1.441   1.807   6.655
  921TIP3    H1 2706   1.368   1.779   6.711
  921TIP3    H2 2707   1.496   1.729   6.646
  922TIP3   OH2 2708   2.023   2.485   0.712
  922TIP3    H1 2709   2.064   2.511   0.630
  922TIP3    H2 2710   2.069   2.535   0.779
  923TIP3   OH2 2711   7.095   2.102   4.401
  923TIP3    H1 2712   7.142   2.029   4.441
  923TIP3    H2 2713   7.045   2.141   4.473
  924TIP3   OH2 2714   6.433   7.534   2.689
  924TIP3    H1 2715   6.465   7.472   2.624
  924TIP3    H2 2716   6.444   7.620   2.648
  925TIP3   OH2 2717   4.612   6.094   5.811
  925TIP3    H1 2718   4.622   6.046   5.893
  925TIP3    H2 2719   4.523   6.128   5.813
  926TIP3   OH2 2720   0.780   7.502   6.588
  926TIP3    H1 2721   0.874   7.490   6.604
  926TIP3    H2 2722   0.773   7.590   6.552
  927TIP3   OH2 2723   5.702   2.520   4.475
  927TIP3    H1 2724   5.663   2.582   4.413
  927TIP3    H2 2725   5.791   2.553   4.488
  928TIP3   OH2 2726   7.538   6.176   3.953
  928TIP3    H1 2727   7.455   6.218   3.928
  928TIP3    H2 2728   7.512   6.103   4.010
  929TIP3   OH2 2729   2.826   4.114   2.108
  929TIP3    H1 2730   2.737   4.144   2.094
  929TIP3    H2 2731   2.880   4.192   2.100
  930TIP3   OH2 2732   0.213   6.272   5.787
  930TIP3    H1 2733   0.305   6.256   5.809
  930TIP3    H2 2734   0.213   6.288   5.693
  931TIP3   OH2 2735   0.934   0.286   3.320
  931TIP3    H1 2736   0.992   0.210   3.316
  931TIP3    H2 2737   0.908   0.293   3.412
  932TIP3   OH2 2738   2.493   5.769   5.824
  932TIP3    H1 2739   2.520   5.750   5.734
  932TIP3    H2 2740   2.429   5.702   5.844
  933TIP3   OH2 2741   3.428   2.384   2.693
  933TIP3    H1 2742   3.452   2.433   2.771
  933TIP3    H2 2743   3.504   2.328   2.676
  934TIP3   OH2 2744   3.477   0.351   4.384
  934TIP3    H1 2745   3.536   0.342   4.459
  934TIP3    H2 2746   3.524   0.407   4.322
  935TIP3   OH2 2747   1.939   0.088   5.121
  935TIP3    H1 2748   2.001   0.026   5.160
  935TIP3    H2 2749   1.860   0.036   5.105
  936TIP3   OH2 2750   5.500   0.789   4.124
  936TIP3    H1 2751   5.532   0.841   4.050
  936TIP3    H2 2752   5.512   0.698   4.097
  937TIP3   OH2 2753   3.969   2.970   2.433
  937TIP3    H1 2754   4.000   2.984   2.523
  937TIP3    H2 2755   4.028   3.022   2.379
  938TIP3   OH2 2756   4.044   1.075   3.526
  938TIP3    H1 2757   4.123   1.030   3.555
  938TIP3    H2 2758   3.996   1.010   3.476
  939TIP3   OH2 2759   5.780   3.560   2.758
  939TIP3    H1 2760   5.788   3.655   2.753
  939TIP3    H2 2761   5.863   3.531   2.797
  940TIP3   OH2 2762   4.677   6.825   2.885
  940TIP3    H1 2763   4.721   6.834   2.800
  940TIP3    H2 2764   4.712   6.744   2.922
  941TIP3   OH2 2765   0.947   7.589   6.033
  941TIP3    H1 2766   0.901   7.577   5.950
  941TIP3    H2 2767   1.039   7.599   6.009
  942TIP3   OH2 2768   0.349   3.981   2.588
  942TIP3    H1 2769   0.272   4.005   2.537
  942TIP3    H2 2770   0.319   3.908   2.643
  943TIP3   OH2 2771   1.982   5.004   6.191
  943TIP3    H1 2772   1.991   4.937   6.259
  943TIP3    H2 2773   1.894   4.990   6.156
  944TIP3   OH2 2774   1.993   0.905   4.222
  944TIP3    H1 2775   1.909   0.879   4.260
  944TIP3    H2 2776   2.020   0.829   4.171
  945TIP3   OH2 2777   6.560   0.792   0.501
  945TIP3    H1 2778   6.581   0.761   0.413
  945TIP3    H2 2779   6.548   0.712   0.552
  946TIP3   OH2 2780   6.805   1.283   2.567
  946TIP3    H1 2781   6.774   1.200   2.604
  946TIP3    H2 2782   6.895   1.291   2.600
  947TIP3   OH2 2783   7.126   3.538   6.145
  947TIP3    H1 2784   7.164   3.471   6.088
  947TIP3    H2 2785   7.166   3.620   6.116
  948TIP3   OH2 2786   1.148   6.988   3.986
  948TIP3    H1 2787   1.125   6.945   3.903
  948TIP3    H2 2788   1.221   6.937   4.020
  949TIP3   OH2 2789   4.261   4.073   4.972
  949TIP3    H1 2790   4.277   4.000   5.032
  949TIP3    H2 2791   4.287   4.040   4.886
  950TIP3   OH2 2792   2.893   5.064   3.333
  950TIP3    H1 2793   2.827   4.994   3.328
  950TIP3    H2 2794   2.907   5.076   3.427
  951TIP3   OH2 2795   0.685   0.450   5.377
  951TIP3    H1 2796   0.720   0.420   5.293
  951TIP3    H2 2797   0.763   0.477   5.426
  952TIP3   OH2 2798   4.963   6.902   2.400
  952TIP3    H1 2799   5.048   6.892   2.357
  952TIP3    H2 2800   4.900   6.893   2.328
  953TIP3   OH2 2801   6.302   6.913   0.071
  953TIP3    H1 2802   6.366   6.850   0.106
  953TIP3    H2 2803   6.322   6.918  -0.023
  954TIP3   OH2 2804   1.916   5.243   5.980
  954TIP3    H1 2805   1.863   5.193   6.043
  954TIP3    H2 2806   1.901   5.335   6.004
  955TIP3   OH2 2807   1.499   1.401   4.709
  955TIP3    H1 2808   1.565   1.345   4.670
  955TIP3    H2 2809   1.523   1.407   4.802
  956TIP3   OH2 2810   8.222   1.079   6.101
  956TIP3    H1 2811   8.170   0.999   6.107
  956TIP3    H2 2812   8.214   1.106   6.009
  957TIP3   OH2 2813   0.641   0.801   0.374
  957TIP3    H1 2814   0.572   0.832   0.432
  957TIP3    H2 2815   0.610   0.716   0.342
  958TIP3   OH2 2816   2.484   6.527   4.119
  958TIP3    H1 2817   2.441   6.520   4.205
  958TIP3    H2 2818   2.575   6.549   4.140
  959TIP3   OH2 2819   7.191   7.073   5.818
  959TIP3    H1 2820   7.099   7.080   5.793
  959TIP3    H2 2821   7.196   6.993   5.869
  960TIP3   OH2 2822   0.806   2.180   4.673
  960TIP3    H1 2823   0.872   2.115   4.696
  960TIP3    H2 2824   0.726   2.129   4.659
  961TIP3   OH2 2825   4.606   7.432   5.541
  961TIP3    H1 2826   4.607   7.363   5.608
  961TIP3    H2 2827   4.524   7.479   5.557
  962TIP3   OH2 2828   2.107   6.605   3.794
  962TIP3    H1 2829   2.110   6.615   3.699
  962TIP3    H2 2830   2.128   6.692   3.829
  963TIP3   OH2 2831   6.669   2.883   5.215
  963TIP3    H1 2832   6.674   2.977   5.232
  963TIP3    H2 2833   6.760   2.856   5.203
  964TIP3   OH2 2834   6.125   3.355   5.235
  964TIP3    H1 2835   6.109   3.428   5.295
  964TIP3    H2 2836   6.211   3.322   5.259
  965TIP3   OH2 2837   8.281   2.510   0.606
  965TIP3    H1 2838   8.221   2.467   0.544
  965TIP3    H2 2839   8.281   2.452   0.683
  966TIP3   OH2 2840   8.093   5.330   4.633
  966TIP3    H1 2841   8.093   5.375   4.548
  966TIP3    H2 2842   8.172   5.363   4.677
  967TIP3   OH2 2843   2.779   4.590   0.694
  967TIP3    H1 2844   2.861   4.636   0.676
  967TIP3    H2 2845   2.732   4.647   0.755
  968TIP3   OH2 2846   4.034   1.268   3.286
  968TIP3    H1 2847   3.967   1.226   3.339
  968TIP3    H2 2848   4.116   1.243   3.327
  969TIP3   OH2 2849   6.366   4.022   5.054
  969TIP3    H1 2850   6.413   4.018   4.970
  969TIP3    H2 2851   6.423   4.074   5.111
  970TIP3   OH2 2852   5.287   0.086   5.747
  970TIP3    H1 2853   5.312   0.093   5.654
  970TIP3    H2 2854   5.323   0.166   5.786
  971TIP3   OH2 2855   5.095   6.893   1.638
  971TIP3    H1 2856   5.158   6.941   1.691
  971TIP3    H2 2857   5.125   6.802   1.641
  972TIP3   OH2 2858   2.800   6.625   3.331
  972TIP3    H1 2859   2.856   6.687   3.377
  972TIP3    H2 2860   2.711   6.657   3.347
  973TIP3   OH2 2861   5.347   1.117   0.144
  973TIP3    H1 2862   5.402   1.048   0.180
  973TIP3    H2 2863   5.287   1.071   0.084
  974TIP3   OH2 2864   1.186   1.772   1.920
  974TIP3    H1 2865   1.225   1.705   1.865
  974TIP3    H2 2866   1.092   1.755   1.917
  975TIP3   OH2 2867   0.098   1.403   0.679
  975TIP3    H1 2868   0.170   1.393   0.741
  975TIP3    H2 2869   0.122   1.478   0.626
  976TIP3   OH2 2870   5.750   2.711   4.038
  976TIP3    H1 2871   5.764   2.647   3.968
  976TIP3    H2 2872   5.836   2.722   4.078
  977TIP3   OH2 2873   2.620   2.529   4.503
  977TIP3    H1 2874   2.525   2.513   4.506
  977TIP3    H2 2875   2.633   2.603   4.562
  978TIP3   OH2 2876   3.071   5.388   1.831
  978TIP3    H1 2877   3.029   5.415   1.749
  978TIP3    H2 2878   3.146   5.336   1.803
  979TIP3   OH2 2879   2.965   5.153   0.437
  979TIP3    H1 2880   3.059   5.162   0.450
  979TIP3    H2 2881   2.944   5.065   0.470
  980TIP3   OH2 2882   3.263   2.162  -0.001
  980TIP3    H1 2883   3.321   2.131   0.069
  980TIP3    H2 2884   3.284   2.255  -0.010
  981TIP3   OH2 2885   1.189   0.317   4.572
  981TIP3    H1 2886   1.208   0.410   4.560
  981TIP3    H2 2887   1.249   0.273   4.511
  982TIP3   OH2 2888   6.368   2.164   3.569
  982TIP3    H1 2889   6.307   2.162   3.495
  982TIP3    H2 2890   6.436   2.100   3.546
  983TIP3   OH2 2891   5.084   5.013   3.585
  983TIP3    H1 2892   5.046   5.014   3.497
  983TIP3    H2 2893   5.161   5.069   3.580
  984TIP3   OH2 2894   7.336   4.594   5.910
  984TIP3    H1 2895   7.400   4.535   5.870
  984TIP3    H2 2896   7.343   4.675   5.859
  985TIP3   OH2 2897   2.473   4.329   0.158
  985TIP3    H1 2898   2.433   4.262   0.213
  985TIP3    H2 2899   2.414   4.337   0.083
  986TIP3   OH2 2900   3.097   2.594   0.787
  986TIP3    H1 2901   3.066   2.562   0.871
  986TIP3    H2 2902   3.187   2.621   0.803
  987TIP3   OH2 2903   6.725   6.253   4.918
  987TIP3    H1 2904   6.663   6.217   4.982
  987TIP3    H2 2905   6.705   6.347   4.914
  988TIP3   OH2 2906   1.059   2.393   3.315
  988TIP3    H1 2907   1.043   2.372   3.408
  988TIP3    H2 2908   1.081   2.308   3.276
  989TIP3   OH2 2909   0.457   1.266   2.654
  989TIP3    H1 2910   0.432   1.333   2.591
  989TIP3    H2 2911   0.441   1.306   2.740
  990TIP3   OH2 2912   5.443   6.125   0.276
  990TIP3    H1 2913   5.444   6.203   0.331
  990TIP3    H2 2914   5.380   6.144   0.207
  991TIP3   OH2 2915   6.174   0.526   4.000
  991TIP3    H1 2916   6.190   0.530   3.906
  991TIP3    H2 2917   6.078   0.530   4.008
  992TIP3   OH2 2918   8.041   4.266   3.482
  992TIP3    H1 2919   8.038   4.216   3.401
  992TIP3    H2 2920   8.119   4.234   3.528
  993TIP3   OH2 2921   0.603   4.867   3.371
  993TIP3    H1 2922   0.517   4.864   3.413
  993TIP3    H2 2923   0.656   4.802   3.417
  994TIP3   OH2 2924   7.612   4.756   5.947
  994TIP3    H1 2925   7.531   4.749   5.897
  994TIP3    H2 2926   7.591   4.816   6.019
  995TIP3   OH2 2927   3.115   6.946   2.714
  995TIP3    H1 2928   3.070   6.884   2.657
  995TIP3    H2 2929   3.069   6.938   2.798
  996TIP3   OH2 2930   1.811   3.205   5.416
  996TIP3    H1 2931   1.788   3.113   5.430
  996TIP3    H2 2932   1.752   3.235   5.347
  997TIP3   OH2 2933   8.143   5.245   2.315
  997TIP3    H1 2934   8.099   5.232   2.399
  997TIP3    H2 2935   8.138   5.160   2.272
  998TIP3   OH2 2936   7.859   5.913   2.632
  998TIP3    H1 2937   7.854   6.007   2.618
  998TIP3    H2 2938   7.792   5.895   2.698
  999TIP3   OH2 2939   5.972   3.554   5.045
  999TIP3    H1 2940   5.973   3.511   5.131
  999TIP3    H2 2941   5.881   3.546   5.016
 1000TIP3   OH2 2942   8.152   4.177   4.769
 1000TIP3    H1 2943   8.222   4.232   4.734
 1000TIP3    H2 2944   8.193   4.090   4.780
 1001TIP3   OH2 2945   7.495   0.821   4.517
 1001TIP3    H1 2946   7.476   0.755   4.450
 1001TIP3    H2 2947   7.432   0.803   4.587
 1002TIP3   OH2 2948   3.490   1.743   5.491
 1002TIP3    H1 2949   3.566   1.687   5.475
 1002TIP3    H2 2950   3.464   1.774   5.404
 1003TIP3   OH2 2951   7.190   5.751   5.726
 1003TIP3    H1 2952   7.266   5.701   5.698
 1003TIP3    H2 2953   7.129   5.685   5.761
 1004TIP3   OH2 2954   2.804   6.037   2.859
 1004TIP3    H1 2955   2.833   5.985   2.933
 1004TIP3    H2 2956   2.880   6.089   2.834
 1005TIP3   OH2 2957   2.103   2.298   6.528
 1005TIP3    H1 2958   2.061   2.377   6.562
 1005TIP3    H2 2959   2.057   2.226   6.573
 1006TIP3   OH2 2960   1.610   1.485   1.314
 1006TIP3    H1 2961   1.618   1.547   1.387
 1006TIP3    H2 2962   1.517   1.480   1.296
 1007TIP3   OH2 2963   6.270   7.273   1.758
 1007TIP3    H1 2964   6.281   7.320   1.841
 1007TIP3    H2 2965   6.186   7.229   1.766
 1008TIP3   OH2 2966   7.527   2.831   3.311
 1008TIP3    H1 2967   7.534   2.741   3.281
 1008TIP3    H2 2968   7.545   2.884   3.233
 1009TIP3   OH2 2969   0.210   1.669   0.207
 1009TIP3    H1 2970   0.228   1.704   0.120
 1009TIP3    H2 2971   0.115   1.656   0.208
 1010TIP3   OH2 2972   6.720   6.321   4.293
 1010TIP3    H1 2973   6.712   6.391   4.357
 1010TIP3    H2 2974   6.663   6.251   4.325
 1011TIP3   OH2 2975   2.807   7.483   5.120
 1011TIP3    H1 2976   2.716   7.504   5.142
 1011TIP3    H2 2977   2.801   7.445   5.032
 1012TIP3   OH2 2978   2.695   0.731   2.505
 1012TIP3    H1 2979   2.620   0.783   2.478
 1012TIP3    H2 2980   2.670   0.694   2.590
 1013TIP3   OH2 2981   3.373   3.102   6.488
 1013TIP3    H1 2982   3.463   3.104   6.456
 1013TIP3    H2 2983   3.327   3.169   6.438
 1014TIP3   OH2 2984   5.456   6.073   3.363
 1014TIP3    H1 2985   5.385   6.119   3.408
 1014TIP3    H2 2986   5.534   6.123   3.385
 1015TIP3   OH2 2987   3.972   0.031   6.169
 1015TIP3    H1 2988   4.062   0.015   6.195
 1015TIP3    H2 2989   3.964  -0.006   6.081
 1016TIP3   OH2 2990   3.440   5.499   2.779
 1016TIP3    H1 2991   3.449   5.405   2.764
 1016TIP3    H2 2992   3.452   5.539   2.693
 1017TIP3   OH2 2993   2.999   5.605   2.004
 1017TIP3    H1 2994   3.056   5.673   1.967
 1017TIP3    H2 2995   3.018   5.527   1.952
 1018TIP3   OH2 2996   3.627   7.418   0.880
 1018TIP3    H1 2997   3.678   7.378   0.809
 1018TIP3    H2 2998   3.581   7.345   0.921
 1019TIP3   OH2 2999   5.071   1.686   1.381
 1019TIP3    H1 3000   5.097   1.600   1.348
 1019TIP3    H2 3001   5.053   1.737   1.303
 1020TIP3   OH2 3002   3.012   0.270   0.194
 1020TIP3    H1 3003   3.097   0.307   0.168
 1020TIP3    H2 3004   2.975   0.236   0.112
 1021TIP3   OH2 3005   6.602   1.189   2.807
 1021TIP3    H1 3006   6.541   1.147   2.867
 1021TIP3    H2 3007   6.575   1.160   2.720
 1022TIP3   OH2 3008   4.596   0.375   2.960
 1022TIP3    H1 3009   4.513   0.422   2.965
 1022TIP3    H2 3010   4.640   0.394   3.043
 1023TIP3   OH2 3011   0.815   6.446   6.068
 1023TIP3    H1 3012   0.890   6.396   6.035
 1023TIP3    H2 3013   0.853   6.528   6.099
 1024TIP3   OH2 3014   7.480   3.566   2.348
 1024TIP3    H1 3015   7.419   3.564   2.274
 1024TIP3    H2 3016   7.456   3.490   2.401
 1025TIP3   OH2 3017   1.251   2.523   2.700
 1025TIP3    H1 3018   1.215   2.472   2.773
 1025TIP3    H2 3019   1.174   2.559   2.656
 1026TIP3   OH2 3020   2.501   6.077   0.157
 1026TIP3    H1 3021   2.511   6.154   0.213
 1026TIP3    H2 3022   2.553   6.009   0.200
 1027TIP3   OH2 3023   3.339   1.989   4.045
 1027TIP3    H1 3024   3.395   2.014   3.972
 1027TIP3    H2 3025   3.312   2.072   4.084
 1028TIP3   OH2 3026   3.114   0.304   5.072
 1028TIP3    H1 3027   3.048   0.371   5.088
 1028TIP3    H2 3028   3.110   0.247   5.149
 1029TIP3   OH2 3029   6.811   1.075   3.361
 1029TIP3    H1 3030   6.816   1.151   3.303
 1029TIP3    H2 3031   6.735   1.026   3.332
 1030TIP3   OH2 3032   6.272   2.889   3.594
 1030TIP3    H1 3033   6.257   2.943   3.672
 1030TIP3    H2 3034   6.258   2.799   3.624
 1031TIP3   OH2 3035   1.711   7.118   1.742
 1031TIP3    H1 3036   1.678   7.028   1.748
 1031TIP3    H2 3037   1.790   7.119   1.796
 1032TIP3   OH2 3038   1.018   3.120   3.224
 1032TIP3    H1 3039   0.985   3.137   3.135
 1032TIP3    H2 3040   1.047   3.029   3.222
 1033TIP3   OH2 3041   5.210   1.572   2.811
 1033TIP3    H1 3042   5.241   1.560   2.900
 1033TIP3    H2 3043   5.175   1.487   2.785
 1034TIP3   OH2 3044   0.344   0.180   6.555
 1034TIP3    H1 3045   0.260   0.216   6.584
 1034TIP3    H2 3046   0.367   0.116   6.622
 1035TIP3   OH2 3047   5.163   2.341   1.301
 1035TIP3    H1 3048   5.249   2.356   1.264
 1035TIP3    H2 3049   5.144   2.420   1.352
 1036TIP3   OH2 3050   7.688   3.366   3.613
 1036TIP3    H1 3051   7.694   3.303   3.685
 1036TIP3    H2 3052   7.596   3.367   3.589
 1037TIP3   OH2 3053   1.282   7.714   3.075
 1037TIP3    H1 3054   1.230   7.732   2.997
 1037TIP3    H2 3055   1.351   7.780   3.073
 1038TIP3   OH2 3056   4.134   1.895   0.993
 1038TIP3    H1 3057   4.116   1.804   0.973
 1038TIP3    H2 3058   4.055   1.942   0.968
 1039TIP3   OH2 3059   1.479   5.393   5.982
 1039TIP3    H1 3060   1.468   5.483   6.014
 1039TIP3    H2 3061   1.479   5.402   5.887
 1040TIP3   OH2 3062   0.736   3.195   4.622
 1040TIP3    H1 3063   0.830   3.184   4.636
 1040TIP3    H2 3064   0.721   3.163   4.533
 1041TIP3   OH2 3065   0.678   1.446   0.130
 1041TIP3    H1 3066   0.601   1.390   0.141
 1041TIP3    H2 3067   0.744   1.388   0.091
 1042TIP3   OH2 3068   6.975   6.178   3.869
 1042TIP3    H1 3069   6.969   6.201   3.962
 1042TIP3    H2 3070   7.000   6.260   3.826
 1043TIP3   OH2 3071   4.329   2.965   2.110
 1043TIP3    H1 3072   4.359   2.878   2.081
 1043TIP3    H2 3073   4.318   3.014   2.028
 1044TIP3   OH2 3074   2.592   2.389   4.076
 1044TIP3    H1 3075   2.528   2.360   4.011
 1044TIP3    H2 3076   2.565   2.477   4.100
 1045TIP3   OH2 3077   3.217   3.603   4.629
 1045TIP3    H1 3078   3.182   3.691   4.641
 1045TIP3    H2 3079   3.249   3.578   4.716
 1046TIP3   OH2 3080   2.675   3.575   2.905
 1046TIP3    H1 3081   2.762   3.558   2.869
 1046TIP3    H2 3082   2.616   3.559   2.832
 1047TIP3   OH2 3083   4.860   0.589   0.578
 1047TIP3    H1 3084   4.801   0.545   0.517
 1047TIP3    H2 3085   4.948   0.570   0.545
 1048TIP3   OH2 3086   6.489   3.892   2.649
 1048TIP3    H1 3087   6.420   3.887   2.715
 1048TIP3    H2 3088   6.568   3.866   2.696
 1049TIP3   OH2 3089   5.349   4.998   0.704
 1049TIP3    H1 3090   5.309   4.917   0.734
 1049TIP3    H2 3091   5.419   4.971   0.645
 1050TIP3   OH2 3092   4.162   2.831   3.623
 1050TIP3    H1 3093   4.198   2.919   3.630
 1050TIP3    H2 3094   4.092   2.828   3.689
 1051TIP3   OH2 3095   6.401   2.099   0.206
 1051TIP3    H1 3096   6.473   2.096   0.143
 1051TIP3    H2 3097   6.363   2.011   0.203
 1052TIP3   OH2 3098   5.488   4.434   4.990
 1052TIP3    H1 3099   5.564   4.489   4.977
 1052TIP3    H2 3100   5.523   4.345   4.994
 1053TIP3   OH2 3101   0.983   4.029   4.370
 1053TIP3    H1 3102   1.044   3.967   4.411
 1053TIP3    H2 3103   1.025   4.054   4.288
 1054TIP3   OH2 3104   5.324   6.645   2.998
 1054TIP3    H1 3105   5.340   6.729   2.954
 1054TIP3    H2 3106   5.405   6.596   2.988
 1055TIP3   OH2 3107   7.452   1.362   4.375
 1055TIP3    H1 3108   7.407   1.279   4.359
 1055TIP3    H2 3109   7.528   1.338   4.429
 1056TIP3   OH2 3110   5.204   3.846   6.342
 1056TIP3    H1 3111   5.197   3.790   6.420
 1056TIP3    H2 3112   5.297   3.844   6.320
 1057TIP3   OH2 3113   1.678   6.577   6.085
 1057TIP3    H1 3114   1.729   6.559   6.005
 1057TIP3    H2 3115   1.738   6.560   6.157
 1058TIP3   OH2 3116   3.650   2.033   6.594
 1058TIP3    H1 3117   3.567   2.055   6.636
 1058TIP3    H2 3118   3.706   2.003   6.666
 1059TIP3   OH2 3119   5.919   3.536   2.492
 1059TIP3    H1 3120   5.864   3.490   2.556
 1059TIP3    H2 3121   5.915   3.628   2.518
 1060TIP3   OH2 3122   0.124   2.948   5.945
 1060TIP3    H1 3123   0.048   2.893   5.927
 1060TIP3    H2 3124   0.108   2.985   6.031
 1061TIP3   OH2 3125   0.380   3.812   0.218
 1061TIP3    H1 3126   0.409   3.900   0.194
 1061TIP3    H2 3127   0.287   3.822   0.238
 1062TIP3   OH2 3128   2.840   1.877   6.121
 1062TIP3    H1 3129   2.878   1.803   6.167
 1062TIP3    H2 3130   2.746   1.860   6.121
 1063TIP3   OH2 3131   6.563   3.563   0.602
 1063TIP3    H1 3132   6.608   3.618   0.539
 1063TIP3    H2 3133   6.625   3.553   0.675
 1064TIP3   OH2 3134   7.673   3.670   0.669
 1064TIP3    H1 3135   7.718   3.726   0.606
 1064TIP3    H2 3136   7.629   3.604   0.617
 1065TIP3   OH2 3137   5.126   6.985   1.011
 1065TIP3    H1 3138   5.075   7.066   1.010
 1065TIP3    H2 3139   5.062   6.915   0.997
 1066TIP3   OH2 3140   3.641   2.652   1.984
 1066TIP3    H1 3141   3.683   2.708   1.919
 1066TIP3    H2 3142   3.697   2.659   2.061
 1067TIP3   OH2 3143   0.951   0.536   1.661
 1067TIP3    H1 3144   0.985   0.620   1.691
 1067TIP3    H2 3145   0.878   0.517   1.719
 1068TIP3   OH2 3146   7.802   7.273   4.203
 1068TIP3    H1 3147   7.801   7.179   4.182
 1068TIP3    H2 3148   7.711   7.294   4.223
 1069TIP3   OH2 3149   7.350   7.206   3.303
 1069TIP3    H1 3150   7.334   7.168   3.389
 1069TIP3    H2 3151   7.282   7.169   3.247
 1070TIP3   OH2 3152   4.758   1.911   4.095
 1070TIP3    H1 3153   4.703   1.888   4.021
 1070TIP3    H2 3154   4.836   1.856   4.085
 1071TIP3   OH2 3155   7.169   6.041   1.513
 1071TIP3    H1 3156   7.260   6.014   1.503
 1071TIP3    H2 3157   7.154   6.040   1.608
 1072TIP3   OH2 3158   8.024   1.934   3.799
 1072TIP3    H1 3159   8.112   1.945   3.763
 1072TIP3    H2 3160   8.033   1.954   3.892
 1073TIP3   OH2 3161   3.903   2.613   6.487
 1073TIP3    H1 3162   3.849   2.563   6.549
 1073TIP3    H2 3163   3.890   2.568   6.403
 1074TIP3   OH2 3164   3.749   7.545   3.082
 1074TIP3    H1 3165   3.789   7.581   3.162
 1074TIP3    H2 3166   3.665   7.589   3.076
 1075TIP3   OH2 3167   3.893   5.700   2.343
 1075TIP3    H1 3168   3.869   5.683   2.435
 1075TIP3    H2 3169   3.824   5.658   2.292
 1076TIP3   OH2 3170   0.651   6.139   1.286
 1076TIP3    H1 3171   0.724   6.119   1.228
 1076TIP3    H2 3172   0.609   6.054   1.301
 1077TIP3   OH2 3173   4.165   0.776   0.347
 1077TIP3    H1 3174   4.148   0.682   0.340
 1077TIP3    H2 3175   4.186   0.789   0.440
 1078TIP3   OH2 3176   3.684   2.338   3.725
 1078TIP3    H1 3177   3.710   2.374   3.810
 1078TIP3    H2 3178   3.749   2.373   3.663
 1079TIP3   OH2 3179   4.449   6.646   2.919
 1079TIP3    H1 3180   4.515   6.713   2.930
 1079TIP3    H2 3181   4.456   6.619   2.828
 1080TIP3   OH2 3182   0.139   1.320   5.636
 1080TIP3    H1 3183   0.098   1.401   5.605
 1080TIP3    H2 3184   0.116   1.315   5.728
 1081TIP3   OH2 3185   1.510   1.701   3.592
 1081TIP3    H1 3186   1.429   1.742   3.563
 1081TIP3    H2 3187   1.538   1.648   3.517
 1082TIP3   OH2 3188   3.421   0.224   2.237
 1082TIP3    H1 3189   3.403   0.186   2.323
 1082TIP3    H2 3190   3.335   0.237   2.198
 1083TIP3   OH2 3191   2.793   2.700   2.517
 1083TIP3    H1 3192   2.801   2.777   2.462
 1083TIP3    H2 3193   2.764   2.735   2.602
 1084TIP3   OH2 3194   6.092   1.157   2.596
 1084TIP3    H1 3195   6.049   1.073   2.580
 1084TIP3    H2 3196   6.021   1.221   2.598
 1085TIP3   OH2 3197   0.959   4.292   4.886
 1085TIP3    H1 3198   1.046   4.307   4.924
 1085TIP3    H2 3199   0.970   4.215   4.831
 1086TIP3   OH2 3200   4.505   6.881   4.506
 1086TIP3    H1 3201   4.464   6.950   4.557
 1086TIP3    H2 3202   4.447   6.805   4.517
 1087TIP3   OH2 3203   0.953   3.810   6.099
 1087TIP3    H1 3204   0.990   3.746   6.160
 1087TIP3    H2 3205   1.023   3.826   6.035
 1088TIP3   OH2 3206   1.258   7.200   0.530
 1088TIP3    H1 3207   1.311   7.265   0.576
 1088TIP3    H2 3208   1.315   7.123   0.524
 1089TIP3   OH2 3209   5.838   7.021   1.265
 1089TIP3    H1 3210   5.755   7.000   1.307
 1089TIP3    H2 3211   5.851   7.114   1.282
 1090TIP3   OH2 3212   7.602   2.232   6.468
 1090TIP3    H1 3213   7.638   2.309   6.424
 1090TIP3    H2 3214   7.534   2.201   6.409
 1091TIP3   OH2 3215   7.406   0.798   5.087
 1091TIP3    H1 3216   7.395   0.704   5.098
 1091TIP3    H2 3217   7.319   0.835   5.104
 1092TIP3   OH2 3218   0.800   2.796   4.246
 1092TIP3    H1 3219   0.863   2.759   4.309
 1092TIP3    H2 3220   0.845   2.872   4.210
 1093TIP3   OH2 3221   4.753   1.063   2.049
 1093TIP3    H1 3222   4.663   1.069   2.082
 1093TIP3    H2 3223   4.802   1.023   2.121
 1094TIP3   OH2 3224   7.245   7.240   2.208
 1094TIP3    H1 3225   7.328   7.271   2.173
 1094TIP3    H2 3226   7.230   7.296   2.285
 1095TIP3   OH2 3227   1.082   3.959   2.626
 1095TIP3    H1 3228   1.030   3.992   2.700
 1095TIP3    H2 3229   1.124   4.037   2.590
 1096TIP3   OH2 3230   2.393   1.346   4.349
 1096TIP3    H1 3231   2.327   1.281   4.369
 1096TIP3    H2 3232   2.475   1.297   4.343
 1097TIP3   OH2 3233   0.448   6.773   1.669
 1097TIP3    H1 3234   0.487   6.853   1.702
 1097TIP3    H2 3235   0.357   6.776   1.700
 1098TIP3   OH2 3236   0.514   7.775   0.600
 1098TIP3    H1 3237   0.600   7.757   0.637
 1098TIP3    H2 3238   0.523   7.756   0.507
 1099TIP3   OH2 3239   6.001   5.393   0.323
 1099TIP3    H1 3240   6.039   5.313   0.360
 1099TIP3    H2 3241   6.071   5.458   0.331
 1100TIP3   OH2 3242   0.784   4.877   6.217
 1100TIP3    H1 3243   0.847   4.877   6.289
 1100TIP3    H2 3244   0.776   4.969   6.192
 1101TIP3   OH2 3245   3.771   4.823   5.938
 1101TIP3    H1 3246   3.790   4.738   5.897
 1101TIP3    H2 3247   3.689   4.851   5.898
 1102TIP3   OH2 3248   0.213   1.072   6.156
 1102TIP3    H1 3249   0.121   1.085   6.134
 1102TIP3    H2 3250   0.212   1.049   6.249
 1103TIP3   OH2 3251   5.485   3.363   3.156
 1103TIP3    H1 3252   5.531   3.427   3.211
 1103TIP3    H2 3253   5.543   3.350   3.081
 1104TIP3   OH2 3254   6.730   4.166   3.152
 1104TIP3    H1 3255   6.767   4.246   3.113
 1104TIP3    H2 3256   6.664   4.197   3.213
 1105TIP3   OH2 3257   2.752   2.222   3.235
 1105TIP3    H1 3258   2.781   2.286   3.170
 1105TIP3    H2 3259   2.831   2.201   3.285
 1106TIP3   OH2 3260   5.567   6.728   0.854
 1106TIP3    H1 3261   5.593   6.685   0.935
 1106TIP3    H2 3262   5.491   6.781   0.878
 1107TIP3   OH2 3263   6.354   3.609   1.875
 1107TIP3    H1 3264   6.293   3.657   1.821
 1107TIP3    H2 3265   6.412   3.676   1.911
 1108TIP3   OH2 3266   3.068   5.354   2.496
 1108TIP3    H1 3267   3.147   5.302   2.511
 1108TIP3    H2 3268   3.090   5.410   2.422
 1109TIP3   OH2 3269   0.922   6.378   3.585
 1109TIP3    H1 3270   0.961   6.459   3.552
 1109TIP3    H2 3271   0.984   6.346   3.651
 1110TIP3   OH2 3272   5.023   5.288   0.313
 1110TIP3    H1 3273   5.017   5.383   0.321
 1110TIP3    H2 3274   4.965   5.266   0.240
 1111TIP3   OH2 3275   6.673   6.963   1.089
 1111TIP3    H1 3276   6.661   6.984   0.997
 1111TIP3    H2 3277   6.624   6.882   1.103
 1112TIP3   OH2 3278   6.112   1.095   0.023
 1112TIP3    H1 3279   6.047   1.052   0.078
 1112TIP3    H2 3280   6.170   1.024  -0.005
 1113TIP3   OH2 3281   7.362   5.682   1.393
 1113TIP3    H1 3282   7.329   5.750   1.451
 1113TIP3    H2 3283   7.433   5.724   1.344
 1114TIP3   OH2 3284   4.237   3.402   6.284
 1114TIP3    H1 3285   4.274   3.382   6.198
 1114TIP3    H2 3286   4.279   3.341   6.344
 1115TIP3   OH2 3287   3.185   6.509   2.088
 1115TIP3    H1 3288   3.281   6.501   2.083
 1115TIP3    H2 3289   3.171   6.601   2.111
 1116TIP3   OH2 3290   0.683   4.079   4.217
 1116TIP3    H1 3291   0.601   4.126   4.202
 1116TIP3    H2 3292   0.727   4.129   4.286
 1117TIP3   OH2 3293   5.743   0.337   4.876
 1117TIP3    H1 3294   5.729   0.314   4.968
 1117TIP3    H2 3295   5.712   0.260   4.828
 1118TIP3   OH2 3296   6.426   3.646   5.144
 1118TIP3    H1 3297   6.421   3.733   5.105
 1118TIP3    H2 3298   6.379   3.654   5.227
 1119TIP3   OH2 3299   6.796   3.095   2.207
 1119TIP3    H1 3300   6.883   3.076   2.171
 1119TIP3    H2 3301   6.756   3.153   2.141
 1120TIP3   OH2 3302   6.446   7.247   6.689
 1120TIP3    H1 3303   6.360   7.227   6.652
 1120TIP3    H2 3304   6.428   7.307   6.761
 1121TIP3   OH2 3305   4.493   5.057   0.682
 1121TIP3    H1 3306   4.485   4.978   0.735
 1121TIP3    H2 3307   4.470   5.030   0.594
 1122TIP3   OH2 3308   4.465   1.505   2.181
 1122TIP3    H1 3309   4.470   1.440   2.111
 1122TIP3    H2 3310   4.532   1.479   2.243
 1123TIP3   OH2 3311   5.594   3.270   6.612
 1123TIP3    H1 3312   5.671   3.326   6.620
 1123TIP3    H2 3313   5.612   3.196   6.671
 1124TIP3   OH2 3314   3.033   5.975   4.821
 1124TIP3    H1 3315   3.101   6.042   4.829
 1124TIP3    H2 3316   2.971   5.994   4.892
 1125TIP3   OH2 3317   5.860   7.035   6.696
 1125TIP3    H1 3318   5.871   7.126   6.723
 1125TIP3    H2 3319   5.859   7.038   6.601
 1126TIP3   OH2 3320   3.652   5.803   4.968
 1126TIP3    H1 3321   3.629   5.711   4.952
 1126TIP3    H2 3322   3.570   5.851   4.953
 1127TIP3   OH2 3323   8.059   6.109   1.551
 1127TIP3    H1 3324   8.010   6.068   1.622
 1127TIP3    H2 3325   8.142   6.133   1.591
 1128TIP3   OH2 3326   1.609   0.367   2.620
 1128TIP3    H1 3327   1.658   0.294   2.656
 1128TIP3    H2 3328   1.629   0.366   2.526
 1129TIP3   OH2 3329   6.925   6.975   5.215
 1129TIP3    H1 3330   6.877   7.018   5.145
 1129TIP3    H2 3331   6.991   6.922   5.170
 1130TIP3   OH2 3332   4.549   1.386   3.373
 1130TIP3    H1 3333   4.576   1.402   3.283
 1130TIP3    H2 3334   4.614   1.324   3.406
 1131TIP3   OH2 3335   7.041   4.094   5.692
 1131TIP3    H1 3336   6.995   4.131   5.617
 1131TIP3    H2 3337   7.075   4.010   5.660
 1132TIP3   OH2 3338   4.569   6.004   1.111
 1132TIP3    H1 3339   4.644   6.028   1.056
 1132TIP3    H2 3340   4.591   5.918   1.146
 1133TIP3   OH2 3341   0.148   1.381   1.251
 1133TIP3    H1 3342   0.195   1.404   1.331
 1133TIP3    H2 3343   0.191   1.431   1.182
 1134TIP3   OH2 3344   2.377   5.018   5.958
 1134TIP3    H1 3345   2.319   5.075   6.007
 1134TIP3    H2 3346   2.342   4.930   5.973
 1135TIP3   OH2 3347   7.812   2.871   5.377
 1135TIP3    H1 3348   7.874   2.875   5.304
 1135TIP3    H2 3349   7.733   2.831   5.339
 1136TIP3   OH2 3350   7.715   7.412   6.066
 1136TIP3    H1 3351   7.696   7.319   6.079
 1136TIP3    H2 3352   7.645   7.443   6.008
 1137TIP3   OH2 3353   3.060   0.508   1.144
 1137TIP3    H1 3354   3.003   0.490   1.219
 1137TIP3    H2 3355   3.126   0.567   1.179
 1138TIP3   OH2 3356   1.592   3.382   6.690
 1138TIP3    H1 3357   1.651   3.436   6.742
 1138TIP3    H2 3358   1.541   3.333   6.754
 1139TIP3   OH2 3359   3.762   6.092   1.104
 1139TIP3    H1 3360   3.792   6.022   1.045
 1139TIP3    H2 3361   3.804   6.171   1.070
 1140TIP3   OH2 3362   1.176   7.825   2.169
 1140TIP3    H1 3363   1.095   7.824   2.220
 1140TIP3    H2 3364   1.205   7.734   2.167
 1141TIP3   OH2 3365   5.919   4.628   4.685
 1141TIP3    H1 3366   5.908   4.540   4.721
 1141TIP3    H2 3367   5.973   4.616   4.607
 1142TIP3   OH2 3368   7.680   0.758   4.015
 1142TIP3    H1 3369   7.611   0.809   4.058
 1142TIP3    H2 3370   7.639   0.674   3.996
 1143TIP3   OH2 3371   3.796   5.569   0.260
 1143TIP3    H1 3372   3.825   5.595   0.347
 1143TIP3    H2 3373   3.845   5.489   0.240
 1144TIP3   OH2 3374   4.732   2.100   6.334
 1144TIP3    H1 3375   4.782   2.157   6.275
 1144TIP3    H2 3376   4.672   2.052   6.276
 1145TIP3   OH2 3377   3.123   6.233   3.480
 1145TIP3    H1 3378   3.036   6.194   3.469
 1145TIP3    H2 3379   3.113   6.323   3.451
 1146TIP3   OH2 3380   4.952   2.770   4.769
 1146TIP3    H1 3381   4.933   2.698   4.828
 1146TIP3    H2 3382   4.938   2.735   4.681
 1147TIP3   OH2 3383   2.744   2.064   2.232
 1147TIP3    H1 3384   2.773   2.099   2.317
 1147TIP3    H2 3385   2.825   2.057   2.181
 1148TIP3   OH2 3386   5.503   5.564   6.458
 1148TIP3    H1 3387   5.537   5.532   6.375
 1148TIP3    H2 3388   5.578   5.601   6.503
 1149TIP3   OH2 3389   3.787   3.778   5.254
 1149TIP3    H1 3390   3.795   3.731   5.171
 1149TIP3    H2 3391   3.739   3.719   5.311
 1150TIP3   OH2 3392   6.416   0.323   1.654
 1150TIP3    H1 3393   6.355   0.326   1.580
 1150TIP3    H2 3394   6.451   0.234   1.653
 1151TIP3   OH2 3395   5.119   4.616   4.402
 1151TIP3    H1 3396   5.125   4.696   4.453
 1151TIP3    H2 3397   5.207   4.579   4.405
 1152TIP3   OH2 3398   8.007   4.120   6.458
 1152TIP3    H1 3399   8.092   4.097   6.421
 1152TIP3    H2 3400   7.953   4.042   6.442
 1153TIP3   OH2 3401   5.719   4.960   3.692
 1153TIP3    H1 3402   5.757   5.012   3.762
 1153TIP3    H2 3403   5.762   4.991   3.612
 1154TIP3   OH2 3404   1.258   5.354   0.545
 1154TIP3    H1 3405   1.230   5.443   0.523
 1154TIP3    H2 3406   1.238   5.303   0.467
 1155TIP3   OH2 3407   2.182   7.652   0.863
 1155TIP3    H1 3408   2.110   7.599   0.897
 1155TIP3    H2 3409   2.197   7.718   0.931
 1156TIP3   OH2 3410   1.779   4.712   2.642
 1156TIP3    H1 3411   1.782   4.617   2.625
 1156TIP3    H2 3412   1.685   4.732   2.650
 1157TIP3   OH2 3413   7.653   2.560   4.912
 1157TIP3    H1 3414   7.616   2.648   4.899
 1157TIP3    H2 3415   7.742   2.575   4.945
 1158TIP3   OH2 3416   7.972   3.925   1.410
 1158TIP3    H1 3417   7.935   3.843   1.375
 1158TIP3    H2 3418   8.057   3.933   1.367
 1159TIP3   OH2 3419   3.328   2.352   5.879
 1159TIP3    H1 3420   3.296   2.334   5.791
 1159TIP3    H2 3421   3.397   2.287   5.894
 1160TIP3   OH2 3422   5.437   0.677   5.737
 1160TIP3    H1 3423   5.359   0.702   5.688
 1160TIP3    H2 3424   5.510   0.704   5.682
 1161TIP3   OH2 3425   7.279   1.586   4.779
 1161TIP3    H1 3426   7.239   1.517   4.833
 1161TIP3    H2 3427   7.331   1.539   4.714
 1162TIP3   OH2 3428   4.983   6.159   1.840
 1162TIP3    H1 3429   4.969   6.066   1.859
 1162TIP3    H2 3430   4.895   6.196   1.833
 1163TIP3   OH2 3431   4.967   3.248   3.941
 1163TIP3    H1 3432   4.924   3.166   3.915
 1163TIP3    H2 3433   4.924   3.315   3.888
 1164TIP3   OH2 3434   5.524   4.737   0.721
 1164TIP3    H1 3435   5.444   4.741   0.773
 1164TIP3    H2 3436   5.532   4.645   0.697
 1165TIP3   OH2 3437   7.034   7.452   2.977
 1165TIP3    H1 3438   7.126   7.441   2.999
 1165TIP3    H2 3439   7.003   7.364   2.958
 1166TIP3   OH2 3440   5.232   2.932   4.535
 1166TIP3    H1 3441   5.269   2.845   4.546
 1166TIP3    H2 3442   5.213   2.939   4.442
 1167TIP3   OH2 3443   4.593   5.836   5.608
 1167TIP3    H1 3444   4.651   5.763   5.629
 1167TIP3    H2 3445   4.612   5.902   5.675
 1168TIP3   OH2 3446   3.825   3.873   0.753
 1168TIP3    H1 3447   3.794   3.838   0.670
 1168TIP3    H2 3448   3.784   3.818   0.820
 1169TIP3   OH2 3449   6.600   4.853   4.066
 1169TIP3    H1 3450   6.584   4.791   4.138
 1169TIP3    H2 3451   6.518   4.902   4.058
 1170TIP3   OH2 3452   7.963   2.060   1.198
 1170TIP3    H1 3453   7.910   2.098   1.269
 1170TIP3    H2 3454   7.906   2.063   1.121
 1171TIP3   OH2 3455   1.567   2.258   1.530
 1171TIP3    H1 3456   1.620   2.327   1.489
 1171TIP3    H2 3457   1.506   2.306   1.587
 1172TIP3   OH2 3458   2.665   0.505   3.054
 1172TIP3    H1 3459   2.740   0.534   3.104
 1172TIP3    H2 3460   2.624   0.586   3.023
 1173TIP3   OH2 3461   4.735   3.335   3.624
 1173TIP3    H1 3462   4.804   3.380   3.577
 1173TIP3    H2 3463   4.748   3.359   3.716
 1174TIP3   OH2 3464   0.930   0.077   1.020
 1174TIP3    H1 3465   0.975   0.028   0.951
 1174TIP3    H2 3466   0.883   0.010   1.069
 1175TIP3   OH2 3467   5.368   0.737   3.637
 1175TIP3    H1 3468   5.362   0.700   3.549
 1175TIP3    H2 3469   5.282   0.722   3.675
 1176TIP3   OH2 3470   6.170   7.256   2.455
 1176TIP3    H1 3471   6.139   7.187   2.396
 1176TIP3    H2 3472   6.091   7.306   2.477
 1177TIP3   OH2 3473   5.875   5.126   6.546
 1177TIP3    H1 3474   5.793   5.117   6.594
 1177TIP3    H2 3475   5.855   5.098   6.457
 1178TIP3   OH2 3476   2.557   7.805   2.915
 1178TIP3    H1 3477   2.583   7.766   2.831
 1178TIP3    H2 3478   2.596   7.892   2.914
 1179TIP3   OH2 3479   3.660   2.558   4.712
 1179TIP3    H1 3480   3.718   2.618   4.665
 1179TIP3    H2 3481   3.577   2.563   4.666
 1180TIP3   OH2 3482   7.101   6.322   4.704
 1180TIP3    H1 3483   7.019   6.333   4.654
 1180TIP3    H2 3484   7.076   6.269   4.779
 1181TIP3   OH2 3485   8.294   5.523   5.407
 1181TIP3    H1 3486   8.277   5.462   5.334
 1181TIP3    H2 3487   8.208   5.547   5.439
 1182TIP3   OH2 3488   3.618   2.983   2.185
 1182TIP3    H1 3489   3.659   2.921   2.245
 1182TIP3    H2 3490   3.677   3.058   2.183
 1183TIP3   OH2 3491   4.629   2.775   6.292
 1183TIP3    H1 3492   4.683   2.696   6.299
 1183TIP3    H2 3493   4.539   2.742   6.301
 1184TIP3   OH2 3494   3.212   0.479   0.911
 1184TIP3    H1 3495   3.259   0.403   0.947
 1184TIP3    H2 3496   3.166   0.516   0.986
 1185TIP3   OH2 3497   7.904   7.190   2.475
 1185TIP3    H1 3498   7.907   7.112   2.419
 1185TIP3    H2 3499   7.976   7.177   2.538
 1186TIP3   OH2 3500   4.842  -0.041   3.032
 1186TIP3    H1 3501   4.875   0.002   2.953
 1186TIP3    H2 3502   4.756  -0.002   3.046
 1187TIP3   OH2 3503   5.559   1.409   0.637
 1187TIP3    H1 3504   5.493   1.341   0.627
 1187TIP3    H2 3505   5.518   1.487   0.598
 1188TIP3   OH2 3506   4.556   0.313   2.484
 1188TIP3    H1 3507   4.493   0.299   2.555
 1188TIP3    H2 3508   4.585   0.225   2.459
 1189TIP3   OH2 3509   6.963   2.522   1.694
 1189TIP3    H1 3510   6.928   2.477   1.772
 1189TIP3    H2 3511   7.036   2.573   1.727
 1190TIP3   OH2 3512   4.372   6.945   5.230
 1190TIP3    H1 3513   4.443   6.882   5.236
 1190TIP3    H2 3514   4.306   6.913   5.293
 1191TIP3   OH2 3515   1.436   5.087   3.756
 1191TIP3    H1 3516   1.418   5.025   3.685
 1191TIP3    H2 3517   1.365   5.072   3.819
 1192TIP3   OH2 3518   2.910   4.223   6.728
 1192TIP3    H1 3519   2.984   4.176   6.688
 1192TIP3    H2 3520   2.943   4.252   6.813
 1193TIP3   OH2 3521   4.642   0.197   4.233
 1193TIP3    H1 3522   4.595   0.134   4.178
 1193TIP3    H2 3523   4.729   0.160   4.244
 1194TIP3   OH2 3524   2.616   5.767   5.577
 1194TIP3    H1 3525   2.667   5.686   5.576
 1194TIP3    H2 3526   2.676   5.832   5.613
 1195TIP3   OH2 3527   4.679   1.506   4.199
 1195TIP3    H1 3528   4.616   1.454   4.251
 1195TIP3    H2 3529   4.628   1.535   4.124
 1196TIP3   OH2 3530   0.982   1.055   4.737
 1196TIP3    H1 3531   0.910   1.036   4.676
 1196TIP3    H2 3532   0.943   1.043   4.824
 1197TIP3   OH2 3533   0.901   5.671   6.323
 1197TIP3    H1 3534   0.821   5.660   6.271
 1197TIP3    H2 3535   0.907   5.589   6.373
 1198TIP3   OH2 3536   7.511   5.189   1.687
 1198TIP3    H1 3537   7.599   5.222   1.670
 1198TIP3    H2 3538   7.458   5.268   1.697
 1199TIP3   OH2 3539   6.301   3.518   5.605
 1199TIP3    H1 3540   6.301   3.610   5.632
 1199TIP3    H2 3541   6.252   3.473   5.674
 1200TIP3   OH2 3542   6.077   6.895   4.924
 1200TIP3    H1 3543   6.076   6.832   4.996
 1200TIP3    H2 3544   5.984   6.911   4.906
 1201TIP3   OH2 3545   6.002   2.679   2.114
 1201TIP3    H1 3546   6.010   2.698   2.207
 1201TIP3    H2 3547   6.027   2.587   2.105
 1202TIP3   OH2 3548   5.681   1.521   6.680
 1202TIP3    H1 3549   5.670   1.616   6.682
 1202TIP3    H2 3550   5.666   1.494   6.771
 1203TIP3   OH2 3551   3.679   3.763   0.544
 1203TIP3    H1 3552   3.714   3.805   0.466
 1203TIP3    H2 3553   3.717   3.676   0.544
 1204TIP3   OH2 3554   4.503   3.281   0.725
 1204TIP3    H1 3555   4.423   3.231   0.711
 1204TIP3    H2 3556   4.533   3.253   0.812
 1205TIP3   OH2 3557   1.779   0.481   3.837
 1205TIP3    H1 3558   1.736   0.566   3.845
 1205TIP3    H2 3559   1.871   0.497   3.857
 1206TIP3   OH2 3560   0.632   4.666   2.370
 1206TIP3    H1 3561   0.721   4.635   2.387
 1206TIP3    H2 3562   0.578   4.586   2.370
 1207TIP3   OH2 3563   4.258   7.179   4.878
 1207TIP3    H1 3564   4.256   7.246   4.946
 1207TIP3    H2 3565   4.254   7.096   4.925
 1208TIP3   OH2 3566   2.629   6.088   5.321
 1208TIP3    H1 3567   2.660   6.126   5.403
 1208TIP3    H2 3568   2.567   6.152   5.286
 1209TIP3   OH2 3569   8.076   6.775   3.145
 1209TIP3    H1 3570   8.070   6.767   3.240
 1209TIP3    H2 3571   8.029   6.699   3.112
 1210TIP3   OH2 3572   1.593   3.379   0.983
 1210TIP3    H1 3573   1.668   3.323   1.000
 1210TIP3    H2 3574   1.628   3.468   0.981
 1211TIP3   OH2 3575   2.735   4.039   3.696
 1211TIP3    H1 3576   2.726   4.011   3.605
 1211TIP3    H2 3577   2.826   4.068   3.703
 1212TIP3   OH2 3578   1.347   6.039   2.949
 1212TIP3    H1 3579   1.332   5.982   3.024
 1212TIP3    H2 3580   1.347   5.980   2.873
 1213TIP3   OH2 3581   3.665   6.729   2.092
 1213TIP3    H1 3582   3.617   6.754   2.171
 1213TIP3    H2 3583   3.614   6.658   2.053
 1214TIP3   OH2 3584   6.890   4.456   5.532
 1214TIP3    H1 3585   6.979   4.443   5.565
 1214TIP3    H2 3586   6.898   4.531   5.472
 1215TIP3   OH2 3587   1.968   3.370   3.089
 1215TIP3    H1 3588   1.915   3.326   3.022
 1215TIP3    H2 3589   1.964   3.312   3.165
 1216TIP3   OH2 3590   2.670   2.471   1.478
 1216TIP3    H1 3591   2.740   2.492   1.541
 1216TIP3    H2 3592   2.703   2.503   1.394
 1217TIP3   OH2 3593   6.473   0.120   4.621
 1217TIP3    H1 3594   6.502   0.029   4.615
 1217TIP3    H2 3595   6.378   0.114   4.624
 1218TIP3   OH2 3596   4.405   1.390   4.794
 1218TIP3    H1 3597   4.331   1.405   4.735
 1218TIP3    H2 3598   4.461   1.467   4.783
 1219TIP3   OH2 3599   4.166   1.280   6.181
 1219TIP3    H1 3600   4.119   1.196   6.184
 1219TIP3    H2 3601   4.246   1.264   6.232
 1220TIP3   OH2 3602   3.956   7.759   5.933
 1220TIP3    H1 3603   3.890   7.816   5.974
 1220TIP3    H2 3604   3.974   7.802   5.849
 1221TIP3   OH2 3605   0.866   4.108   5.724
 1221TIP3    H1 3606   0.819   4.168   5.782
 1221TIP3    H2 3607   0.822   4.117   5.639
 1222TIP3   OH2 3608   0.602   1.716   5.782
 1222TIP3    H1 3609   0.633   1.675   5.863
 1222TIP3    H2 3610   0.610   1.810   5.798
 1223TIP3   OH2 3611   5.852   5.071   1.358
 1223TIP3    H1 3612   5.919   5.003   1.361
 1223TIP3    H2 3613   5.771   5.023   1.337
 1224TIP3   OH2 3614   1.089   1.227   0.187
 1224TIP3    H1 3615   1.131   1.311   0.169
 1224TIP3    H2 3616   1.008   1.250   0.234
 1225TIP3   OH2 3617   7.689   6.639   3.854
 1225TIP3    H1 3618   7.710   6.699   3.925
 1225TIP3    H2 3619   7.742   6.670   3.780
 1226TIP3   OH2 3620   3.779   5.551   6.006
 1226TIP3    H1 3621   3.856   5.502   5.978
 1226TIP3    H2 3622   3.791   5.638   5.969
 1227TIP3   OH2 3623   6.439   6.395   1.848
 1227TIP3    H1 3624   6.386   6.417   1.924
 1227TIP3    H2 3625   6.530   6.404   1.878
 1228TIP3   OH2 3626   2.425   6.751   6.335
 1228TIP3    H1 3627   2.340   6.709   6.320
 1228TIP3    H2 3628   2.460   6.707   6.413
 1229TIP3   OH2 3629   6.013   1.487   0.884
 1229TIP3    H1 3630   5.925   1.477   0.848
 1229TIP3    H2 3631   6.039   1.399   0.911
 1230TIP3   OH2 3632   7.560   1.473   3.989
 1230TIP3    H1 3633   7.473   1.437   4.004
 1230TIP3    H2 3634   7.619   1.399   4.006
 1231TIP3   OH2 3635   4.841   5.717   1.016
 1231TIP3    H1 3636   4.856   5.644   0.957
 1231TIP3    H2 3637   4.892   5.695   1.095
 1232TIP3   OH2 3638   6.038   5.868   6.361
 1232TIP3    H1 3639   6.047   5.816   6.281
 1232TIP3    H2 3640   6.120   5.916   6.368
 1233TIP3   OH2 3641   0.587   2.582   5.984
 1233TIP3    H1 3642   0.501   2.543   5.997
 1233TIP3    H2 3643   0.571   2.660   5.931
 1234TIP3   OH2 3644   4.582   2.026   6.634
 1234TIP3    H1 3645   4.637   1.953   6.662
 1234TIP3    H2 3646   4.504   1.985   6.596
 1235TIP3   OH2 3647   5.815   1.960   3.358
 1235TIP3    H1 3648   5.876   1.938   3.288
 1235TIP3    H2 3649   5.861   1.936   3.438
 1236TIP3   OH2 3650   3.869   0.640   1.523
 1236TIP3    H1 3651   3.805   0.609   1.588
 1236TIP3    H2 3652   3.820   0.703   1.470
 1237TIP3   OH2 3653   3.453   3.562   3.129
 1237TIP3    H1 3654   3.388   3.617   3.173
 1237TIP3    H2 3655   3.416   3.474   3.133
 1238TIP3   OH2 3656   4.800   5.406   4.951
 1238TIP3    H1 3657   4.853   5.476   4.990
 1238TIP3    H2 3658   4.712   5.444   4.946
 1239TIP3   OH2 3659   1.902   2.178   2.721
 1239TIP3    H1 3660   1.843   2.240   2.677
 1239TIP3    H2 3661   1.863   2.093   2.703
 1240TIP3   OH2 3662   5.164   3.907   1.482
 1240TIP3    H1 3663   5.248   3.940   1.516
 1240TIP3    H2 3664   5.186   3.868   1.397
 1241TIP3   OH2 3665   1.929   0.649   3.381
 1241TIP3    H1 3666   1.903   0.740   3.367
 1241TIP3    H2 3667   1.846   0.601   3.384
 1242TIP3   OH2 3668   0.258   5.418   5.157
 1242TIP3    H1 3669   0.256   5.509   5.186
 1242TIP3    H2 3670   0.309   5.419   5.076
 1243TIP3   OH2 3671   2.956   2.031   3.635
 1243TIP3    H1 3672   3.021   2.005   3.700
 1243TIP3    H2 3673   2.896   2.088   3.683
 1244TIP3   OH2 3674   5.707   3.077   0.153
 1244TIP3    H1 3675   5.780   3.026   0.117
 1244TIP3    H2 3676   5.638   3.069   0.087
 1245TIP3   OH2 3677   5.755   4.759   1.965
 1245TIP3    H1 3678   5.742   4.853   1.954
 1245TIP3    H2 3679   5.685   4.718   1.915
 1246TIP3   OH2 3680   5.661   1.845   0.703
 1246TIP3    H1 3681   5.684   1.932   0.670
 1246TIP3    H2 3682   5.662   1.789   0.626
 1247TIP3   OH2 3683   6.336   5.976   3.911
 1247TIP3    H1 3684   6.253   5.997   3.955
 1247TIP3    H2 3685   6.315   5.900   3.857
 1248TIP3   OH2 3686   3.535   1.747   1.821
 1248TIP3    H1 3687   3.458   1.691   1.811
 1248TIP3    H2 3688   3.556   1.774   1.732
 1249TIP3   OH2 3689   7.727   0.643   4.607
 1249TIP3    H1 3690   7.648   0.675   4.651
 1249TIP3    H2 3691   7.770   0.722   4.574
 1250TIP3   OH2 3692   4.338   7.416   5.934
 1250TIP3    H1 3693   4.260   7.364   5.947
 1250TIP3    H2 3694   4.306   7.502   5.908
 1251TIP3   OH2 3695   6.910   6.022   5.750
 1251TIP3    H1 3696   6.902   5.927   5.766
 1251TIP3    H2 3697   7.004   6.040   5.762
 1252TIP3   OH2 3698   0.600   6.957   2.706
 1252TIP3    H1 3699   0.583   7.051   2.701
 1252TIP3    H2 3700   0.571   6.922   2.622
 1253TIP3   OH2 3701   0.740   2.968   6.315
 1253TIP3    H1 3702   0.731   3.046   6.369
 1253TIP3    H2 3703   0.824   2.980   6.270
 1254TIP3   OH2 3704   5.512   6.281   5.531
 1254TIP3    H1 3705   5.565   6.345   5.577
 1254TIP3    H2 3706   5.551   6.276   5.443
 1255TIP3   OH2 3707   1.738   4.926   2.972
 1255TIP3    H1 3708   1.794   4.893   2.901
 1255TIP3    H2 3709   1.781   4.894   3.052
 1256TIP3   OH2 3710   3.553   2.667   0.231
 1256TIP3    H1 3711   3.528   2.731   0.164
 1256TIP3    H2 3712   3.548   2.715   0.314
 1257TIP3   OH2 3713   4.440   7.438   3.045
 1257TIP3    H1 3714   4.444   7.370   3.112
 1257TIP3    H2 3715   4.515   7.494   3.064
 1258TIP3   OH2 3716   1.155   4.250   0.348
 1258TIP3    H1 3717   1.131   4.210   0.264
 1258TIP3    H2 3718   1.181   4.339   0.326
 1259TIP3   OH2 3719   3.276   0.621   3.954
 1259TIP3    H1 3720   3.218   0.694   3.976
 1259TIP3    H2 3721   3.331   0.610   4.032
 1260TIP3   OH2 3722   1.909   5.681   4.278
 1260TIP3    H1 3723   1.939   5.745   4.343
 1260TIP3    H2 3724   1.863   5.734   4.213
 1261TIP3   OH2 3725   1.667   5.246   6.213
 1261TIP3    H1 3726   1.624   5.163   6.233
 1261TIP3    H2 3727   1.618   5.282   6.139
 1262TIP3   OH2 3728   0.435   6.661   0.868
 1262TIP3    H1 3729   0.440   6.648   0.773
 1262TIP3    H2 3730   0.439   6.572   0.904
 1263TIP3   OH2 3731   1.300   0.833   4.962
 1263TIP3    H1 3732   1.282   0.922   4.992
 1263TIP3    H2 3733   1.232   0.779   5.002
 1264TIP3   OH2 3734   7.342   4.967   1.622
 1264TIP3    H1 3735   7.398   5.044   1.625
 1264TIP3    H2 3736   7.402   4.893   1.619
 1265TIP3   OH2 3737   4.949   2.255   5.813
 1265TIP3    H1 3738   5.018   2.193   5.791
 1265TIP3    H2 3739   4.972   2.286   5.901
 1266TIP3   OH2 3740   8.236   3.253   2.699
 1266TIP3    H1 3741   8.186   3.189   2.750
 1266TIP3    H2 3742   8.207   3.338   2.732
 1267TIP3   OH2 3743   6.911   4.490   4.185
 1267TIP3    H1 3744   6.913   4.586   4.182
 1267TIP3    H2 3745   6.952   4.468   4.269
 1268TIP3   OH2 3746   1.083   4.589   5.612
 1268TIP3    H1 3747   1.048   4.677   5.605
 1268TIP3    H2 3748   1.106   4.579   5.705
 1269TIP3   OH2 3749   2.164   5.212   2.384
 1269TIP3    H1 3750   2.106   5.159   2.329
 1269TIP3    H2 3751   2.239   5.230   2.327
 1270TIP3   OH2 3752   4.089   1.264   3.024
 1270TIP3    H1 3753   4.107   1.173   3.001
 1270TIP3    H2 3754   4.065   1.261   3.116
 1271TIP3   OH2 3755   8.033   1.883   0.230
 1271TIP3    H1 3756   8.033   1.972   0.193
 1271TIP3    H2 3757   7.956   1.842   0.191
 1272TIP3   OH2 3758   5.372   0.971   5.076
 1272TIP3    H1 3759   5.384   0.985   4.982
 1272TIP3    H2 3760   5.375   1.058   5.115
 1273TIP3   OH2 3761   3.933   2.052   2.507
 1273TIP3    H1 3762   3.860   2.038   2.447
 1273TIP3    H2 3763   4.007   2.007   2.466
 1274TIP3   OH2 3764   7.049   6.126   0.047
 1274TIP3    H1 3765   6.987   6.167  -0.013
 1274TIP3    H2 3766   7.035   6.032   0.036
 1275TIP3   OH2 3767   0.222   4.157   1.605
 1275TIP3    H1 3768   0.166   4.092   1.561
 1275TIP3    H2 3769   0.175   4.178   1.685
 1276TIP3   OH2 3770   1.842   2.460   5.965
 1276TIP3    H1 3771   1.847   2.446   6.060
 1276TIP3    H2 3772   1.784   2.390   5.934
 1277TIP3   OH2 3773   2.227   7.007   0.253
 1277TIP3    H1 3774   2.232   6.929   0.198
 1277TIP3    H2 3775   2.158   6.988   0.316
 1278TIP3   OH2 3776   3.602   5.632   1.003
 1278TIP3    H1 3777   3.692   5.605   0.986
 1278TIP3    H2 3778   3.586   5.608   1.094
 1279TIP3   OH2 3779   1.762   4.556   4.044
 1279TIP3    H1 3780   1.734   4.643   4.016
 1279TIP3    H2 3781   1.680   4.509   4.059
 1280TIP3   OH2 3782   7.953   6.234   3.768
 1280TIP3    H1 3783   7.865   6.265   3.747
 1280TIP3    H2 3784   7.968   6.164   3.705
 1281TIP3   OH2 3785   3.050   1.669   2.078
 1281TIP3    H1 3786   2.999   1.589   2.080
 1281TIP3    H2 3787   3.100   1.668   2.159
 1282TIP3   OH2 3788   5.156   4.899   1.745
 1282TIP3    H1 3789   5.065   4.930   1.750
 1282TIP3    H2 3790   5.183   4.890   1.837
 1283TIP3   OH2 3791   5.424   2.016   1.926
 1283TIP3    H1 3792   5.355   1.952   1.944
 1283TIP3    H2 3793   5.476   2.018   2.006
 1284TIP3   OH2 3794   1.340   2.702   1.945
 1284TIP3    H1 3795   1.346   2.612   1.915
 1284TIP3    H2 3796   1.268   2.740   1.894
 1285TIP3   OH2 3797   5.826   6.846   0.868
 1285TIP3    H1 3798   5.758   6.780   0.856
 1285TIP3    H2 3799   5.786   6.928   0.837
 1286TIP3   OH2 3800   8.201   7.755   1.534
 1286TIP3    H1 3801   8.123   7.721   1.579
 1286TIP3    H2 3802   8.270   7.753   1.601
 1287TIP3   OH2 3803   6.268   5.080   2.860
 1287TIP3    H1 3804   6.318   5.112   2.934
 1287TIP3    H2 3805   6.232   4.996   2.889
 1288TIP3   OH2 3806   2.408   4.066   0.342
 1288TIP3    H1 3807   2.317   4.037   0.335
 1288TIP3    H2 3808   2.404   4.144   0.397
 1289TIP3   OH2 3809   3.269   4.427   3.084
 1289TIP3    H1 3810   3.228   4.417   2.999
 1289TIP3    H2 3811   3.201   4.405   3.147
 1290TIP3   OH2 3812   2.558   0.052   4.860
 1290TIP3    H1 3813   2.645   0.091   4.850
 1290TIP3    H2 3814   2.571  -0.020   4.921
 1291TIP3   OH2 3815   7.351   0.454   2.956
 1291TIP3    H1 3816   7.365   0.389   3.025
 1291TIP3    H2 3817   7.405   0.528   2.981
 1292TIP3   OH2 3818   5.239   4.536   0.013
 1292TIP3    H1 3819   5.275   4.551   0.100
 1292TIP3    H2 3820   5.279   4.603  -0.042
 1293TIP3   OH2 3821   5.116   2.353   4.993
 1293TIP3    H1 3822   5.170   2.356   4.914
 1293TIP3    H2 3823   5.064   2.274   4.983
 1294TIP3   OH2 3824   3.608   1.439   1.084
 1294TIP3    H1 3825   3.683   1.499   1.090
 1294TIP3    H2 3826   3.566   1.462   1.001
 1295TIP3   OH2 3827   4.162   4.762   3.829
 1295TIP3    H1 3828   4.239   4.746   3.774
 1295TIP3    H2 3829   4.107   4.684   3.816
 1296TIP3   OH2 3830   0.142   5.574   4.533
 1296TIP3    H1 3831   0.119   5.618   4.451
 1296TIP3    H2 3832   0.200   5.636   4.578
 1297TIP3   OH2 3833   7.064   5.604   1.987
 1297TIP3    H1 3834   7.011   5.538   2.031
 1297TIP3    H2 3835   7.013   5.627   1.909
 1298TIP3   OH2 3836   6.054   5.581   3.937
 1298TIP3    H1 3837   6.095   5.621   4.013
 1298TIP3    H2 3838   6.126   5.539   3.890
 1299TIP3   OH2 3839   2.397   4.696   6.622
 1299TIP3    H1 3840   2.472   4.724   6.570
 1299TIP3    H2 3841   2.387   4.603   6.602
 1300TIP3   OH2 3842   1.060   6.695   0.269
 1300TIP3    H1 3843   1.110   6.775   0.255
 1300TIP3    H2 3844   1.099   6.631   0.209
 1301TIP3   OH2 3845   6.860   1.996   6.607
 1301TIP3    H1 3846   6.800   2.037   6.545
 1301TIP3    H2 3847   6.894   2.069   6.659
 1302TIP3   OH2 3848   0.817   5.681   4.973
 1302TIP3    H1 3849   0.834   5.590   4.998
 1302TIP3    H2 3850   0.861   5.733   5.040
 1303TIP3   OH2 3851   6.409   4.945   4.329
 1303TIP3    H1 3852   6.435   5.028   4.369
 1303TIP3    H2 3853   6.354   4.970   4.255
 1304TIP3   OH2 3854   2.469   0.684   2.923
 1304TIP3    H1 3855   2.396   0.659   2.980
 1304TIP3    H2 3856   2.435   0.756   2.871
 1305TIP3   OH2 3857   3.369   5.543   4.569
 1305TIP3    H1 3858   3.321   5.540   4.486
 1305TIP3    H2 3859   3.449   5.592   4.549
 1306TIP3   OH2 3860   6.467   5.115   5.407
 1306TIP3    H1 3861   6.418   5.121   5.325
 1306TIP3    H2 3862   6.409   5.065   5.465
 1307TIP3   OH2 3863   2.639   3.157   3.548
 1307TIP3    H1 3864   2.611   3.082   3.599
 1307TIP3    H2 3865   2.601   3.142   3.461
 1308TIP3   OH2 3866   7.979   1.074   1.614
 1308TIP3    H1 3867   8.067   1.073   1.651
 1308TIP3    H2 3868   7.941   0.990   1.640
 1309TIP3   OH2 3869   1.898   2.455   2.272
 1309TIP3    H1 3870   1.897   2.437   2.178
 1309TIP3    H2 3871   1.822   2.511   2.286
 1310TIP3   OH2 3872   3.799   4.864   2.541
 1310TIP3    H1 3873   3.737   4.807   2.586
 1310TIP3    H2 3874   3.751   4.898   2.466
 1311TIP3   OH2 3875   7.847   1.610   2.002
 1311TIP3    H1 3876   7.830   1.702   2.022
 1311TIP3    H2 3877   7.782   1.586   1.936
 1312TIP3   OH2 3878   4.579   5.086   1.410
 1312TIP3    H1 3879   4.563   5.179   1.425
 1312TIP3    H2 3880   4.636   5.059   1.481
 1313TIP3   OH2 3881   0.186   1.899   2.949
 1313TIP3    H1 3882   0.096   1.882   2.977
 1313TIP3    H2 3883   0.237   1.892   3.029
 1314TIP3   OH2 3884   0.777   4.997   0.843
 1314TIP3    H1 3885   0.696   4.946   0.845
 1314TIP3    H2 3886   0.816   4.985   0.930
 1315TIP3   OH2 3887   5.207   0.339   0.735
 1315TIP3    H1 3888   5.112   0.341   0.723
 1315TIP3    H2 3889   5.222   0.397   0.810
 1316TIP3   OH2 3890   1.554   5.649   1.272
 1316TIP3    H1 3891   1.500   5.662   1.194
 1316TIP3    H2 3892   1.590   5.736   1.291
 1317TIP3   OH2 3893   8.123   7.316   3.826
 1317TIP3    H1 3894   8.061   7.360   3.884
 1317TIP3    H2 3895   8.206   7.319   3.874
 1318TIP3   OH2 3896   0.770   2.566   4.480
 1318TIP3    H1 3897   0.723   2.486   4.456
 1318TIP3    H2 3898   0.709   2.613   4.538
 1319TIP3   OH2 3899   3.312   7.412   6.183
 1319TIP3    H1 3900   3.381   7.419   6.249
 1319TIP3    H2 3901   3.319   7.322   6.149
 1320TIP3   OH2 3902   2.341   3.543   0.198
 1320TIP3    H1 3903   2.262   3.512   0.243
 1320TIP3    H2 3904   2.334   3.638   0.200
 1321TIP3   OH2 3905   3.706   6.962   2.743
 1321TIP3    H1 3906   3.677   6.879   2.779
 1321TIP3    H2 3907   3.684   6.956   2.649
 1322TIP3   OH2 3908   7.088   4.119   4.845
 1322TIP3    H1 3909   7.029   4.127   4.771
 1322TIP3    H2 3910   7.080   4.203   4.891
 1323TIP3   OH2 3911   1.477   5.958   4.015
 1323TIP3    H1 3912   1.569   5.975   4.033
 1323TIP3    H2 3913   1.471   5.963   3.919
 1324TIP3   OH2 3914   1.845   7.242   0.972
 1324TIP3    H1 3915   1.902   7.175   0.935
 1324TIP3    H2 3916   1.758   7.220   0.941
 1325TIP3   OH2 3917   0.320   0.323   1.575
 1325TIP3    H1 3918   0.233   0.354   1.552
 1325TIP3    H2 3919   0.337   0.252   1.513
 1326TIP3   OH2 3920   6.895   1.242   3.150
 1326TIP3    H1 3921   6.915   1.155   3.116
 1326TIP3    H2 3922   6.978   1.289   3.146
 1327TIP3   OH2 3923   2.224   6.398   5.004
 1327TIP3    H1 3924   2.183   6.465   4.949
 1327TIP3    H2 3925   2.273   6.343   4.943
 1328TIP3   OH2 3926   1.709   7.761   4.830
 1328TIP3    H1 3927   1.738   7.834   4.776
 1328TIP3    H2 3928   1.741   7.683   4.785
 1329TIP3   OH2 3929   4.057   5.259   1.869
 1329TIP3    H1 3930   4.116   5.270   1.944
 1329TIP3    H2 3931   4.001   5.185   1.893
 1330TIP3   OH2 3932   4.819   4.036   6.026
 1330TIP3    H1 3933   4.884   4.016   5.958
 1330TIP3    H2 3934   4.735   4.033   5.980
 1331TIP3   OH2 3935   1.384   5.296   2.837
 1331TIP3    H1 3936   1.470   5.254   2.829
 1331TIP3    H2 3937   1.403   5.390   2.835
 1332TIP3   OH2 3938   1.685   4.420   1.164
 1332TIP3    H1 3939   1.621   4.482   1.130
 1332TIP3    H2 3940   1.762   4.474   1.183
 1333TIP3   OH2 3941   0.096   0.218   1.440
 1333TIP3    H1 3942   0.022   0.190   1.495
 1333TIP3    H2 3943   0.113   0.143   1.383
 1334TIP3   OH2 3944   2.719   1.855   3.785
 1334TIP3    H1 3945   2.812   1.850   3.809
 1334TIP3    H2 3946   2.719   1.865   3.689
 1335TIP3   OH2 3947   5.922   3.694   6.250
 1335TIP3    H1 3948   5.863   3.681   6.324
 1335TIP3    H2 3949   5.989   3.754   6.283
 1336TIP3   OH2 3950   4.577   2.082   4.197
 1336TIP3    H1 3951   4.596   2.170   4.166
 1336TIP3    H2 3952   4.655   2.031   4.173
 1337TIP3   OH2 3953   2.715   7.284   5.448
 1337TIP3    H1 3954   2.621   7.277   5.464
 1337TIP3    H2 3955   2.745   7.350   5.510
 1338TIP3   OH2 3956   4.739   4.834   4.009
 1338TIP3    H1 3957   4.705   4.923   4.019
 1338TIP3    H2 3958   4.829   4.839   4.041
 1339TIP3   OH2 3959   3.662   1.860   5.269
 1339TIP3    H1 3960   3.684   1.811   5.190
 1339TIP3    H2 3961   3.578   1.901   5.249
 1340TIP3   OH2 3962   1.772   5.148   2.036
 1340TIP3    H1 3963   1.681   5.156   2.065
 1340TIP3    H2 3964   1.774   5.189   1.950
 1341TIP3   OH2 3965   5.332   3.257   6.764
 1341TIP3    H1 3966   5.337   3.192   6.693
 1341TIP3    H2 3967   5.422   3.265   6.795
 1342TIP3   OH2 3968   4.362   7.559   5.469
 1342TIP3    H1 3969   4.352   7.629   5.404
 1342TIP3    H2 3970   4.288   7.570   5.528
 1343TIP3   OH2 3971   1.051   7.146   5.591
 1343TIP3    H1 3972   1.010   7.131   5.676
 1343TIP3    H2 3973   1.116   7.076   5.583
 1344TIP3   OH2 3974   1.074   5.849   0.945
 1344TIP3    H1 3975   0.989   5.859   0.989
 1344TIP3    H2 3976   1.118   5.933   0.957
 1345TIP3   OH2 3977   7.075   7.196   6.342
 1345TIP3    H1 3978   7.117   7.269   6.299
 1345TIP3    H2 3979   7.009   7.164   6.280
 1346TIP3   OH2 3980   1.520   4.668   1.097
 1346TIP3    H1 3981   1.556   4.732   1.036
 1346TIP3    H2 3982   1.462   4.719   1.154
 1347TIP3   OH2 3983   7.296   7.253   4.125
 1347TIP3    H1 3984   7.301   7.331   4.180
 1347TIP3    H2 3985   7.326   7.282   4.039
 1348TIP3   OH2 3986   4.247   4.360   2.076
 1348TIP3    H1 3987   4.306   4.428   2.044
 1348TIP3    H2 3988   4.172   4.364   2.016
 1349TIP3   OH2 3989   2.261   3.863   1.448
 1349TIP3    H1 3990   2.259   3.914   1.367
 1349TIP3    H2 3991   2.312   3.917   1.508
 1350TIP3   OH2 3992   3.841   1.888   6.246
 1350TIP3    H1 3993   3.853   1.809   6.194
 1350TIP3    H2 3994   3.890   1.956   6.199
 1351TIP3   OH2 3995   4.601   3.940   3.444
 1351TIP3    H1 3996   4.566   3.852   3.435
 1351TIP3    H2 3997   4.576   3.984   3.363
 1352TIP3   OH2 3998   6.200   4.204   2.207
 1352TIP3    H1 3999   6.123   4.221   2.261
 1352TIP3    H2 4000   6.273   4.243   2.254
 1353TIP3   OH2 4001   7.499   2.551   1.012
 1353TIP3    H1 4002   7.542   2.466   0.998
 1353TIP3    H2 4003   7.558   2.598   1.072
 1354TIP3   OH2 4004   4.168   5.543   0.415
 1354TIP3    H1 4005   4.092   5.535   0.472
 1354TIP3    H2 4006   4.233   5.590   0.467
 1355TIP3   OH2 4007   7.391   5.976   5.978
 1355TIP3    H1 4008   7.444   6.015   6.047
 1355TIP3    H2 4009   7.347   5.902   6.019
 1356TIP3   OH2 4010   3.143   3.557   6.612
 1356TIP3    H1 4011   3.217   3.500   6.633
 1356TIP3    H2 4012   3.072   3.498   6.590
 1357TIP3   OH2 4013   0.404   3.506   5.532
 1357TIP3    H1 4014   0.324   3.524   5.583
 1357TIP3    H2 4015   0.379   3.433   5.476
 1358TIP3   OH2 4016   0.084   0.539   3.678
 1358TIP3    H1 4017   0.042   0.461   3.642
 1358TIP3    H2 4018   0.096   0.597   3.603
 1359TIP3   OH2 4019   6.492   4.930   4.676
 1359TIP3    H1 4020   6.583   4.910   4.699
 1359TIP3    H2 4021   6.446   4.847   4.688
 1360TIP3   OH2 4022   6.055   2.710   1.264
 1360TIP3    H1 4023   5.960   2.716   1.254
 1360TIP3    H2 4024   6.090   2.741   1.180
 1361TIP3   OH2 4025   2.190   3.479   1.866
 1361TIP3    H1 4026   2.117   3.461   1.807
 1361TIP3    H2 4027   2.210   3.394   1.905
 1362TIP3   OH2 4028   5.029   0.613   0.241
 1362TIP3    H1 4029   4.991   0.564   0.169
 1362TIP3    H2 4030   5.046   0.546   0.308
 1363TIP3   OH2 4031   4.403   5.042   5.873
 1363TIP3    H1 4032   4.349   5.106   5.825
 1363TIP3    H2 4033   4.491   5.054   5.837
 1364TIP3   OH2 4034   5.636   5.756   3.336
 1364TIP3    H1 4035   5.551   5.760   3.291
 1364TIP3    H2 4036   5.700   5.777   3.268
 1365TIP3   OH2 4037   6.231   2.732   1.953
 1365TIP3    H1 4038   6.143   2.761   1.979
 1365TIP3    H2 4039   6.248   2.655   2.007
 1366TIP3   OH2 4040   1.482   3.285   2.921
 1366TIP3    H1 4041   1.395   3.246   2.912
 1366TIP3    H2 4042   1.526   3.265   2.839
 1367TIP3   OH2 4043   1.186   2.389   0.298
 1367TIP3    H1 4044   1.101   2.383   0.340
 1367TIP3    H2 4045   1.234   2.456   0.347
 1368TIP3   OH2 4046   6.513   6.769   0.903
 1368TIP3    H1 4047   6.495   6.676   0.917
 1368TIP3    H2 4048   6.432   6.813   0.930
 1369TIP3   OH2 4049   1.728   2.431   3.153
 1369TIP3    H1 4050   1.730   2.375   3.075
 1369TIP3    H2 4051   1.812   2.414   3.196
 1370TIP3   OH2 4052   4.625   0.968   2.573
 1370TIP3    H1 4053   4.642   0.874   2.584
 1370TIP3    H2 4054   4.618   1.001   2.663
 1371TIP3   OH2 4055   1.117   5.141   3.229
 1371TIP3    H1 4056   1.208   5.154   3.257
 1371TIP3    H2 4057   1.083   5.074   3.287
 1372TIP3   OH2 4058   8.225   4.835   3.734
 1372TIP3    H1 4059   8.279   4.759   3.755
 1372TIP3    H2 4060   8.197   4.821   3.644
 1373TIP3   OH2 4061   0.109   7.731   1.328
 1373TIP3    H1 4062   0.044   7.715   1.396
 1373TIP3    H2 4063   0.059   7.759   1.252
 1374TIP3   OH2 4064   7.783   0.528   1.897
 1374TIP3    H1 4065   7.813   0.562   1.982
 1374TIP3    H2 4066   7.794   0.433   1.904
 1375TIP3   OH2 4067   1.965   5.998   0.460
 1375TIP3    H1 4068   2.056   6.004   0.490
 1375TIP3    H2 4069   1.921   5.948   0.528
 1376TIP3   OH2 4070   4.350   4.040   5.847
 1376TIP3    H1 4071   4.254   4.045   5.848
 1376TIP3    H2 4072   4.370   3.981   5.775
 1377TIP3   OH2 4073   6.024   2.112   1.567
 1377TIP3    H1 4074   5.972   2.170   1.513
 1377TIP3    H2 4075   5.960   2.054   1.609
 1378TIP3   OH2 4076   6.233   1.590   5.111
 1378TIP3    H1 4077   6.243   1.547   5.026
 1378TIP3    H2 4078   6.140   1.612   5.116
 1379TIP3   OH2 4079   1.249   1.890   1.025
 1379TIP3    H1 4080   1.194   1.899   1.103
 1379TIP3    H2 4081   1.279   1.798   1.028
 1380TIP3   OH2 4082   0.348   5.759   3.227
 1380TIP3    H1 4083   0.298   5.679   3.243
 1380TIP3    H2 4084   0.439   5.731   3.226
 1381TIP3   OH2 4085   1.621   6.843   6.222
 1381TIP3    H1 4086   1.528   6.859   6.240
 1381TIP3    H2 4087   1.622   6.774   6.156
 1382TIP3   OH2 4088   3.115   3.674   3.487
 1382TIP3    H1 4089   3.116   3.635   3.574
 1382TIP3    H2 4090   3.146   3.764   3.501
 1383TIP3   OH2 4091   5.949   4.018   3.874
 1383TIP3    H1 4092   5.899   4.053   3.800
 1383TIP3    H2 4093   6.029   3.983   3.835
 1384TIP3   OH2 4094   8.292   3.342   6.378
 1384TIP3    H1 4095   8.230   3.329   6.306
 1384TIP3    H2 4096   8.240   3.333   6.457
 1385TIP3   OH2 4097   7.211   1.678   5.146
 1385TIP3    H1 4098   7.206   1.586   5.120
 1385TIP3    H2 4099   7.173   1.726   5.073
 1386TIP3   OH2 4100   3.012   1.578   0.235
 1386TIP3    H1 4101   2.939   1.577   0.296
 1386TIP3    H2 4102   2.979   1.624   0.158
 1387TIP3   OH2 4103   5.069   4.673   6.704
 1387TIP3    H1 4104   5.027   4.607   6.650
 1387TIP3    H2 4105   5.123   4.724   6.643
 1388TIP3   OH2 4106   2.147   3.228   2.072
 1388TIP3    H1 4107   2.149   3.161   2.141
 1388TIP3    H2 4108   2.066   3.210   2.024
 1389TIP3   OH2 4109   6.190   3.078   4.388
 1389TIP3    H1 4110   6.191   3.156   4.443
 1389TIP3    H2 4111   6.110   3.031   4.414
 1390TIP3   OH2 4112   4.714   2.446   2.150
 1390TIP3    H1 4113   4.764   2.365   2.154
 1390TIP3    H2 4114   4.704   2.473   2.241
 1391TIP3   OH2 4115   4.645   3.040   0.068
 1391TIP3    H1 4116   4.659   3.135   0.067
 1391TIP3    H2 4117   4.718   3.006   0.120
 1392TIP3   OH2 4118   4.121   0.059   1.188
 1392TIP3    H1 4119   4.122   0.102   1.273
 1392TIP3    H2 4120   4.206   0.081   1.149
 1393TIP3   OH2 4121   6.547   0.647   2.833
 1393TIP3    H1 4122   6.542   0.552   2.836
 1393TIP3    H2 4123   6.586   0.672   2.917
 1394TIP3   OH2 4124   3.607   1.742   3.402
 1394TIP3    H1 4125   3.676   1.722   3.339
 1394TIP3    H2 4126   3.548   1.667   3.398
 1395TIP3   OH2 4127   0.922   0.428   6.409
 1395TIP3    H1 4128   0.958   0.341   6.392
 1395TIP3    H2 4129   0.933   0.440   6.504
 1396TIP3   OH2 4130   2.526   4.916   2.521
 1396TIP3    H1 4131   2.610   4.959   2.507
 1396TIP3    H2 4132   2.470   4.949   2.451
 1397TIP3   OH2 4133   4.529   5.770   5.365
 1397TIP3    H1 4134   4.563   5.800   5.449
 1397TIP3    H2 4135   4.517   5.850   5.314
 1398TIP3   OH2 4136   2.400   1.698   3.356
 1398TIP3    H1 4137   2.355   1.713   3.273
 1398TIP3    H2 4138   2.458   1.624   3.338
 1399TIP3   OH2 4139   4.373   2.688   6.223
 1399TIP3    H1 4140   4.398   2.596   6.232
 1399TIP3    H2 4141   4.283   2.685   6.189
 1400TIP3   OH2 4142   0.042   2.418   4.481
 1400TIP3    H1 4143  -0.050   2.411   4.455
 1400TIP3    H2 4144   0.042   2.404   4.576
 1401TIP3   OH2 4145   6.695   0.562   1.719
 1401TIP3    H1 4146   6.626   0.584   1.657
 1401TIP3    H2 4147   6.739   0.486   1.680
 1402TIP3   OH2 4148   7.844   5.919   2.365
 1402TIP3    H1 4149   7.861   5.883   2.452
 1402TIP3    H2 4150   7.756   5.956   2.371
 1403TIP3   OH2 4151   8.081   4.551   5.517
 1403TIP3    H1 4152   8.041   4.464   5.527
 1403TIP3    H2 4153   8.131   4.563   5.598
 1404TIP3   OH2 4154   6.735   3.880   0.131
 1404TIP3    H1 4155   6.653   3.902   0.086
 1404TIP3    H2 4156   6.761   3.796   0.092
 1405TIP3   OH2 4157   5.327   7.589   0.881
 1405TIP3    H1 4158   5.235   7.585   0.856
 1405TIP3    H2 4159   5.371   7.629   0.806
 1406TIP3   OH2 4160   3.709   3.948   6.568
 1406TIP3    H1 4161   3.621   3.947   6.530
 1406TIP3    H2 4162   3.768   3.956   6.493
 1407TIP3   OH2 4163   4.904   2.748   4.462
 1407TIP3    H1 4164   4.957   2.821   4.431
 1407TIP3    H2 4165   4.933   2.673   4.409
 1408TIP3   OH2 4166   7.615   4.803   3.806
 1408TIP3    H1 4167   7.564   4.875   3.844
 1408TIP3    H2 4168   7.548   4.747   3.765
 1409TIP3   OH2 4169   5.788   4.889   1.643
 1409TIP3    H1 4170   5.834   4.815   1.683
 1409TIP3    H2 4171   5.826   4.966   1.685
 1410TIP3   OH2 4172   6.084   3.584   6.005
 1410TIP3    H1 4173   6.021   3.540   6.060
 1410TIP3    H2 4174   6.034   3.653   5.961
 1411TIP3   OH2 4175   1.155   0.209   1.071
 1411TIP3    H1 4176   1.059   0.208   1.063
 1411TIP3    H2 4177   1.176   0.124   1.111
 1412TIP3   OH2 4178   7.728   1.864   6.010
 1412TIP3    H1 4179   7.779   1.944   6.025
 1412TIP3    H2 4180   7.653   1.873   6.069
 1413TIP3   OH2 4181   0.598   5.558   2.502
 1413TIP3    H1 4182   0.559   5.608   2.430
 1413TIP3    H2 4183   0.547   5.584   2.579
 1414TIP3   OH2 4184   6.458   5.776   0.891
 1414TIP3    H1 4185   6.403   5.699   0.909
 1414TIP3    H2 4186   6.467   5.777   0.796
 1415TIP3   OH2 4187   5.326   3.982   4.622
 1415TIP3    H1 4188   5.250   3.972   4.680
 1415TIP3    H2 4189   5.291   3.969   4.534
 1416TIP3   OH2 4190   0.601   0.996   2.895
 1416TIP3    H1 4191   0.670   0.976   2.833
 1416TIP3    H2 4192   0.646   1.035   2.970
 1417TIP3   OH2 4193   8.027   3.595   0.441
 1417TIP3    H1 4194   8.022   3.675   0.389
 1417TIP3    H2 4195   8.012   3.524   0.379
 1418TIP3   OH2 4196   0.961   0.487   6.144
 1418TIP3    H1 4197   0.925   0.488   6.232
 1418TIP3    H2 4198   1.001   0.400   6.135
 1419TIP3   OH2 4199   7.699   3.214   1.653
 1419TIP3    H1 4200   7.713   3.304   1.683
 1419TIP3    H2 4201   7.686   3.222   1.559
 1420TIP3   OH2 4202   6.170   4.411   3.390
 1420TIP3    H1 4203   6.242   4.431   3.330
 1420TIP3    H2 4204   6.165   4.487   3.448
 1421TIP3   OH2 4205   2.572   2.022   0.652
 1421TIP3    H1 4206   2.605   1.939   0.615
 1421TIP3    H2 4207   2.531   1.996   0.734
 1422TIP3   OH2 4208   1.623   5.900   1.323
 1422TIP3    H1 4209   1.611   5.961   1.396
 1422TIP3    H2 4210   1.701   5.932   1.277
 1423TIP3   OH2 4211   3.130   7.303   1.692
 1423TIP3    H1 4212   3.075   7.245   1.639
 1423TIP3    H2 4213   3.200   7.330   1.633
 1424TIP3   OH2 4214   0.997   2.134   5.048
 1424TIP3    H1 4215   1.057   2.201   5.081
 1424TIP3    H2 4216   0.910   2.169   5.069
 1425TIP3   OH2 4217   3.124   1.041   0.152
 1425TIP3    H1 4218   3.102   0.948   0.149
 1425TIP3    H2 4219   3.048   1.083   0.193
 1426TIP3   OH2 4220   5.861   2.316   3.250
 1426TIP3    H1 4221   5.875   2.260   3.326
 1426TIP3    H2 4222   5.791   2.377   3.278
 1427TIP3   OH2 4223   0.276   1.579   2.131
 1427TIP3    H1 4224   0.320   1.554   2.049
 1427TIP3    H2 4225   0.187   1.603   2.104
 1428TIP3   OH2 4226   2.574   0.931   5.503
 1428TIP3    H1 4227   2.543   1.000   5.561
 1428TIP3    H2 4228   2.526   0.853   5.530
 1429TIP3   OH2 4229   0.931   1.964   4.821
 1429TIP3    H1 4230   0.923   2.017   4.900
 1429TIP3    H2 4231   0.929   1.874   4.852
 1430TIP3   OH2 4232   1.310   3.537   1.008
 1430TIP3    H1 4233   1.382   3.475   1.022
 1430TIP3    H2 4234   1.288   3.527   0.916
 1431TIP3   OH2 4235   7.396   3.664   1.255
 1431TIP3    H1 4236   7.471   3.634   1.205
 1431TIP3    H2 4237   7.417   3.754   1.279
 1432TIP3   OH2 4238   5.043   0.065   6.575
 1432TIP3    H1 4239   5.093   0.096   6.499
 1432TIP3    H2 4240   4.980   0.004   6.538
 1433TIP3   OH2 4241   6.383   1.811   1.502
 1433TIP3    H1 4242   6.453   1.838   1.562
 1433TIP3    H2 4243   6.428   1.779   1.425
 1434TIP3   OH2 4244   3.933   6.273   3.389
 1434TIP3    H1 4245   3.907   6.211   3.457
 1434TIP3    H2 4246   4.013   6.235   3.353
 1435TIP3   OH2 4247   1.947   1.066   4.759
 1435TIP3    H1 4248   2.025   1.095   4.713
 1435TIP3    H2 4249   1.977   0.994   4.814
 1436TIP3   OH2 4250   0.452   0.637   1.751
 1436TIP3    H1 4251   0.470   0.568   1.687
 1436TIP3    H2 4252   0.359   0.657   1.740
 1437TIP3   OH2 4253   5.389   3.029   5.627
 1437TIP3    H1 4254   5.352   3.107   5.586
 1437TIP3    H2 4255   5.324   2.960   5.611
 1438TIP3   OH2 4256   8.154   5.771   4.122
 1438TIP3    H1 4257   8.219   5.742   4.058
 1438TIP3    H2 4258   8.069   5.750   4.082
 1439TIP3   OH2 4259   1.467   3.779   4.244
 1439TIP3    H1 4260   1.522   3.805   4.171
 1439TIP3    H2 4261   1.476   3.683   4.248
 1440TIP3   OH2 4262   5.092   4.425   0.738
 1440TIP3    H1 4263   5.132   4.400   0.822
 1440TIP3    H2 4264   5.049   4.345   0.708
 1441TIP3   OH2 4265   5.583   0.160   0.295
 1441TIP3    H1 4266   5.651   0.226   0.283
 1441TIP3    H2 4267   5.508   0.193   0.246
 1442TIP3   OH2 4268   6.166   2.730   1.555
 1442TIP3    H1 4269   6.196   2.639   1.565
 1442TIP3    H2 4270   6.132   2.734   1.466
 1443TIP3   OH2 4271   4.158   4.074   0.210
 1443TIP3    H1 4272   4.112   3.993   0.187
 1443TIP3    H2 4273   4.132   4.136   0.142
 1444TIP3   OH2 4274   6.925   2.782   5.740
 1444TIP3    H1 4275   6.945   2.736   5.822
 1444TIP3    H2 4276   6.842   2.826   5.758
 1445TIP3   OH2 4277   8.286   6.041   3.123
 1445TIP3    H1 4278   8.219   6.109   3.119
 1445TIP3    H2 4279   8.265   5.982   3.050
 1446TIP3   OH2 4280   7.505   4.557   0.906
 1446TIP3    H1 4281   7.595   4.576   0.931
 1446TIP3    H2 4282   7.466   4.642   0.888
 1447TIP3   OH2 4283   4.758   7.630   5.986
 1447TIP3    H1 4284   4.686   7.655   5.929
 1447TIP3    H2 4285   4.716   7.589   6.062
 1448TIP3   OH2 4286   6.785   6.200   0.935
 1448TIP3    H1 4287   6.872   6.215   0.898
 1448TIP3    H2 4288   6.739   6.150   0.868
 1449TIP3   OH2 4289   2.010   3.783   1.543
 1449TIP3    H1 4290   1.952   3.859   1.546
 1449TIP3    H2 4291   2.089   3.814   1.497
 1450TIP3   OH2 4292   2.078   4.110   1.985
 1450TIP3    H1 4293   2.011   4.151   2.040
 1450TIP3    H2 4294   2.070   4.016   2.006
 1451TIP3   OH2 4295   6.035   7.472   3.869
 1451TIP3    H1 4296   6.008   7.406   3.805
 1451TIP3    H2 4297   6.006   7.555   3.831
 1452TIP3   OH2 4298   4.579   5.756   0.274
 1452TIP3    H1 4299   4.581   5.674   0.324
 1452TIP3    H2 4300   4.668   5.791   0.282
 1453TIP3   OH2 4301   0.326   0.530   6.593
 1453TIP3    H1 4302   0.342   0.503   6.503
 1453TIP3    H2 4303   0.411   0.565   6.623
 1454TIP3   OH2 4304   6.595   4.243   6.150
 1454TIP3    H1 4305   6.671   4.301   6.148
 1454TIP3    H2 4306   6.552   4.262   6.234
 1455TIP3   OH2 4307   6.050   1.928   1.297
 1455TIP3    H1 4308   6.052   2.010   1.345
 1455TIP3    H2 4309   6.118   1.937   1.230
 1456TIP3   OH2 4310   1.868   2.640   1.067
 1456TIP3    H1 4311   1.861   2.677   0.979
 1456TIP3    H2 4312   1.817   2.699   1.123
 1457TIP3   OH2 4313   1.105   2.604   4.995
 1457TIP3    H1 4314   1.033   2.590   5.056
 1457TIP3    H2 4315   1.183   2.609   5.051
 1458TIP3   OH2 4316   0.157   4.694   2.540
 1458TIP3    H1 4317   0.222   4.753   2.579
 1458TIP3    H2 4318   0.074   4.741   2.549
 1459TIP3   OH2 4319   0.400   6.288   0.284
 1459TIP3    H1 4320   0.440   6.242   0.210
 1459TIP3    H2 4321   0.474   6.328   0.330
 1460TIP3   OH2 4322   1.304   5.812   2.148
 1460TIP3    H1 4323   1.353   5.731   2.161
 1460TIP3    H2 4324   1.327   5.840   2.059
 1461TIP3   OH2 4325   3.430   3.811   2.049
 1461TIP3    H1 4326   3.441   3.867   2.126
 1461TIP3    H2 4327   3.341   3.777   2.056
 1462TIP3   OH2 4328   6.048   5.236   2.690
 1462TIP3    H1 4329   6.141   5.223   2.710
 1462TIP3    H2 4330   6.033   5.187   2.610
 1463TIP3   OH2 4331   4.902   4.793   6.442
 1463TIP3    H1 4332   4.934   4.704   6.457
 1463TIP3    H2 4333   4.940   4.819   6.358
 1464TIP3   OH2 4334   5.745   4.183   2.424
 1464TIP3    H1 4335   5.670   4.230   2.386
 1464TIP3    H2 4336   5.779   4.129   2.352
 1465TIP3   OH2 4337   7.593   2.054   4.991
 1465TIP3    H1 4338   7.515   2.108   4.978
 1465TIP3    H2 4339   7.566   1.966   4.964
 1466TIP3   OH2 4340   0.294   3.950   5.184
 1466TIP3    H1 4341   0.355   3.882   5.155
 1466TIP3    H2 4342   0.314   4.025   5.128
 1467TIP3   OH2 4343   6.349   7.648   1.703
 1467TIP3    H1 4344   6.404   7.576   1.673
 1467TIP3    H2 4345   6.282   7.608   1.758
 1468TIP3   OH2 4346   7.628   6.464   6.349
 1468TIP3    H1 4347   7.601   6.457   6.257
 1468TIP3    H2 4348   7.673   6.381   6.367
 1469TIP3   OH2 4349   2.571   7.578   5.395
 1469TIP3    H1 4350   2.505   7.554   5.460
 1469TIP3    H2 4351   2.538   7.543   5.312
 1470TIP3   OH2 4352   4.799   5.661   1.815
 1470TIP3    H1 4353   4.871   5.612   1.777
 1470TIP3    H2 4354   4.760   5.708   1.741
 1471TIP3   OH2 4355   0.182   2.117   0.379
 1471TIP3    H1 4356   0.179   2.026   0.411
 1471TIP3    H2 4357   0.263   2.123   0.330
 1472TIP3   OH2 4358   2.199   5.736   0.108
 1472TIP3    H1 4359   2.177   5.649   0.141
 1472TIP3    H2 4360   2.273   5.765   0.160
 1473TIP3   OH2 4361   5.049   6.848   1.300
 1473TIP3    H1 4362   5.014   6.928   1.261
 1473TIP3    H2 4363   5.133   6.875   1.337
 1474TIP3   OH2 4364   6.217   7.510   6.482
 1474TIP3    H1 4365   6.278   7.553   6.422
 1474TIP3    H2 4366   6.163   7.581   6.515
 1475TIP3   OH2 4367   4.450   1.042   2.140
 1475TIP3    H1 4368   4.426   1.079   2.055
 1475TIP3    H2 4369   4.431   1.112   2.202
 1476TIP3   OH2 4370   0.484   7.444   3.883
 1476TIP3    H1 4371   0.404   7.482   3.920
 1476TIP3    H2 4372   0.479   7.351   3.905
 1477TIP3   OH2 4373   5.545   0.585   4.986
 1477TIP3    H1 4374   5.492   0.616   4.913
 1477TIP3    H2 4375   5.630   0.629   4.976
 1478TIP3   OH2 4376   6.728   7.602   0.379
 1478TIP3    H1 4377   6.708   7.608   0.286
 1478TIP3    H2 4378   6.652   7.641   0.422
 1479TIP3   OH2 4379   7.904   6.088   1.065
 1479TIP3    H1 4380   7.846   6.141   1.119
 1479TIP3    H2 4381   7.974   6.148   1.038
 1480TIP3   OH2 4382   5.181   3.305   2.956
 1480TIP3    H1 4383   5.147   3.219   2.931
 1480TIP3    H2 4384   5.171   3.309   3.051
 1481TIP3   OH2 4385   5.012   1.783   5.523
 1481TIP3    H1 4386   4.955   1.730   5.469
 1481TIP3    H2 4387   5.025   1.864   5.473
 1482TIP3   OH2 4388   1.802   1.142   3.252
 1482TIP3    H1 4389   1.883   1.178   3.288
 1482TIP3    H2 4390   1.820   1.130   3.159
 1483TIP3   OH2 4391   2.551   3.693   1.185
 1483TIP3    H1 4392   2.570   3.787   1.185
 1483TIP3    H2 4393   2.576   3.664   1.273
 1484TIP3   OH2 4394   7.287   7.429   1.894
 1484TIP3    H1 4395   7.307   7.438   1.800
 1484TIP3    H2 4396   7.340   7.354   1.922
 1485TIP3   OH2 4397   5.808   7.604   6.401
 1485TIP3    H1 4398   5.784   7.651   6.481
 1485TIP3    H2 4399   5.788   7.513   6.420
 1486TIP3   OH2 4400   0.167   2.427   4.218
 1486TIP3    H1 4401   0.118   2.435   4.300
 1486TIP3    H2 4402   0.177   2.517   4.187
 1487TIP3   OH2 4403   3.860   4.517   1.280
 1487TIP3    H1 4404   3.938   4.495   1.331
 1487TIP3    H2 4405   3.791   4.463   1.318
 1488TIP3   OH2 4406   5.766   5.700   5.306
 1488TIP3    H1 4407   5.738   5.647   5.381
 1488TIP3    H2 4408   5.794   5.783   5.345
 1489TIP3   OH2 4409   6.145   2.107   0.646
 1489TIP3    H1 4410   6.105   2.099   0.733
 1489TIP3    H2 4411   6.236   2.082   0.659
 1490TIP3   OH2 4412   8.178   7.458   2.134
 1490TIP3    H1 4413   8.241   7.392   2.164
 1490TIP3    H2 4414   8.224   7.541   2.142
 1491TIP3   OH2 4415   7.256   7.342   0.693
 1491TIP3    H1 4416   7.320   7.394   0.645
 1491TIP3    H2 4417   7.248   7.261   0.642
 1492TIP3   OH2 4418   3.190   4.991   2.369
 1492TIP3    H1 4419   3.248   4.914   2.371
 1492TIP3    H2 4420   3.185   5.016   2.277
 1493TIP3   OH2 4421   7.171   5.173   1.289
 1493TIP3    H1 4422   7.109   5.245   1.288
 1493TIP3    H2 4423   7.250   5.208   1.247
 1494TIP3   OH2 4424   0.474   3.983   5.612
 1494TIP3    H1 4425   0.393   3.975   5.661
 1494TIP3    H2 4426   0.528   3.910   5.641
 1495TIP3   OH2 4427   8.160   1.979   6.473
 1495TIP3    H1 4428   8.093   1.990   6.405
 1495TIP3    H2 4429   8.112   1.989   6.555
 1496TIP3   OH2 4430   3.689   1.147   4.314
 1496TIP3    H1 4431   3.714   1.065   4.271
 1496TIP3    H2 4432   3.629   1.119   4.383
 1497TIP3   OH2 4433   0.699   2.350   2.823
 1497TIP3    H1 4434   0.689   2.442   2.801
 1497TIP3    H2 4435   0.683   2.345   2.917
 1498TIP3   OH2 4436   3.450   5.437   1.177
 1498TIP3    H1 4437   3.395   5.418   1.101
 1498TIP3    H2 4438   3.393   5.424   1.252
 1499TIP3   OH2 4439   6.979   5.813   6.701
 1499TIP3    H1 4440   6.901   5.839   6.750
 1499TIP3    H2 4441   6.971   5.858   6.617
 1500TIP3   OH2 4442   6.106   6.314   6.628
 1500TIP3    H1 4443   6.144   6.393   6.666
 1500TIP3    H2 4444   6.086   6.337   6.538
 1501TIP3   OH2 4445   6.600   1.989   6.167
 1501TIP3    H1 4446   6.566   2.078   6.156
 1501TIP3    H2 4447   6.566   1.940   6.092
 1502TIP3   OH2 4448   8.135   3.851   2.981
 1502TIP3    H1 4449   8.095   3.904   2.913
 1502TIP3    H2 4450   8.150   3.766   2.940
 1503TIP3   OH2 4451   4.873   0.398   5.545
 1503TIP3    H1 4452   4.967   0.399   5.564
 1503TIP3    H2 4453   4.831   0.423   5.627
 1504TIP3   OH2 4454   4.759   0.325   0.986
 1504TIP3    H1 4455   4.808   0.378   1.050
 1504TIP3    H2 4456   4.772   0.235   1.014
 1505TIP3   OH2 4457   7.125   5.673   4.805
 1505TIP3    H1 4458   7.182   5.654   4.730
 1505TIP3    H2 4459   7.126   5.768   4.813
 1506TIP3   OH2 4460   2.007   6.456   1.082
 1506TIP3    H1 4461   1.952   6.406   1.022
 1506TIP3    H2 4462   1.944   6.501   1.139
 1507TIP3   OH2 4463   5.563   6.345   2.594
 1507TIP3    H1 4464   5.536   6.437   2.595
 1507TIP3    H2 4465   5.481   6.296   2.600
 1508TIP3   OH2 4466   2.796   1.728   1.661
 1508TIP3    H1 4467   2.721   1.781   1.686
 1508TIP3    H2 4468   2.833   1.774   1.585
 1509TIP3   OH2 4469   1.676   5.706   4.935
 1509TIP3    H1 4470   1.583   5.686   4.934
 1509TIP3    H2 4471   1.717   5.627   4.971
 1510TIP3   OH2 4472   8.042   1.418   1.882
 1510TIP3    H1 4473   7.985   1.485   1.919
 1510TIP3    H2 4474   7.984   1.347   1.856
 1511TIP3   OH2 4475   1.843   0.593   0.734
 1511TIP3    H1 4476   1.891   0.623   0.657
 1511TIP3    H2 4477   1.853   0.497   0.733
 1512TIP3   OH2 4478   5.522   2.473   0.331
 1512TIP3    H1 4479   5.613   2.446   0.342
 1512TIP3    H2 4480   5.514   2.492   0.238
 1513TIP3   OH2 4481   2.005   1.806   5.474
 1513TIP3    H1 4482   2.049   1.813   5.389
 1513TIP3    H2 4483   2.077   1.800   5.537
 1514TIP3   OH2 4484   0.145   4.791   4.597
 1514TIP3    H1 4485   0.097   4.792   4.514
 1514TIP3    H2 4486   0.139   4.880   4.631
 1515TIP3   OH2 4487   7.999   3.438   0.731
 1515TIP3    H1 4488   7.932   3.399   0.674
 1515TIP3    H2 4489   7.958   3.517   0.766
 1516TIP3   OH2 4490   7.612   7.772   2.892
 1516TIP3    H1 4491   7.622   7.684   2.928
 1516TIP3    H2 4492   7.663   7.828   2.950
 1517TIP3   OH2 4493   3.993   4.861   4.858
 1517TIP3    H1 4494   4.049   4.840   4.783
 1517TIP3    H2 4495   3.957   4.947   4.838
 1518TIP3   OH2 4496   2.146   6.514   5.899
 1518TIP3    H1 4497   2.067   6.490   5.850
 1518TIP3    H2 4498   2.196   6.433   5.907
 1519TIP3   OH2 4499   3.075   5.636   6.699
 1519TIP3    H1 4500   3.084   5.714   6.645
 1519TIP3    H2 4501   3.165   5.608   6.716
 1520TIP3   OH2 4502   5.037   4.780   5.297
 1520TIP3    H1 4503   5.121   4.825   5.301
 1520TIP3    H2 4504   4.992   4.820   5.223
 1521TIP3   OH2 4505   5.292   0.695   2.640
 1521TIP3    H1 4506   5.254   0.764   2.694
 1521TIP3    H2 4507   5.387   0.710   2.645
 1522TIP3   OH2 4508   5.556   3.350   5.731
 1522TIP3    H1 4509   5.593   3.269   5.768
 1522TIP3    H2 4510   5.627   3.414   5.738
 1523TIP3   OH2 4511   7.328   3.394   4.556
 1523TIP3    H1 4512   7.358   3.425   4.471
 1523TIP3    H2 4513   7.329   3.472   4.612
 1524TIP3   OH2 4514   4.463   0.514   5.861
 1524TIP3    H1 4515   4.391   0.575   5.874
 1524TIP3    H2 4516   4.451   0.481   5.772
 1525TIP3   OH2 4517   1.428   2.939   0.496
 1525TIP3    H1 4518   1.442   3.033   0.503
 1525TIP3    H2 4519   1.364   2.929   0.425
 1526TIP3   OH2 4520   6.442   7.677   4.337
 1526TIP3    H1 4521   6.376   7.726   4.387
 1526TIP3    H2 4522   6.409   7.676   4.248
 1527TIP3   OH2 4523   5.964   0.158   2.101
 1527TIP3    H1 4524   5.976   0.251   2.085
 1527TIP3    H2 4525   5.884   0.136   2.052
 1528TIP3   OH2 4526   1.076   2.986   4.439
 1528TIP3    H1 4527   1.087   3.021   4.351
 1528TIP3    H2 4528   1.032   2.902   4.426
 1529TIP3   OH2 4529   3.967   3.771   6.522
 1529TIP3    H1 4530   4.061   3.786   6.527
 1529TIP3    H2 4531   3.952   3.743   6.431
 1530TIP3   OH2 4532   0.099   7.062   0.118
 1530TIP3    H1 4533   0.123   7.145   0.161
 1530TIP3    H2 4534   0.182   7.027   0.086
 1531TIP3   OH2 4535   3.792   5.853   0.929
 1531TIP3    H1 4536   3.873   5.804   0.918
 1531TIP3    H2 4537   3.728   5.787   0.956
 1532TIP3   OH2 4538   5.768   5.250   2.776
 1532TIP3    H1 4539   5.833   5.208   2.832
 1532TIP3    H2 4540   5.798   5.234   2.687
 1533TIP3   OH2 4541   3.883   1.378   5.818
 1533TIP3    H1 4542   3.892   1.471   5.799
 1533TIP3    H2 4543   3.894   1.335   5.734
 1534TIP3   OH2 4544   1.876   1.332   0.237
 1534TIP3    H1 4545   1.932   1.356   0.164
 1534TIP3    H2 4546   1.824   1.259   0.205
 1535TIP3   OH2 4547   3.924   1.972   1.634
 1535TIP3    H1 4548   3.951   1.888   1.597
 1535TIP3    H2 4549   3.831   1.980   1.611
 1536TIP3   OH2 4550   2.989   2.307   4.993
 1536TIP3    H1 4551   2.922   2.363   5.034
 1536TIP3    H2 4552   3.071   2.333   5.035
 1537TIP3   OH2 4553   0.567   7.493   1.148
 1537TIP3    H1 4554   0.570   7.421   1.085
 1537TIP3    H2 4555   0.474   7.511   1.159
 1538TIP3   OH2 4556   4.459   3.318   1.147
 1538TIP3    H1 4557   4.449   3.413   1.146
 1538TIP3    H2 4558   4.549   3.304   1.176
 1539TIP3   OH2 4559   3.364   4.420   6.606
 1539TIP3    H1 4560   3.415   4.399   6.527
 1539TIP3    H2 4561   3.427   4.464   6.664
 1540TIP3   OH2 4562   7.907   3.458   2.553
 1540TIP3    H1 4563   7.942   3.473   2.466
 1540TIP3    H2 4564   7.823   3.414   2.538
 1541TIP3   OH2 4565   4.837   7.392   1.650
 1541TIP3    H1 4566   4.792   7.311   1.677
 1541TIP3    H2 4567   4.912   7.361   1.599
 1542TIP3   OH2 4568   2.464   1.390   4.675
 1542TIP3    H1 4569   2.533   1.441   4.634
 1542TIP3    H2 4570   2.498   1.300   4.677
 1543TIP3   OH2 4571   7.390   1.355   2.375
 1543TIP3    H1 4572   7.460   1.419   2.371
 1543TIP3    H2 4573   7.429   1.279   2.419
 1544TIP3   OH2 4574   0.519   6.661   3.781
 1544TIP3    H1 4575   0.425   6.669   3.798
 1544TIP3    H2 4576   0.557   6.639   3.865
 1545TIP3   OH2 4577   8.188   4.172   5.258
 1545TIP3    H1 4578   8.247   4.130   5.320
 1545TIP3    H2 4579   8.218   4.263   5.254
 1546TIP3   OH2 4580   5.036   6.949   2.046
 1546TIP3    H1 4581   4.981   6.984   2.117
 1546TIP3    H2 4582   4.976   6.894   1.995
 1547TIP3   OH2 4583   7.045   3.260   2.638
 1547TIP3    H1 4584   7.061   3.317   2.713
 1547TIP3    H2 4585   7.065   3.172   2.670
 1548TIP3   OH2 4586   0.171   6.330   0.126
 1548TIP3    H1 4587   0.247   6.293   0.172
 1548TIP3    H2 4588   0.190   6.313   0.033
 1549TIP3   OH2 4589   4.373   7.419   4.673
 1549TIP3    H1 4590   4.278   7.417   4.685
 1549TIP3    H2 4591   4.385   7.395   4.581
 1550TIP3   OH2 4592   4.048   2.704   6.134
 1550TIP3    H1 4593   4.020   2.784   6.178
 1550TIP3    H2 4594   4.001   2.634   6.179
 1551TIP3   OH2 4595   3.898   7.303   6.085
 1551TIP3    H1 4596   3.930   7.215   6.068
 1551TIP3    H2 4597   3.929   7.354   6.010
 1552TIP3   OH2 4598   2.340   3.439   6.328
 1552TIP3    H1 4599   2.332   3.471   6.238
 1552TIP3    H2 4600   2.267   3.377   6.338
 1553TIP3   OH2 4601   5.667   5.138   0.246
 1553TIP3    H1 4602   5.711   5.222   0.257
 1553TIP3    H2 4603   5.575   5.156   0.261
 1554TIP3   OH2 4604   5.445   5.501   2.088
 1554TIP3    H1 4605   5.362   5.529   2.126
 1554TIP3    H2 4606   5.484   5.445   2.156
 1555TIP3   OH2 4607   0.837   6.644   4.871
 1555TIP3    H1 4608   0.904   6.665   4.805
 1555TIP3    H2 4609   0.887   6.620   4.949
 1556TIP3   OH2 4610   8.223   4.906   2.616
 1556TIP3    H1 4611   8.200   4.943   2.702
 1556TIP3    H2 4612   8.281   4.971   2.577
 1557TIP3   OH2 4613   2.087   3.621   0.811
 1557TIP3    H1 4614   2.027   3.651   0.879
 1557TIP3    H2 4615   2.115   3.701   0.766
 1558TIP3   OH2 4616   4.564   3.302   5.439
 1558TIP3    H1 4617   4.526   3.287   5.352
 1558TIP3    H2 4618   4.650   3.340   5.422
 1559TIP3   OH2 4619   2.651   5.928   1.228
 1559TIP3    H1 4620   2.711   5.997   1.255
 1559TIP3    H2 4621   2.597   5.969   1.160
 1560TIP3   OH2 4622   7.553   4.778   1.597
 1560TIP3    H1 4623   7.598   4.732   1.668
 1560TIP3    H2 4624   7.535   4.709   1.532
 1561TIP3   OH2 4625   5.097   1.716   6.316
 1561TIP3    H1 4626   5.010   1.676   6.311
 1561TIP3    H2 4627   5.110   1.754   6.229
 1562TIP3   OH2 4628   5.458   5.240   3.721
 1562TIP3    H1 4629   5.402   5.204   3.653
 1562TIP3    H2 4630   5.397   5.266   3.791
 1563TIP3   OH2 4631   5.044   2.769   0.772
 1563TIP3    H1 4632   5.065   2.719   0.693
 1563TIP3    H2 4633   5.070   2.859   0.752
 1564TIP3   OH2 4634   7.181   2.767   1.169
 1564TIP3    H1 4635   7.196   2.850   1.214
 1564TIP3    H2 4636   7.186   2.701   1.238
 1565TIP3   OH2 4637   7.831   1.453   0.070
 1565TIP3    H1 4638   7.901   1.413   0.120
 1565TIP3    H2 4639   7.785   1.380   0.028
 1566TIP3   OH2 4640   3.609   7.526   5.983
 1566TIP3    H1 4641   3.604   7.437   6.018
 1566TIP3    H2 4642   3.606   7.514   5.888
 1567TIP3   OH2 4643   4.578   6.032   5.221
 1567TIP3    H1 4644   4.567   6.109   5.276
 1567TIP3    H2 4645   4.534   6.054   5.139
 1568TIP3   OH2 4646   8.260   0.170   2.428
 1568TIP3    H1 4647   8.204   0.172   2.506
 1568TIP3    H2 4648   8.283   0.078   2.418
 1569TIP3   OH2 4649   1.313   5.963   4.747
 1569TIP3    H1 4650   1.322   5.935   4.656
 1569TIP3    H2 4651   1.362   5.896   4.796
 1570TIP3   OH2 4652   0.097   6.538   1.274
 1570TIP3    H1 4653   0.142   6.569   1.353
 1570TIP3    H2 4654   0.010   6.577   1.280
 1571TIP3   OH2 4655   3.726   2.246   6.458
 1571TIP3    H1 4656   3.698   2.162   6.493
 1571TIP3    H2 4657   3.690   2.249   6.369
 1572TIP3   OH2 4658   7.571   6.908   4.026
 1572TIP3    H1 4659   7.647   6.944   4.072
 1572TIP3    H2 4660   7.584   6.933   3.935
 1573TIP3   OH2 4661   2.393   4.489   2.429
 1573TIP3    H1 4662   2.360   4.554   2.367
 1573TIP3    H2 4663   2.408   4.538   2.510
 1574TIP3   OH2 4664   1.794   7.625   5.074
 1574TIP3    H1 4665   1.883   7.650   5.049
 1574TIP3    H2 4666   1.737   7.682   5.023
 1575TIP3   OH2 4667   3.771   2.988   4.433
 1575TIP3    H1 4668   3.704   3.044   4.394
 1575TIP3    H2 4669   3.854   3.023   4.399
 1576TIP3   OH2 4670   8.264   2.903   2.920
 1576TIP3    H1 4671   8.300   2.931   2.835
 1576TIP3    H2 4672   8.177   2.870   2.899
 1577TIP3   OH2 4673   0.202   6.780   1.788
 1577TIP3    H1 4674   0.151   6.728   1.850
 1577TIP3    H2 4675   0.165   6.868   1.795
 1578TIP3   OH2 4676   1.304   5.009   4.192
 1578TIP3    H1 4677   1.227   5.007   4.249
 1578TIP3    H2 4678   1.276   4.965   4.112
 1579TIP3   OH2 4679   2.396   7.737   6.221
 1579TIP3    H1 4680   2.389   7.643   6.239
 1579TIP3    H2 4681   2.469   7.744   6.160
 1580TIP3   OH2 4682   2.120   3.827   0.609
 1580TIP3    H1 4683   2.095   3.919   0.599
 1580TIP3    H2 4684   2.211   3.823   0.580
 1581TIP3   OH2 4685   5.257   7.815   4.870
 1581TIP3    H1 4686   5.282   7.830   4.962
 1581TIP3    H2 4687   5.316   7.745   4.841
 1582TIP3   OH2 4688   3.873   1.451   2.691
 1582TIP3    H1 4689   3.853   1.390   2.763
 1582TIP3    H2 4690   3.946   1.504   2.724
 1583TIP3   OH2 4691   3.196   7.168   3.436
 1583TIP3    H1 4692   3.150   7.252   3.433
 1583TIP3    H2 4693   3.178   7.133   3.524
 1584TIP3   OH2 4694   3.473   5.796   1.791
 1584TIP3    H1 4695   3.544   5.744   1.830
 1584TIP3    H2 4696   3.483   5.783   1.697
 1585TIP3   OH2 4697   1.546   5.751   3.131
 1585TIP3    H1 4698   1.590   5.804   3.198
 1585TIP3    H2 4699   1.455   5.779   3.134
 1586TIP3   OH2 4700   2.413   1.421   0.264
 1586TIP3    H1 4701   2.445   1.437   0.176
 1586TIP3    H2 4702   2.345   1.487   0.277
 1587TIP3   OH2 4703   2.535   5.064   1.364
 1587TIP3    H1 4704   2.582   5.025   1.290
 1587TIP3    H2 4705   2.527   4.993   1.427
 1588TIP3   OH2 4706   7.642   6.483   4.690
 1588TIP3    H1 4707   7.555   6.462   4.657
 1588TIP3    H2 4708   7.626   6.529   4.772
 1589TIP3   OH2 4709   4.415   4.196   2.651
 1589TIP3    H1 4710   4.342   4.138   2.629
 1589TIP3    H2 4711   4.493   4.149   2.619
 1590TIP3   OH2 4712   4.673   6.747   3.345
 1590TIP3    H1 4713   4.719   6.824   3.380
 1590TIP3    H2 4714   4.586   6.751   3.385
 1591TIP3   OH2 4715   0.961   0.681   0.321
 1591TIP3    H1 4716   0.934   0.699   0.411
 1591TIP3    H2 4717   0.903   0.609   0.293
 1592TIP3   OH2 4718   1.852   1.208   1.471
 1592TIP3    H1 4719   1.839   1.171   1.384
 1592TIP3    H2 4720   1.768   1.194   1.515
 1593TIP3   OH2 4721   3.048   2.398   4.696
 1593TIP3    H1 4722   3.078   2.359   4.779
 1593TIP3    H2 4723   2.955   2.376   4.692
 1594TIP3   OH2 4724   5.311   0.423   2.270
 1594TIP3    H1 4725   5.258   0.477   2.329
 1594TIP3    H2 4726   5.357   0.362   2.328
 1595TIP3   OH2 4727   1.347   1.152   1.877
 1595TIP3    H1 4728   1.331   1.125   1.967
 1595TIP3    H2 4729   1.370   1.245   1.884
 1596TIP3   OH2 4730   7.755   2.141   2.394
 1596TIP3    H1 4731   7.843   2.171   2.374
 1596TIP3    H2 4732   7.702   2.172   2.321
 1597TIP3   OH2 4733   3.772   3.550   6.701
 1597TIP3    H1 4734   3.744   3.488   6.633
 1597TIP3    H2 4735   3.753   3.504   6.784
 1598TIP3   OH2 4736   2.030   2.676   6.404
 1598TIP3    H1 4737   2.106   2.684   6.346
 1598TIP3    H2 4738   1.960   2.724   6.359
 1599TIP3   OH2 4739   4.172   5.510   1.474
 1599TIP3    H1 4740   4.258   5.503   1.515
 1599TIP3    H2 4741   4.113   5.464   1.535
 1600TIP3   OH2 4742   4.051   0.225   2.288
 1600TIP3    H1 4743   3.989   0.235   2.360
 1600TIP3    H2 4744   4.014   0.155   2.233
 1601TIP3   OH2 4745   3.920   1.365   1.611
 1601TIP3    H1 4746   3.843   1.331   1.563
 1601TIP3    H2 4747   3.991   1.307   1.583
 1602TIP3   OH2 4748   5.465   6.073   6.420
 1602TIP3    H1 4749   5.439   5.981   6.417
 1602TIP3    H2 4750   5.528   6.083   6.348
 1603TIP3   OH2 4751   1.740   7.404   0.358
 1603TIP3    H1 4752   1.665   7.457   0.332
 1603TIP3    H2 4753   1.790   7.392   0.278
 1604TIP3   OH2 4754   7.933   5.209   6.530
 1604TIP3    H1 4755   7.997   5.229   6.599
 1604TIP3    H2 4756   7.949   5.275   6.462
 1605TIP3   OH2 4757   3.470   5.053   3.353
 1605TIP3    H1 4758   3.486   5.010   3.437
 1605TIP3    H2 4759   3.375   5.046   3.340
 1606TIP3   OH2 4760   5.979   5.632   0.985
 1606TIP3    H1 4761   6.008   5.723   0.974
 1606TIP3    H2 4762   6.058   5.580   0.967
 1607TIP3   OH2 4763   4.868   3.021   0.899
 1607TIP3    H1 4764   4.881   3.065   0.983
 1607TIP3    H2 4765   4.846   3.092   0.838
 1608TIP3   OH2 4766   2.701   4.248   0.422
 1608TIP3    H1 4767   2.771   4.314   0.415
 1608TIP3    H2 4768   2.647   4.278   0.495
 1609TIP3   OH2 4769   5.556   7.289   5.715
 1609TIP3    H1 4770   5.638   7.260   5.754
 1609TIP3    H2 4771   5.488   7.249   5.769
 1610TIP3   OH2 4772   5.903   6.855   1.813
 1610TIP3    H1 4773   5.928   6.813   1.896
 1610TIP3    H2 4774   5.939   6.797   1.746
 1611TIP3   OH2 4775   7.108   5.141   5.653
 1611TIP3    H1 4776   7.086   5.151   5.746
 1611TIP3    H2 4777   7.189   5.192   5.643
 1612TIP3   OH2 4778   2.069   3.742   2.065
 1612TIP3    H1 4779   2.066   3.773   1.974
 1612TIP3    H2 4780   2.079   3.647   2.058
 1613TIP3   OH2 4781   3.767   4.356   5.820
 1613TIP3    H1 4782   3.680   4.391   5.839
 1613TIP3    H2 4783   3.815   4.364   5.903
 1614TIP3   OH2 4784   0.762   7.544   3.971
 1614TIP3    H1 4785   0.693   7.507   3.916
 1614TIP3    H2 4786   0.738   7.519   4.060
 1615TIP3   OH2 4787   6.730   0.999   1.370
 1615TIP3    H1 4788   6.776   1.083   1.375
 1615TIP3    H2 4789   6.701   0.982   1.460
 1616TIP3   OH2 4790   5.775   5.239   4.601
 1616TIP3    H1 4791   5.731   5.174   4.546
 1616TIP3    H2 4792   5.743   5.324   4.569
 1617TIP3   OH2 4793   5.990  -0.025   6.358
 1617TIP3    H1 4794   5.933  -0.102   6.350
 1617TIP3    H2 4795   5.934   0.043   6.396
 1618TIP3   OH2 4796   4.606   6.795   1.108
 1618TIP3    H1 4797   4.531   6.785   1.050
 1618TIP3    H2 4798   4.659   6.717   1.092
 1619TIP3   OH2 4799   2.205   0.483   2.467
 1619TIP3    H1 4800   2.180   0.559   2.415
 1619TIP3    H2 4801   2.124   0.453   2.507
 1620TIP3   OH2 4802   8.227   7.758   2.145
 1620TIP3    H1 4803   8.276   7.841   2.147
 1620TIP3    H2 4804   8.176   7.759   2.226
 1621TIP3   OH2 4805   4.549   1.031   2.840
 1621TIP3    H1 4806   4.559   0.972   2.915
 1621TIP3    H2 4807   4.591   1.113   2.869
 1622TIP3   OH2 4808   0.909   0.253   0.197
 1622TIP3    H1 4809   0.932   0.286   0.284
 1622TIP3    H2 4810   0.978   0.286   0.140
 1623TIP3   OH2 4811   0.154   2.540   5.651
 1623TIP3    H1 4812   0.163   2.635   5.646
 1623TIP3    H2 4813   0.168   2.519   5.743
 1624TIP3   OH2 4814   6.941   3.572   1.505
 1624TIP3    H1 4815   6.990   3.653   1.490
 1624TIP3    H2 4816   6.971   3.541   1.591
 1625TIP3   OH2 4817   3.425   3.671   3.392
 1625TIP3    H1 4818   3.375   3.752   3.390
 1625TIP3    H2 4819   3.512   3.695   3.360
 1626TIP3   OH2 4820   7.612   2.461   2.946
 1626TIP3    H1 4821   7.521   2.434   2.961
 1626TIP3    H2 4822   7.605   2.548   2.908
 1627TIP3   OH2 4823   7.078   2.071   3.306
 1627TIP3    H1 4824   7.101   2.164   3.309
 1627TIP3    H2 4825   7.093   2.045   3.216
 1628TIP3   OH2 4826   6.811   5.119   2.892
 1628TIP3    H1 4827   6.740   5.148   2.834
 1628TIP3    H2 4828   6.768   5.107   2.977
 1629TIP3   OH2 4829   7.947   2.277   4.695
 1629TIP3    H1 4830   7.966   2.184   4.703
 1629TIP3    H2 4831   7.864   2.288   4.743
 1630TIP3   OH2 4832   0.546   5.480   1.487
 1630TIP3    H1 4833   0.527   5.494   1.580
 1630TIP3    H2 4834   0.468   5.514   1.442
 1631TIP3   OH2 4835   6.485   2.365   3.753
 1631TIP3    H1 4836   6.424   2.297   3.723
 1631TIP3    H2 4837   6.567   2.344   3.709
 1632TIP3   OH2 4838   4.925   1.650   3.717
 1632TIP3    H1 4839   4.844   1.617   3.757
 1632TIP3    H2 4840   4.943   1.589   3.646
 1633TIP3   OH2 4841   0.770   3.818   1.603
 1633TIP3    H1 4842   0.833   3.890   1.609
 1633TIP3    H2 4843   0.825   3.739   1.597
 1634TIP3   OH2 4844   6.085   1.702   4.792
 1634TIP3    H1 4845   6.007   1.743   4.829
 1634TIP3    H2 4846   6.067   1.697   4.698
 1635TIP3   OH2 4847   0.726   3.924   6.382
 1635TIP3    H1 4848   0.819   3.934   6.363
 1635TIP3    H2 4849   0.723   3.860   6.453
 1636TIP3   OH2 4850   5.439   6.933   1.641
 1636TIP3    H1 4851   5.491   7.001   1.683
 1636TIP3    H2 4852   5.502   6.864   1.619
 1637TIP3   OH2 4853   0.482   4.436   3.416
 1637TIP3    H1 4854   0.555   4.476   3.462
 1637TIP3    H2 4855   0.483   4.344   3.445
 1638TIP3   OH2 4856   5.997   2.700   2.379
 1638TIP3    H1 4857   5.954   2.766   2.435
 1638TIP3    H2 4858   5.956   2.617   2.404
 1639TIP3   OH2 4859   7.857   1.944   3.140
 1639TIP3    H1 4860   7.834   1.906   3.225
 1639TIP3    H2 4861   7.855   2.039   3.156
 1640TIP3   OH2 4862   1.041   4.933   3.396
 1640TIP3    H1 4863   1.042   4.840   3.417
 1640TIP3    H2 4864   0.962   4.967   3.439
 1641TIP3   OH2 4865   4.723   3.443   5.219
 1641TIP3    H1 4866   4.744   3.377   5.152
 1641TIP3    H2 4867   4.752   3.526   5.181
 1642TIP3   OH2 4868   5.173   6.728   0.386
 1642TIP3    H1 4869   5.167   6.660   0.318
 1642TIP3    H2 4870   5.174   6.679   0.468
 1643TIP3   OH2 4871   1.791   6.949   1.152
 1643TIP3    H1 4872   1.865   6.911   1.104
 1643TIP3    H2 4873   1.746   7.004   1.087
 1644TIP3   OH2 4874   6.060   0.882   5.688
 1644TIP3    H1 4875   5.993   0.941   5.654
 1644TIP3    H2 4876   6.130   0.940   5.718
 1645TIP3   OH2 4877   7.078   6.336   1.584
 1645TIP3    H1 4878   7.102   6.322   1.676
 1645TIP3    H2 4879   7.001   6.280   1.571
 1646TIP3   OH2 4880   8.105   4.584   4.540
 1646TIP3    H1 4881   8.017   4.618   4.554
 1646TIP3    H2 4882   8.092   4.493   4.515
 1647TIP3   OH2 4883   6.815   2.189   3.314
 1647TIP3    H1 4884   6.745   2.147   3.263
 1647TIP3    H2 4885   6.875   2.118   3.336
 1648TIP3   OH2 4886   1.883   3.760   1.291
 1648TIP3    H1 4887   1.940   3.792   1.360
 1648TIP3    H2 4888   1.796   3.794   1.314
 1649TIP3   OH2 4889   5.601   1.386   4.724
 1649TIP3    H1 4890   5.618   1.472   4.685
 1649TIP3    H2 4891   5.612   1.400   4.818
 1650TIP3   OH2 4892   3.860   0.315   2.467
 1650TIP3    H1 4893   3.831   0.304   2.558
 1650TIP3    H2 4894   3.785   0.284   2.415
 1651TIP3   OH2 4895   1.835   0.656   4.108
 1651TIP3    H1 4896   1.804   0.697   4.188
 1651TIP3    H2 4897   1.760   0.660   4.048
 1652TIP3   OH2 4898   6.160   3.301   1.579
 1652TIP3    H1 4899   6.083   3.349   1.607
 1652TIP3    H2 4900   6.128   3.214   1.555
 1653TIP3   OH2 4901   4.584   7.532   1.801
 1653TIP3    H1 4902   4.646   7.477   1.753
 1653TIP3    H2 4903   4.516   7.471   1.830
 1654TIP3   OH2 4904   2.575   6.613   1.150
 1654TIP3    H1 4905   2.597   6.521   1.142
 1654TIP3    H2 4906   2.479   6.616   1.140
 1655TIP3   OH2 4907   4.718   3.002   2.813
 1655TIP3    H1 4908   4.758   2.987   2.898
 1655TIP3    H2 4909   4.767   3.075   2.776
 1656TIP3   OH2 4910   3.377   3.685   4.430
 1656TIP3    H1 4911   3.456   3.710   4.477
 1656TIP3    H2 4912   3.318   3.650   4.497
 1657TIP3   OH2 4913   8.083   6.033   2.413
 1657TIP3    H1 4914   8.016   5.980   2.369
 1657TIP3    H2 4915   8.047   6.050   2.500
 1658TIP3   OH2 4916   6.738   6.720   0.742
 1658TIP3    H1 4917   6.665   6.707   0.803
 1658TIP3    H2 4918   6.713   6.669   0.665
 1659TIP3   OH2 4919   7.978   5.439   0.150
 1659TIP3    H1 4920   7.999   5.380   0.222
 1659TIP3    H2 4921   8.003   5.392   0.071
 1660TIP3   OH2 4922   0.681   6.686   5.651
 1660TIP3    H1 4923   0.749   6.753   5.647
 1660TIP3    H2 4924   0.684   6.644   5.565
 1661TIP3   OH2 4925   6.109   2.282   2.725
 1661TIP3    H1 4926   6.077   2.366   2.690
 1661TIP3    H2 4927   6.030   2.235   2.750
 1662TIP3   OH2 4928   7.977   1.924   6.671
 1662TIP3    H1 4929   7.990   1.882   6.756
 1662TIP3    H2 4930   7.921   1.999   6.689
 1663TIP3   OH2 4931   3.546   2.142   0.546
 1663TIP3    H1 4932   3.455   2.172   0.548
 1663TIP3    H2 4933   3.562   2.108   0.634
 1664TIP3   OH2 4934   7.935   7.508   0.448
 1664TIP3    H1 4935   7.878   7.541   0.378
 1664TIP3    H2 4936   7.955   7.418   0.422
 1665TIP3   OH2 4937   0.674   0.571   1.465
 1665TIP3    H1 4938   0.660   0.504   1.397
 1665TIP3    H2 4939   0.656   0.526   1.547
 1666TIP3   OH2 4940   3.614   5.141   4.159
 1666TIP3    H1 4941   3.560   5.145   4.238
 1666TIP3    H2 4942   3.559   5.179   4.090
 1667TIP3   OH2 4943   1.708   2.841   1.160
 1667TIP3    H1 4944   1.641   2.774   1.174
 1667TIP3    H2 4945   1.661   2.914   1.121
 1668TIP3   OH2 4946   0.964   6.998   1.357
 1668TIP3    H1 4947   0.914   6.918   1.335
 1668TIP3    H2 4948   1.014   7.018   1.277
 1669TIP3   OH2 4949   1.162   3.131   0.960
 1669TIP3    H1 4950   1.245   3.084   0.971
 1669TIP3    H2 4951   1.175   3.186   0.883
 1670TIP3   OH2 4952   2.197   0.428   3.609
 1670TIP3    H1 4953   2.286   0.425   3.575
 1670TIP3    H2 4954   2.169   0.336   3.611
 1671TIP3   OH2 4955   2.194   0.404   0.020
 1671TIP3    H1 4956   2.159   0.488  -0.008
 1671TIP3    H2 4957   2.136   0.377   0.091
 1672TIP3   OH2 4958   1.158   2.165   1.343
 1672TIP3    H1 4959   1.207   2.243   1.317
 1672TIP3    H2 4960   1.225   2.101   1.367
 1673TIP3   OH2 4961   6.480   6.234   0.423
 1673TIP3    H1 4962   6.570   6.267   0.431
 1673TIP3    H2 4963   6.483   6.173   0.350
 1674TIP3   OH2 4964   4.869   2.404   0.401
 1674TIP3    H1 4965   4.791   2.456   0.419
 1674TIP3    H2 4966   4.933   2.434   0.466
 1675TIP3   OH2 4967   3.493   7.129   2.544
 1675TIP3    H1 4968   3.568   7.148   2.488
 1675TIP3    H2 4969   3.464   7.215   2.576
 1676TIP3   OH2 4970   3.464   3.398   0.666
 1676TIP3    H1 4971   3.389   3.339   0.661
 1676TIP3    H2 4972   3.449   3.462   0.596
 1677TIP3   OH2 4973   4.786   1.293   4.874
 1677TIP3    H1 4974   4.833   1.277   4.793
 1677TIP3    H2 4975   4.782   1.208   4.917
 1678TIP3   OH2 4976   8.148   7.748   3.185
 1678TIP3    H1 4977   8.103   7.706   3.112
 1678TIP3    H2 4978   8.197   7.820   3.145
 1679TIP3   OH2 4979   2.441   6.536   6.556
 1679TIP3    H1 4980   2.525   6.495   6.537
 1679TIP3    H2 4981   2.446   6.559   6.649
 1680TIP3   OH2 4982   7.348   0.563   3.344
 1680TIP3    H1 4983   7.415   0.631   3.337
 1680TIP3    H2 4984   7.371   0.516   3.424
 1681TIP3   OH2 4985   1.001   4.514   4.297
 1681TIP3    H1 4986   1.002   4.575   4.371
 1681TIP3    H2 4987   0.924   4.459   4.313
 1682TIP3   OH2 4988   8.137   5.089   0.996
 1682TIP3    H1 4989   8.169   5.168   1.039
 1682TIP3    H2 4990   8.154   5.019   1.059
 1683TIP3   OH2 4991   1.463   4.518   6.452
 1683TIP3    H1 4992   1.458   4.430   6.490
 1683TIP3    H2 4993   1.388   4.564   6.489
 1684TIP3   OH2 4994   3.298   2.178   6.455
 1684TIP3    H1 4995   3.251   2.204   6.534
 1684TIP3    H2 4996   3.307   2.083   6.463
 1685TIP3   OH2 4997   1.226   4.774   0.369
 1685TIP3    H1 4998   1.271   4.857   0.386
 1685TIP3    H2 4999   1.212   4.737   0.456
 1686TIP3   OH2 5000   5.207   5.582   2.138
 1686TIP3    H1 5001   5.181   5.638   2.212
 1686TIP3    H2 5002   5.125   5.566   2.091
 1687TIP3   OH2 5003   1.934   2.969   6.116
 1687TIP3    H1 5004   1.864   2.918   6.074
 1687TIP3    H2 5005   1.909   2.971   6.209
 1688TIP3   OH2 5006   0.185   4.423   0.465
 1688TIP3    H1 5007   0.122   4.404   0.534
 1688TIP3    H2 5008   0.268   4.390   0.499
 1689TIP3   OH2 5009   1.752   6.358   2.261
 1689TIP3    H1 5010   1.772   6.447   2.234
 1689TIP3    H2 5011   1.776   6.356   2.354
 1690TIP3   OH2 5012   7.809   1.827   4.962
 1690TIP3    H1 5013   7.854   1.756   5.007
 1690TIP3    H2 5014   7.763   1.785   4.890
 1691TIP3   OH2 5015   7.867   2.154   5.977
 1691TIP3    H1 5016   7.869   2.216   6.050
 1691TIP3    H2 5017   7.835   2.205   5.903
 1692TIP3   OH2 5018   0.976   5.225   5.971
 1692TIP3    H1 5019   0.980   5.274   5.889
 1692TIP3    H2 5020   1.068   5.209   5.994
 1693TIP3   OH2 5021   3.770   0.677   4.483
 1693TIP3    H1 5022   3.799   0.726   4.561
 1693TIP3    H2 5023   3.851   0.645   4.444
 1694TIP3   OH2 5024   3.020   0.370   6.350
 1694TIP3    H1 5025   2.927   0.362   6.374
 1694TIP3    H2 5026   3.062   0.406   6.428
 1695TIP3   OH2 5027   1.438   2.922   3.968
 1695TIP3    H1 5028   1.413   2.893   3.881
 1695TIP3    H2 5029   1.492   2.851   4.003
 1696TIP3   OH2 5030   1.033   2.347   0.885
 1696TIP3    H1 5031   1.031   2.253   0.898
 1696TIP3    H2 5032   1.126   2.367   0.868
 1697TIP3   OH2 5033   2.596   7.266   1.297
 1697TIP3    H1 5034   2.686   7.255   1.327
 1697TIP3    H2 5035   2.604   7.302   1.209
 1698TIP3   OH2 5036   7.986   3.601   1.104
 1698TIP3    H1 5037   7.973   3.619   1.011
 1698TIP3    H2 5038   7.919   3.536   1.126
 1699TIP3   OH2 5039   7.229   1.363   1.486
 1699TIP3    H1 5040   7.314   1.391   1.519
 1699TIP3    H2 5041   7.249   1.312   1.407
 1700TIP3   OH2 5042   1.964   2.026   5.930
 1700TIP3    H1 5043   1.917   1.975   5.863
 1700TIP3    H2 5044   1.898   2.047   5.995
 1701TIP3   OH2 5045   6.726   7.601   3.247
 1701TIP3    H1 5046   6.705   7.516   3.208
 1701TIP3    H2 5047   6.810   7.587   3.290
 1702TIP3   OH2 5048   1.113   4.215   3.914
 1702TIP3    H1 5049   1.145   4.214   4.004
 1702TIP3    H2 5050   1.030   4.262   3.919
 1703TIP3   OH2 5051   1.531   7.034   0.108
 1703TIP3    H1 5052   1.589   7.093   0.060
 1703TIP3    H2 5053   1.469   7.004   0.041
 1704TIP3   OH2 5054   7.496   1.159   3.707
 1704TIP3    H1 5055   7.464   1.243   3.676
 1704TIP3    H2 5056   7.424   1.098   3.689
 1705TIP3   OH2 5057   3.331   5.339   1.759
 1705TIP3    H1 5058   3.378   5.344   1.843
 1705TIP3    H2 5059   3.395   5.369   1.694
 1706TIP3   OH2 5060   5.096   1.025   1.040
 1706TIP3    H1 5061   5.004   1.002   1.056
 1706TIP3    H2 5062   5.146   0.960   1.089
 1707TIP3   OH2 5063   8.256   7.013   2.458
 1707TIP3    H1 5064   8.176   6.980   2.419
 1707TIP3    H2 5065   8.242   7.005   2.553
 1708TIP3   OH2 5066   8.075   0.557   5.073
 1708TIP3    H1 5067   8.099   0.465   5.083
 1708TIP3    H2 5068   8.066   0.589   5.162
 1709TIP3   OH2 5069   1.032   1.822   3.168
 1709TIP3    H1 5070   0.940   1.809   3.146
 1709TIP3    H2 5071   1.049   1.760   3.239
 1710TIP3   OH2 5072   7.287   5.739   0.673
 1710TIP3    H1 5073   7.370   5.784   0.659
 1710TIP3    H2 5074   7.312   5.647   0.684
 1711TIP3   OH2 5075   0.490   3.480   0.638
 1711TIP3    H1 5076   0.575   3.523   0.642
 1711TIP3    H2 5077   0.471   3.472   0.545
 1712TIP3   OH2 5078   3.325   2.280   1.643
 1712TIP3    H1 5079   3.373   2.228   1.579
 1712TIP3    H2 5080   3.365   2.367   1.639
 1713TIP3   OH2 5081   6.112   3.355   2.319
 1713TIP3    H1 5082   6.070   3.410   2.385
 1713TIP3    H2 5083   6.096   3.400   2.236
 1714TIP3   OH2 5084   4.084   7.098   5.205
 1714TIP3    H1 5085   4.139   7.056   5.271
 1714TIP3    H2 5086   4.027   7.028   5.173
 1715TIP3   OH2 5087   7.693   4.585   1.429
 1715TIP3    H1 5088   7.620   4.528   1.406
 1715TIP3    H2 5089   7.717   4.559   1.518
 1716TIP3   OH2 5090   0.139   4.910   6.741
 1716TIP3    H1 5091   0.225   4.878   6.714
 1716TIP3    H2 5092   0.149   5.005   6.746
 1717TIP3   OH2 5093   1.427   7.288   1.910
 1717TIP3    H1 5094   1.349   7.344   1.906
 1717TIP3    H2 5095   1.473   7.304   1.828
 1718TIP3   OH2 5096   6.269   2.445   2.361
 1718TIP3    H1 5097   6.228   2.474   2.279
 1718TIP3    H2 5098   6.306   2.525   2.399
 1719TIP3   OH2 5099   2.135   1.585   1.262
 1719TIP3    H1 5100   2.052   1.556   1.224
 1719TIP3    H2 5101   2.110   1.636   1.339
 1720TIP3   OH2 5102   1.685   3.380   5.036
 1720TIP3    H1 5103   1.702   3.286   5.043
 1720TIP3    H2 5104   1.638   3.403   5.116
 1721TIP3   OH2 5105   3.760   0.192   3.983
 1721TIP3    H1 5106   3.680   0.157   4.022
 1721TIP3    H2 5107   3.735   0.278   3.950
 1722TIP3   OH2 5108   7.868   3.806   3.147
 1722TIP3    H1 5109   7.872   3.711   3.163
 1722TIP3    H2 5110   7.925   3.820   3.072
 1723TIP3   OH2 5111   5.180   7.333   0.166
 1723TIP3    H1 5112   5.236   7.278   0.221
 1723TIP3    H2 5113   5.176   7.287   0.082
 1724TIP3   OH2 5114   7.324   4.081   4.708
 1724TIP3    H1 5115   7.367   4.167   4.704
 1724TIP3    H2 5116   7.239   4.099   4.748
 1725TIP3   OH2 5117   6.212   3.731   4.416
 1725TIP3    H1 5118   6.143   3.779   4.370
 1725TIP3    H2 5119   6.269   3.698   4.346
 1726TIP3   OH2 5120   4.617   1.805   3.890
 1726TIP3    H1 5121   4.560   1.742   3.934
 1726TIP3    H2 5122   4.642   1.762   3.808
 1727TIP3   OH2 5123   6.185   1.063   1.142
 1727TIP3    H1 5124   6.276   1.079   1.114
 1727TIP3    H2 5125   6.155   0.993   1.085
 1728TIP3   OH2 5126   0.459   0.815   3.064
 1728TIP3    H1 5127   0.480   0.877   2.994
 1728TIP3    H2 5128   0.405   0.864   3.125
 1729TIP3   OH2 5129   0.979   4.193   3.422
 1729TIP3    H1 5130   0.961   4.242   3.341
 1729TIP3    H2 5131   0.975   4.259   3.491
 1730TIP3   OH2 5132   2.302   0.772   2.159
 1730TIP3    H1 5133   2.218   0.768   2.204
 1730TIP3    H2 5134   2.286   0.731   2.074
 1731TIP3   OH2 5135   1.327   6.493   4.210
 1731TIP3    H1 5136   1.234   6.507   4.228
 1731TIP3    H2 5137   1.340   6.524   4.121
 1732TIP3   OH2 5138   4.836   4.770   2.379
 1732TIP3    H1 5139   4.831   4.678   2.354
 1732TIP3    H2 5140   4.915   4.775   2.433
 1733TIP3   OH2 5141   2.215   1.111   4.327
 1733TIP3    H1 5142   2.226   1.039   4.265
 1733TIP3    H2 5143   2.177   1.182   4.275
 1734TIP3   OH2 5144   1.504   1.441   2.703
 1734TIP3    H1 5145   1.522   1.358   2.659
 1734TIP3    H2 5146   1.484   1.502   2.632
 1735TIP3   OH2 5147   7.934   2.834   0.563
 1735TIP3    H1 5148   7.861   2.776   0.539
 1735TIP3    H2 5149   7.937   2.829   0.658
 1736TIP3   OH2 5150   7.244   6.572   0.263
 1736TIP3    H1 5151   7.197   6.603   0.185
 1736TIP3    H2 5152   7.320   6.630   0.270
 1737TIP3   OH2 5153   3.709   6.357   2.148
 1737TIP3    H1 5154   3.750   6.278   2.183
 1737TIP3    H2 5155   3.729   6.425   2.212
 1738TIP3   OH2 5156   4.966   7.356   4.206
 1738TIP3    H1 5157   4.887   7.378   4.256
 1738TIP3    H2 5158   5.009   7.441   4.192
 1739TIP3   OH2 5159   4.634   3.635   3.453
 1739TIP3    H1 5160   4.683   3.588   3.385
 1739TIP3    H2 5161   4.578   3.568   3.492
 1740TIP3   OH2 5162   1.572   2.017   1.657
 1740TIP3    H1 5163   1.650   1.975   1.620
 1740TIP3    H2 5164   1.566   2.101   1.612
 1741TIP3   OH2 5165   5.415   0.295   3.070
 1741TIP3    H1 5166   5.473   0.328   3.139
 1741TIP3    H2 5167   5.327   0.318   3.099
 1742TIP3   OH2 5168   7.390   5.590   6.528
 1742TIP3    H1 5169   7.416   5.678   6.501
 1742TIP3    H2 5170   7.319   5.604   6.591
 1743TIP3   OH2 5171   2.083   5.350   4.633
 1743TIP3    H1 5172   2.085   5.307   4.547
 1743TIP3    H2 5173   2.069   5.442   4.613
 1744TIP3   OH2 5174   7.372   7.486   0.944
 1744TIP3    H1 5175   7.338   7.472   0.856
 1744TIP3    H2 5176   7.460   7.523   0.930
 1745TIP3   OH2 5177   4.389   5.863   3.355
 1745TIP3    H1 5178   4.401   5.832   3.265
 1745TIP3    H2 5179   4.369   5.784   3.405
 1746TIP3   OH2 5180   6.625   6.982   5.061
 1746TIP3    H1 5181   6.529   6.989   5.057
 1746TIP3    H2 5182   6.648   7.017   5.147
 1747TIP3   OH2 5183   3.480   0.578   1.298
 1747TIP3    H1 5184   3.442   0.555   1.214
 1747TIP3    H2 5185   3.567   0.612   1.276
 1748TIP3   OH2 5186   3.901   7.439   3.963
 1748TIP3    H1 5187   3.929   7.395   3.883
 1748TIP3    H2 5188   3.844   7.510   3.933
 1749TIP3   OH2 5189   7.946   0.754   2.892
 1749TIP3    H1 5190   7.956   0.845   2.866
 1749TIP3    H2 5191   8.035   0.725   2.912
 1750TIP3   OH2 5192   2.606   5.929   5.993
 1750TIP3    H1 5193   2.673   5.883   6.042
 1750TIP3    H2 5194   2.572   5.864   5.932
 1751TIP3   OH2 5195   0.337   0.728   2.243
 1751TIP3    H1 5196   0.275   0.698   2.309
 1751TIP3    H2 5197   0.420   0.738   2.290
 1752TIP3   OH2 5198   4.338   1.206   3.309
 1752TIP3    H1 5199   4.397   1.272   3.344
 1752TIP3    H2 5200   4.362   1.198   3.217
 1753TIP3   OH2 5201   1.359   4.466   5.218
 1753TIP3    H1 5202   1.360   4.375   5.188
 1753TIP3    H2 5203   1.302   4.511   5.155
 1754TIP3   OH2 5204   8.270   7.479   3.581
 1754TIP3    H1 5205   8.253   7.451   3.671
 1754TIP3    H2 5206   8.220   7.560   3.572
 1755TIP3   OH2 5207   4.756   1.543   2.273
 1755TIP3    H1 5208   4.821   1.572   2.209
 1755TIP3    H2 5209   4.805   1.535   2.355
 1756TIP3   OH2 5210   0.913   3.510   0.932
 1756TIP3    H1 5211   0.953   3.428   0.960
 1756TIP3    H2 5212   0.920   3.509   0.837
 1757TIP3   OH2 5213   2.871   1.648   6.284
 1757TIP3    H1 5214   2.827   1.566   6.266
 1757TIP3    H2 5215   2.844   1.672   6.373
 1758TIP3   OH2 5216   5.948   2.999   4.093
 1758TIP3    H1 5217   5.950   3.082   4.141
 1758TIP3    H2 5218   5.858   2.968   4.102
 1759TIP3   OH2 5219   1.042   3.891   5.857
 1759TIP3    H1 5220   1.008   3.980   5.849
 1759TIP3    H2 5221   1.107   3.884   5.787
 1760TIP3   OH2 5222   0.656   6.646   2.134
 1760TIP3    H1 5223   0.613   6.722   2.096
 1760TIP3    H2 5224   0.689   6.677   2.218
 1761TIP3   OH2 5225   6.648   2.612   5.466
 1761TIP3    H1 5226   6.618   2.641   5.552
 1761TIP3    H2 5227   6.693   2.688   5.429
 1762TIP3   OH2 5228   0.900   2.816   3.889
 1762TIP3    H1 5229   0.936   2.738   3.932
 1762TIP3    H2 5230   0.954   2.828   3.811
 1763TIP3   OH2 5231   5.465   0.600   4.336
 1763TIP3    H1 5232   5.555   0.632   4.339
 1763TIP3    H2 5233   5.461   0.546   4.257
 1764TIP3   OH2 5234   8.256   0.186   1.133
 1764TIP3    H1 5235   8.237   0.169   1.225
 1764TIP3    H2 5236   8.351   0.194   1.129
 1765TIP3   OH2 5237   0.156   0.586   5.662
 1765TIP3    H1 5238   0.244   0.609   5.691
 1765TIP3    H2 5239   0.106   0.574   5.743
 1766TIP3   OH2 5240   4.571   4.682   3.807
 1766TIP3    H1 5241   4.636   4.695   3.876
 1766TIP3    H2 5242   4.595   4.744   3.738
 1767TIP3   OH2 5243   3.180   5.545   5.250
 1767TIP3    H1 5244   3.087   5.564   5.238
 1767TIP3    H2 5245   3.195   5.561   5.343
 1768TIP3   OH2 5246   5.705   1.488   5.972
 1768TIP3    H1 5247   5.683   1.419   5.909
 1768TIP3    H2 5248   5.649   1.562   5.948
 1769TIP3   OH2 5249   4.168   3.605   0.371
 1769TIP3    H1 5250   4.259   3.575   0.378
 1769TIP3    H2 5251   4.175   3.699   0.356
 1770TIP3   OH2 5252   1.369   0.383   6.102
 1770TIP3    H1 5253   1.326   0.397   6.187
 1770TIP3    H2 5254   1.303   0.406   6.037
 1771TIP3   OH2 5255   2.244   5.270   4.303
 1771TIP3    H1 5256   2.189   5.220   4.243
 1771TIP3    H2 5257   2.223   5.362   4.285
 1772TIP3   OH2 5258   4.242   5.266   2.059
 1772TIP3    H1 5259   4.304   5.210   2.106
 1772TIP3    H2 5260   4.280   5.353   2.065
 1773TIP3   OH2 5261   3.745   0.867   1.415
 1773TIP3    H1 5262   3.806   0.888   1.344
 1773TIP3    H2 5263   3.663   0.844   1.370
 1774TIP3   OH2 5264   4.545   7.475   6.107
 1774TIP3    H1 5265   4.585   7.388   6.110
 1774TIP3    H2 5266   4.458   7.460   6.069
 1775TIP3   OH2 5267   7.712   2.253   3.708
 1775TIP3    H1 5268   7.737   2.185   3.772
 1775TIP3    H2 5269   7.617   2.253   3.709
 1776TIP3   OH2 5270   5.902   0.792   6.644
 1776TIP3    H1 5271   5.981   0.845   6.637
 1776TIP3    H2 5272   5.872   0.781   6.554
 1777TIP3   OH2 5273   2.265   1.106   6.480
 1777TIP3    H1 5274   2.191   1.049   6.461
 1777TIP3    H2 5275   2.228   1.195   6.477
 1778TIP3   OH2 5276   8.165   4.728   0.445
 1778TIP3    H1 5277   8.244   4.711   0.394
 1778TIP3    H2 5278   8.113   4.648   0.436
 1779TIP3   OH2 5279   4.982   0.899   2.607
 1779TIP3    H1 5280   4.951   0.810   2.593
 1779TIP3    H2 5281   4.906   0.954   2.588
 1780TIP3   OH2 5282   2.263   4.642   2.670
 1780TIP3    H1 5283   2.356   4.620   2.677
 1780TIP3    H2 5284   2.231   4.640   2.760
 1781TIP3   OH2 5285   3.751   2.248   5.504
 1781TIP3    H1 5286   3.789   2.211   5.424
 1781TIP3    H2 5287   3.732   2.339   5.482
 1782TIP3   OH2 5288   2.902   1.146   0.286
 1782TIP3    H1 5289   2.812   1.180   0.289
 1782TIP3    H2 5290   2.921   1.117   0.375
 1783TIP3   OH2 5291   2.160   0.470   3.215
 1783TIP3    H1 5292   2.068   0.475   3.190
 1783TIP3    H2 5293   2.171   0.541   3.279
 1784TIP3   OH2 5294   1.704   3.570   4.357
 1784TIP3    H1 5295   1.629   3.531   4.313
 1784TIP3    H2 5296   1.776   3.510   4.338
 1785TIP3   OH2 5297   5.262   3.054   4.267
 1785TIP3    H1 5298   5.248   3.098   4.183
 1785TIP3    H2 5299   5.331   3.106   4.310
 1786TIP3   OH2 5300   3.155   3.446   2.302
 1786TIP3    H1 5301   3.211   3.501   2.357
 1786TIP3    H2 5302   3.168   3.357   2.334
 1787TIP3   OH2 5303   2.428   6.554   2.283
 1787TIP3    H1 5304   2.508   6.602   2.305
 1787TIP3    H2 5305   2.369   6.621   2.250
 1788TIP3   OH2 5306   2.058   2.051   2.497
 1788TIP3    H1 5307   1.996   2.115   2.531
 1788TIP3    H2 5308   2.119   2.103   2.444
 1789TIP3   OH2 5309   6.955   7.511   1.071
 1789TIP3    H1 5310   6.881   7.451   1.068
 1789TIP3    H2 5311   6.988   7.513   0.981
 1790TIP3   OH2 5312   2.293   6.362   3.880
 1790TIP3    H1 5313   2.374   6.321   3.850
 1790TIP3    H2 5314   2.309   6.456   3.871
 1791TIP3   OH2 5315   6.982   1.406   6.014
 1791TIP3    H1 5316   7.043   1.430   6.084
 1791TIP3    H2 5317   6.907   1.368   6.060
 1792TIP3   OH2 5318   6.645   2.133   1.406
 1792TIP3    H1 5319   6.580   2.151   1.338
 1792TIP3    H2 5320   6.593   2.106   1.482
 1793TIP3   OH2 5321   7.486   2.691   3.626
 1793TIP3    H1 5322   7.494   2.666   3.717
 1793TIP3    H2 5323   7.445   2.615   3.583
 1794TIP3   OH2 5324   1.224   1.166   5.766
 1794TIP3    H1 5325   1.281   1.089   5.758
 1794TIP3    H2 5326   1.284   1.240   5.765
 1795TIP3   OH2 5327   6.599   3.698   1.397
 1795TIP3    H1 5328   6.505   3.700   1.383
 1795TIP3    H2 5329   6.617   3.774   1.453
 1796TIP3   OH2 5330   3.172   2.366   3.626
 1796TIP3    H1 5331   3.128   2.449   3.642
 1796TIP3    H2 5332   3.120   2.323   3.558
 1797TIP3   OH2 5333   1.446   0.693   3.361
 1797TIP3    H1 5334   1.439   0.697   3.457
 1797TIP3    H2 5335   1.455   0.784   3.334
 1798TIP3   OH2 5336   3.416   5.836   1.007
 1798TIP3    H1 5337   3.484   5.769   1.006
 1798TIP3    H2 5338   3.460   5.915   0.975
 1799TIP3   OH2 5339   2.481   0.048   5.547
 1799TIP3    H1 5340   2.530   0.068   5.467
 1799TIP3    H2 5341   2.527   0.096   5.616
 1800TIP3   OH2 5342   7.804   3.989   6.299
 1800TIP3    H1 5343   7.746   4.065   6.298
 1800TIP3    H2 5344   7.861   4.002   6.223
 1801TIP3   OH2 5345   6.907   7.489   3.440
 1801TIP3    H1 5346   6.897   7.560   3.503
 1801TIP3    H2 5347   6.906   7.409   3.493
 1802TIP3   OH2 5348   2.050   2.973   0.312
 1802TIP3    H1 5349   2.084   2.886   0.292
 1802TIP3    H2 5350   2.025   3.009   0.227
 1803TIP3   OH2 5351   7.205   4.717   0.515
 1803TIP3    H1 5352   7.277   4.717   0.452
 1803TIP3    H2 5353   7.242   4.681   0.595
 1804TIP3   OH2 5354   5.930   4.143   5.488
 1804TIP3    H1 5355   5.947   4.165   5.396
 1804TIP3    H2 5356   5.842   4.179   5.505
 1805TIP3   OH2 5357   4.539   3.948   6.014
 1805TIP3    H1 5358   4.479   3.912   6.078
 1805TIP3    H2 5359   4.483   3.978   5.942
 1806TIP3   OH2 5360   7.431   2.696   1.415
 1806TIP3    H1 5361   7.373   2.626   1.386
 1806TIP3    H2 5362   7.372   2.765   1.445
 1807TIP3   OH2 5363   6.278   4.982   1.439
 1807TIP3    H1 5364   6.300   5.032   1.518
 1807TIP3    H2 5365   6.190   4.947   1.457
 1808TIP3   OH2 5366   0.097   0.291   2.193
 1808TIP3    H1 5367   0.179   0.319   2.234
 1808TIP3    H2 5368   0.033   0.292   2.264
 1809TIP3   OH2 5369   4.237   6.395   1.449
 1809TIP3    H1 5370   4.152   6.406   1.407
 1809TIP3    H2 5371   4.292   6.356   1.381
 1810TIP3   OH2 5372   1.038   5.029   2.271
 1810TIP3    H1 5373   1.133   5.021   2.259
 1810TIP3    H2 5374   1.010   5.086   2.199
 1811TIP3   OH2 5375   4.415   0.382   1.341
 1811TIP3    H1 5376   4.339   0.355   1.392
 1811TIP3    H2 5377   4.435   0.470   1.371
 1812TIP3   OH2 5378   0.917   4.645   3.103
 1812TIP3    H1 5379   0.997   4.682   3.140
 1812TIP3    H2 5380   0.937   4.635   3.010
 1813TIP3   OH2 5381   4.449   3.186   4.661
 1813TIP3    H1 5382   4.458   3.172   4.755
 1813TIP3    H2 5383   4.355   3.195   4.647
 1814TIP3   OH2 5384   3.339   0.818   3.239
 1814TIP3    H1 5385   3.274   0.886   3.223
 1814TIP3    H2 5386   3.357   0.823   3.333
 1815TIP3   OH2 5387   4.957   1.935   0.276
 1815TIP3    H1 5388   4.928   2.026   0.267
 1815TIP3    H2 5389   5.034   1.939   0.332
 1816TIP3   OH2 5390   8.054   1.323   4.270
 1816TIP3    H1 5391   8.077   1.308   4.178
 1816TIP3    H2 5392   8.113   1.265   4.319
 1817TIP3   OH2 5393   5.361   1.174   3.642
 1817TIP3    H1 5394   5.316   1.124   3.710
 1817TIP3    H2 5395   5.361   1.264   3.674
 1818TIP3   OH2 5396   5.322   2.661   3.542
 1818TIP3    H1 5397   5.329   2.567   3.526
 1818TIP3    H2 5398   5.407   2.685   3.578
 1819TIP3   OH2 5399   1.121   0.907   5.451
 1819TIP3    H1 5400   1.161   0.824   5.427
 1819TIP3    H2 5401   1.069   0.932   5.375
 1820TIP3   OH2 5402   7.512   0.315   5.266
 1820TIP3    H1 5403   7.435   0.359   5.230
 1820TIP3    H2 5404   7.500   0.223   5.241
 1821TIP3   OH2 5405   5.040   4.059   6.262
 1821TIP3    H1 5406   5.078   3.978   6.296
 1821TIP3    H2 5407   4.954   4.033   6.230
 1822TIP3   OH2 5408   1.578   3.870   6.197
 1822TIP3    H1 5409   1.506   3.812   6.222
 1822TIP3    H2 5410   1.583   3.934   6.268
 1823TIP3   OH2 5411   1.724   2.684   1.963
 1823TIP3    H1 5412   1.718   2.720   2.052
 1823TIP3    H2 5413   1.677   2.601   1.967
 1824TIP3   OH2 5414   2.982   5.529   3.595
 1824TIP3    H1 5415   3.051   5.477   3.554
 1824TIP3    H2 5416   3.008   5.537   3.686
 1825TIP3   OH2 5417   0.533   6.595   3.153
 1825TIP3    H1 5418   0.517   6.658   3.082
 1825TIP3    H2 5419   0.455   6.539   3.154
 1826TIP3   OH2 5420   1.490   4.572   2.906
 1826TIP3    H1 5421   1.468   4.662   2.880
 1826TIP3    H2 5422   1.417   4.520   2.872
 1827TIP3   OH2 5423   7.404   3.276   4.186
 1827TIP3    H1 5424   7.392   3.182   4.174
 1827TIP3    H2 5425   7.497   3.287   4.202
 1828TIP3   OH2 5426   2.449   5.767   6.597
 1828TIP3    H1 5427   2.534   5.724   6.585
 1828TIP3    H2 5428   2.421   5.743   6.685
 1829TIP3   OH2 5429   4.915   7.411   0.260
 1829TIP3    H1 5430   4.954   7.325   0.244
 1829TIP3    H2 5431   4.989   7.467   0.284
 1830TIP3   OH2 5432   5.118   7.573   0.359
 1830TIP3    H1 5433   5.151   7.526   0.282
 1830TIP3    H2 5434   5.186   7.561   0.425
 1831TIP3   OH2 5435   4.976   5.221   2.148
 1831TIP3    H1 5436   4.966   5.257   2.236
 1831TIP3    H2 5437   5.061   5.177   2.149
 1832TIP3   OH2 5438   7.833   1.767   0.074
 1832TIP3    H1 5439   7.813   1.676   0.096
 1832TIP3    H2 5440   7.749   1.803   0.044
 1833TIP3   OH2 5441   0.586   0.632   1.991
 1833TIP3    H1 5442   0.537   0.684   2.055
 1833TIP3    H2 5443   0.524   0.618   1.919
 1834TIP3   OH2 5444   3.486   5.120   4.719
 1834TIP3    H1 5445   3.412   5.071   4.754
 1834TIP3    H2 5446   3.467   5.212   4.739
 1835TIP3   OH2 5447   6.334   1.373   4.526
 1835TIP3    H1 5448   6.259   1.317   4.548
 1835TIP3    H2 5449   6.306   1.421   4.448
 1836TIP3   OH2 5450   4.634   0.331   6.505
 1836TIP3    H1 5451   4.666   0.373   6.426
 1836TIP3    H2 5452   4.713   0.305   6.552
 1837TIP3   OH2 5453   1.046   2.972   5.145
 1837TIP3    H1 5454   1.013   2.888   5.179
 1837TIP3    H2 5455   1.049   3.029   5.221
 1838TIP3   OH2 5456   3.413   7.640   5.446
 1838TIP3    H1 5457   3.359   7.569   5.480
 1838TIP3    H2 5458   3.365   7.672   5.370
 1839TIP3   OH2 5459   3.382   6.073   0.440
 1839TIP3    H1 5460   3.374   6.168   0.450
 1839TIP3    H2 5461   3.385   6.040   0.530
 1840TIP3   OH2 5462   5.580   1.286   5.258
 1840TIP3    H1 5463   5.594   1.283   5.352
 1840TIP3    H2 5464   5.492   1.248   5.245
 1841TIP3   OH2 5465   0.069   2.294   3.014
 1841TIP3    H1 5466   0.091   2.249   3.096
 1841TIP3    H2 5467   0.013   2.367   3.041
 1842TIP3   OH2 5468   3.875   4.506   2.833
 1842TIP3    H1 5469   3.829   4.454   2.899
 1842TIP3    H2 5470   3.825   4.494   2.753
 1843TIP3   OH2 5471   4.788   2.115   2.096
 1843TIP3    H1 5472   4.699   2.124   2.132
 1843TIP3    H2 5473   4.794   2.024   2.069
 1844TIP3   OH2 5474   7.514   3.865   6.423
 1844TIP3    H1 5475   7.445   3.803   6.401
 1844TIP3    H2 5476   7.525   3.919   6.345
 1845TIP3   OH2 5477   6.073   5.903   3.523
 1845TIP3    H1 5478   6.032   5.977   3.478
 1845TIP3    H2 5479   6.021   5.891   3.602
 1846TIP3   OH2 5480   3.603   2.401   4.403
 1846TIP3    H1 5481   3.541   2.426   4.472
 1846TIP3    H2 5482   3.687   2.434   4.433
 1847TIP3   OH2 5483   6.034   0.557   2.801
 1847TIP3    H1 5484   6.068   0.494   2.738
 1847TIP3    H2 5485   6.072   0.641   2.775
 1848TIP3   OH2 5486   7.581   5.216   4.075
 1848TIP3    H1 5487   7.543   5.304   4.076
 1848TIP3    H2 5488   7.632   5.211   4.156
 1849TIP3   OH2 5489   5.393   4.085   2.119
 1849TIP3    H1 5490   5.462   4.151   2.125
 1849TIP3    H2 5491   5.433   4.005   2.152
 1850TIP3   OH2 5492   1.843   0.299   5.691
 1850TIP3    H1 5493   1.928   0.271   5.657
 1850TIP3    H2 5494   1.852   0.295   5.786
 1851TIP3   OH2 5495   5.138   2.499   2.839
 1851TIP3    H1 5496   5.122   2.429   2.902
 1851TIP3    H2 5497   5.085   2.475   2.763
 1852TIP3   OH2 5498   1.737   1.097   0.548
 1852TIP3    H1 5499   1.721   1.002   0.548
 1852TIP3    H2 5500   1.789   1.113   0.627
 1853TIP3   OH2 5501   1.704   5.001   1.016
 1853TIP3    H1 5502   1.770   5.041   1.073
 1853TIP3    H2 5503   1.623   5.003   1.067
 1854TIP3   OH2 5504   6.165   5.266   1.177
 1854TIP3    H1 5505   6.167   5.359   1.153
 1854TIP3    H2 5506   6.136   5.265   1.268
 1855TIP3   OH2 5507   7.306   7.466   3.029
 1855TIP3    H1 5508   7.247   7.517   3.085
 1855TIP3    H2 5509   7.389   7.513   3.033
 1856TIP3   OH2 5510   5.503   4.458   0.660
 1856TIP3    H1 5511   5.414   4.486   0.640
 1856TIP3    H2 5512   5.494   4.370   0.696
 1857TIP3   OH2 5513   5.463   0.555   5.248
 1857TIP3    H1 5514   5.490   0.567   5.157
 1857TIP3    H2 5515   5.368   0.549   5.245
 1858TIP3   OH2 5516   0.096   3.843   0.550
 1858TIP3    H1 5517   0.184   3.872   0.575
 1858TIP3    H2 5518   0.041   3.920   0.562
 1859TIP3   OH2 5519   0.188   7.544   4.925
 1859TIP3    H1 5520   0.144   7.486   4.863
 1859TIP3    H2 5521   0.279   7.513   4.927
 1860TIP3   OH2 5522   5.585   2.271   1.370
 1860TIP3    H1 5523   5.602   2.325   1.448
 1860TIP3    H2 5524   5.502   2.306   1.336
 1861TIP3   OH2 5525   1.545   4.517   4.730
 1861TIP3    H1 5526   1.585   4.597   4.695
 1861TIP3    H2 5527   1.451   4.531   4.721
 1862TIP3   OH2 5528   7.009   0.881   5.292
 1862TIP3    H1 5529   7.064   0.959   5.281
 1862TIP3    H2 5530   6.934   0.912   5.343
 1863TIP3   OH2 5531   7.507   2.447   5.115
 1863TIP3    H1 5532   7.533   2.467   5.205
 1863TIP3    H2 5533   7.553   2.511   5.061
 1864TIP3   OH2 5534   2.786   3.953   6.358
 1864TIP3    H1 5535   2.744   3.948   6.273
 1864TIP3    H2 5536   2.868   3.999   6.342
 1865TIP3   OH2 5537   2.366   6.582   3.544
 1865TIP3    H1 5538   2.400   6.589   3.633
 1865TIP3    H2 5539   2.434   6.621   3.489
 1866TIP3   OH2 5540   0.398   5.378   4.259
 1866TIP3    H1 5541   0.382   5.444   4.191
 1866TIP3    H2 5542   0.491   5.389   4.282
 1867TIP3   OH2 5543   5.342   3.694   3.586
 1867TIP3    H1 5544   5.381   3.719   3.502
 1867TIP3    H2 5545   5.415   3.690   3.647
 1868TIP3   OH2 5546   6.967   2.506   0.405
 1868TIP3    H1 5547   7.031   2.441   0.375
 1868TIP3    H2 5548   6.885   2.456   0.414
 1869TIP3   OH2 5549   0.915   3.907   3.770
 1869TIP3    H1 5550   0.932   3.816   3.795
 1869TIP3    H2 5551   0.895   3.951   3.853
 1870TIP3   OH2 5552   1.469   0.883   6.361
 1870TIP3    H1 5553   1.544   0.842   6.318
 1870TIP3    H2 5554   1.395   0.826   6.339
 1871TIP3   OH2 5555   6.006   7.387   0.328
 1871TIP3    H1 5556   5.980   7.320   0.391
 1871TIP3    H2 5557   6.097   7.407   0.349
 1872TIP3   OH2 5558   0.525   0.204   2.844
 1872TIP3    H1 5559   0.605   0.169   2.804
 1872TIP3    H2 5560   0.554   0.278   2.897
 1873TIP3   OH2 5561   2.789   4.873   2.864
 1873TIP3    H1 5562   2.753   4.900   2.779
 1873TIP3    H2 5563   2.775   4.778   2.866
 1874TIP3   OH2 5564   7.652   7.046   1.678
 1874TIP3    H1 5565   7.557   7.043   1.665
 1874TIP3    H2 5566   7.662   7.080   1.767
 1875TIP3   OH2 5567   2.563   5.354   2.651
 1875TIP3    H1 5568   2.506   5.333   2.577
 1875TIP3    H2 5569   2.650   5.366   2.612
 1876TIP3   OH2 5570   7.228   2.617   0.263
 1876TIP3    H1 5571   7.231   2.703   0.305
 1876TIP3    H2 5572   7.299   2.568   0.304
 1877TIP3   OH2 5573   0.114   5.454   4.254
 1877TIP3    H1 5574   0.201   5.415   4.260
 1877TIP3    H2 5575   0.124   5.542   4.289
 1878TIP3   OH2 5576   6.081   5.316   5.432
 1878TIP3    H1 5577   6.134   5.324   5.512
 1878TIP3    H2 5578   5.996   5.283   5.463
 1879TIP3   OH2 5579   2.413   7.786   5.195
 1879TIP3    H1 5580   2.429   7.717   5.131
 1879TIP3    H2 5581   2.388   7.740   5.275
 1880TIP3   OH2 5582   7.877   5.156   4.634
 1880TIP3    H1 5583   7.812   5.195   4.691
 1880TIP3    H2 5584   7.951   5.216   4.636
 1881TIP3   OH2 5585   0.394   6.377   3.223
 1881TIP3    H1 5586   0.405   6.439   3.295
 1881TIP3    H2 5587   0.300   6.360   3.221
 1882TIP3   OH2 5588   0.553   3.188   2.048
 1882TIP3    H1 5589   0.551   3.152   2.136
 1882TIP3    H2 5590   0.537   3.282   2.060
 1883TIP3   OH2 5591   4.156   1.392   3.960
 1883TIP3    H1 5592   4.107   1.423   4.036
 1883TIP3    H2 5593   4.242   1.432   3.968
 1884TIP3   OH2 5594   7.051   6.197   0.819
 1884TIP3    H1 5595   7.079   6.150   0.898
 1884TIP3    H2 5596   7.095   6.150   0.747
 1885TIP3   OH2 5597   6.831   6.705   1.395
 1885TIP3    H1 5598   6.850   6.780   1.452
 1885TIP3    H2 5599   6.744   6.676   1.422
 1886TIP3   OH2 5600   0.079   3.178   4.064
 1886TIP3    H1 5601   0.104   3.198   4.154
 1886TIP3    H2 5602   0.062   3.084   4.064
 1887TIP3   OH2 5603   4.600   2.467   2.693
 1887TIP3    H1 5604   4.588   2.464   2.598
 1887TIP3    H2 5605   4.541   2.536   2.722
 1888TIP3   OH2 5606   0.312   2.480   0.750
 1888TIP3    H1 5607   0.383   2.417   0.735
 1888TIP3    H2 5608   0.256   2.471   0.673
 1889TIP3   OH2 5609   0.399   0.304   1.832
 1889TIP3    H1 5610   0.410   0.210   1.843
 1889TIP3    H2 5611   0.421   0.320   1.740
 1890TIP3   OH2 5612   1.391   0.906   6.636
 1890TIP3    H1 5613   1.386   0.997   6.666
 1890TIP3    H2 5614   1.434   0.911   6.551
 1891TIP3   OH2 5615   3.036   3.655   2.919
 1891TIP3    H1 5616   3.083   3.663   3.002
 1891TIP3    H2 5617   3.012   3.562   2.914
 1892TIP3   OH2 5618   0.151   4.579   3.116
 1892TIP3    H1 5619   0.197   4.586   3.200
 1892TIP3    H2 5620   0.219   4.559   3.053
 1893TIP3   OH2 5621   7.365   1.061   4.844
 1893TIP3    H1 5622   7.291   1.005   4.866
 1893TIP3    H2 5623   7.341   1.147   4.879
 1894TIP3   OH2 5624   0.900   0.591   4.852
 1894TIP3    H1 5625   0.856   0.518   4.808
 1894TIP3    H2 5626   0.959   0.627   4.786
 1895TIP3   OH2 5627   5.300   2.211   2.414
 1895TIP3    H1 5628   5.213   2.204   2.374
 1895TIP3    H2 5629   5.285   2.191   2.507
 1896TIP3   OH2 5630   1.924   4.679   3.096
 1896TIP3    H1 5631   1.962   4.612   3.154
 1896TIP3    H2 5632   1.896   4.749   3.155
 1897TIP3   OH2 5633   1.324   3.832   5.952
 1897TIP3    H1 5634   1.412   3.802   5.974
 1897TIP3    H2 5635   1.277   3.753   5.927
 1898TIP3   OH2 5636   5.930   0.478   4.510
 1898TIP3    H1 5637   5.901   0.515   4.593
 1898TIP3    H2 5638   6.011   0.430   4.532
 1899TIP3   OH2 5639   2.006   2.666   0.245
 1899TIP3    H1 5640   2.076   2.629   0.192
 1899TIP3    H2 5641   1.932   2.606   0.233
 1900TIP3   OH2 5642   6.068   1.279   5.246
 1900TIP3    H1 5643   6.059   1.208   5.309
 1900TIP3    H2 5644   6.162   1.290   5.235
 1901TIP3   OH2 5645   5.121   5.376   4.419
 1901TIP3    H1 5646   5.092   5.419   4.339
 1901TIP3    H2 5647   5.159   5.293   4.390
 1902TIP3   OH2 5648   3.686   2.809   6.076
 1902TIP3    H1 5649   3.625   2.792   6.004
 1902TIP3    H2 5650   3.746   2.876   6.042
 1903TIP3   OH2 5651   4.849   1.081   4.023
 1903TIP3    H1 5652   4.791   1.157   4.016
 1903TIP3    H2 5653   4.902   1.098   4.101
 1904TIP3   OH2 5654   5.132   2.069   5.715
 1904TIP3    H1 5655   5.113   2.043   5.625
 1904TIP3    H2 5656   5.221   2.103   5.712
 1905TIP3   OH2 5657   5.322   3.584   0.553
 1905TIP3    H1 5658   5.413   3.598   0.529
 1905TIP3    H2 5659   5.307   3.643   0.627
 1906TIP3   OH2 5660   3.484   0.309   1.198
 1906TIP3    H1 5661   3.414   0.269   1.146
 1906TIP3    H2 5662   3.494   0.396   1.161
 1907TIP3   OH2 5663   7.823   7.009   4.754
 1907TIP3    H1 5664   7.849   7.088   4.706
 1907TIP3    H2 5665   7.729   7.019   4.768
 1908TIP3   OH2 5666   5.764   6.887   6.289
 1908TIP3    H1 5667   5.824   6.863   6.359
 1908TIP3    H2 5668   5.689   6.829   6.301
 1909TIP3   OH2 5669   7.446   2.487   6.317
 1909TIP3    H1 5670   7.384   2.457   6.250
 1909TIP3    H2 5671   7.397   2.483   6.399
 1910TIP3   OH2 5672   6.582   4.406   0.954
 1910TIP3    H1 5673   6.502   4.419   0.902
 1910TIP3    H2 5674   6.557   4.344   1.022
 1911TIP3   OH2 5675   6.046   1.941   0.430
 1911TIP3    H1 5676   6.019   2.012   0.372
 1911TIP3    H2 5677   6.078   1.984   0.508
 1912TIP3   OH2 5678   0.617   6.199   0.670
 1912TIP3    H1 5679   0.688   6.182   0.607
 1912TIP3    H2 5680   0.627   6.131   0.737
 1913TIP3   OH2 5681   4.978   6.040   5.248
 1913TIP3    H1 5682   4.926   6.110   5.289
 1913TIP3    H2 5683   4.954   5.961   5.297
 1914TIP3   OH2 5684   0.797   5.494   3.178
 1914TIP3    H1 5685   0.891   5.477   3.168
 1914TIP3    H2 5686   0.757   5.408   3.166
 1915TIP3   OH2 5687   6.312   6.943   4.090
 1915TIP3    H1 5688   6.325   6.848   4.083
 1915TIP3    H2 5689   6.226   6.958   4.051
 1916TIP3   OH2 5690   4.971   4.929   3.330
 1916TIP3    H1 5691   4.960   4.933   3.235
 1916TIP3    H2 5692   4.970   4.836   3.350
 1917TIP3   OH2 5693   7.823   5.918   5.289
 1917TIP3    H1 5694   7.857   5.883   5.371
 1917TIP3    H2 5695   7.747   5.863   5.268
 1918TIP3   OH2 5696   5.673   6.053   0.371
 1918TIP3    H1 5697   5.594   6.088   0.329
 1918TIP3    H2 5698   5.657   6.061   0.465
 1919TIP3   OH2 5699   2.680   6.490   0.197
 1919TIP3    H1 5700   2.664   6.468   0.105
 1919TIP3    H2 5701   2.599   6.466   0.242
 1920TIP3   OH2 5702   5.294   5.872   3.596
 1920TIP3    H1 5703   5.308   5.883   3.690
 1920TIP3    H2 5704   5.298   5.961   3.561
 1921TIP3   OH2 5705   1.094   4.817   3.727
 1921TIP3    H1 5706   1.097   4.738   3.674
 1921TIP3    H2 5707   1.140   4.794   3.807
 1922TIP3   OH2 5708   3.167   4.050   4.353
 1922TIP3    H1 5709   3.213   4.080   4.431
 1922TIP3    H2 5710   3.231   4.060   4.282
 1923TIP3   OH2 5711   3.175   5.276   4.048
 1923TIP3    H1 5712   3.107   5.213   4.072
 1923TIP3    H2 5713   3.127   5.358   4.035
 1924TIP3   OH2 5714   4.385   5.826   2.125
 1924TIP3    H1 5715   4.302   5.795   2.160
 1924TIP3    H2 5716   4.428   5.748   2.090
 1925TIP3   OH2 5717   2.656   6.201   1.634
 1925TIP3    H1 5718   2.710   6.252   1.573
 1925TIP3    H2 5719   2.700   6.211   1.718
 1926TIP3   OH2 5720   6.132   1.325   6.423
 1926TIP3    H1 5721   6.078   1.374   6.485
 1926TIP3    H2 5722   6.220   1.331   6.459
 1927TIP3   OH2 5723   0.507   4.768   5.535
 1927TIP3    H1 5724   0.597   4.772   5.567
 1927TIP3    H2 5725   0.477   4.859   5.537
 1928TIP3   OH2 5726   1.247   0.842   0.326
 1928TIP3    H1 5727   1.227   0.814   0.415
 1928TIP3    H2 5728   1.266   0.760   0.279
 1929TIP3   OH2 5729   5.840   5.290   3.206
 1929TIP3    H1 5730   5.774   5.357   3.225
 1929TIP3    H2 5731   5.878   5.317   3.122
 1930TIP3   OH2 5732   6.188   7.722   5.997
 1930TIP3    H1 5733   6.124   7.716   6.068
 1930TIP3    H2 5734   6.139   7.761   5.924
 1931TIP3   OH2 5735   0.567   1.322   0.868
 1931TIP3    H1 5736   0.589   1.231   0.885
 1931TIP3    H2 5737   0.631   1.372   0.919
 1932TIP3   OH2 5738   1.642   4.203   1.440
 1932TIP3    H1 5739   1.687   4.287   1.427
 1932TIP3    H2 5740   1.554   4.219   1.406
 1933TIP3   OH2 5741   1.587   2.877   0.720
 1933TIP3    H1 5742   1.575   2.786   0.748
 1933TIP3    H2 5743   1.526   2.889   0.648
 1934TIP3   OH2 5744   6.280   6.846   4.394
 1934TIP3    H1 5745   6.279   6.843   4.298
 1934TIP3    H2 5746   6.362   6.805   4.419
 1935TIP3   OH2 5747   6.736   0.594   1.317
 1935TIP3    H1 5748   6.674   0.595   1.391
 1935TIP3    H2 5749   6.819   0.570   1.357
 1936TIP3   OH2 5750   3.900   5.038   6.133
 1936TIP3    H1 5751   3.850   5.051   6.213
 1936TIP3    H2 5752   3.839   4.996   6.072
 1937TIP3   OH2 5753   6.561   4.636   0.696
 1937TIP3    H1 5754   6.507   4.592   0.761
 1937TIP3    H2 5755   6.578   4.723   0.734
 1938TIP3   OH2 5756   5.149   2.392   0.988
 1938TIP3    H1 5757   5.236   2.356   1.003
 1938TIP3    H2 5758   5.155   2.483   1.017
 1939TIP3   OH2 5759   3.470   7.708   6.499
 1939TIP3    H1 5760   3.389   7.738   6.457
 1939TIP3    H2 5761   3.539   7.730   6.436
 1940TIP3   OH2 5762   1.314   7.722   4.146
 1940TIP3    H1 5763   1.325   7.786   4.076
 1940TIP3    H2 5764   1.343   7.768   4.225
 1941TIP3   OH2 5765   3.146   5.776   4.116
 1941TIP3    H1 5766   3.108   5.769   4.028
 1941TIP3    H2 5767   3.071   5.780   4.175
 1942TIP3   OH2 5768   1.044   5.503   2.430
 1942TIP3    H1 5769   1.105   5.430   2.439
 1942TIP3    H2 5770   1.075   5.551   2.353
 1943TIP3   OH2 5771   7.340   5.708   4.591
 1943TIP3    H1 5772   7.383   5.764   4.655
 1943TIP3    H2 5773   7.402   5.702   4.518
 1944TIP3   OH2 5774   3.692   3.498   3.241
 1944TIP3    H1 5775   3.621   3.549   3.202
 1944TIP3    H2 5776   3.663   3.407   3.234
 1945TIP3   OH2 5777   0.186   7.686   0.673
 1945TIP3    H1 5778   0.105   7.673   0.623
 1945TIP3    H2 5779   0.216   7.773   0.648
 1946TIP3   OH2 5780   1.199   1.063   1.659
 1946TIP3    H1 5781   1.245   1.098   1.735
 1946TIP3    H2 5782   1.166   1.141   1.613
 1947TIP3   OH2 5783   6.518   1.048   0.379
 1947TIP3    H1 5784   6.606   1.067   0.413
 1947TIP3    H2 5785   6.512   0.953   0.382
 1948TIP3   OH2 5786   1.927   0.875   1.097
 1948TIP3    H1 5787   1.848   0.825   1.074
 1948TIP3    H2 5788   1.997   0.832   1.048
 1949TIP3   OH2 5789   6.151   7.728   4.450
 1949TIP3    H1 5790   6.120   7.676   4.376
 1949TIP3    H2 5791   6.096   7.699   4.523
 1950TIP3   OH2 5792   5.757   6.658   5.772
 1950TIP3    H1 5793   5.778   6.742   5.812
 1950TIP3    H2 5794   5.731   6.680   5.682
 1951TIP3   OH2 5795   7.549   1.012   5.072
 1951TIP3    H1 5796   7.633   0.967   5.064
 1951TIP3    H2 5797   7.486   0.942   5.087
 1952TIP3   OH2 5798   6.278   7.413   5.248
 1952TIP3    H1 5799   6.287   7.319   5.267
 1952TIP3    H2 5800   6.216   7.417   5.175
 1953TIP3   OH2 5801   7.814   7.493   2.318
 1953TIP3    H1 5802   7.835   7.400   2.324
 1953TIP3    H2 5803   7.893   7.534   2.284
 1954TIP3   OH2 5804   6.772   3.834   5.446
 1954TIP3    H1 5805   6.803   3.808   5.359
 1954TIP3    H2 5806   6.776   3.754   5.498
 1955TIP3   OH2 5807   0.350   2.123   5.707
 1955TIP3    H1 5808   0.268   2.146   5.663
 1955TIP3    H2 5809   0.410   2.194   5.685
 1956TIP3   OH2 5810   2.955   1.189   1.575
 1956TIP3    H1 5811   2.899   1.262   1.602
 1956TIP3    H2 5812   2.895   1.122   1.544
 1957TIP3   OH2 5813   2.640   3.532   0.276
 1957TIP3    H1 5814   2.560   3.500   0.233
 1957TIP3    H2 5815   2.685   3.452   0.303
 1958TIP3   OH2 5816   2.641   2.067   5.989
 1958TIP3    H1 5817   2.591   2.004   5.937
 1958TIP3    H2 5818   2.728   2.068   5.949
 1959TIP3   OH2 5819   1.295   5.077   4.471
 1959TIP3    H1 5820   1.306   5.172   4.474
 1959TIP3    H2 5821   1.370   5.046   4.420
 1960TIP3   OH2 5822   5.012   1.854   1.159
 1960TIP3    H1 5823   5.076   1.883   1.093
 1960TIP3    H2 5824   5.005   1.927   1.220
 1961TIP3   OH2 5825   7.079   0.474   2.468
 1961TIP3    H1 5826   7.165   0.512   2.451
 1961TIP3    H2 5827   7.069   0.406   2.402
 1962TIP3   OH2 5828   7.283   2.183   4.709
 1962TIP3    H1 5829   7.333   2.126   4.767
 1962TIP3    H2 5830   7.341   2.257   4.692
 1963TIP3   OH2 5831   4.145   7.235   3.336
 1963TIP3    H1 5832   4.093   7.208   3.260
 1963TIP3    H2 5833   4.149   7.157   3.391
 1964TIP3   OH2 5834   7.757   0.830   5.130
 1964TIP3    H1 5835   7.780   0.787   5.047
 1964TIP3    H2 5836   7.840   0.834   5.178
 1965TIP3   OH2 5837   3.581   4.327   6.349
 1965TIP3    H1 5838   3.612   4.377   6.424
 1965TIP3    H2 5839   3.639   4.354   6.277
 1966TIP3   OH2 5840   6.004   6.438   0.202
 1966TIP3    H1 5841   6.070   6.476   0.261
 1966TIP3    H2 5842   5.925   6.434   0.254
 1967TIP3   OH2 5843   5.867   3.708   4.463
 1967TIP3    H1 5844   5.815   3.664   4.396
 1967TIP3    H2 5845   5.869   3.800   4.435
 1968TIP3   OH2 5846   5.914   7.223   5.403
 1968TIP3    H1 5847   5.853   7.203   5.473
 1968TIP3    H2 5848   5.926   7.318   5.407
 1969TIP3   OH2 5849   0.232   7.200   2.764
 1969TIP3    H1 5850   0.260   7.171   2.678
 1969TIP3    H2 5851   0.215   7.294   2.754
 1970TIP3   OH2 5852   7.277   5.935   3.098
 1970TIP3    H1 5853   7.202   5.967   3.049
 1970TIP3    H2 5854   7.298   5.850   3.060
 1971TIP3   OH2 5855   0.792   1.628   2.364
 1971TIP3    H1 5856   0.783   1.556   2.426
 1971TIP3    H2 5857   0.716   1.684   2.381
 1972TIP3   OH2 5858   7.655   4.846   6.553
 1972TIP3    H1 5859   7.612   4.817   6.473
 1972TIP3    H2 5860   7.720   4.910   6.524
 1973TIP3   OH2 5861   4.011   5.618   6.621
 1973TIP3    H1 5862   4.082   5.565   6.659
 1973TIP3    H2 5863   4.024   5.705   6.658
 1974TIP3   OH2 5864   4.060   6.744   4.376
 1974TIP3    H1 5865   4.040   6.802   4.303
 1974TIP3    H2 5866   4.002   6.773   4.446
 1975TIP3   OH2 5867   1.752   7.687   3.260
 1975TIP3    H1 5868   1.798   7.607   3.284
 1975TIP3    H2 5869   1.804   7.757   3.298
 1976TIP3   OH2 5870   4.916   3.622   4.528
 1976TIP3    H1 5871   5.005   3.642   4.557
 1976TIP3    H2 5872   4.918   3.527   4.512
 1977TIP3   OH2 5873   3.351   6.568   1.692
 1977TIP3    H1 5874   3.369   6.495   1.751
 1977TIP3    H2 5875   3.271   6.607   1.726
 1978TIP3   OH2 5876   7.541   5.636   0.452
 1978TIP3    H1 5877   7.633   5.659   0.444
 1978TIP3    H2 5878   7.504   5.705   0.508
 1979TIP3   OH2 5879   6.406   4.223   1.144
 1979TIP3    H1 5880   6.338   4.260   1.200
 1979TIP3    H2 5881   6.445   4.153   1.196
 1980TIP3   OH2 5882   5.055   1.243   3.840
 1980TIP3    H1 5883   5.092   1.187   3.908
 1980TIP3    H2 5884   5.045   1.186   3.764
 1981TIP3   OH2 5885   5.045   4.190   0.492
 1981TIP3    H1 5886   5.079   4.210   0.406
 1981TIP3    H2 5887   4.974   4.253   0.506
 1982TIP3   OH2 5888   2.118   4.453   6.096
 1982TIP3    H1 5889   2.127   4.418   6.007
 1982TIP3    H2 5890   2.025   4.474   6.105
 1983TIP3   OH2 5891   2.918   2.523   3.366
 1983TIP3    H1 5892   2.940   2.449   3.423
 1983TIP3    H2 5893   2.828   2.546   3.388
 1984TIP3   OH2 5894   6.323   2.292   4.948
 1984TIP3    H1 5895   6.295   2.349   4.876
 1984TIP3    H2 5896   6.270   2.319   5.022
 1985TIP3   OH2 5897   2.111   7.546   5.772
 1985TIP3    H1 5898   2.198   7.525   5.738
 1985TIP3    H2 5899   2.075   7.609   5.709
 1986TIP3   OH2 5900   1.349   6.396   3.506
 1986TIP3    H1 5901   1.303   6.328   3.457
 1986TIP3    H2 5902   1.434   6.357   3.528
 1987TIP3   OH2 5903   1.978   5.246   0.321
 1987TIP3    H1 5904   1.972   5.311   0.391
 1987TIP3    H2 5905   1.904   5.187   0.337
 1988TIP3   OH2 5906   5.692   6.344   1.512
 1988TIP3    H1 5907   5.683   6.438   1.529
 1988TIP3    H2 5908   5.787   6.330   1.509
 1989TIP3   OH2 5909   2.571   5.225   5.875
 1989TIP3    H1 5910   2.526   5.164   5.817
 1989TIP3    H2 5911   2.502   5.280   5.911
 1990TIP3   OH2 5912   5.286   7.062   3.153
 1990TIP3    H1 5913   5.278   7.128   3.084
 1990TIP3    H2 5914   5.311   6.982   3.107
 1991TIP3   OH2 5915   4.847   5.255   5.923
 1991TIP3    H1 5916   4.939   5.231   5.909
 1991TIP3    H2 5917   4.847   5.304   6.005
 1992TIP3   OH2 5918   6.404   1.982   0.720
 1992TIP3    H1 5919   6.466   2.054   0.712
 1992TIP3    H2 5920   6.416   1.950   0.809
 1993TIP3   OH2 5921   5.898   3.596   4.110
 1993TIP3    H1 5922   5.963   3.645   4.160
 1993TIP3    H2 5923   5.929   3.505   4.111
 1994TIP3   OH2 5924   2.311   3.342   4.598
 1994TIP3    H1 5925   2.276   3.343   4.687
 1994TIP3    H2 5926   2.405   3.360   4.609
 1995TIP3   OH2 5927   7.449   2.519   4.142
 1995TIP3    H1 5928   7.529   2.467   4.146
 1995TIP3    H2 5929   7.399   2.481   4.070
 1996TIP3   OH2 5930   2.516   5.301   2.121
 1996TIP3    H1 5931   2.462   5.269   2.049
 1996TIP3    H2 5932   2.603   5.263   2.104
 1997TIP3   OH2 5933   0.192   5.517   2.785
 1997TIP3    H1 5934   0.202   5.438   2.839
 1997TIP3    H2 5935   0.157   5.583   2.845
 1998TIP3   OH2 5936   5.299   5.953   1.268
 1998TIP3    H1 5937   5.253   5.961   1.184
 1998TIP3    H2 5938   5.358   6.028   1.270
 1999TIP3   OH2 5939   7.456   6.903   3.244
 1999TIP3    H1 5940   7.418   6.840   3.306
 1999TIP3    H2 5941   7.386   6.920   3.181
 2000TIP3   OH2 5942   3.018   7.709   5.543
 2000TIP3    H1 5943   3.059   7.649   5.481
 2000TIP3    H2 5944   3.005   7.656   5.622
 2001TIP3   OH2 5945   0.531   4.429   0.457
 2001TIP3    H1 5946   0.525   4.474   0.542
 2001TIP3    H2 5947   0.559   4.497   0.396
 2002TIP3   OH2 5948   4.414   3.292   0.072
 2002TIP3    H1 5949   4.498   3.257   0.100
 2002TIP3    H2 5950   4.354   3.217   0.076
 2003TIP3   OH2 5951   1.293   5.580   1.574
 2003TIP3    H1 5952   1.228   5.520   1.611
 2003TIP3    H2 5953   1.338   5.616   1.651
 2004TIP3   OH2 5954   4.437   2.394   4.326
 2004TIP3    H1 5955   4.507   2.380   4.261
 2004TIP3    H2 5956   4.463   2.474   4.372
 2005TIP3   OH2 5957   5.378   7.586   0.193
 2005TIP3    H1 5958   5.436   7.555   0.262
 2005TIP3    H2 5959   5.360   7.508   0.140
 2006TIP3   OH2 5960   5.251   1.648   3.269
 2006TIP3    H1 5961   5.288   1.699   3.197
 2006TIP3    H2 5962   5.213   1.714   3.327
 2007TIP3   OH2 5963   6.099   2.693   0.408
 2007TIP3    H1 5964   6.128   2.750   0.479
 2007TIP3    H2 5965   6.173   2.690   0.348
 2008TIP3   OH2 5966   7.360   6.811   5.632
 2008TIP3    H1 5967   7.298   6.851   5.572
 2008TIP3    H2 5968   7.348   6.717   5.620
 2009TIP3   OH2 5969   5.650   2.133   6.702
 2009TIP3    H1 5970   5.600   2.088   6.634
 2009TIP3    H2 5971   5.620   2.092   6.784
 2010TIP3   OH2 5972   6.830   1.488   6.309
 2010TIP3    H1 5973   6.803   1.561   6.366
 2010TIP3    H2 5974   6.911   1.518   6.269
 2011TIP3   OH2 5975   8.121   7.757   4.588
 2011TIP3    H1 5976   8.031   7.784   4.569
 2011TIP3    H2 5977   8.134   7.780   4.679
 2012TIP3   OH2 5978   5.289   7.495   1.556
 2012TIP3    H1 5979   5.278   7.420   1.614
 2012TIP3    H2 5980   5.380   7.489   1.526
 2013TIP3   OH2 5981   1.546   1.836   5.138
 2013TIP3    H1 5982   1.591   1.760   5.099
 2013TIP3    H2 5983   1.454   1.813   5.134
 2014TIP3   OH2 5984   3.223   1.654   3.180
 2014TIP3    H1 5985   3.290   1.673   3.115
 2014TIP3    H2 5986   3.184   1.739   3.201
 2015TIP3   OH2 5987   5.488   7.556   5.641
 2015TIP3    H1 5988   5.491   7.613   5.718
 2015TIP3    H2 5989   5.521   7.472   5.672
 2016TIP3   OH2 5990   2.926   1.430   1.016
 2016TIP3    H1 5991   2.939   1.341   1.049
 2016TIP3    H2 5992   2.831   1.444   1.021
 2017TIP3   OH2 5993   5.098   6.043   2.956
 2017TIP3    H1 5994   5.024   6.063   2.898
 2017TIP3    H2 5995   5.118   5.951   2.940
 2018TIP3   OH2 5996   0.444   7.702   0.890
 2018TIP3    H1 5997   0.507   7.634   0.869
 2018TIP3    H2 5998   0.444   7.760   0.813
 2019TIP3   OH2 5999   7.605   1.612   0.644
 2019TIP3    H1 6000   7.577   1.545   0.582
 2019TIP3    H2 6001   7.623   1.565   0.725
 2020TIP3   OH2 6002   3.763   1.843   0.465
 2020TIP3    H1 6003   3.678   1.842   0.510
 2020TIP3    H2 6004   3.770   1.932   0.431
 2021TIP3   OH2 6005   6.262   2.878   6.597
 2021TIP3    H1 6006   6.204   2.807   6.569
 2021TIP3    H2 6007   6.285   2.855   6.687
 2022TIP3   OH2 6008   0.577   1.690   6.142
 2022TIP3    H1 6009   0.664   1.724   6.165
 2022TIP3    H2 6010   0.577   1.600   6.175
 2023TIP3   OH2 6011   4.310   4.627   1.579
 2023TIP3    H1 6012   4.309   4.621   1.674
 2023TIP3    H2 6013   4.374   4.562   1.552
 2024TIP3   OH2 6014   1.967   5.917   2.163
 2024TIP3    H1 6015   1.989   5.844   2.221
 2024TIP3    H2 6016   1.981   5.996   2.216
 2025TIP3   OH2 6017   4.334   2.149   1.949
 2025TIP3    H1 6018   4.271   2.128   1.879
 2025TIP3    H2 6019   4.348   2.065   1.994
 2026TIP3   OH2 6020   5.195   2.581   5.343
 2026TIP3    H1 6021   5.154   2.593   5.257
 2026TIP3    H2 6022   5.284   2.551   5.323
 2027TIP3   OH2 6023   2.748   3.858   1.608
 2027TIP3    H1 6024   2.708   3.841   1.693
 2027TIP3    H2 6025   2.723   3.948   1.587
 2028TIP3   OH2 6026   6.045   5.385   4.866
 2028TIP3    H1 6027   6.124   5.396   4.920
 2028TIP3    H2 6028   6.064   5.433   4.786
 2029TIP3   OH2 6029   0.522   0.389   0.130
 2029TIP3    H1 6030   0.428   0.392   0.110
 2029TIP3    H2 6031   0.564   0.374   0.046
 2030TIP3   OH2 6032   0.887   5.141   5.069
 2030TIP3    H1 6033   0.885   5.126   4.974
 2030TIP3    H2 6034   0.941   5.220   5.079
 2031TIP3   OH2 6035   7.570   0.817   5.603
 2031TIP3    H1 6036   7.540   0.900   5.566
 2031TIP3    H2 6037   7.536   0.751   5.543
 2032TIP3   OH2 6038   1.343   6.314   0.925
 2032TIP3    H1 6039   1.438   6.306   0.933
 2032TIP3    H2 6040   1.328   6.407   0.911
 2033TIP3   OH2 6041   7.580   7.491   4.433
 2033TIP3    H1 6042   7.511   7.534   4.483
 2033TIP3    H2 6043   7.550   7.400   4.424
 2034TIP3   OH2 6044   2.791   0.325   1.929
 2034TIP3    H1 6045   2.848   0.380   1.983
 2034TIP3    H2 6046   2.721   0.384   1.901
 2035TIP3   OH2 6047   1.896   3.099   1.981
 2035TIP3    H1 6048   1.821   3.144   1.944
 2035TIP3    H2 6049   1.889   3.009   1.948
 2036TIP3   OH2 6050   0.212   2.319   5.514
 2036TIP3    H1 6051   0.203   2.384   5.584
 2036TIP3    H2 6052   0.122   2.295   5.492
 2037TIP3   OH2 6053   3.193   2.585   4.921
 2037TIP3    H1 6054   3.273   2.628   4.890
 2037TIP3    H2 6055   3.222   2.497   4.947
 2038TIP3   OH2 6056   5.363   6.918   2.928
 2038TIP3    H1 6057   5.270   6.916   2.909
 2038TIP3    H2 6058   5.405   6.932   2.843
 2039TIP3   OH2 6059   3.219   1.653   5.882
 2039TIP3    H1 6060   3.238   1.746   5.884
 2039TIP3    H2 6061   3.208   1.628   5.973
 2040TIP3   OH2 6062   7.094   2.353   4.888
 2040TIP3    H1 6063   7.080   2.302   4.968
 2040TIP3    H2 6064   7.121   2.289   4.823
 2041TIP3   OH2 6065   4.821   5.464   4.432
 2041TIP3    H1 6066   4.885   5.422   4.374
 2041TIP3    H2 6067   4.824   5.412   4.512
 2042TIP3   OH2 6068   5.333   3.975   0.568
 2042TIP3    H1 6069   5.321   4.068   0.550
 2042TIP3    H2 6070   5.245   3.938   0.563
 2043TIP3   OH2 6071   3.826   7.261   1.728
 2043TIP3    H1 6072   3.827   7.214   1.644
 2043TIP3    H2 6073   3.830   7.192   1.794
 2044TIP3   OH2 6074   2.604   6.153   4.615
 2044TIP3    H1 6075   2.620   6.156   4.709
 2044TIP3    H2 6076   2.593   6.060   4.595
 2045TIP3   OH2 6077   5.415   5.118   3.217
 2045TIP3    H1 6078   5.399   5.180   3.146
 2045TIP3    H2 6079   5.507   5.093   3.207
 2046TIP3   OH2 6080   6.399   1.096   2.317
 2046TIP3    H1 6081   6.316   1.088   2.271
 2046TIP3    H2 6082   6.463   1.116   2.248
 2047TIP3   OH2 6083   7.705   3.017   0.822
 2047TIP3    H1 6084   7.624   3.065   0.837
 2047TIP3    H2 6085   7.774   3.082   0.832
 2048TIP3   OH2 6086   0.544   0.668   2.426
 2048TIP3    H1 6087   0.611   0.600   2.420
 2048TIP3    H2 6088   0.493   0.647   2.503
 2049TIP3   OH2 6089   0.572   2.905   5.280
 2049TIP3    H1 6090   0.631   2.930   5.351
 2049TIP3    H2 6091   0.486   2.900   5.321
 2050TIP3   OH2 6092   6.790   4.451   1.390
 2050TIP3    H1 6093   6.855   4.433   1.457
 2050TIP3    H2 6094   6.732   4.516   1.430
 2051TIP3   OH2 6095   3.596   0.074   3.320
 2051TIP3    H1 6096   3.674   0.101   3.272
 2051TIP3    H2 6097   3.524   0.084   3.257
 2052TIP3   OH2 6098   0.636   3.394   0.315
 2052TIP3    H1 6099   0.550   3.435   0.311
 2052TIP3    H2 6100   0.689   3.445   0.253
 2053TIP3   OH2 6101   7.391   7.430   4.765
 2053TIP3    H1 6102   7.350   7.470   4.842
 2053TIP3    H2 6103   7.324   7.373   4.729
 2054TIP3   OH2 6104   1.770   2.032   2.307
 2054TIP3    H1 6105   1.829   2.094   2.350
 2054TIP3    H2 6106   1.704   2.087   2.264
 2055TIP3   OH2 6107   0.892   3.498   4.369
 2055TIP3    H1 6108   0.872   3.481   4.277
 2055TIP3    H2 6109   0.953   3.428   4.394
 2056TIP3   OH2 6110   5.015   0.093   0.715
 2056TIP3    H1 6111   4.985   0.013   0.757
 2056TIP3    H2 6112   4.979   0.164   0.769
 2057TIP3   OH2 6113   6.289   3.139   3.834
 2057TIP3    H1 6114   6.303   3.187   3.916
 2057TIP3    H2 6115   6.317   3.049   3.854
 2058TIP3   OH2 6116   0.368   6.503   1.418
 2058TIP3    H1 6117   0.331   6.480   1.504
 2058TIP3    H2 6118   0.306   6.466   1.355
 2059TIP3   OH2 6119   8.274   1.298   0.435
 2059TIP3    H1 6120   8.290   1.322   0.526
 2059TIP3    H2 6121   8.273   1.203   0.435
 2060TIP3   OH2 6122   2.189   6.631   6.271
 2060TIP3    H1 6123   2.101   6.610   6.241
 2060TIP3    H2 6124   2.247   6.584   6.211
 2061TIP3   OH2 6125   5.050   0.302   5.806
 2061TIP3    H1 6126   5.083   0.329   5.721
 2061TIP3    H2 6127   5.101   0.353   5.869
 2062TIP3   OH2 6128   4.111   0.225   5.309
 2062TIP3    H1 6129   4.039   0.186   5.260
 2062TIP3    H2 6130   4.083   0.221   5.400
 2063TIP3   OH2 6131   1.437   7.567   6.085
 2063TIP3    H1 6132   1.493   7.573   6.008
 2063TIP3    H2 6133   1.470   7.634   6.144
 2064TIP3   OH2 6134   6.258   2.859   5.011
 2064TIP3    H1 6135   6.318   2.862   4.937
 2064TIP3    H2 6136   6.264   2.946   5.050
 2065TIP3   OH2 6137   0.288   4.969   1.876
 2065TIP3    H1 6138   0.234   4.893   1.897
 2065TIP3    H2 6139   0.259   4.996   1.789
 2066TIP3   OH2 6140   3.489   0.478   2.154
 2066TIP3    H1 6141   3.463   0.516   2.238
 2066TIP3    H2 6142   3.525   0.392   2.175
 2067TIP3   OH2 6143   2.865   2.476   2.370
 2067TIP3    H1 6144   2.910   2.520   2.297
 2067TIP3    H2 6145   2.832   2.548   2.424
 2068TIP3   OH2 6146   0.618   4.080   3.861
 2068TIP3    H1 6147   0.569   4.132   3.797
 2068TIP3    H2 6148   0.582   3.992   3.852
 2069TIP3   OH2 6149   4.619   6.104   4.492
 2069TIP3    H1 6150   4.541   6.058   4.523
 2069TIP3    H2 6151   4.586   6.169   4.430
 2070TIP3   OH2 6152   1.820   2.887   4.030
 2070TIP3    H1 6153   1.769   2.850   4.102
 2070TIP3    H2 6154   1.853   2.811   3.982
 2071TIP3   OH2 6155   7.898   6.685   1.543
 2071TIP3    H1 6156   7.938   6.661   1.460
 2071TIP3    H2 6157   7.803   6.679   1.527
 2072TIP3   OH2 6158   5.962   4.265   4.379
 2072TIP3    H1 6159   5.907   4.342   4.385
 2072TIP3    H2 6160   5.930   4.219   4.302
 2073TIP3   OH2 6161   1.565   7.257   6.347
 2073TIP3    H1 6162   1.634   7.190   6.351
 2073TIP3    H2 6163   1.579   7.311   6.425
 2074TIP3   OH2 6164   6.589   0.266   6.216
 2074TIP3    H1 6165   6.552   0.213   6.287
 2074TIP3    H2 6166   6.680   0.237   6.209
 2075TIP3   OH2 6167   7.420   1.413   3.711
 2075TIP3    H1 6168   7.431   1.499   3.671
 2075TIP3    H2 6169   7.482   1.413   3.784
 2076TIP3   OH2 6170   6.746   6.100   2.728
 2076TIP3    H1 6171   6.790   6.019   2.702
 2076TIP3    H2 6172   6.653   6.079   2.720
 2077TIP3   OH2 6173   6.675   4.421   1.802
 2077TIP3    H1 6174   6.683   4.337   1.756
 2077TIP3    H2 6175   6.717   4.405   1.887
 2078TIP3   OH2 6176   0.678   0.753   5.052
 2078TIP3    H1 6177   0.618   0.683   5.028
 2078TIP3    H2 6178   0.763   0.725   5.017
 2079TIP3   OH2 6179   4.156   3.201   1.779
 2079TIP3    H1 6180   4.251   3.200   1.790
 2079TIP3    H2 6181   4.133   3.293   1.773
 2080TIP3   OH2 6182   7.772   5.170   3.688
 2080TIP3    H1 6183   7.723   5.154   3.608
 2080TIP3    H2 6184   7.836   5.099   3.692
 2081TIP3   OH2 6185   0.060   6.359   6.251
 2081TIP3    H1 6186   0.049   6.332   6.160
 2081TIP3    H2 6187  -0.015   6.416   6.269
 2082TIP3   OH2 6188   2.095   3.299   6.256
 2082TIP3    H1 6189   2.125   3.214   6.224
 2082TIP3    H2 6190   2.090   3.288   6.351
 2083TIP3   OH2 6191   6.023   3.610   1.811
 2083TIP3    H1 6192   5.994   3.529   1.769
 2083TIP3    H2 6193   6.072   3.656   1.743
 2084TIP3   OH2 6194   7.922   1.260   3.167
 2084TIP3    H1 6195   7.865   1.267   3.244
 2084TIP3    H2 6196   7.915   1.168   3.141
 2085TIP3   OH2 6197   3.959   0.400   6.681
 2085TIP3    H1 6198   4.005   0.480   6.654
 2085TIP3    H2 6199   4.028   0.338   6.703
 2086TIP3   OH2 6200   4.564   4.437   0.505
 2086TIP3    H1 6201   4.494   4.444   0.440
 2086TIP3    H2 6202   4.527   4.382   0.574
 2087TIP3   OH2 6203   6.268   3.176   4.953
 2087TIP3    H1 6204   6.172   3.178   4.956
 2087TIP3    H2 6205   6.287   3.125   4.874
 2088TIP3   OH2 6206   3.849   7.690   6.719
 2088TIP3    H1 6207   3.909   7.666   6.649
 2088TIP3    H2 6208   3.804   7.768   6.687
 2089TIP3   OH2 6209   0.038   0.409   3.344
 2089TIP3    H1 6210  -0.043   0.398   3.393
 2089TIP3    H2 6211   0.059   0.321   3.313
 2090TIP3   OH2 6212   5.697   6.801   1.567
 2090TIP3    H1 6213   5.637   6.727   1.573
 2090TIP3    H2 6214   5.783   6.764   1.586
 2091TIP3   OH2 6215   2.548   6.031   2.753
 2091TIP3    H1 6216   2.633   6.057   2.787
 2091TIP3    H2 6217   2.541   6.075   2.668
 2092TIP3   OH2 6218   7.764   3.926   5.732
 2092TIP3    H1 6219   7.782   3.832   5.730
 2092TIP3    H2 6220   7.828   3.964   5.672
 2093TIP3   OH2 6221   5.320   6.115   2.803
 2093TIP3    H1 6222   5.249   6.083   2.858
 2093TIP3    H2 6223   5.276   6.143   2.722
 2094TIP3   OH2 6224   5.959   0.152   4.451
 2094TIP3    H1 6225   5.960   0.138   4.356
 2094TIP3    H2 6226   5.866   0.147   4.474
 2095TIP3   OH2 6227   3.432   4.110   5.182
 2095TIP3    H1 6228   3.453   4.170   5.111
 2095TIP3    H2 6229   3.517   4.085   5.219
 2096TIP3   OH2 6230   5.214   4.893   5.606
 2096TIP3    H1 6231   5.145   4.959   5.599
 2096TIP3    H2 6232   5.170   4.816   5.643
 2097TIP3   OH2 6233   2.840   6.061   5.906
 2097TIP3    H1 6234   2.828   6.155   5.890
 2097TIP3    H2 6235   2.752   6.025   5.906
 2098TIP3   OH2 6236   1.001   2.694   4.437
 2098TIP3    H1 6237   0.921   2.642   4.446
 2098TIP3    H2 6238   1.068   2.646   4.486
 2099TIP3   OH2 6239   5.687   0.686   3.923
 2099TIP3    H1 6240   5.633   0.652   3.851
 2099TIP3    H2 6241   5.767   0.633   3.920
 2100TIP3   OH2 6242   1.583   2.857   5.670
 2100TIP3    H1 6243   1.610   2.775   5.712
 2100TIP3    H2 6244   1.492   2.843   5.644
 2101TIP3   OH2 6245   0.810   3.094   0.193
 2101TIP3    H1 6246   0.772   3.132   0.272
 2101TIP3    H2 6247   0.767   3.009   0.184
 2102TIP3   OH2 6248   7.131   7.759   2.677
 2102TIP3    H1 6249   7.179   7.726   2.753
 2102TIP3    H2 6250   7.179   7.724   2.602
 2103TIP3   OH2 6251   3.631   0.312   0.257
 2103TIP3    H1 6252   3.666   0.385   0.206
 2103TIP3    H2 6253   3.702   0.247   0.257
 2104TIP3   OH2 6254   1.414   5.932   2.394
 2104TIP3    H1 6255   1.369   5.863   2.344
 2104TIP3    H2 6256   1.503   5.899   2.405
 2105TIP3   OH2 6257   2.259   5.196   0.290
 2105TIP3    H1 6258   2.164   5.203   0.300
 2105TIP3    H2 6259   2.274   5.104   0.269
 2106TIP3   OH2 6260   1.501   2.343   2.453
 2106TIP3    H1 6261   1.468   2.258   2.480
 2106TIP3    H2 6262   1.444   2.369   2.381
 2107TIP3   OH2 6263   4.457   3.349   3.028
 2107TIP3    H1 6264   4.497   3.263   3.046
 2107TIP3    H2 6265   4.383   3.353   3.089
 2108TIP3   OH2 6266   2.051   4.515   4.708
 2108TIP3    H1 6267   2.098   4.432   4.721
 2108TIP3    H2 6268   2.085   4.573   4.775
 2109TIP3   OH2 6269   1.259   2.987   1.491
 2109TIP3    H1 6270   1.227   3.063   1.539
 2109TIP3    H2 6271   1.316   2.942   1.553
 2110TIP3   OH2 6272   4.679   2.838   3.106
 2110TIP3    H1 6273   4.768   2.856   3.075
 2110TIP3    H2 6274   4.691   2.784   3.184
 2111TIP3   OH2 6275   4.860   7.016   1.133
 2111TIP3    H1 6276   4.875   7.110   1.138
 2111TIP3    H2 6277   4.771   7.003   1.166
 2112TIP3   OH2 6278   6.455   2.879   0.985
 2112TIP3    H1 6279   6.485   2.801   1.032
 2112TIP3    H2 6280   6.477   2.952   1.042
 2113TIP3   OH2 6281   7.360   0.886   0.242
 2113TIP3    H1 6282   7.376   0.951   0.310
 2113TIP3    H2 6283   7.271   0.855   0.259
 2114TIP3   OH2 6284   5.076   6.929   2.941
 2114TIP3    H1 6285   5.064   6.912   3.034
 2114TIP3    H2 6286   5.047   7.019   2.929
 2115TIP3   OH2 6287   4.643   2.204   0.114
 2115TIP3    H1 6288   4.737   2.214   0.098
 2115TIP3    H2 6289   4.619   2.281   0.165
 2116TIP3   OH2 6290   5.713   4.721   5.153
 2116TIP3    H1 6291   5.692   4.804   5.196
 2116TIP3    H2 6292   5.805   4.706   5.173
 2117TIP3   OH2 6293   3.641   5.990   6.331
 2117TIP3    H1 6294   3.599   5.984   6.245
 2117TIP3    H2 6295   3.716   5.930   6.325
 2118TIP3   OH2 6296   5.820   3.473   6.611
 2118TIP3    H1 6297   5.810   3.459   6.517
 2118TIP3    H2 6298   5.883   3.408   6.639
 2119TIP3   OH2 6299   0.721   2.746   1.008
 2119TIP3    H1 6300   0.638   2.733   0.961
 2119TIP3    H2 6301   0.789   2.722   0.945
 2120TIP3   OH2 6302   1.099   6.918   4.966
 2120TIP3    H1 6303   1.041   6.981   5.009
 2120TIP3    H2 6304   1.104   6.844   5.027
 2121TIP3   OH2 6305   6.041   3.675   6.612
 2121TIP3    H1 6306   6.061   3.601   6.555
 2121TIP3    H2 6307   6.038   3.637   6.700
 2122TIP3   OH2 6308   6.288   0.162   3.839
 2122TIP3    H1 6309   6.267   0.111   3.761
 2122TIP3    H2 6310   6.383   0.155   3.848
 2123TIP3   OH2 6311   7.736   7.647   4.264
 2123TIP3    H1 6312   7.720   7.711   4.334
 2123TIP3    H2 6313   7.737   7.562   4.309
 2124TIP3   OH2 6314   1.051   4.635   3.528
 2124TIP3    H1 6315   1.105   4.562   3.499
 2124TIP3    H2 6316   0.971   4.595   3.561
 2125TIP3   OH2 6317   1.456   1.224   0.700
 2125TIP3    H1 6318   1.502   1.305   0.679
 2125TIP3    H2 6319   1.504   1.156   0.652
 2126TIP3   OH2 6320   4.005   6.210   6.092
 2126TIP3    H1 6321   3.974   6.273   6.157
 2126TIP3    H2 6322   3.926   6.164   6.064
 2127TIP3   OH2 6323   1.077   7.486   6.612
 2127TIP3    H1 6324   1.148   7.421   6.612
 2127TIP3    H2 6325   1.082   7.526   6.526
 2128TIP3   OH2 6326   3.678   1.427   2.516
 2128TIP3    H1 6327   3.757   1.437   2.569
 2128TIP3    H2 6328   3.711   1.409   2.428
 2129TIP3   OH2 6329   7.624   7.229   5.745
 2129TIP3    H1 6330   7.607   7.226   5.651
 2129TIP3    H2 6331   7.696   7.292   5.754
 2130TIP3   OH2 6332   3.937   5.902   3.160
 2130TIP3    H1 6333   3.979   5.981   3.194
 2130TIP3    H2 6334   3.915   5.851   3.238
 2131TIP3   OH2 6335   5.803   2.315   2.195
 2131TIP3    H1 6336   5.755   2.232   2.191
 2131TIP3    H2 6337   5.894   2.290   2.212
 2132TIP3   OH2 6338   5.562   4.567   2.635
 2132TIP3    H1 6339   5.565   4.536   2.544
 2132TIP3    H2 6340   5.597   4.495   2.686
 2133TIP3   OH2 6341   1.119   6.260   6.393
 2133TIP3    H1 6342   1.039   6.241   6.443
 2133TIP3    H2 6343   1.129   6.185   6.335
 2134TIP3   OH2 6344   7.212   4.189   1.161
 2134TIP3    H1 6345   7.155   4.221   1.091
 2134TIP3    H2 6346   7.241   4.103   1.130
 2135TIP3   OH2 6347   8.001   2.180   0.104
 2135TIP3    H1 6348   8.095   2.184   0.086
 2135TIP3    H2 6349   7.960   2.223   0.029
 2136TIP3   OH2 6350   7.130   0.302   1.885
 2136TIP3    H1 6351   7.178   0.379   1.915
 2136TIP3    H2 6352   7.187   0.262   1.820
 2137TIP3   OH2 6353   3.122   1.435   0.456
 2137TIP3    H1 6354   3.030   1.408   0.460
 2137TIP3    H2 6355   3.134   1.466   0.366
 2138TIP3   OH2 6356   0.841   2.828   1.439
 2138TIP3    H1 6357   0.793   2.769   1.380
 2138TIP3    H2 6358   0.773   2.872   1.489
 2139TIP3   OH2 6359   0.087   1.194   5.200
 2139TIP3    H1 6360   0.147   1.260   5.166
 2139TIP3    H2 6361   0.020   1.185   5.131
 2140TIP3   OH2 6362   0.856   6.633   1.814
 2140TIP3    H1 6363   0.945   6.609   1.840
 2140TIP3    H2 6364   0.834   6.705   1.872
 2141TIP3   OH2 6365   0.836   4.885   5.875
 2141TIP3    H1 6366   0.771   4.817   5.894
 2141TIP3    H2 6367   0.808   4.923   5.792
 2142TIP3   OH2 6368   2.365   2.837   5.037
 2142TIP3    H1 6369   2.301   2.888   4.988
 2142TIP3    H2 6370   2.319   2.811   5.117
 2143TIP3   OH2 6371   7.999   0.630   6.216
 2143TIP3    H1 6372   8.081   0.590   6.244
 2143TIP3    H2 6373   7.938   0.557   6.209
 2144TIP3   OH2 6374   3.694   7.275   6.493
 2144TIP3    H1 6375   3.774   7.224   6.483
 2144TIP3    H2 6376   3.713   7.359   6.451
 2145TIP3   OH2 6377   6.041   4.826   1.473
 2145TIP3    H1 6378   6.035   4.740   1.432
 2145TIP3    H2 6379   5.955   4.840   1.512
 2146TIP3   OH2 6380   3.512   6.618   3.152
 2146TIP3    H1 6381   3.502   6.527   3.125
 2146TIP3    H2 6382   3.432   6.638   3.201
 2147TIP3   OH2 6383   4.895   0.091   4.288
 2147TIP3    H1 6384   4.874   0.049   4.371
 2147TIP3    H2 6385   4.991   0.098   4.289
 2148TIP3   OH2 6386   5.865   5.806   1.408
 2148TIP3    H1 6387   5.867   5.711   1.398
 2148TIP3    H2 6388   5.904   5.822   1.494
 2149TIP3   OH2 6389   4.271   2.958   5.678
 2149TIP3    H1 6390   4.208   2.946   5.749
 2149TIP3    H2 6391   4.229   3.020   5.619
 2150TIP3   OH2 6392   2.886   3.887   2.816
 2150TIP3    H1 6393   2.940   3.863   2.741
 2150TIP3    H2 6394   2.898   3.816   2.878
 2151TIP3   OH2 6395   5.191   6.724   5.090
 2151TIP3    H1 6396   5.131   6.739   5.163
 2151TIP3    H2 6397   5.269   6.776   5.112
 2152TIP3   OH2 6398   0.116   6.014   3.783
 2152TIP3    H1 6399   0.105   6.084   3.719
 2152TIP3    H2 6400   0.146   5.939   3.732
 2153TIP3   OH2 6401   1.755   6.312   6.497
 2153TIP3    H1 6402   1.815   6.369   6.448
 2153TIP3    H2 6403   1.748   6.234   6.443
 2154TIP3   OH2 6404   1.472   1.167   2.321
 2154TIP3    H1 6405   1.566   1.187   2.319
 2154TIP3    H2 6406   1.433   1.241   2.368
 2155TIP3   OH2 6407   4.219   0.344   3.205
 2155TIP3    H1 6408   4.234   0.434   3.178
 2155TIP3    H2 6409   4.245   0.343   3.297
 2156TIP3   OH2 6410   2.761   6.933   0.844
 2156TIP3    H1 6411   2.787   6.854   0.893
 2156TIP3    H2 6412   2.751   7.000   0.911
 2157TIP3   OH2 6413   7.090   5.321   6.593
 2157TIP3    H1 6414   7.047   5.403   6.619
 2157TIP3    H2 6415   7.165   5.314   6.652
 2158TIP3   OH2 6416   0.732   4.306   5.844
 2158TIP3    H1 6417   0.691   4.354   5.772
 2158TIP3    H2 6418   0.667   4.309   5.915
 2159TIP3   OH2 6419   6.608   1.210   2.176
 2159TIP3    H1 6420   6.563   1.290   2.149
 2159TIP3    H2 6421   6.669   1.238   2.244
 2160TIP3   OH2 6422   4.574   0.587   2.390
 2160TIP3    H1 6423   4.595   0.497   2.414
 2160TIP3    H2 6424   4.541   0.581   2.301
 2161TIP3   OH2 6425   3.199   5.561   4.360
 2161TIP3    H1 6426   3.112   5.547   4.398
 2161TIP3    H2 6427   3.207   5.657   4.357
 2162TIP3   OH2 6428   0.691   3.116   4.375
 2162TIP3    H1 6429   0.711   3.135   4.283
 2162TIP3    H2 6430   0.650   3.030   4.373
 2163TIP3   OH2 6431   5.586   3.882   4.636
 2163TIP3    H1 6432   5.497   3.903   4.665
 2163TIP3    H2 6433   5.589   3.909   4.544
 2164TIP3   OH2 6434   7.250   1.832   0.366
 2164TIP3    H1 6435   7.222   1.887   0.439
 2164TIP3    H2 6436   7.342   1.856   0.353
 2165TIP3   OH2 6437   1.645   2.621   5.836
 2165TIP3    H1 6438   1.705   2.555   5.871
 2165TIP3    H2 6439   1.599   2.577   5.765
 2166TIP3   OH2 6440   4.147   7.520   3.292
 2166TIP3    H1 6441   4.138   7.426   3.305
 2166TIP3    H2 6442   4.178   7.530   3.202
 2167TIP3   OH2 6443   0.650   2.989   2.785
 2167TIP3    H1 6444   0.682   3.073   2.752
 2167TIP3    H2 6445   0.719   2.927   2.763
 2168TIP3   OH2 6446   6.257   7.533   3.726
 2168TIP3    H1 6447   6.180   7.558   3.674
 2168TIP3    H2 6448   6.221   7.486   3.801
 2169TIP3   OH2 6449   0.694   4.779   1.609
 2169TIP3    H1 6450   0.689   4.742   1.697
 2169TIP3    H2 6451   0.779   4.750   1.576
 2170TIP3   OH2 6452   6.759   7.315   2.589
 2170TIP3    H1 6453   6.807   7.379   2.640
 2170TIP3    H2 6454   6.694   7.366   2.541
 2171TIP3   OH2 6455   3.631   0.961   6.717
 2171TIP3    H1 6456   3.545   0.957   6.759
 2171TIP3    H2 6457   3.621   0.906   6.639
 2172TIP3   OH2 6458   1.323   0.585   1.370
 2172TIP3    H1 6459   1.389   0.594   1.438
 2172TIP3    H2 6460   1.240   0.581   1.417
 2173TIP3   OH2 6461   5.054   2.414   0.682
 2173TIP3    H1 6462   5.103   2.482   0.634
 2173TIP3    H2 6463   5.054   2.445   0.773
 2174TIP3   OH2 6464   7.415   1.827   6.080
 2174TIP3    H1 6465   7.436   1.803   6.171
 2174TIP3    H2 6466   7.432   1.921   6.076
 2175TIP3   OH2 6467   3.816   2.327   4.737
 2175TIP3    H1 6468   3.877   2.379   4.685
 2175TIP3    H2 6469   3.741   2.386   4.751
 2176TIP3   OH2 6470   0.215   5.314   0.939
 2176TIP3    H1 6471   0.175   5.250   0.879
 2176TIP3    H2 6472   0.203   5.276   1.026
 2177TIP3   OH2 6473   2.658   7.385   1.023
 2177TIP3    H1 6474   2.648   7.417   0.933
 2177TIP3    H2 6475   2.639   7.461   1.078
 2178TIP3   OH2 6476   4.317   2.592   1.214
 2178TIP3    H1 6477   4.376   2.525   1.248
 2178TIP3    H2 6478   4.315   2.659   1.282
 2179TIP3   OH2 6479   5.327   3.156   1.725
 2179TIP3    H1 6480   5.369   3.195   1.801
 2179TIP3    H2 6481   5.357   3.209   1.651
 2180TIP3   OH2 6482   7.258   7.085   6.501
 2180TIP3    H1 6483   7.309   7.149   6.550
 2180TIP3    H2 6484   7.190   7.138   6.457
 2181TIP3   OH2 6485   3.847   1.427   0.690
 2181TIP3    H1 6486   3.892   1.440   0.773
 2181TIP3    H2 6487   3.765   1.477   0.699
 2182TIP3   OH2 6488   4.648   3.667   6.075
 2182TIP3    H1 6489   4.708   3.686   6.147
 2182TIP3    H2 6490   4.604   3.750   6.057
 2183TIP3   OH2 6491   0.609   5.691   3.213
 2183TIP3    H1 6492   0.646   5.729   3.293
 2183TIP3    H2 6493   0.673   5.624   3.187
 2184TIP3   OH2 6494   4.034   7.321   6.651
 2184TIP3    H1 6495   4.027   7.399   6.596
 2184TIP3    H2 6496   4.002   7.250   6.596
 2185TIP3   OH2 6497   0.479   1.478   5.229
 2185TIP3    H1 6498   0.529   1.443   5.303
 2185TIP3    H2 6499   0.438   1.558   5.263
 2186TIP3   OH2 6500   5.769   5.339   4.847
 2186TIP3    H1 6501   5.859   5.371   4.839
 2186TIP3    H2 6502   5.761   5.274   4.778
 2187TIP3   OH2 6503   5.400   2.419   3.987
 2187TIP3    H1 6504   5.378   2.511   3.970
 2187TIP3    H2 6505   5.396   2.378   3.900
 2188TIP3   OH2 6506   2.574   0.769   3.493
 2188TIP3    H1 6507   2.609   0.851   3.459
 2188TIP3    H2 6508   2.650   0.714   3.508
 2189TIP3   OH2 6509   4.395   0.884   1.680
 2189TIP3    H1 6510   4.318   0.833   1.654
 2189TIP3    H2 6511   4.466   0.819   1.684
 2190TIP3   OH2 6512   5.481   1.078   5.857
 2190TIP3    H1 6513   5.527   1.161   5.846
 2190TIP3    H2 6514   5.542   1.023   5.907
 2191TIP3   OH2 6515   1.110   0.019   3.752
 2191TIP3    H1 6516   1.016   0.001   3.745
 2191TIP3    H2 6517   1.120   0.108   3.718
 2192TIP3   OH2 6518   2.385   7.290   3.990
 2192TIP3    H1 6519   2.447   7.343   4.040
 2192TIP3    H2 6520   2.431   7.206   3.977
 2193TIP3   OH2 6521   4.566   6.844   3.876
 2193TIP3    H1 6522   4.580   6.937   3.856
 2193TIP3    H2 6523   4.592   6.836   3.968
 2194TIP3   OH2 6524   8.223   3.685   4.180
 2194TIP3    H1 6525   8.174   3.671   4.099
 2194TIP3    H2 6526   8.171   3.641   4.247
 2195TIP3   OH2 6527   5.681   1.586   4.575
 2195TIP3    H1 6528   5.766   1.629   4.579
 2195TIP3    H2 6529   5.647   1.608   4.488
 2196TIP3   OH2 6530   5.938   6.027   1.298
 2196TIP3    H1 6531   5.929   6.071   1.383
 2196TIP3    H2 6532   5.934   5.934   1.319
 2197TIP3   OH2 6533   7.163   2.681   3.974
 2197TIP3    H1 6534   7.218   2.744   4.020
 2197TIP3    H2 6535   7.222   2.610   3.949
 2198TIP3   OH2 6536   2.541   4.684   3.294
 2198TIP3    H1 6537   2.460   4.726   3.263
 2198TIP3    H2 6538   2.548   4.604   3.242
 2199TIP3   OH2 6539   2.929   2.136   2.983
 2199TIP3    H1 6540   3.000   2.072   2.973
 2199TIP3    H2 6541   2.971   2.211   3.025
 2200TIP3   OH2 6542   6.678   4.649   2.753
 2200TIP3    H1 6543   6.634   4.733   2.763
 2200TIP3    H2 6544   6.614   4.593   2.710
 2201TIP3   OH2 6545   6.506   4.998   2.311
 2201TIP3    H1 6546   6.558   4.953   2.244
 2201TIP3    H2 6547   6.550   5.082   2.323
 2202TIP3   OH2 6548   7.537   0.825   4.809
 2202TIP3    H1 6549   7.478   0.901   4.810
 2202TIP3    H2 6550   7.545   0.800   4.901
 2203TIP3   OH2 6551   5.159   7.153   2.701
 2203TIP3    H1 6552   5.216   7.079   2.679
 2203TIP3    H2 6553   5.217   7.229   2.698
 2204TIP3   OH2 6554   7.957   6.807   1.092
 2204TIP3    H1 6555   7.864   6.826   1.101
 2204TIP3    H2 6556   8.000   6.892   1.090
 2205TIP3   OH2 6557   7.849   3.153   6.594
 2205TIP3    H1 6558   7.905   3.117   6.663
 2205TIP3    H2 6559   7.820   3.077   6.544
 2206TIP3   OH2 6560   1.711   4.042   5.698
 2206TIP3    H1 6561   1.715   3.952   5.666
 2206TIP3    H2 6562   1.659   4.038   5.778
 2207TIP3   OH2 6563   0.109   3.826   0.207
 2207TIP3    H1 6564   0.096   3.732   0.209
 2207TIP3    H2 6565   0.065   3.859   0.285
 2208TIP3   OH2 6566   4.780   1.194   3.253
 2208TIP3    H1 6567   4.804   1.235   3.170
 2208TIP3    H2 6568   4.736   1.113   3.229
 2209TIP3   OH2 6569   3.643   6.620   5.079
 2209TIP3    H1 6570   3.706   6.636   5.150
 2209TIP3    H2 6571   3.695   6.620   4.999
 2210TIP3   OH2 6572   6.545   7.078   4.048
 2210TIP3    H1 6573   6.459   7.040   4.063
 2210TIP3    H2 6574   6.605   7.003   4.050
 2211TIP3   OH2 6575   5.100   3.743   5.124
 2211TIP3    H1 6576   5.129   3.654   5.144
 2211TIP3    H2 6577   5.146   3.799   5.187
 2212TIP3   OH2 6578   7.684   1.397   0.856
 2212TIP3    H1 6579   7.602   1.362   0.893
 2212TIP3    H2 6580   7.737   1.419   0.933
 2213TIP3   OH2 6581   1.539   7.231   1.454
 2213TIP3    H1 6582   1.632   7.250   1.445
 2213TIP3    H2 6583   1.533   7.179   1.534
 2214TIP3   OH2 6584   3.848   4.430   0.305
 2214TIP3    H1 6585   3.917   4.471   0.357
 2214TIP3    H2 6586   3.827   4.495   0.238
 2215TIP3   OH2 6587   0.769   5.558   6.569
 2215TIP3    H1 6588   0.782   5.648   6.597
 2215TIP3    H2 6589   0.718   5.517   6.639
 2216TIP3   OH2 6590   1.094   6.238   4.195
 2216TIP3    H1 6591   1.092   6.328   4.229
 2216TIP3    H2 6592   1.054   6.244   4.109
 2217TIP3   OH2 6593   6.523   0.555   6.281
 2217TIP3    H1 6594   6.493   0.538   6.370
 2217TIP3    H2 6595   6.541   0.469   6.244
 2218TIP3   OH2 6596   2.567   2.008   2.480
 2218TIP3    H1 6597   2.483   1.993   2.524
 2218TIP3    H2 6598   2.626   2.032   2.551
 2219TIP3   OH2 6599   6.113   7.324   1.482
 2219TIP3    H1 6600   6.031   7.294   1.521
 2219TIP3    H2 6601   6.171   7.339   1.557
 2220TIP3   OH2 6602   4.847   2.399   6.719
 2220TIP3    H1 6603   4.773   2.365   6.670
 2220TIP3    H2 6604   4.821   2.488   6.743
 2221TIP3   OH2 6605   6.542   5.523   3.296
 2221TIP3    H1 6606   6.515   5.481   3.214
 2221TIP3    H2 6607   6.637   5.531   3.288
 2222TIP3   OH2 6608   3.408   6.327   1.817
 2222TIP3    H1 6609   3.368   6.243   1.842
 2222TIP3    H2 6610   3.434   6.314   1.726
 2223TIP3   OH2 6611   5.953   1.769   4.007
 2223TIP3    H1 6612   5.886   1.836   4.021
 2223TIP3    H2 6613   5.972   1.735   4.094
 2224TIP3   OH2 6614   7.632   3.319   6.319
 2224TIP3    H1 6615   7.610   3.226   6.320
 2224TIP3    H2 6616   7.638   3.345   6.411
 2225TIP3   OH2 6617   3.004   3.479   5.941
 2225TIP3    H1 6618   3.085   3.522   5.916
 2225TIP3    H2 6619   2.973   3.436   5.861
 2226TIP3   OH2 6620   4.723   2.457   1.258
 2226TIP3    H1 6621   4.787   2.402   1.212
 2226TIP3    H2 6622   4.776   2.517   1.310
 2227TIP3   OH2 6623   0.612   7.753   1.252
 2227TIP3    H1 6624   0.536   7.781   1.201
 2227TIP3    H2 6625   0.623   7.661   1.229
 2228TIP3   OH2 6626   3.691   4.666   0.790
 2228TIP3    H1 6627   3.704   4.714   0.708
 2228TIP3    H2 6628   3.725   4.578   0.772
 2229TIP3   OH2 6629   0.839   7.558   5.793
 2229TIP3    H1 6630   0.794   7.476   5.813
 2229TIP3    H2 6631   0.911   7.532   5.735
 2230TIP3   OH2 6632   4.604   6.191   3.892
 2230TIP3    H1 6633   4.656   6.165   3.968
 2230TIP3    H2 6634   4.651   6.266   3.856
 2231TIP3   OH2 6635   4.442   4.842   6.645
 2231TIP3    H1 6636   4.363   4.788   6.656
 2231TIP3    H2 6637   4.480   4.812   6.562
 2232TIP3   OH2 6638   1.003   1.810   5.443
 2232TIP3    H1 6639   1.058   1.867   5.390
 2232TIP3    H2 6640   1.058   1.786   5.518
 2233TIP3   OH2 6641   6.185   5.484   2.504
 2233TIP3    H1 6642   6.243   5.534   2.560
 2233TIP3    H2 6643   6.110   5.463   2.560
 2234TIP3   OH2 6644   4.875   0.166   5.374
 2234TIP3    H1 6645   4.880   0.229   5.446
 2234TIP3    H2 6646   4.785   0.172   5.343
 2235TIP3   OH2 6647   1.445   0.855   2.474
 2235TIP3    H1 6648   1.415   0.800   2.546
 2235TIP3    H2 6649   1.532   0.884   2.502
 2236TIP3   OH2 6650   7.008   0.345   4.267
 2236TIP3    H1 6651   6.950   0.307   4.333
 2236TIP3    H2 6652   7.014   0.438   4.290
 2237TIP3   OH2 6653   3.219   6.688   3.589
 2237TIP3    H1 6654   3.182   6.727   3.668
 2237TIP3    H2 6655   3.267   6.611   3.621
 2238TIP3   OH2 6656   5.194   2.092   3.773
 2238TIP3    H1 6657   5.146   2.119   3.695
 2238TIP3    H2 6658   5.285   2.118   3.756
 2239TIP3   OH2 6659   1.430   6.725   4.379
 2239TIP3    H1 6660   1.445   6.811   4.419
 2239TIP3    H2 6661   1.424   6.743   4.285
 2240TIP3   OH2 6662   2.786   1.726   2.917
 2240TIP3    H1 6663   2.781   1.731   3.012
 2240TIP3    H2 6664   2.696   1.710   2.889
 2241TIP3   OH2 6665   0.182   5.278   1.596
 2241TIP3    H1 6666   0.160   5.205   1.538
 2241TIP3    H2 6667   0.106   5.287   1.654
 2242TIP3   OH2 6668   0.136   7.110   3.404
 2242TIP3    H1 6669   0.169   7.024   3.381
 2242TIP3    H2 6670   0.213   7.158   3.435
 2243TIP3   OH2 6671   6.980   6.047   2.351
 2243TIP3    H1 6672   6.993   6.134   2.390
 2243TIP3    H2 6673   7.068   6.017   2.330
 2244TIP3   OH2 6674   6.506   0.441   5.158
 2244TIP3    H1 6675   6.512   0.473   5.068
 2244TIP3    H2 6676   6.439   0.373   5.154
 2245TIP3   OH2 6677   4.465   3.508   4.287
 2245TIP3    H1 6678   4.510   3.439   4.336
 2245TIP3    H2 6679   4.417   3.461   4.219
 2246TIP3   OH2 6680   2.941   7.743   6.086
 2246TIP3    H1 6681   2.946   7.654   6.120
 2246TIP3    H2 6682   3.032   7.767   6.071
 2247TIP3   OH2 6683   1.612   3.610   1.210
 2247TIP3    H1 6684   1.625   3.638   1.119
 2247TIP3    H2 6685   1.672   3.537   1.221
 2248TIP3   OH2 6686   2.230   2.125   0.817
 2248TIP3    H1 6687   2.264   2.206   0.856
 2248TIP3    H2 6688   2.188   2.152   0.736
 2249TIP3   OH2 6689   4.089   4.819   2.652
 2249TIP3    H1 6690   4.113   4.738   2.697
 2249TIP3    H2 6691   4.001   4.802   2.617
 2250TIP3   OH2 6692   2.242   1.279   0.601
 2250TIP3    H1 6693   2.332   1.309   0.615
 2250TIP3    H2 6694   2.238   1.194   0.646
 2251TIP3   OH2 6695   1.982   2.876   2.832
 2251TIP3    H1 6696   1.963   2.949   2.891
 2251TIP3    H2 6697   1.972   2.798   2.886
 2252TIP3   OH2 6698   1.554   7.758   5.300
 2252TIP3    H1 6699   1.557   7.769   5.205
 2252TIP3    H2 6700   1.523   7.843   5.332
 2253TIP3   OH2 6701   7.436   4.778   5.717
 2253TIP3    H1 6702   7.418   4.847   5.780
 2253TIP3    H2 6703   7.416   4.817   5.632
 2254TIP3   OH2 6704   2.194   5.688   6.535
 2254TIP3    H1 6705   2.280   5.730   6.537
 2254TIP3    H2 6706   2.134   5.758   6.508
 2255TIP3   OH2 6707   3.862   3.221   3.288
 2255TIP3    H1 6708   3.899   3.304   3.257
 2255TIP3    H2 6709   3.807   3.191   3.216
 2256TIP3   OH2 6710   2.766   0.568   6.505
 2256TIP3    H1 6711   2.819   0.643   6.478
 2256TIP3    H2 6712   2.764   0.512   6.428
 2257TIP3   OH2 6713   6.057   2.759   4.271
 2257TIP3    H1 6714   6.084   2.775   4.181
 2257TIP3    H2 6715   6.050   2.846   4.310
 2258TIP3   OH2 6716   3.815   5.312   3.493
 2258TIP3    H1 6717   3.861   5.229   3.503
 2258TIP3    H2 6718   3.819   5.331   3.400
 2259TIP3   OH2 6719   0.981   3.547   3.746
 2259TIP3    H1 6720   1.034   3.471   3.771
 2259TIP3    H2 6721   0.959   3.589   3.829
 2260TIP3   OH2 6722   0.718   4.339   6.474
 2260TIP3    H1 6723   0.811   4.320   6.462
 2260TIP3    H2 6724   0.676   4.304   6.396
 2261TIP3   OH2 6725   4.602   5.719   4.427
 2261TIP3    H1 6726   4.672   5.782   4.445
 2261TIP3    H2 6727   4.647   5.638   4.404
 2262TIP3   OH2 6728   3.302   6.557   1.418
 2262TIP3    H1 6729   3.338   6.560   1.507
 2262TIP3    H2 6730   3.309   6.647   1.386
 2263TIP3   OH2 6731   1.466   0.918   5.623
 2263TIP3    H1 6732   1.469   0.919   5.719
 2263TIP3    H2 6733   1.417   0.838   5.602
 2264TIP3   OH2 6734   2.821   3.373   4.448
 2264TIP3    H1 6735   2.808   3.466   4.429
 2264TIP3    H2 6736   2.913   3.358   4.431
 2265TIP3   OH2 6737   6.712   7.527   0.808
 2265TIP3    H1 6738   6.621   7.499   0.797
 2265TIP3    H2 6739   6.754   7.456   0.856
 2266TIP3   OH2 6740   5.370   5.999   4.325
 2266TIP3    H1 6741   5.368   6.042   4.411
 2266TIP3    H2 6742   5.362   5.906   4.345
 2267TIP3   OH2 6743   5.461   1.547   4.942
 2267TIP3    H1 6744   5.492   1.620   4.888
 2267TIP3    H2 6745   5.530   1.533   5.006
 2268TIP3   OH2 6746   2.092   7.642   3.765
 2268TIP3    H1 6747   2.168   7.616   3.818
 2268TIP3    H2 6748   2.036   7.564   3.765
 2269TIP3   OH2 6749   3.724   0.348   1.003
 2269TIP3    H1 6750   3.714   0.355   1.098
 2269TIP3    H2 6751   3.818   0.341   0.989
 2270TIP3   OH2 6752   2.881   0.482   5.135
 2270TIP3    H1 6753   2.911   0.569   5.161
 2270TIP3    H2 6754   2.865   0.437   5.218
 2271TIP3   OH2 6755   0.170   7.143   4.662
 2271TIP3    H1 6756   0.162   7.103   4.575
 2271TIP3    H2 6757   0.253   7.109   4.696
 2272TIP3   OH2 6758   2.286   7.530   2.449
 2272TIP3    H1 6759   2.249   7.503   2.365
 2272TIP3    H2 6760   2.213   7.573   2.494
 2273TIP3   OH2 6761   3.121   3.788   0.999
 2273TIP3    H1 6762   3.053   3.784   0.932
 2273TIP3    H2 6763   3.096   3.862   1.054
 2274TIP3   OH2 6764   6.675   6.001   3.371
 2274TIP3    H1 6765   6.599   6.023   3.425
 2274TIP3    H2 6766   6.708   6.085   3.339
 2275TIP3   OH2 6767   2.278   1.665   3.051
 2275TIP3    H1 6768   2.220   1.727   3.007
 2275TIP3    H2 6769   2.239   1.579   3.034
 2276TIP3   OH2 6770   2.852   7.330   2.354
 2276TIP3    H1 6771   2.877   7.370   2.270
 2276TIP3    H2 6772   2.853   7.236   2.336
 2277TIP3   OH2 6773   3.652   3.416   0.874
 2277TIP3    H1 6774   3.594   3.413   0.798
 2277TIP3    H2 6775   3.737   3.390   0.840
 2278TIP3   OH2 6776   2.666   4.893   0.383
 2278TIP3    H1 6777   2.684   4.951   0.309
 2278TIP3    H2 6778   2.719   4.928   0.454
 2279TIP3   OH2 6779   6.745   2.138   1.817
 2279TIP3    H1 6780   6.747   2.216   1.872
 2279TIP3    H2 6781   6.832   2.100   1.825
 2280TIP3   OH2 6782   2.540   6.141   5.790
 2280TIP3    H1 6783   2.497   6.064   5.827
 2280TIP3    H2 6784   2.504   6.147   5.701
 2281TIP3   OH2 6785   0.852   7.183   4.871
 2281TIP3    H1 6786   0.926   7.188   4.931
 2281TIP3    H2 6787   0.837   7.274   4.843
 2282TIP3   OH2 6788   2.381   7.148   0.453
 2282TIP3    H1 6789   2.470   7.182   0.439
 2282TIP3    H2 6790   2.367   7.090   0.378
 2283TIP3   OH2 6791   1.586   1.357   4.959
 2283TIP3    H1 6792   1.541   1.303   5.024
 2283TIP3    H2 6793   1.676   1.326   4.959
 2284TIP3   OH2 6794   3.003   2.821   3.034
 2284TIP3    H1 6795   3.064   2.889   3.005
 2284TIP3    H2 6796   3.009   2.823   3.130
 2285TIP3   OH2 6797   7.173   0.879   4.824
 2285TIP3    H1 6798   7.090   0.875   4.871
 2285TIP3    H2 6799   7.174   0.799   4.772
 2286TIP3   OH2 6800   3.672   1.762   6.452
 2286TIP3    H1 6801   3.713   1.737   6.535
 2286TIP3    H2 6802   3.726   1.834   6.419
 2287TIP3   OH2 6803   2.578   0.232   2.781
 2287TIP3    H1 6804   2.521   0.267   2.713
 2287TIP3    H2 6805   2.659   0.282   2.773
 2288TIP3   OH2 6806   6.306   5.189   3.100
 2288TIP3    H1 6807   6.301   5.284   3.096
 2288TIP3    H2 6808   6.319   5.169   3.192
 2289TIP3   OH2 6809   7.222   4.662   4.892
 2289TIP3    H1 6810   7.281   4.682   4.819
 2289TIP3    H2 6811   7.265   4.701   4.969
 2290TIP3   OH2 6812   7.044   4.963   1.446
 2290TIP3    H1 6813   6.999   5.000   1.522
 2290TIP3    H2 6814   7.107   5.030   1.421
 2291TIP3   OH2 6815   7.655   0.265   1.855
 2291TIP3    H1 6816   7.595   0.277   1.929
 2291TIP3    H2 6817   7.602   0.283   1.778
 2292TIP3   OH2 6818   6.897   7.815   3.508
 2292TIP3    H1 6819   6.948   7.848   3.582
 2292TIP3    H2 6820   6.830   7.759   3.548
 2293TIP3   OH2 6821   0.533   2.082   0.507
 2293TIP3    H1 6822   0.606   2.023   0.487
 2293TIP3    H2 6823   0.506   2.117   0.422
 2294TIP3   OH2 6824   7.676   5.651   2.429
 2294TIP3    H1 6825   7.694   5.674   2.338
 2294TIP3    H2 6826   7.656   5.734   2.471
 2295TIP3   OH2 6827   5.798   2.858   2.066
 2295TIP3    H1 6828   5.851   2.778   2.073
 2295TIP3    H2 6829   5.807   2.884   1.975
 2296TIP3   OH2 6830   1.719   0.935   2.539
 2296TIP3    H1 6831   1.735   1.016   2.586
 2296TIP3    H2 6832   1.774   0.870   2.583
 2297TIP3   OH2 6833   5.682   3.943   0.991
 2297TIP3    H1 6834   5.766   3.946   1.036
 2297TIP3    H2 6835   5.647   3.856   1.012
 2298TIP3   OH2 6836   7.746   2.276   5.758
 2298TIP3    H1 6837   7.744   2.369   5.738
 2298TIP3    H2 6838   7.654   2.250   5.764
 2299TIP3   OH2 6839   8.292   5.278   3.611
 2299TIP3    H1 6840   8.248   5.253   3.692
 2299TIP3    H2 6841   8.267   5.369   3.597
 2300TIP3   OH2 6842   2.413   3.643   4.677
 2300TIP3    H1 6843   2.341   3.658   4.615
 2300TIP3    H2 6844   2.481   3.705   4.651
 2301TIP3   OH2 6845   1.557   0.496   0.061
 2301TIP3    H1 6846   1.579   0.564  -0.003
 2301TIP3    H2 6847   1.480   0.452   0.025
 2302TIP3   OH2 6848   2.183   1.823   1.040
 2302TIP3    H1 6849   2.124   1.793   1.109
 2302TIP3    H2 6850   2.161   1.769   0.964
 2303TIP3   OH2 6851   3.337   3.867   1.193
 2303TIP3    H1 6852   3.251   3.827   1.208
 2303TIP3    H2 6853   3.395   3.793   1.176
 2304TIP3   OH2 6854   8.116   1.531   3.178
 2304TIP3    H1 6855   8.139   1.465   3.244
 2304TIP3    H2 6856   8.059   1.592   3.224
 2305TIP3   OH2 6857   1.821   0.039   4.158
 2305TIP3    H1 6858   1.902   0.088   4.169
 2305TIP3    H2 6859   1.822   0.011   4.066
 2306TIP3   OH2 6860   6.264   7.088   2.070
 2306TIP3    H1 6861   6.317   7.014   2.099
 2306TIP3    H2 6862   6.179   7.050   2.048
 2307TIP3   OH2 6863   7.794   7.617   0.233
 2307TIP3    H1 6864   7.747   7.679   0.177
 2307TIP3    H2 6865   7.880   7.608   0.191
 2308TIP3   OH2 6866   6.072   5.403   0.763
 2308TIP3    H1 6867   6.140   5.345   0.798
 2308TIP3    H2 6868   6.119   5.483   0.740
 2309TIP3   OH2 6869   5.751   6.679   5.493
 2309TIP3    H1 6870   5.755   6.774   5.489
 2309TIP3    H2 6871   5.673   6.656   5.441
 2310TIP3   OH2 6872   3.410   3.198   5.026
 2310TIP3    H1 6873   3.340   3.216   5.089
 2310TIP3    H2 6874   3.399   3.105   5.004
 2311TIP3   OH2 6875   1.958   3.389   1.750
 2311TIP3    H1 6876   1.910   3.437   1.683
 2311TIP3    H2 6877   1.891   3.344   1.801
 2312TIP3   OH2 6878   4.806   3.734   6.301
 2312TIP3    H1 6879   4.867   3.784   6.355
 2312TIP3    H2 6880   4.810   3.645   6.337
 2313TIP3   OH2 6881   3.675   1.012   2.595
 2313TIP3    H1 6882   3.678   1.047   2.685
 2313TIP3    H2 6883   3.752   1.049   2.552
 2314TIP3   OH2 6884   0.879   5.732   3.611
 2314TIP3    H1 6885   0.871   5.740   3.706
 2314TIP3    H2 6886   0.878   5.638   3.594
 2315TIP3   OH2 6887   1.519   1.909   0.077
 2315TIP3    H1 6888   1.462   1.851   0.128
 2315TIP3    H2 6889   1.598   1.857   0.061
 2316TIP3   OH2 6890   6.198   5.501   2.230
 2316TIP3    H1 6891   6.121   5.452   2.201
 2316TIP3    H2 6892   6.194   5.497   2.326
 2317TIP3   OH2 6893   5.979   4.545   5.114
 2317TIP3    H1 6894   6.042   4.558   5.185
 2317TIP3    H2 6895   6.014   4.596   5.042
 2318TIP3   OH2 6896   1.913   3.724   2.964
 2318TIP3    H1 6897   1.891   3.739   2.872
 2318TIP3    H2 6898   1.829   3.700   3.005
 2319TIP3   OH2 6899   2.121   0.995   6.048
 2319TIP3    H1 6900   2.102   0.904   6.069
 2319TIP3    H2 6901   2.092   1.044   6.125
 2320TIP3   OH2 6902   6.869   5.247   5.074
 2320TIP3    H1 6903   6.929   5.262   5.148
 2320TIP3    H2 6904   6.910   5.293   5.001
 2321TIP3   OH2 6905   0.416   0.546   5.795
 2321TIP3    H1 6906   0.465   0.628   5.804
 2321TIP3    H2 6907   0.448   0.509   5.713
 2322TIP3   OH2 6908   4.120   5.370   5.768
 2322TIP3    H1 6909   4.172   5.449   5.785
 2322TIP3    H2 6910   4.179   5.298   5.791
 2323TIP3   OH2 6911   6.051   1.318   6.012
 2323TIP3    H1 6912   6.127   1.343   6.065
 2323TIP3    H2 6913   6.053   1.377   5.937
 2324TIP3   OH2 6914   3.608   6.976   4.033
 2324TIP3    H1 6915   3.569   7.038   4.095
 2324TIP3    H2 6916   3.533   6.938   3.987
 2325TIP3   OH2 6917   2.520   1.402   4.000
 2325TIP3    H1 6918   2.504   1.434   3.911
 2325TIP3    H2 6919   2.600   1.446   4.028
 2326TIP3   OH2 6920   7.057   7.670   3.782
 2326TIP3    H1 6921   7.125   7.709   3.727
 2326TIP3    H2 6922   6.999   7.743   3.803
 2327TIP3   OH2 6923   5.848   1.430   1.773
 2327TIP3    H1 6924   5.854   1.518   1.809
 2327TIP3    H2 6925   5.892   1.434   1.688
 2328TIP3   OH2 6926   0.932   0.536   4.047
 2328TIP3    H1 6927   0.878   0.460   4.069
 2328TIP3    H2 6928   1.021   0.503   4.044
 2329TIP3   OH2 6929   1.564   6.067  -0.008
 2329TIP3    H1 6930   1.579   6.144   0.047
 2329TIP3    H2 6931   1.637   6.066  -0.069
 2330TIP3   OH2 6932   8.240   2.806   0.693
 2330TIP3    H1 6933   8.259   2.806   0.787
 2330TIP3    H2 6934   8.251   2.715   0.666
 2331TIP3   OH2 6935   0.040   1.979   5.906
 2331TIP3    H1 6936  -0.050   1.981   5.873
 2331TIP3    H2 6937   0.059   2.070   5.928
 2332TIP3   OH2 6938   0.093   4.152   1.837
 2332TIP3    H1 6939   0.103   4.145   1.932
 2332TIP3    H2 6940   0.010   4.198   1.825
 2333TIP3   OH2 6941   0.342   2.950   2.769
 2333TIP3    H1 6942   0.433   2.936   2.740
 2333TIP3    H2 6943   0.338   2.911   2.856
 2334TIP3   OH2 6944   6.452   1.508   5.293
 2334TIP3    H1 6945   6.365   1.513   5.332
 2334TIP3    H2 6946   6.460   1.589   5.242
 2335TIP3   OH2 6947   4.082   4.641   3.269
 2335TIP3    H1 6948   4.080   4.598   3.355
 2335TIP3    H2 6949   4.024   4.716   3.278
 2336TIP3   OH2 6950   8.195   5.042   3.393
 2336TIP3    H1 6951   8.167   4.955   3.422
 2336TIP3    H2 6952   8.235   5.082   3.470
 2337TIP3   OH2 6953   6.635   2.885   0.138
 2337TIP3    H1 6954   6.633   2.934   0.056
 2337TIP3    H2 6955   6.662   2.797   0.112
 2338TIP3   OH2 6956   2.159   6.156   2.670
 2338TIP3    H1 6957   2.173   6.088   2.604
 2338TIP3    H2 6958   2.077   6.198   2.644
 2339TIP3   OH2 6959   5.897   6.457   5.633
 2339TIP3    H1 6960   5.868   6.534   5.584
 2339TIP3    H2 6961   5.889   6.483   5.725
 2340TIP3   OH2 6962   7.383   3.766   4.384
 2340TIP3    H1 6963   7.329   3.763   4.463
 2340TIP3    H2 6964   7.450   3.832   4.403
 2341TIP3   OH2 6965   6.065   1.265   1.831
 2341TIP3    H1 6966   5.974   1.286   1.807
 2341TIP3    H2 6967   6.118   1.318   1.772
 2342TIP3   OH2 6968   1.845   4.163   3.166
 2342TIP3    H1 6969   1.753   4.140   3.154
 2342TIP3    H2 6970   1.865   4.136   3.256
 2343TIP3   OH2 6971   2.323   1.841   0.414
 2343TIP3    H1 6972   2.375   1.884   0.345
 2343TIP3    H2 6973   2.388   1.795   0.468
 2344TIP3   OH2 6974   2.674   0.826   1.202
 2344TIP3    H1 6975   2.616   0.777   1.261
 2344TIP3    H2 6976   2.615   0.887   1.157
 2345TIP3   OH2 6977   3.133   2.720   1.479
 2345TIP3    H1 6978   3.142   2.752   1.389
 2345TIP3    H2 6979   3.100   2.631   1.470
 2346TIP3   OH2 6980   0.803   6.591   4.138
 2346TIP3    H1 6981   0.737   6.649   4.100
 2346TIP3    H2 6982   0.755   6.541   4.205
 2347TIP3   OH2 6983   2.173   7.587   2.861
 2347TIP3    H1 6984   2.265   7.568   2.878
 2347TIP3    H2 6985   2.143   7.637   2.937
 2348TIP3   OH2 6986   1.325   4.890   1.777
 2348TIP3    H1 6987   1.403   4.834   1.773
 2348TIP3    H2 6988   1.277   4.859   1.853
 2349TIP3   OH2 6989   5.916   1.336   0.175
 2349TIP3    H1 6990   5.832   1.375   0.200
 2349TIP3    H2 6991   5.981   1.398   0.207
 2350TIP3   OH2 6992   6.402   7.399   3.930
 2350TIP3    H1 6993   6.498   7.393   3.924
 2350TIP3    H2 6994   6.371   7.317   3.892
 2351TIP3   OH2 6995   1.238   7.142   2.156
 2351TIP3    H1 6996   1.298   7.138   2.081
 2351TIP3    H2 6997   1.268   7.217   2.207
 2352TIP3   OH2 6998   5.034   0.320   6.177
 2352TIP3    H1 6999   4.975   0.254   6.140
 2352TIP3    H2 7000   5.093   0.269   6.234
 2353TIP3   OH2 7001   5.630   7.448   3.335
 2353TIP3    H1 7002   5.596   7.530   3.370
 2353TIP3    H2 7003   5.621   7.385   3.407
 2354TIP3   OH2 7004   7.562   5.918   5.010
 2354TIP3    H1 7005   7.552   5.935   4.916
 2354TIP3    H2 7006   7.654   5.938   5.029
 2355TIP3   OH2 7007   7.356   1.315   1.196
 2355TIP3    H1 7008   7.366   1.225   1.229
 2355TIP3    H2 7009   7.370   1.307   1.102
 2356TIP3   OH2 7010   8.218   3.169   0.351
 2356TIP3    H1 7011   8.235   3.075   0.343
 2356TIP3    H2 7012   8.222   3.186   0.445
 2357TIP3   OH2 7013   5.348   6.114   4.567
 2357TIP3    H1 7014   5.256   6.140   4.563
 2357TIP3    H2 7015   5.391   6.185   4.615
 2358TIP3   OH2 7016   6.318   5.253   4.378
 2358TIP3    H1 7017   6.264   5.266   4.456
 2358TIP3    H2 7018   6.256   5.251   4.305
 2359TIP3   OH2 7019   4.015   4.241   3.225
 2359TIP3    H1 7020   4.003   4.326   3.267
 2359TIP3    H2 7021   4.035   4.261   3.134
 2360TIP3   OH2 7022   0.384   4.314   6.730
 2360TIP3    H1 7023   0.477   4.299   6.745
 2360TIP3    H2 7024   0.364   4.258   6.655
 2361TIP3   OH2 7025   4.523   2.112   2.532
 2361TIP3    H1 7026   4.471   2.184   2.496
 2361TIP3    H2 7027   4.466   2.071   2.597
 2362TIP3   OH2 7028   2.987   0.500   4.186
 2362TIP3    H1 7029   2.985   0.576   4.245
 2362TIP3    H2 7030   2.973   0.537   4.099
 2363TIP3   OH2 7031   2.083   0.965   2.447
 2363TIP3    H1 7032   2.039   0.895   2.398
 2363TIP3    H2 7033   2.140   0.919   2.508
 2364TIP3   OH2 7034   1.591   5.216   4.862
 2364TIP3    H1 7035   1.524   5.260   4.810
 2364TIP3    H2 7036   1.542   5.171   4.931
 2365TIP3   OH2 7037   7.159   3.551   1.208
 2365TIP3    H1 7038   7.246   3.589   1.214
 2365TIP3    H2 7039   7.099   3.626   1.210
 2366TIP3   OH2 7040   6.076   5.270   1.755
 2366TIP3    H1 7041   6.120   5.209   1.814
 2366TIP3    H2 7042   6.137   5.344   1.747
 2367TIP3   OH2 7043   7.506   0.668   3.029
 2367TIP3    H1 7044   7.566   0.666   2.954
 2367TIP3    H2 7045   7.550   0.614   3.095
 2368TIP3   OH2 7046   4.648   2.783   1.352
 2368TIP3    H1 7047   4.554   2.774   1.340
 2368TIP3    H2 7048   4.677   2.838   1.279
 2369TIP3   OH2 7049   1.154   6.108   3.809
 2369TIP3    H1 7050   1.184   6.059   3.886
 2369TIP3    H2 7051   1.177   6.052   3.735
 2370TIP3   OH2 7052   2.307   5.768   4.882
 2370TIP3    H1 7053   2.366   5.733   4.950
 2370TIP3    H2 7054   2.227   5.791   4.929
 2371TIP3   OH2 7055   3.152   7.207   1.236
 2371TIP3    H1 7056   3.224   7.223   1.297
 2371TIP3    H2 7057   3.111   7.293   1.224
 2372TIP3   OH2 7058   0.189   2.996   3.560
 2372TIP3    H1 7059   0.147   3.081   3.553
 2372TIP3    H2 7060   0.202   2.982   3.653
 2373TIP3   OH2 7061   6.682   5.813   3.176
 2373TIP3    H1 7062   6.671   5.884   3.239
 2373TIP3    H2 7063   6.699   5.735   3.229
 2374TIP3   OH2 7064   4.504   1.364   0.090
 2374TIP3    H1 7065   4.438   1.347   0.157
 2374TIP3    H2 7066   4.583   1.321   0.123
 2375TIP3   OH2 7067   3.028   2.674   4.379
 2375TIP3    H1 7068   3.063   2.587   4.401
 2375TIP3    H2 7069   2.942   2.656   4.341
 2376TIP3   OH2 7070   0.669   6.528   0.608
 2376TIP3    H1 7071   0.611   6.602   0.587
 2376TIP3    H2 7072   0.648   6.462   0.542
 2377TIP3   OH2 7073   4.509   2.681   2.978
 2377TIP3    H1 7074   4.544   2.758   3.022
 2377TIP3    H2 7075   4.539   2.607   3.031
 2378TIP3   OH2 7076   7.612   3.183   5.222
 2378TIP3    H1 7077   7.547   3.122   5.257
 2378TIP3    H2 7078   7.567   3.228   5.150
 2379TIP3   OH2 7079   2.167   2.803   1.188
 2379TIP3    H1 7080   2.125   2.724   1.154
 2379TIP3    H2 7081   2.113   2.827   1.264
 2380TIP3   OH2 7082   2.647   2.824   5.129
 2380TIP3    H1 7083   2.564   2.820   5.081
 2380TIP3    H2 7084   2.622   2.855   5.217
 2381TIP3   OH2 7085   5.547   5.301   5.019
 2381TIP3    H1 7086   5.623   5.338   4.974
 2381TIP3    H2 7087   5.504   5.247   4.953
 2382TIP3   OH2 7088   4.165   4.995   1.041
 2382TIP3    H1 7089   4.193   4.958   1.125
 2382TIP3    H2 7090   4.070   5.009   1.052
 2383TIP3   OH2 7091   3.632   0.377   5.164
 2383TIP3    H1 7092   3.714   0.396   5.119
 2383TIP3    H2 7093   3.588   0.461   5.171
 2384TIP3   OH2 7094   1.093   3.169   5.989
 2384TIP3    H1 7095   1.128   3.165   5.900
 2384TIP3    H2 7096   1.026   3.237   5.986
 2385TIP3   OH2 7097   3.237   7.355   2.162
 2385TIP3    H1 7098   3.254   7.429   2.220
 2385TIP3    H2 7099   3.323   7.329   2.129
 2386TIP3   OH2 7100   4.188   1.007   0.845
 2386TIP3    H1 7101   4.274   1.008   0.803
 2386TIP3    H2 7102   4.194   0.935   0.909
 2387TIP3   OH2 7103   4.833   4.104   1.394
 2387TIP3    H1 7104   4.905   4.155   1.356
 2387TIP3    H2 7105   4.805   4.154   1.470
 2388TIP3   OH2 7106   6.103   4.250   1.548
 2388TIP3    H1 7107   6.175   4.285   1.599
 2388TIP3    H2 7108   6.026   4.259   1.604
 2389TIP3   OH2 7109   6.865   6.261   0.521
 2389TIP3    H1 7110   6.911   6.306   0.450
 2389TIP3    H2 7111   6.924   6.268   0.596
 2390TIP3   OH2 7112   5.714   2.976   3.438
 2390TIP3    H1 7113   5.682   3.066   3.430
 2390TIP3    H2 7114   5.706   2.957   3.532
 2391TIP3   OH2 7115   7.324   6.149   4.646
 2391TIP3    H1 7116   7.320   6.164   4.741
 2391TIP3    H2 7117   7.258   6.208   4.609
 2392TIP3   OH2 7118   3.568   6.511   6.133
 2392TIP3    H1 7119   3.634   6.532   6.067
 2392TIP3    H2 7120   3.588   6.421   6.159
 2393TIP3   OH2 7121   7.918   4.696   5.898
 2393TIP3    H1 7122   7.899   4.789   5.885
 2393TIP3    H2 7123   7.837   4.659   5.933
 2394TIP3   OH2 7124   4.742   0.779   4.744
 2394TIP3    H1 7125   4.683   0.703   4.750
 2394TIP3    H2 7126   4.806   0.766   4.813
 2395TIP3   OH2 7127   1.778   4.126   3.986
 2395TIP3    H1 7128   1.831   4.049   4.008
 2395TIP3    H2 7129   1.734   4.103   3.905
 2396TIP3   OH2 7130   7.224   7.702   3.152
 2396TIP3    H1 7131   7.175   7.774   3.112
 2396TIP3    H2 7132   7.311   7.738   3.167
 2397TIP3   OH2 7133   1.610   6.465   1.939
 2397TIP3    H1 7134   1.526   6.511   1.940
 2397TIP3    H2 7135   1.657   6.498   2.015
 2398TIP3   OH2 7136   0.632   6.950   1.747
 2398TIP3    H1 7137   0.626   7.043   1.725
 2398TIP3    H2 7138   0.705   6.918   1.694
 2399TIP3   OH2 7139   8.059   4.493   2.116
 2399TIP3    H1 7140   8.124   4.564   2.118
 2399TIP3    H2 7141   8.022   4.492   2.204
 2400TIP3   OH2 7142   6.045   2.831   0.673
 2400TIP3    H1 7143   6.046   2.900   0.740
 2400TIP3    H2 7144   5.971   2.854   0.616
 2401TIP3   OH2 7145   7.770   4.092   0.913
 2401TIP3    H1 7146   7.769   4.051   0.999
 2401TIP3    H2 7147   7.851   4.143   0.911
 2402TIP3   OH2 7148   2.404   4.334   0.493
 2402TIP3    H1 7149   2.475   4.337   0.557
 2402TIP3    H2 7150   2.410   4.417   0.447
 2403TIP3   OH2 7151   8.008   1.144   4.888
 2403TIP3    H1 7152   7.966   1.202   4.825
 2403TIP3    H2 7153   8.026   1.199   4.964
 2404TIP3   OH2 7154   7.358   2.882   6.072
 2404TIP3    H1 7155   7.290   2.949   6.077
 2404TIP3    H2 7156   7.437   2.931   6.049
 2405TIP3   OH2 7157   7.287   3.525   2.091
 2405TIP3    H1 7158   7.363   3.479   2.056
 2405TIP3    H2 7159   7.276   3.601   2.034
 2406TIP3   OH2 7160   1.870   5.434   1.276
 2406TIP3    H1 7161   1.947   5.401   1.322
 2406TIP3    H2 7162   1.796   5.399   1.326
 2407TIP3   OH2 7163   8.158   3.051   5.649
 2407TIP3    H1 7164   8.118   3.133   5.621
 2407TIP3    H2 7165   8.116   2.984   5.596
 2408TIP3   OH2 7166   4.100   6.398   2.315
 2408TIP3    H1 7167   4.162   6.357   2.254
 2408TIP3    H2 7168   4.155   6.444   2.378
 2409TIP3   OH2 7169   3.478   0.348   6.518
 2409TIP3    H1 7170   3.571   0.345   6.541
 2409TIP3    H2 7171   3.434   0.304   6.591
 2410TIP3   OH2 7172   2.189   6.506   1.933
 2410TIP3    H1 7173   2.110   6.515   1.987
 2410TIP3    H2 7174   2.251   6.463   1.991
 2411TIP3   OH2 7175   4.936   5.931   3.652
 2411TIP3    H1 7176   4.868   5.876   3.613
 2411TIP3    H2 7177   4.943   6.006   3.593
 2412TIP3   OH2 7178   7.240   4.368   6.092
 2412TIP3    H1 7179   7.226   4.457   6.059
 2412TIP3    H2 7180   7.162   4.349   6.144
 2413TIP3   OH2 7181   3.143   1.221   4.190
 2413TIP3    H1 7182   3.125   1.145   4.135
 2413TIP3    H2 7183   3.183   1.285   4.131
 2414TIP3   OH2 7184   3.167   5.457   3.392
 2414TIP3    H1 7185   3.233   5.464   3.323
 2414TIP3    H2 7186   3.085   5.442   3.346
 2415TIP3   OH2 7187   0.498   5.672   1.075
 2415TIP3    H1 7188   0.524   5.583   1.049
 2415TIP3    H2 7189   0.403   5.667   1.087
 2416TIP3   OH2 7190   4.199   2.061   1.727
 2416TIP3    H1 7191   4.229   2.077   1.637
 2416TIP3    H2 7192   4.105   2.044   1.717
 2417TIP3   OH2 7193   3.943   4.666   4.604
 2417TIP3    H1 7194   3.892   4.634   4.530
 2417TIP3    H2 7195   3.915   4.757   4.616
 2418TIP3   OH2 7196   1.640   7.774   0.396
 2418TIP3    H1 7197   1.659   7.740   0.308
 2418TIP3    H2 7198   1.726   7.792   0.434
 2419TIP3   OH2 7199   8.105   2.144   3.478
 2419TIP3    H1 7200   8.140   2.185   3.557
 2419TIP3    H2 7201   8.014   2.171   3.475
 2420TIP3   OH2 7202   7.290   5.134   3.717
 2420TIP3    H1 7203   7.216   5.105   3.769
 2420TIP3    H2 7204   7.367   5.112   3.769
 2421TIP3   OH2 7205   3.799   3.492   2.754
 2421TIP3    H1 7206   3.834   3.530   2.835
 2421TIP3    H2 7207   3.771   3.568   2.702
 2422TIP3   OH2 7208   5.480   6.607   2.418
 2422TIP3    H1 7209   5.388   6.634   2.423
 2422TIP3    H2 7210   5.529   6.681   2.454
 2423TIP3   OH2 7211   6.156   4.006   4.731
 2423TIP3    H1 7212   6.146   4.026   4.824
 2423TIP3    H2 7213   6.160   3.911   4.726
 2424TIP3   OH2 7214   1.027   3.264   4.352
 2424TIP3    H1 7215   1.067   3.263   4.265
 2424TIP3    H2 7216   0.960   3.196   4.348
 2425TIP3   OH2 7217   0.713   5.455   6.276
 2425TIP3    H1 7218   0.805   5.447   6.301
 2425TIP3    H2 7219   0.667   5.470   6.359
 2426TIP3   OH2 7220   7.831   5.445   6.269
 2426TIP3    H1 7221   7.877   5.403   6.197
 2426TIP3    H2 7222   7.866   5.535   6.270
 2427TIP3   OH2 7223   4.596   0.946   1.148
 2427TIP3    H1 7224   4.570   1.016   1.088
 2427TIP3    H2 7225   4.535   0.954   1.221
 2428TIP3   OH2 7226   3.449   7.281   2.868
 2428TIP3    H1 7227   3.429   7.188   2.872
 2428TIP3    H2 7228   3.537   7.288   2.906
 2429TIP3   OH2 7229   5.604   1.083   1.176
 2429TIP3    H1 7230   5.657   1.008   1.203
 2429TIP3    H2 7231   5.553   1.050   1.101
 2430TIP3   OH2 7232   0.652   1.710   3.728
 2430TIP3    H1 7233   0.593   1.744   3.795
 2430TIP3    H2 7234   0.668   1.619   3.754
 2431TIP3   OH2 7235   6.711   4.113   4.160
 2431TIP3    H1 7236   6.710   4.208   4.148
 2431TIP3    H2 7237   6.741   4.101   4.250
 2432TIP3   OH2 7238   4.668   4.485   4.217
 2432TIP3    H1 7239   4.584   4.439   4.226
 2432TIP3    H2 7240   4.683   4.489   4.122
 2433TIP3   OH2 7241   1.650   7.044   5.002
 2433TIP3    H1 7242   1.640   6.986   5.078
 2433TIP3    H2 7243   1.672   7.129   5.040
 2434TIP3   OH2 7244   1.423   2.425   2.188
 2434TIP3    H1 7245   1.330   2.405   2.182
 2434TIP3    H2 7246   1.427   2.520   2.191
 2435TIP3   OH2 7247   7.061   7.132   1.066
 2435TIP3    H1 7248   7.032   7.043   1.084
 2435TIP3    H2 7249   7.034   7.149   0.976
 2436TIP3   OH2 7250   5.715   0.663   4.507
 2436TIP3    H1 7251   5.682   0.605   4.576
 2436TIP3    H2 7252   5.733   0.605   4.433
 2437TIP3   OH2 7253   0.302   7.507   2.995
 2437TIP3    H1 7254   0.244   7.432   3.002
 2437TIP3    H2 7255   0.244   7.583   3.001
 2438TIP3   OH2 7256   6.876   3.192   5.374
 2438TIP3    H1 7257   6.853   3.235   5.292
 2438TIP3    H2 7258   6.956   3.143   5.353
 2439TIP3   OH2 7259   5.161   2.256   0.095
 2439TIP3    H1 7260   5.246   2.297   0.081
 2439TIP3    H2 7261   5.153   2.193   0.024
 2440TIP3   OH2 7262   7.063   5.015   3.790
 2440TIP3    H1 7263   6.981   5.019   3.742
 2440TIP3    H2 7264   7.037   5.001   3.881
 2441TIP3   OH2 7265   5.810   2.773   3.313
 2441TIP3    H1 7266   5.897   2.770   3.354
 2441TIP3    H2 7267   5.766   2.847   3.354
 2442TIP3   OH2 7268   0.972   0.177   0.685
 2442TIP3    H1 7269   0.940   0.099   0.640
 2442TIP3    H2 7270   1.062   0.156   0.710
 2443TIP3   OH2 7271   7.973   2.727   1.855
 2443TIP3    H1 7272   8.012   2.678   1.783
 2443TIP3    H2 7273   8.040   2.792   1.878
 2444TIP3   OH2 7274   3.398   0.352   0.387
 2444TIP3    H1 7275   3.483   0.341   0.344
 2444TIP3    H2 7276   3.349   0.411   0.329
 2445TIP3   OH2 7277   2.783   2.931   6.114
 2445TIP3    H1 7278   2.835   2.873   6.169
 2445TIP3    H2 7279   2.769   3.009   6.167
 2446TIP3   OH2 7280   5.755   1.524   3.244
 2446TIP3    H1 7281   5.780   1.433   3.228
 2446TIP3    H2 7282   5.747   1.531   3.339
 2447TIP3   OH2 7283   6.274   6.186   3.309
 2447TIP3    H1 7284   6.331   6.177   3.385
 2447TIP3    H2 7285   6.331   6.221   3.240
 2448TIP3   OH2 7286   7.026   5.376   3.551
 2448TIP3    H1 7287   6.978   5.358   3.632
 2448TIP3    H2 7288   7.001   5.466   3.528
 2449TIP3   OH2 7289   1.263   1.480   5.101
 2449TIP3    H1 7290   1.312   1.419   5.156
 2449TIP3    H2 7291   1.185   1.430   5.075
 2450TIP3   OH2 7292   4.376   1.926   5.237
 2450TIP3    H1 7293   4.441   1.988   5.273
 2450TIP3    H2 7294   4.429   1.859   5.194
 2451TIP3   OH2 7295   7.876   3.705   2.865
 2451TIP3    H1 7296   7.908   3.744   2.784
 2451TIP3    H2 7297   7.870   3.612   2.846
 2452TIP3   OH2 7298   7.714   2.561   6.388
 2452TIP3    H1 7299   7.719   2.655   6.405
 2452TIP3    H2 7300   7.621   2.540   6.394
 2453TIP3   OH2 7301   6.924   2.180   0.813
 2453TIP3    H1 7302   6.955   2.187   0.723
 2453TIP3    H2 7303   6.954   2.094   0.841
 2454TIP3   OH2 7304   8.177   2.729   4.291
 2454TIP3    H1 7305   8.123   2.731   4.370
 2454TIP3    H2 7306   8.260   2.691   4.319
 2455TIP3   OH2 7307   7.724   5.506   3.901
 2455TIP3    H1 7308   7.783   5.435   3.877
 2455TIP3    H2 7309   7.656   5.464   3.953
 2456TIP3   OH2 7310   2.389   6.848   0.848
 2456TIP3    H1 7311   2.483   6.840   0.830
 2456TIP3    H2 7312   2.360   6.921   0.793
 2457TIP3   OH2 7313   6.662   6.686   6.177
 2457TIP3    H1 7314   6.629   6.737   6.252
 2457TIP3    H2 7315   6.667   6.750   6.106
 2458TIP3   OH2 7316   1.963   6.825   2.808
 2458TIP3    H1 7317   2.008   6.867   2.881
 2458TIP3    H2 7318   1.944   6.736   2.839
 2459TIP3   OH2 7319   7.574   5.923   5.801
 2459TIP3    H1 7320   7.501   5.931   5.862
 2459TIP3    H2 7321   7.635   5.992   5.827
 2460TIP3   OH2 7322   1.317   6.191   1.392
 2460TIP3    H1 7323   1.277   6.126   1.451
 2460TIP3    H2 7324   1.325   6.270   1.446
 2461TIP3   OH2 7325   2.532   2.239   2.273
 2461TIP3    H1 7326   2.600   2.176   2.248
 2461TIP3    H2 7327   2.516   2.221   2.365
 2462TIP3   OH2 7328   5.073   5.556   1.454
 2462TIP3    H1 7329   5.117   5.474   1.432
 2462TIP3    H2 7330   5.048   5.593   1.369
 2463TIP3   OH2 7331   6.405   4.426   5.059
 2463TIP3    H1 7332   6.454   4.353   5.096
 2463TIP3    H2 7333   6.470   4.480   5.014
 2464TIP3   OH2 7334   0.366   0.548   1.326
 2464TIP3    H1 7335   0.450   0.502   1.328
 2464TIP3    H2 7336   0.301   0.479   1.317
 2465TIP3   OH2 7337   1.181   0.911   3.832
 2465TIP3    H1 7338   1.116   0.840   3.832
 2465TIP3    H2 7339   1.219   0.909   3.745
 2466TIP3   OH2 7340   7.294   4.927   1.073
 2466TIP3    H1 7341   7.284   5.019   1.099
 2466TIP3    H2 7342   7.221   4.911   1.013
 2467TIP3   OH2 7343   2.260   1.418   5.534
 2467TIP3    H1 7344   2.237   1.420   5.627
 2467TIP3    H2 7345   2.212   1.492   5.496
 2468TIP3   OH2 7346   3.862   4.290   3.763
 2468TIP3    H1 7347   3.854   4.327   3.851
 2468TIP3    H2 7348   3.840   4.198   3.773
 2469TIP3   OH2 7349   0.249   2.370   3.895
 2469TIP3    H1 7350   0.311   2.410   3.833
 2469TIP3    H2 7351   0.233   2.282   3.859
 2470TIP3   OH2 7352   6.075   6.745   0.069
 2470TIP3    H1 7353   6.138   6.802   0.026
 2470TIP3    H2 7354   6.122   6.663   0.085
 2471TIP3   OH2 7355   3.243   4.692   1.354
 2471TIP3    H1 7356   3.156   4.661   1.328
 2471TIP3    H2 7357   3.230   4.785   1.374
 2472TIP3   OH2 7358   1.838   2.591   4.540
 2472TIP3    H1 7359   1.815   2.519   4.598
 2472TIP3    H2 7360   1.903   2.641   4.589
 2473TIP3   OH2 7361   4.613   7.466   6.531
 2473TIP3    H1 7362   4.520   7.458   6.510
 2473TIP3    H2 7363   4.659   7.439   6.451
 2474TIP3   OH2 7364   7.215   0.055   1.397
 2474TIP3    H1 7365   7.253  -0.020   1.351
 2474TIP3    H2 7366   7.144   0.084   1.341
 2475TIP3   OH2 7367   3.426   5.836   0.082
 2475TIP3    H1 7368   3.500   5.790   0.041
 2475TIP3    H2 7369   3.353   5.775   0.075
 2476TIP3   OH2 7370   5.274   6.933   1.897
 2476TIP3    H1 7371   5.211   6.927   1.969
 2476TIP3    H2 7372   5.360   6.925   1.940
 2477TIP3   OH2 7373   0.719   2.426   6.504
 2477TIP3    H1 7374   0.782   2.416   6.575
 2477TIP3    H2 7375   0.635   2.401   6.542
 2478TIP3   OH2 7376   1.162   1.284   3.285
 2478TIP3    H1 7377   1.186   1.355   3.345
 2478TIP3    H2 7378   1.225   1.290   3.214
 2479TIP3   OH2 7379   8.101   3.364   1.610
 2479TIP3    H1 7380   8.169   3.404   1.556
 2479TIP3    H2 7381   8.149   3.310   1.672
 2480TIP3   OH2 7382   1.909   0.276   4.540
 2480TIP3    H1 7383   1.918   0.370   4.524
 2480TIP3    H2 7384   1.815   0.262   4.548
 2481TIP3   OH2 7385   5.918   3.787   3.594
 2481TIP3    H1 7386   5.948   3.744   3.674
 2481TIP3    H2 7387   5.958   3.874   3.598
 2482TIP3   OH2 7388   3.742   3.375   3.897
 2482TIP3    H1 7389   3.803   3.417   3.836
 2482TIP3    H2 7390   3.671   3.344   3.842
 2483TIP3   OH2 7391   3.045   0.342   1.679
 2483TIP3    H1 7392   3.123   0.344   1.734
 2483TIP3    H2 7393   3.075   0.375   1.594
 2484TIP3   OH2 7394   7.403   0.035   6.430
 2484TIP3    H1 7395   7.349  -0.034   6.392
 2484TIP3    H2 7396   7.486  -0.009   6.452
 2485TIP3   OH2 7397   3.324   6.875   4.607
 2485TIP3    H1 7398   3.417   6.868   4.587
 2485TIP3    H2 7399   3.291   6.941   4.547
 2486TIP3   OH2 7400   7.628   5.954   2.775
 2486TIP3    H1 7401   7.619   6.040   2.733
 2486TIP3    H2 7402   7.552   5.905   2.745
 2487TIP3   OH2 7403   7.132   4.831   1.752
 2487TIP3    H1 7404   7.187   4.858   1.679
 2487TIP3    H2 7405   7.192   4.820   1.826
 2488TIP3   OH2 7406   5.490   2.236   0.695
 2488TIP3    H1 7407   5.570   2.188   0.674
 2488TIP3    H2 7408   5.471   2.287   0.616
 2489TIP3   OH2 7409   4.620   5.600   5.038
 2489TIP3    H1 7410   4.618   5.553   5.122
 2489TIP3    H2 7411   4.643   5.690   5.062
 2490TIP3   OH2 7412   6.675   0.982   1.640
 2490TIP3    H1 7413   6.587   0.947   1.651
 2490TIP3    H2 7414   6.731   0.921   1.687
 2491TIP3   OH2 7415   0.131   3.042   6.429
 2491TIP3    H1 7416   0.137   3.113   6.493
 2491TIP3    H2 7417   0.222   3.019   6.410
 2492TIP3   OH2 7418   0.651   2.460   0.333
 2492TIP3    H1 7419   0.717   2.396   0.308
 2492TIP3    H2 7420   0.578   2.446   0.272
 2493TIP3   OH2 7421   3.766   2.183   3.391
 2493TIP3    H1 7422   3.829   2.178   3.319
 2493TIP3    H2 7423   3.685   2.214   3.351
 2494TIP3   OH2 7424   8.026   7.654   0.077
 2494TIP3    H1 7425   8.104   7.601   0.095
 2494TIP3    H2 7426   8.061   7.743   0.065
 2495TIP3   OH2 7427   7.357   7.367   6.258
 2495TIP3    H1 7428   7.405   7.291   6.290
 2495TIP3    H2 7429   7.417   7.440   6.270
 2496TIP3   OH2 7430   3.430   1.522   5.758
 2496TIP3    H1 7431   3.447   1.548   5.667
 2496TIP3    H2 7432   3.361   1.581   5.787
 2497TIP3   OH2 7433   2.180   3.335   2.422
 2497TIP3    H1 7434   2.173   3.262   2.360
 2497TIP3    H2 7435   2.262   3.379   2.400
 2498TIP3   OH2 7436   3.986   0.875   1.300
 2498TIP3    H1 7437   4.052   0.943   1.293
 2498TIP3    H2 7438   3.972   0.845   1.211
 2499TIP3   OH2 7439   5.449   2.088   4.180
 2499TIP3    H1 7440   5.359   2.055   4.183
 2499TIP3    H2 7441   5.501   2.012   4.154
 2500TIP3   OH2 7442   5.236   4.165   3.728
 2500TIP3    H1 7443   5.213   4.115   3.806
 2500TIP3    H2 7444   5.310   4.219   3.755
 2501TIP3   OH2 7445   1.076   4.501   1.838
 2501TIP3    H1 7446   1.008   4.482   1.903
 2501TIP3    H2 7447   1.040   4.467   1.756
 2502TIP3   OH2 7448   0.076   4.936   4.861
 2502TIP3    H1 7449   0.162   4.972   4.836
 2502TIP3    H2 7450   0.097   4.866   4.923
 2503TIP3   OH2 7451   3.467   6.833   0.607
 2503TIP3    H1 7452   3.469   6.816   0.513
 2503TIP3    H2 7453   3.381   6.802   0.635
 2504TIP3   OH2 7454   4.427   6.935   0.365
 2504TIP3    H1 7455   4.367   6.925   0.439
 2504TIP3    H2 7456   4.370   6.932   0.288
 2505TIP3   OH2 7457   6.613   3.775   3.609
 2505TIP3    H1 7458   6.556   3.818   3.545
 2505TIP3    H2 7459   6.692   3.754   3.559
 2506TIP3   OH2 7460   1.427   0.296   4.850
 2506TIP3    H1 7461   1.491   0.363   4.825
 2506TIP3    H2 7462   1.370   0.289   4.774
 2507TIP3   OH2 7463   0.146   4.365   4.420
 2507TIP3    H1 7464   0.209   4.316   4.367
 2507TIP3    H2 7465   0.187   4.452   4.430
 2508TIP3   OH2 7466   6.968   0.571   0.295
 2508TIP3    H1 7467   7.015   0.651   0.271
 2508TIP3    H2 7468   7.030   0.500   0.276
 2509TIP3   OH2 7469   0.465   7.463   1.562
 2509TIP3    H1 7470   0.525   7.535   1.541
 2509TIP3    H2 7471   0.426   7.488   1.646
 2510TIP3   OH2 7472   7.074   7.477   4.218
 2510TIP3    H1 7473   7.033   7.562   4.204
 2510TIP3    H2 7474   7.167   7.496   4.224
 2511TIP3   OH2 7475   0.701   2.597   1.740
 2511TIP3    H1 7476   0.702   2.510   1.780
 2511TIP3    H2 7477   0.608   2.623   1.742
 2512TIP3   OH2 7478   2.978   1.415   6.555
 2512TIP3    H1 7479   3.068   1.430   6.525
 2512TIP3    H2 7480   2.930   1.392   6.476
 2513TIP3   OH2 7481   2.652   6.507   2.439
 2513TIP3    H1 7482   2.672   6.455   2.362
 2513TIP3    H2 7483   2.557   6.516   2.438
 2514TIP3   OH2 7484   6.107   7.052   3.435
 2514TIP3    H1 7485   6.187   7.018   3.397
 2514TIP3    H2 7486   6.055   6.975   3.457
 2515TIP3   OH2 7487   3.010   1.547   3.317
 2515TIP3    H1 7488   3.027   1.539   3.411
 2515TIP3    H2 7489   3.095   1.569   3.279
 2516TIP3   OH2 7490   3.881   3.182   1.235
 2516TIP3    H1 7491   3.915   3.234   1.163
 2516TIP3    H2 7492   3.812   3.236   1.273
 2517TIP3   OH2 7493   7.605   6.625   3.550
 2517TIP3    H1 7494   7.681   6.675   3.579
 2517TIP3    H2 7495   7.641   6.551   3.501
 2518TIP3   OH2 7496   0.948   3.723   0.196
 2518TIP3    H1 7497   1.003   3.727   0.118
 2518TIP3    H2 7498   0.887   3.796   0.186
 2519TIP3   OH2 7499   7.109   4.737   6.557
 2519TIP3    H1 7500   7.092   4.831   6.560
 2519TIP3    H2 7501   7.090   4.706   6.646
 2520TIP3   OH2 7502   4.610   2.611   4.448
 2520TIP3    H1 7503   4.537   2.672   4.439
 2520TIP3    H2 7504   4.683   2.653   4.403
 2521TIP3   OH2 7505   2.479   6.937   5.505
 2521TIP3    H1 7506   2.449   6.852   5.473
 2521TIP3    H2 7507   2.575   6.928   5.509
 2522TIP3   OH2 7508   6.416   0.221   0.834
 2522TIP3    H1 7509   6.509   0.243   0.828
 2522TIP3    H2 7510   6.411   0.130   0.806
 2523TIP3   OH2 7511   6.381   5.345   2.124
 2523TIP3    H1 7512   6.438   5.422   2.137
 2523TIP3    H2 7513   6.299   5.369   2.167
 2524TIP3   OH2 7514   3.499   6.627   5.767
 2524TIP3    H1 7515   3.579   6.611   5.817
 2524TIP3    H2 7516   3.443   6.552   5.786
 2525TIP3   OH2 7517   0.511   1.127   5.900
 2525TIP3    H1 7518   0.442   1.080   5.854
 2525TIP3    H2 7519   0.592   1.098   5.858
 2526TIP3   OH2 7520   7.636   6.303   1.934
 2526TIP3    H1 7521   7.597   6.275   1.851
 2526TIP3    H2 7522   7.693   6.376   1.911
 2527TIP3   OH2 7523   4.775   2.112   4.649
 2527TIP3    H1 7524   4.689   2.069   4.641
 2527TIP3    H2 7525   4.834   2.058   4.597
 2528TIP3   OH2 7526   5.515   2.694   0.118
 2528TIP3    H1 7527   5.429   2.668   0.086
 2528TIP3    H2 7528   5.552   2.745   0.045
 2529TIP3   OH2 7529   4.629   4.258   1.292
 2529TIP3    H1 7530   4.592   4.191   1.234
 2529TIP3    H2 7531   4.706   4.215   1.331
 2530TIP3   OH2 7532   6.999   0.472   5.481
 2530TIP3    H1 7533   7.002   0.490   5.575
 2530TIP3    H2 7534   7.000   0.559   5.441
 2531TIP3   OH2 7535   7.886   6.429   4.916
 2531TIP3    H1 7536   7.891   6.397   4.826
 2531TIP3    H2 7537   7.957   6.384   4.962
 2532TIP3   OH2 7538   8.208   6.285   3.860
 2532TIP3    H1 7539   8.116   6.261   3.847
 2532TIP3    H2 7540   8.254   6.243   3.788
 2533TIP3   OH2 7541   2.291   0.763   1.569
 2533TIP3    H1 7542   2.246   0.847   1.580
 2533TIP3    H2 7543   2.229   0.708   1.523
 2534TIP3   OH2 7544   6.957   2.770   0.408
 2534TIP3    H1 7545   6.940   2.841   0.345
 2534TIP3    H2 7546   6.966   2.692   0.353
 2535TIP3   OH2 7547   7.332   5.995   2.311
 2535TIP3    H1 7548   7.355   5.916   2.262
 2535TIP3    H2 7549   7.312   6.060   2.244
 2536TIP3   OH2 7550   0.238   2.291   1.089
 2536TIP3    H1 7551   0.148   2.318   1.103
 2536TIP3    H2 7552   0.234   2.228   1.017
 2537TIP3   OH2 7553   7.711   5.544   0.094
 2537TIP3    H1 7554   7.801   5.521   0.119
 2537TIP3    H2 7555   7.656   5.485   0.145
 2538TIP3   OH2 7556   4.290   5.454   0.700
 2538TIP3    H1 7557   4.363   5.403   0.666
 2538TIP3    H2 7558   4.275   5.420   0.788
 2539TIP3   OH2 7559   2.953   5.505   4.459
 2539TIP3    H1 7560   3.011   5.510   4.534
 2539TIP3    H2 7561   2.892   5.434   4.480
 2540TIP3   OH2 7562   3.155   3.504   4.178
 2540TIP3    H1 7563   3.157   3.408   4.183
 2540TIP3    H2 7564   3.083   3.529   4.234
 2541TIP3   OH2 7565   0.684   0.596   4.123
 2541TIP3    H1 7566   0.772   0.595   4.087
 2541TIP3    H2 7567   0.639   0.666   4.076
 2542TIP3   OH2 7568   5.718   1.210   1.583
 2542TIP3    H1 7569   5.809   1.239   1.578
 2542TIP3    H2 7570   5.696   1.217   1.676
 2543TIP3   OH2 7571   1.000   7.152   2.770
 2543TIP3    H1 7572   1.011   7.233   2.720
 2543TIP3    H2 7573   1.067   7.156   2.838
 2544TIP3   OH2 7574   0.363   1.125   2.866
 2544TIP3    H1 7575   0.442   1.071   2.855
 2544TIP3    H2 7576   0.336   1.146   2.777
 2545TIP3   OH2 7577   0.204   6.197   1.023
 2545TIP3    H1 7578   0.149   6.174   0.948
 2545TIP3    H2 7579   0.211   6.116   1.073
 2546TIP3   OH2 7580   2.322   5.909   1.453
 2546TIP3    H1 7581   2.271   5.868   1.523
 2546TIP3    H2 7582   2.345   5.996   1.488
 2547TIP3   OH2 7583   6.320   6.245   1.629
 2547TIP3    H1 7584   6.345   6.223   1.719
 2547TIP3    H2 7585   6.250   6.310   1.639
 2548TIP3   OH2 7586   1.319   4.416   3.818
 2548TIP3    H1 7587   1.303   4.323   3.799
 2548TIP3    H2 7588   1.236   4.447   3.855
 2549TIP3   OH2 7589   4.594   7.660   5.342
 2549TIP3    H1 7590   4.549   7.576   5.350
 2549TIP3    H2 7591   4.524   7.722   5.319
 2550TIP3   OH2 7592   6.419   6.552   0.422
 2550TIP3    H1 7593   6.481   6.502   0.368
 2550TIP3    H2 7594   6.444   6.532   0.512
 2551TIP3   OH2 7595   6.555   5.605   5.797
 2551TIP3    H1 7596   6.477   5.649   5.830
 2551TIP3    H2 7597   6.530   5.575   5.710
 2552TIP3   OH2 7598   2.188   0.231   2.053
 2552TIP3    H1 7599   2.202   0.224   1.959
 2552TIP3    H2 7600   2.122   0.299   2.063
 2553TIP3   OH2 7601   5.925   4.170   4.105
 2553TIP3    H1 7602   5.998   4.227   4.081
 2553TIP3    H2 7603   5.904   4.123   4.025
 2554TIP3   OH2 7604   1.227   4.441   3.487
 2554TIP3    H1 7605   1.248   4.366   3.542
 2554TIP3    H2 7606   1.265   4.420   3.402
 2555TIP3   OH2 7607   5.751   0.421   5.634
 2555TIP3    H1 7608   5.727   0.395   5.723
 2555TIP3    H2 7609   5.803   0.348   5.600
 2556TIP3   OH2 7610   7.099   2.628   4.385
 2556TIP3    H1 7611   7.012   2.658   4.359
 2556TIP3    H2 7612   7.119   2.556   4.325
 2557TIP3   OH2 7613   5.038   4.532   5.477
 2557TIP3    H1 7614   4.984   4.455   5.491
 2557TIP3    H2 7615   5.018   4.558   5.387
 2558TIP3   OH2 7616   3.599   6.642   1.004
 2558TIP3    H1 7617   3.676   6.601   1.044
 2558TIP3    H2 7618   3.624   6.733   0.992
 2559TIP3   OH2 7619   0.672   4.292   2.228
 2559TIP3    H1 7620   0.719   4.272   2.309
 2559TIP3    H2 7621   0.740   4.327   2.169
 2560TIP3   OH2 7622   2.889   3.693   3.734
 2560TIP3    H1 7623   2.917   3.782   3.755
 2560TIP3    H2 7624   2.853   3.698   3.646
 2561TIP3   OH2 7625   4.124   5.724   5.001
 2561TIP3    H1 7626   4.205   5.696   4.959
 2561TIP3    H2 7627   4.064   5.739   4.927
 2562TIP3   OH2 7628   4.038   6.208   0.137
 2562TIP3    H1 7629   3.992   6.244   0.061
 2562TIP3    H2 7630   4.070   6.285   0.185
 2563TIP3   OH2 7631   7.480   7.082   4.504
 2563TIP3    H1 7632   7.522   7.005   4.466
 2563TIP3    H2 7633   7.467   7.058   4.596
 2564TIP3   OH2 7634   7.828   3.376   4.432
 2564TIP3    H1 7635   7.804   3.382   4.340
 2564TIP3    H2 7636   7.765   3.314   4.469
 2565TIP3   OH2 7637   4.931   4.452   2.905
 2565TIP3    H1 7638   4.876   4.441   2.827
 2565TIP3    H2 7639   4.937   4.547   2.917
 2566TIP3   OH2 7640   6.083   4.251   4.638
 2566TIP3    H1 7641   6.088   4.157   4.652
 2566TIP3    H2 7642   6.084   4.261   4.542
 2567TIP3   OH2 7643   3.381   1.810   4.300
 2567TIP3    H1 7644   3.333   1.867   4.240
 2567TIP3    H2 7645   3.459   1.784   4.252
 2568TIP3   OH2 7646   1.461   2.709   2.200
 2568TIP3    H1 7647   1.448   2.783   2.260
 2568TIP3    H2 7648   1.426   2.740   2.116
 2569TIP3   OH2 7649   6.979   1.750   1.863
 2569TIP3    H1 7650   7.007   1.659   1.874
 2569TIP3    H2 7651   6.886   1.744   1.840
 2570TIP3   OH2 7652   5.066   3.711   3.157
 2570TIP3    H1 7653   5.059   3.743   3.247
 2570TIP3    H2 7654   4.985   3.742   3.115
 2571TIP3   OH2 7655   0.650   4.000   0.474
 2571TIP3    H1 7656   0.632   3.925   0.418
 2571TIP3    H2 7657   0.717   4.050   0.426
 2572TIP3   OH2 7658   3.825   3.213   5.440
 2572TIP3    H1 7659   3.869   3.264   5.372
 2572TIP3    H2 7660   3.754   3.168   5.393
 2573TIP3   OH2 7661   7.546   6.959   6.205
 2573TIP3    H1 7662   7.561   7.039   6.154
 2573TIP3    H2 7663   7.466   6.921   6.168
 2574TIP3   OH2 7664   1.991   1.172   3.452
 2574TIP3    H1 7665   1.998   1.256   3.496
 2574TIP3    H2 7666   1.961   1.112   3.520
 2575TIP3   OH2 7667   4.073   1.838   0.251
 2575TIP3    H1 7668   4.036   1.911   0.201
 2575TIP3    H2 7669   4.124   1.879   0.320
 2576TIP3   OH2 7670   3.011   4.528   4.136
 2576TIP3    H1 7671   3.072   4.595   4.164
 2576TIP3    H2 7672   3.018   4.459   4.202
 2577TIP3   OH2 7673   2.822   6.896   3.855
 2577TIP3    H1 7674   2.824   6.969   3.916
 2577TIP3    H2 7675   2.791   6.935   3.773
 2578TIP3   OH2 7676   2.917   7.444   2.573
 2578TIP3    H1 7677   2.911   7.539   2.569
 2578TIP3    H2 7678   2.889   7.414   2.487
 2579TIP3   OH2 7679   2.183   3.924   3.206
 2579TIP3    H1 7680   2.241   3.848   3.203
 2579TIP3    H2 7681   2.203   3.974   3.127
 2580TIP3   OH2 7682   2.944   1.870   2.762
 2580TIP3    H1 7683   2.889   1.815   2.818
 2580TIP3    H2 7684   2.947   1.824   2.678
 2581TIP3   OH2 7685   6.582   6.002   1.407
 2581TIP3    H1 7686   6.510   6.032   1.351
 2581TIP3    H2 7687   6.658   5.999   1.348
 2582TIP3   OH2 7688  -0.012   5.118   6.046
 2582TIP3    H1 7689   0.078   5.086   6.051
 2582TIP3    H2 7690  -0.015   5.168   5.964
 2583TIP3   OH2 7691   5.065   0.837   5.344
 2583TIP3    H1 7692   5.063   0.743   5.365
 2583TIP3    H2 7693   4.973   0.865   5.351
 2584TIP3   OH2 7694   2.182   7.648   1.604
 2584TIP3    H1 7695   2.268   7.614   1.576
 2584TIP3    H2 7696   2.194   7.743   1.607
 2585TIP3   OH2 7697   0.114   3.541   4.728
 2585TIP3    H1 7698   0.022   3.564   4.738
 2585TIP3    H2 7699   0.123   3.455   4.769
 2586TIP3   OH2 7700   1.136   3.724   1.189
 2586TIP3    H1 7701   1.226   3.699   1.213
 2586TIP3    H2 7702   1.098   3.643   1.154
 2587TIP3   OH2 7703   7.426   1.437   5.233
 2587TIP3    H1 7704   7.504   1.489   5.212
 2587TIP3    H2 7705   7.459   1.367   5.289
 2588TIP3   OH2 7706   7.332   4.055   0.148
 2588TIP3    H1 7707   7.274   4.063   0.072
 2588TIP3    H2 7708   7.366   3.966   0.143
 2589TIP3   OH2 7709   0.934   1.624   1.228
 2589TIP3    H1 7710   0.977   1.540   1.245
 2589TIP3    H2 7711   0.856   1.601   1.178
 2590TIP3   OH2 7712   7.928   6.691   5.592
 2590TIP3    H1 7713   7.938   6.690   5.687
 2590TIP3    H2 7714   7.848   6.641   5.576
 2591TIP3   OH2 7715   7.327   6.930   0.033
 2591TIP3    H1 7716   7.231   6.932   0.035
 2591TIP3    H2 7717   7.353   7.018   0.059
 2592TIP3   OH2 7718   7.948   5.044   4.176
 2592TIP3    H1 7719   7.959   5.023   4.083
 2592TIP3    H2 7720   7.964   5.139   4.181
 2593TIP3   OH2 7721   0.233   3.282   5.554
 2593TIP3    H1 7722   0.207   3.236   5.634
 2593TIP3    H2 7723   0.196   3.369   5.564
 2594TIP3   OH2 7724   6.913   3.919   2.524
 2594TIP3    H1 7725   6.991   3.932   2.577
 2594TIP3    H2 7726   6.944   3.871   2.447
 2595TIP3   OH2 7727   1.590   0.229   4.171
 2595TIP3    H1 7728   1.665   0.258   4.222
 2595TIP3    H2 7729   1.622   0.154   4.121
 2596TIP3   OH2 7730   7.960   5.308   4.247
 2596TIP3    H1 7731   7.966   5.341   4.157
 2596TIP3    H2 7732   8.031   5.353   4.293
 2597TIP3   OH2 7733   2.340   7.157   2.835
 2597TIP3    H1 7734   2.348   7.238   2.786
 2597TIP3    H2 7735   2.299   7.096   2.774
 2598TIP3   OH2 7736   0.380   1.237   5.505
 2598TIP3    H1 7737   0.437   1.257   5.580
 2598TIP3    H2 7738   0.298   1.280   5.525
 2599TIP3   OH2 7739   5.896   5.496   1.764
 2599TIP3    H1 7740   5.955   5.423   1.742
 2599TIP3    H2 7741   5.954   5.566   1.794
 2600TIP3   OH2 7742   7.606   2.236   2.192
 2600TIP3    H1 7743   7.681   2.246   2.133
 2600TIP3    H2 7744   7.530   2.235   2.134
 2601TIP3   OH2 7745   5.065   7.801   0.014
 2601TIP3    H1 7746   5.018   7.735  -0.037
 2601TIP3    H2 7747   5.116   7.750   0.077
 2602TIP3   OH2 7748   5.341   7.168   0.293
 2602TIP3    H1 7749   5.302   7.085   0.265
 2602TIP3    H2 7750   5.435   7.156   0.283
 2603TIP3   OH2 7751   5.797   1.157   3.868
 2603TIP3    H1 7752   5.845   1.235   3.896
 2603TIP3    H2 7753   5.823   1.144   3.777
 2604TIP3   OH2 7754   2.905   6.153   4.024
 2604TIP3    H1 7755   2.848   6.084   4.058
 2604TIP3    H2 7756   2.952   6.112   3.951
 2605TIP3   OH2 7757   7.048   6.396   3.718
 2605TIP3    H1 7758   7.000   6.384   3.636
 2605TIP3    H2 7759   7.026   6.485   3.746
 2606TIP3   OH2 7760   2.604   4.368   0.672
 2606TIP3    H1 7761   2.607   4.310   0.748
 2606TIP3    H2 7762   2.658   4.443   0.696
 2607TIP3   OH2 7763   4.011   4.488   0.548
 2607TIP3    H1 7764   4.091   4.500   0.598
 2607TIP3    H2 7765   3.998   4.571   0.503
 2608TIP3   OH2 7766   4.640   4.741   1.491
 2608TIP3    H1 7767   4.619   4.715   1.580
 2608TIP3    H2 7768   4.736   4.739   1.487
 2609TIP3   OH2 7769   3.462   6.531   2.018
 2609TIP3    H1 7770   3.486   6.500   2.106
 2609TIP3    H2 7771   3.417   6.456   1.978
 2610TIP3   OH2 7772   5.460   5.746   2.972
 2610TIP3    H1 7773   5.432   5.685   3.040
 2610TIP3    H2 7774   5.469   5.830   3.018
 2611TIP3   OH2 7775   7.132   0.416   6.451
 2611TIP3    H1 7776   7.185   0.348   6.492
 2611TIP3    H2 7777   7.160   0.497   6.494
 2612TIP3   OH2 7778   0.483   3.034   5.780
 2612TIP3    H1 7779   0.486   3.112   5.835
 2612TIP3    H2 7780   0.567   3.034   5.734
 2613TIP3   OH2 7781   7.636   3.900   4.024
 2613TIP3    H1 7782   7.715   3.936   3.982
 2613TIP3    H2 7783   7.639   3.934   4.113
 2614TIP3   OH2 7784   3.237   1.483   1.071
 2614TIP3    H1 7785   3.242   1.572   1.035
 2614TIP3    H2 7786   3.143   1.468   1.084
 2615TIP3   OH2 7787   6.800   0.250   3.093
 2615TIP3    H1 7788   6.860   0.180   3.069
 2615TIP3    H2 7789   6.778   0.292   3.010
 2616TIP3   OH2 7790   8.163   3.450   3.513
 2616TIP3    H1 7791   8.070   3.458   3.491
 2616TIP3    H2 7792   8.170   3.489   3.600
 2617TIP3   OH2 7793   3.277   4.806   0.952
 2617TIP3    H1 7794   3.263   4.718   0.918
 2617TIP3    H2 7795   3.189   4.844   0.955
 2618TIP3   OH2 7796   1.731   4.855   6.172
 2618TIP3    H1 7797   1.660   4.810   6.128
 2618TIP3    H2 7798   1.730   4.821   6.262
 2619TIP3   OH2 7799   4.115   2.210   5.426
 2619TIP3    H1 7800   4.099   2.119   5.400
 2619TIP3    H2 7801   4.102   2.261   5.346
 2620TIP3   OH2 7802   0.073   2.464   6.071
 2620TIP3    H1 7803   0.043   2.546   6.111
 2620TIP3    H2 7804  -0.006   2.411   6.062
 2621TIP3   OH2 7805   1.965   2.551   2.700
 2621TIP3    H1 7806   1.930   2.462   2.695
 2621TIP3    H2 7807   2.028   2.556   2.629
 2622TIP3   OH2 7808   7.209   5.488   4.452
 2622TIP3    H1 7809   7.232   5.547   4.524
 2622TIP3    H2 7810   7.292   5.450   4.424
 2623TIP3   OH2 7811   6.818   0.473   3.256
 2623TIP3    H1 7812   6.803   0.389   3.211
 2623TIP3    H2 7813   6.913   0.484   3.253
 2624TIP3   OH2 7814   1.278   0.272   6.737
 2624TIP3    H1 7815   1.305   0.316   6.657
 2624TIP3    H2 7816   1.187   0.299   6.750
 2625TIP3   OH2 7817   4.696   6.077   0.498
 2625TIP3    H1 7818   4.600   6.079   0.501
 2625TIP3    H2 7819   4.718   6.135   0.425
 2626TIP3   OH2 7820   5.647   4.189   4.719
 2626TIP3    H1 7821   5.668   4.102   4.684
 2626TIP3    H2 7822   5.552   4.192   4.720
 2627TIP3   OH2 7823   8.187   5.336   1.096
 2627TIP3    H1 7824   8.229   5.412   1.137
 2627TIP3    H2 7825   8.127   5.374   1.031
 2628TIP3   OH2 7826   3.953   1.863   1.890
 2628TIP3    H1 7827   3.865   1.873   1.925
 2628TIP3    H2 7828   3.954   1.921   1.813
 2629TIP3   OH2 7829   1.355   2.543   6.211
 2629TIP3    H1 7830   1.327   2.456   6.181
 2629TIP3    H2 7831   1.370   2.593   6.131
 2630TIP3   OH2 7832   7.685   1.538   3.579
 2630TIP3    H1 7833   7.595   1.571   3.572
 2630TIP3    H2 7834   7.740   1.616   3.580
 2631TIP3   OH2 7835   4.426   6.015   1.723
 2631TIP3    H1 7836   4.340   5.977   1.737
 2631TIP3    H2 7837   4.435   6.080   1.793
 2632TIP3   OH2 7838   3.268   6.222   3.952
 2632TIP3    H1 7839   3.361   6.241   3.940
 2632TIP3    H2 7840   3.258   6.133   3.918
 2633TIP3   OH2 7841   4.009   0.329   0.989
 2633TIP3    H1 7842   4.000   0.369   0.902
 2633TIP3    H2 7843   4.043   0.242   0.972
 2634TIP3   OH2 7844   7.287   0.485   5.205
 2634TIP3    H1 7845   7.309   0.477   5.112
 2634TIP3    H2 7846   7.199   0.524   5.206
 2635TIP3   OH2 7847   7.172   3.526   5.354
 2635TIP3    H1 7848   7.218   3.592   5.405
 2635TIP3    H2 7849   7.182   3.555   5.263
 2636TIP3   OH2 7850   3.233   6.512   4.559
 2636TIP3    H1 7851   3.151   6.561   4.553
 2636TIP3    H2 7852   3.290   6.552   4.493
 2637TIP3   OH2 7853   5.796   7.569   1.355
 2637TIP3    H1 7854   5.856   7.615   1.296
 2637TIP3    H2 7855   5.781   7.630   1.427
 2638TIP3   OH2 7856   3.981   1.261   0.501
 2638TIP3    H1 7857   3.955   1.312   0.424
 2638TIP3    H2 7858   3.939   1.306   0.575
 2639TIP3   OH2 7859   0.159   6.720   2.749
 2639TIP3    H1 7860   0.193   6.644   2.797
 2639TIP3    H2 7861   0.222   6.733   2.678
 2640TIP3   OH2 7862   3.378   2.001   1.206
 2640TIP3    H1 7863   3.319   1.975   1.135
 2640TIP3    H2 7864   3.443   1.931   1.209
 2641TIP3   OH2 7865   0.515   0.930   1.153
 2641TIP3    H1 7866   0.507   1.010   1.204
 2641TIP3    H2 7867   0.564   0.956   1.075
 2642TIP3   OH2 7868   6.195   3.302   0.988
 2642TIP3    H1 7869   6.149   3.228   0.948
 2642TIP3    H2 7870   6.222   3.270   1.074
 2643TIP3   OH2 7871   4.737   7.560   3.987
 2643TIP3    H1 7872   4.832   7.565   3.977
 2643TIP3    H2 7873   4.722   7.566   4.081
 2644TIP3   OH2 7874   7.613   0.452   3.162
 2644TIP3    H1 7875   7.620   0.439   3.256
 2644TIP3    H2 7876   7.697   0.491   3.137
 2645TIP3   OH2 7877   3.518   2.163   5.886
 2645TIP3    H1 7878   3.519   2.087   5.944
 2645TIP3    H2 7879   3.606   2.166   5.849
 2646TIP3   OH2 7880   0.277   7.538   4.014
 2646TIP3    H1 7881   0.243   7.594   4.084
 2646TIP3    H2 7882   0.199   7.499   3.975
 2647TIP3   OH2 7883   5.536   0.820   6.331
 2647TIP3    H1 7884   5.499   0.888   6.275
 2647TIP3    H2 7885   5.540   0.861   6.418
 2648TIP3   OH2 7886   1.374   2.061   4.981
 2648TIP3    H1 7887   1.385   1.966   4.984
 2648TIP3    H2 7888   1.371   2.083   4.888
 2649TIP3   OH2 7889   4.499   0.362   4.422
 2649TIP3    H1 7890   4.405   0.361   4.402
 2649TIP3    H2 7891   4.540   0.321   4.346
 2650TIP3   OH2 7892   7.545   6.864   0.780
 2650TIP3    H1 7893   7.562   6.811   0.702
 2650TIP3    H2 7894   7.623   6.919   0.789
 2651TIP3   OH2 7895   5.098   4.198   5.353
 2651TIP3    H1 7896   5.122   4.281   5.312
 2651TIP3    H2 7897   5.028   4.221   5.415
 2652TIP3   OH2 7898   2.748   1.500   5.984
 2652TIP3    H1 7899   2.824   1.469   6.033
 2652TIP3    H2 7900   2.722   1.424   5.931
 2653TIP3   OH2 7901   6.989   3.751   1.806
 2653TIP3    H1 7902   7.074   3.758   1.763
 2653TIP3    H2 7903   6.987   3.823   1.868
 2654TIP3   OH2 7904   5.865   7.684   5.656
 2654TIP3    H1 7905   5.824   7.618   5.711
 2654TIP3    H2 7906   5.883   7.757   5.716
 2655TIP3   OH2 7907   0.513   6.551   2.471
 2655TIP3    H1 7908   0.479   6.483   2.413
 2655TIP3    H2 7909   0.538   6.505   2.551
 2656TIP3   OH2 7910   4.375   6.696   3.241
 2656TIP3    H1 7911   4.393   6.664   3.330
 2656TIP3    H2 7912   4.296   6.749   3.251
 2657TIP3   OH2 7913   3.858   0.643   5.369
 2657TIP3    H1 7914   3.841   0.672   5.279
 2657TIP3    H2 7915   3.951   0.620   5.370
 2658TIP3   OH2 7916   6.800   2.283   0.486
 2658TIP3    H1 7917   6.740   2.221   0.444
 2658TIP3    H2 7918   6.744   2.331   0.547
 2659TIP3   OH2 7919   7.565   6.182   0.861
 2659TIP3    H1 7920   7.645   6.234   0.872
 2659TIP3    H2 7921   7.494   6.245   0.876
 2660TIP3   OH2 7922   5.088   1.380   6.105
 2660TIP3    H1 7923   5.046   1.463   6.083
 2660TIP3    H2 7924   5.144   1.362   6.030
 2661TIP3   OH2 7925   0.436   4.042   1.719
 2661TIP3    H1 7926   0.364   4.088   1.675
 2661TIP3    H2 7927   0.446   4.087   1.802
 2662TIP3   OH2 7928   6.009   7.226   0.040
 2662TIP3    H1 7929   5.918   7.223   0.011
 2662TIP3    H2 7930   6.018   7.153   0.101
 2663TIP3   OH2 7931   7.616   4.283   5.596
 2663TIP3    H1 7932   7.652   4.299   5.509
 2663TIP3    H2 7933   7.604   4.188   5.600
 2664TIP3   OH2 7934   0.027   0.993   3.907
 2664TIP3    H1 7935   0.047   1.026   3.819
 2664TIP3    H2 7936   0.047   1.066   3.965
 2665TIP3   OH2 7937   1.967   5.076   0.670
 2665TIP3    H1 7938   1.942   5.079   0.578
 2665TIP3    H2 7939   2.044   5.133   0.675
 2666TIP3   OH2 7940   8.117   1.186   2.582
 2666TIP3    H1 7941   8.182   1.131   2.626
 2666TIP3    H2 7942   8.098   1.140   2.500
 2667TIP3   OH2 7943   3.154   2.920   3.488
 2667TIP3    H1 7944   3.188   2.998   3.532
 2667TIP3    H2 7945   3.231   2.880   3.447
 2668TIP3   OH2 7946   7.099   0.823   1.445
 2668TIP3    H1 7947   7.121   0.823   1.352
 2668TIP3    H2 7948   7.046   0.902   1.457
 2669TIP3   OH2 7949   3.587   0.662   0.225
 2669TIP3    H1 7950   3.645   0.672   0.301
 2669TIP3    H2 7951   3.530   0.739   0.228
 2670TIP3   OH2 7952   2.095   4.620   2.062
 2670TIP3    H1 7953   2.020   4.586   2.110
 2670TIP3    H2 7954   2.111   4.555   1.993
 2671TIP3   OH2 7955   2.381   5.978   1.025
 2671TIP3    H1 7956   2.392   6.068   0.993
 2671TIP3    H2 7957   2.339   5.989   1.111
 2672TIP3   OH2 7958   3.961   4.568   3.508
 2672TIP3    H1 7959   3.915   4.485   3.520
 2672TIP3    H2 7960   3.994   4.591   3.595
 2673TIP3   OH2 7961   1.838   0.923   3.407
 2673TIP3    H1 7962   1.763   0.943   3.464
 2673TIP3    H2 7963   1.819   0.970   3.326
 2674TIP3   OH2 7964   2.624   3.466   2.285
 2674TIP3    H1 7965   2.663   3.402   2.225
 2674TIP3    H2 7966   2.699   3.505   2.330
 2675TIP3   OH2 7967   6.476   7.476   0.565
 2675TIP3    H1 7968   6.499   7.421   0.640
 2675TIP3    H2 7969   6.418   7.422   0.512
 2676TIP3   OH2 7970   7.475   1.763   5.289
 2676TIP3    H1 7971   7.437   1.721   5.367
 2676TIP3    H2 7972   7.410   1.747   5.220
 2677TIP3   OH2 7973   8.205   7.439   6.292
 2677TIP3    H1 7974   8.288   7.484   6.277
 2677TIP3    H2 7975   8.181   7.404   6.206
 2678TIP3   OH2 7976   5.230   1.065   1.868
 2678TIP3    H1 7977   5.147   1.102   1.897
 2678TIP3    H2 7978   5.282   1.056   1.948
 2679TIP3   OH2 7979   4.667   4.702   0.323
 2679TIP3    H1 7980   4.680   4.773   0.387
 2679TIP3    H2 7981   4.735   4.638   0.345
 2680TIP3   OH2 7982   4.530   7.035   4.907
 2680TIP3    H1 7983   4.453   7.081   4.874
 2680TIP3    H2 7984   4.602   7.097   4.896
 2681TIP3   OH2 7985   7.704   7.743   5.619
 2681TIP3    H1 7986   7.785   7.692   5.609
 2681TIP3    H2 7987   7.704   7.802   5.544
 2682TIP3   OH2 7988   3.829   1.335   2.936
 2682TIP3    H1 7989   3.908   1.282   2.944
 2682TIP3    H2 7990   3.816   1.371   3.024
 2683TIP3   OH2 7991   0.873   5.472   3.499
 2683TIP3    H1 7992   0.839   5.536   3.436
 2683TIP3    H2 7993   0.798   5.416   3.520
 2684TIP3   OH2 7994   3.410   5.279   6.212
 2684TIP3    H1 7995   3.472   5.230   6.266
 2684TIP3    H2 7996   3.404   5.229   6.131
 2685TIP3   OH2 7997   6.155   3.478   2.035
 2685TIP3    H1 7998   6.088   3.512   1.977
 2685TIP3    H2 7999   6.233   3.530   2.016
 2686TIP3   OH2 8000   4.536   2.135   2.218
 2686TIP3    H1 8001   4.465   2.188   2.253
 2686TIP3    H2 8002   4.499   2.047   2.210
 2687TIP3   OH2 8003   4.753   0.191   6.129
 2687TIP3    H1 8004   4.675   0.178   6.183
 2687TIP3    H2 8005   4.722   0.177   6.040
 2688TIP3   OH2 8006   1.430   7.213   4.428
 2688TIP3    H1 8007   1.348   7.249   4.397
 2688TIP3    H2 8008   1.465   7.280   4.487
 2689TIP3   OH2 8009   2.251   2.172   1.821
 2689TIP3    H1 8010   2.336   2.134   1.845
 2689TIP3    H2 8011   2.219   2.211   1.902
 2690TIP3   OH2 8012   2.544   1.586   2.890
 2690TIP3    H1 8013   2.514   1.505   2.847
 2690TIP3    H2 8014   2.464   1.638   2.901
 2691TIP3   OH2 8015   6.976   3.906   2.042
 2691TIP3    H1 8016   6.882   3.900   2.059
 2691TIP3    H2 8017   7.015   3.925   2.127
 2692TIP3   OH2 8018   5.373   5.592   1.139
 2692TIP3    H1 8019   5.295   5.636   1.103
 2692TIP3    H2 8020   5.430   5.664   1.165
 2693TIP3   OH2 8021   1.868   7.502   0.626
 2693TIP3    H1 8022   1.792   7.476   0.574
 2693TIP3    H2 8023   1.943   7.468   0.578
 2694TIP3   OH2 8024   2.707   1.530   2.250
 2694TIP3    H1 8025   2.673   1.577   2.174
 2694TIP3    H2 8026   2.787   1.489   2.218
 2695TIP3   OH2 8027   1.361   5.480   1.924
 2695TIP3    H1 8028   1.386   5.572   1.915
 2695TIP3    H2 8029   1.280   5.473   1.873
 2696TIP3   OH2 8030   2.265   5.982   6.190
 2696TIP3    H1 8031   2.355   5.958   6.211
 2696TIP3    H2 8032   2.263   6.077   6.196
 2697TIP3   OH2 8033   7.356   5.673   3.732
 2697TIP3    H1 8034   7.338   5.598   3.675
 2697TIP3    H2 8035   7.337   5.750   3.677
 2698TIP3   OH2 8036   0.692   2.709   4.699
 2698TIP3    H1 8037   0.751   2.673   4.765
 2698TIP3    H2 8038   0.722   2.800   4.688
 2699TIP3   OH2 8039   0.260   3.767   0.853
 2699TIP3    H1 8040   0.295   3.805   0.772
 2699TIP3    H2 8041   0.251   3.674   0.834
 2700TIP3   OH2 8042   4.843   4.323   5.163
 2700TIP3    H1 8043   4.818   4.309   5.072
 2700TIP3    H2 8044   4.836   4.236   5.204
 2701TIP3   OH2 8045   4.694   1.653   1.645
 2701TIP3    H1 8046   4.692   1.566   1.605
 2701TIP3    H2 8047   4.612   1.660   1.694
 2702TIP3   OH2 8048   6.928   4.730   3.591
 2702TIP3    H1 8049   6.886   4.812   3.615
 2702TIP3    H2 8050   6.939   4.683   3.673
 2703TIP3   OH2 8051   4.403   1.367   0.623
 2703TIP3    H1 8052   4.433   1.413   0.701
 2703TIP3    H2 8053   4.327   1.317   0.652
 2704TIP3   OH2 8054   5.246   2.918   3.849
 2704TIP3    H1 8055   5.189   2.938   3.774
 2704TIP3    H2 8056   5.210   2.970   3.920
 2705TIP3   OH2 8057   0.557   2.181   5.394
 2705TIP3    H1 8058   0.577   2.194   5.301
 2705TIP3    H2 8059   0.617   2.239   5.440
 2706TIP3   OH2 8060   4.822   7.228   3.684
 2706TIP3    H1 8061   4.913   7.256   3.688
 2706TIP3    H2 8062   4.791   7.260   3.599
 2707TIP3   OH2 8063   7.721   6.596   0.491
 2707TIP3    H1 8064   7.791   6.661   0.492
 2707TIP3    H2 8065   7.643   6.645   0.515
 2708TIP3   OH2 8066   4.397   0.722   2.884
 2708TIP3    H1 8067   4.304   0.726   2.863
 2708TIP3    H2 8068   4.439   0.693   2.803
 2709TIP3   OH2 8069   5.657   4.255   5.564
 2709TIP3    H1 8070   5.623   4.186   5.621
 2709TIP3    H2 8071   5.581   4.284   5.513
 2710TIP3   OH2 8072   3.041   0.721   6.553
 2710TIP3    H1 8073   2.988   0.799   6.538
 2710TIP3    H2 8074   3.130   0.749   6.531
 2711TIP3   OH2 8075   6.318   0.421   0.185
 2711TIP3    H1 8076   6.272   0.412   0.101
 2711TIP3    H2 8077   6.272   0.491   0.231
 2712TIP3   OH2 8078   5.624   7.353   4.727
 2712TIP3    H1 8079   5.699   7.294   4.723
 2712TIP3    H2 8080   5.560   7.313   4.668
 2713TIP3   OH2 8081   4.865   1.669   3.166
 2713TIP3    H1 8082   4.920   1.726   3.113
 2713TIP3    H2 8083   4.780   1.669   3.121
 2714TIP3   OH2 8084   5.458   3.040   5.931
 2714TIP3    H1 8085   5.375   3.072   5.966
 2714TIP3    H2 8086   5.439   3.018   5.840
 2715TIP3   OH2 8087   5.529   5.154   2.697
 2715TIP3    H1 8088   5.615   5.185   2.724
 2715TIP3    H2 8089   5.467   5.216   2.735
 2716TIP3   OH2 8090   6.621   1.775   1.692
 2716TIP3    H1 8091   6.594   1.811   1.777
 2716TIP3    H2 8092   6.663   1.692   1.714
 2717TIP3   OH2 8093   3.273   3.760   0.639
 2717TIP3    H1 8094   3.336   3.694   0.668
 2717TIP3    H2 8095   3.265   3.745   0.545
 2718TIP3   OH2 8096   0.763   6.146   5.313
 2718TIP3    H1 8097   0.826   6.136   5.242
 2718TIP3    H2 8098   0.815   6.177   5.387
 2719TIP3   OH2 8099   5.228   5.910   6.375
 2719TIP3    H1 8100   5.275   5.896   6.293
 2719TIP3    H2 8101   5.140   5.939   6.348
 2720TIP3   OH2 8102   6.839   4.976   3.366
 2720TIP3    H1 8103   6.839   4.932   3.451
 2720TIP3    H2 8104   6.832   5.069   3.387
 2721TIP3   OH2 8105   0.037   0.854   1.114
 2721TIP3    H1 8106   0.061   0.947   1.106
 2721TIP3    H2 8107   0.114   0.813   1.153
 2722TIP3   OH2 8108   3.911   1.095   5.622
 2722TIP3    H1 8109   3.970   1.064   5.690
 2722TIP3    H2 8110   3.905   1.021   5.560
 2723TIP3   OH2 8111   6.924   2.139   5.784
 2723TIP3    H1 8112   6.983   2.194   5.836
 2723TIP3    H2 8113   6.866   2.201   5.739
 2724TIP3   OH2 8114   0.102   1.213   2.909
 2724TIP3    H1 8115   0.190   1.176   2.909
 2724TIP3    H2 8116   0.074   1.209   3.001
 2725TIP3   OH2 8117   3.049   6.702   1.124
 2725TIP3    H1 8118   3.121   6.645   1.097
 2725TIP3    H2 8119   3.083   6.791   1.114
 2726TIP3   OH2 8120   8.015   0.917   6.220
 2726TIP3    H1 8121   7.941   0.957   6.175
 2726TIP3    H2 8122   7.992   0.824   6.226
 2727TIP3   OH2 8123   5.905   0.279   5.438
 2727TIP3    H1 8124   5.831   0.223   5.415
 2727TIP3    H2 8125   5.983   0.229   5.413
 2728TIP3   OH2 8126   7.584   2.284   4.431
 2728TIP3    H1 8127   7.599   2.325   4.346
 2728TIP3    H2 8128   7.638   2.334   4.492
 2729TIP3   OH2 8129   6.380   4.454   3.227
 2729TIP3    H1 8130   6.413   4.516   3.162
 2729TIP3    H2 8131   6.459   4.421   3.270
 2730TIP3   OH2 8132   3.511   3.834   6.029
 2730TIP3    H1 8133   3.507   3.867   6.118
 2730TIP3    H2 8134   3.472   3.904   5.976
 2731TIP3   OH2 8135   6.014   6.103   3.338
 2731TIP3    H1 8136   6.107   6.124   3.339
 2731TIP3    H2 8137   5.983   6.134   3.253
 2732TIP3   OH2 8138   7.128   1.904   1.691
 2732TIP3    H1 8139   7.165   1.822   1.656
 2732TIP3    H2 8140   7.089   1.879   1.774
 2733TIP3   OH2 8141   2.143   2.787   2.410
 2733TIP3    H1 8142   2.140   2.692   2.419
 2733TIP3    H2 8143   2.057   2.816   2.440
 2734TIP3   OH2 8144   7.275   7.125   0.500
 2734TIP3    H1 8145   7.231   7.143   0.417
 2734TIP3    H2 8146   7.365   7.104   0.475
 2735TIP3   OH2 8147   7.042   5.704   0.157
 2735TIP3    H1 8148   7.084   5.643   0.096
 2735TIP3    H2 8149   7.115   5.750   0.199
 2736TIP3   OH2 8150   5.292   2.308   5.685
 2736TIP3    H1 8151   5.222   2.312   5.619
 2736TIP3    H2 8152   5.269   2.377   5.748
 2737TIP3   OH2 8153   7.402   1.986   3.835
 2737TIP3    H1 8154   7.444   1.957   3.754
 2737TIP3    H2 8155   7.463   1.961   3.904
 2738TIP3   OH2 8156   4.420   5.246   4.080
 2738TIP3    H1 8157   4.454   5.161   4.109
 2738TIP3    H2 8158   4.365   5.225   4.005
 2739TIP3   OH2 8159   1.849   5.041   4.971
 2739TIP3    H1 8160   1.845   4.947   4.956
 2739TIP3    H2 8161   1.773   5.076   4.924
 2740TIP3   OH2 8162   4.591   1.385   5.392
 2740TIP3    H1 8163   4.630   1.357   5.309
 2740TIP3    H2 8164   4.638   1.335   5.459
 2741TIP3   OH2 8165   0.041   5.663   2.973
 2741TIP3    H1 8166   0.031   5.683   3.066
 2741TIP3    H2 8167  -0.006   5.581   2.960
 2742TIP3   OH2 8168   1.250   0.280   3.497
 2742TIP3    H1 8169   1.208   0.199   3.467
 2742TIP3    H2 8170   1.243   0.277   3.592
 2743TIP3   OH2 8171   7.671   3.856   4.945
 2743TIP3    H1 8172   7.666   3.761   4.958
 2743TIP3    H2 8173   7.580   3.885   4.945
 2744TIP3   OH2 8174   5.361   2.929   4.823
 2744TIP3    H1 8175   5.374   3.022   4.809
 2744TIP3    H2 8176   5.338   2.894   4.737
 2745TIP3   OH2 8177   3.591   6.425   2.458
 2745TIP3    H1 8178   3.585   6.436   2.553
 2745TIP3    H2 8179   3.675   6.465   2.435
 2746TIP3   OH2 8180   8.092   2.308   3.716
 2746TIP3    H1 8181   8.023   2.314   3.782
 2746TIP3    H2 8182   8.144   2.388   3.728
 2747TIP3   OH2 8183   5.951   5.526   1.415
 2747TIP3    H1 8184   6.042   5.557   1.415
 2747TIP3    H2 8185   5.957   5.431   1.421
 2748TIP3   OH2 8186   3.911   2.106   6.041
 2748TIP3    H1 8187   3.877   2.171   5.981
 2748TIP3    H2 8188   3.878   2.022   6.008
 2749TIP3   OH2 8189   2.650   3.967   3.451
 2749TIP3    H1 8190   2.575   4.012   3.413
 2749TIP3    H2 8191   2.674   3.900   3.386
 2750TIP3   OH2 8192   6.511   4.780   1.042
 2750TIP3    H1 8193   6.420   4.752   1.033
 2750TIP3    H2 8194   6.553   4.712   1.093
 2751TIP3   OH2 8195   7.603   0.093   2.474
 2751TIP3    H1 8196   7.557   0.174   2.498
 2751TIP3    H2 8197   7.533   0.028   2.467
 2752TIP3   OH2 8198   7.254   6.840   5.946
 2752TIP3    H1 8199   7.331   6.817   5.997
 2752TIP3    H2 8200   7.212   6.756   5.927
 2753TIP3   OH2 8201   3.627   6.889   4.895
 2753TIP3    H1 8202   3.599   6.940   4.971
 2753TIP3    H2 8203   3.709   6.849   4.922
 2754TIP3   OH2 8204   1.815   0.084   3.872
 2754TIP3    H1 8205   1.834   0.171   3.836
 2754TIP3    H2 8206   1.781   0.035   3.797
 2755TIP3   OH2 8207   5.603   1.824   6.664
 2755TIP3    H1 8208   5.558   1.885   6.605
 2755TIP3    H2 8209   5.538   1.804   6.731
 2756TIP3   OH2 8210   4.351   4.828   0.832
 2756TIP3    H1 8211   4.299   4.797   0.758
 2756TIP3    H2 8212   4.286   4.848   0.900
 2757TIP3   OH2 8213   7.132   0.666   3.461
 2757TIP3    H1 8214   7.207   0.636   3.410
 2757TIP3    H2 8215   7.066   0.689   3.395
 2758TIP3   OH2 8216   4.673   5.532   5.585
 2758TIP3    H1 8217   4.741   5.599   5.582
 2758TIP3    H2 8218   4.657   5.519   5.679
 2759TIP3   OH2 8219   0.527   2.483   2.410
 2759TIP3    H1 8220   0.513   2.464   2.503
 2759TIP3    H2 8221   0.456   2.543   2.387
 2760TIP3   OH2 8222   4.810   1.798   0.071
 2760TIP3    H1 8223   4.877   1.833   0.128
 2760TIP3    H2 8224   4.818   1.703   0.079
 2761TIP3   OH2 8225   7.159   4.594   3.475
 2761TIP3    H1 8226   7.098   4.658   3.511
 2761TIP3    H2 8227   7.105   4.517   3.456
 2762TIP3   OH2 8228   5.089   0.810   3.010
 2762TIP3    H1 8229   5.133   0.807   3.094
 2762TIP3    H2 8230   5.041   0.727   3.003
 2763TIP3   OH2 8231   6.147   7.324   3.499
 2763TIP3    H1 8232   6.241   7.309   3.504
 2763TIP3    H2 8233   6.108   7.238   3.511
 2764TIP3   OH2 8234   1.261   5.974   3.582
 2764TIP3    H1 8235   1.334   5.984   3.521
 2764TIP3    H2 8236   1.185   5.957   3.527
 2765TIP3   OH2 8237   1.550   1.512   2.969
 2765TIP3    H1 8238   1.518   1.602   2.974
 2765TIP3    H2 8239   1.539   1.488   2.877
 2766TIP3   OH2 8240   6.143   5.722   6.144
 2766TIP3    H1 8241   6.221   5.682   6.106
 2766TIP3    H2 8242   6.162   5.816   6.142
 2767TIP3   OH2 8243   5.731   2.443   1.103
 2767TIP3    H1 8244   5.688   2.357   1.106
 2767TIP3    H2 8245   5.812   2.431   1.152
 2768TIP3   OH2 8246   4.912   7.400   2.049
 2768TIP3    H1 8247   4.946   7.443   2.127
 2768TIP3    H2 8248   4.981   7.410   1.983
 2769TIP3   OH2 8249   1.877   0.089   0.067
 2769TIP3    H1 8250   1.888   0.053  -0.021
 2769TIP3    H2 8251   1.799   0.144   0.061
 2770TIP3   OH2 8252   1.483   5.075   5.082
 2770TIP3    H1 8253   1.411   5.012   5.079
 2770TIP3    H2 8254   1.529   5.055   5.163
 2771TIP3   OH2 8255   6.406   4.562   5.792
 2771TIP3    H1 8256   6.497   4.534   5.802
 2771TIP3    H2 8257   6.356   4.503   5.848
 2772TIP3   OH2 8258   1.808   4.530   5.046
 2772TIP3    H1 8259   1.770   4.501   5.129
 2772TIP3    H2 8260   1.900   4.508   5.053
 2773TIP3   OH2 8261   0.217   4.388   2.545
 2773TIP3    H1 8262   0.154   4.457   2.567
 2773TIP3    H2 8263   0.262   4.370   2.627
 2774TIP3   OH2 8264   6.518   5.343   5.599
 2774TIP3    H1 8265   6.518   5.271   5.536
 2774TIP3    H2 8266   6.594   5.396   5.575
 2775TIP3   OH2 8267   2.796   1.890   0.382
 2775TIP3    H1 8268   2.799   1.889   0.286
 2775TIP3    H2 8269   2.735   1.820   0.404
 2776TIP3   OH2 8270   1.473   7.485   5.577
 2776TIP3    H1 8271   1.502   7.395   5.557
 2776TIP3    H2 8272   1.541   7.519   5.635
 2777TIP3   OH2 8273   0.780   0.453   3.522
 2777TIP3    H1 8274   0.687   0.444   3.540
 2777TIP3    H2 8275   0.823   0.429   3.604
 2778TIP3   OH2 8276   6.390   3.522   2.644
 2778TIP3    H1 8277   6.347   3.603   2.671
 2778TIP3    H2 8278   6.479   3.549   2.621
 2779TIP3   OH2 8279   5.561   7.123   3.399
 2779TIP3    H1 8280   5.643   7.079   3.380
 2779TIP3    H2 8281   5.500   7.052   3.421
 2780TIP3   OH2 8282   4.386   3.797   0.144
 2780TIP3    H1 8283   4.403   3.881   0.102
 2780TIP3    H2 8284   4.322   3.754   0.087
 2781TIP3   OH2 8285   7.928   2.276   2.593
 2781TIP3    H1 8286   8.005   2.219   2.598
 2781TIP3    H2 8287   7.855   2.215   2.580
 2782TIP3   OH2 8288   0.428   6.996   4.692
 2782TIP3    H1 8289   0.428   6.983   4.597
 2782TIP3    H2 8290   0.520   6.993   4.717
 2783TIP3   OH2 8291   1.159   4.368   2.160
 2783TIP3    H1 8292   1.207   4.362   2.078
 2783TIP3    H2 8293   1.160   4.461   2.182
 2784TIP3   OH2 8294   5.886   4.836   0.072
 2784TIP3    H1 8295   5.862   4.821   0.164
 2784TIP3    H2 8296   5.802   4.848   0.028
 2785TIP3   OH2 8297   5.552   5.304   5.482
 2785TIP3    H1 8298   5.609   5.342   5.416
 2785TIP3    H2 8299   5.498   5.377   5.512
 2786TIP3   OH2 8300   0.384   1.851   5.672
 2786TIP3    H1 8301   0.461   1.812   5.713
 2786TIP3    H2 8302   0.396   1.946   5.685
 2787TIP3   OH2 8303   3.212   4.327   5.590
 2787TIP3    H1 8304   3.138   4.267   5.598
 2787TIP3    H2 8305   3.198   4.392   5.659
 2788TIP3   OH2 8306   7.910   1.889   5.581
 2788TIP3    H1 8307   7.872   1.917   5.498
 2788TIP3    H2 8308   8.005   1.887   5.565
 2789TIP3   OH2 8309   0.331   4.636   1.673
 2789TIP3    H1 8310   0.330   4.693   1.750
 2789TIP3    H2 8311   0.382   4.560   1.701
 2790TIP3   OH2 8312   7.447   4.007   1.988
 2790TIP3    H1 8313   7.445   4.102   1.975
 2790TIP3    H2 8314   7.448   3.995   2.083
 2791TIP3   OH2 8315   4.226   6.962   6.582
 2791TIP3    H1 8316   4.134   6.968   6.609
 2791TIP3    H2 8317   4.274   6.951   6.664
 2792TIP3   OH2 8318   5.388   4.261   1.435
 2792TIP3    H1 8319   5.317   4.199   1.421
 2792TIP3    H2 8320   5.362   4.311   1.513
 2793TIP3   OH2 8321   6.453   2.920   2.030
 2793TIP3    H1 8322   6.518   2.850   2.041
 2793TIP3    H2 8323   6.376   2.875   1.994
 2794TIP3   OH2 8324   6.061   1.261   1.007
 2794TIP3    H1 8325   6.112   1.210   1.070
 2794TIP3    H2 8326   5.973   1.223   1.012
 2795TIP3   OH2 8327   0.177   3.563   4.211
 2795TIP3    H1 8328   0.195   3.616   4.288
 2795TIP3    H2 8329   0.096   3.600   4.174
 2796TIP3   OH2 8330   4.610   1.733   2.594
 2796TIP3    H1 8331   4.561   1.780   2.662
 2796TIP3    H2 8332   4.636   1.802   2.533
 2797TIP3   OH2 8333   6.425   3.966   3.762
 2797TIP3    H1 8334   6.464   3.897   3.708
 2797TIP3    H2 8335   6.491   3.987   3.827
 2798TIP3   OH2 8336   6.605   6.978   5.575
 2798TIP3    H1 8337   6.539   6.936   5.631
 2798TIP3    H2 8338   6.689   6.950   5.612
 2799TIP3   OH2 8339   6.663   3.764   0.436
 2799TIP3    H1 8340   6.592   3.822   0.408
 2799TIP3    H2 8341   6.741   3.801   0.394
 2800TIP3   OH2 8342   5.410   4.385   2.813
 2800TIP3    H1 8343   5.330   4.377   2.762
 2800TIP3    H2 8344   5.380   4.383   2.904
 2801TIP3   OH2 8345   6.792   5.469   1.597
 2801TIP3    H1 8346   6.786   5.444   1.505
 2801TIP3    H2 8347   6.805   5.564   1.596
 2802TIP3   OH2 8348   5.851   0.315   2.368
 2802TIP3    H1 8349   5.794   0.291   2.295
 2802TIP3    H2 8350   5.911   0.242   2.377
 2803TIP3   OH2 8351   3.620   0.065   1.199
 2803TIP3    H1 8352   3.618   0.160   1.210
 2803TIP3    H2 8353   3.531   0.037   1.221
 2804TIP3   OH2 8354   5.166   5.070   0.390
 2804TIP3    H1 8355   5.116   5.143   0.354
 2804TIP3    H2 8356   5.256   5.087   0.364
 2805TIP3   OH2 8357   2.161   2.012   4.062
 2805TIP3    H1 8358   2.254   2.034   4.051
 2805TIP3    H2 8359   2.123   2.031   3.976
 2806TIP3   OH2 8360   6.902   5.379   0.879
 2806TIP3    H1 8361   6.930   5.394   0.788
 2806TIP3    H2 8362   6.863   5.291   0.877
 2807TIP3   OH2 8363   0.922   7.123   1.828
 2807TIP3    H1 8364   0.877   7.185   1.887
 2807TIP3    H2 8365   0.978   7.071   1.885
 2808TIP3   OH2 8366   3.099   0.120   5.260
 2808TIP3    H1 8367   3.149   0.070   5.325
 2808TIP3    H2 8368   3.044   0.055   5.216
 2809TIP3   OH2 8369   7.211   4.657   5.299
 2809TIP3    H1 8370   7.264   4.577   5.306
 2809TIP3    H2 8371   7.266   4.725   5.338
 2810TIP3   OH2 8372   4.866   4.197   2.470
 2810TIP3    H1 8373   4.863   4.191   2.375
 2810TIP3    H2 8374   4.851   4.289   2.490
 2811TIP3   OH2 8375   2.935   2.759   5.758
 2811TIP3    H1 8376   2.920   2.680   5.810
 2811TIP3    H2 8377   2.941   2.728   5.668
 2812TIP3   OH2 8378   1.725   3.155   1.180
 2812TIP3    H1 8379   1.765   3.230   1.137
 2812TIP3    H2 8380   1.707   3.185   1.269
 2813TIP3   OH2 8381   3.077   6.005   6.728
 2813TIP3    H1 8382   2.996   5.959   6.751
 2813TIP3    H2 8383   3.118   5.950   6.662
 2814TIP3   OH2 8384   5.544   7.172   1.746
 2814TIP3    H1 8385   5.512   7.148   1.833
 2814TIP3    H2 8386   5.635   7.140   1.745
 2815TIP3   OH2 8387   1.426   4.786   0.670
 2815TIP3    H1 8388   1.407   4.839   0.748
 2815TIP3    H2 8389   1.503   4.826   0.632
 2816TIP3   OH2 8390   3.868   4.225   4.752
 2816TIP3    H1 8391   3.817   4.247   4.830
 2816TIP3    H2 8392   3.869   4.130   4.750
 2817TIP3   OH2 8393   5.427   2.099   5.896
 2817TIP3    H1 8394   5.382   2.060   5.970
 2817TIP3    H2 8395   5.400   2.191   5.896
 2818TIP3   OH2 8396   6.040   2.107   0.225
 2818TIP3    H1 8397   5.969   2.156   0.183
 2818TIP3    H2 8398   6.112   2.169   0.232
 2819TIP3   OH2 8399   7.554   5.911   2.487
 2819TIP3    H1 8400   7.472   5.874   2.519
 2819TIP3    H2 8401   7.527   5.984   2.430
 2820TIP3   OH2 8402   6.912   2.313   2.594
 2820TIP3    H1 8403   6.823   2.340   2.619
 2820TIP3    H2 8404   6.909   2.309   2.498
 2821TIP3   OH2 8405   7.918   5.972   5.889
 2821TIP3    H1 8406   7.868   6.025   5.952
 2821TIP3    H2 8407   7.908   6.018   5.806
 2822TIP3   OH2 8408   1.709   5.431   2.803
 2822TIP3    H1 8409   1.733   5.502   2.863
 2822TIP3    H2 8410   1.789   5.412   2.755
 2823TIP3   OH2 8411   4.605   4.104   4.305
 2823TIP3    H1 8412   4.575   4.194   4.317
 2823TIP3    H2 8413   4.700   4.111   4.299
 2824TIP3   OH2 8414   6.250   4.617   5.171
 2824TIP3    H1 8415   6.287   4.655   5.251
 2824TIP3    H2 8416   6.321   4.564   5.135
 2825TIP3   OH2 8417   1.853   6.287   0.917
 2825TIP3    H1 8418   1.821   6.351   0.853
 2825TIP3    H2 8419   1.781   6.225   0.926
 2826TIP3   OH2 8420   6.123   5.857   0.462
 2826TIP3    H1 8421   6.163   5.777   0.497
 2826TIP3    H2 8422   6.046   5.872   0.517
 2827TIP3   OH2 8423   6.830   4.946   2.564
 2827TIP3    H1 8424   6.892   4.930   2.636
 2827TIP3    H2 8425   6.831   4.866   2.513
 2828TIP3   OH2 8426   1.098   6.796   6.627
 2828TIP3    H1 8427   1.158   6.724   6.605
 2828TIP3    H2 8428   1.053   6.816   6.545
 2829TIP3   OH2 8429   6.444   4.790   5.617
 2829TIP3    H1 8430   6.502   4.849   5.666
 2829TIP3    H2 8431   6.433   4.714   5.674
 2830TIP3   OH2 8432   6.689   0.289   6.700
 2830TIP3    H1 8433   6.680   0.213   6.757
 2830TIP3    H2 8434   6.737   0.257   6.624
 2831TIP3   OH2 8435   5.271   3.971   0.012
 2831TIP3    H1 8436   5.286   4.064   0.026
 2831TIP3    H2 8437   5.180   3.957   0.037
 2832TIP3   OH2 8438   2.799   5.577   3.191
 2832TIP3    H1 8439   2.795   5.580   3.095
 2832TIP3    H2 8440   2.860   5.646   3.215
 2833TIP3   OH2 8441   8.092   3.550   6.218
 2833TIP3    H1 8442   8.121   3.618   6.278
 2833TIP3    H2 8443   8.058   3.597   6.142
 2834TIP3   OH2 8444   0.571   6.932   0.392
 2834TIP3    H1 8445   0.609   7.017   0.414
 2834TIP3    H2 8446   0.476   6.944   0.404
 2835TIP3   OH2 8447   5.837   2.025   4.066
 2835TIP3    H1 8448   5.867   1.978   4.144
 2835TIP3    H2 8449   5.830   2.116   4.095
 2836TIP3   OH2 8450   0.381   3.755   2.068
 2836TIP3    H1 8451   0.388   3.807   2.148
 2836TIP3    H2 8452   0.296   3.712   2.075
 2837TIP3   OH2 8453   4.687   4.629   6.677
 2837TIP3    H1 8454   4.648   4.621   6.764
 2837TIP3    H2 8455   4.686   4.723   6.659
 2838TIP3   OH2 8456   8.010   5.722   4.878
 2838TIP3    H1 8457   8.025   5.731   4.972
 2838TIP3    H2 8458   8.063   5.791   4.838
 2839TIP3   OH2 8459   7.542   5.825   3.456
 2839TIP3    H1 8460   7.577   5.802   3.542
 2839TIP3    H2 8461   7.475   5.890   3.473
 2840TIP3   OH2 8462   5.077   1.493   3.037
 2840TIP3    H1 8463   5.083   1.565   3.100
 2840TIP3    H2 8464   4.988   1.460   3.047
 2841TIP3   OH2 8465   2.827   5.129   6.415
 2841TIP3    H1 8466   2.771   5.203   6.436
 2841TIP3    H2 8467   2.875   5.156   6.337
 2842TIP3   OH2 8468   0.738   7.027   5.538
 2842TIP3    H1 8469   0.730   7.120   5.555
 2842TIP3    H2 8470   0.648   6.994   5.541
 2843TIP3   OH2 8471   5.803   2.379   4.161
 2843TIP3    H1 8472   5.807   2.313   4.231
 2843TIP3    H2 8473   5.726   2.431   4.181
 2844TIP3   OH2 8474   3.902   2.798   6.714
 2844TIP3    H1 8475   3.902   2.766   6.624
 2844TIP3    H2 8476   3.957   2.736   6.762
 2845TIP3   OH2 8477   5.652   4.900   5.346
 2845TIP3    H1 8478   5.729   4.907   5.401
 2845TIP3    H2 8479   5.591   4.846   5.396
 2846TIP3   OH2 8480   0.125   4.588   4.812
 2846TIP3    H1 8481   0.118   4.660   4.750
 2846TIP3    H2 8482   0.145   4.631   4.896
 2847TIP3   OH2 8483   5.991   1.647   1.124
 2847TIP3    H1 8484   6.019   1.569   1.075
 2847TIP3    H2 8485   6.072   1.683   1.160
 2848TIP3   OH2 8486   0.526   5.929   6.625
 2848TIP3    H1 8487   0.589   6.001   6.624
 2848TIP3    H2 8488   0.575   5.854   6.657
 2849TIP3   OH2 8489   4.095   4.868   0.669
 2849TIP3    H1 8490   4.035   4.875   0.743
 2849TIP3    H2 8491   4.060   4.930   0.604
 2850TIP3   OH2 8492   7.054   3.000   2.788
 2850TIP3    H1 8493   6.994   3.060   2.833
 2850TIP3    H2 8494   7.141   3.027   2.817
 2851TIP3   OH2 8495   5.677   1.059   6.102
 2851TIP3    H1 8496   5.647   1.150   6.106
 2851TIP3    H2 8497   5.723   1.045   6.185
 2852TIP3   OH2 8498   5.530   1.291   6.104
 2852TIP3    H1 8499   5.575   1.374   6.120
 2852TIP3    H2 8500   5.465   1.312   6.037
 2853TIP3   OH2 8501   6.470   4.695   4.322
 2853TIP3    H1 8502   6.431   4.779   4.345
 2853TIP3    H2 8503   6.531   4.676   4.393
 2854TIP3   OH2 8504   5.186   1.637   4.874
 2854TIP3    H1 8505   5.198   1.650   4.780
 2854TIP3    H2 8506   5.274   1.619   4.908
 2855TIP3   OH2 8507   8.102   6.042   0.405
 2855TIP3    H1 8508   8.094   6.137   0.398
 2855TIP3    H2 8509   8.035   6.008   0.346
 2856TIP3   OH2 8510   0.472   0.147   1.436
 2856TIP3    H1 8511   0.402   0.089   1.466
 2856TIP3    H2 8512   0.552   0.095   1.445
 2857TIP3   OH2 8513   6.759   2.641   5.997
 2857TIP3    H1 8514   6.734   2.577   6.063
 2857TIP3    H2 8515   6.704   2.718   6.016
 2858TIP3   OH2 8516   3.753   0.283   2.020
 2858TIP3    H1 8517   3.830   0.334   1.996
 2858TIP3    H2 8518   3.681   0.345   2.015
 2859TIP3   OH2 8519   3.831   2.405   3.954
 2859TIP3    H1 8520   3.837   2.484   3.900
 2859TIP3    H2 8521   3.922   2.380   3.970
 2860TIP3   OH2 8522   5.270   2.500   1.778
 2860TIP3    H1 8523   5.230   2.568   1.833
 2860TIP3    H2 8524   5.290   2.429   1.839
 2861TIP3   OH2 8525   6.492   5.526   1.072
 2861TIP3    H1 8526   6.586   5.545   1.072
 2861TIP3    H2 8527   6.458   5.572   1.148
 2862TIP3   OH2 8528   1.168   7.043   1.166
 2862TIP3    H1 8529   1.232   7.110   1.190
 2862TIP3    H2 8530   1.209   6.960   1.193
 2863TIP3   OH2 8531   6.432   6.687   2.354
 2863TIP3    H1 8532   6.497   6.619   2.370
 2863TIP3    H2 8533   6.348   6.641   2.355
 2864TIP3   OH2 8534   8.079   3.566   4.378
 2864TIP3    H1 8535   8.057   3.655   4.406
 2864TIP3    H2 8536   7.996   3.518   4.383
 2865TIP3   OH2 8537   0.497   1.976   6.590
 2865TIP3    H1 8538   0.432   2.035   6.630
 2865TIP3    H2 8539   0.494   1.897   6.644
 2866TIP3   OH2 8540   2.517   0.911   4.597
 2866TIP3    H1 8541   2.603   0.909   4.639
 2866TIP3    H2 8542   2.474   0.831   4.627
 2867TIP3   OH2 8543   0.565   4.292   4.821
 2867TIP3    H1 8544   0.474   4.291   4.790
 2867TIP3    H2 8545   0.587   4.199   4.834
 2868TIP3   OH2 8546   6.756   0.256   0.886
 2868TIP3    H1 8547   6.850   0.270   0.875
 2868TIP3    H2 8548   6.731   0.314   0.957
 2869TIP3   OH2 8549   6.132   4.588   6.069
 2869TIP3    H1 8550   6.222   4.592   6.100
 2869TIP3    H2 8551   6.092   4.669   6.100
 2870TIP3   OH2 8552   7.588   4.630   2.757
 2870TIP3    H1 8553   7.582   4.569   2.831
 2870TIP3    H2 8554   7.600   4.716   2.798
 2871TIP3   OH2 8555   1.461   0.997   5.883
 2871TIP3    H1 8556   1.549   0.993   5.921
 2871TIP3    H2 8557   1.405   1.021   5.957
 2872TIP3   OH2 8558   2.934   6.040   1.978
 2872TIP3    H1 8559   2.885   5.998   2.048
 2872TIP3    H2 8560   2.991   5.972   1.943
 2873TIP3   OH2 8561   2.195   3.975   3.656
 2873TIP3    H1 8562   2.204   4.048   3.717
 2873TIP3    H2 8563   2.284   3.939   3.649
 2874TIP3   OH2 8564   6.323   0.916   2.007
 2874TIP3    H1 8565   6.247   0.974   2.000
 2874TIP3    H2 8566   6.318   0.861   1.928
 2875TIP3   OH2 8567   6.153   2.368   3.781
 2875TIP3    H1 8568   6.158   2.365   3.877
 2875TIP3    H2 8569   6.167   2.277   3.754
 2876TIP3   OH2 8570   7.776   5.513   3.589
 2876TIP3    H1 8571   7.755   5.432   3.542
 2876TIP3    H2 8572   7.691   5.547   3.616
 2877TIP3   OH2 8573   1.103   6.736   4.447
 2877TIP3    H1 8574   1.061   6.753   4.362
 2877TIP3    H2 8575   1.192   6.768   4.436
 2878TIP3   OH2 8576   7.539   6.269   0.245
 2878TIP3    H1 8577   7.578   6.331   0.183
 2878TIP3    H2 8578   7.468   6.228   0.195
 2879TIP3   OH2 8579   0.372   4.076   0.888
 2879TIP3    H1 8580   0.322   4.066   0.969
 2879TIP3    H2 8581   0.445   4.015   0.898
 2880TIP3   OH2 8582   0.442   0.924   1.791
 2880TIP3    H1 8583   0.469   0.832   1.795
 2880TIP3    H2 8584   0.385   0.935   1.868
 2881TIP3   OH2 8585   5.289   0.978   3.842
 2881TIP3    H1 8586   5.336   1.014   3.917
 2881TIP3    H2 8587   5.345   0.908   3.808
 2882TIP3   OH2 8588   3.506   4.454   0.917
 2882TIP3    H1 8589   3.566   4.405   0.973
 2882TIP3    H2 8590   3.562   4.515   0.870
 2883TIP3   OH2 8591   4.208   2.420   6.332
 2883TIP3    H1 8592   4.243   2.345   6.282
 2883TIP3    H2 8593   4.150   2.464   6.270
 2884TIP3   OH2 8594   4.036   3.523   1.240
 2884TIP3    H1 8595   4.088   3.465   1.296
 2884TIP3    H2 8596   4.065   3.502   1.151
 2885TIP3   OH2 8597   3.950   6.618   2.055
 2885TIP3    H1 8598   4.001   6.669   2.117
 2885TIP3    H2 8599   3.865   6.662   2.052
 2886TIP3   OH2 8600   1.191   7.660   4.926
 2886TIP3    H1 8601   1.180   7.741   4.874
 2886TIP3    H2 8602   1.103   7.639   4.956
 2887TIP3   OH2 8603   1.243   4.125   2.251
 2887TIP3    H1 8604   1.318   4.155   2.199
 2887TIP3    H2 8605   1.179   4.196   2.243
 2888TIP3   OH2 8606   1.829   5.961   0.226
 2888TIP3    H1 8607   1.873   6.002   0.300
 2888TIP3    H2 8608   1.823   5.868   0.250
 2889TIP3   OH2 8609   3.242   2.053   0.473
 2889TIP3    H1 8610   3.157   2.011   0.469
 2889TIP3    H2 8611   3.292   2.013   0.402
 2890TIP3   OH2 8612   5.528   0.858   1.034
 2890TIP3    H1 8613   5.461   0.853   1.103
 2890TIP3    H2 8614   5.477   0.865   0.953
 2891TIP3   OH2 8615   1.849   6.091   5.548
 2891TIP3    H1 8616   1.825   5.999   5.555
 2891TIP3    H2 8617   1.837   6.112   5.455
 2892TIP3   OH2 8618   1.500   7.735   3.311
 2892TIP3    H1 8619   1.500   7.818   3.358
 2892TIP3    H2 8620   1.592   7.717   3.294
 2893TIP3   OH2 8621   3.889   4.830   6.488
 2893TIP3    H1 8622   3.817   4.786   6.534
 2893TIP3    H2 8623   3.863   4.922   6.486
 2894TIP3   OH2 8624   3.159   6.119   2.537
 2894TIP3    H1 8625   3.247   6.085   2.520
 2894TIP3    H2 8626   3.167   6.165   2.620
 2895TIP3   OH2 8627   6.751   0.761   2.034
 2895TIP3    H1 8628   6.741   0.747   1.939
 2895TIP3    H2 8629   6.734   0.854   2.046
 2896TIP3   OH2 8630   7.785   3.382   5.255
 2896TIP3    H1 8631   7.852   3.343   5.312
 2896TIP3    H2 8632   7.725   3.310   5.236
 2897TIP3   OH2 8633   2.202   5.440   2.964
 2897TIP3    H1 8634   2.254   5.507   3.008
 2897TIP3    H2 8635   2.189   5.474   2.875
 2898TIP3   OH2 8636   7.166   6.898   4.563
 2898TIP3    H1 8637   7.101   6.842   4.604
 2898TIP3    H2 8638   7.238   6.840   4.540
 2899TIP3   OH2 8639   1.683   1.924   3.643
 2899TIP3    H1 8640   1.623   1.851   3.631
 2899TIP3    H2 8641   1.641   1.997   3.597
 2900TIP3   OH2 8642   1.149   6.431   5.674
 2900TIP3    H1 8643   1.212   6.361   5.692
 2900TIP3    H2 8644   1.087   6.393   5.612
 2901TIP3   OH2 8645   6.898   0.745   3.338
 2901TIP3    H1 8646   6.838   0.671   3.339
 2901TIP3    H2 8647   6.894   0.779   3.249
 2902TIP3   OH2 8648   4.704   4.134   1.849
 2902TIP3    H1 8649   4.683   4.178   1.767
 2902TIP3    H2 8650   4.799   4.122   1.847
 2903TIP3   OH2 8651   3.670   5.036   3.175
 2903TIP3    H1 8652   3.690   4.945   3.155
 2903TIP3    H2 8653   3.590   5.032   3.227
 2904TIP3   OH2 8654   4.654   2.280   6.579
 2904TIP3    H1 8655   4.561   2.286   6.557
 2904TIP3    H2 8656   4.675   2.187   6.569
 2905TIP3   OH2 8657   0.351   6.395   0.645
 2905TIP3    H1 8658   0.427   6.385   0.702
 2905TIP3    H2 8659   0.346   6.313   0.597
 2906TIP3   OH2 8660   2.408   6.000   3.357
 2906TIP3    H1 8661   2.417   5.904   3.361
 2906TIP3    H2 8662   2.316   6.017   3.375
 2907TIP3   OH2 8663   7.318   6.458   4.960
 2907TIP3    H1 8664   7.381   6.513   4.913
 2907TIP3    H2 8665   7.358   6.371   4.959
 2908TIP3   OH2 8666   2.856   4.406   4.718
 2908TIP3    H1 8667   2.923   4.469   4.741
 2908TIP3    H2 8668   2.862   4.397   4.623
 2909TIP3   OH2 8669   0.027   6.865   2.985
 2909TIP3    H1 8670  -0.039   6.803   3.015
 2909TIP3    H2 8671   0.093   6.811   2.941
 2910TIP3   OH2 8672   8.232   7.334   3.347
 2910TIP3    H1 8673   8.297   7.265   3.355
 2910TIP3    H2 8674   8.251   7.393   3.420
 2911TIP3   OH2 8675   1.585   7.175   3.290
 2911TIP3    H1 8676   1.662   7.117   3.288
 2911TIP3    H2 8677   1.596   7.234   3.216
 2912TIP3   OH2 8678   7.067   1.776   5.767
 2912TIP3    H1 8679   7.139   1.720   5.739
 2912TIP3    H2 8680   7.058   1.841   5.698
 2913TIP3   OH2 8681   6.695   7.057   2.769
 2913TIP3    H1 8682   6.721   7.131   2.714
 2913TIP3    H2 8683   6.604   7.075   2.792
 2914TIP3   OH2 8684   4.240   3.850   3.682
 2914TIP3    H1 8685   4.269   3.805   3.603
 2914TIP3    H2 8686   4.278   3.801   3.754
 2915TIP3   OH2 8687   6.671   3.217   5.626
 2915TIP3    H1 8688   6.727   3.267   5.567
 2915TIP3    H2 8689   6.623   3.283   5.675
 2916TIP3   OH2 8690   4.637   6.778   0.471
 2916TIP3    H1 8691   4.593   6.856   0.437
 2916TIP3    H2 8692   4.653   6.798   0.563
 2917TIP3   OH2 8693   2.578   4.505   3.888
 2917TIP3    H1 8694   2.530   4.456   3.821
 2917TIP3    H2 8695   2.667   4.511   3.854
 2918TIP3   OH2 8696   8.074   6.313   2.382
 2918TIP3    H1 8697   8.166   6.339   2.390
 2918TIP3    H2 8698   8.075   6.217   2.388
 2919TIP3   OH2 8699   3.281   6.084   4.697
 2919TIP3    H1 8700   3.337   6.033   4.756
 2919TIP3    H2 8701   3.336   6.100   4.620
 2920TIP3   OH2 8702   7.525   2.396   2.433
 2920TIP3    H1 8703   7.583   2.347   2.375
 2920TIP3    H2 8704   7.449   2.340   2.445
 2921TIP3   OH2 8705   7.279   0.638   4.078
 2921TIP3    H1 8706   7.259   0.551   4.043
 2921TIP3    H2 8707   7.320   0.684   4.006
 2922TIP3   OH2 8708   6.928   7.735   2.055
 2922TIP3    H1 8709   7.015   7.772   2.066
 2922TIP3    H2 8710   6.935   7.679   1.978
 2923TIP3   OH2 8711   8.301   3.992   6.663
 2923TIP3    H1 8712   8.209   4.005   6.641
 2923TIP3    H2 8713   8.300   3.919   6.725
 2924TIP3   OH2 8714   5.529   3.686   6.341
 2924TIP3    H1 8715   5.529   3.591   6.336
 2924TIP3    H2 8716   5.615   3.708   6.377
 2925TIP3   OH2 8717   6.784   6.930   1.928
 2925TIP3    H1 8718   6.762   6.994   1.859
 2925TIP3    H2 8719   6.725   6.856   1.912
 2926TIP3   OH2 8720   2.334   2.423   0.225
 2926TIP3    H1 8721   2.404   2.376   0.270
 2926TIP3    H2 8722   2.376   2.502   0.192
 2927TIP3   OH2 8723   4.382   2.708   5.755
 2927TIP3    H1 8724   4.307   2.753   5.716
 2927TIP3    H2 8725   4.344   2.631   5.798
 2928TIP3   OH2 8726   5.813   6.529   3.113
 2928TIP3    H1 8727   5.882   6.575   3.065
 2928TIP3    H2 8728   5.739   6.527   3.053
 2929TIP3   OH2 8729   6.071   1.033   3.212
 2929TIP3    H1 8730   5.985   1.074   3.219
 2929TIP3    H2 8731   6.077   0.976   3.289
 2930TIP3   OH2 8732   0.177   1.909   1.807
 2930TIP3    H1 8733   0.270   1.893   1.827
 2930TIP3    H2 8734   0.140   1.821   1.795
 2931TIP3   OH2 8735   3.338   7.700   2.663
 2931TIP3    H1 8736   3.307   7.610   2.656
 2931TIP3    H2 8737   3.432   7.693   2.676
 2932TIP3   OH2 8738   4.753   3.809   4.186
 2932TIP3    H1 8739   4.765   3.844   4.274
 2932TIP3    H2 8740   4.732   3.886   4.132
 2933TIP3   OH2 8741   0.017   2.229   2.742
 2933TIP3    H1 8742   0.100   2.192   2.711
 2933TIP3    H2 8743   0.033   2.249   2.834
 2934TIP3   OH2 8744   2.500   4.261   1.306
 2934TIP3    H1 8745   2.436   4.332   1.314
 2934TIP3    H2 8746   2.525   4.262   1.214
 2935TIP3   OH2 8747   3.465   4.731   1.156
 2935TIP3    H1 8748   3.442   4.780   1.077
 2935TIP3    H2 8749   3.401   4.761   1.221
 2936TIP3   OH2 8750   2.163   5.067   1.293
 2936TIP3    H1 8751   2.162   5.071   1.389
 2936TIP3    H2 8752   2.246   5.108   1.268
 2937TIP3   OH2 8753   3.713   6.267   3.040
 2937TIP3    H1 8754   3.714   6.256   3.135
 2937TIP3    H2 8755   3.743   6.357   3.026
 2938TIP3   OH2 8756   7.307   1.188   3.097
 2938TIP3    H1 8757   7.251   1.264   3.117
 2938TIP3    H2 8758   7.262   1.114   3.139
 2939TIP3   OH2 8759   2.297   5.434   6.482
 2939TIP3    H1 8760   2.247   5.371   6.534
 2939TIP3    H2 8761   2.258   5.519   6.505
 2940TIP3   OH2 8762   5.915   3.121   3.604
 2940TIP3    H1 8763   5.909   3.102   3.510
 2940TIP3    H2 8764   5.915   3.036   3.646
 2941TIP3   OH2 8765   6.837   1.070   2.872
 2941TIP3    H1 8766   6.815   0.993   2.820
 2941TIP3    H2 8767   6.765   1.131   2.856
 2942TIP3   OH2 8768   3.596   6.709   1.582
 2942TIP3    H1 8769   3.654   6.666   1.520
 2942TIP3    H2 8770   3.554   6.638   1.631
 2943TIP3   OH2 8771   6.809   1.872   5.808
 2943TIP3    H1 8772   6.844   1.939   5.867
 2943TIP3    H2 8773   6.878   1.806   5.804
 2944TIP3   OH2 8774   0.525   7.564   2.750
 2944TIP3    H1 8775   0.552   7.625   2.818
 2944TIP3    H2 8776   0.474   7.498   2.796
 2945TIP3   OH2 8777   3.295   6.841   1.383
 2945TIP3    H1 8778   3.324   6.881   1.465
 2945TIP3    H2 8779   3.206   6.874   1.370
 2946TIP3   OH2 8780   2.713   6.663   3.720
 2946TIP3    H1 8781   2.740   6.586   3.770
 2946TIP3    H2 8782   2.721   6.736   3.782
 2947TIP3   OH2 8783   4.761   3.440   3.283
 2947TIP3    H1 8784   4.831   3.378   3.263
 2947TIP3    H2 8785   4.684   3.386   3.298
 2948TIP3   OH2 8786   4.729   3.401   6.114
 2948TIP3    H1 8787   4.697   3.483   6.078
 2948TIP3    H2 8788   4.777   3.426   6.193
 2949TIP3   OH2 8789   1.533   1.633   1.692
 2949TIP3    H1 8790   1.570   1.703   1.639
 2949TIP3    H2 8791   1.493   1.573   1.628
 2950TIP3   OH2 8792   7.406   4.895   4.117
 2950TIP3    H1 8793   7.501   4.881   4.123
 2950TIP3    H2 8794   7.395   4.950   4.040
 2951TIP3   OH2 8795   1.180  -0.003   5.937
 2951TIP3    H1 8796   1.230   0.077   5.949
 2951TIP3    H2 8797   1.186  -0.048   6.021
 2952TIP3   OH2 8798   6.520   0.451   0.379
 2952TIP3    H1 8799   6.436   0.451   0.331
 2952TIP3    H2 8800   6.586   0.441   0.310
 2953TIP3   OH2 8801   4.692   6.059   4.879
 2953TIP3    H1 8802   4.604   6.022   4.885
 2953TIP3    H2 8803   4.685   6.124   4.809
 2954TIP3   OH2 8804   4.669   5.854   2.949
 2954TIP3    H1 8805   4.700   5.931   2.997
 2954TIP3    H2 8806   4.619   5.890   2.876
 2955TIP3   OH2 8807   0.142   3.555   5.651
 2955TIP3    H1 8808   0.167   3.639   5.689
 2955TIP3    H2 8809   0.069   3.525   5.705
 2956TIP3   OH2 8810   4.837   5.877   4.445
 2956TIP3    H1 8811   4.913   5.892   4.389
 2956TIP3    H2 8812   4.807   5.965   4.468
 2957TIP3   OH2 8813   5.061   3.025   4.776
 2957TIP3    H1 8814   5.144   3.014   4.728
 2957TIP3    H2 8815   5.008   2.950   4.750
 2958TIP3   OH2 8816   3.813   5.848   5.237
 2958TIP3    H1 8817   3.793   5.778   5.176
 2958TIP3    H2 8818   3.757   5.920   5.209
 2959TIP3   OH2 8819   7.550   0.026   1.339
 2959TIP3    H1 8820   7.460   0.004   1.365
 2959TIP3    H2 8821   7.599   0.022   1.421
 2960TIP3   OH2 8822   0.630   7.758   6.021
 2960TIP3    H1 8823   0.593   7.689   5.966
 2960TIP3    H2 8824   0.662   7.712   6.098
 2961TIP3   OH2 8825   3.064   0.235   4.182
 2961TIP3    H1 8826   3.144   0.227   4.130
 2961TIP3    H2 8827   3.039   0.327   4.174
 2962TIP3   OH2 8828   1.344   5.296   4.132
 2962TIP3    H1 8829   1.251   5.302   4.153
 2962TIP3    H2 8830   1.382   5.248   4.206
 2963TIP3   OH2 8831   6.962   1.132   6.813
 2963TIP3    H1 8832   6.983   1.070   6.743
 2963TIP3    H2 8833   7.006   1.213   6.787
 2964TIP3   OH2 8834   6.956   5.032   4.382
 2964TIP3    H1 8835   6.862   5.050   4.374
 2964TIP3    H2 8836   6.980   5.073   4.465
 2965TIP3   OH2 8837   2.865   3.946   2.330
 2965TIP3    H1 8838   2.770   3.933   2.330
 2965TIP3    H2 8839   2.883   3.994   2.250
 2966TIP3   OH2 8840   4.382   4.409   2.980
 2966TIP3    H1 8841   4.387   4.431   2.887
 2966TIP3    H2 8842   4.296   4.443   3.008
 2967TIP3   OH2 8843   4.357   0.651   3.839
 2967TIP3    H1 8844   4.278   0.635   3.787
 2967TIP3    H2 8845   4.332   0.723   3.897
 2968TIP3   OH2 8846   1.171   5.051   5.787
 2968TIP3    H1 8847   1.266   5.044   5.772
 2968TIP3    H2 8848   1.157   5.004   5.869
 2969TIP3   OH2 8849   6.231   5.693   1.756
 2969TIP3    H1 8850   6.236   5.605   1.719
 2969TIP3    H2 8851   6.193   5.681   1.842
 2970TIP3   OH2 8852   4.708   0.069   3.298
 2970TIP3    H1 8853   4.713   0.160   3.270
 2970TIP3    H2 8854   4.794   0.050   3.335
 2971TIP3   OH2 8855   7.941   6.986   5.476
 2971TIP3    H1 8856   7.940   6.890   5.474
 2971TIP3    H2 8857   8.019   7.008   5.526
 2972TIP3   OH2 8858   1.588   1.949   4.115
 2972TIP3    H1 8859   1.493   1.933   4.112
 2972TIP3    H2 8860   1.610   1.943   4.208
 2973TIP3   OH2 8861   0.139   6.702   2.351
 2973TIP3    H1 8862   0.076   6.648   2.398
 2973TIP3    H2 8863   0.206   6.723   2.416
 2974TIP3   OH2 8864   4.097   7.568   0.535
 2974TIP3    H1 8865   4.101   7.540   0.626
 2974TIP3    H2 8866   4.137   7.496   0.486
 2975TIP3   OH2 8867   2.853   1.004   6.738
 2975TIP3    H1 8868   2.829   1.097   6.744
 2975TIP3    H2 8869   2.881   0.992   6.647
 2976TIP3   OH2 8870   7.699   7.641   1.980
 2976TIP3    H1 8871   7.622   7.670   2.028
 2976TIP3    H2 8872   7.774   7.670   2.032
 2977TIP3   OH2 8873   7.050   2.065   2.202
 2977TIP3    H1 8874   7.111   2.037   2.133
 2977TIP3    H2 8875   6.986   1.994   2.206
 2978TIP3   OH2 8876   3.425   2.040   2.501
 2978TIP3    H1 8877   3.455   1.990   2.426
 2978TIP3    H2 8878   3.336   2.066   2.480
 2979TIP3   OH2 8879   4.319   7.641   2.158
 2979TIP3    H1 8880   4.265   7.597   2.093
 2979TIP3    H2 8881   4.403   7.657   2.114
 2980TIP3   OH2 8882   5.212   0.772   2.164
 2980TIP3    H1 8883   5.257   0.776   2.249
 2980TIP3    H2 8884   5.267   0.713   2.112
 2981TIP3   OH2 8885   3.055   5.570   2.887
 2981TIP3    H1 8886   3.034   5.625   2.962
 2981TIP3    H2 8887   3.150   5.557   2.894
 2982TIP3   OH2 8888   1.949   7.702   2.045
 2982TIP3    H1 8889   1.974   7.653   2.123
 2982TIP3    H2 8890   2.009   7.671   1.978
 2983TIP3   OH2 8891   2.080   7.601   3.465
 2983TIP3    H1 8892   2.153   7.542   3.483
 2983TIP3    H2 8893   2.065   7.647   3.548
 2984TIP3   OH2 8894   1.231   2.111   0.837
 2984TIP3    H1 8895   1.247   2.052   0.910
 2984TIP3    H2 8896   1.316   2.150   0.818
 2985TIP3   OH2 8897   0.994   5.680   1.534
 2985TIP3    H1 8898   0.985   5.585   1.541
 2985TIP3    H2 8899   0.919   5.707   1.481
 2986TIP3   OH2 8900   3.131   7.217   6.460
 2986TIP3    H1 8901   3.221   7.252   6.462
 2986TIP3    H2 8902   3.135   7.138   6.513
 2987TIP3   OH2 8903   3.355   7.538   1.898
 2987TIP3    H1 8904   3.449   7.550   1.911
 2987TIP3    H2 8905   3.324   7.504   1.982
 2988TIP3   OH2 8906   1.577   1.835   5.640
 2988TIP3    H1 8907   1.491   1.870   5.614
 2988TIP3    H2 8908   1.639   1.875   5.579
 2989TIP3   OH2 8909   6.424   0.365   2.862
 2989TIP3    H1 8910   6.332   0.353   2.840
 2989TIP3    H2 8911   6.425   0.373   2.957
 2990TIP3   OH2 8912   4.386   6.854   1.918
 2990TIP3    H1 8913   4.359   6.946   1.926
 2990TIP3    H2 8914   4.474   6.859   1.881
 2991TIP3   OH2 8915   0.212   3.647   1.745
 2991TIP3    H1 8916   0.227   3.721   1.686
 2991TIP3    H2 8917   0.287   3.648   1.804
 2992TIP3   OH2 8918   1.315   3.967   0.351
 2992TIP3    H1 8919   1.236   3.919   0.374
 2992TIP3    H2 8920   1.317   3.967   0.255
 2993TIP3   OH2 8921   2.117   5.407   1.385
 2993TIP3    H1 8922   2.114   5.453   1.469
 2993TIP3    H2 8923   2.165   5.327   1.404
 2994TIP3   OH2 8924   2.304   7.407   3.567
 2994TIP3    H1 8925   2.296   7.454   3.650
 2994TIP3    H2 8926   2.350   7.326   3.589
 2995TIP3   OH2 8927   1.048   2.683   3.210
 2995TIP3    H1 8928   0.956   2.711   3.214
 2995TIP3    H2 8929   1.045   2.589   3.226
 2996TIP3   OH2 8930   5.517   2.455   1.628
 2996TIP3    H1 8931   5.433   2.491   1.600
 2996TIP3    H2 8932   5.583   2.512   1.589
 2997TIP3   OH2 8933   1.688   6.401   1.479
 2997TIP3    H1 8934   1.683   6.363   1.391
 2997TIP3    H2 8935   1.726   6.331   1.533
 2998TIP3   OH2 8936   3.413   3.354   1.007
 2998TIP3    H1 8937   3.347   3.422   0.993
 2998TIP3    H2 8938   3.496   3.396   0.984
 2999TIP3   OH2 8939   1.023   1.006   2.193
 2999TIP3    H1 8940   0.991   0.989   2.104
 2999TIP3    H2 8941   1.012   1.100   2.204
 3000TIP3   OH2 8942   0.749   1.173   4.619
 3000TIP3    H1 8943   0.742   1.220   4.702
 3000TIP3    H2 8944   0.726   1.082   4.641
 3001TIP3   OH2 8945   4.630   0.300   0.715
 3001TIP3    H1 8946   4.670   0.283   0.799
 3001TIP3    H2 8947   4.551   0.351   0.735
 3002TIP3   OH2 8948   1.578   5.399   1.363
 3002TIP3    H1 8949   1.551   5.491   1.354
 3002TIP3    H2 8950   1.539   5.356   1.287
 3003TIP3   OH2 8951   6.749   3.249   0.730
 3003TIP3    H1 8952   6.718   3.336   0.756
 3003TIP3    H2 8953   6.767   3.205   0.813
 3004TIP3   OH2 8954   5.662   6.744   0.427
 3004TIP3    H1 8955   5.574   6.724   0.459
 3004TIP3    H2 8956   5.667   6.840   0.428
 3005TIP3   OH2 8957   2.288   6.245   0.483
 3005TIP3    H1 8958   2.221   6.241   0.552
 3005TIP3    H2 8959   2.255   6.310   0.421
 3006TIP3   OH2 8960   2.603   6.341   3.762
 3006TIP3    H1 8961   2.582   6.434   3.754
 3006TIP3    H2 8962   2.673   6.338   3.827
 3007TIP3   OH2 8963   3.732   4.201   5.603
 3007TIP3    H1 8964   3.670   4.250   5.549
 3007TIP3    H2 8965   3.733   4.248   5.687
 3008TIP3   OH2 8966   2.797   2.559   0.654
 3008TIP3    H1 8967   2.779   2.471   0.621
 3008TIP3    H2 8968   2.808   2.613   0.575
 3009TIP3   OH2 8969   0.489   4.247   1.321
 3009TIP3    H1 8970   0.417   4.185   1.314
 3009TIP3    H2 8971   0.528   4.228   1.407
 3010TIP3   OH2 8972   7.631   6.758   1.785
 3010TIP3    H1 8973   7.667   6.741   1.872
 3010TIP3    H2 8974   7.679   6.835   1.754
 3011TIP3   OH2 8975   2.311   7.462   6.715
 3011TIP3    H1 8976   2.397   7.419   6.708
 3011TIP3    H2 8977   2.331   7.555   6.711
 3012TIP3   OH2 8978   1.565   0.363   1.630
 3012TIP3    H1 8979   1.641   0.306   1.645
 3012TIP3    H2 8980   1.532   0.381   1.718
 3013TIP3   OH2 8981   1.359   6.724   0.306
 3013TIP3    H1 8982   1.392   6.812   0.323
 3013TIP3    H2 8983   1.305   6.703   0.383
 3014TIP3   OH2 8984   3.313   2.249   4.134
 3014TIP3    H1 8985   3.298   2.232   4.226
 3014TIP3    H2 8986   3.399   2.290   4.130
 3015TIP3   OH2 8987   4.580   1.626   1.939
 3015TIP3    H1 8988   4.519   1.695   1.913
 3015TIP3    H2 8989   4.563   1.614   2.033
 3016TIP3   OH2 8990   3.595   4.133   4.659
 3016TIP3    H1 8991   3.586   4.222   4.693
 3016TIP3    H2 8992   3.607   4.078   4.737
 3017TIP3   OH2 8993   2.565   0.197   5.273
 3017TIP3    H1 8994   2.502   0.248   5.221
 3017TIP3    H2 8995   2.568   0.112   5.229
 3018TIP3   OH2 8996   2.824   1.040   2.681
 3018TIP3    H1 8997   2.865   1.123   2.657
 3018TIP3    H2 8998   2.816   0.993   2.599
 3019TIP3   OH2 8999   4.195   5.613   3.136
 3019TIP3    H1 9000   4.119   5.671   3.136
 3019TIP3    H2 9001   4.176   5.548   3.204
 3020TIP3   OH2 9002   0.587   3.605   6.241
 3020TIP3    H1 9003   0.660   3.552   6.274
 3020TIP3    H2 9004   0.620   3.642   6.159
 3021TIP3   OH2 9005   7.224   5.533   0.430
 3021TIP3    H1 9006   7.154   5.569   0.484
 3021TIP3    H2 9007   7.279   5.483   0.490
 3022TIP3   OH2 9008   7.781   4.694   0.959
 3022TIP3    H1 9009   7.864   4.728   0.927
 3022TIP3    H2 9010   7.795   4.682   1.053
 3023TIP3   OH2 9011   6.896   3.331   3.923
 3023TIP3    H1 9012   6.809   3.291   3.928
 3023TIP3    H2 9013   6.900   3.367   3.834
 3024TIP3   OH2 9014   0.133   4.697   0.049
 3024TIP3    H1 9015   0.050   4.696   0.001
 3024TIP3    H2 9016   0.199   4.709  -0.019
 3025TIP3   OH2 9017   0.586   0.305   4.369
 3025TIP3    H1 9018   0.651   0.292   4.439
 3025TIP3    H2 9019   0.528   0.373   4.403
 3026TIP3   OH2 9020   0.706   0.722   3.155
 3026TIP3    H1 9021   0.755   0.799   3.127
 3026TIP3    H2 9022   0.615   0.741   3.131
 3027TIP3   OH2 9023   6.157   3.789   6.373
 3027TIP3    H1 9024   6.229   3.832   6.327
 3027TIP3    H2 9025   6.123   3.856   6.432
 3028TIP3   OH2 9026   7.180   2.544   2.111
 3028TIP3    H1 9027   7.186   2.461   2.159
 3028TIP3    H2 9028   7.249   2.599   2.149
 3029TIP3   OH2 9029   6.446   3.803   2.390
 3029TIP3    H1 9030   6.517   3.744   2.366
 3029TIP3    H2 9031   6.458   3.817   2.484
 3030TIP3   OH2 9032   5.929   7.782   0.514
 3030TIP3    H1 9033   5.923   7.691   0.487
 3030TIP3    H2 9034   5.940   7.779   0.609
 3031TIP3   OH2 9035   4.587   3.892   2.955
 3031TIP3    H1 9036   4.529   3.924   3.025
 3031TIP3    H2 9037   4.645   3.966   2.935
 3032TIP3   OH2 9038   6.221   3.773   4.861
 3032TIP3    H1 9039   6.236   3.807   4.949
 3032TIP3    H2 9040   6.170   3.693   4.875
 3033TIP3   OH2 9041   6.797   2.168   5.356
 3033TIP3    H1 9042   6.767   2.101   5.418
 3033TIP3    H2 9043   6.892   2.166   5.362
 3034TIP3   OH2 9044   0.879   6.906   3.553
 3034TIP3    H1 9045   0.858   6.925   3.461
 3034TIP3    H2 9046   0.939   6.975   3.579
 3035TIP3   OH2 9047   0.158   0.058   4.072
 3035TIP3    H1 9048   0.196   0.112   4.002
 3035TIP3    H2 9049   0.218   0.070   4.146
 3036TIP3   OH2 9050   3.441   4.205   3.138
 3036TIP3    H1 9051   3.388   4.263   3.083
 3036TIP3    H2 9052   3.490   4.265   3.195
 3037TIP3   OH2 9053   2.418   3.227   1.788
 3037TIP3    H1 9054   2.441   3.309   1.743
 3037TIP3    H2 9055   2.377   3.173   1.719
 3038TIP3   OH2 9056   0.962   3.117   2.634
 3038TIP3    H1 9057   1.048   3.160   2.637
 3038TIP3    H2 9058   0.902   3.181   2.672
 3039TIP3   OH2 9059   2.506   7.550   5.094
 3039TIP3    H1 9060   2.536   7.495   5.022
 3039TIP3    H2 9061   2.441   7.496   5.140
 3040TIP3   OH2 9062   2.383   0.672   4.689
 3040TIP3    H1 9063   2.343   0.642   4.607
 3040TIP3    H2 9064   2.313   0.668   4.753
 3041TIP3   OH2 9065   4.703   0.367   0.153
 3041TIP3    H1 9066   4.776   0.337   0.208
 3041TIP3    H2 9067   4.625   0.347   0.205
 3042TIP3   OH2 9068   1.465   5.243   2.000
 3042TIP3    H1 9069   1.450   5.322   1.948
 3042TIP3    H2 9070   1.462   5.272   2.090
 3043TIP3   OH2 9071   7.069   2.289   5.973
 3043TIP3    H1 9072   6.999   2.258   6.030
 3043TIP3    H2 9073   7.032   2.364   5.927
 3044TIP3   OH2 9074   4.696   0.358   1.665
 3044TIP3    H1 9075   4.718   0.384   1.576
 3044TIP3    H2 9076   4.759   0.404   1.720
 3045TIP3   OH2 9077   6.719   1.165   5.962
 3045TIP3    H1 9078   6.768   1.175   6.044
 3045TIP3    H2 9079   6.628   1.184   5.986
 3046TIP3   OH2 9080   0.116   0.752   5.412
 3046TIP3    H1 9081   0.126   0.704   5.329
 3046TIP3    H2 9082   0.137   0.687   5.479
 3047TIP3   OH2 9083   7.423   4.362   5.757
 3047TIP3    H1 9084   7.496   4.338   5.700
 3047TIP3    H2 9085   7.414   4.288   5.817
 3048TIP3   OH2 9086   3.144   6.728   5.275
 3048TIP3    H1 9087   3.209   6.704   5.209
 3048TIP3    H2 9088   3.167   6.818   5.299
 3049TIP3   OH2 9089   5.226   1.925   0.985
 3049TIP3    H1 9090   5.300   1.942   1.042
 3049TIP3    H2 9091   5.186   2.011   0.971
 3050TIP3   OH2 9092   5.818   7.286   1.324
 3050TIP3    H1 9093   5.806   7.333   1.242
 3050TIP3    H2 9094   5.826   7.355   1.390
 3051TIP3   OH2 9095   2.997   0.830   1.672
 3051TIP3    H1 9096   3.078   0.866   1.636
 3051TIP3    H2 9097   2.928   0.862   1.614
 3052TIP3   OH2 9098   6.955   6.376   3.437
 3052TIP3    H1 9099   6.949   6.466   3.406
 3052TIP3    H2 9100   6.882   6.331   3.394
 3053TIP3   OH2 9101   5.141   4.517   2.361
 3053TIP3    H1 9102   5.215   4.456   2.362
 3053TIP3    H2 9103   5.077   4.475   2.302
 3054TIP3   OH2 9104   7.527   5.726   1.685
 3054TIP3    H1 9105   7.443   5.768   1.668
 3054TIP3    H2 9106   7.571   5.784   1.747
 3055TIP3   OH2 9107   4.212   3.413   5.350
 3055TIP3    H1 9108   4.202   3.326   5.389
 3055TIP3    H2 9109   4.296   3.409   5.303
 3056TIP3   OH2 9110   4.348   1.103   3.057
 3056TIP3    H1 9111   4.371   1.174   2.998
 3056TIP3    H2 9112   4.413   1.035   3.039
 3057TIP3   OH2 9113   3.374   6.062   5.382
 3057TIP3    H1 9114   3.352   6.044   5.291
 3057TIP3    H2 9115   3.459   6.105   5.379
 3058TIP3   OH2 9116   2.401   3.773   0.574
 3058TIP3    H1 9117   2.392   3.678   0.566
 3058TIP3    H2 9118   2.459   3.786   0.650
 3059TIP3   OH2 9119   1.370   4.605   2.135
 3059TIP3    H1 9120   1.404   4.692   2.158
 3059TIP3    H2 9121   1.443   4.546   2.154
 3060TIP3   OH2 9122   2.697   3.619   4.756
 3060TIP3    H1 9123   2.783   3.579   4.752
 3060TIP3    H2 9124   2.698   3.686   4.687
 3061TIP3   OH2 9125   1.754   6.580   2.542
 3061TIP3    H1 9126   1.666   6.545   2.556
 3061TIP3    H2 9127   1.746   6.673   2.564
 3062TIP3   OH2 9128   1.353   0.240   0.559
 3062TIP3    H1 9129   1.435   0.256   0.605
 3062TIP3    H2 9130   1.336   0.146   0.571
 3063TIP3   OH2 9131   1.325   2.173   6.568
 3063TIP3    H1 9132   1.397   2.158   6.630
 3063TIP3    H2 9133   1.276   2.246   6.605
 3064TIP3   OH2 9134   2.660   2.441   3.461
 3064TIP3    H1 9135   2.639   2.349   3.442
 3064TIP3    H2 9136   2.647   2.487   3.378
 3065TIP3   OH2 9137   5.452   6.356   4.718
 3065TIP3    H1 9138   5.430   6.435   4.669
 3065TIP3    H2 9139   5.417   6.372   4.806
 3066TIP3   OH2 9140   6.620   1.304   3.281
 3066TIP3    H1 9141   6.664   1.371   3.332
 3066TIP3    H2 9142   6.578   1.248   3.345
 3067TIP3   OH2 9143   1.341   2.149   4.712
 3067TIP3    H1 9144   1.416   2.125   4.658
 3067TIP3    H2 9145   1.271   2.167   4.650
 3068TIP3   OH2 9146   6.325   3.253   2.942
 3068TIP3    H1 9147   6.314   3.205   2.860
 3068TIP3    H2 9148   6.377   3.195   2.997
 3069TIP3   OH2 9149   0.452   2.115   1.642
 3069TIP3    H1 9150   0.515   2.181   1.613
 3069TIP3    H2 9151   0.398   2.161   1.707
 3070TIP3   OH2 9152   2.554   4.320   5.965
 3070TIP3    H1 9153   2.517   4.364   5.888
 3070TIP3    H2 9154   2.489   4.333   6.034
 3071TIP3   OH2 9155   7.995   7.269   2.196
 3071TIP3    H1 9156   8.062   7.335   2.178
 3071TIP3    H2 9157   8.017   7.236   2.283
 3072TIP3   OH2 9158   3.414   5.449   5.660
 3072TIP3    H1 9159   3.471   5.398   5.718
 3072TIP3    H2 9160   3.406   5.534   5.704
 3073TIP3   OH2 9161   6.737   7.613   6.129
 3073TIP3    H1 9162   6.699   7.588   6.214
 3073TIP3    H2 9163   6.790   7.538   6.104
 3074TIP3   OH2 9164   1.329   6.621   2.886
 3074TIP3    H1 9165   1.238   6.591   2.883
 3074TIP3    H2 9166   1.335   6.686   2.816
 3075TIP3   OH2 9167   0.354   4.444   5.227
 3075TIP3    H1 9168   0.305   4.418   5.149
 3075TIP3    H2 9169   0.298   4.509   5.270
 3076TIP3   OH2 9170   4.481   4.557   2.474
 3076TIP3    H1 9171   4.491   4.470   2.436
 3076TIP3    H2 9172   4.472   4.616   2.399
 3077TIP3   OH2 9173   4.463   7.396   4.182
 3077TIP3    H1 9174   4.530   7.340   4.221
 3077TIP3    H2 9175   4.457   7.472   4.241
 3078TIP3   OH2 9176   6.561   1.651   3.021
 3078TIP3    H1 9177   6.652   1.621   3.021
 3078TIP3    H2 9178   6.513   1.584   3.069
 3079TIP3   OH2 9179   3.188   6.099   2.152
 3079TIP3    H1 9180   3.178   6.051   2.235
 3079TIP3    H2 9181   3.281   6.122   2.150
 3080TIP3   OH2 9182   7.237   2.415   4.523
 3080TIP3    H1 9183   7.198   2.335   4.558
 3080TIP3    H2 9184   7.166   2.478   4.520
 3081TIP3   OH2 9185   3.803   2.806   0.437
 3081TIP3    H1 9186   3.793   2.817   0.342
 3081TIP3    H2 9187   3.855   2.881   0.465
 3082TIP3   OH2 9188   2.419   3.242   2.066
 3082TIP3    H1 9189   2.324   3.228   2.064
 3082TIP3    H2 9190   2.446   3.242   1.974
 3083TIP3   OH2 9191   7.633   4.181   3.181
 3083TIP3    H1 9192   7.709   4.149   3.133
 3083TIP3    H2 9193   7.669   4.229   3.255
 3084TIP3   OH2 9194   2.210   3.243   1.052
 3084TIP3    H1 9195   2.133   3.205   1.093
 3084TIP3    H2 9196   2.212   3.207   0.964
 3085TIP3   OH2 9197   6.789   4.097   1.027
 3085TIP3    H1 9198   6.875   4.120   0.991
 3085TIP3    H2 9199   6.777   4.156   1.101
 3086TIP3   OH2 9200   6.799   1.383   0.204
 3086TIP3    H1 9201   6.800   1.398   0.110
 3086TIP3    H2 9202   6.857   1.308   0.218
 3087TIP3   OH2 9203   6.501   3.361   1.880
 3087TIP3    H1 9204   6.451   3.439   1.854
 3087TIP3    H2 9205   6.509   3.310   1.800
 3088TIP3   OH2 9206   0.427   6.699   6.011
 3088TIP3    H1 9207   0.398   6.637   6.077
 3088TIP3    H2 9208   0.506   6.660   5.973
 3089TIP3   OH2 9209   0.842   5.454   1.571
 3089TIP3    H1 9210   0.833   5.365   1.606
 3089TIP3    H2 9211   0.776   5.459   1.502
 3090TIP3   OH2 9212   4.298   6.628   5.176
 3090TIP3    H1 9213   4.310   6.630   5.271
 3090TIP3    H2 9214   4.386   6.642   5.140
 3091TIP3   OH2 9215   3.298   1.224   1.872
 3091TIP3    H1 9216   3.213   1.180   1.864
 3091TIP3    H2 9217   3.276   1.317   1.874
 3092TIP3   OH2 9218   7.018   1.215   5.302
 3092TIP3    H1 9219   6.953   1.166   5.352
 3092TIP3    H2 9220   7.036   1.293   5.355
 3093TIP3   OH2 9221   0.574   5.910   1.775
 3093TIP3    H1 9222   0.640   5.979   1.780
 3093TIP3    H2 9223   0.617   5.837   1.732
 3094TIP3   OH2 9224   1.498   6.448   5.510
 3094TIP3    H1 9225   1.499   6.502   5.589
 3094TIP3    H2 9226   1.500   6.358   5.542
 3095TIP3   OH2 9227   3.389   3.688   5.022
 3095TIP3    H1 9228   3.371   3.770   4.977
 3095TIP3    H2 9229   3.373   3.708   5.115
 3096TIP3   OH2 9230   2.799   5.315   0.588
 3096TIP3    H1 9231   2.765   5.249   0.649
 3096TIP3    H2 9232   2.841   5.263   0.519
 3097TIP3   OH2 9233   7.449   4.698   5.085
 3097TIP3    H1 9234   7.511   4.716   5.015
 3097TIP3    H2 9235   7.488   4.627   5.135
 3098TIP3   OH2 9236   6.427   5.732   0.583
 3098TIP3    H1 9237   6.410   5.825   0.598
 3098TIP3    H2 9238   6.432   5.724   0.488
 3099TIP3   OH2 9239   5.269   1.932   2.531
 3099TIP3    H1 9240   5.200   1.900   2.473
 3099TIP3    H2 9241   5.350   1.923   2.480
 3100TIP3   OH2 9242   6.743   5.400   1.323
 3100TIP3    H1 9243   6.726   5.464   1.253
 3100TIP3    H2 9244   6.697   5.321   1.295
 3101TIP3   OH2 9245   2.710   7.710   5.848
 3101TIP3    H1 9246   2.631   7.760   5.868
 3101TIP3    H2 9247   2.778   7.776   5.835
 3102TIP3   OH2 9248   5.965   7.533   0.888
 3102TIP3    H1 9249   6.034   7.523   0.822
 3102TIP3    H2 9250   5.887   7.557   0.838
 3103TIP3   OH2 9251   7.291   3.963   1.082
 3103TIP3    H1 9252   7.329   3.911   1.011
 3103TIP3    H2 9253   7.326   3.924   1.162
 3104TIP3   OH2 9254   3.490   4.278   2.224
 3104TIP3    H1 9255   3.517   4.368   2.208
 3104TIP3    H2 9256   3.543   4.226   2.163
 3105TIP3   OH2 9257   6.325   2.318   5.779
 3105TIP3    H1 9258   6.276   2.332   5.699
 3105TIP3    H2 9259   6.278   2.367   5.846
 3106TIP3   OH2 9260   6.737   6.872   4.017
 3106TIP3    H1 9261   6.679   6.809   3.975
 3106TIP3    H2 9262   6.823   6.831   4.015
 3107TIP3   OH2 9263   2.091   6.774   0.796
 3107TIP3    H1 9264   2.085   6.685   0.760
 3107TIP3    H2 9265   2.157   6.818   0.742
 3108TIP3   OH2 9266   6.483   7.726   0.489
 3108TIP3    H1 9267   6.467   7.634   0.507
 3108TIP3    H2 9268   6.402   7.756   0.446
 3109TIP3   OH2 9269   5.402   3.078   6.550
 3109TIP3    H1 9270   5.367   3.083   6.461
 3109TIP3    H2 9271   5.458   3.154   6.559
 3110TIP3   OH2 9272   2.682   2.450   3.004
 3110TIP3    H1 9273   2.678   2.397   2.925
 3110TIP3    H2 9274   2.754   2.511   2.988
 3111TIP3   OH2 9275   7.222   1.661   1.560
 3111TIP3    H1 9276   7.266   1.581   1.589
 3111TIP3    H2 9277   7.193   1.642   1.471
 3112TIP3   OH2 9278   7.795   0.781   5.776
 3112TIP3    H1 9279   7.875   0.823   5.746
 3112TIP3    H2 9280   7.728   0.810   5.714
 3113TIP3   OH2 9281   5.270   6.616   4.145
 3113TIP3    H1 9282   5.338   6.682   4.157
 3113TIP3    H2 9283   5.306   6.538   4.187
 3114TIP3   OH2 9284   0.423   4.729   0.648
 3114TIP3    H1 9285   0.392   4.640   0.663
 3114TIP3    H2 9286   0.355   4.770   0.595
 3115TIP3   OH2 9287   2.501   0.494   6.500
 3115TIP3    H1 9288   2.483   0.491   6.406
 3115TIP3    H2 9289   2.593   0.522   6.505
 3116TIP3   OH2 9290   5.915   7.679   1.132
 3116TIP3    H1 9291   5.829   7.655   1.096
 3116TIP3    H2 9292   5.978   7.635   1.075
 3117TIP3   OH2 9293   6.756   0.079   4.675
 3117TIP3    H1 9294   6.754   0.156   4.617
 3117TIP3    H2 9295   6.723   0.008   4.620
 3118TIP3   OH2 9296   5.688   4.076   3.463
 3118TIP3    H1 9297   5.643   4.150   3.421
 3118TIP3    H2 9298   5.700   4.012   3.393
 3119TIP3   OH2 9299   6.766   6.320   6.348
 3119TIP3    H1 9300   6.840   6.380   6.359
 3119TIP3    H2 9301   6.712   6.360   6.280
 3120TIP3   OH2 9302   4.623   2.821   5.764
 3120TIP3    H1 9303   4.535   2.783   5.756
 3120TIP3    H2 9304   4.640   2.823   5.858
 3121TIP3   OH2 9305   3.440   3.617   1.174
 3121TIP3    H1 9306   3.448   3.556   1.247
 3121TIP3    H2 9307   3.370   3.582   1.120
 3122TIP3   OH2 9308   6.257   4.068   0.210
 3122TIP3    H1 9309   6.164   4.059   0.233
 3122TIP3    H2 9310   6.273   4.162   0.213
 3123TIP3   OH2 9311   7.369   4.326   4.665
 3123TIP3    H1 9312   7.374   4.420   4.682
 3123TIP3    H2 9313   7.419   4.314   4.584
 3124TIP3   OH2 9314   5.510   0.386   1.207
 3124TIP3    H1 9315   5.604   0.368   1.215
 3124TIP3    H2 9316   5.490   0.442   1.283
 3125TIP3   OH2 9317   6.783   4.012   0.621
 3125TIP3    H1 9318   6.780   4.005   0.526
 3125TIP3    H2 9319   6.729   3.940   0.652
 3126TIP3   OH2 9320   2.837   4.352   5.937
 3126TIP3    H1 9321   2.742   4.340   5.943
 3126TIP3    H2 9322   2.873   4.302   6.010
 3127TIP3   OH2 9323   0.316   0.881   5.270
 3127TIP3    H1 9324   0.308   0.786   5.274
 3127TIP3    H2 9325   0.230   0.915   5.295
 3128TIP3   OH2 9326   6.421  -0.006   5.032
 3128TIP3    H1 9327   6.359  -0.079   5.034
 3128TIP3    H2 9328   6.365   0.072   5.022
 3129TIP3   OH2 9329   2.203   0.638   1.927
 3129TIP3    H1 9330   2.259   0.574   1.885
 3129TIP3    H2 9331   2.142   0.665   1.859
 3130TIP3   OH2 9332   3.511   7.446   6.348
 3130TIP3    H1 9333   3.477   7.519   6.401
 3130TIP3    H2 9334   3.528   7.377   6.412
 3131TIP3   OH2 9335   5.208   3.188   4.042
 3131TIP3    H1 9336   5.122   3.211   4.007
 3131TIP3    H2 9337   5.269   3.217   3.974
 3132TIP3   OH2 9338   4.016   6.331   1.269
 3132TIP3    H1 9339   4.043   6.243   1.245
 3132TIP3    H2 9340   3.928   6.320   1.304
 3133TIP3   OH2 9341   4.646   7.283   3.996
 3133TIP3    H1 9342   4.552   7.271   3.985
 3133TIP3    H2 9343   4.654   7.370   4.036
 3134TIP3   OH2 9344   7.451   0.893   0.828
 3134TIP3    H1 9345   7.483   0.852   0.747
 3134TIP3    H2 9346   7.358   0.906   0.813
 3135TIP3   OH2 9347   2.664   7.519   0.786
 3135TIP3    H1 9348   2.753   7.487   0.768
 3135TIP3    H2 9349   2.630   7.546   0.701
 3136TIP3   OH2 9350   2.974   4.484   6.299
 3136TIP3    H1 9351   2.944   4.566   6.259
 3136TIP3    H2 9352   3.050   4.509   6.351
 3137TIP3   OH2 9353   1.634   7.387   6.594
 3137TIP3    H1 9354   1.574   7.448   6.638
 3137TIP3    H2 9355   1.658   7.324   6.662
 3138TIP3   OH2 9356   5.526   5.452   1.315
 3138TIP3    H1 9357   5.462   5.478   1.249
 3138TIP3    H2 9358   5.517   5.517   1.385
 3139TIP3   OH2 9359   7.953   2.707   6.706
 3139TIP3    H1 9360   8.012   2.782   6.711
 3139TIP3    H2 9361   7.880   2.736   6.651
 3140TIP3   OH2 9362   6.995   3.880   1.405
 3140TIP3    H1 9363   6.934   3.940   1.361
 3140TIP3    H2 9364   6.969   3.882   1.497
 3141TIP3   OH2 9365   4.620   5.405   2.722
 3141TIP3    H1 9366   4.565   5.474   2.685
 3141TIP3    H2 9367   4.600   5.327   2.670
 3142TIP3   OH2 9368   8.026   7.374   1.884
 3142TIP3    H1 9369   8.006   7.299   1.828
 3142TIP3    H2 9370   8.119   7.366   1.903
 3143TIP3   OH2 9371   6.947   2.572   2.387
 3143TIP3    H1 9372   6.888   2.505   2.354
 3143TIP3    H2 9373   6.906   2.655   2.363
 3144TIP3   OH2 9374   7.739   4.385   3.782
 3144TIP3    H1 9375   7.801   4.454   3.804
 3144TIP3    H2 9376   7.783   4.333   3.714
 3145TIP3   OH2 9377   6.321   2.917   4.210
 3145TIP3    H1 9378   6.280   2.833   4.187
 3145TIP3    H2 9379   6.263   2.954   4.277
 3146TIP3   OH2 9380   4.948   0.042   2.385
 3146TIP3    H1 9381   4.924  -0.043   2.347
 3146TIP3    H2 9382   5.036   0.059   2.353
 3147TIP3   OH2 9383   7.416   3.314   2.555
 3147TIP3    H1 9384   7.391   3.227   2.587
 3147TIP3    H2 9385   7.420   3.368   2.634
 3148TIP3   OH2 9386   2.801   5.767   6.093
 3148TIP3    H1 9387   2.790   5.688   6.039
 3148TIP3    H2 9388   2.860   5.739   6.164
 3149TIP3   OH2 9389   6.153   1.268   2.215
 3149TIP3    H1 9390   6.209   1.341   2.241
 3149TIP3    H2 9391   6.069   1.308   2.194
 3150TIP3   OH2 9392   5.336   6.938   3.520
 3150TIP3    H1 9393   5.270   6.877   3.553
 3150TIP3    H2 9394   5.379   6.892   3.448
 3151TIP3   OH2 9395   7.017   4.262   0.955
 3151TIP3    H1 9396   6.989   4.353   0.950
 3151TIP3    H2 9397   7.011   4.230   0.864
 3152TIP3   OH2 9398   1.035   4.094   2.874
 3152TIP3    H1 9399   0.964   4.092   2.937
 3152TIP3    H2 9400   1.107   4.137   2.920
 3153TIP3   OH2 9401   7.253   0.042   3.082
 3153TIP3    H1 9402   7.245  -0.013   3.160
 3153TIP3    H2 9403   7.270   0.130   3.117
 3154TIP3   OH2 9404   2.746   5.082   2.474
 3154TIP3    H1 9405   2.836   5.059   2.497
 3154TIP3    H2 9406   2.742   5.176   2.485
 3155TIP3   OH2 9407   2.720   1.791   0.792
 3155TIP3    H1 9408   2.779   1.719   0.771
 3155TIP3    H2 9409   2.641   1.773   0.741
 3156TIP3   OH2 9410   5.166   6.060   2.287
 3156TIP3    H1 9411   5.181   6.083   2.195
 3156TIP3    H2 9412   5.075   6.032   2.290
 3157TIP3   OH2 9413   0.744   1.080   1.981
 3157TIP3    H1 9414   0.680   1.083   2.053
 3157TIP3    H2 9415   0.741   1.168   1.943
 3158TIP3   OH2 9416   2.683   3.404   5.574
 3158TIP3    H1 9417   2.621   3.477   5.570
 3158TIP3    H2 9418   2.628   3.326   5.564
 3159TIP3   OH2 9419   5.531   1.835   3.459
 3159TIP3    H1 9420   5.607   1.808   3.408
 3159TIP3    H2 9421   5.472   1.876   3.396
 3160TIP3   OH2 9422   0.313   5.270   0.485
 3160TIP3    H1 9423   0.324   5.230   0.571
 3160TIP3    H2 9424   0.223   5.249   0.460
 3161TIP3   OH2 9425   1.641   7.577   5.909
 3161TIP3    H1 9426   1.711   7.632   5.943
 3161TIP3    H2 9427   1.685   7.512   5.854
 3162TIP3   OH2 9428   2.635   1.007   3.394
 3162TIP3    H1 9429   2.650   1.065   3.319
 3162TIP3    H2 9430   2.580   1.059   3.453
 3163TIP3   OH2 9431   2.847   1.049   5.918
 3163TIP3    H1 9432   2.930   1.010   5.888
 3163TIP3    H2 9433   2.785   0.976   5.916
 3164TIP3   OH2 9434   0.789   5.128   6.129
 3164TIP3    H1 9435   0.866   5.136   6.072
 3164TIP3    H2 9436   0.806   5.188   6.201
 3165TIP3   OH2 9437   5.355   1.436   5.687
 3165TIP3    H1 9438   5.401   1.490   5.623
 3165TIP3    H2 9439   5.266   1.429   5.653
 3166TIP3   OH2 9440   2.418   2.944   5.966
 3166TIP3    H1 9441   2.340   2.973   6.014
 3166TIP3    H2 9442   2.476   3.020   5.967
 3167TIP3   OH2 9443   1.142   3.825   0.782
 3167TIP3    H1 9444   1.059   3.777   0.781
 3167TIP3    H2 9445   1.183   3.804   0.698
 3168TIP3   OH2 9446   1.528   1.880   2.411
 3168TIP3    H1 9447   1.593   1.949   2.403
 3168TIP3    H2 9448   1.458   1.919   2.464
 3169TIP3   OH2 9449   7.683   5.247   5.137
 3169TIP3    H1 9450   7.698   5.214   5.225
 3169TIP3    H2 9451   7.766   5.233   5.092
 3170TIP3   OH2 9452   0.674   3.650   0.592
 3170TIP3    H1 9453   0.689   3.700   0.511
 3170TIP3    H2 9454   0.701   3.709   0.662
 3171TIP3   OH2 9455   1.748   5.308   1.808
 3171TIP3    H1 9456   1.820   5.322   1.747
 3171TIP3    H2 9457   1.670   5.300   1.752
 3172TIP3   OH2 9458   5.775   5.509   3.780
 3172TIP3    H1 9459   5.749   5.551   3.698
 3172TIP3    H2 9460   5.862   5.543   3.798
 3173TIP3   OH2 9461   7.039   1.601   4.059
 3173TIP3    H1 9462   7.081   1.530   4.108
 3173TIP3    H2 9463   7.106   1.630   3.997
 3174TIP3   OH2 9464   6.475   0.843   4.347
 3174TIP3    H1 9465   6.425   0.762   4.347
 3174TIP3    H2 9466   6.430   0.899   4.410
 3175TIP3   OH2 9467   2.817   7.700   1.398
 3175TIP3    H1 9468   2.911   7.682   1.388
 3175TIP3    H2 9469   2.814   7.778   1.454
 3176TIP3   OH2 9470   4.533   1.845   3.171
 3176TIP3    H1 9471   4.524   1.820   3.078
 3176TIP3    H2 9472   4.593   1.919   3.170
 3177TIP3   OH2 9473   1.717   7.233   5.941
 3177TIP3    H1 9474   1.806   7.203   5.959
 3177TIP3    H2 9475   1.726   7.289   5.863
 3178TIP3   OH2 9476   4.858   4.406   0.520
 3178TIP3    H1 9477   4.762   4.401   0.520
 3178TIP3    H2 9478   4.877   4.493   0.556
 3179TIP3   OH2 9479   3.432   6.376   2.239
 3179TIP3    H1 9480   3.492   6.386   2.313
 3179TIP3    H2 9481   3.467   6.302   2.189
 3180TIP3   OH2 9482   5.487   7.256   6.138
 3180TIP3    H1 9483   5.416   7.194   6.123
 3180TIP3    H2 9484   5.539   7.217   6.209
 3181TIP3   OH2 9485   1.850   3.385   2.238
 3181TIP3    H1 9486   1.799   3.335   2.174
 3181TIP3    H2 9487   1.804   3.372   2.321
 3182TIP3   OH2 9488   7.275   3.623   6.422
 3182TIP3    H1 9489   7.185   3.622   6.388
 3182TIP3    H2 9490   7.265   3.605   6.516
 3183TIP3   OH2 9491   8.142   5.623   0.492
 3183TIP3    H1 9492   8.174   5.591   0.577
 3183TIP3    H2 9493   8.207   5.689   0.466
 3184TIP3   OH2 9494   7.025   4.961   5.465
 3184TIP3    H1 9495   7.048   5.001   5.548
 3184TIP3    H2 9496   6.949   4.907   5.484
 3185TIP3   OH2 9497   0.124   7.656   0.990
 3185TIP3    H1 9498   0.037   7.690   0.967
 3185TIP3    H2 9499   0.180   7.683   0.917
 3186TIP3   OH2 9500   6.614   5.474   6.029
 3186TIP3    H1 9501   6.551   5.500   6.097
 3186TIP3    H2 9502   6.573   5.501   5.947
 3187TIP3   OH2 9503   1.105   4.945   1.435
 3187TIP3    H1 9504   1.113   4.862   1.482
 3187TIP3    H2 9505   1.016   4.974   1.452
 3188TIP3   OH2 9506   3.298   4.351   1.520
 3188TIP3    H1 9507   3.355   4.406   1.467
 3188TIP3    H2 9508   3.345   4.268   1.528
 3189TIP3   OH2 9509   6.227   5.148   5.235
 3189TIP3    H1 9510   6.184   5.208   5.297
 3189TIP3    H2 9511   6.154   5.102   5.193
 3190TIP3   OH2 9512   1.842   3.646   2.663
 3190TIP3    H1 9513   1.812   3.701   2.590
 3190TIP3    H2 9514   1.929   3.617   2.638
 3191TIP3   OH2 9515   3.365   2.785   6.191
 3191TIP3    H1 9516   3.329   2.760   6.276
 3191TIP3    H2 9517   3.361   2.705   6.139
 3192TIP3   OH2 9518   5.723   0.570   6.631
 3192TIP3    H1 9519   5.722   0.573   6.535
 3192TIP3    H2 9520   5.805   0.614   6.655
 3193TIP3   OH2 9521   7.159   1.628   0.086
 3193TIP3    H1 9522   7.076   1.656   0.047
 3193TIP3    H2 9523   7.137   1.605   0.176
 3194TIP3   OH2 9524   7.583   5.776   6.106
 3194TIP3    H1 9525   7.638   5.734   6.040
 3194TIP3    H2 9526   7.615   5.866   6.111
 3195TIP3   OH2 9527   5.401   1.005   4.795
 3195TIP3    H1 9528   5.466   0.944   4.762
 3195TIP3    H2 9529   5.317   0.963   4.776
 3196TIP3   OH2 9530   5.414   1.870   3.900
 3196TIP3    H1 9531   5.496   1.886   3.853
 3196TIP3    H2 9532   5.354   1.838   3.833
 3197TIP3   OH2 9533  -0.005   7.121   2.872
 3197TIP3    H1 9534   0.079   7.159   2.846
 3197TIP3    H2 9535   0.017   7.042   2.920
 3198TIP3   OH2 9536   4.680   6.191   0.894
 3198TIP3    H1 9537   4.738   6.145   0.956
 3198TIP3    H2 9538   4.740   6.236   0.835
 3199TIP3   OH2 9539   7.830   3.273   4.157
 3199TIP3    H1 9540   7.921   3.267   4.127
 3199TIP3    H2 9541   7.788   3.329   4.092
 3200TIP3   OH2 9542   6.519   3.991   5.712
 3200TIP3    H1 9543   6.532   4.084   5.691
 3200TIP3    H2 9544   6.429   3.973   5.686
 3201TIP3   OH2 9545   3.732   1.687   4.955
 3201TIP3    H1 9546   3.805   1.736   4.917
 3201TIP3    H2 9547   3.698   1.634   4.883
 3202TIP3   OH2 9548   3.406   5.159   3.952
 3202TIP3    H1 9549   3.342   5.223   3.982
 3202TIP3    H2 9550   3.360   5.075   3.958
 3203TIP3   OH2 9551   1.977   6.143   6.038
 3203TIP3    H1 9552   1.931   6.068   6.075
 3203TIP3    H2 9553   1.988   6.203   6.112
 3204TIP3   OH2 9554   3.979   1.566   3.804
 3204TIP3    H1 9555   4.033   1.581   3.727
 3204TIP3    H2 9556   4.028   1.502   3.856
 3205TIP3   OH2 9557   4.739   2.370   4.501
 3205TIP3    H1 9558   4.680   2.302   4.535
 3205TIP3    H2 9559   4.683   2.447   4.489
 3206TIP3   OH2 9560   4.256   6.691   2.508
 3206TIP3    H1 9561   4.202   6.765   2.535
 3206TIP3    H2 9562   4.216   6.615   2.551
 3207TIP3   OH2 9563   0.369   2.648   6.586
 3207TIP3    H1 9564   0.406   2.711   6.525
 3207TIP3    H2 9565   0.337   2.700   6.660
 3208TIP3   OH2 9566   2.877   4.016   4.302
 3208TIP3    H1 9567   2.972   4.006   4.314
 3208TIP3    H2 9568   2.862   4.109   4.317
 3209TIP3   OH2 9569   7.552   3.045   6.030
 3209TIP3    H1 9570   7.624   3.101   6.001
 3209TIP3    H2 9571   7.576   3.019   6.120
 3210TIP3   OH2 9572   1.281   0.826   1.779
 3210TIP3    H1 9573   1.248   0.908   1.743
 3210TIP3    H2 9574   1.359   0.807   1.726
 3211TIP3   OH2 9575   3.368   2.911   5.748
 3211TIP3    H1 9576   3.316   2.865   5.683
 3211TIP3    H2 9577   3.432   2.962   5.697
 3212TIP3   OH2 9578   0.655   1.119   0.402
 3212TIP3    H1 9579   0.651   1.024   0.391
 3212TIP3    H2 9580   0.577   1.151   0.357
 3213TIP3   OH2 9581   7.267   2.715   5.155
 3213TIP3    H1 9582   7.260   2.794   5.102
 3213TIP3    H2 9583   7.282   2.645   5.092
 3214TIP3   OH2 9584   0.923   0.689   0.881
 3214TIP3    H1 9585   0.920   0.620   0.816
 3214TIP3    H2 9586   0.915   0.644   0.965
 3215TIP3   OH2 9587   2.597   6.429   4.558
 3215TIP3    H1 9588   2.515   6.379   4.555
 3215TIP3    H2 9589   2.648   6.389   4.628
 3216TIP3   OH2 9590   6.814   7.423   4.537
 3216TIP3    H1 9591   6.755   7.474   4.593
 3216TIP3    H2 9592   6.757   7.359   4.494
 3217TIP3   OH2 9593   6.934   3.622   0.713
 3217TIP3    H1 9594   7.004   3.681   0.742
 3217TIP3    H2 9595   6.870   3.623   0.784
 3218TIP3   OH2 9596   3.130   1.359   1.370
 3218TIP3    H1 9597   3.065   1.306   1.417
 3218TIP3    H2 9598   3.083   1.437   1.342
 3219TIP3   OH2 9599   7.584   3.069   3.448
 3219TIP3    H1 9600   7.546   2.981   3.445
 3219TIP3    H2 9601   7.674   3.056   3.476
 3220TIP3   OH2 9602   5.718   0.210   0.950
 3220TIP3    H1 9603   5.726   0.225   1.045
 3220TIP3    H2 9604   5.650   0.143   0.942
 3221TIP3   OH2 9605   6.591   3.309   4.154
 3221TIP3    H1 9606   6.615   3.307   4.061
 3221TIP3    H2 9607   6.497   3.291   4.154
 3222TIP3   OH2 9608   6.079   1.113   3.696
 3222TIP3    H1 9609   6.168   1.080   3.711
 3222TIP3    H2 9610   6.070   1.187   3.756
 3223TIP3   OH2 9611   6.878   3.710   3.555
 3223TIP3    H1 9612   6.925   3.716   3.472
 3223TIP3    H2 9613   6.941   3.741   3.620
 3224TIP3   OH2 9614   1.559   4.078   3.149
 3224TIP3    H1 9615   1.549   3.986   3.126
 3224TIP3    H2 9616   1.501   4.090   3.225
 3225TIP3   OH2 9617   0.240   4.006   5.786
 3225TIP3    H1 9618   0.326   4.026   5.823
 3225TIP3    H2 9619   0.205   3.937   5.843
 3226TIP3   OH2 9620   4.521   2.366   4.780
 3226TIP3    H1 9621   4.486   2.281   4.809
 3226TIP3    H2 9622   4.615   2.361   4.800
 3227TIP3   OH2 9623   7.602   3.713   6.018
 3227TIP3    H1 9624   7.568   3.664   6.092
 3227TIP3    H2 9625   7.554   3.796   6.019
 3228TIP3   OH2 9626   0.250   6.150   0.504
 3228TIP3    H1 9627   0.314   6.078   0.509
 3228TIP3    H2 9628   0.237   6.164   0.410
 3229TIP3   OH2 9629   7.284   4.643   0.760
 3229TIP3    H1 9630   7.325   4.573   0.810
 3229TIP3    H2 9631   7.346   4.715   0.764
 3230TIP3   OH2 9632   0.370   5.457   3.086
 3230TIP3    H1 9633   0.436   5.421   3.146
 3230TIP3    H2 9634   0.294   5.473   3.142
 3231TIP3   OH2 9635   5.621   0.738   5.537
 3231TIP3    H1 9636   5.682   0.672   5.506
 3231TIP3    H2 9637   5.605   0.793   5.460
 3232TIP3   OH2 9638   1.263   3.882   1.919
 3232TIP3    H1 9639   1.256   3.945   1.848
 3232TIP3    H2 9640   1.259   3.797   1.877
 3233TIP3   OH2 9641   2.327   4.323   2.200
 3233TIP3    H1 9642   2.377   4.241   2.209
 3233TIP3    H2 9643   2.297   4.342   2.289
 3234TIP3   OH2 9644   1.649   1.546   0.232
 3234TIP3    H1 9645   1.688   1.488   0.166
 3234TIP3    H2 9646   1.723   1.596   0.267
 3235TIP3   OH2 9647   0.314   3.494   3.690
 3235TIP3    H1 9648   0.390   3.552   3.681
 3235TIP3    H2 9649   0.350   3.406   3.684
 3236TIP3   OH2 9650   0.428   4.849   4.901
 3236TIP3    H1 9651   0.506   4.861   4.955
 3236TIP3    H2 9652   0.451   4.884   4.816
 3237TIP3   OH2 9653   4.917   3.325   5.031
 3237TIP3    H1 9654   4.991   3.382   5.051
 3237TIP3    H2 9655   4.911   3.326   4.936
 3238TIP3   OH2 9656   0.597   4.192   1.564
 3238TIP3    H1 9657   0.681   4.153   1.539
 3238TIP3    H2 9658   0.557   4.127   1.622
 3239TIP3   OH2 9659   3.723   7.277   0.683
 3239TIP3    H1 9660   3.780   7.200   0.679
 3239TIP3    H2 9661   3.636   7.243   0.661
 3240TIP3   OH2 9662   6.967   0.296   0.139
 3240TIP3    H1 9663   7.020   0.294   0.060
 3240TIP3    H2 9664   6.897   0.233   0.123
 3241TIP3   OH2 9665   7.338   4.809   1.995
 3241TIP3    H1 9666   7.401   4.785   2.062
 3241TIP3    H2 9667   7.253   4.782   2.031
 3242TIP3   OH2 9668   2.071   4.804   5.155
 3242TIP3    H1 9669   2.157   4.797   5.195
 3242TIP3    H2 9670   2.058   4.898   5.142
 3243TIP3   OH2 9671   8.167   7.137   3.598
 3243TIP3    H1 9672   8.161   7.195   3.673
 3243TIP3    H2 9673   8.236   7.175   3.543
 3244TIP3   OH2 9674   6.797   3.010   0.315
 3244TIP3    H1 9675   6.749   2.949   0.258
 3244TIP3    H2 9676   6.856   3.057   0.257
 3245TIP3   OH2 9677   7.277   0.892   1.915
 3245TIP3    H1 9678   7.372   0.884   1.908
 3245TIP3    H2 9679   7.247   0.900   1.825
 3246TIP3   OH2 9680   7.461   5.738   2.259
 3246TIP3    H1 9681   7.443   5.686   2.337
 3246TIP3    H2 9682   7.520   5.683   2.207
 3247TIP3   OH2 9683   7.346   7.732   2.896
 3247TIP3    H1 9684   7.290   7.808   2.914
 3247TIP3    H2 9685   7.433   7.769   2.883
 3248TIP3   OH2 9686   5.891   0.717   5.233
 3248TIP3    H1 9687   5.874   0.802   5.274
 3248TIP3    H2 9688   5.822   0.660   5.265
 3249TIP3   OH2 9689   6.267   7.277   4.242
 3249TIP3    H1 9690   6.345   7.270   4.187
 3249TIP3    H2 9691   6.269   7.366   4.276
 3250TIP3   OH2 9692   2.774   2.573   4.287
 3250TIP3    H1 9693   2.700   2.574   4.348
 3250TIP3    H2 9694   2.803   2.481   4.286
 3251TIP3   OH2 9695   6.730   2.802   0.593
 3251TIP3    H1 9696   6.795   2.788   0.524
 3251TIP3    H2 9697   6.657   2.846   0.549
 3252TIP3   OH2 9698   8.014   1.397   5.686
 3252TIP3    H1 9699   8.008   1.304   5.709
 3252TIP3    H2 9700   8.021   1.442   5.770
 3253TIP3   OH2 9701   7.235   1.056   5.219
 3253TIP3    H1 9702   7.265   1.082   5.131
 3253TIP3    H2 9703   7.171   1.123   5.243
 3254TIP3   OH2 9704   0.096   2.926   4.100
 3254TIP3    H1 9705   0.153   2.971   4.163
 3254TIP3    H2 9706   0.098   2.834   4.126
 3255TIP3   OH2 9707   0.411   4.820   3.712
 3255TIP3    H1 9708   0.371   4.829   3.798
 3255TIP3    H2 9709   0.424   4.726   3.700
 3256TIP3   OH2 9710   1.919   2.935   5.602
 3256TIP3    H1 9711   1.868   2.881   5.542
 3256TIP3    H2 9712   1.927   2.882   5.681
 3257TIP3   OH2 9713   4.462   3.957   6.385
 3257TIP3    H1 9714   4.408   4.003   6.321
 3257TIP3    H2 9715   4.442   3.864   6.370
 3258TIP3   OH2 9716   5.527   7.387   4.029
 3258TIP3    H1 9717   5.583   7.311   4.018
 3258TIP3    H2 9718   5.441   7.359   3.999
 3259TIP3   OH2 9719   2.625   7.493   3.602
 3259TIP3    H1 9720   2.613   7.587   3.612
 3259TIP3    H2 9721   2.537   7.458   3.593
 3260TIP3   OH2 9722   4.906   7.100   4.453
 3260TIP3    H1 9723   4.920   7.051   4.534
 3260TIP3    H2 9724   4.901   7.032   4.385
 3261TIP3   OH2 9725   3.209   2.526   5.622
 3261TIP3    H1 9726   3.135   2.500   5.568
 3261TIP3    H2 9727   3.225   2.618   5.599
 3262TIP3   OH2 9728   8.082   4.795   3.497
 3262TIP3    H1 9729   8.025   4.719   3.494
 3262TIP3    H2 9730   8.026   4.866   3.527
 3263TIP3   OH2 9731   6.707   4.908   6.369
 3263TIP3    H1 9732   6.618   4.905   6.334
 3263TIP3    H2 9733   6.696   4.947   6.456
 3264TIP3   OH2 9734   4.402   4.779   4.672
 3264TIP3    H1 9735   4.435   4.735   4.593
 3264TIP3    H2 9736   4.453   4.742   4.744
 3265TIP3   OH2 9737   2.119   2.151   0.552
 3265TIP3    H1 9738   2.199   2.169   0.504
 3265TIP3    H2 9739   2.054   2.210   0.515
 3266TIP3   OH2 9740   6.591   7.214   6.107
 3266TIP3    H1 9741   6.683   7.231   6.086
 3266TIP3    H2 9742   6.585   7.225   6.201
 3267TIP3   OH2 9743   4.932   5.060   3.824
 3267TIP3    H1 9744   4.985   5.101   3.893
 3267TIP3    H2 9745   4.990   5.054   3.749
 3268TIP3   OH2 9746   6.934   7.505   6.404
 3268TIP3    H1 9747   6.978   7.447   6.466
 3268TIP3    H2 9748   6.946   7.462   6.319
 3269TIP3   OH2 9749   1.200   5.453   6.308
 3269TIP3    H1 9750   1.239   5.538   6.291
 3269TIP3    H2 9751   1.275   5.395   6.323
 3270TIP3   OH2 9752   6.539   3.203   0.526
 3270TIP3    H1 9753   6.570   3.264   0.459
 3270TIP3    H2 9754   6.596   3.218   0.601
 3271TIP3   OH2 9755   2.065   5.774   1.531
 3271TIP3    H1 9756   2.125   5.700   1.542
 3271TIP3    H2 9757   1.997   5.741   1.473
 3272TIP3   OH2 9758   3.637   1.825   0.127
 3272TIP3    H1 9759   3.711   1.822   0.065
 3272TIP3    H2 9760   3.679   1.827   0.213
 3273TIP3   OH2 9761   6.071   5.890   0.911
 3273TIP3    H1 9762   6.015   5.960   0.877
 3273TIP3    H2 9763   6.121   5.931   0.982
 3274TIP3   OH2 9764   7.276   7.559   1.298
 3274TIP3    H1 9765   7.252   7.478   1.254
 3274TIP3    H2 9766   7.218   7.625   1.261
 3275TIP3   OH2 9767   2.149   4.552   2.918
 3275TIP3    H1 9768   2.097   4.472   2.918
 3275TIP3    H2 9769   2.095   4.615   2.966
 3276TIP3   OH2 9770   6.833   3.842   6.620
 3276TIP3    H1 9771   6.861   3.928   6.650
 3276TIP3    H2 9772   6.741   3.836   6.644
 3277TIP3   OH2 9773   2.392   5.102   0.000
 3277TIP3    H1 9774   2.472   5.144  -0.030
 3277TIP3    H2 9775   2.324   5.168  -0.012
 3278TIP3   OH2 9776   8.116   6.994   5.212
 3278TIP3    H1 9777   8.090   6.992   5.120
 3278TIP3    H2 9778   8.035   6.975   5.260
 3279TIP3   OH2 9779   2.193   0.957   3.738
 3279TIP3    H1 9780   2.178   0.884   3.677
 3279TIP3    H2 9781   2.130   1.024   3.712
 3280TIP3   OH2 9782   7.988   3.744   1.982
 3280TIP3    H1 9783   7.906   3.748   2.030
 3280TIP3    H2 9784   7.978   3.809   1.913
 3281TIP3   OH2 9785   0.332   5.533   6.777
 3281TIP3    H1 9786   0.425   5.528   6.797
 3281TIP3    H2 9787   0.327   5.576   6.692
 3282TIP3   OH2 9788   5.329   5.635   3.816
 3282TIP3    H1 9789   5.311   5.552   3.859
 3282TIP3    H2 9790   5.279   5.699   3.866
 3283TIP3   OH2 9791   6.848   0.702   4.522
 3283TIP3    H1 9792   6.838   0.656   4.439
 3283TIP3    H2 9793   6.762   0.737   4.541
 3284TIP3   OH2 9794   8.057   2.980   6.695
 3284TIP3    H1 9795   8.085   2.954   6.607
 3284TIP3    H2 9796   8.139   2.989   6.744
 3285TIP3   OH2 9797   0.405   1.521   3.726
 3285TIP3    H1 9798   0.325   1.543   3.774
 3285TIP3    H2 9799   0.474   1.529   3.791
 3286TIP3   OH2 9800   3.283   7.713   1.525
 3286TIP3    H1 9801   3.301   7.630   1.569
 3286TIP3    H2 9802   3.320   7.780   1.583
 3287TIP3   OH2 9803   2.765   5.894   1.693
 3287TIP3    H1 9804   2.761   5.800   1.672
 3287TIP3    H2 9805   2.679   5.915   1.728
 3288TIP3   OH2 9806   7.814   2.814   6.102
 3288TIP3    H1 9807   7.723   2.822   6.128
 3288TIP3    H2 9808   7.862   2.795   6.183
 3289TIP3   OH2 9809   5.172   1.815   3.475
 3289TIP3    H1 9810   5.090   1.857   3.502
 3289TIP3    H2 9811   5.227   1.887   3.445
 3290TIP3   OH2 9812   3.447   6.660   4.832
 3290TIP3    H1 9813   3.356   6.683   4.813
 3290TIP3    H2 9814   3.490   6.743   4.850
 3291TIP3   OH2 9815   2.039   1.539   0.898
 3291TIP3    H1 9816   2.069   1.467   0.955
 3291TIP3    H2 9817   1.956   1.567   0.936
 3292TIP3   OH2 9818   3.203   6.040   5.144
 3292TIP3    H1 9819   3.223   5.949   5.166
 3292TIP3    H2 9820   3.126   6.061   5.198
 3293TIP3   OH2 9821   6.886   7.110   4.479
 3293TIP3    H1 9822   6.979   7.101   4.497
 3293TIP3    H2 9823   6.882   7.154   4.394
 3294TIP3   OH2 9824   6.563   1.527   5.874
 3294TIP3    H1 9825   6.559   1.437   5.842
 3294TIP3    H2 9826   6.591   1.520   5.965
 3295TIP3   OH2 9827   0.662   1.064   2.550
 3295TIP3    H1 9828   0.611   1.138   2.582
 3295TIP3    H2 9829   0.675   1.009   2.628
 3296TIP3   OH2 9830   7.170   3.026   0.963
 3296TIP3    H1 9831   7.250   2.994   1.004
 3296TIP3    H2 9832   7.107   2.954   0.974
 3297TIP3   OH2 9833   1.229   0.881   2.785
 3297TIP3    H1 9834   1.184   0.827   2.850
 3297TIP3    H2 9835   1.294   0.823   2.746
 3298TIP3   OH2 9836   4.338   0.958   3.473
 3298TIP3    H1 9837   4.426   0.960   3.510
 3298TIP3    H2 9838   4.333   1.037   3.419
 3299TIP3   OH2 9839   6.976   1.968   5.589
 3299TIP3    H1 9840   6.892   1.928   5.567
 3299TIP3    H2 9841   6.954   2.036   5.652
 3300TIP3   OH2 9842   2.955   4.539   5.365
 3300TIP3    H1 9843   3.035   4.492   5.342
 3300TIP3    H2 9844   2.935   4.591   5.287
 3301TIP3   OH2 9845   5.848   6.111   1.955
 3301TIP3    H1 9846   5.804   6.096   1.871
 3301TIP3    H2 9847   5.934   6.144   1.931
 3302TIP3   OH2 9848   1.176   0.760   0.573
 3302TIP3    H1 9849   1.237   0.802   0.633
 3302TIP3    H2 9850   1.099   0.741   0.628
 3303TIP3   OH2 9851   6.777   1.092   0.464
 3303TIP3    H1 9852   6.763   1.050   0.549
 3303TIP3    H2 9853   6.818   1.176   0.485
 3304TIP3   OH2 9854   3.927   4.060   1.930
 3304TIP3    H1 9855   3.907   4.002   2.004
 3304TIP3    H2 9856   3.877   4.024   1.857
 3305TIP3   OH2 9857   5.273   6.645   4.838
 3305TIP3    H1 9858   5.250   6.694   4.916
 3305TIP3    H2 9859   5.242   6.556   4.855
 3306TIP3   OH2 9860   4.284   0.276   0.606
 3306TIP3    H1 9861   4.377   0.257   0.617
 3306TIP3    H2 9862   4.240   0.213   0.663
 3307TIP3   OH2 9863   2.610   4.003   4.335
 3307TIP3    H1 9864   2.693   4.011   4.289
 3307TIP3    H2 9865   2.551   3.962   4.271
 3308TIP3   OH2 9866   7.996   1.679   1.103
 3308TIP3    H1 9867   8.012   1.768   1.070
 3308TIP3    H2 9868   8.044   1.675   1.185
 3309TIP3   OH2 9869   3.506   0.588   3.630
 3309TIP3    H1 9870   3.590   0.592   3.584
 3309TIP3    H2 9871   3.491   0.494   3.643
 3310TIP3   OH2 9872   0.735   5.578   4.301
 3310TIP3    H1 9873   0.816   5.623   4.278
 3310TIP3    H2 9874   0.743   5.492   4.259
 3311TIP3   OH2 9875   5.765   4.144   1.837
 3311TIP3    H1 9876   5.856   4.132   1.866
 3311TIP3    H2 9877   5.714   4.086   1.893
 3312TIP3   OH2 9878   3.643   2.414   1.498
 3312TIP3    H1 9879   3.671   2.453   1.416
 3312TIP3    H2 9880   3.625   2.488   1.556
 3313TIP3   OH2 9881   2.003   5.885   1.028
 3313TIP3    H1 9882   2.084   5.909   1.072
 3313TIP3    H2 9883   2.002   5.789   1.031
 3314TIP3   OH2 9884   2.447   5.466   5.276
 3314TIP3    H1 9885   2.444   5.374   5.300
 3314TIP3    H2 9886   2.536   5.494   5.295
 3315TIP3   OH2 9887   0.286   1.649   4.901
 3315TIP3    H1 9888   0.198   1.685   4.894
 3315TIP3    H2 9889   0.303   1.610   4.815
 3316TIP3   OH2 9890   5.486   3.842   4.164
 3316TIP3    H1 9891   5.421   3.865   4.098
 3316TIP3    H2 9892   5.570   3.866   4.125
 3317TIP3   OH2 9893   3.914   2.887   3.162
 3317TIP3    H1 9894   3.906   2.871   3.256
 3317TIP3    H2 9895   3.823   2.888   3.130
 3318TIP3   OH2 9896   7.994   4.328   4.575
 3318TIP3    H1 9897   8.026   4.262   4.515
 3318TIP3    H2 9898   8.033   4.306   4.660
 3319TIP3   OH2 9899   7.078   6.946   6.137
 3319TIP3    H1 9900   7.099   6.902   6.219
 3319TIP3    H2 9901   7.144   6.914   6.075
 3320TIP3   OH2 9902   6.732   2.521   4.121
 3320TIP3    H1 9903   6.685   2.604   4.120
 3320TIP3    H2 9904   6.752   2.507   4.214
 3321TIP3   OH2 9905   4.093   4.183   3.985
 3321TIP3    H1 9906   4.031   4.238   4.033
 3321TIP3    H2 9907   4.044   4.151   3.910
 3322TIP3   OH2 9908   7.216   2.848   4.235
 3322TIP3    H1 9909   7.140   2.901   4.208
 3322TIP3    H2 9910   7.178   2.777   4.286
 3323TIP3   OH2 9911   0.872   4.018   3.055
 3323TIP3    H1 9912   0.939   4.011   3.124
 3323TIP3    H2 9913   0.810   3.948   3.074
 3324TIP3   OH2 9914   7.469   3.210   0.526
 3324TIP3    H1 9915   7.415   3.205   0.447
 3324TIP3    H2 9916   7.487   3.119   0.549
 3325TIP3   OH2 9917   2.192   5.328   0.549
 3325TIP3    H1 9918   2.275   5.355   0.510
 3325TIP3    H2 9919   2.194   5.365   0.637
 3326TIP3   OH2 9920   2.305   5.443   4.006
 3326TIP3    H1 9921   2.236   5.398   3.957
 3326TIP3    H2 9922   2.269   5.452   4.094
 3327TIP3   OH2 9923   0.973   5.084   2.807
 3327TIP3    H1 9924   0.985   5.171   2.846
 3327TIP3    H2 9925   1.014   5.024   2.869
 3328TIP3   OH2 9926   5.205   5.174   2.531
 3328TIP3    H1 9927   5.129   5.119   2.513
 3328TIP3    H2 9928   5.174   5.239   2.594
 3329TIP3   OH2 9929   0.239   0.127   2.530
 3329TIP3    H1 9930   0.172   0.176   2.484
 3329TIP3    H2 9931   0.211   0.126   2.621
 3330TIP3   OH2 9932   3.459   1.237   2.558
 3330TIP3    H1 9933   3.538   1.292   2.562
 3330TIP3    H2 9934   3.456   1.207   2.468
 3331TIP3   OH2 9935   0.829   4.866   3.683
 3331TIP3    H1 9936   0.924   4.866   3.691
 3331TIP3    H2 9937   0.811   4.934   3.618
 3332TIP3   OH2 9938   3.583   2.997   5.600
 3332TIP3    H1 9939   3.654   2.942   5.566
 3332TIP3    H2 9940   3.562   3.055   5.527
 3333TIP3   OH2 9941   2.552   0.403   5.585
 3333TIP3    H1 9942   2.519   0.357   5.663
 3333TIP3    H2 9943   2.475   0.414   5.529
 3334TIP3   OH2 9944   2.234   1.233   0.321
 3334TIP3    H1 9945   2.219   1.253   0.413
 3334TIP3    H2 9946   2.293   1.302   0.290
 3335TIP3   OH2 9947   5.997   1.848   5.110
 3335TIP3    H1 9948   6.092   1.843   5.119
 3335TIP3    H2 9949   5.983   1.910   5.038
 3336TIP3   OH2 9950   6.273   1.177   1.397
 3336TIP3    H1 9951   6.264   1.108   1.463
 3336TIP3    H2 9952   6.209   1.154   1.330
 3337TIP3   OH2 9953   6.020   0.317   5.059
 3337TIP3    H1 9954   6.072   0.394   5.081
 3337TIP3    H2 9955   5.934   0.334   5.099
 3338TIP3   OH2 9956   6.898   7.377   1.984
 3338TIP3    H1 9957   6.936   7.291   1.965
 3338TIP3    H2 9958   6.909   7.388   2.078
 3339TIP3   OH2 9959   2.942   1.348   4.339
 3339TIP3    H1 9960   2.941   1.443   4.341
 3339TIP3    H2 9961   3.018   1.324   4.287
 3340TIP3   OH2 9962   3.129   3.155   0.905
 3340TIP3    H1 9963   3.159   3.093   0.972
 3340TIP3    H2 9964   3.038   3.173   0.928
 3341TIP3   OH2 9965   6.504   3.682   3.020
 3341TIP3    H1 9966   6.539   3.621   3.085
 3341TIP3    H2 9967   6.409   3.672   3.026
 3342TIP3   OH2 9968   3.261   6.535   6.369
 3342TIP3    H1 9969   3.353   6.511   6.382
 3342TIP3    H2 9970   3.245   6.605   6.432
 3343TIP3   OH2 9971   5.936   1.458   6.623
 3343TIP3    H1 9972   5.978   1.499   6.699
 3343TIP3    H2 9973   5.843   1.474   6.635
 3344TIP3   OH2 9974   3.964   1.715   1.542
 3344TIP3    H1 9975   4.052   1.677   1.539
 3344TIP3    H2 9976   3.920   1.681   1.465
 3345TIP3   OH2 9977   5.117   2.807   3.459
 3345TIP3    H1 9978   5.177   2.760   3.517
 3345TIP3    H2 9979   5.070   2.738   3.412
 3346TIP3   OH2 9980   7.804   4.207   3.567
 3346TIP3    H1 9981   7.890   4.239   3.542
 3346TIP3    H2 9982   7.809   4.112   3.557
 3347TIP3   OH2 9983   8.140   4.025   2.312
 3347TIP3    H1 9984   8.088   4.099   2.344
 3347TIP3    H2 9985   8.075   3.962   2.281
 3348TIP3   OH2 9986   4.198   0.575   5.539
 3348TIP3    H1 9987   4.290   0.595   5.555
 3348TIP3    H2 9988   4.193   0.479   5.540
 3349TIP3   OH2 9989   4.125   2.655   3.051
 3349TIP3    H1 9990   4.033   2.646   3.026
 3349TIP3    H2 9991   4.128   2.623   3.141
 3350TIP3   OH2 9992   6.933   2.235   1.239
 3350TIP3    H1 9993   6.918   2.322   1.204
 3350TIP3    H2 9994   6.998   2.196   1.180
 3351TIP3   OH2 9995   5.552   0.208   3.489
 3351TIP3    H1 9996   5.644   0.226   3.510
 3351TIP3    H2 9997   5.555   0.132   3.431
 3352TIP3   OH2 9998   2.694   5.647   6.618
 3352TIP3    H1 9999   2.659   5.564   6.649
 3352TIP3    H210000   2.761   5.624   6.554
 3353TIP3   OH210001   3.027   4.537   2.790
 3353TIP3    H110002   3.078   4.602   2.741
 3353TIP3    H210003   3.085   4.462   2.798
 3354TIP3   OH210004   0.527   7.421   6.459
 3354TIP3    H110005   0.517   7.329   6.484
 3354TIP3    H210006   0.620   7.439   6.472
 3355TIP3   OH210007   5.815   5.092   3.476
 3355TIP3    H110008   5.787   5.108   3.386
 3355TIP3    H210009   5.783   5.167   3.525
 3356TIP3   OH210010   3.045   2.955   4.665
 3356TIP3    H110011   2.975   2.966   4.729
 3356TIP3    H210012   3.074   2.864   4.678
 3357TIP3   OH210013   6.772   6.909   6.375
 3357TIP3    H110014   6.811   6.977   6.430
 3357TIP3    H210015   6.748   6.839   6.436
 3358TIP3   OH210016   1.446   0.645   6.645
 3358TIP3    H110017   1.407   0.732   6.636
 3358TIP3    H210018   1.476   0.623   6.557
 3359TIP3   OH210019   0.783   5.499   4.607
 3359TIP3    H110020   0.798   5.588   4.575
 3359TIP3    H210021   0.717   5.509   4.676
 3360TIP3   OH210022   0.674   1.964   0.239
 3360TIP3    H110023   0.649   1.905   0.309
 3360TIP3    H210024   0.768   1.949   0.227
 3361TIP3   OH210025   3.966   6.996   2.825
 3361TIP3    H110026   4.003   6.967   2.741
 3361TIP3    H210027   3.872   7.003   2.808
 3362TIP3   OH210028   3.981   7.742   3.421
 3362TIP3    H110029   4.054   7.731   3.481
 3362TIP3    H210030   3.993   7.672   3.356
 3363TIP3   OH210031   3.767   6.081   5.972
 3363TIP3    H110032   3.714   6.137   6.028
 3363TIP3    H210033   3.738   6.102   5.883
 3364TIP3   OH210034   5.011   0.700   4.178
 3364TIP3    H110035   4.985   0.745   4.097
 3364TIP3    H210036   5.055   0.621   4.149
 3365TIP3   OH210037   8.001   1.233   3.602
 3365TIP3    H110038   7.916   1.273   3.620
 3365TIP3    H210039   8.023   1.184   3.681
 3366TIP3   OH210040   4.234   3.616   6.511
 3366TIP3    H110041   4.218   3.526   6.483
 3366TIP3    H210042   4.307   3.645   6.456
 3367TIP3   OH210043   6.122   5.797   0.201
 3367TIP3    H110044   6.130   5.707   0.234
 3367TIP3    H210045   6.093   5.848   0.276
 3368TIP3   OH210046   2.880   1.214   4.083
 3368TIP3    H110047   2.947   1.253   4.027
 3368TIP3    H210048   2.910   1.229   4.172
 3369TIP3   OH210049   6.112   2.720   5.915
 3369TIP3    H110050   6.148   2.653   5.973
 3369TIP3    H210051   6.154   2.703   5.830
 3370TIP3   OH210052   8.165   1.533   6.475
 3370TIP3    H110053   8.122   1.447   6.474
 3370TIP3    H210054   8.105   1.589   6.524
 3371TIP3   OH210055   3.473   0.209   5.991
 3371TIP3    H110056   3.458   0.115   6.007
 3371TIP3    H210057   3.499   0.243   6.076
 3372TIP3   OH210058   0.619   2.516   3.106
 3372TIP3    H110059   0.586   2.430   3.131
 3372TIP3    H210060   0.581   2.532   3.020
 3373TIP3   OH210061   5.844   4.000   4.411
 3373TIP3    H110062   5.868   4.092   4.402
 3373TIP3    H210063   5.748   3.999   4.409
 3374TIP3   OH210064   4.112   0.640   3.668
 3374TIP3    H110065   4.093   0.551   3.637
 3374TIP3    H210066   4.028   0.673   3.700
 3375TIP3   OH210067   7.827   6.558   1.868
 3375TIP3    H110068   7.817   6.581   1.776
 3375TIP3    H210069   7.903   6.609   1.897
 3376TIP3   OH210070   2.805   4.517   2.617
 3376TIP3    H110071   2.742   4.459   2.661
 3376TIP3    H210072   2.851   4.561   2.688
 3377TIP3   OH210073   5.581   7.681   2.232
 3377TIP3    H110074   5.605   7.700   2.323
 3377TIP3    H210075   5.576   7.586   2.228
 3378TIP3   OH210076   6.984   3.812   3.328
 3378TIP3    H110077   6.966   3.846   3.240
 3378TIP3    H210078   7.080   3.819   3.336
 3379TIP3   OH210079   4.741   2.899   5.988
 3379TIP3    H110080   4.810   2.950   5.946
 3379TIP3    H210081   4.784   2.856   6.062
 3380TIP3   OH210082   6.497   1.147   1.887
 3380TIP3    H110083   6.455   1.067   1.856
 3380TIP3    H210084   6.559   1.117   1.953
 3381TIP3   OH210085   6.352   0.893   6.725
 3381TIP3    H110086   6.302   0.973   6.741
 3381TIP3    H210087   6.438   0.910   6.763
 3382TIP3   OH210088   2.396   2.530   6.485
 3382TIP3    H110089   2.302   2.511   6.486
 3382TIP3    H210090   2.430   2.478   6.411
 3383TIP3   OH210091   1.488   5.917   6.455
 3383TIP3    H110092   1.526   5.831   6.438
 3383TIP3    H210093   1.556   5.979   6.427
 3384TIP3   OH210094   4.923   3.808   5.473
 3384TIP3    H110095   4.975   3.866   5.417
 3384TIP3    H210096   4.974   3.799   5.553
 3385TIP3   OH210097   3.948   6.722   3.386
 3385TIP3    H110098   3.880   6.741   3.322
 3385TIP3    H210099   3.907   6.739   3.470
 3386TIP3   OH210100   7.820   3.716   6.298
 3386TIP3    H110101   7.729   3.688   6.289
 3386TIP3    H210102   7.814   3.807   6.328
 3387TIP3   OH210103   7.084   3.034   3.453
 3387TIP3    H110104   7.114   2.944   3.440
 3387TIP3    H210105   7.164   3.086   3.457
 3388TIP3   OH210106   1.039   6.633   3.585
 3388TIP3    H110107   1.078   6.631   3.672
 3388TIP3    H210108   0.976   6.704   3.589
 3389TIP3   OH210109   6.137   7.218   3.180
 3389TIP3    H110110   6.175   7.304   3.162
 3389TIP3    H210111   6.115   7.220   3.273
 3390TIP3   OH210112   3.575   6.359   4.855
 3390TIP3    H110113   3.546   6.449   4.837
 3390TIP3    H210114   3.494   6.311   4.871
 3391TIP3   OH210115   3.653   0.521   4.237
 3391TIP3    H110116   3.733   0.559   4.273
 3391TIP3    H210117   3.665   0.524   4.142
 3392TIP3   OH210118   4.000   4.265   2.685
 3392TIP3    H110119   4.055   4.297   2.613
 3392TIP3    H210120   3.915   4.305   2.670
 3393TIP3   OH210121   6.630   7.339   1.853
 3393TIP3    H110122   6.580   7.397   1.910
 3393TIP3    H210123   6.720   7.348   1.883
 3394TIP3   OH210124   3.028   5.964   4.549
 3394TIP3    H110125   3.046   5.946   4.642
 3394TIP3    H210126   3.066   6.050   4.533
 3395TIP3   OH210127   1.906   0.504   3.031
 3395TIP3    H110128   1.893   0.412   3.012
 3395TIP3    H210129   1.826   0.530   3.078
 3396TIP3   OH210130   0.904   6.899   0.510
 3396TIP3    H110131   0.922   6.977   0.563
 3396TIP3    H210132   0.951   6.915   0.428
 3397TIP3   OH210133   3.779   1.203   1.273
 3397TIP3    H110134   3.782   1.299   1.270
 3397TIP3    H210135   3.758   1.183   1.364
 3398TIP3   OH210136   1.829   4.407   1.845
 3398TIP3    H110137   1.753   4.453   1.880
 3398TIP3    H210138   1.835   4.437   1.754
 3399TIP3   OH210139   6.486   4.138   1.441
 3399TIP3    H110140   6.532   4.136   1.357
 3399TIP3    H210141   6.503   4.226   1.475
 3400TIP3   OH210142   0.446   1.586   1.305
 3400TIP3    H110143   0.397   1.652   1.354
 3400TIP3    H210144   0.530   1.580   1.351
 3401TIP3   OH210145   6.791   0.300   5.779
 3401TIP3    H110146   6.786   0.379   5.725
 3401TIP3    H210147   6.804   0.229   5.716
 3402TIP3   OH210148   5.953   4.480   3.018
 3402TIP3    H110149   6.039   4.452   2.987
 3402TIP3    H210150   5.965   4.495   3.112
 3403TIP3   OH210151   1.165   6.715   0.528
 3403TIP3    H110152   1.088   6.680   0.573
 3403TIP3    H210153   1.146   6.704   0.435
 3404TIP3   OH210154   4.662   3.514   4.663
 3404TIP3    H110155   4.744   3.554   4.635
 3404TIP3    H210156   4.645   3.446   4.598
 3405TIP3   OH210157   3.085   4.007   1.912
 3405TIP3    H110158   3.060   3.916   1.895
 3405TIP3    H210159   3.021   4.038   1.975
 3406TIP3   OH210160   1.714   2.359   4.626
 3406TIP3    H110161   1.671   2.402   4.552
 3406TIP3    H210162   1.653   2.290   4.653
 3407TIP3   OH210163   4.280   1.412   1.772
 3407TIP3    H110164   4.238   1.391   1.855
 3407TIP3    H210165   4.371   1.432   1.795
 3408TIP3   OH210166   4.235   4.057   1.988
 3408TIP3    H110167   4.241   3.967   1.956
 3408TIP3    H210168   4.143   4.068   2.013
 3409TIP3   OH210169   6.245   1.882   3.467
 3409TIP3    H110170   6.257   1.812   3.532
 3409TIP3    H210171   6.274   1.843   3.384
 3410TIP3   OH210172   6.474   3.966   0.347
 3410TIP3    H110173   6.391   3.988   0.306
 3410TIP3    H210174   6.497   4.045   0.397
 3411TIP3   OH210175   2.662   1.540   1.340
 3411TIP3    H110176   2.702   1.455   1.324
 3411TIP3    H210177   2.641   1.539   1.434
 3412TIP3   OH210178   5.210   6.186   5.252
 3412TIP3    H110179   5.127   6.140   5.241
 3412TIP3    H210180   5.263   6.127   5.307
 3413TIP3   OH210181   6.788   2.451   3.069
 3413TIP3    H110182   6.805   2.540   3.100
 3413TIP3    H210183   6.711   2.460   3.013
 3414TIP3   OH210184   6.538   7.097   2.054
 3414TIP3    H110185   6.598   7.112   1.982
 3414TIP3    H210186   6.452   7.124   2.021
 3415TIP3   OH210187   1.786   7.379   5.728
 3415TIP3    H110188   1.725   7.340   5.665
 3415TIP3    H210189   1.868   7.389   5.679
 3416TIP3   OH210190   6.574   2.493   0.606
 3416TIP3    H110191   6.601   2.555   0.673
 3416TIP3    H210192   6.567   2.545   0.526
 3417TIP3   OH210193   6.800   3.314   2.556
 3417TIP3    H110194   6.894   3.297   2.564
 3417TIP3    H210195   6.762   3.227   2.542
 3418TIP3   OH210196   5.524   1.998   3.036
 3418TIP3    H110197   5.569   2.044   3.106
 3418TIP3    H210198   5.500   2.066   2.973
 3419TIP3   OH210199   1.230   3.034   3.674
 3419TIP3    H110200   1.150   2.984   3.664
 3419TIP3    H210201   1.298   2.979   3.636
 3420TIP3   OH210202   7.641   2.598   1.279
 3420TIP3    H110203   7.571   2.632   1.336
 3420TIP3    H210204   7.722   2.629   1.319
 3421TIP3   OH210205   5.156   5.925   5.059
 3421TIP3    H110206   5.071   5.950   5.094
 3421TIP3    H210207   5.136   5.888   4.973
 3422TIP3   OH210208   4.390   4.725   0.361
 3422TIP3    H110209   4.345   4.739   0.277
 3422TIP3    H210210   4.483   4.736   0.340
 3423TIP3   OH210211   5.399   2.376   1.192
 3423TIP3    H110212   5.421   2.322   1.116
 3423TIP3    H210213   5.428   2.464   1.169
 3424TIP3   OH210214   6.780   5.496   2.489
 3424TIP3    H110215   6.842   5.476   2.418
 3424TIP3    H210216   6.835   5.500   2.568
 3425TIP3   OH210217   6.458   2.285   4.436
 3425TIP3    H110218   6.397   2.283   4.362
 3425TIP3    H210219   6.433   2.210   4.490
 3426TIP3   OH210220   6.234   6.619   1.846
 3426TIP3    H110221   6.194   6.638   1.931
 3426TIP3    H210222   6.268   6.704   1.816
 3427TIP3   OH210223   2.245   7.280   6.080
 3427TIP3    H110224   2.262   7.187   6.096
 3427TIP3    H210225   2.157   7.282   6.042
 3428TIP3   OH210226   6.834   4.065   3.514
 3428TIP3    H110227   6.909   4.025   3.471
 3428TIP3    H210228   6.872   4.127   3.577
 3429TIP3   OH210229   5.075   7.368   0.687
 3429TIP3    H110230   5.158   7.346   0.644
 3429TIP3    H210231   5.084   7.460   0.710
 3430TIP3   OH210232   4.813   3.066   5.544
 3430TIP3    H110233   4.851   3.116   5.472
 3430TIP3    H210234   4.786   2.983   5.505
 3431TIP3   OH210235  -0.023   1.949   0.898
 3431TIP3    H110236   0.016   1.865   0.876
 3431TIP3    H210237  -0.010   1.958   0.993
 3432TIP3   OH210238   0.737   2.599   1.256
 3432TIP3    H110239   0.747   2.632   1.167
 3432TIP3    H210240   0.801   2.528   1.263
 3433TIP3   OH210241   1.892   1.703   3.806
 3433TIP3    H110242   1.873   1.778   3.750
 3433TIP3    H210243   1.829   1.710   3.878
 3434TIP3   OH210244   2.486   5.904   1.844
 3434TIP3    H110245   2.419   5.968   1.865
 3434TIP3    H210246   2.439   5.821   1.840
 3435TIP3   OH210247   2.638   7.620   6.714
 3435TIP3    H110248   2.643   7.526   6.701
 3435TIP3    H210249   2.682   7.657   6.637
 3436TIP3   OH210250   1.590   6.471   0.920
 3436TIP3    H110251   1.631   6.473   0.834
 3436TIP3    H210252   1.638   6.537   0.971
 3437TIP3   OH210253   6.813   3.475   3.688
 3437TIP3    H110254   6.740   3.431   3.644
 3437TIP3    H210255   6.818   3.561   3.646
 3438TIP3   OH210256   0.842   4.220   0.451
 3438TIP3    H110257   0.813   4.308   0.473
 3438TIP3    H210258   0.936   4.228   0.437
 3439TIP3   OH210259   0.853   2.271   5.246
 3439TIP3    H110260   0.865   2.352   5.197
 3439TIP3    H210261   0.934   2.261   5.296
 3440TIP3   OH210262   6.375   1.172   3.898
 3440TIP3    H110263   6.446   1.143   3.840
 3440TIP3    H210264   6.397   1.133   3.983
 3441TIP3   OH210265   2.986   3.269   5.116
 3441TIP3    H110266   2.925   3.314   5.057
 3441TIP3    H210267   2.939   3.190   5.143
 3442TIP3   OH210268   3.132   7.435   3.513
 3442TIP3    H110269   3.079   7.514   3.505
 3442TIP3    H210270   3.186   7.449   3.590
 3443TIP3   OH210271   3.047   5.203   5.843
 3443TIP3    H110272   3.069   5.282   5.892
 3443TIP3    H210273   2.953   5.194   5.855
 3444TIP3   OH210274   5.508   2.605   1.057
 3444TIP3    H110275   5.470   2.593   0.970
 3444TIP3    H210276   5.592   2.560   1.052
 3445TIP3   OH210277   1.440   5.373   0.198
 3445TIP3    H110278   1.477   5.371   0.109
 3445TIP3    H210279   1.516   5.361   0.255
 3446TIP3   OH210280   6.696   1.432   5.459
 3446TIP3    H110281   6.608   1.414   5.424
 3446TIP3    H210282   6.684   1.509   5.514
 3447TIP3   OH210283   4.006   7.177   2.538
 3447TIP3    H110284   4.068   7.218   2.598
 3447TIP3    H210285   3.925   7.226   2.549
 3448TIP3   OH210286   1.144   3.398   0.131
 3448TIP3    H110287   1.189   3.409   0.047
 3448TIP3    H210288   1.140   3.486   0.168
 3449TIP3   OH210289   5.427   2.190   2.860
 3449TIP3    H110290   5.364   2.219   2.794
 3449TIP3    H210291   5.442   2.268   2.914
 3450TIP3   OH210292   7.811   3.872   4.699
 3450TIP3    H110293   7.759   3.951   4.715
 3450TIP3    H210294   7.789   3.813   4.770
 3451TIP3   OH210295   7.128   4.365   4.973
 3451TIP3    H110296   7.059   4.376   5.039
 3451TIP3    H210297   7.135   4.451   4.932
 3452TIP3   OH210298   6.816   2.811   2.350
 3452TIP3    H110299   6.722   2.808   2.332
 3452TIP3    H210300   6.839   2.904   2.341
 3453TIP3   OH210301   4.014   0.272   4.863
 3453TIP3    H110302   4.086   0.279   4.925
 3453TIP3    H210303   4.034   0.336   4.795
 3454TIP3   OH210304   2.921   6.614   4.988
 3454TIP3    H110305   2.897   6.689   5.043
 3454TIP3    H210306   2.868   6.625   4.909
 3455TIP3   OH210307   3.206   3.982   6.185
 3455TIP3    H110308   3.199   3.891   6.215
 3455TIP3    H210309   3.262   3.977   6.107
 3456TIP3   OH210310   1.008   0.885   5.729
 3456TIP3    H110311   1.075   0.891   5.660
 3456TIP3    H210312   0.925   0.894   5.682
 3457TIP3   OH210313   2.147   1.025   2.096
 3457TIP3    H110314   2.125   0.938   2.130
 3457TIP3    H210315   2.207   1.061   2.161
 3458TIP3   OH210316   1.060   3.815   0.425
 3458TIP3    H110317   1.075   3.729   0.465
 3458TIP3    H210318   1.034   3.795   0.335
 3459TIP3   OH210319   3.226   2.541   2.866
 3459TIP3    H110320   3.271   2.624   2.882
 3459TIP3    H210321   3.162   2.533   2.937
 3460TIP3   OH210322   6.044   5.206   4.531
 3460TIP3    H110323   6.070   5.135   4.589
 3460TIP3    H210324   5.954   5.227   4.558
 3461TIP3   OH210325   3.164   3.054   6.653
 3461TIP3    H110326   3.213   3.040   6.572
 3461TIP3    H210327   3.172   2.972   6.701
 3462TIP3   OH210328   7.729   6.646   6.536
 3462TIP3    H110329   7.677   6.568   6.555
 3462TIP3    H210330   7.664   6.715   6.523
 3463TIP3   OH210331   3.423   3.837   5.254
 3463TIP3    H110332   3.496   3.787   5.290
 3463TIP3    H210333   3.414   3.913   5.312
 3464TIP3   OH210334   4.167   6.732   3.916
 3464TIP3    H110335   4.175   6.682   3.835
 3464TIP3    H210336   4.076   6.763   3.916
 3465TIP3   OH210337   3.903   0.209   0.218
 3465TIP3    H110338   3.909   0.145   0.147
 3465TIP3    H210339   3.954   0.170   0.289
 3466TIP3   OH210340   6.311   7.147   1.371
 3466TIP3    H110341   6.229   7.197   1.376
 3466TIP3    H210342   6.283   7.056   1.378
 3467TIP3   OH210343   1.138   3.248   4.115
 3467TIP3    H110344   1.146   3.235   4.020
 3467TIP3    H210345   1.206   3.193   4.153
 3468TIP3   OH210346   0.328   0.653   0.598
 3468TIP3    H110347   0.242   0.643   0.638
 3468TIP3    H210348   0.390   0.633   0.669
 3469TIP3   OH210349   5.737   2.120   1.030
 3469TIP3    H110350   5.760   2.041   1.080
 3469TIP3    H210351   5.792   2.115   0.952
 3470TIP3   OH210352   5.172   2.349   4.158
 3470TIP3    H110353   5.238   2.338   4.089
 3470TIP3    H210354   5.089   2.337   4.113
 3471TIP3   OH210355   0.628   5.399   5.742
 3471TIP3    H110356   0.540   5.363   5.743
 3471TIP3    H210357   0.661   5.387   5.831
 3472TIP3   OH210358   7.825   7.788   4.651
 3472TIP3    H110359   7.774   7.782   4.731
 3472TIP3    H210360   7.763   7.821   4.586
 3473TIP3   OH210361   0.462   5.634   5.369
 3473TIP3    H110362   0.481   5.664   5.457
 3473TIP3    H210363   0.502   5.547   5.364
 3474TIP3   OH210364   3.918   7.494   0.322
 3474TIP3    H110365   3.955   7.516   0.407
 3474TIP3    H210366   3.874   7.410   0.335
 3475TIP3   OH210367   1.244   0.361   0.862
 3475TIP3    H110368   1.226   0.334   0.952
 3475TIP3    H210369   1.248   0.278   0.813
 3476TIP3   OH210370   2.047   3.147   3.453
 3476TIP3    H110371   2.063   3.234   3.490
 3476TIP3    H210372   2.132   3.120   3.417
 3477TIP3   OH210373   7.144   1.005   3.264
 3477TIP3    H110374   7.093   0.986   3.343
 3477TIP3    H210375   7.147   0.922   3.218
 3478TIP3   OH210376   5.820   5.904   5.451
 3478TIP3    H110377   5.871   5.885   5.531
 3478TIP3    H210378   5.880   5.957   5.397
 3479TIP3   OH210379   5.596   4.596   1.819
 3479TIP3    H110380   5.509   4.634   1.802
 3479TIP3    H210381   5.622   4.559   1.735
 3480TIP3   OH210382   7.657   1.305   1.436
 3480TIP3    H110383   7.653   1.238   1.368
 3480TIP3    H210384   7.750   1.327   1.443
 3481TIP3   OH210385   7.420   1.685   2.263
 3481TIP3    H110386   7.450   1.775   2.277
 3481TIP3    H210387   7.488   1.630   2.303
 3482TIP3   OH210388   1.607   2.080   5.241
 3482TIP3    H110389   1.568   1.996   5.215
 3482TIP3    H210390   1.534   2.142   5.237
 3483TIP3   OH210391   3.977   1.724   5.212
 3483TIP3    H110392   3.946   1.686   5.130
 3483TIP3    H210393   3.985   1.649   5.271
 3484TIP3   OH210394   6.389   3.588   5.920
 3484TIP3    H110395   6.409   3.680   5.937
 3484TIP3    H210396   6.301   3.576   5.954
 3485TIP3   OH210397   7.277   3.602   0.895
 3485TIP3    H110398   7.355   3.651   0.921
 3485TIP3    H210399   7.311   3.524   0.850
 3486TIP3   OH210400   4.612   6.431   2.250
 3486TIP3    H110401   4.646   6.342   2.245
 3486TIP3    H210402   4.520   6.423   2.227
 3487TIP3   OH210403   4.327   0.433   3.451
 3487TIP3    H110404   4.346   0.525   3.468
 3487TIP3    H210405   4.411   0.389   3.464
 3488TIP3   OH210406   6.605   4.954   1.873
 3488TIP3    H110407   6.643   4.874   1.838
 3488TIP3    H210408   6.514   4.931   1.894
 3489TIP3   OH210409   3.438   2.414   5.523
 3489TIP3    H110410   3.522   2.437   5.561
 3489TIP3    H210411   3.375   2.467   5.572
 3490TIP3   OH210412   1.599   5.061   6.537
 3490TIP3    H110413   1.612   5.146   6.580
 3490TIP3    H210414   1.559   5.083   6.453
 3491TIP3   OH210415   4.138   2.048   2.850
 3491TIP3    H110416   4.091   2.012   2.926
 3491TIP3    H210417   4.125   1.984   2.781
 3492TIP3   OH210418   5.859   5.156   4.257
 3492TIP3    H110419   5.871   5.240   4.212
 3492TIP3    H210420   5.944   5.112   4.246
 3493TIP3   OH210421   4.408   5.138   0.243
 3493TIP3    H110422   4.453   5.221   0.262
 3493TIP3    H210423   4.406   5.093   0.327
 3494TIP3   OH210424   0.268   2.655   3.783
 3494TIP3    H110425   0.247   2.748   3.784
 3494TIP3    H210426   0.353   2.649   3.827
 3495TIP3   OH210427   2.587   3.896   2.291
 3495TIP3    H110428   2.517   3.957   2.316
 3495TIP3    H210429   2.549   3.844   2.220
 3496TIP3   OH210430   7.077   4.326   2.194
 3496TIP3    H110431   7.130   4.367   2.262
 3496TIP3    H210432   7.012   4.274   2.241
 3497TIP3   OH210433   6.657   4.597   1.163
 3497TIP3    H110434   6.658   4.524   1.101
 3497TIP3    H210435   6.673   4.556   1.248
 3498TIP3   OH210436   8.244   1.752   0.693
 3498TIP3    H110437   8.240   1.719   0.603
 3498TIP3    H210438   8.242   1.673   0.747
 3499TIP3   OH210439   3.197   5.649   1.027
 3499TIP3    H110440   3.272   5.709   1.016
 3499TIP3    H210441   3.129   5.704   1.065
 3500TIP3   OH210442   0.151   4.128   2.469
 3500TIP3    H110443   0.059   4.140   2.443
 3500TIP3    H210444   0.181   4.216   2.492
 3501TIP3   OH210445   4.898   2.817   6.568
 3501TIP3    H110446   4.804   2.811   6.548
 3501TIP3    H210447   4.901   2.842   6.660
 3502TIP3   OH210448   2.915   2.158   0.271
 3502TIP3    H110449   2.820   2.160   0.257
 3502TIP3    H210450   2.927   2.107   0.351
 3503TIP3   OH210451   4.048   3.420   3.181
 3503TIP3    H110452   4.055   3.351   3.114
 3503TIP3    H210453   4.137   3.429   3.215
 3504TIP3   OH210454   7.767   0.122   3.346
 3504TIP3    H110455   7.809   0.075   3.418
 3504TIP3    H210456   7.699   0.063   3.315
 3505TIP3   OH210457   0.209   2.064   4.592
 3505TIP3    H110458   0.155   2.086   4.668
 3505TIP3    H210459   0.196   1.970   4.579
 3506TIP3   OH210460   7.916   5.961   6.675
 3506TIP3    H110461   7.998   5.911   6.672
 3506TIP3    H210462   7.864   5.926   6.602
 3507TIP3   OH210463   5.920   2.063   4.984
 3507TIP3    H110464   5.961   2.104   4.907
 3507TIP3    H210465   5.904   2.136   5.044
 3508TIP3   OH210466   6.963   7.529   5.685
 3508TIP3    H110467   6.915   7.476   5.749
 3508TIP3    H210468   6.896   7.587   5.648
 3509TIP3   OH210469   3.294   1.502   0.010
 3509TIP3    H110470   3.390   1.496   0.008
 3509TIP3    H210471   3.266   1.426   0.060
 3510TIP3   OH210472   7.451   2.256   2.688
 3510TIP3    H110473   7.388   2.325   2.666
 3510TIP3    H210474   7.450   2.199   2.611
 3511TIP3   OH210475   8.297   4.765   4.345
 3511TIP3    H110476   8.227   4.718   4.390
 3511TIP3    H210477   8.252   4.820   4.280
 3512TIP3   OH210478   1.623   4.229   2.908
 3512TIP3    H110479   1.701   4.280   2.888
 3512TIP3    H210480   1.616   4.230   3.003
 3513TIP3   OH210481   2.821   5.533   0.031
 3513TIP3    H110482   2.860   5.575   0.107
 3513TIP3    H210483   2.869   5.567  -0.044
 3514TIP3   OH210484   6.362   3.464   4.318
 3514TIP3    H110485   6.288   3.487   4.262
 3514TIP3    H210486   6.436   3.512   4.282
 3515TIP3   OH210487   7.215   1.745   3.476
 3515TIP3    H110488   7.167   1.729   3.394
 3515TIP3    H210489   7.167   1.817   3.517
 3516TIP3   OH210490   1.070   0.006   5.097
 3516TIP3    H110491   1.007   0.020   5.168
 3516TIP3    H210492   1.146   0.058   5.122
 3517TIP3   OH210493   1.197   3.293   1.600
 3517TIP3    H110494   1.137   3.368   1.593
 3517TIP3    H210495   1.197   3.272   1.694
 3518TIP3   OH210496   4.569   5.382   2.184
 3518TIP3    H110497   4.627   5.406   2.111
 3518TIP3    H210498   4.598   5.294   2.210
 3519TIP3   OH210499   0.086   3.224   0.083
 3519TIP3    H110500   0.040   3.241   0.165
 3519TIP3    H210501   0.030   3.161   0.038
 3520TIP3   OH210502   6.284   6.970   0.526
 3520TIP3    H110503   6.261   7.006   0.612
 3520TIP3    H210504   6.205   6.925   0.497
 3521TIP3   OH210505   7.426   2.927   1.049
 3521TIP3    H110506   7.399   2.839   1.076
 3521TIP3    H210507   7.522   2.923   1.047
 3522TIP3   OH210508   4.667   3.704   5.780
 3522TIP3    H110509   4.598   3.648   5.816
 3522TIP3    H210510   4.732   3.710   5.850
 3523TIP3   OH210511   1.699   5.958   2.319
 3523TIP3    H110512   1.705   5.998   2.233
 3523TIP3    H210513   1.767   6.001   2.371
 3524TIP3   OH210514   0.223   7.265   6.709
 3524TIP3    H110515   0.184   7.182   6.683
 3524TIP3    H210516   0.312   7.243   6.737
 3525TIP3   OH210517   1.719   6.505   3.528
 3525TIP3    H110518   1.813   6.504   3.515
 3525TIP3    H210519   1.701   6.587   3.574
 3526TIP3   OH210520   2.596   2.391   1.840
 3526TIP3    H110521   2.603   2.297   1.860
 3526TIP3    H210522   2.601   2.434   1.925
 3527TIP3   OH210523   4.623   7.134   5.790
 3527TIP3    H110524   4.702   7.094   5.754
 3527TIP3    H210525   4.649   7.223   5.812
 3528TIP3   OH210526   7.315   4.676   3.258
 3528TIP3    H110527   7.261   4.754   3.245
 3528TIP3    H210528   7.263   4.620   3.315
 3529TIP3   OH210529   0.180   4.800   0.561
 3529TIP3    H110530   0.103   4.844   0.598
 3529TIP3    H210531   0.145   4.750   0.487
 3530TIP3   OH210532   2.704   2.001   3.001
 3530TIP3    H110533   2.770   2.070   2.999
 3530TIP3    H210534   2.745   1.929   3.050
 3531TIP3   OH210535   6.715   4.923   0.497
 3531TIP3    H110536   6.713   4.963   0.410
 3531TIP3    H210537   6.771   4.846   0.487
 3532TIP3   OH210538   3.025   0.010   5.558
 3532TIP3    H110539   3.101  -0.004   5.502
 3532TIP3    H210540   3.049  -0.026   5.642
 3533TIP3   OH210541   5.817   3.843   3.341
 3533TIP3    H110542   5.817   3.779   3.270
 3533TIP3    H210543   5.850   3.795   3.417
 3534TIP3   OH210544   4.200   4.866   1.267
 3534TIP3    H110545   4.115   4.833   1.298
 3534TIP3    H210546   4.241   4.903   1.345
 3535TIP3   OH210547   3.255   5.700   4.755
 3535TIP3    H110548   3.285   5.616   4.723
 3535TIP3    H210549   3.264   5.760   4.681
 3536TIP3   OH210550   5.374   2.574   6.710
 3536TIP3    H110551   5.427   2.503   6.676
 3536TIP3    H210552   5.286   2.558   6.675
 3537TIP3   OH210553   7.841   5.322   2.818
 3537TIP3    H110554   7.928   5.314   2.856
 3537TIP3    H210555   7.818   5.415   2.829
 3538TIP3   OH210556   3.237   2.660   2.317
 3538TIP3    H110557   3.267   2.743   2.280
 3538TIP3    H210558   3.276   2.658   2.404
 3539TIP3   OH210559   5.236   7.712   3.214
 3539TIP3    H110560   5.243   7.807   3.227
 3539TIP3    H210561   5.199   7.702   3.127
 3540TIP3   OH210562   3.713   1.036   3.832
 3540TIP3    H110563   3.630   1.042   3.878
 3540TIP3    H210564   3.749   1.125   3.833
 3541TIP3   OH210565   0.048   3.150   1.890
 3541TIP3    H110566   0.099   3.181   1.815
 3541TIP3    H210567   0.114   3.137   1.959
 3542TIP3   OH210568   2.328   6.257   6.221
 3542TIP3    H110569   2.327   6.315   6.298
 3542TIP3    H210570   2.377   6.306   6.155
 3543TIP3   OH210571   1.556   7.789   2.777
 3543TIP3    H110572   1.551   7.694   2.770
 3543TIP3    H210573   1.548   7.806   2.871
 3544TIP3   OH210574   5.524   4.310   3.458
 3544TIP3    H110575   5.574   4.339   3.534
 3544TIP3    H210576   5.530   4.382   3.396
 3545TIP3   OH210577   7.493   2.623   1.680
 3545TIP3    H110578   7.580   2.651   1.709
 3545TIP3    H210579   7.477   2.674   1.600
 3546TIP3   OH210580   1.613   7.685   6.597
 3546TIP3    H110581   1.523   7.660   6.575
 3546TIP3    H210582   1.608   7.780   6.608
 3547TIP3   OH210583   1.904   7.665   5.953
 3547TIP3    H110584   1.946   7.718   6.021
 3547TIP3    H210585   1.971   7.604   5.925
 3548TIP3   OH210586   5.856   0.135   5.917
 3548TIP3    H110587   5.802   0.139   5.838
 3548TIP3    H210588   5.821   0.205   5.973
 3549TIP3   OH210589   2.462   7.521   4.609
 3549TIP3    H110590   2.521   7.475   4.669
 3549TIP3    H210591   2.518   7.553   4.539
 3550TIP3   OH210592   3.686   6.130   3.763
 3550TIP3    H110593   3.730   6.083   3.834
 3550TIP3    H210594   3.651   6.062   3.706
 3551TIP3   OH210595   6.489   5.417   4.251
 3551TIP3    H110596   6.559   5.376   4.302
 3551TIP3    H210597   6.410   5.370   4.275
 3552TIP3   OH210598   0.358   5.596   4.082
 3552TIP3    H110599   0.298   5.627   4.015
 3552TIP3    H210600   0.381   5.674   4.132
 3553TIP3   OH210601   3.877   2.173   3.141
 3553TIP3    H110602   3.853   2.191   3.050
 3553TIP3    H210603   3.951   2.113   3.135
 3554TIP3   OH210604   4.473   4.870   6.145
 3554TIP3    H110605   4.518   4.799   6.100
 3554TIP3    H210606   4.461   4.838   6.235
 3555TIP3   OH210607   0.065   5.737   4.797
 3555TIP3    H110608   0.017   5.710   4.718
 3555TIP3    H210609   0.049   5.667   4.860
 3556TIP3   OH210610   5.240   1.506   6.488
 3556TIP3    H110611   5.174   1.441   6.511
 3556TIP3    H210612   5.190   1.585   6.467
 3557TIP3   OH210613   0.135   3.528   5.036
 3557TIP3    H110614   0.134   3.473   5.115
 3557TIP3    H210615   0.132   3.465   4.964
 3558TIP3   OH210616   7.999   0.855   5.251
 3558TIP3    H110617   8.073   0.803   5.218
 3558TIP3    H210618   8.027   0.884   5.338
 3559TIP3   OH210619   7.912   5.981   2.055
 3559TIP3    H110620   7.830   6.009   2.096
 3559TIP3    H210621   7.977   6.044   2.088
 3560TIP3   OH210622   4.610   4.651   4.833
 3560TIP3    H110623   4.681   4.687   4.779
 3560TIP3    H210624   4.601   4.560   4.804
 3561TIP3   OH210625   1.623   6.574   1.668
 3561TIP3    H110626   1.673   6.542   1.743
 3561TIP3    H210627   1.678   6.554   1.592
 3562TIP3   OH210628   3.257   5.877   2.777
 3562TIP3    H110629   3.197   5.895   2.705
 3562TIP3    H210630   3.339   5.853   2.735
 3563TIP3   OH210631   3.767   0.767   1.920
 3563TIP3    H110632   3.781   0.822   1.843
 3563TIP3    H210633   3.855   0.747   1.952
 3564TIP3   OH210634   1.270   0.361   2.386
 3564TIP3    H110635   1.317   0.442   2.363
 3564TIP3    H210636   1.270   0.360   2.481
 3565TIP3   OH210637   5.166   0.322   1.759
 3565TIP3    H110638   5.232   0.382   1.794
 3565TIP3    H210639   5.128   0.281   1.837
 3566TIP3   OH210640   5.170   0.778   5.104
 3566TIP3    H110641   5.128   0.820   5.179
 3566TIP3    H210642   5.249   0.830   5.088
 3567TIP3   OH210643   4.878   0.390   5.006
 3567TIP3    H110644   4.926   0.311   5.029
 3567TIP3    H210645   4.946   0.455   4.987
 3568TIP3   OH210646   3.352   2.797   1.259
 3568TIP3    H110647   3.434   2.840   1.236
 3568TIP3    H210648   3.303   2.864   1.307
 3569TIP3   OH210649   4.666   2.911   4.509
 3569TIP3    H110650   4.731   2.844   4.489
 3569TIP3    H210651   4.685   2.983   4.448
 3570TIP3   OH210652   7.290   6.958   3.007
 3570TIP3    H110653   7.310   7.047   2.979
 3570TIP3    H210654   7.205   6.964   3.051
 3571TIP3   OH210655   7.465   5.638   4.358
 3571TIP3    H110656   7.428   5.560   4.318
 3571TIP3    H210657   7.547   5.652   4.312
 3572TIP3   OH210658   2.948   6.506   3.612
 3572TIP3    H110659   3.001   6.515   3.533
 3572TIP3    H210660   2.877   6.570   3.601
 3573TIP3   OH210661   0.910   1.763   3.636
 3573TIP3    H110662   0.822   1.755   3.672
 3573TIP3    H210663   0.962   1.702   3.687
 3574TIP3   OH210664   1.695   0.749   6.241
 3574TIP3    H110665   1.667   0.699   6.165
 3574TIP3    H210666   1.746   0.687   6.294
 3575TIP3   OH210667   5.417   7.582   4.815
 3575TIP3    H110668   5.478   7.519   4.775
 3575TIP3    H210669   5.416   7.558   4.908
 3576TIP3   OH210670   4.811   6.181   6.130
 3576TIP3    H110671   4.835   6.257   6.077
 3576TIP3    H210672   4.726   6.203   6.168
 3577TIP3   OH210673   5.825   2.896   1.479
 3577TIP3    H110674   5.798   2.839   1.407
 3577TIP3    H210675   5.755   2.961   1.486
 3578TIP3   OH210676   7.780   6.234   2.917
 3578TIP3    H110677   7.703   6.190   2.881
 3578TIP3    H210678   7.810   6.175   2.986
 3579TIP3   OH210679   2.606   3.348   4.644
 3579TIP3    H110680   2.659   3.351   4.564
 3579TIP3    H210681   2.598   3.439   4.672
 3580TIP3   OH210682   7.894   2.486   2.989
 3580TIP3    H110683   7.894   2.485   2.894
 3580TIP3    H210684   7.802   2.477   3.014
 3581TIP3   OH210685   7.003   4.144   1.904
 3581TIP3    H110686   7.015   4.196   1.983
 3581TIP3    H210687   6.991   4.054   1.936
 3582TIP3   OH210688   7.099   2.175   5.120
 3582TIP3    H110689   7.117   2.129   5.202
 3582TIP3    H210690   7.004   2.188   5.119
 3583TIP3   OH210691   5.889   5.829   1.965
 3583TIP3    H110692   5.914   5.922   1.970
 3583TIP3    H210693   5.818   5.821   2.029
 3584TIP3   OH210694   6.393   1.282   6.476
 3584TIP3    H110695   6.437   1.261   6.559
 3584TIP3    H210696   6.463   1.313   6.419
 3585TIP3   OH210697   6.238   4.989   2.579
 3585TIP3    H110698   6.239   5.032   2.664
 3585TIP3    H210699   6.216   4.897   2.599
 3586TIP3   OH210700   1.688   2.159   0.206
 3586TIP3    H110701   1.625   2.159   0.134
 3586TIP3    H210702   1.700   2.067   0.229
 3587TIP3   OH210703   4.767   4.984   0.891
 3587TIP3    H110704   4.761   5.063   0.944
 3587TIP3    H210705   4.706   4.923   0.932
 3588TIP3   OH210706   4.216   4.107   1.032
 3588TIP3    H110707   4.219   4.200   1.055
 3588TIP3    H210708   4.127   4.095   0.997
 3589TIP3   OH210709   1.767   0.670   4.551
 3589TIP3    H110710   1.856   0.641   4.532
 3589TIP3    H210711   1.777   0.759   4.583
 3590TIP3   OH210712   2.027   7.638   4.069
 3590TIP3    H110713   2.024   7.596   4.154
 3590TIP3    H210714   1.938   7.631   4.035
 3591TIP3   OH210715   6.793   3.324   5.146
 3591TIP3    H110716   6.788   3.406   5.096
 3591TIP3    H210717   6.742   3.261   5.095
 3592TIP3   OH210718   2.805   0.591   5.822
 3592TIP3    H110719   2.899   0.605   5.827
 3592TIP3    H210720   2.796   0.502   5.786
 3593TIP3   OH210721   3.890   5.802   4.797
 3593TIP3    H110722   3.832   5.784   4.871
 3593TIP3    H210723   3.859   5.885   4.761
 3594TIP3   OH210724   7.394   4.278   1.910
 3594TIP3    H110725   7.320   4.339   1.911
 3594TIP3    H210726   7.428   4.281   1.821
 3595TIP3   OH210727   3.349   7.556   3.312
 3595TIP3    H110728   3.386   7.519   3.391
 3595TIP3    H210729   3.266   7.595   3.340
 3596TIP3   OH210730   6.133   0.728   1.848
 3596TIP3    H110731   6.117   0.705   1.940
 3596TIP3    H210732   6.052   0.770   1.819
 3597TIP3   OH210733   7.890   2.799   0.852
 3597TIP3    H110734   7.846   2.714   0.845
 3597TIP3    H210735   7.819   2.863   0.858
 3598TIP3   OH210736   8.214   4.698   1.305
 3598TIP3    H110737   8.241   4.610   1.332
 3598TIP3    H210738   8.141   4.682   1.244
 3599TIP3   OH210739   1.518   6.780   2.081
 3599TIP3    H110740   1.454   6.784   2.153
 3599TIP3    H210741   1.516   6.867   2.042
 3600TIP3   OH210742   5.341   7.281   0.580
 3600TIP3    H110743   5.350   7.228   0.501
 3600TIP3    H210744   5.356   7.220   0.652
 3601TIP3   OH210745   2.587   1.988   5.399
 3601TIP3    H110746   2.614   1.955   5.485
 3601TIP3    H210747   2.508   1.938   5.377
 3602TIP3   OH210748   5.445   0.132   4.251
 3602TIP3    H110749   5.487   0.146   4.336
 3602TIP3    H210750   5.416   0.041   4.254
 3603TIP3   OH210751   5.352   4.648   3.094
 3603TIP3    H110752   5.266   4.639   3.052
 3603TIP3    H210753   5.345   4.729   3.145
 3604TIP3   OH210754   3.629   2.302   0.903
 3604TIP3    H110755   3.701   2.357   0.872
 3604TIP3    H210756   3.616   2.329   0.994
 3605TIP3   OH210757   4.236   3.846   4.762
 3605TIP3    H110758   4.314   3.804   4.799
 3605TIP3    H210759   4.221   3.802   4.679
 3606TIP3   OH210760   3.625   2.445   0.033
 3606TIP3    H110761   3.652   2.484  -0.050
 3606TIP3    H210762   3.658   2.505   0.099
 3607TIP3   OH210763   4.869   4.504   2.078
 3607TIP3    H110764   4.938   4.447   2.112
 3607TIP3    H210765   4.788   4.454   2.092
 3608TIP3   OH210766   4.811   7.490   0.856
 3608TIP3    H110767   4.898   7.530   0.852
 3608TIP3    H210768   4.827   7.396   0.850
 3609TIP3   OH210769   7.304   2.429   6.652
 3609TIP3    H110770   7.325   2.336   6.659
 3609TIP3    H210771   7.233   2.442   6.715
 3610TIP3   OH210772   1.592   6.061   5.017
 3610TIP3    H110773   1.547   5.977   5.017
 3610TIP3    H210774   1.555   6.109   4.943
 3611TIP3   OH210775   3.653   6.078   5.194
 3611TIP3    H110776   3.694   6.113   5.115
 3611TIP3    H210777   3.655   6.151   5.256
 3612TIP3   OH210778   1.582   4.053   5.963
 3612TIP3    H110779   1.608   4.027   6.051
 3612TIP3    H210780   1.497   4.095   5.973
 3613TIP3   OH210781   3.748   4.824   0.557
 3613TIP3    H110782   3.661   4.798   0.525
 3613TIP3    H210783   3.743   4.919   0.563
 3614TIP3   OH210784   4.024   7.767   1.957
 3614TIP3    H110785   4.096   7.738   1.901
 3614TIP3    H210786   4.032   7.862   1.959
 3615TIP3   OH210787   1.202   6.211   1.923
 3615TIP3    H110788   1.255   6.131   1.923
 3615TIP3    H210789   1.184   6.227   2.016
 3616TIP3   OH210790   5.323   6.964   0.060
 3616TIP3    H110791   5.250   6.962   0.122
 3616TIP3    H210792   5.390   6.909   0.099
 3617TIP3   OH210793   4.663   0.670   1.231
 3617TIP3    H110794   4.633   0.757   1.206
 3617TIP3    H210795   4.591   0.612   1.207
 3618TIP3   OH210796   2.213   4.760   1.358
 3618TIP3    H110797   2.269   4.786   1.284
 3618TIP3    H210798   2.250   4.806   1.433
 3619TIP3   OH210799   7.565   6.339   5.828
 3619TIP3    H110800   7.551   6.430   5.802
 3619TIP3    H210801   7.606   6.298   5.752
 3620TIP3   OH210802   7.532   3.528   0.488
 3620TIP3    H110803   7.491   3.442   0.498
 3620TIP3    H210804   7.472   3.576   0.431
 3621TIP3   OH210805   5.198   0.916   0.793
 3621TIP3    H110806   5.117   0.941   0.747
 3621TIP3    H210807   5.183   0.943   0.884
 3622TIP3   OH210808   0.910   2.238   2.675
 3622TIP3    H110809   0.838   2.175   2.679
 3622TIP3    H210810   0.882   2.311   2.730
 3623TIP3   OH210811   6.807   0.064   5.633
 3623TIP3    H110812   6.752  -0.015   5.635
 3623TIP3    H210813   6.806   0.092   5.542
 3624TIP3   OH210814   0.194   5.308   4.531
 3624TIP3    H110815   0.144   5.390   4.531
 3624TIP3    H210816   0.254   5.317   4.457
 3625TIP3   OH210817   0.245   2.512   2.663
 3625TIP3    H110818   0.296   2.571   2.608
 3625TIP3    H210819   0.161   2.504   2.618
 3626TIP3   OH210820   7.351   2.178   3.450
 3626TIP3    H110821   7.331   2.203   3.359
 3626TIP3    H210822   7.266   2.174   3.493
 3627TIP3   OH210823   6.228   4.429   1.720
 3627TIP3    H110824   6.293   4.442   1.790
 3627TIP3    H210825   6.145   4.421   1.766
 3628TIP3   OH210826   1.077   0.703   3.583
 3628TIP3    H110827   1.135   0.772   3.552
 3628TIP3    H210828   1.090   0.631   3.521
 3629TIP3   OH210829   2.223   1.024   0.718
 3629TIP3    H110830   2.156   0.964   0.751
 3629TIP3    H210831   2.303   0.998   0.763
 3630TIP3   OH210832   1.716   3.317   2.470
 3630TIP3    H110833   1.797   3.270   2.492
 3630TIP3    H210834   1.651   3.281   2.531
 3631TIP3   OH210835   6.273   2.768   3.220
 3631TIP3    H110836   6.352   2.740   3.266
 3631TIP3    H210837   6.250   2.852   3.261
 3632TIP3   OH210838   6.628   0.886   5.298
 3632TIP3    H110839   6.555   0.937   5.261
 3632TIP3    H210840   6.588   0.803   5.324
 3633TIP3   OH210841   5.991   6.550   4.665
 3633TIP3    H110842   6.031   6.615   4.606
 3633TIP3    H210843   5.977   6.473   4.610
 3634TIP3   OH210844   6.949   2.442   0.890
 3634TIP3    H110845   7.039   2.475   0.886
 3634TIP3    H210846   6.951   2.362   0.837
 3635TIP3   OH210847   7.028   0.585   1.336
 3635TIP3    H110848   7.121   0.563   1.342
 3635TIP3    H210849   7.024   0.680   1.350
 3636TIP3   OH210850   2.308   3.717   1.813
 3636TIP3    H110851   2.220   3.754   1.798
 3636TIP3    H210852   2.292   3.635   1.859
 3637TIP3   OH210853   4.593   5.945   3.500
 3637TIP3    H110854   4.509   5.919   3.462
 3637TIP3    H210855   4.579   6.035   3.529
 3638TIP3   OH210856   7.002   6.356   0.297
 3638TIP3    H110857   7.075   6.417   0.309
 3638TIP3    H210858   7.020   6.313   0.214
 3639TIP3   OH210859   4.920   1.706   0.453
 3639TIP3    H110860   4.935   1.788   0.406
 3639TIP3    H210861   4.830   1.713   0.486
 3640TIP3   OH210862   6.185   0.998   1.588
 3640TIP3    H110863   6.134   0.940   1.532
 3640TIP3    H210864   6.120   1.051   1.634
 3641TIP3   OH210865   4.254   6.191   6.213
 3641TIP3    H110866   4.173   6.220   6.171
 3641TIP3    H210867   4.265   6.250   6.287
 3642TIP3   OH210868   3.769   4.032   2.874
 3642TIP3    H110869   3.745   3.991   2.791
 3642TIP3    H210870   3.788   3.959   2.932
 3643TIP3   OH210871   4.871   1.904   6.146
 3643TIP3    H110872   4.924   1.979   6.176
 3643TIP3    H210873   4.906   1.881   6.061
 3644TIP3   OH210874   1.194   7.400   4.378
 3644TIP3    H110875   1.145   7.472   4.418
 3644TIP3    H210876   1.151   7.321   4.410
 3645TIP3   OH210877   7.996   1.897   5.216
 3645TIP3    H110878   8.088   1.898   5.191
 3645TIP3    H210879   7.981   1.808   5.248
 3646TIP3   OH210880   4.716   2.437   6.366
 3646TIP3    H110881   4.715   2.372   6.437
 3646TIP3    H210882   4.628   2.433   6.329
 3647TIP3   OH210883   5.563   5.478   2.591
 3647TIP3    H110884   5.571   5.462   2.685
 3647TIP3    H210885   5.545   5.572   2.584
 3648TIP3   OH210886   2.373   5.311   5.571
 3648TIP3    H110887   2.428   5.241   5.607
 3648TIP3    H210888   2.325   5.269   5.500
 3649TIP3   OH210889   0.701   4.796   3.910
 3649TIP3    H110890   0.790   4.809   3.942
 3649TIP3    H210891   0.706   4.814   3.816
 3650TIP3   OH210892   5.908   1.298   6.244
 3650TIP3    H110893   5.952   1.323   6.163
 3650TIP3    H210894   5.969   1.324   6.314
 3651TIP3   OH210895   1.674   7.510   3.572
 3651TIP3    H110896   1.737   7.439   3.559
 3651TIP3    H210897   1.591   7.475   3.538
 3652TIP3   OH210898   1.512   3.717   3.549
 3652TIP3    H110899   1.566   3.747   3.476
 3652TIP3    H210900   1.455   3.650   3.511
 3653TIP3   OH210901   7.791   2.501   1.561
 3653TIP3    H110902   7.870   2.450   1.540
 3653TIP3    H210903   7.793   2.573   1.498
 3654TIP3   OH210904   2.019   6.977   3.398
 3654TIP3    H110905   2.076   7.051   3.373
 3654TIP3    H210906   2.078   6.916   3.443
 3655TIP3   OH210907   8.010   7.218   4.660
 3655TIP3    H110908   8.033   7.306   4.688
 3655TIP3    H210909   8.079   7.194   4.597
 3656TIP3   OH210910   1.114   4.163   1.021
 3656TIP3    H110911   1.055   4.089   1.037
 3656TIP3    H210912   1.066   4.220   0.961
 3657TIP3   OH210913   1.659   3.712   0.240
 3657TIP3    H110914   1.599   3.641   0.264
 3657TIP3    H210915   1.615   3.758   0.168
 3658TIP3   OH210916   7.206   5.576   2.509
 3658TIP3    H110917   7.122   5.617   2.489
 3658TIP3    H210918   7.223   5.599   2.601
 3659TIP3   OH210919   1.190   0.372   2.655
 3659TIP3    H110920   1.177   0.290   2.702
 3659TIP3    H210921   1.110   0.422   2.671
 3660TIP3   OH210922   4.233   2.174   1.199
 3660TIP3    H110923   4.257   2.155   1.290
 3660TIP3    H210924   4.179   2.253   1.205
 3661TIP3   OH210925   6.486   6.964   6.496
 3661TIP3    H110926   6.554   6.976   6.430
 3661TIP3    H210927   6.533   6.935   6.574
 3662TIP3   OH210928   5.294   3.714   0.835
 3662TIP3    H110929   5.361   3.649   0.858
 3662TIP3    H210930   5.211   3.666   0.840
 3663TIP3   OH210931   4.373   2.404   5.176
 3663TIP3    H110932   4.408   2.316   5.160
 3663TIP3    H210933   4.333   2.398   5.263
 3664TIP3   OH210934   3.548   5.948   3.610
 3664TIP3    H110935   3.479   5.882   3.618
 3664TIP3    H210936   3.598   5.921   3.533
 3665TIP3   OH210937   6.430   1.870   3.942
 3665TIP3    H110938   6.519   1.888   3.974
 3665TIP3    H210939   6.439   1.872   3.847
 3666TIP3   OH210940   0.992   6.474   1.295
 3666TIP3    H110941   0.979   6.379   1.299
 3666TIP3    H210942   0.943   6.508   1.370
 3667TIP3   OH210943   4.527   7.281   1.630
 3667TIP3    H110944   4.538   7.210   1.693
 3667TIP3    H210945   4.568   7.248   1.550
 3668TIP3   OH210946   3.838   3.143   0.855
 3668TIP3    H110947   3.821   3.162   0.763
 3668TIP3    H210948   3.920   3.190   0.875
 3669TIP3   OH210949   5.319   2.501   4.434
 3669TIP3    H110950   5.346   2.410   4.426
 3669TIP3    H210951   5.370   2.547   4.367
 3670TIP3   OH210952   6.223   4.776   1.048
 3670TIP3    H110953   6.169   4.855   1.059
 3670TIP3    H210954   6.159   4.706   1.036
 3671TIP3   OH210955   7.194   4.320   1.415
 3671TIP3    H110956   7.196   4.416   1.422
 3671TIP3    H210957   7.193   4.303   1.321
 3672TIP3   OH210958   4.315   1.443   5.467
 3672TIP3    H110959   4.343   1.423   5.557
 3672TIP3    H210960   4.392   1.423   5.413
 3673TIP3   OH210961   4.581   1.235   4.606
 3673TIP3    H110962   4.626   1.150   4.602
 3673TIP3    H210963   4.599   1.268   4.694
 3674TIP3   OH210964   2.494   2.073   1.917
 3674TIP3    H110965   2.581   2.101   1.943
 3674TIP3    H210966   2.454   2.042   1.999
 3675TIP3   OH210967   3.865   4.334   4.467
 3675TIP3    H110968   3.899   4.318   4.555
 3675TIP3    H210969   3.812   4.257   4.447
 3676TIP3   OH210970   6.315   3.082   0.135
 3676TIP3    H110971   6.326   3.129   0.218
 3676TIP3    H210972   6.378   3.123   0.076
 3677TIP3   OH210973   7.612   6.172   4.676
 3677TIP3    H110974   7.517   6.169   4.685
 3677TIP3    H210975   7.635   6.263   4.692
 3678TIP3   OH210976   0.772   3.143   4.106
 3678TIP3    H110977   0.737   3.113   4.022
 3678TIP3    H210978   0.804   3.232   4.088
 3679TIP3   OH210979   7.654   0.359   2.868
 3679TIP3    H110980   7.603   0.320   2.939
 3679TIP3    H210981   7.639   0.300   2.794
 3680TIP3   OH210982   3.519   2.482   5.003
 3680TIP3    H110983   3.508   2.575   4.985
 3680TIP3    H210984   3.481   2.437   4.928
 3681TIP3   OH210985   1.038   1.649   2.284
 3681TIP3    H110986   1.063   1.739   2.264
 3681TIP3    H210987   0.944   1.653   2.300
 3682TIP3   OH210988   0.497   2.347   2.634
 3682TIP3    H110989   0.574   2.309   2.676
 3682TIP3    H210990   0.423   2.302   2.674
 3683TIP3   OH210991   5.541   1.127   5.522
 3683TIP3    H110992   5.453   1.158   5.545
 3683TIP3    H210993   5.527   1.062   5.453
 3684TIP3   OH210994   0.534   7.263   1.360
 3684TIP3    H110995   0.575   7.349   1.373
 3684TIP3    H210996   0.441   7.282   1.355
 3685TIP3   OH210997   1.576   0.226   0.688
 3685TIP3    H110998   1.591   0.310   0.731
 3685TIP3    H210999   1.589   0.162   0.758
 3686TIP3   OH211000   3.871   1.359   5.542
 3686TIP3    H111001   3.781   1.388   5.529
 3686TIP3    H211002   3.864   1.264   5.549
 3687TIP3   OH211003   2.602   2.534   5.442
 3687TIP3    H111004   2.593   2.449   5.398
 3687TIP3    H211005   2.514   2.572   5.437
 3688TIP3   OH211006   3.046   6.436   1.435
 3688TIP3    H111007   3.038   6.341   1.427
 3688TIP3    H211008   3.140   6.452   1.440
 3689TIP3   OH211009   4.547   5.547   2.435
 3689TIP3    H111010   4.517   5.502   2.356
 3689TIP3    H211011   4.479   5.530   2.500
 3690TIP3   OH211012   1.182   2.403   6.663
 3690TIP3    H111013   1.112   2.392   6.598
 3690TIP3    H211014   1.227   2.483   6.637
 3691TIP3   OH211015   1.228   1.731   4.563
 3691TIP3    H111016   1.186   1.662   4.512
 3691TIP3    H211017   1.160   1.797   4.575
 3692TIP3   OH211018   2.975   3.440   3.690
 3692TIP3    H111019   3.034   3.428   3.764
 3692TIP3    H211020   2.927   3.520   3.711
 3693TIP3   OH211021   7.975   3.562   2.291
 3693TIP3    H111022   8.023   3.638   2.257
 3693TIP3    H211023   7.920   3.533   2.218
 3694TIP3   OH211024   5.975   0.829   3.860
 3694TIP3    H111025   6.011   0.796   3.778
 3694TIP3    H211026   5.882   0.809   3.856
 3695TIP3   OH211027   7.461   7.180   3.702
 3695TIP3    H111028   7.471   7.274   3.686
 3695TIP3    H211029   7.379   7.173   3.752
 3696TIP3   OH211030   4.336   6.058   4.579
 3696TIP3    H111031   4.314   6.150   4.594
 3696TIP3    H211032   4.284   6.033   4.503
 3697TIP3   OH211033   4.664   4.980   3.242
 3697TIP3    H111034   4.606   4.904   3.251
 3697TIP3    H211035   4.731   4.951   3.180
 3698TIP3   OH211036   5.772   2.624   3.042
 3698TIP3    H111037   5.703   2.690   3.038
 3698TIP3    H211038   5.787   2.610   3.135
 3699TIP3   OH211039   3.751   4.768   1.057
 3699TIP3    H111040   3.731   4.698   1.119
 3699TIP3    H211041   3.705   4.744   0.977
 3700TIP3   OH211042   7.981   5.359   5.481
 3700TIP3    H111043   7.924   5.400   5.547
 3700TIP3    H211044   7.920   5.323   5.416
 3701TIP3   OH211045   8.204   4.848   5.844
 3701TIP3    H111046   8.174   4.938   5.847
 3701TIP3    H211047   8.124   4.795   5.847
 3702TIP3   OH211048   1.486   3.580   5.890
 3702TIP3    H111049   1.543   3.510   5.923
 3702TIP3    H211050   1.455   3.548   5.805
 3703TIP3   OH211051   7.031   0.562   5.134
 3703TIP3    H111052   7.000   0.649   5.109
 3703TIP3    H211053   6.956   0.504   5.118
 3704TIP3   OH211054   4.766   7.088   3.008
 3704TIP3    H111055   4.760   7.022   2.939
 3704TIP3    H211056   4.840   7.143   2.982
 3705TIP3   OH211057   6.285   3.972   1.480
 3705TIP3    H111058   6.261   4.011   1.564
 3705TIP3    H211059   6.336   4.040   1.436
 3706TIP3   OH211060   0.434   5.076   4.428
 3706TIP3    H111061   0.366   5.100   4.366
 3706TIP3    H211062   0.508   5.133   4.405
 3707TIP3   OH211063   5.973   3.899   5.397
 3707TIP3    H111064   5.979   3.984   5.442
 3707TIP3    H211065   5.879   3.888   5.381
 3708TIP3   OH211066   6.499   1.138   3.081
 3708TIP3    H111067   6.416   1.154   3.126
 3708TIP3    H211068   6.560   1.200   3.120
 3709TIP3   OH211069   5.792   6.922   3.854
 3709TIP3    H111070   5.851   6.870   3.800
 3709TIP3    H211071   5.705   6.906   3.818
 3710TIP3   OH211072   7.529   7.517   5.661
 3710TIP3    H111073   7.560   7.598   5.620
 3710TIP3    H211074   7.547   7.449   5.596
 3711TIP3   OH211075   6.573   1.083   4.554
 3711TIP3    H111076   6.598   1.136   4.630
 3711TIP3    H211077   6.574   0.993   4.586
 3712TIP3   OH211078   6.934   2.924   3.963
 3712TIP3    H111079   6.941   2.829   3.975
 3712TIP3    H211080   6.982   2.941   3.882
 3713TIP3   OH211081   7.542   0.381   4.369
 3713TIP3    H111082   7.550   0.289   4.394
 3713TIP3    H211083   7.632   0.411   4.357
 3714TIP3   OH211084   0.960   2.463   4.222
 3714TIP3    H111085   0.916   2.421   4.148
 3714TIP3    H211086   0.903   2.445   4.297
 3715TIP3   OH211087   4.206   3.854   1.170
 3715TIP3    H111088   4.301   3.849   1.177
 3715TIP3    H211089   4.186   3.947   1.181
 3716TIP3   OH211090   6.017   1.883   5.989
 3716TIP3    H111091   6.112   1.878   5.997
 3716TIP3    H211092   5.985   1.819   6.052
 3717TIP3   OH211093   8.088   3.267   0.982
 3717TIP3    H111094   8.100   3.184   0.935
 3717TIP3    H211095   8.129   3.332   0.925
 3718TIP3   OH211096   3.021   0.336   5.479
 3718TIP3    H111097   2.940   0.332   5.428
 3718TIP3    H211098   3.058   0.249   5.471
 3719TIP3   OH211099   0.034   5.258   0.379
 3719TIP3    H111100   0.022   5.346   0.342
 3719TIP3    H211101   0.108   5.222   0.330
 3720TIP3   OH211102   3.891   7.047   4.842
 3720TIP3    H111103   3.947   7.123   4.860
 3720TIP3    H211104   3.823   7.052   4.908
 3721TIP3   OH211105   8.172   3.934   1.239
 3721TIP3    H111106   8.243   3.996   1.251
 3721TIP3    H211107   8.136   3.955   1.153
 3722TIP3   OH211108   2.503   7.481   4.159
 3722TIP3    H111109   2.502   7.562   4.107
 3722TIP3    H211110   2.545   7.507   4.241
 3723TIP3   OH211111   2.444   0.737   1.303
 3723TIP3    H111112   2.372   0.754   1.243
 3723TIP3    H211113   2.413   0.666   1.359
 3724TIP3   OH211114   7.824   0.648   4.927
 3724TIP3    H111115   7.888   0.602   4.982
 3724TIP3    H211116   7.797   0.583   4.863
 3725TIP3   OH211117   3.297   6.175   0.822
 3725TIP3    H111118   3.366   6.175   0.889
 3725TIP3    H211119   3.342   6.199   0.741
 3726TIP3   OH211120   2.617   5.225   3.171
 3726TIP3    H111121   2.627   5.264   3.084
 3726TIP3    H211122   2.607   5.131   3.154
 3727TIP3   OH211123   4.868   0.117   5.711
 3727TIP3    H111124   4.925   0.190   5.735
 3727TIP3    H211125   4.928   0.043   5.703
 3728TIP3   OH211126   8.212   3.759   6.371
 3728TIP3    H111127   8.227   3.822   6.300
 3728TIP3    H211128   8.201   3.814   6.449
 3729TIP3   OH211129   4.323   6.603   5.476
 3729TIP3    H111130   4.415   6.584   5.495
 3729TIP3    H211131   4.275   6.529   5.515
 3730TIP3   OH211132   2.157   3.780   5.805
 3730TIP3    H111133   2.191   3.837   5.874
 3730TIP3    H211134   2.151   3.694   5.845
 3731TIP3   OH211135   1.064   2.561   3.970
 3731TIP3    H111136   1.007   2.524   4.038
 3731TIP3    H211137   1.080   2.488   3.910
 3732TIP3   OH211138   8.172   7.772   0.894
 3732TIP3    H111139   8.129   7.856   0.913
 3732TIP3    H211140   8.120   7.734   0.823
 3733TIP3   OH211141   5.860   6.036   3.666
 3733TIP3    H111142   5.883   5.962   3.723
 3733TIP3    H211143   5.779   6.008   3.624
 3734TIP3   OH211144   5.382   1.763   2.324
 3734TIP3    H111145   5.421   1.722   2.246
 3734TIP3    H211146   5.430   1.725   2.397
 3735TIP3   OH211147   2.016   0.554   4.552
 3735TIP3    H111148   2.087   0.491   4.538
 3735TIP3    H211149   2.057   0.640   4.540
 3736TIP3   OH211150   0.275   3.925   6.513
 3736TIP3    H111151   0.338   3.854   6.502
 3736TIP3    H211152   0.244   3.917   6.603
 3737TIP3   OH211153   7.753   1.392   0.515
 3737TIP3    H111154   7.814   1.321   0.494
 3737TIP3    H211155   7.678   1.348   0.556
 3738TIP3   OH211156   1.746   7.482   2.536
 3738TIP3    H111157   1.659   7.474   2.575
 3738TIP3    H211158   1.750   7.412   2.471
 3739TIP3   OH211159   6.033   0.995   2.325
 3739TIP3    H111160   6.077   1.062   2.377
 3739TIP3    H211161   6.101   0.930   2.307
 3740TIP3   OH211162   3.305   1.857   1.637
 3740TIP3    H111163   3.311   1.765   1.612
 3740TIP3    H211164   3.262   1.856   1.723
 3741TIP3   OH211165   1.182   4.271   4.243
 3741TIP3    H111166   1.118   4.336   4.272
 3741TIP3    H211167   1.252   4.276   4.308
 3742TIP3   OH211168   1.077   4.395   0.632
 3742TIP3    H111169   1.145   4.343   0.676
 3742TIP3    H211170   1.118   4.480   0.620
 3743TIP3   OH211171   3.424   5.382   4.793
 3743TIP3    H111172   3.361   5.373   4.864
 3743TIP3    H211173   3.394   5.458   4.742
 3744TIP3   OH211174   4.923   5.878   2.554
 3744TIP3    H111175   4.872   5.806   2.592
 3744TIP3    H211176   4.875   5.902   2.475
 3745TIP3   OH211177   1.800   1.060   1.247
 3745TIP3    H111178   1.842   0.997   1.188
 3745TIP3    H211179   1.728   1.097   1.194
 3746TIP3   OH211180   6.616   7.799   1.704
 3746TIP3    H111181   6.529   7.761   1.696
 3746TIP3    H211182   6.673   7.739   1.656
 3747TIP3   OH211183   6.445   7.197   4.888
 3747TIP3    H111184   6.406   7.232   4.807
 3747TIP3    H211185   6.512   7.261   4.912
 3748TIP3   OH211186   7.298   7.550   1.622
 3748TIP3    H111187   7.381   7.595   1.609
 3748TIP3    H211188   7.235   7.601   1.572
 3749TIP3   OH211189   6.490   0.508   3.844
 3749TIP3    H111190   6.397   0.502   3.827
 3749TIP3    H211191   6.496   0.563   3.922
 3750TIP3   OH211192   1.302   2.870   5.217
 3750TIP3    H111193   1.209   2.890   5.213
 3750TIP3    H211194   1.329   2.895   5.306
 3751TIP3   OH211195   4.914   4.437   1.087
 3751TIP3    H111196   4.971   4.409   1.159
 3751TIP3    H211197   4.887   4.355   1.046
 3752TIP3   OH211198   6.414   4.717   2.117
 3752TIP3    H111199   6.442   4.630   2.142
 3752TIP3    H211200   6.487   4.774   2.142
 3753TIP3   OH211201   1.946   5.088   5.756
 3753TIP3    H111202   1.945   5.150   5.829
 3753TIP3    H211203   1.858   5.051   5.753
 3754TIP3   OH211204   8.243   4.343   4.229
 3754TIP3    H111205   8.296   4.290   4.169
 3754TIP3    H211206   8.300   4.358   4.304
 3755TIP3   OH211207   0.633   3.955   2.603
 3755TIP3    H111208   0.537   3.955   2.604
 3755TIP3    H211209   0.658   4.042   2.633
 3756TIP3   OH211210   1.998   1.453   3.832
 3756TIP3    H111211   1.934   1.523   3.816
 3756TIP3    H211212   2.027   1.426   3.745
 3757TIP3   OH211213   3.731   3.355   1.737
 3757TIP3    H111214   3.716   3.449   1.727
 3757TIP3    H211215   3.823   3.344   1.714
 3758TIP3   OH211216   6.303   6.378   4.659
 3758TIP3    H111217   6.231   6.363   4.720
 3758TIP3    H211218   6.368   6.311   4.682
 3759TIP3   OH211219   6.128   6.877   2.570
 3759TIP3    H111220   6.212   6.829   2.575
 3759TIP3    H211221   6.096   6.857   2.482
 3760TIP3   OH211222   2.397   1.413   0.883
 3760TIP3    H111223   2.458   1.352   0.843
 3760TIP3    H211224   2.424   1.499   0.851
 3761TIP3   OH211225   3.433   4.021   1.453
 3761TIP3    H111226   3.406   3.991   1.366
 3761TIP3    H211227   3.410   3.948   1.511
 3762TIP3   OH211228   2.850   3.720   6.125
 3762TIP3    H111229   2.913   3.671   6.178
 3762TIP3    H211230   2.776   3.736   6.184
 3763TIP3   OH211231   2.928   6.747   5.897
 3763TIP3    H111232   2.850   6.789   5.861
 3763TIP3    H211233   2.894   6.671   5.945
 3764TIP3   OH211234   0.829   6.215   1.880
 3764TIP3    H111235   0.869   6.255   1.957
 3764TIP3    H211236   0.743   6.257   1.873
 3765TIP3   OH211237   6.298   4.777   3.868
 3765TIP3    H111238   6.224   4.717   3.862
 3765TIP3    H211239   6.332   4.782   3.778
 3766TIP3   OH211240   4.039   6.425   4.480
 3766TIP3    H111241   3.950   6.425   4.445
 3766TIP3    H211242   4.056   6.517   4.503
 3767TIP3   OH211243   5.964   6.170   0.490
 3767TIP3    H111244   5.929   6.082   0.507
 3767TIP3    H211245   5.891   6.229   0.509
 3768TIP3   OH211246   6.805   7.281   0.945
 3768TIP3    H111247   6.755   7.200   0.929
 3768TIP3    H211248   6.878   7.276   0.882
 3769TIP3   OH211249   4.511   4.072   5.122
 3769TIP3    H111250   4.478   4.153   5.083
 3769TIP3    H211251   4.448   4.005   5.096
 3770TIP3   OH211252   6.519   2.756   6.541
 3770TIP3    H111253   6.446   2.788   6.593
 3770TIP3    H211254   6.481   2.735   6.456
 3771TIP3   OH211255   3.468   2.429   2.400
 3771TIP3    H111256   3.506   2.433   2.488
 3771TIP3    H211257   3.462   2.520   2.373
 3772TIP3   OH211258   3.037   1.464   5.199
 3772TIP3    H111259   3.113   1.499   5.246
 3772TIP3    H211260   2.974   1.536   5.199
 3773TIP3   OH211261   7.926   6.800   3.931
 3773TIP3    H111262   7.963   6.828   3.848
 3773TIP3    H211263   7.942   6.706   3.934
 3774TIP3   OH211264   1.469   6.361   0.330
 3774TIP3    H111265   1.446   6.416   0.405
 3774TIP3    H211266   1.456   6.271   0.361
 3775TIP3   OH211267   5.622   6.240   5.271
 3775TIP3    H111268   5.708   6.282   5.268
 3775TIP3    H211269   5.585   6.255   5.184
 3776TIP3   OH211270   2.234   0.261   1.419
 3776TIP3    H111271   2.312   0.209   1.398
 3776TIP3    H211272   2.181   0.259   1.340
 3777TIP3   OH211273   2.821   7.475   4.187
 3777TIP3    H111274   2.782   7.554   4.225
 3777TIP3    H211275   2.780   7.466   4.101
 3778TIP3   OH211276   2.054   4.779   4.598
 3778TIP3    H111277   2.076   4.751   4.687
 3778TIP3    H211278   2.018   4.867   4.609
 3779TIP3   OH211279   7.760   1.266   3.998
 3779TIP3    H111280   7.770   1.287   3.905
 3779TIP3    H211281   7.761   1.170   4.000
 3780TIP3   OH211282   5.732   7.089   3.108
 3780TIP3    H111283   5.702   6.998   3.104
 3780TIP3    H211284   5.782   7.095   3.190
 3781TIP3   OH211285   7.663   3.112   4.304
 3781TIP3    H111286   7.605   3.079   4.235
 3781TIP3    H211287   7.733   3.157   4.257
 3782TIP3   OH211288   7.768   6.752   6.257
 3782TIP3    H111289   7.771   6.688   6.328
 3782TIP3    H211290   7.681   6.791   6.263
 3783TIP3   OH211291   3.994   3.622   2.408
 3783TIP3    H111292   4.082   3.607   2.374
 3783TIP3    H211293   3.974   3.543   2.458
 3784TIP3   OH211294   5.850   7.781   1.590
 3784TIP3    H111295   5.845   7.746   1.679
 3784TIP3    H211296   5.762   7.814   1.572
 3785TIP3   OH211297   5.745   1.536   5.003
 3785TIP3    H111298   5.820   1.579   4.962
 3785TIP3    H211299   5.776   1.448   5.025
 3786TIP3   OH211300   4.279   0.471   6.725
 3786TIP3    H111301   4.237   0.554   6.750
 3786TIP3    H211302   4.242   0.450   6.639
 3787TIP3   OH211303   2.736   5.671   3.693
 3787TIP3    H111304   2.656   5.619   3.698
 3787TIP3    H211305   2.805   5.608   3.676
 3788TIP3   OH211306   1.341   0.052   2.609
 3788TIP3    H111307   1.425   0.009   2.627
 3788TIP3    H211308   1.348   0.082   2.519
 3789TIP3   OH211309   1.186   2.006   4.294
 3789TIP3    H111310   1.119   2.012   4.362
 3789TIP3    H211311   1.242   2.082   4.308
 3790TIP3   OH211312   7.351   3.967   2.248
 3790TIP3    H111313   7.364   4.059   2.273
 3790TIP3    H211314   7.389   3.917   2.320
 3791TIP3   OH211315   1.473   6.985   0.509
 3791TIP3    H111316   1.527   7.050   0.464
 3791TIP3    H211317   1.536   6.922   0.545
 3792TIP3   OH211318   0.561   4.768   5.225
 3792TIP3    H111319   0.471   4.758   5.255
 3792TIP3    H211320   0.563   4.855   5.183
 3793TIP3   OH211321   4.179   3.017   5.229
 3793TIP3    H111322   4.143   3.081   5.168
 3793TIP3    H211323   4.160   2.932   5.188
 3794TIP3   OH211324   1.253   5.242   5.992
 3794TIP3    H111325   1.287   5.184   5.924
 3794TIP3    H211326   1.329   5.294   6.019
 3795TIP3   OH211327   0.587   7.300   4.534
 3795TIP3    H111328   0.626   7.272   4.617
 3795TIP3    H211329   0.660   7.296   4.472
 3796TIP3   OH211330   5.623   6.161   2.103
 3796TIP3    H111331   5.634   6.166   2.198
 3796TIP3    H211332   5.703   6.121   2.071
 3797TIP3   OH211333   6.551   1.589   6.576
 3797TIP3    H111334   6.564   1.666   6.521
 3797TIP3    H211335   6.638   1.566   6.607
 3798TIP3   OH211336   6.633   1.665   6.094
 3798TIP3    H111337   6.719   1.700   6.117
 3798TIP3    H211338   6.612   1.708   6.010
 3799TIP3   OH211339   7.568   4.412   0.664
 3799TIP3    H111340   7.555   4.404   0.758
 3799TIP3    H211341   7.613   4.495   0.652
 3800TIP3   OH211342   0.400   4.847   0.312
 3800TIP3    H111343   0.344   4.866   0.237
 3800TIP3    H211344   0.416   4.933   0.352
 3801TIP3   OH211345   4.440   2.425   3.879
 3801TIP3    H111346   4.376   2.461   3.818
 3801TIP3    H211347   4.424   2.330   3.877
 3802TIP3   OH211348   3.084   2.700   1.195
 3802TIP3    H111349   3.065   2.629   1.133
 3802TIP3    H211350   3.147   2.755   1.149
 3803TIP3   OH211351   0.761   7.161   0.152
 3803TIP3    H111352   0.741   7.121   0.068
 3803TIP3    H211353   0.803   7.244   0.129
 3804TIP3   OH211354   0.955   7.138   0.641
 3804TIP3    H111355   1.046   7.145   0.669
 3804TIP3    H211356   0.940   7.214   0.585
 3805TIP3   OH211357   6.226   7.521   2.332
 3805TIP3    H111358   6.213   7.432   2.365
 3805TIP3    H211359   6.142   7.545   2.292
 3806TIP3   OH211360   6.941   1.000   4.239
 3806TIP3    H111361   6.875   0.936   4.211
 3806TIP3    H211362   6.890   1.075   4.270
 3807TIP3   OH211363   2.534   4.252   3.717
 3807TIP3    H111364   2.596   4.179   3.719
 3807TIP3    H211365   2.568   4.310   3.649
 3808TIP3   OH211366   7.527   4.341  -0.039
 3808TIP3    H111367   7.558   4.251  -0.026
 3808TIP3    H211368   7.469   4.358   0.035
 3809TIP3   OH211369   0.791   1.502   4.438
 3809TIP3    H111370   0.709   1.529   4.397
 3809TIP3    H211371   0.823   1.580   4.482
 3810TIP3   OH211372   1.881   6.988   0.130
 3810TIP3    H111373   1.886   6.924   0.059
 3810TIP3    H211374   1.794   7.027   0.121
 3811TIP3   OH211375   5.182   3.963   2.863
 3811TIP3    H111376   5.200   4.042   2.913
 3811TIP3    H211377   5.257   3.906   2.881
 3812TIP3   OH211378   2.495   1.696   2.412
 3812TIP3    H111379   2.551   1.764   2.451
 3812TIP3    H211380   2.553   1.647   2.355
 3813TIP3   OH211381   1.034   0.833   6.490
 3813TIP3    H111382   0.955   0.865   6.446
 3813TIP3    H211383   1.090   0.911   6.498
 3814TIP3   OH211384   0.862   7.423   5.423
 3814TIP3    H111385   0.936   7.363   5.416
 3814TIP3    H211386   0.901   7.510   5.413
 3815TIP3   OH211387   1.612   7.250   2.671
 3815TIP3    H111388   1.580   7.182   2.730
 3815TIP3    H211389   1.705   7.230   2.660
 3816TIP3   OH211390   1.751   6.425   0.692
 3816TIP3    H111391   1.808   6.459   0.623
 3816TIP3    H211392   1.717   6.343   0.657
 3817TIP3   OH211393   4.750   4.370   0.275
 3817TIP3    H111394   4.666   4.353   0.232
 3817TIP3    H211395   4.729   4.369   0.369
 3818TIP3   OH211396   7.919   4.493   2.354
 3818TIP3    H111397   7.848   4.556   2.342
 3818TIP3    H211398   7.981   4.537   2.412
 3819TIP3   OH211399   2.262   6.874   3.516
 3819TIP3    H111400   2.301   6.789   3.493
 3819TIP3    H211401   2.336   6.927   3.545
 3820TIP3   OH211402   7.883   4.729   4.452
 3820TIP3    H111403   7.954   4.786   4.421
 3820TIP3    H211404   7.830   4.786   4.509
 3821TIP3   OH211405   6.892   2.081   3.677
 3821TIP3    H111406   6.829   2.152   3.672
 3821TIP3    H211407   6.871   2.035   3.758
 3822TIP3   OH211408   3.661   2.514   1.234
 3822TIP3    H111409   3.663   2.421   1.213
 3822TIP3    H211410   3.585   2.547   1.187
 3823TIP3   OH211411   3.580   3.242   4.562
 3823TIP3    H111412   3.551   3.178   4.497
 3823TIP3    H211413   3.621   3.312   4.511
 3824TIP3   OH211414   2.803   5.364   2.486
 3824TIP3    H111415   2.891   5.355   2.522
 3824TIP3    H211416   2.817   5.375   2.392
 3825TIP3   OH211417   2.452   4.421   6.574
 3825TIP3    H111418   2.546   4.408   6.586
 3825TIP3    H211419   2.427   4.357   6.507
 3826TIP3   OH211420   2.466   0.931   1.046
 3826TIP3    H111421   2.491   0.979   0.966
 3826TIP3    H211422   2.414   0.857   1.014
 3827TIP3   OH211423   5.898   6.768   6.497
 3827TIP3    H111424   5.904   6.674   6.479
 3827TIP3    H211425   5.935   6.778   6.584
 3828TIP3   OH211426   6.357   7.259   6.389
 3828TIP3    H111427   6.371   7.339   6.438
 3828TIP3    H211428   6.444   7.219   6.382
 3829TIP3   OH211429   6.221   1.742   4.315
 3829TIP3    H111430   6.300   1.789   4.340
 3829TIP3    H211431   6.151   1.807   4.324
 3830TIP3   OH211432   4.331   3.479   3.245
 3830TIP3    H111433   4.369   3.547   3.190
 3830TIP3    H211434   4.361   3.501   3.333
 3831TIP3   OH211435   7.891   7.454   4.767
 3831TIP3    H111436   7.894   7.524   4.703
 3831TIP3    H211437   7.841   7.384   4.724
 3832TIP3   OH211438   2.853   5.897   6.500
 3832TIP3    H111439   2.766   5.880   6.535
 3832TIP3    H211440   2.837   5.950   6.422
 3833TIP3   OH211441   5.868   6.611   2.485
 3833TIP3    H111442   5.921   6.532   2.482
 3833TIP3    H211443   5.785   6.586   2.445
 3834TIP3   OH211444   5.671   2.486   6.151
 3834TIP3    H111445   5.607   2.415   6.142
 3834TIP3    H211446   5.645   2.532   6.230
 3835TIP3   OH211447   7.587   2.590   3.248
 3835TIP3    H111448   7.550   2.565   3.332
 3835TIP3    H211449   7.580   2.511   3.194
 3836TIP3   OH211450   4.007   5.217   6.661
 3836TIP3    H111451   4.082   5.206   6.720
 3836TIP3    H211452   3.968   5.300   6.688
 3837TIP3   OH211453   1.650   4.251   6.485
 3837TIP3    H111454   1.688   4.296   6.561
 3837TIP3    H211455   1.563   4.225   6.513
 3838TIP3   OH211456   2.507   2.524   2.569
 3838TIP3    H111457   2.589   2.540   2.522
 3838TIP3    H211458   2.462   2.609   2.568
 3839TIP3   OH211459   2.847   4.179   3.393
 3839TIP3    H111460   2.835   4.210   3.303
 3839TIP3    H211461   2.795   4.098   3.397
 3840TIP3   OH211462   1.054   0.237   6.103
 3840TIP3    H111463   1.007   0.170   6.053
 3840TIP3    H211464   1.133   0.192   6.133
 3841TIP3   OH211465   0.857   6.709   0.061
 3841TIP3    H111466   0.886   6.724   0.151
 3841TIP3    H211467   0.841   6.615   0.056
 3842TIP3   OH211468   3.906   6.094   4.186
 3842TIP3    H111469   3.989   6.056   4.214
 3842TIP3    H211470   3.892   6.060   4.098
 3843TIP3   OH211471   7.659   4.166   2.854
 3843TIP3    H111472   7.658   4.076   2.820
 3843TIP3    H211473   7.654   4.221   2.776
 3844TIP3   OH211474   5.111   0.972   4.698
 3844TIP3    H111475   5.162   0.937   4.625
 3844TIP3    H211476   5.114   1.067   4.686
 3845TIP3   OH211477   6.716   0.511   2.594
 3845TIP3    H111478   6.736   0.507   2.500
 3845TIP3    H211479   6.782   0.570   2.630
 3846TIP3   OH211480   1.868   7.131   2.714
 3846TIP3    H111481   1.935   7.063   2.701
 3846TIP3    H211482   1.797   7.086   2.760
 3847TIP3   OH211483   2.281   7.039   0.678
 3847TIP3    H111484   2.326   7.101   0.735
 3847TIP3    H211485   2.312   7.061   0.590
 3848TIP3   OH211486   3.891   2.317   0.678
 3848TIP3    H111487   3.897   2.320   0.774
 3848TIP3    H211488   3.842   2.396   0.655
 3849TIP3   OH211489   7.874   7.609   5.940
 3849TIP3    H111490   7.786   7.643   5.923
 3849TIP3    H211491   7.866   7.559   6.021
 3850TIP3   OH211492   7.750   0.548   2.167
 3850TIP3    H111493   7.793   0.492   2.232
 3850TIP3    H211494   7.800   0.630   2.170
 3851TIP3   OH211495   3.216   1.555   5.405
 3851TIP3    H111496   3.207   1.648   5.385
 3851TIP3    H211497   3.167   1.543   5.487
 3852TIP3   OH211498   3.067   5.622   2.283
 3852TIP3    H111499   3.022   5.636   2.200
 3852TIP3    H211500   3.147   5.675   2.276
 3853TIP3   OH211501   0.460   3.904   2.308
 3853TIP3    H111502   0.415   3.833   2.354
 3853TIP3    H211503   0.467   3.974   2.373
 3854TIP3   OH211504   1.915   0.520   4.807
 3854TIP3    H111505   1.943   0.612   4.814
 3854TIP3    H211506   1.967   0.485   4.736
 3855TIP3   OH211507   1.136   3.392   5.090
 3855TIP3    H111508   1.149   3.390   5.185
 3855TIP3    H211509   1.191   3.321   5.057
 3856TIP3   OH211510   1.520   6.638   5.722
 3856TIP3    H111511   1.552   6.702   5.658
 3856TIP3    H211512   1.470   6.691   5.785
 3857TIP3   OH211513   5.644   3.991   1.545
 3857TIP3    H111514   5.633   3.909   1.498
 3857TIP3    H211515   5.724   4.029   1.510
 3858TIP3   OH211516   1.214   0.605   1.115
 3858TIP3    H111517   1.234   0.598   1.208
 3858TIP3    H211518   1.118   0.608   1.112
 3859TIP3   OH211519   1.797   3.153   4.445
 3859TIP3    H111520   1.751   3.071   4.427
 3859TIP3    H211521   1.769   3.212   4.374
 3860TIP3   OH211522   1.777   2.712   6.235
 3860TIP3    H111523   1.708   2.741   6.296
 3860TIP3    H211524   1.792   2.621   6.258
 3861TIP3   OH211525   1.294   3.733   0.587
 3861TIP3    H111526   1.261   3.712   0.499
 3861TIP3    H211527   1.389   3.736   0.576
 3862TIP3   OH211528   2.646   4.428   3.501
 3862TIP3    H111529   2.738   4.404   3.492
 3862TIP3    H211530   2.644   4.523   3.486
 3863TIP3   OH211531   4.136   4.029   2.633
 3863TIP3    H111532   4.071   3.958   2.635
 3863TIP3    H211533   4.085   4.108   2.655
 3864TIP3   OH211534   6.133   1.822   2.216
 3864TIP3    H111535   6.134   1.807   2.122
 3864TIP3    H211536   6.189   1.899   2.229
 3865TIP3   OH211537   3.006   5.498   0.873
 3865TIP3    H111538   3.020   5.424   0.932
 3865TIP3    H211539   2.939   5.551   0.916
 3866TIP3   OH211540   4.787   4.715   3.068
 3866TIP3    H111541   4.800   4.699   3.162
 3866TIP3    H211542   4.851   4.783   3.046
 3867TIP3   OH211543   0.602   2.945   0.812
 3867TIP3    H111544   0.677   2.930   0.870
 3867TIP3    H211545   0.610   3.036   0.786
 3868TIP3   OH211546   7.907   2.265   6.220
 3868TIP3    H111547   7.936   2.335   6.279
 3868TIP3    H211548   7.920   2.184   6.269
 3869TIP3   OH211549   0.714   1.381   4.826
 3869TIP3    H111550   0.672   1.448   4.880
 3869TIP3    H211551   0.777   1.339   4.884
 3870TIP3   OH211552   3.426   4.878   6.608
 3870TIP3    H111553   3.488   4.849   6.541
 3870TIP3    H211554   3.475   4.943   6.659
 3871TIP3   OH211555   5.046   4.705   5.701
 3871TIP3    H111556   4.970   4.668   5.746
 3871TIP3    H211557   5.050   4.655   5.619
 3872TIP3   OH211558   1.078   6.477   4.700
 3872TIP3    H111559   1.075   6.573   4.700
 3872TIP3    H211560   1.147   6.455   4.762
 3873TIP3   OH211561   0.310   1.498   4.428
 3873TIP3    H111562   0.363   1.515   4.506
 3873TIP3    H211563   0.282   1.407   4.438
 3874TIP3   OH211564   6.849   0.553   4.009
 3874TIP3    H111565   6.888   0.641   4.010
 3874TIP3    H211566   6.895   0.508   3.939
 3875TIP3   OH211567   0.608   0.013   5.324
 3875TIP3    H111568   0.541   0.040   5.387
 3875TIP3    H211569   0.572  -0.065   5.282
 3876TIP3   OH211570   7.339   5.428   2.985
 3876TIP3    H111571   7.309   5.347   3.028
 3876TIP3    H211572   7.386   5.397   2.908
 3877TIP3   OH211573   6.250   2.714   0.860
 3877TIP3    H111574   6.250   2.703   0.765
 3877TIP3    H211575   6.313   2.784   0.876
 3878TIP3   OH211576   1.026   6.240   2.746
 3878TIP3    H111577   1.025   6.182   2.670
 3878TIP3    H211578   0.948   6.294   2.736
 3879TIP3   OH211579   4.874   1.530   6.580
 3879TIP3    H111580   4.903   1.548   6.669
 3879TIP3    H211581   4.912   1.445   6.559
 3880TIP3   OH211582   0.550   7.555   1.930
 3880TIP3    H111583   0.623   7.609   1.960
 3880TIP3    H211584   0.503   7.611   1.867
 3881TIP3   OH211585   3.874   5.123   4.350
 3881TIP3    H111586   3.842   5.083   4.431
 3881TIP3    H211587   3.797   5.166   4.313
 3882TIP3   OH211588   2.794   0.151   4.239
 3882TIP3    H111589   2.888   0.146   4.224
 3882TIP3    H211590   2.760   0.206   4.169
 3883TIP3   OH211591   3.212   1.186   0.975
 3883TIP3    H111592   3.216   1.281   0.989
 3883TIP3    H211593   3.263   1.149   1.047
 3884TIP3   OH211594   6.442   2.303   2.118
 3884TIP3    H111595   6.514   2.286   2.059
 3884TIP3    H211596   6.447   2.398   2.136
 3885TIP3   OH211597   2.099   2.522   2.925
 3885TIP3    H111598   2.026   2.539   2.985
 3885TIP3    H211599   2.067   2.552   2.840
 3886TIP3   OH211600   4.075   7.514   4.615
 3886TIP3    H111601   4.113   7.541   4.531
 3886TIP3    H211602   4.004   7.576   4.631
 3887TIP3   OH211603   7.418   3.064   4.910
 3887TIP3    H111604   7.342   3.009   4.931
 3887TIP3    H211605   7.489   3.002   4.895
 3888TIP3   OH211606   2.092   5.190   6.382
 3888TIP3    H111607   2.092   5.276   6.340
 3888TIP3    H211608   2.085   5.128   6.309
 3889TIP3   OH211609   2.886   3.213   1.687
 3889TIP3    H111610   2.810   3.266   1.665
 3889TIP3    H211611   2.955   3.244   1.628
 3890TIP3   OH211612   2.712   4.790   4.880
 3890TIP3    H111613   2.719   4.859   4.814
 3890TIP3    H211614   2.803   4.767   4.900
 3891TIP3   OH211615   1.973   7.144   5.994
 3891TIP3    H111616   1.993   7.090   6.070
 3891TIP3    H211617   2.028   7.108   5.924
 3892TIP3   OH211618   5.364   0.077   5.486
 3892TIP3    H111619   5.337   0.148   5.428
 3892TIP3    H211620   5.349  -0.003   5.435
 3893TIP3   OH211621   3.912   2.190   1.421
 3893TIP3    H111622   3.871   2.265   1.465
 3893TIP3    H211623   3.985   2.166   1.477
 3894TIP3   OH211624   7.428   2.985   0.092
 3894TIP3    H111625   7.445   2.907   0.040
 3894TIP3    H211626   7.496   2.985   0.159
 3895TIP3   OH211627   3.288   6.129   1.611
 3895TIP3    H111628   3.382   6.126   1.629
 3895TIP3    H211629   3.249   6.157   1.693
 3896TIP3   OH211630   2.399   2.694   0.204
 3896TIP3    H111631   2.433   2.701   0.115
 3896TIP3    H211632   2.414   2.781   0.242
 3897TIP3   OH211633   1.829   3.318   4.683
 3897TIP3    H111634   1.925   3.323   4.690
 3897TIP3    H211635   1.814   3.285   4.594
 3898TIP3   OH211636   4.472   7.291   1.957
 3898TIP3    H111637   4.518   7.210   1.938
 3898TIP3    H211638   4.488   7.307   2.050
 3899TIP3   OH211639   4.327   6.585   1.134
 3899TIP3    H111640   4.379   6.596   1.054
 3899TIP3    H211641   4.391   6.581   1.204
 3900TIP3   OH211642   6.422   6.046   1.192
 3900TIP3    H111643   6.420   6.108   1.119
 3900TIP3    H211644   6.348   6.072   1.247
 3901TIP3   OH211645   2.719   5.159   5.440
 3901TIP3    H111646   2.768   5.241   5.440
 3901TIP3    H211647   2.698   5.143   5.348
 3902TIP3   OH211648   7.089   0.069   3.607
 3902TIP3    H111649   7.056  -0.020   3.596
 3902TIP3    H211650   7.010   0.123   3.619
 3903TIP3   OH211651   3.544   0.080   4.133
 3903TIP3    H111652   3.462   0.074   4.183
 3903TIP3    H211653   3.589  -0.003   4.152
 3904TIP3   OH211654   0.631   7.185   0.426
 3904TIP3    H111655   0.595   7.273   0.430
 3904TIP3    H211656   0.657   7.173   0.335
 3905TIP3   OH211657   7.593   6.594   4.933
 3905TIP3    H111658   7.573   6.576   5.024
 3905TIP3    H211659   7.650   6.672   4.935
 3906TIP3   OH211660   1.784   6.533   5.829
 3906TIP3    H111661   1.710   6.527   5.769
 3906TIP3    H211662   1.832   6.451   5.815
 3907TIP3   OH211663   4.669   0.039   3.834
 3907TIP3    H111664   4.713   0.104   3.779
 3907TIP3    H211665   4.737  -0.025   3.856
 3908TIP3   OH211666   6.255   0.812   2.332
 3908TIP3    H111667   6.276   0.788   2.422
 3908TIP3    H211668   6.339   0.813   2.287
 3909TIP3   OH211669   4.990   0.988   6.177
 3909TIP3    H111670   4.942   0.974   6.259
 3909TIP3    H211671   4.958   0.918   6.119
 3910TIP3   OH211672   0.443   6.779   3.429
 3910TIP3    H111673   0.511   6.844   3.414
 3910TIP3    H211674   0.366   6.814   3.384
 3911TIP3   OH211675   7.317   5.507   2.007
 3911TIP3    H111676   7.337   5.516   2.100
 3911TIP3    H211677   7.226   5.537   1.999
 3912TIP3   OH211678   1.738   6.665   1.020
 3912TIP3    H111679   1.680   6.712   1.080
 3912TIP3    H211680   1.826   6.692   1.045
 3913TIP3   OH211681   3.691   7.558   0.596
 3913TIP3    H111682   3.656   7.482   0.643
 3913TIP3    H211683   3.777   7.573   0.635
 3914TIP3   OH211684   0.403   0.365   2.579
 3914TIP3    H111685   0.353   0.393   2.656
 3914TIP3    H211686   0.376   0.274   2.565
 3915TIP3   OH211687   4.634   1.989   0.323
 3915TIP3    H111688   4.647   2.050   0.251
 3915TIP3    H211689   4.623   1.904   0.281
 3916TIP3   OH211690   6.869   5.017   6.180
 3916TIP3    H111691   6.820   4.981   6.106
 3916TIP3    H211692   6.819   4.992   6.257
 3917TIP3   OH211693   0.272   1.788   2.560
 3917TIP3    H111694   0.332   1.844   2.510
 3917TIP3    H211695   0.329   1.725   2.604
 3918TIP3   OH211696   7.161   0.128   6.492
 3918TIP3    H111697   7.242   0.126   6.440
 3918TIP3    H211698   7.179   0.071   6.567
 3919TIP3   OH211699   6.902   2.124   4.223
 3919TIP3    H111700   6.835   2.168   4.275
 3919TIP3    H211701   6.972   2.104   4.286
 3920TIP3   OH211702   2.370   3.258   6.714
 3920TIP3    H111703   2.287   3.257   6.667
 3920TIP3    H211704   2.386   3.166   6.737
 3921TIP3   OH211705   0.006   3.324   6.042
 3921TIP3    H111706   0.024   3.283   5.957
 3921TIP3    H211707   0.060   3.275   6.104
 3922TIP3   OH211708   6.771   7.815   1.304
 3922TIP3    H111709   6.690   7.767   1.325
 3922TIP3    H211710   6.760   7.900   1.348
 3923TIP3   OH211711   2.306   6.316   2.125
 3923TIP3    H111712   2.346   6.359   2.200
 3923TIP3    H211713   2.355   6.234   2.115
 3924TIP3   OH211714   2.406   7.184   2.039
 3924TIP3    H111715   2.410   7.153   2.129
 3924TIP3    H211716   2.490   7.158   2.001
 3925TIP3   OH211717   3.631   7.309   6.138
 3925TIP3    H111718   3.725   7.322   6.132
 3925TIP3    H211719   3.601   7.375   6.201
 3926TIP3   OH211720   2.056   5.368   5.642
 3926TIP3    H111721   2.148   5.372   5.666
 3926TIP3    H211722   2.034   5.275   5.647
 3927TIP3   OH211723   8.016   7.200   5.920
 3927TIP3    H111724   7.983   7.114   5.894
 3927TIP3    H211725   7.942   7.259   5.908
 3928TIP3   OH211726   6.234   1.215   2.837
 3928TIP3    H111727   6.297   1.281   2.807
 3928TIP3    H211728   6.178   1.198   2.761
 3929TIP3   OH211729   4.329   2.124   0.204
 3929TIP3    H111730   4.260   2.185   0.177
 3929TIP3    H211731   4.289   2.074   0.275
 3930TIP3   OH211732   0.773   2.365   5.494
 3930TIP3    H111733   0.851   2.401   5.536
 3930TIP3    H211734   0.806   2.318   5.417
 3931TIP3   OH211735   5.543   0.903   1.747
 3931TIP3    H111736   5.485   0.941   1.681
 3931TIP3    H211737   5.485   0.880   1.820
 3932TIP3   OH211738   6.193   5.979   6.085
 3932TIP3    H111739   6.207   6.050   6.149
 3932TIP3    H211740   6.271   5.982   6.029
 3933TIP3   OH211741   1.703   3.580   2.876
 3933TIP3    H111742   1.750   3.504   2.910
 3933TIP3    H211743   1.738   3.592   2.788
 3934TIP3   OH211744   5.503   5.985   4.949
 3934TIP3    H111745   5.450   5.908   4.972
 3934TIP3    H211746   5.569   5.990   5.018
 3935TIP3   OH211747   2.581   5.475   1.269
 3935TIP3    H111748   2.665   5.520   1.275
 3935TIP3    H211749   2.583   5.432   1.184
 3936TIP3   OH211750   1.424   5.399   5.722
 3936TIP3    H111751   1.357   5.419   5.656
 3936TIP3    H211752   1.464   5.318   5.690
 3937TIP3   OH211753   7.155   3.673   3.078
 3937TIP3    H111754   7.154   3.577   3.074
 3937TIP3    H211755   7.204   3.693   3.158
 3938TIP3   OH211756   0.115   6.117   0.732
 3938TIP3    H111757   0.145   6.113   0.641
 3938TIP3    H211758   0.059   6.195   0.736
 3939TIP3   OH211759   6.147   3.998   3.638
 3939TIP3    H111760   6.162   4.092   3.625
 3939TIP3    H211761   6.212   3.973   3.704
 3940TIP3   OH211762   1.062   5.517   6.044
 3940TIP3    H111763   1.112   5.476   5.974
 3940TIP3    H211764   1.070   5.456   6.118
 3941TIP3   OH211765   0.351   2.644   2.220
 3941TIP3    H111766   0.276   2.623   2.275
 3941TIP3    H211767   0.360   2.569   2.161
 3942TIP3   OH211768   6.517   0.627   1.502
 3942TIP3    H111769   6.483   0.716   1.491
 3942TIP3    H211770   6.465   0.574   1.442
 3943TIP3   OH211771   0.776   3.015   4.902
 3943TIP3    H111772   0.718   3.090   4.890
 3943TIP3    H211773   0.803   2.992   4.813
 3944TIP3   OH211774   8.050   3.755   2.605
 3944TIP3    H111775   8.014   3.808   2.534
 3944TIP3    H211776   8.073   3.672   2.564
 3945TIP3   OH211777   5.016   4.984   1.100
 3945TIP3    H111778   4.989   4.973   1.009
 3945TIP3    H211779   5.098   5.033   1.095
 3946TIP3   OH211780   8.027   6.543   3.926
 3946TIP3    H111781   8.084   6.469   3.904
 3946TIP3    H211782   7.959   6.505   3.981
 3947TIP3   OH211783   0.141   0.883   1.693
 3947TIP3    H111784   0.061   0.836   1.715
 3947TIP3    H211785   0.211   0.818   1.704
 3948TIP3   OH211786   6.059   2.150   5.865
 3948TIP3    H111787   6.020   2.072   5.906
 3948TIP3    H211788   6.144   2.159   5.908
 3949TIP3   OH211789   2.508   6.229   3.457
 3949TIP3    H111790   2.500   6.312   3.409
 3949TIP3    H211791   2.481   6.162   3.394
 3950TIP3   OH211792   3.948   6.577   0.108
 3950TIP3    H111793   4.015   6.529   0.156
 3950TIP3    H211794   3.978   6.576   0.017
 3951TIP3   OH211795   7.626   6.098   2.130
 3951TIP3    H111796   7.676   6.172   2.096
 3951TIP3    H211797   7.555   6.085   2.066
 3952TIP3   OH211798   7.569   3.641   3.940
 3952TIP3    H111799   7.587   3.731   3.966
 3952TIP3    H211800   7.476   3.640   3.918
 3953TIP3   OH211801   0.697   2.623   2.754
 3953TIP3    H111802   0.722   2.643   2.664
 3953TIP3    H211803   0.761   2.671   2.807
 3954TIP3   OH211804   0.198   6.305   5.527
 3954TIP3    H111805   0.254   6.338   5.457
 3954TIP3    H211806   0.161   6.224   5.492
 3955TIP3   OH211807   4.105   4.619   2.318
 3955TIP3    H111808   4.156   4.569   2.253
 3955TIP3    H211809   4.098   4.706   2.279
 3956TIP3   OH211810   8.236   3.737   3.236
 3956TIP3    H111811   8.243   3.644   3.214
 3956TIP3    H211812   8.194   3.777   3.160
 3957TIP3   OH211813   0.830   1.473   5.332
 3957TIP3    H111814   0.894   1.545   5.329
 3957TIP3    H211815   0.760   1.506   5.388
 3958TIP3   OH211816   1.654   2.809   0.328
 3958TIP3    H111817   1.613   2.810   0.414
 3958TIP3    H211818   1.668   2.716   0.309
 3959TIP3   OH211819   2.460   0.670   5.567
 3959TIP3    H111820   2.515   0.593   5.554
 3959TIP3    H211821   2.423   0.658   5.655
 3960TIP3   OH211822   1.648   0.714   3.923
 3960TIP3    H111823   1.673   0.781   3.860
 3960TIP3    H211824   1.552   0.717   3.925
 3961TIP3   OH211825   6.278   1.538   1.007
 3961TIP3    H111826   6.208   1.555   0.944
 3961TIP3    H211827   6.299   1.446   0.995
 3962TIP3   OH211828   3.794   7.060   2.331
 3962TIP3    H111829   3.737   7.094   2.263
 3962TIP3    H211830   3.826   7.137   2.378
 3963TIP3   OH211831   3.746   4.598   6.266
 3963TIP3    H111832   3.714   4.683   6.294
 3963TIP3    H211833   3.842   4.606   6.269
 3964TIP3   OH211834   6.355   4.135   3.416
 3964TIP3    H111835   6.433   4.080   3.407
 3964TIP3    H211836   6.329   4.155   3.326
 3965TIP3   OH211837   2.137   6.423   0.308
 3965TIP3    H111838   2.201   6.488   0.277
 3965TIP3    H211839   2.080   6.408   0.234
 3966TIP3   OH211840   6.666   0.068   2.521
 3966TIP3    H111841   6.717   0.114   2.455
 3966TIP3    H211842   6.618   0.136   2.568
 3967TIP3   OH211843   1.251   4.498   4.587
 3967TIP3    H111844   1.242   4.582   4.542
 3967TIP3    H211845   1.310   4.446   4.532
 3968TIP3   OH211846   0.424   4.882   2.411
 3968TIP3    H111847   0.408   4.865   2.503
 3968TIP3    H211848   0.506   4.837   2.391
 3969TIP3   OH211849   5.732   5.112   6.005
 3969TIP3    H111850   5.664   5.179   6.003
 3969TIP3    H211851   5.687   5.030   5.985
 3970TIP3   OH211852   6.329   5.808   2.582
 3970TIP3    H111853   6.416   5.795   2.618
 3970TIP3    H211854   6.272   5.756   2.638
 3971TIP3   OH211855   7.209   7.688   0.522
 3971TIP3    H111856   7.176   7.694   0.611
 3971TIP3    H211857   7.299   7.721   0.527
 3972TIP3   OH211858   1.069   5.343   1.405
 3972TIP3    H111859   1.031   5.296   1.479
 3972TIP3    H211860   1.140   5.287   1.374
 3973TIP3   OH211861   5.642   2.961   4.099
 3973TIP3    H111862   5.574   2.980   4.034
 3973TIP3    H211863   5.678   2.876   4.072
 3974TIP3   OH211864   0.544   7.659   6.760
 3974TIP3    H111865   0.549   7.644   6.665
 3974TIP3    H211866   0.452   7.641   6.782
 3975TIP3   OH211867   0.088   7.085   1.621
 3975TIP3    H111868   0.138   7.104   1.542
 3975TIP3    H211869   0.117   7.153   1.683
 3976TIP3   OH211870   5.418   5.255   0.798
 3976TIP3    H111871   5.393   5.175   0.751
 3976TIP3    H211872   5.513   5.259   0.791
 3977TIP3   OH211873   5.180   0.533   5.223
 3977TIP3    H111874   5.174   0.605   5.161
 3977TIP3    H211875   5.089   0.506   5.236
 3978TIP3   OH211876   2.037   6.278   5.237
 3978TIP3    H111877   1.965   6.263   5.175
 3978TIP3    H211878   2.114   6.240   5.194
 3979TIP3   OH211879   1.254   1.757   3.506
 3979TIP3    H111880   1.222   1.797   3.586
 3979TIP3    H211881   1.181   1.704   3.474
 3980TIP3   OH211882   1.592   5.857   0.917
 3980TIP3    H111883   1.658   5.805   0.964
 3980TIP3    H211884   1.510   5.835   0.960
 3981TIP3   OH211885   1.480   1.678   2.244
 3981TIP3    H111886   1.508   1.682   2.152
 3981TIP3    H211887   1.495   1.766   2.277
 3982TIP3   OH211888   2.367   2.871   0.985
 3982TIP3    H111889   2.294   2.852   1.044
 3982TIP3    H211890   2.374   2.794   0.929
 3983TIP3   OH211891   1.459   2.195   6.011
 3983TIP3    H111892   1.463   2.099   6.011
 3983TIP3    H211893   1.424   2.217   6.098
 3984TIP3   OH211894   2.632   3.276   0.037
 3984TIP3    H111895   2.723   3.249   0.046
 3984TIP3    H211896   2.581   3.202   0.071
 3985TIP3   OH211897   0.817   3.360   3.109
 3985TIP3    H111898   0.728   3.350   3.076
 3985TIP3    H211899   0.835   3.454   3.099
 3986TIP3   OH211900   2.546   6.160   2.525
 3986TIP3    H111901   2.456   6.192   2.521
 3986TIP3    H211902   2.597   6.225   2.477
 3987TIP3   OH211903   8.207   7.370   0.511
 3987TIP3    H111904   8.182   7.329   0.594
 3987TIP3    H211905   8.166   7.315   0.444
 3988TIP3   OH211906   4.958   6.000   6.548
 3988TIP3    H111907   4.943   6.087   6.510
 3988TIP3    H211908   5.010   6.017   6.626
 3989TIP3   OH211909   3.267   5.242   0.460
 3989TIP3    H111910   3.221   5.326   0.454
 3989TIP3    H211911   3.291   5.235   0.552
 3990TIP3   OH211912   6.520   6.222   5.120
 3990TIP3    H111913   6.449   6.201   5.060
 3990TIP3    H211914   6.503   6.312   5.147
 3991TIP3   OH211915   3.825   2.633   5.005
 3991TIP3    H111916   3.754   2.621   4.943
 3991TIP3    H211917   3.890   2.567   4.980
 3992TIP3   OH211918   8.161   7.102   0.730
 3992TIP3    H111919   8.169   7.192   0.759
 3992TIP3    H211920   8.224   7.053   0.783
 3993TIP3   OH211921   6.893   7.361   6.140
 3993TIP3    H111922   6.879   7.266   6.139
 3993TIP3    H211923   6.974   7.374   6.091
 3994TIP3   OH211924   5.040   0.219   0.490
 3994TIP3    H111925   5.084   0.304   0.497
 3994TIP3    H211926   5.059   0.175   0.573
 3995TIP3   OH211927   2.242   3.916   2.562
 3995TIP3    H111928   2.191   3.941   2.640
 3995TIP3    H211929   2.224   3.822   2.551
 3996TIP3   OH211930   2.726   1.576   0.011
 3996TIP3    H111931   2.793   1.636  -0.022
 3996TIP3    H211932   2.734   1.581   0.106
 3997TIP3   OH211933   3.249   2.534   0.114
 3997TIP3    H111934   3.304   2.484   0.174
 3997TIP3    H211935   3.186   2.471   0.080
 3998TIP3   OH211936   7.805   6.129   0.038
 3998TIP3    H111937   7.788   6.120   0.132
 3998TIP3    H211938   7.723   6.162   0.002
 3999TIP3   OH211939   4.866   3.175   6.714
 3999TIP3    H111940   4.882   3.086   6.747
 3999TIP3    H211941   4.953   3.206   6.686
 4000TIP3   OH211942   4.861   3.046   0.327
 4000TIP3    H111943   4.894   3.072   0.412
 4000TIP3    H211944   4.885   3.118   0.268
 4001TIP3   OH211945   2.042   6.750   4.274
 4001TIP3    H111946   1.960   6.730   4.320
 4001TIP3    H211947   2.059   6.672   4.221
 4002TIP3   OH211948   4.412   7.092   0.813
 4002TIP3    H111949   4.421   7.184   0.836
 4002TIP3    H211950   4.381   7.050   0.893
 4003TIP3   OH211951   1.533   2.048   4.539
 4003TIP3    H111952   1.622   2.042   4.504
 4003TIP3    H211953   1.486   1.978   4.494
 4004TIP3   OH211954   1.010   2.405   5.688
 4004TIP3    H111955   1.010   2.493   5.726
 4004TIP3    H211956   0.951   2.355   5.745
 4005TIP3   OH211957   4.474   5.649   2.686
 4005TIP3    H111958   4.398   5.636   2.742
 4005TIP3    H211959   4.504   5.737   2.707
 4006TIP3   OH211960   0.995   5.352   2.887
 4006TIP3    H111961   1.026   5.426   2.835
 4006TIP3    H211962   1.001   5.381   2.978
 4007TIP3   OH211963   5.824   6.049   0.826
 4007TIP3    H111964   5.742   6.039   0.777
 4007TIP3    H211965   5.796   6.047   0.918
 4008TIP3   OH211966   4.278   2.078   1.473
 4008TIP3    H111967   4.366   2.083   1.511
 4008TIP3    H211968   4.250   2.170   1.467
 4009TIP3   OH211969   2.058   1.081   3.991
 4009TIP3    H111970   2.143   1.061   3.951
 4009TIP3    H211971   2.048   1.014   4.059
 4010TIP3   OH211972   5.285   6.150   3.560
 4010TIP3    H111973   5.260   6.236   3.527
 4010TIP3    H211974   5.242   6.143   3.646
 4011TIP3   OH211975   4.325   4.136   6.164
 4011TIP3    H111976   4.233   4.136   6.135
 4011TIP3    H211977   4.358   4.222   6.139
 4012TIP3   OH211978   7.740   3.744   0.341
 4012TIP3    H111979   7.687   3.693   0.279
 4012TIP3    H211980   7.824   3.755   0.296
 4013TIP3   OH211981   0.192   1.181   3.377
 4013TIP3    H111982   0.229   1.264   3.405
 4013TIP3    H211983   0.147   1.200   3.295
 4014TIP3   OH211984   1.966   1.527   0.407
 4014TIP3    H111985   2.012   1.486   0.480
 4014TIP3    H211986   1.927   1.454   0.359
 4015TIP3   OH211987   7.270   4.211   6.456
 4015TIP3    H111988   7.253   4.119   6.436
 4015TIP3    H211989   7.315   4.210   6.540
 4016TIP3   OH211990   0.917   4.233   1.738
 4016TIP3    H111991   0.950   4.146   1.758
 4016TIP3    H211992   0.966   4.260   1.659
 4017TIP3   OH211993   7.609   3.303   5.612
 4017TIP3    H111994   7.674   3.233   5.626
 4017TIP3    H211995   7.531   3.273   5.659
 4018TIP3   OH211996   5.735   5.662   6.782
 4018TIP3    H111997   5.750   5.662   6.688
 4018TIP3    H211998   5.801   5.722   6.817
 4019TIP3   OH211999   5.104   0.274   4.418
 4019TIP3    H112000   5.151   0.191   4.427
 4019TIP3    H212001   5.068   0.290   4.505
 4020TIP3   OH212002   7.627   1.084   3.436
 4020TIP3    H112003   7.650   0.991   3.444
 4020TIP3    H212004   7.533   1.086   3.455
 4021TIP3   OH212005   6.255   0.308   4.236
 4021TIP3    H112006   6.240   0.369   4.164
 4021TIP3    H212007   6.346   0.323   4.261
 4022TIP3   OH212008   0.335   5.192   5.328
 4022TIP3    H112009   0.284   5.113   5.310
 4022TIP3    H212010   0.305   5.255   5.263
 4023TIP3   OH212011   7.119   1.558   6.523
 4023TIP3    H112012   7.113   1.572   6.428
 4023TIP3    H212013   7.120   1.647   6.560
 4024TIP3   OH212014   5.584   7.527   1.674
 4024TIP3    H112015   5.558   7.467   1.604
 4024TIP3    H212016   5.579   7.614   1.634
 4025TIP3   OH212017   1.751   4.171   5.344
 4025TIP3    H112018   1.817   4.158   5.412
 4025TIP3    H212019   1.743   4.266   5.336
 4026TIP3   OH212020   6.595   7.223   4.371
 4026TIP3    H112021   6.546   7.292   4.416
 4026TIP3    H212022   6.617   7.261   4.286
 4027TIP3   OH212023   4.610   2.876   3.773
 4027TIP3    H112024   4.664   2.806   3.735
 4027TIP3    H212025   4.563   2.833   3.844
 4028TIP3   OH212026   3.335   7.561   1.134
 4028TIP3    H112027   3.374   7.479   1.102
 4028TIP3    H212028   3.254   7.533   1.179
 4029TIP3   OH212029   0.807   0.487   4.503
 4029TIP3    H112030   0.900   0.483   4.527
 4029TIP3    H212031   0.802   0.558   4.439
 4030TIP3   OH212032   1.789   5.089   0.449
 4030TIP3    H112033   1.814   5.016   0.392
 4030TIP3    H212034   1.710   5.058   0.493
 4031TIP3   OH212035   2.163   5.458   0.176
 4031TIP3    H112036   2.185   5.385   0.118
 4031TIP3    H212037   2.159   5.420   0.263
 4032TIP3   OH212038   1.239   1.168   4.779
 4032TIP3    H112039   1.149   1.144   4.756
 4032TIP3    H212040   1.251   1.256   4.743
 4033TIP3   OH212041   7.569   6.608   5.785
 4033TIP3    H112042   7.620   6.640   5.860
 4033TIP3    H212043   7.548   6.686   5.735
 4034TIP3   OH212044   2.892   7.058   3.114
 4034TIP3    H112045   2.888   7.135   3.057
 4034TIP3    H212046   2.973   7.069   3.163
 4035TIP3   OH212047   0.868   3.457   0.129
 4035TIP3    H112048   0.956   3.419   0.120
 4035TIP3    H212049   0.885   3.551   0.140
 4036TIP3   OH212050   6.744   2.918   4.702
 4036TIP3    H112051   6.729   2.953   4.790
 4036TIP3    H212052   6.815   2.854   4.713
 4037TIP3   OH212053   4.227   5.675   3.483
 4037TIP3    H112054   4.296   5.654   3.546
 4037TIP3    H212055   4.213   5.594   3.435
 4038TIP3   OH212056   4.272   7.673   5.780
 4038TIP3    H112057   4.232   7.760   5.767
 4038TIP3    H212058   4.226   7.617   5.718
 4039TIP3   OH212059   7.763   0.486   5.819
 4039TIP3    H112060   7.851   0.494   5.854
 4039TIP3    H212061   7.734   0.577   5.805
 4040TIP3   OH212062   6.921   4.235   0.707
 4040TIP3    H112063   6.938   4.299   0.638
 4040TIP3    H212064   6.867   4.168   0.665
 4041TIP3   OH212065   7.690   6.532   5.502
 4041TIP3    H112066   7.681   6.488   5.586
 4041TIP3    H212067   7.704   6.462   5.439
 4042TIP3   OH212068   3.484   2.705   2.439
 4042TIP3    H112069   3.545   2.720   2.512
 4042TIP3    H212070   3.492   2.784   2.386
 4043TIP3   OH212071   4.554   7.743   2.827
 4043TIP3    H112072   4.498   7.793   2.767
 4043TIP3    H212073   4.518   7.761   2.913
 4044TIP3   OH212074   3.760   3.808   1.473
 4044TIP3    H112075   3.834   3.765   1.430
 4044TIP3    H212076   3.755   3.894   1.430
 4045TIP3   OH212077   7.036   6.951   0.100
 4045TIP3    H112078   7.013   7.040   0.130
 4045TIP3    H212079   6.988   6.893   0.159
 4046TIP3   OH212080   4.402   1.895   2.136
 4046TIP3    H112081   4.445   1.891   2.050
 4046TIP3    H212082   4.443   1.825   2.186
 4047TIP3   OH212083   2.049   1.955   1.373
 4047TIP3    H112084   2.106   2.008   1.318
 4047TIP3    H212085   2.000   1.901   1.311
 4048TIP3   OH212086   4.936   1.810   2.578
 4048TIP3    H112087   4.907   1.850   2.496
 4048TIP3    H212088   4.984   1.732   2.551
 4049TIP3   OH212089   0.085   1.903   2.348
 4049TIP3    H112090  -0.009   1.915   2.338
 4049TIP3    H212091   0.095   1.815   2.382
 4050TIP3   OH212092   8.031   4.913   3.048
 4050TIP3    H112093   8.107   4.908   3.106
 4050TIP3    H212094   7.975   4.980   3.088
 4051TIP3   OH212095   3.830   5.271   4.634
 4051TIP3    H112096   3.920   5.240   4.638
 4051TIP3    H212097   3.777   5.191   4.645
 4052TIP3   OH212098   7.418   3.927   1.341
 4052TIP3    H112099   7.341   3.953   1.391
 4052TIP3    H212100   7.479   4.000   1.352
 4053TIP3   OH212101   3.445   4.245   0.709
 4053TIP3    H112102   3.363   4.231   0.757
 4053TIP3    H212103   3.472   4.334   0.734
 4054TIP3   OH212104   3.165   1.614   6.150
 4054TIP3    H112105   3.093   1.617   6.213
 4054TIP3    H212106   3.160   1.526   6.113
 4055TIP3   OH212107   6.994   0.054   3.051
 4055TIP3    H112108   6.978  -0.039   3.033
 4055TIP3    H212109   7.089   0.060   3.064
 4056TIP3   OH212110   3.792   3.291   5.698
 4056TIP3    H112111   3.810   3.250   5.614
 4056TIP3    H212112   3.721   3.238   5.735
 4057TIP3   OH212113   3.191   6.868   5.817
 4057TIP3    H112114   3.253   6.863   5.890
 4057TIP3    H212115   3.105   6.858   5.857
 4058TIP3   OH212116   0.480   5.504   1.782
 4058TIP3    H112117   0.410   5.451   1.820
 4058TIP3    H212118   0.539   5.522   1.855
 4059TIP3   OH212119   3.105   2.669   4.658
 4059TIP3    H112120   3.044   2.639   4.591
 4059TIP3    H212121   3.136   2.588   4.700
 4060TIP3   OH212122   4.053   5.970   2.904
 4060TIP3    H112123   4.029   5.905   2.970
 4060TIP3    H212124   3.988   6.039   2.914
 4061TIP3   OH212125   1.017   0.250   2.971
 4061TIP3    H112126   1.087   0.316   2.968
 4061TIP3    H212127   1.063   0.166   2.971
 4062TIP3   OH212128   3.507   4.680   4.495
 4062TIP3    H112129   3.517   4.772   4.471
 4062TIP3    H212130   3.581   4.636   4.454
 4063TIP3   OH212131   4.154   4.845   6.505
 4063TIP3    H112132   4.060   4.827   6.497
 4063TIP3    H212133   4.182   4.797   6.582
 4064TIP3   OH212134   2.298   6.662   0.598
 4064TIP3    H112135   2.341   6.693   0.678
 4064TIP3    H212136   2.241   6.591   0.627
 4065TIP3   OH212137   0.849   1.184   5.424
 4065TIP3    H112138   0.884   1.268   5.453
 4065TIP3    H212139   0.760   1.204   5.395
 4066TIP3   OH212140   7.873   2.665   4.453
 4066TIP3    H112141   7.835   2.734   4.399
 4066TIP3    H212142   7.797   2.617   4.487
 4067TIP3   OH212143   8.195   3.907   4.511
 4067TIP3    H112144   8.190   4.001   4.492
 4067TIP3    H212145   8.106   3.876   4.498
 4068TIP3   OH212146   5.777   0.179   6.456
 4068TIP3    H112147   5.802   0.266   6.424
 4068TIP3    H212148   5.779   0.186   6.551
 4069TIP3   OH212149   3.826   2.077   2.733
 4069TIP3    H112150   3.821   2.170   2.756
 4069TIP3    H212151   3.889   2.074   2.661
 4070TIP3   OH212152   8.213   4.740   5.100
 4070TIP3    H112153   8.211   4.726   5.194
 4070TIP3    H212154   8.298   4.782   5.084
 4071TIP3   OH212155   6.492   3.754   2.060
 4071TIP3    H112156   6.468   3.675   2.109
 4071TIP3    H212157   6.460   3.826   2.114
 4072TIP3   OH212158   7.057   2.278   3.897
 4072TIP3    H112159   7.091   2.220   3.965
 4072TIP3    H212160   6.963   2.259   3.895
 4073TIP3   OH212161   4.901   4.870   5.091
 4073TIP3    H112162   4.905   4.775   5.079
 4073TIP3    H212163   4.975   4.904   5.042
 4074TIP3   OH212164   1.045   7.164   5.097
 4074TIP3    H112165   1.121   7.207   5.136
 4074TIP3    H212166   0.970   7.217   5.125
 4075TIP3   OH212167   3.953   1.341   6.585
 4075TIP3    H112168   4.025   1.278   6.581
 4075TIP3    H212169   3.966   1.397   6.508
 4076TIP3   OH212170   4.341   0.583   5.208
 4076TIP3    H112171   4.257   0.628   5.206
 4076TIP3    H212172   4.394   0.629   5.143
 4077TIP3   OH212173   7.079   1.386   6.723
 4077TIP3    H112174   7.085   1.447   6.650
 4077TIP3    H212175   7.169   1.374   6.752
 4078TIP3   OH212176   2.098   0.340   0.538
 4078TIP3    H112177   2.157   0.268   0.514
 4078TIP3    H212178   2.153   0.418   0.532
 4079TIP3   OH212179   4.911   5.456   3.921
 4079TIP3    H112180   4.945   5.489   3.838
 4079TIP3    H212181   4.824   5.422   3.899
 4080TIP3   OH212182   3.223   4.771   3.205
 4080TIP3    H112183   3.156   4.713   3.169
 4080TIP3    H212184   3.183   4.858   3.204
 4081TIP3   OH212185   0.494   1.708   0.281
 4081TIP3    H112186   0.513   1.724   0.188
 4081TIP3    H212187   0.398   1.705   0.285
 4082TIP3   OH212188   2.626   2.893   4.826
 4082TIP3    H112189   2.538   2.873   4.858
 4082TIP3    H212190   2.653   2.814   4.779
 4083TIP3   OH212191   4.245   1.898   4.965
 4083TIP3    H112192   4.290   1.880   5.047
 4083TIP3    H212193   4.286   1.840   4.901
 4084TIP3   OH212194   0.107   2.793   0.282
 4084TIP3    H112195   0.081   2.706   0.251
 4084TIP3    H212196   0.031   2.825   0.331
 4085TIP3   OH212197   6.215   0.347   0.735
 4085TIP3    H112198   6.282   0.287   0.768
 4085TIP3    H212199   6.133   0.299   0.745
 4086TIP3   OH212200   6.456   2.203   3.233
 4086TIP3    H112201   6.503   2.127   3.198
 4086TIP3    H212202   6.386   2.217   3.170
 4087TIP3   OH212203   4.770   2.049   1.358
 4087TIP3    H112204   4.864   2.061   1.348
 4087TIP3    H212205   4.733   2.077   1.275
 4088TIP3   OH212206   8.098   1.743   1.359
 4088TIP3    H112207   8.089   1.663   1.411
 4088TIP3    H212208   8.169   1.791   1.401
 4089TIP3   OH212209   2.502   1.063   0.817
 4089TIP3    H112210   2.502   1.061   0.722
 4089TIP3    H212211   2.552   1.141   0.840
 4090TIP3   OH212212   1.774   7.779   1.170
 4090TIP3    H112213   1.747   7.786   1.262
 4090TIP3    H212214   1.835   7.705   1.169
 4091TIP3   OH212215   5.399   7.218   4.542
 4091TIP3    H112216   5.453   7.233   4.464
 4091TIP3    H212217   5.311   7.247   4.516
 4092TIP3   OH212218   3.740   0.388   3.159
 4092TIP3    H112219   3.693   0.394   3.076
 4092TIP3    H212220   3.805   0.457   3.154
 4093TIP3   OH212221   6.692   6.893   0.516
 4093TIP3    H112222   6.663   6.807   0.548
 4093TIP3    H212223   6.638   6.956   0.563
 4094TIP3   OH212224   4.243   0.744   0.599
 4094TIP3    H112225   4.209   0.690   0.671
 4094TIP3    H212226   4.337   0.728   0.599
 4095TIP3   OH212227   5.608   3.308   0.789
 4095TIP3    H112228   5.690   3.259   0.790
 4095TIP3    H212229   5.632   3.394   0.755
 4096TIP3   OH212230   4.116   2.574   0.607
 4096TIP3    H112231   4.167   2.628   0.547
 4096TIP3    H212232   4.038   2.550   0.557
 4097TIP3   OH212233   7.888   5.563   1.158
 4097TIP3    H112234   7.896   5.657   1.171
 4097TIP3    H212235   7.884   5.527   1.247
 4098TIP3   OH212236   0.222   3.605   5.341
 4098TIP3    H112237   0.195   3.537   5.280
 4098TIP3    H212238   0.304   3.574   5.378
 4099TIP3   OH212239   7.273   3.400   5.737
 4099TIP3    H112240   7.365   3.382   5.716
 4099TIP3    H212241   7.267   3.496   5.739
 4100TIP3   OH212242   6.859   6.723   2.427
 4100TIP3    H112243   6.892   6.642   2.465
 4100TIP3    H212244   6.858   6.785   2.501
 4101TIP3   OH212245   5.008   6.667   6.559
 4101TIP3    H112246   4.946   6.668   6.486
 4101TIP3    H212247   4.974   6.734   6.619
 4102TIP3   OH212248   5.784   0.243   4.089
 4102TIP3    H112249   5.779   0.296   4.169
 4102TIP3    H212250   5.800   0.154   4.120
 4103TIP3   OH212251   3.452   4.902   2.837
 4103TIP3    H112252   3.472   4.856   2.919
 4103TIP3    H212253   3.446   4.994   2.862
 4104TIP3   OH212254   0.911   4.471   5.224
 4104TIP3    H112255   0.853   4.538   5.261
 4104TIP3    H212256   0.853   4.419   5.167
 4105TIP3   OH212257   6.728   3.796   6.214
 4105TIP3    H112258   6.794   3.748   6.263
 4105TIP3    H212259   6.662   3.730   6.192
 4106TIP3   OH212260   6.360   6.425   4.405
 4106TIP3    H112261   6.401   6.339   4.399
 4106TIP3    H212262   6.319   6.427   4.492
 4107TIP3   OH212263   6.909   5.119   1.154
 4107TIP3    H112264   6.864   5.058   1.212
 4107TIP3    H212265   7.000   5.119   1.184
 4108TIP3   OH212266   7.592   5.262   6.010
 4108TIP3    H112267   7.655   5.275   5.938
 4108TIP3    H212268   7.558   5.349   6.028
 4109TIP3   OH212269   7.204   4.226   0.555
 4109TIP3    H112270   7.181   4.172   0.479
 4109TIP3    H212271   7.171   4.177   0.630
 4110TIP3   OH212272   0.836   5.920   3.146
 4110TIP3    H112273   0.898   5.887   3.211
 4110TIP3    H212274   0.751   5.917   3.190
 4111TIP3   OH212275   1.905   6.819   6.254
 4111TIP3    H112276   1.811   6.835   6.253
 4111TIP3    H212277   1.914   6.732   6.291
 4112TIP3   OH212278   0.797   7.582   4.640
 4112TIP3    H112279   0.746   7.600   4.561
 4112TIP3    H212280   0.732   7.584   4.711
 4113TIP3   OH212281   1.502   7.284   0.778
 4113TIP3    H112282   1.441   7.215   0.805
 4113TIP3    H212283   1.588   7.243   0.784
 4114TIP3   OH212284   7.580   0.509   3.904
 4114TIP3    H112285   7.487   0.514   3.883
 4114TIP3    H212286   7.591   0.425   3.949
 4115TIP3   OH212287   2.703   0.698   2.002
 4115TIP3    H112288   2.654   0.714   1.921
 4115TIP3    H212289   2.636   0.676   2.067
 4116TIP3   OH212290   5.753   6.295   4.755
 4116TIP3    H112291   5.659   6.309   4.761
 4116TIP3    H212292   5.792   6.375   4.791
 4117TIP3   OH212293   2.842   7.694   0.306
 4117TIP3    H112294   2.872   7.785   0.315
 4117TIP3    H212295   2.801   7.691   0.220
 4118TIP3   OH212296   4.601   3.161   6.122
 4118TIP3    H112297   4.572   3.122   6.039
 4118TIP3    H212298   4.649   3.239   6.096
 4119TIP3   OH212299   1.066   6.591   5.057
 4119TIP3    H112300   1.132   6.559   4.995
 4119TIP3    H212301   1.058   6.520   5.122
 4120TIP3   OH212302   4.741   0.434   2.691
 4120TIP3    H112303   4.675   0.399   2.631
 4120TIP3    H212304   4.717   0.398   2.776
 4121TIP3   OH212305   2.811   3.301   3.276
 4121TIP3    H112306   2.820   3.206   3.269
 4121TIP3    H212307   2.755   3.325   3.202
 4122TIP3   OH212308   3.081   0.323   3.183
 4122TIP3    H112309   3.034   0.354   3.106
 4122TIP3    H212310   3.144   0.392   3.202
 4123TIP3   OH212311   2.858   7.090   4.487
 4123TIP3    H112312   2.901   7.096   4.573
 4123TIP3    H212313   2.803   7.168   4.482
 4124TIP3   OH212314   4.818   1.282   0.767
 4124TIP3    H112315   4.745   1.299   0.708
 4124TIP3    H212316   4.894   1.278   0.710
 4125TIP3   OH212317   6.320   6.618   4.816
 4125TIP3    H112318   6.257   6.683   4.784
 4125TIP3    H212319   6.313   6.545   4.755
 4126TIP3   OH212320   2.912   6.483   1.176
 4126TIP3    H112321   2.957   6.559   1.139
 4126TIP3    H212322   2.953   6.470   1.262
 4127TIP3   OH212323   2.079   4.710   1.704
 4127TIP3    H112324   2.063   4.620   1.675
 4127TIP3    H212325   2.001   4.758   1.676
 4128TIP3   OH212326   5.430   1.986   4.700
 4128TIP3    H112327   5.340   2.017   4.705
 4128TIP3    H212328   5.482   2.058   4.735
 4129TIP3   OH212329   4.811   2.022   5.291
 4129TIP3    H112330   4.745   2.085   5.261
 4129TIP3    H212331   4.847   2.062   5.370
 4130TIP3   OH212332   5.538   6.361   5.028
 4130TIP3    H112333   5.464   6.301   5.017
 4130TIP3    H212334   5.497   6.447   5.038
 4131TIP3   OH212335   0.082   3.600   6.141
 4131TIP3    H112336   0.032   3.637   6.214
 4131TIP3    H212337   0.032   3.522   6.116
 4132TIP3   OH212338   1.962   6.037   1.438
 4132TIP3    H112339   1.924   6.029   1.350
 4132TIP3    H212340   2.009   5.954   1.451
 4133TIP3   OH212341   5.428   1.095   0.456
 4133TIP3    H112342   5.379   1.139   0.525
 4133TIP3    H212343   5.382   1.120   0.375
 4134TIP3   OH212344   1.270   1.582   6.428
 4134TIP3    H112345   1.291   1.633   6.349
 4134TIP3    H212346   1.352   1.539   6.450
 4135TIP3   OH212347   4.142   1.499   1.245
 4135TIP3    H112348   4.190   1.437   1.190
 4135TIP3    H212349   4.201   1.573   1.255
 4136TIP3   OH212350   0.477   0.273   3.299
 4136TIP3    H112351   0.553   0.331   3.288
 4136TIP3    H212352   0.415   0.301   3.233
 4137TIP3   OH212353   4.545   5.418   6.394
 4137TIP3    H112354   4.581   5.346   6.445
 4137TIP3    H212355   4.469   5.381   6.349
 4138TIP3   OH212356   8.088   4.943   4.379
 4138TIP3    H112357   8.037   4.983   4.308
 4138TIP3    H212358   8.084   5.008   4.450
 4139TIP3   OH212359   1.418   6.714   2.334
 4139TIP3    H112360   1.336   6.684   2.294
 4139TIP3    H212361   1.453   6.637   2.378
 4140TIP3   OH212362   7.800   0.578   3.766
 4140TIP3    H112363   7.711   0.591   3.797
 4140TIP3    H212364   7.851   0.561   3.845
 4141TIP3   OH212365   4.616   5.745   1.187
 4141TIP3    H112366   4.683   5.764   1.253
 4141TIP3    H212367   4.665   5.735   1.105
 4142TIP3   OH212368   6.252   6.088   1.402
 4142TIP3    H112369   6.157   6.078   1.407
 4142TIP3    H212370   6.277   6.123   1.487
 4143TIP3   OH212371   2.044   1.000   0.032
 4143TIP3    H112372   1.969   1.048   0.066
 4143TIP3    H212373   2.085   1.060  -0.031
 4144TIP3   OH212374   0.984   4.686   6.168
 4144TIP3    H112375   0.895   4.717   6.154
 4144TIP3    H212376   1.015   4.734   6.245
 4145TIP3   OH212377   0.940   4.293   0.867
 4145TIP3    H112378   0.966   4.336   0.785
 4145TIP3    H212379   0.888   4.358   0.913
 4146TIP3   OH212380   6.136   2.279   5.582
 4146TIP3    H112381   6.094   2.232   5.654
 4146TIP3    H212382   6.111   2.231   5.504
 4147TIP3   OH212383   7.563   6.476   2.156
 4147TIP3    H112384   7.644   6.440   2.192
 4147TIP3    H212385   7.534   6.411   2.093
 4148TIP3   OH212386   0.931   5.866   5.136
 4148TIP3    H112387   0.952   5.867   5.229
 4148TIP3    H212388   0.940   5.958   5.108
 4149TIP3   OH212389   6.683   6.411   0.293
 4149TIP3    H112390   6.778   6.415   0.282
 4149TIP3    H212391   6.649   6.393   0.206
 4150TIP3   OH212392   5.927   4.217   6.352
 4150TIP3    H112393   5.890   4.222   6.440
 4150TIP3    H212394   5.852   4.228   6.294
 4151TIP3   OH212395   2.391   6.270   0.815
 4151TIP3    H112396   2.306   6.289   0.776
 4151TIP3    H212397   2.388   6.312   0.900
 4152TIP3   OH212398   3.575   0.059   0.904
 4152TIP3    H112399   3.550   0.040   0.995
 4152TIP3    H212400   3.632   0.135   0.910
 4153TIP3   OH212401   7.353   1.387   0.703
 4153TIP3    H112402   7.418   1.344   0.647
 4153TIP3    H212403   7.271   1.376   0.655
 4154TIP3   OH212404   2.977   2.368   0.089
 4154TIP3    H112405   2.959   2.307   0.161
 4154TIP3    H212406   2.932   2.331   0.014
 4155TIP3   OH212407   8.093   3.545   5.270
 4155TIP3    H112408   8.090   3.539   5.365
 4155TIP3    H212409   8.152   3.617   5.251
 4156TIP3   OH212410   1.134   7.004   3.217
 4156TIP3    H112411   1.058   7.059   3.239
 4156TIP3    H212412   1.097   6.915   3.210
 4157TIP3   OH212413   0.931   7.637   4.943
 4157TIP3    H112414   0.844   7.648   4.982
 4157TIP3    H212415   0.954   7.724   4.910
 4158TIP3   OH212416   1.411   0.364   6.527
 4158TIP3    H112417   1.386   0.405   6.444
 4158TIP3    H212418   1.505   0.381   6.535
 4159TIP3   OH212419   3.384   6.861   0.169
 4159TIP3    H112420   3.433   6.840   0.249
 4159TIP3    H212421   3.410   6.793   0.107
 4160TIP3   OH212422   7.813   1.962   2.809
 4160TIP3    H112423   7.770   2.034   2.855
 4160TIP3    H212424   7.857   1.912   2.878
 4161TIP3   OH212425   5.651   4.456   3.701
 4161TIP3    H112426   5.721   4.413   3.751
 4161TIP3    H212427   5.637   4.539   3.746
 4162TIP3   OH212428   1.196   7.187   3.020
 4162TIP3    H112429   1.260   7.247   3.058
 4162TIP3    H212430   1.182   7.120   3.087
 4163TIP3   OH212431   2.756   2.243   0.938
 4163TIP3    H112432   2.801   2.255   1.022
 4163TIP3    H212433   2.663   2.241   0.961
 4164TIP3   OH212434   0.674   2.582   4.141
 4164TIP3    H112435   0.737   2.645   4.178
 4164TIP3    H212436   0.611   2.567   4.211
 4165TIP3   OH212437   0.324   5.544   1.350
 4165TIP3    H112438   0.264   5.472   1.369
 4165TIP3    H212439   0.309   5.564   1.257
 4166TIP3   OH212440   2.196   2.333   4.781
 4166TIP3    H112441   2.112   2.378   4.786
 4166TIP3    H212442   2.181   2.248   4.822
 4167TIP3   OH212443   0.441   3.037   3.415
 4167TIP3    H112444   0.490   2.954   3.418
 4167TIP3    H212445   0.354   3.014   3.447
 4168TIP3   OH212446   0.747   3.141   6.550
 4168TIP3    H112447   0.843   3.146   6.552
 4168TIP3    H212448   0.718   3.219   6.597
 4169TIP3   OH212449   1.842   5.709   5.294
 4169TIP3    H112450   1.751   5.733   5.313
 4169TIP3    H212451   1.886   5.792   5.278
 4170TIP3   OH212452   7.216   3.400   3.125
 4170TIP3    H112453   7.159   3.408   3.202
 4170TIP3    H212454   7.295   3.356   3.158
 4171TIP3   OH212455   0.657   7.212   2.600
 4171TIP3    H112456   0.716   7.175   2.534
 4171TIP3    H212457   0.599   7.270   2.551
 4172TIP3   OH212458   1.310   5.891   3.174
 4172TIP3    H112459   1.309   5.879   3.269
 4172TIP3    H212460   1.227   5.935   3.155
 4173TIP3   OH212461   0.229   0.967   6.409
 4173TIP3    H112462   0.205   0.889   6.459
 4173TIP3    H212463   0.274   1.023   6.472
 4174TIP3   OH212464   1.930   3.874   4.044
 4174TIP3    H112465   2.018   3.851   4.016
 4174TIP3    H212466   1.936   3.881   4.139
 4175TIP3   OH212467   6.940   7.060   3.452
 4175TIP3    H112468   6.903   7.005   3.520
 4175TIP3    H212469   7.009   7.007   3.412
 4176TIP3   OH212470   1.180   5.641   0.082
 4176TIP3    H112471   1.085   5.640   0.078
 4176TIP3    H212472   1.201   5.682   0.166
 4177TIP3   OH212473   0.621   5.521   3.685
 4177TIP3    H112474   0.662   5.569   3.757
 4177TIP3    H212475   0.570   5.588   3.638
 4178TIP3   OH212476   2.168   3.179   2.720
 4178TIP3    H112477   2.240   3.177   2.657
 4178TIP3    H212478   2.195   3.119   2.789
 4179TIP3   OH212479   1.139   2.352   2.933
 4179TIP3    H112480   1.055   2.389   2.961
 4179TIP3    H212481   1.203   2.388   2.995
 4180TIP3   OH212482   6.691   6.061   2.370
 4180TIP3    H112483   6.781   6.056   2.337
 4180TIP3    H212484   6.694   6.128   2.439
 4181TIP3   OH212485   7.055   7.630   1.487
 4181TIP3    H112486   7.048   7.566   1.417
 4181TIP3    H212487   6.968   7.632   1.527
 4182TIP3   OH212488   3.568   7.682   2.820
 4182TIP3    H112489   3.511   7.693   2.896
 4182TIP3    H212490   3.653   7.713   2.848
 4183TIP3   OH212491   6.113   6.726   5.739
 4183TIP3    H112492   6.051   6.742   5.668
 4183TIP3    H212493   6.183   6.674   5.699
 4184TIP3   OH212494   7.910   4.266   1.132
 4184TIP3    H112495   7.815   4.275   1.138
 4184TIP3    H212496   7.924   4.214   1.053
 4185TIP3   OH212497   7.717   5.029   0.997
 4185TIP3    H112498   7.716   5.120   0.966
 4185TIP3    H212499   7.678   5.033   1.085
 4186TIP3   OH212500   3.617   6.245   6.164
 4186TIP3    H112501   3.523   6.228   6.172
 4186TIP3    H212502   3.654   6.208   6.244
 4187TIP3   OH212503   3.713   3.723   3.834
 4187TIP3    H112504   3.688   3.689   3.920
 4187TIP3    H212505   3.645   3.691   3.775
 4188TIP3   OH212506   5.396   5.549   4.847
 4188TIP3    H112507   5.485   5.550   4.811
 4188TIP3    H212508   5.342   5.511   4.778
 4189TIP3   OH212509   2.318   4.077   4.067
 4189TIP3    H112510   2.412   4.088   4.054
 4189TIP3    H212511   2.279   4.093   3.982
 4190TIP3   OH212512   2.723   2.684   6.665
 4190TIP3    H112513   2.724   2.595   6.631
 4190TIP3    H212514   2.698   2.739   6.591
 4191TIP3   OH212515   6.000   5.253   2.956
 4191TIP3    H112516   6.032   5.170   2.993
 4191TIP3    H212517   6.008   5.241   2.861
 4192TIP3   OH212518   3.949   2.987   2.916
 4192TIP3    H112519   3.899   2.926   2.861
 4192TIP3    H212520   3.938   2.953   3.005
 4193TIP3   OH212521   2.963   3.986   0.060
 4193TIP3    H112522   2.893   3.923   0.078
 4193TIP3    H212523   2.941   4.062   0.114
 4194TIP3   OH212524   2.213   2.476   3.774
 4194TIP3    H112525   2.175   2.433   3.697
 4194TIP3    H212526   2.188   2.568   3.765
 4195TIP3   OH212527   4.343   4.241   3.870
 4195TIP3    H112528   4.398   4.184   3.816
 4195TIP3    H212529   4.258   4.197   3.873
 4196TIP3   OH212530   2.214   2.439   4.247
 4196TIP3    H112531   2.236   2.501   4.316
 4196TIP3    H212532   2.128   2.404   4.272
 4197TIP3   OH212533   3.820   7.791   2.905
 4197TIP3    H112534   3.819   7.883   2.931
 4197TIP3    H212535   3.890   7.752   2.957
 4198TIP3   OH212536   4.138   3.396   3.968
 4198TIP3    H112537   4.225   3.437   3.977
 4198TIP3    H212538   4.080   3.468   3.943
 4199TIP3   OH212539   2.751   3.286   2.106
 4199TIP3    H112540   2.690   3.216   2.129
 4199TIP3    H212541   2.833   3.261   2.148
 4200TIP3   OH212542   3.911   6.833   0.180
 4200TIP3    H112543   3.946   6.883   0.105
 4200TIP3    H212544   3.891   6.747   0.143
 4201TIP3   OH212545   7.920   0.712   4.124
 4201TIP3    H112546   7.984   0.783   4.116
 4201TIP3    H212547   7.840   0.747   4.087
 4202TIP3   OH212548   3.401   5.323   5.389
 4202TIP3    H112549   3.445   5.360   5.312
 4202TIP3    H212550   3.420   5.384   5.459
 4203TIP3   OH212551   3.429   6.745   3.407
 4203TIP3    H112552   3.480   6.666   3.424
 4203TIP3    H212553   3.357   6.741   3.470
 4204TIP3   OH212554   1.777   1.790   0.033
 4204TIP3    H112555   1.811   1.766   0.119
 4204TIP3    H212556   1.815   1.877   0.017
 4205TIP3   OH212557   3.973   4.648   0.092
 4205TIP3    H112558   3.904   4.702   0.129
 4205TIP3    H212559   4.025   4.708   0.038
 4206TIP3   OH212560   6.068   4.552   4.172
 4206TIP3    H112561   5.994   4.491   4.170
 4206TIP3    H212562   6.029   4.638   4.158
 4207TIP3   OH212563   8.000   5.676   2.400
 4207TIP3    H112564   7.936   5.680   2.329
 4207TIP3    H212565   8.082   5.705   2.361
 4208TIP3   OH212566   4.343   4.318   0.659
 4208TIP3    H112567   4.250   4.309   0.638
 4208TIP3    H212568   4.344   4.339   0.752
 4209TIP3   OH212569   6.437   0.968   6.410
 4209TIP3    H112570   6.488   1.045   6.434
 4209TIP3    H212571   6.346   0.997   6.414
 4210TIP3   OH212572   5.943   4.131   0.547
 4210TIP3    H112573   5.906   4.126   0.636
 4210TIP3    H212574   5.867   4.120   0.489
 4211TIP3   OH212575   8.257   3.744   5.074
 4211TIP3    H112576   8.295   3.656   5.085
 4211TIP3    H212577   8.331   3.803   5.090
 4212TIP3   OH212578   8.055   5.521   6.555
 4212TIP3    H112579   7.998   5.561   6.620
 4212TIP3    H212580   8.114   5.466   6.605
 4213TIP3   OH212581   5.577   7.028   0.311
 4213TIP3    H112582   5.643   7.000   0.247
 4213TIP3    H212583   5.626   7.079   0.375
 4214TIP3   OH212584   2.969   3.049   6.423
 4214TIP3    H112585   2.880   3.044   6.457
 4214TIP3    H212586   3.015   2.976   6.464
 4215TIP3   OH212587   6.836   0.291   1.929
 4215TIP3    H112588   6.850   0.360   1.994
 4215TIP3    H212589   6.884   0.321   1.852
 4216TIP3   OH212590   8.243   3.220   1.207
 4216TIP3    H112591   8.323   3.215   1.155
 4216TIP3    H212592   8.176   3.252   1.147
 4217TIP3   OH212593   1.208   3.792   3.178
 4217TIP3    H112594   1.147   3.847   3.227
 4217TIP3    H212595   1.272   3.764   3.244
 4218TIP3   OH212596   3.954   3.885   5.481
 4218TIP3    H112597   3.954   3.851   5.392
 4218TIP3    H212598   3.861   3.894   5.502
 4219TIP3   OH212599   4.088   7.629   1.056
 4219TIP3    H112600   3.992   7.626   1.061
 4219TIP3    H212601   4.117   7.600   1.143
 4220TIP3   OH212602   2.416   7.085   6.374
 4220TIP3    H112603   2.421   7.024   6.300
 4220TIP3    H212604   2.413   7.028   6.451
 4221TIP3   OH212605   5.508   5.622   3.605
 4221TIP3    H112606   5.471   5.685   3.543
 4221TIP3    H212607   5.458   5.636   3.686
 4222TIP3   OH212608   5.362   4.075   0.262
 4222TIP3    H112609   5.421   4.123   0.320
 4222TIP3    H212610   5.279   4.123   0.267
 4223TIP3   OH212611   0.580   0.883   3.407
 4223TIP3    H112612   0.656   0.870   3.351
 4223TIP3    H212613   0.587   0.814   3.473
 4224TIP3   OH212614   7.995   0.970   0.310
 4224TIP3    H112615   7.970   0.887   0.351
 4224TIP3    H212616   7.996   0.951   0.216
 4225TIP3   OH212617   5.214   0.942   6.419
 4225TIP3    H112618   5.134   0.960   6.467
 4225TIP3    H212619   5.198   0.973   6.330
 4226TIP3   OH212620   0.768   6.436   4.692
 4226TIP3    H112621   0.858   6.410   4.715
 4226TIP3    H212622   0.751   6.513   4.747
 4227TIP3   OH212623   4.557   1.748   5.071
 4227TIP3    H112624   4.636   1.703   5.099
 4227TIP3    H212625   4.587   1.810   5.005
 4228TIP3   OH212626   0.523   1.715   3.070
 4228TIP3    H112627   0.454   1.781   3.080
 4228TIP3    H212628   0.600   1.766   3.046
 4229TIP3   OH212629   1.704   7.497   1.490
 4229TIP3    H112630   1.695   7.504   1.395
 4229TIP3    H212631   1.798   7.491   1.505
 4230TIP3   OH212632   4.631   1.242   3.994
 4230TIP3    H112633   4.585   1.223   3.913
 4230TIP3    H212634   4.572   1.299   4.043
 4231TIP3   OH212635   7.457   0.775   5.867
 4231TIP3    H112636   7.471   0.770   5.772
 4231TIP3    H212637   7.398   0.850   5.878
 4232TIP3   OH212638   2.313   1.697   2.105
 4232TIP3    H112639   2.403   1.729   2.103
 4232TIP3    H212640   2.312   1.631   2.174
 4233TIP3   OH212641   7.407   5.457   1.738
 4233TIP3    H112642   7.398   5.438   1.831
 4233TIP3    H212643   7.478   5.521   1.732
 4234TIP3   OH212644   1.424   2.697   5.995
 4234TIP3    H112645   1.505   2.655   5.963
 4234TIP3    H212646   1.356   2.665   5.936
 4235TIP3   OH212647   3.325   0.992   4.183
 4235TIP3    H112648   3.298   0.900   4.190
 4235TIP3    H212649   3.336   1.021   4.274
 4236TIP3   OH212650   3.318   1.310   0.579
 4236TIP3    H112651   3.258   1.371   0.535
 4236TIP3    H212652   3.400   1.316   0.530
 4237TIP3   OH212653   6.096   2.943   6.083
 4237TIP3    H112654   6.054   2.897   6.155
 4237TIP3    H212655   6.124   2.874   6.023
 4238TIP3   OH212656   0.729   6.108   6.666
 4238TIP3    H112657   0.699   6.174   6.729
 4238TIP3    H212658   0.794   6.153   6.612
 4239TIP3   OH212659   3.550   0.575   6.652
 4239TIP3    H112660   3.572   0.646   6.592
 4239TIP3    H212661   3.498   0.515   6.600
 4240TIP3   OH212662   2.646   1.160   4.658
 4240TIP3    H112663   2.675   1.090   4.600
 4240TIP3    H212664   2.727   1.196   4.695
 4241TIP3   OH212665   6.949   5.914   6.038
 4241TIP3    H112666   6.907   5.854   5.977
 4241TIP3    H212667   7.021   5.863   6.077
 4242TIP3   OH212668   6.564   2.646   0.363
 4242TIP3    H112669   6.641   2.661   0.309
 4242TIP3    H212670   6.537   2.733   0.391
 4243TIP3   OH212671   3.771   5.812   0.119
 4243TIP3    H112672   3.752   5.732   0.169
 4243TIP3    H212673   3.809   5.781   0.037
 4244TIP3   OH212674   7.042   4.535   1.629
 4244TIP3    H112675   7.051   4.605   1.564
 4244TIP3    H212676   6.999   4.576   1.703
 4245TIP3   OH212677   4.864   0.406   1.415
 4245TIP3    H112678   4.959   0.404   1.423
 4245TIP3    H212679   4.839   0.494   1.442
 4246TIP3   OH212680   1.100   7.800   1.081
 4246TIP3    H112681   1.175   7.813   1.138
 4246TIP3    H212682   1.025   7.832   1.132
 4247TIP3   OH212683   5.542   7.701   2.516
 4247TIP3    H112684   5.590   7.679   2.596
 4247TIP3    H212685   5.451   7.680   2.536
 4248TIP3   OH212686   4.128   4.245   3.491
 4248TIP3    H112687   4.170   4.331   3.505
 4248TIP3    H212688   4.037   4.266   3.469
 4249TIP3   OH212689   6.869   0.408   1.543
 4249TIP3    H112690   6.838   0.362   1.465
 4249TIP3    H212691   6.964   0.392   1.544
 4250TIP3   OH212692   1.763   4.033   2.287
 4250TIP3    H112693   1.812   3.951   2.288
 4250TIP3    H212694   1.733   4.043   2.197
 4251TIP3   OH212695   5.431   7.442   1.109
 4251TIP3    H112696   5.413   7.522   1.061
 4251TIP3    H212697   5.393   7.372   1.056
 4252TIP3   OH212698   8.096   6.794   3.711
 4252TIP3    H112699   8.146   6.864   3.754
 4252TIP3    H212700   8.112   6.717   3.765
 4253TIP3   OH212701   4.288   5.529   2.119
 4253TIP3    H112702   4.212   5.537   2.177
 4253TIP3    H212703   4.269   5.588   2.046
 4254TIP3   OH212704   3.209   3.805   5.656
 4254TIP3    H112705   3.290   3.852   5.637
 4254TIP3    H212706   3.168   3.855   5.727
 4255TIP3   OH212707   2.919   0.716   0.584
 4255TIP3    H112708   2.992   0.690   0.527
 4255TIP3    H212709   2.955   0.710   0.672
 4256TIP3   OH212710   1.173   2.113   2.722
 4256TIP3    H112711   1.091   2.161   2.707
 4256TIP3    H212712   1.206   2.149   2.805
 4257TIP3   OH212713   2.771   0.922   3.673
 4257TIP3    H112714   2.777   1.017   3.666
 4257TIP3    H212715   2.678   0.904   3.677
 4258TIP3   OH212716   1.303   6.405   4.886
 4258TIP3    H112717   1.385   6.446   4.860
 4258TIP3    H212718   1.325   6.312   4.896
 4259TIP3   OH212719   3.746   5.043   4.805
 4259TIP3    H112720   3.763   5.092   4.885
 4259TIP3    H212721   3.652   5.055   4.790
 4260TIP3   OH212722   7.995   0.608   1.416
 4260TIP3    H112723   7.983   0.541   1.484
 4260TIP3    H212724   7.910   0.652   1.411
 4261TIP3   OH212725   0.882   6.512   1.545
 4261TIP3    H112726   0.882   6.430   1.594
 4261TIP3    H212727   0.892   6.580   1.611
 4262TIP3   OH212728   0.659   4.596   3.083
 4262TIP3    H112729   0.737   4.628   3.130
 4262TIP3    H212730   0.661   4.642   2.999
 4263TIP3   OH212731   0.746   0.304   0.807
 4263TIP3    H112732   0.685   0.325   0.737
 4263TIP3    H212733   0.810   0.245   0.766
 4264TIP3   OH212734   5.804   7.163   4.737
 4264TIP3    H112735   5.820   7.138   4.646
 4264TIP3    H212736   5.811   7.081   4.786
 4265TIP3   OH212737   1.818   5.847   4.643
 4265TIP3    H112738   1.800   5.922   4.700
 4265TIP3    H212739   1.777   5.871   4.560
 4266TIP3   OH212740   1.220   2.856   6.411
 4266TIP3    H112741   1.198   2.787   6.348
 4266TIP3    H212742   1.254   2.927   6.357
 4267TIP3   OH212743   6.776   6.894   3.224
 4267TIP3    H112744   6.829   6.910   3.146
 4267TIP3    H212745   6.840   6.890   3.295
 4268TIP3   OH212746   4.293   2.579   3.704
 4268TIP3    H112747   4.288   2.670   3.675
 4268TIP3    H212748   4.202   2.551   3.713
 4269TIP3   OH212749   6.690   7.757   4.394
 4269TIP3    H112750   6.697   7.695   4.466
 4269TIP3    H212751   6.610   7.730   4.348
 4270TIP3   OH212752   2.423   2.834   4.525
 4270TIP3    H112753   2.438   2.823   4.619
 4270TIP3    H212754   2.369   2.913   4.518
 4271TIP3   OH212755   3.806   0.081   4.808
 4271TIP3    H112756   3.881   0.137   4.788
 4271TIP3    H212757   3.732   0.142   4.815
 4272TIP3   OH212758   6.021   6.616   4.039
 4272TIP3    H112759   6.023   6.653   4.127
 4272TIP3    H212760   5.995   6.524   4.052
 4273TIP3   OH212761   1.394   6.208   2.516
 4273TIP3    H112762   1.398   6.139   2.450
 4273TIP3    H212763   1.464   6.187   2.577
 4274TIP3   OH212764   5.588   1.910   5.041
 4274TIP3    H112765   5.507   1.870   5.010
 4274TIP3    H212766   5.584   1.902   5.137
 4275TIP3   OH212767   2.232   3.716   4.464
 4275TIP3    H112768   2.218   3.794   4.412
 4275TIP3    H212769   2.144   3.685   4.485
 4276TIP3   OH212770   4.798   4.173   3.148
 4276TIP3    H112771   4.720   4.219   3.180
 4276TIP3    H212772   4.781   4.160   3.054
 4277TIP3   OH212773   3.883   0.172   5.166
 4277TIP3    H112774   3.862   0.251   5.116
 4277TIP3    H212775   3.801   0.122   5.167
 4278TIP3   OH212776   1.359   7.081   0.892
 4278TIP3    H112777   1.295   7.016   0.862
 4278TIP3    H212778   1.309   7.137   0.952
 4279TIP3   OH212779   6.224   7.515   0.772
 4279TIP3    H112780   6.248   7.479   0.687
 4279TIP3    H212781   6.244   7.608   0.766
 4280TIP3   OH212782   1.262   4.782   3.962
 4280TIP3    H112783   1.286   4.754   4.050
 4280TIP3    H212784   1.336   4.758   3.907
 4281TIP3   OH212785   8.109   4.157   4.404
 4281TIP3    H112786   8.156   4.210   4.341
 4281TIP3    H212787   8.024   4.140   4.363
 4282TIP3   OH212788   2.535   5.072   5.630
 4282TIP3    H112789   2.604   5.115   5.578
 4282TIP3    H212790   2.572   4.986   5.651
 4283TIP3   OH212791   0.692   5.730   1.439
 4283TIP3    H112792   0.659   5.641   1.446
 4283TIP3    H212793   0.699   5.760   1.530
 4284TIP3   OH212794   2.744   7.105   3.665
 4284TIP3    H112795   2.755   7.110   3.570
 4284TIP3    H212796   2.656   7.141   3.680
 4285TIP3   OH212797   7.409   1.009   5.444
 4285TIP3    H112798   7.339   1.027   5.381
 4285TIP3    H212799   7.482   1.065   5.414
 4286TIP3   OH212800   0.590   6.946   6.629
 4286TIP3    H112801   0.601   6.971   6.720
 4286TIP3    H212802   0.616   6.854   6.627
 4287TIP3   OH212803   4.045  -0.013   4.531
 4287TIP3    H112804   4.124  -0.001   4.479
 4287TIP3    H212805   3.996   0.068   4.518
 4288TIP3   OH212806   1.773   0.923   5.256
 4288TIP3    H112807   1.837   0.994   5.247
 4288TIP3    H212808   1.808   0.852   5.202
 4289TIP3   OH212809   1.744   1.794   2.918
 4289TIP3    H112810   1.677   1.744   2.872
 4289TIP3    H212811   1.811   1.811   2.852
 4290TIP3   OH212812   7.520   1.860   0.336
 4290TIP3    H112813   7.574   1.837   0.412
 4290TIP3    H212814   7.531   1.786   0.277
 4291TIP3   OH212815   4.925   3.129   6.250
 4291TIP3    H112816   4.881   3.163   6.327
 4291TIP3    H212817   4.934   3.035   6.267
 4292TIP3   OH212818   0.925   2.546   6.401
 4292TIP3    H112819   0.861   2.476   6.390
 4292TIP3    H212820   0.898   2.614   6.339
 4293TIP3   OH212821   2.360   4.062   5.445
 4293TIP3    H112822   2.303   4.124   5.400
 4293TIP3    H212823   2.370   4.097   5.533
 4294TIP3   OH212824   2.816   6.721   6.704
 4294TIP3    H112825   2.737   6.775   6.710
 4294TIP3    H212826   2.885   6.776   6.741
 4295TIP3   OH212827   4.628   7.092   2.279
 4295TIP3    H112828   4.573   7.165   2.249
 4295TIP3    H212829   4.566   7.020   2.293
 4296TIP3   OH212830   6.335   5.969   2.353
 4296TIP3    H112831   6.319   5.920   2.434
 4296TIP3    H212832   6.301   5.912   2.284
 4297TIP3   OH212833   1.517   2.132   0.545
 4297TIP3    H112834   1.573   2.091   0.479
 4297TIP3    H212835   1.437   2.154   0.498
 4298TIP3   OH212836   1.204   1.916   2.165
 4298TIP3    H112837   1.296   1.942   2.163
 4298TIP3    H212838   1.188   1.877   2.079
 4299TIP3   OH212839   8.061   0.162   3.352
 4299TIP3    H112840   8.101   0.231   3.405
 4299TIP3    H212841   8.005   0.114   3.414
 4300TIP3   OH212842   1.864   5.903   4.956
 4300TIP3    H112843   1.804   5.828   4.947
 4300TIP3    H212844   1.855   5.951   4.873
 4301TIP3   OH212845   3.714   0.812   2.221
 4301TIP3    H112846   3.659   0.819   2.143
 4301TIP3    H212847   3.766   0.733   2.206
 4302TIP3   OH212848   3.581   5.897   0.388
 4302TIP3    H112849   3.509   5.960   0.382
 4302TIP3    H212850   3.607   5.882   0.297
 4303TIP3   OH212851   0.434   0.892   0.542
 4303TIP3    H112852   0.391   0.832   0.603
 4303TIP3    H212853   0.375   0.967   0.537
 4304TIP3   OH212854   5.442   3.594   5.016
 4304TIP3    H112855   5.407   3.588   4.927
 4304TIP3    H212856   5.428   3.507   5.054
 4305TIP3   OH212857   6.948   6.879   0.826
 4305TIP3    H112858   6.881   6.837   0.773
 4305TIP3    H212859   6.990   6.807   0.872
 4306TIP3   OH212860   4.358   5.146   2.966
 4306TIP3    H112861   4.327   5.073   2.912
 4306TIP3    H212862   4.322   5.224   2.923
 4307TIP3   OH212863   1.831   4.810   1.698
 4307TIP3    H112864   1.771   4.815   1.772
 4307TIP3    H212865   1.827   4.719   1.669
 4308TIP3   OH212866   4.913   3.804   6.547
 4308TIP3    H112867   4.983   3.838   6.603
 4308TIP3    H212868   4.884   3.724   6.592
 4309TIP3   OH212869   4.204   0.565   6.104
 4309TIP3    H112870   4.231   0.648   6.063
 4309TIP3    H212871   4.285   0.529   6.139
 4310TIP3   OH212872   3.778   3.098   4.709
 4310TIP3    H112873   3.841   3.170   4.709
 4310TIP3    H212874   3.715   3.121   4.640
 4311TIP3   OH212875   3.946   6.769   2.308
 4311TIP3    H112876   3.906   6.851   2.337
 4311TIP3    H212877   4.012   6.796   2.243
 4312TIP3   OH212878   0.201   3.308   1.705
 4312TIP3    H112879   0.151   3.295   1.625
 4312TIP3    H212880   0.292   3.319   1.676
 4313TIP3   OH212881   6.537   0.294   2.628
 4313TIP3    H112882   6.479   0.323   2.697
 4313TIP3    H212883   6.597   0.367   2.613
 4314TIP3   OH212884   0.636   4.415   5.610
 4314TIP3    H112885   0.603   4.396   5.522
 4314TIP3    H212886   0.699   4.486   5.596
 4315TIP3   OH212887   6.470   6.446   3.670
 4315TIP3    H112888   6.422   6.365   3.686
 4315TIP3    H212889   6.496   6.441   3.578
 4316TIP3   OH212890   2.893   0.682   3.109
 4316TIP3    H112891   2.903   0.759   3.054
 4316TIP3    H212892   2.907   0.713   3.198
 4317TIP3   OH212893   3.605   4.098  -0.004
 4317TIP3    H112894   3.687   4.144   0.013
 4317TIP3    H212895   3.568   4.083   0.083
 4318TIP3   OH212896   7.932   1.604   5.040
 4318TIP3    H112897   7.894   1.533   4.988
 4318TIP3    H212898   8.025   1.582   5.045
 4319TIP3   OH212899   5.313   6.696   1.191
 4319TIP3    H112900   5.224   6.662   1.188
 4319TIP3    H212901   5.309   6.769   1.252
 4320TIP3   OH212902   4.696   6.302   5.077
 4320TIP3    H112903   4.702   6.390   5.040
 4320TIP3    H212904   4.644   6.253   5.014
 4321TIP3   OH212905   0.060   1.669   6.295
 4321TIP3    H112906   0.129   1.611   6.263
 4321TIP3    H212907   0.002   1.613   6.347
 4322TIP3   OH212908   2.087   2.510   1.176
 4322TIP3    H112909   2.003   2.552   1.158
 4322TIP3    H212910   2.093   2.441   1.109
 4323TIP3   OH212911   6.918   5.385   3.173
 4323TIP3    H112912   6.920   5.404   3.079
 4323TIP3    H212913   6.957   5.298   3.180
 4324TIP3   OH212914   0.333   7.226   0.225
 4324TIP3    H112915   0.384   7.147   0.237
 4324TIP3    H212916   0.352   7.254   0.135
 4325TIP3   OH212917   8.039   5.490   1.529
 4325TIP3    H112918   8.019   5.445   1.611
 4325TIP3    H212919   7.971   5.460   1.469
 4326TIP3   OH212920   8.088   5.970   4.573
 4326TIP3    H112921   8.111   5.999   4.661
 4326TIP3    H212922   7.992   5.974   4.571
 4327TIP3   OH212923   2.962   0.856   2.479
 4327TIP3    H112924   2.876   0.831   2.446
 4327TIP3    H212925   3.013   0.876   2.400
 4328TIP3   OH212926   2.090   6.815   0.456
 4328TIP3    H112927   2.153   6.747   0.480
 4328TIP3    H212928   2.019   6.768   0.414
 4329TIP3   OH212929   4.760   5.165   1.818
 4329TIP3    H112930   4.687   5.126   1.865
 4329TIP3    H212931   4.819   5.091   1.800
 4330TIP3   OH212932   3.947   4.786   1.371
 4330TIP3    H112933   3.852   4.779   1.370
 4330TIP3    H212934   3.976   4.711   1.423
 4331TIP3   OH212935   7.486   6.678   0.602
 4331TIP3    H112936   7.453   6.590   0.581
 4331TIP3    H212937   7.407   6.731   0.612
 4332TIP3   OH212938   2.921   4.044   0.518
 4332TIP3    H112939   2.840   4.009   0.481
 4332TIP3    H212940   2.893   4.092   0.596
 4333TIP3   OH212941   7.246   7.845   2.021
 4333TIP3    H112942   7.294   7.853   1.939
 4333TIP3    H212943   7.305   7.797   2.079
 4334TIP3   OH212944   1.569   6.194   2.713
 4334TIP3    H112945   1.568   6.278   2.759
 4334TIP3    H212946   1.605   6.133   2.777
 4335TIP3   OH212947   3.731   0.650   6.339
 4335TIP3    H112948   3.762   0.561   6.356
 4335TIP3    H212949   3.754   0.667   6.248
 4336TIP3   OH212950   0.867   4.218   1.204
 4336TIP3    H112951   0.807   4.166   1.256
 4336TIP3    H212952   0.911   4.154   1.147
 4337TIP3   OH212953   1.931   7.051   1.395
 4337TIP3    H112954   1.910   6.996   1.470
 4337TIP3    H212955   1.883   7.012   1.322
 4338TIP3   OH212956   8.029   3.003   4.029
 4338TIP3    H112957   8.064   3.081   4.073
 4338TIP3    H212958   8.105   2.945   4.020
 4339TIP3   OH212959   4.341   0.462   0.405
 4339TIP3    H112960   4.387   0.378   0.416
 4339TIP3    H212961   4.306   0.482   0.491
 4340TIP3   OH212962   0.754   0.475   1.846
 4340TIP3    H112963   0.678   0.530   1.866
 4340TIP3    H212964   0.723   0.385   1.860
 4341TIP3   OH212965   5.146   6.661   3.394
 4341TIP3    H112966   5.068   6.618   3.429
 4341TIP3    H212967   5.165   6.614   3.313
 4342TIP3   OH212968   2.968   3.725   1.893
 4342TIP3    H112969   2.888   3.673   1.886
 4342TIP3    H212970   3.012   3.691   1.971
 4343TIP3   OH212971   0.749   2.616   2.482
 4343TIP3    H112972   0.660   2.582   2.486
 4343TIP3    H212973   0.784   2.585   2.399
 4344TIP3   OH212974   2.189   0.585   0.353
 4344TIP3    H112975   2.205   0.661   0.296
 4344TIP3    H212976   2.260   0.525   0.333
 4345TIP3   OH212977   2.156   2.784   4.684
 4345TIP3    H112978   2.147   2.831   4.601
 4345TIP3    H212979   2.191   2.850   4.744
 4346TIP3   OH212980   2.415   4.656   5.644
 4346TIP3    H112981   2.332   4.689   5.610
 4346TIP3    H212982   2.479   4.677   5.576
 4347TIP3   OH212983   0.768   7.698   1.973
 4347TIP3    H112984   0.759   7.793   1.978
 4347TIP3    H212985   0.843   7.684   1.915
 4348TIP3   OH212986   6.600   2.131   5.554
 4348TIP3    H112987   6.651   2.050   5.560
 4348TIP3    H212988   6.512   2.105   5.583
 4349TIP3   OH212989   6.534   6.396   5.706
 4349TIP3    H112990   6.495   6.336   5.643
 4349TIP3    H212991   6.611   6.431   5.663
 4350TIP3   OH212992   5.137   3.383   2.083
 4350TIP3    H112993   5.147   3.472   2.049
 4350TIP3    H212994   5.179   3.327   2.018
 4351TIP3   OH212995   6.067   0.699   0.607
 4351TIP3    H112996   5.997   0.762   0.593
 4351TIP3    H212997   6.147   0.744   0.580
 4352TIP3   OH212998   0.093   0.440   1.264
 4352TIP3    H112999   0.027   0.460   1.198
 4352TIP3    H213000   0.068   0.354   1.297
 4353TIP3   OH213001   3.837   0.683   6.765
 4353TIP3    H113002   3.751   0.645   6.747
 4353TIP3    H213003   3.884   0.614   6.811
 4354TIP3   OH213004   7.107   6.485   4.222
 4354TIP3    H113005   7.088   6.559   4.279
 4354TIP3    H213006   7.203   6.478   4.223
 4355TIP3   OH213007   3.815   5.123   5.505
 4355TIP3    H113008   3.818   5.141   5.599
 4355TIP3    H213009   3.792   5.030   5.499
 4356TIP3   OH213010   7.393   3.057   2.635
 4356TIP3    H113011   7.394   3.080   2.728
 4356TIP3    H213012   7.331   2.985   2.629
 4357TIP3   OH213013   4.040   0.049   0.366
 4357TIP3    H113014   4.046   0.046   0.461
 4357TIP3    H213015   4.083  -0.031   0.336
 4358TIP3   OH213016   2.412   0.362   2.600
 4358TIP3    H113017   2.323   0.396   2.587
 4358TIP3    H213018   2.442   0.341   2.512
 4359TIP3   OH213019   2.038   5.598   1.051
 4359TIP3    H113020   2.018   5.507   1.030
 4359TIP3    H213021   2.103   5.594   1.121
 4360TIP3   OH213022   0.708   3.187   0.456
 4360TIP3    H113023   0.626   3.143   0.481
 4360TIP3    H213024   0.680   3.267   0.412
 4361TIP3   OH213025   0.039   5.632   3.941
 4361TIP3    H113026  -0.016   5.623   3.863
 4361TIP3    H213027   0.072   5.544   3.957
 4362TIP3   OH213028   5.505   6.652   5.276
 4362TIP3    H113029   5.441   6.581   5.273
 4362TIP3    H213030   5.571   6.628   5.210
 4363TIP3   OH213031   3.248   7.180   5.746
 4363TIP3    H113032   3.217   7.104   5.697
 4363TIP3    H213033   3.205   7.255   5.705
 4364TIP3   OH213034   6.975   5.653   3.542
 4364TIP3    H113035   7.032   5.695   3.478
 4364TIP3    H213036   6.925   5.724   3.581
 4365TIP3   OH213037   8.050   0.809   5.517
 4365TIP3    H113038   8.078   0.751   5.587
 4365TIP3    H213039   8.000   0.878   5.561
 4366TIP3   OH213040   1.430   3.208   0.557
 4366TIP3    H113041   1.338   3.196   0.578
 4366TIP3    H213042   1.453   3.293   0.595
 4367TIP3   OH213043   2.099   4.267   0.321
 4367TIP3    H113044   2.095   4.277   0.416
 4367TIP3    H213045   2.127   4.176   0.308
 4368TIP3   OH213046   5.260   0.789   5.986
 4368TIP3    H113047   5.300   0.867   6.025
 4368TIP3    H213048   5.174   0.784   6.027
 4369TIP3   OH213049   0.000   4.528   6.405
 4369TIP3    H113050   0.025   4.478   6.327
 4369TIP3    H213051   0.083   4.562   6.439
 4370TIP3   OH213052   5.831   1.991   5.293
 4370TIP3    H113053   5.838   1.938   5.214
 4370TIP3    H213054   5.747   2.036   5.284
 4371TIP3   OH213055   6.356   4.010   4.372
 4371TIP3    H113056   6.358   4.043   4.282
 4371TIP3    H213057   6.301   3.932   4.369
 4372TIP3   OH213058   3.521   0.525   4.817
 4372TIP3    H113059   3.561   0.590   4.875
 4372TIP3    H213060   3.433   0.513   4.852
 4373TIP3   OH213061   0.480   3.385   2.730
 4373TIP3    H113062   0.394   3.349   2.753
 4373TIP3    H213063   0.505   3.438   2.806
 4374TIP3   OH213064   7.539   2.193   0.602
 4374TIP3    H113065   7.473   2.124   0.594
 4374TIP3    H213066   7.500   2.256   0.662
 4375TIP3   OH213067   5.734   0.082   5.336
 4375TIP3    H113068   5.720   0.036   5.419
 4375TIP3    H213069   5.715   0.017   5.269
 4376TIP3   OH213070   6.490   7.390   5.912
 4376TIP3    H113071   6.482   7.326   5.984
 4376TIP3    H213072   6.442   7.350   5.840
 4377TIP3   OH213073   2.979   0.022   3.551
 4377TIP3    H113074   3.043  -0.032   3.597
 4377TIP3    H213075   2.894  -0.008   3.583
 4378TIP3   OH213076   4.608   0.593   0.340
 4378TIP3    H113077   4.537   0.589   0.275
 4378TIP3    H213078   4.682   0.550   0.296
 4379TIP3   OH213079   3.865   6.520   3.109
 4379TIP3    H113080   3.831   6.594   3.059
 4379TIP3    H213081   3.953   6.505   3.074
 4380TIP3   OH213082   0.499   6.979   5.651
 4380TIP3    H113083   0.454   7.059   5.680
 4380TIP3    H213084   0.514   6.930   5.731
 4381TIP3   OH213085   4.600   3.007   0.437
 4381TIP3    H113086   4.681   3.029   0.392
 4381TIP3    H213087   4.628   2.975   0.522
 4382TIP3   OH213088   6.353   3.054   2.733
 4382TIP3    H113089   6.413   3.115   2.692
 4382TIP3    H213090   6.390   2.968   2.715
 4383TIP3   OH213091   7.637   4.359   1.126
 4383TIP3    H113092   7.558   4.387   1.080
 4383TIP3    H213093   7.606   4.331   1.212
 4384TIP3   OH213094   7.973   0.485   4.011
 4384TIP3    H113095   7.962   0.564   4.065
 4384TIP3    H213096   8.054   0.501   3.962
 4385TIP3   OH213097   3.073   3.289   5.669
 4385TIP3    H113098   3.149   3.279   5.727
 4385TIP3    H213099   3.027   3.205   5.675
 4386TIP3   OH213100   4.096   0.373   5.893
 4386TIP3    H113101   4.045   0.427   5.833
 4386TIP3    H213102   4.139   0.436   5.951
 4387TIP3   OH213103   7.881   3.415   0.261
 4387TIP3    H113104   7.820   3.347   0.288
 4387TIP3    H213105   7.826   3.488   0.232
 4388TIP3   OH213106   7.759   1.312   3.733
 4388TIP3    H113107   7.677   1.275   3.700
 4388TIP3    H213108   7.754   1.405   3.709
 4389TIP3   OH213109   1.574   2.710   1.706
 4389TIP3    H113110   1.556   2.617   1.693
 4389TIP3    H213111   1.646   2.712   1.768
 4390TIP3   OH213112   5.771   0.304   6.729
 4390TIP3    H113113   5.768   0.377   6.667
 4390TIP3    H213114   5.758   0.345   6.814
 4391TIP3   OH213115   0.528   5.012   4.669
 4391TIP3    H113116   0.485   5.013   4.583
 4391TIP3    H213117   0.620   4.992   4.648
 4392TIP3   OH213118   0.555   0.811   6.363
 4392TIP3    H113119   0.589   0.755   6.293
 4392TIP3    H213120   0.556   0.754   6.440
 4393TIP3   OH213121   0.187   5.520   3.314
 4393TIP3    H113122   0.101   5.491   3.283
 4393TIP3    H213123   0.173   5.539   3.407
 4394TIP3   OH213124   1.829   5.993   5.220
 4394TIP3    H113125   1.918   6.006   5.254
 4394TIP3    H213126   1.841   5.968   5.129
 4395TIP3   OH213127   7.231   4.670   4.094
 4395TIP3    H113128   7.300   4.736   4.109
 4395TIP3    H213129   7.150   4.716   4.116
 4396TIP3   OH213130   4.144   3.543   4.634
 4396TIP3    H113131   4.226   3.564   4.678
 4396TIP3    H213132   4.164   3.553   4.541
 4397TIP3   OH213133   5.817   0.685   5.788
 4397TIP3    H113134   5.783   0.610   5.836
 4397TIP3    H213135   5.756   0.697   5.715
 4398TIP3   OH213136   2.609   3.988   1.265
 4398TIP3    H113137   2.628   4.077   1.294
 4398TIP3    H213138   2.517   3.975   1.290
 4399TIP3   OH213139   5.232   6.212   5.585
 4399TIP3    H113140   5.315   6.221   5.633
 4399TIP3    H213141   5.243   6.134   5.532
 4400TIP3   OH213142   0.882   5.296   3.778
 4400TIP3    H113143   0.798   5.269   3.815
 4400TIP3    H213144   0.863   5.313   3.686
 4401TIP3   OH213145   4.423   0.132   3.940
 4401TIP3    H113146   4.367   0.063   3.905
 4401TIP3    H213147   4.512   0.104   3.918
 4402TIP3   OH213148   3.580   4.329   4.299
 4402TIP3    H113149   3.540   4.276   4.230
 4402TIP3    H213150   3.617   4.404   4.252
 4403TIP3   OH213151   2.266   0.814   2.624
 4403TIP3    H113152   2.212   0.750   2.670
 4403TIP3    H213153   2.258   0.894   2.676
 4404TIP3   OH213154   7.726   5.836   2.998
 4404TIP3    H113155   7.642   5.797   3.021
 4404TIP3    H213156   7.709   5.882   2.915
 4405TIP3   OH213157   1.374   3.757   4.505
 4405TIP3    H113158   1.287   3.743   4.469
 4405TIP3    H213159   1.433   3.743   4.431
 4406TIP3   OH213160   3.618   4.071   1.927
 4406TIP3    H113161   3.624   3.982   1.892
 4406TIP3    H213162   3.530   4.100   1.904
 4407TIP3   OH213163   8.245   2.197   6.096
 4407TIP3    H113164   8.193   2.213   6.175
 4407TIP3    H213165   8.335   2.188   6.127
 4408TIP3   OH213166   3.463   4.179   2.795
 4408TIP3    H113167   3.477   4.144   2.707
 4408TIP3    H213168   3.551   4.195   2.829
 4409TIP3   OH213169   5.074   3.672   1.649
 4409TIP3    H113170   4.993   3.722   1.636
 4409TIP3    H213171   5.144   3.736   1.632
 4410TIP3   OH213172   1.497   4.604   3.891
 4410TIP3    H113173   1.534   4.559   3.816
 4410TIP3    H213174   1.457   4.535   3.944
 4411TIP3   OH213175   3.784   6.442   4.325
 4411TIP3    H113176   3.749   6.369   4.275
 4411TIP3    H213177   3.709   6.498   4.343
 4412TIP3   OH213178   0.205   6.154   6.057
 4412TIP3    H113179   0.169   6.198   5.979
 4412TIP3    H213180   0.266   6.090   6.021
 4413TIP3   OH213181   7.555   0.113   2.941
 4413TIP3    H113182   7.608   0.073   2.872
 4413TIP3    H213183   7.467   0.120   2.904
 4414TIP3   OH213184   7.444   0.641   5.405
 4414TIP3    H113185   7.445   0.547   5.419
 4414TIP3    H213186   7.456   0.651   5.310
 4415TIP3   OH213187   2.411   5.181   5.261
 4415TIP3    H113188   2.355   5.112   5.296
 4415TIP3    H213189   2.475   5.135   5.206
 4416TIP3   OH213190   6.675   5.948   6.311
 4416TIP3    H113191   6.747   5.891   6.340
 4416TIP3    H213192   6.652   5.915   6.224
 4417TIP3   OH213193   1.809   4.734   0.426
 4417TIP3    H113194   1.779   4.644   0.411
 4417TIP3    H213195   1.852   4.758   0.344
 4418TIP3   OH213196   1.075   4.641   1.176
 4418TIP3    H113197   1.129   4.639   1.096
 4418TIP3    H213198   0.985   4.634   1.144
 4419TIP3   OH213199   7.959   7.308   5.066
 4419TIP3    H113200   7.900   7.384   5.059
 4419TIP3    H213201   8.013   7.313   4.987
 4420TIP3   OH213202   7.776   6.161   6.036
 4420TIP3    H113203   7.706   6.154   6.101
 4420TIP3    H213204   7.752   6.238   5.984
 4421TIP3   OH213205   0.376   0.955   5.558
 4421TIP3    H113206   0.393   0.923   5.470
 4421TIP3    H213207   0.330   1.038   5.545
 4422TIP3   OH213208   4.113   2.725   1.770
 4422TIP3    H113209   4.078   2.814   1.758
 4422TIP3    H213210   4.037   2.668   1.763
 4423TIP3   OH213211   0.233   2.900   3.014
 4423TIP3    H113212   0.145   2.890   2.977
 4423TIP3    H213213   0.254   2.813   3.049
 4424TIP3   OH213214   2.436   2.637   4.722
 4424TIP3    H113215   2.462   2.558   4.769
 4424TIP3    H213216   2.342   2.644   4.738
 4425TIP3   OH213217   7.438   6.776   0.210
 4425TIP3    H113218   7.392   6.832   0.147
 4425TIP3    H213219   7.468   6.835   0.278
 4426TIP3   OH213220   1.154   7.246   6.063
 4426TIP3    H113221   1.144   7.180   6.132
 4426TIP3    H213222   1.224   7.303   6.094
 4427TIP3   OH213223   3.087   5.146   5.566
 4427TIP3    H113224   3.102   5.162   5.659
 4427TIP3    H213225   3.068   5.053   5.560
 4428TIP3   OH213226   4.475   4.299   4.949
 4428TIP3    H113227   4.447   4.242   4.878
 4428TIP3    H213228   4.411   4.370   4.950
 4429TIP3   OH213229   0.336   1.834   6.319
 4429TIP3    H113230   0.367   1.762   6.374
 4429TIP3    H213231   0.400   1.839   6.248
 4430TIP3   OH213232   3.026   6.010   3.794
 4430TIP3    H113233   3.118   6.004   3.820
 4430TIP3    H213234   2.996   5.919   3.790
 4431TIP3   OH213235   2.941   0.313   4.719
 4431TIP3    H113236   2.859   0.315   4.669
 4431TIP3    H213237   3.010   0.317   4.653
 4432TIP3   OH213238   5.865   6.888   5.850
 4432TIP3    H113239   5.948   6.857   5.886
 4432TIP3    H213240   5.890   6.950   5.781
 4433TIP3   OH213241   4.417   6.202   1.259
 4433TIP3    H113242   4.456   6.130   1.209
 4433TIP3    H213243   4.331   6.168   1.286
 4434TIP3   OH213244   4.428   1.894   5.597
 4434TIP3    H113245   4.347   1.848   5.573
 4434TIP3    H213246   4.435   1.879   5.692
 4435TIP3   OH213247   6.295   3.803   6.662
 4435TIP3    H113248   6.214   3.757   6.639
 4435TIP3    H213249   6.266   3.878   6.714
 4436TIP3   OH213250   1.634   4.403   0.772
 4436TIP3    H113251   1.559   4.429   0.826
 4436TIP3    H213252   1.671   4.486   0.741
 4437TIP3   OH213253   3.421   5.477   0.794
 4437TIP3    H113254   3.340   5.514   0.760
 4437TIP3    H213255   3.466   5.553   0.833
 4438TIP3   OH213256   1.369   1.398   5.729
 4438TIP3    H113257   1.339   1.475   5.776
 4438TIP3    H213258   1.458   1.383   5.762
 4439TIP3   OH213259   5.926   1.218   4.774
 4439TIP3    H113260   5.919   1.213   4.870
 4439TIP3    H213261   5.852   1.166   4.742
 4440TIP3   OH213262   2.746   5.037   6.047
 4440TIP3    H113263   2.698   5.106   6.004
 4440TIP3    H213264   2.818   5.082   6.092
 4441TIP3   OH213265   4.468   7.699   0.164
 4441TIP3    H113266   4.409   7.745   0.223
 4441TIP3    H213267   4.473   7.610   0.198
 4442TIP3   OH213268   2.641   7.595   1.189
 4442TIP3    H113269   2.690   7.646   1.254
 4442TIP3    H213270   2.571   7.653   1.161
 4443TIP3   OH213271   6.311   0.377   3.115
 4443TIP3    H113272   6.376   0.414   3.174
 4443TIP3    H213273   6.248   0.447   3.101
 4444TIP3   OH213274   0.085   0.587   4.064
 4444TIP3    H113275   0.143   0.621   3.996
 4444TIP3    H213276   0.068   0.497   4.037
 4445TIP3   OH213277   0.151   5.560   3.583
 4445TIP3    H113278   0.074   5.588   3.633
 4445TIP3    H213279   0.224   5.567   3.645
 4446TIP3   OH213280   4.446   1.007   0.770
 4446TIP3    H113281   4.466   1.028   0.679
 4446TIP3    H213282   4.495   0.927   0.787
 4447TIP3   OH213283   5.290   4.909   5.328
 4447TIP3    H113284   5.298   5.002   5.349
 4447TIP3    H213285   5.278   4.866   5.413
 4448TIP3   OH213286   4.143   4.207   4.759
 4448TIP3    H113287   4.185   4.152   4.826
 4448TIP3    H213288   4.049   4.194   4.773
 4449TIP3   OH213289   5.809   6.911   5.244
 4449TIP3    H113290   5.741   6.973   5.273
 4449TIP3    H213291   5.776   6.879   5.160
 4450TIP3   OH213292   1.402   5.029   2.486
 4450TIP3    H113293   1.488   5.054   2.521
 4450TIP3    H213294   1.341   5.049   2.557
 4451TIP3   OH213295   4.167   5.984   1.836
 4451TIP3    H113296   4.109   5.931   1.890
 4451TIP3    H213297   4.109   6.020   1.768
 4452TIP3   OH213298   3.520   3.079   6.252
 4452TIP3    H113299   3.432   3.043   6.246
 4452TIP3    H213300   3.576   3.003   6.270
 4453TIP3   OH213301   0.465   3.136   3.819
 4453TIP3    H113302   0.555   3.111   3.837
 4453TIP3    H213303   0.466   3.170   3.730
 4454TIP3   OH213304   3.196   5.573   0.682
 4454TIP3    H113305   3.196   5.668   0.670
 4454TIP3    H213306   3.148   5.560   0.764
 4455TIP3   OH213307   2.395   1.942   0.051
 4455TIP3    H113308   2.347   1.934  -0.031
 4455TIP3    H213309   2.476   1.893   0.037
 4456TIP3   OH213310   4.979   0.836   4.895
 4456TIP3    H113311   5.053   0.820   4.954
 4456TIP3    H213312   5.018   0.880   4.820
 4457TIP3   OH213313   2.805   5.302   3.524
 4457TIP3    H113314   2.828   5.324   3.614
 4457TIP3    H213315   2.875   5.341   3.471
 4458TIP3   OH213316   7.196   6.856   3.677
 4458TIP3    H113317   7.165   6.924   3.736
 4458TIP3    H213318   7.208   6.779   3.733
 4459TIP3   OH213319   6.486   3.085   3.090
 4459TIP3    H113320   6.440   3.001   3.086
 4459TIP3    H213321   6.546   3.077   3.164
 4460TIP3   OH213322   1.457   5.974   1.954
 4460TIP3    H113323   1.495   6.054   1.918
 4460TIP3    H213324   1.523   5.942   2.015
 4461TIP3   OH213325   0.389   4.222   3.617
 4461TIP3    H113326   0.337   4.239   3.695
 4461TIP3    H213327   0.387   4.127   3.607
 4462TIP3   OH213328   6.770   7.161   3.008
 4462TIP3    H113329   6.865   7.172   3.002
 4462TIP3    H213330   6.748   7.104   2.934
 4463TIP3   OH213331   4.897   3.527   5.509
 4463TIP3    H113332   4.930   3.617   5.503
 4463TIP3    H213333   4.804   3.538   5.531
 4464TIP3   OH213334   4.517   6.692   6.614
 4464TIP3    H113335   4.510   6.682   6.519
 4464TIP3    H213336   4.579   6.764   6.625
 4465TIP3   OH213337   3.039   4.715   0.713
 4465TIP3    H113338   3.105   4.665   0.761
 4465TIP3    H213339   3.082   4.798   0.693
 4466TIP3   OH213340   7.827   1.425   4.637
 4466TIP3    H113341   7.771   1.401   4.563
 4466TIP3    H213342   7.910   1.381   4.619
 4467TIP3   OH213343   1.989   1.150   6.246
 4467TIP3    H113344   1.907   1.192   6.274
 4467TIP3    H213345   2.006   1.083   6.312
 4468TIP3   OH213346   0.081   1.334   3.755
 4468TIP3    H113347   0.083   1.429   3.750
 4468TIP3    H213348   0.066   1.315   3.847
 4469TIP3   OH213349   3.766   1.682   3.947
 4469TIP3    H113350   3.749   1.769   3.911
 4469TIP3    H213351   3.832   1.645   3.889
 4470TIP3   OH213352   0.220   0.514   0.973
 4470TIP3    H113353   0.184   0.573   1.039
 4470TIP3    H213354   0.312   0.503   0.999
 4471TIP3   OH213355   7.417   4.235   2.306
 4471TIP3    H113356   7.498   4.283   2.294
 4471TIP3    H213357   7.349   4.296   2.277
 4472TIP3   OH213358   0.895   6.101   5.832
 4472TIP3    H113359   0.946   6.071   5.756
 4472TIP3    H213360   0.850   6.180   5.801
 4473TIP3   OH213361   4.193   6.049   1.327
 4473TIP3    H113362   4.218   6.026   1.417
 4473TIP3    H213363   4.217   5.973   1.275
 4474TIP3   OH213364   2.157   4.557   0.689
 4474TIP3    H113365   2.156   4.621   0.618
 4474TIP3    H213366   2.102   4.596   0.757
 4475TIP3   OH213367   3.448   1.918   5.681
 4475TIP3    H113368   3.476   1.849   5.621
 4475TIP3    H213369   3.470   2.000   5.636
 4476TIP3   OH213370   6.660   6.494   5.342
 4476TIP3    H113371   6.724   6.545   5.291
 4476TIP3    H213372   6.584   6.486   5.284
 4477TIP3   OH213373   3.208   6.505   2.365
 4477TIP3    H113374   3.143   6.437   2.384
 4477TIP3    H213375   3.276   6.459   2.315
 4478TIP3   OH213376   6.523   7.683   1.340
 4478TIP3    H113377   6.448   7.734   1.309
 4478TIP3    H213378   6.486   7.625   1.407
 4479TIP3   OH213379   5.045   7.244   3.236
 4479TIP3    H113380   5.112   7.188   3.198
 4479TIP3    H213381   4.970   7.186   3.250
 4480TIP3   OH213382   7.987   6.598   2.408
 4480TIP3    H113383   8.016   6.659   2.475
 4480TIP3    H213384   8.036   6.518   2.424
 4481TIP3   OH213385   6.721   3.457   2.759
 4481TIP3    H113386   6.657   3.413   2.815
 4481TIP3    H213387   6.749   3.390   2.696
 4482TIP3   OH213388   3.747   7.292   2.498
 4482TIP3    H113389   3.797   7.370   2.475
 4482TIP3    H213390   3.700   7.317   2.578
 4483TIP3   OH213391   6.772   2.600   3.301
 4483TIP3    H113392   6.848   2.654   3.323
 4483TIP3    H213393   6.758   2.545   3.378
 4484TIP3   OH213394   3.868   2.031   0.886
 4484TIP3    H113395   3.892   2.092   0.955
 4484TIP3    H213396   3.779   2.058   0.860
 4485TIP3   OH213397   7.918   4.511   3.474
 4485TIP3    H113398   7.908   4.425   3.434
 4485TIP3    H213399   7.991   4.501   3.535
 4486TIP3   OH213400   7.036   0.140   5.124
 4486TIP3    H113401   7.004   0.101   5.043
 4486TIP3    H213402   7.030   0.235   5.109
 4487TIP3   OH213403   5.709   3.185   5.432
 4487TIP3    H113404   5.682   3.129   5.505
 4487TIP3    H213405   5.783   3.235   5.465
 4488TIP3   OH213406   3.453   0.827   6.250
 4488TIP3    H113407   3.403   0.906   6.229
 4488TIP3    H213408   3.517   0.856   6.316
 4489TIP3   OH213409   3.971   7.340   4.817
 4489TIP3    H113410   3.980   7.415   4.757
 4489TIP3    H213411   4.048   7.286   4.798
 4490TIP3   OH213412   1.247   6.135   2.200
 4490TIP3    H113413   1.309   6.064   2.219
 4490TIP3    H213414   1.271   6.204   2.262
 4491TIP3   OH213415   7.321   0.386   6.670
 4491TIP3    H113416   7.381   0.329   6.621
 4491TIP3    H213417   7.339   0.474   6.635
 4492TIP3   OH213418   5.320   7.488   5.074
 4492TIP3    H113419   5.225   7.478   5.067
 4492TIP3    H213420   5.341   7.465   5.164
 4493TIP3   OH213421   5.437   2.266   4.398
 4493TIP3    H113422   5.408   2.225   4.316
 4493TIP3    H213423   5.499   2.204   4.436
 4494TIP3   OH213424   3.919   6.170   4.719
 4494TIP3    H113425   3.971   6.250   4.708
 4494TIP3    H213426   3.964   6.122   4.789
 4495TIP3   OH213427   4.819   2.297   3.606
 4495TIP3    H113428   4.757   2.367   3.627
 4495TIP3    H213429   4.822   2.244   3.686
 4496TIP3   OH213430   3.688   3.061   6.560
 4496TIP3    H113431   3.692   3.000   6.486
 4496TIP3    H213432   3.776   3.057   6.599
 4497TIP3   OH213433   7.483   0.709   2.661
 4497TIP3    H113434   7.408   0.706   2.721
 4497TIP3    H213435   7.557   0.680   2.714
 4498TIP3   OH213436   2.571   1.544   1.617
 4498TIP3    H113437   2.483   1.542   1.654
 4498TIP3    H213438   2.601   1.634   1.632
 4499TIP3   OH213439   3.182   1.554   2.519
 4499TIP3    H113440   3.250   1.517   2.462
 4499TIP3    H213441   3.156   1.635   2.474
 4500TIP3   OH213442   5.804   6.691   6.081
 4500TIP3    H113443   5.824   6.681   6.175
 4500TIP3    H213444   5.817   6.604   6.044
 4501TIP3   OH213445   5.523   2.778   0.745
 4501TIP3    H113446   5.488   2.844   0.685
 4501TIP3    H213447   5.461   2.704   0.738
 4502TIP3   OH213448   4.913   1.830   4.800
 4502TIP3    H113449   4.966   1.828   4.720
 4502TIP3    H213450   4.908   1.739   4.828
 4503TIP3   OH213451   8.156   7.063   5.626
 4503TIP3    H113452   8.251   7.055   5.623
 4503TIP3    H213453   8.128   6.995   5.688
 4504TIP3   OH213454   1.091   4.855   5.003
 4504TIP3    H113455   1.087   4.838   5.098
 4504TIP3    H213456   1.184   4.855   4.983
 4505TIP3   OH213457   7.230   1.172   4.332
 4505TIP3    H113458   7.188   1.135   4.410
 4505TIP3    H213459   7.158   1.204   4.278
 4506TIP3   OH213460   5.311   2.118   5.014
 4506TIP3    H113461   5.303   2.201   4.968
 4506TIP3    H213462   5.302   2.141   5.107
 4507TIP3   OH213463   6.477   0.454   3.331
 4507TIP3    H113464   6.522   0.370   3.332
 4507TIP3    H213465   6.501   0.495   3.414
 4508TIP3   OH213466   5.014   7.453   3.778
 4508TIP3    H113467   5.102   7.491   3.775
 4508TIP3    H213468   5.020   7.382   3.842
 4509TIP3   OH213469   4.537   5.634   1.926
 4509TIP3    H113470   4.618   5.675   1.896
 4509TIP3    H213471   4.566   5.568   1.989
 4510TIP3   OH213472   1.820   5.964   6.149
 4510TIP3    H113473   1.822   5.900   6.220
 4510TIP3    H213474   1.777   5.919   6.076
 4511TIP3   OH213475   2.609   1.406   6.528
 4511TIP3    H113476   2.544   1.475   6.542
 4511TIP3    H213477   2.672   1.417   6.600
 4512TIP3   OH213478   6.029   0.691   3.594
 4512TIP3    H113479   6.112   0.669   3.552
 4512TIP3    H213480   6.005   0.612   3.642
 4513TIP3   OH213481   7.802   0.133   2.288
 4513TIP3    H113482   7.802   0.226   2.313
 4513TIP3    H213483   7.737   0.093   2.346
 4514TIP3   OH213484   3.289   3.137   5.822
 4514TIP3    H113485   3.297   3.121   5.917
 4514TIP3    H213486   3.298   3.050   5.783
 4515TIP3   OH213487   4.554   6.783   5.340
 4515TIP3    H113488   4.564   6.808   5.432
 4515TIP3    H213489   4.566   6.688   5.340
 4516TIP3   OH213490   5.876   6.734   1.279
 4516TIP3    H113491   5.907   6.697   1.362
 4516TIP3    H213492   5.848   6.822   1.302
 4517TIP3   OH213493   1.414   2.496   3.895
 4517TIP3    H113494   1.482   2.541   3.945
 4517TIP3    H213495   1.457   2.472   3.813
 4518TIP3   OH213496   2.243   2.717   4.034
 4518TIP3    H113497   2.298   2.709   4.112
 4518TIP3    H213498   2.238   2.629   3.999
 4519TIP3   OH213499   7.617   6.457   3.292
 4519TIP3    H113500   7.649   6.370   3.269
 4519TIP3    H213501   7.541   6.470   3.236
 4520TIP3   OH213502   2.459   5.133   6.283
 4520TIP3    H113503   2.485   5.049   6.247
 4520TIP3    H213504   2.366   5.123   6.303
 4521TIP3   OH213505   4.589   7.300   0.167
 4521TIP3    H113506   4.502   7.335   0.187
 4521TIP3    H213507   4.649   7.357   0.215
 4522TIP3   OH213508   3.842   1.513   4.522
 4522TIP3    H113509   3.820   1.459   4.598
 4522TIP3    H213510   3.771   1.578   4.517
 4523TIP3   OH213511   0.459   3.868   3.901
 4523TIP3    H113512   0.536   3.823   3.935
 4523TIP3    H213513   0.388   3.805   3.912
 4524TIP3   OH213514   2.678   0.272   0.583
 4524TIP3    H113515   2.684   0.241   0.492
 4524TIP3    H213516   2.690   0.366   0.577
 4525TIP3   OH213517   0.123   5.544   5.796
 4525TIP3    H113518   0.179   5.564   5.721
 4525TIP3    H213519   0.157   5.599   5.867
 4526TIP3   OH213520   2.269   5.239   3.410
 4526TIP3    H113521   2.290   5.308   3.347
 4526TIP3    H213522   2.354   5.201   3.433
 4527TIP3   OH213523   4.893   7.468   3.351
 4527TIP3    H113524   4.982   7.442   3.327
 4527TIP3    H213525   4.905   7.540   3.413
 4528TIP3   OH213526   7.001   0.399   0.991
 4528TIP3    H113527   7.011   0.494   0.980
 4528TIP3    H213528   7.074   0.374   1.047
 4529TIP3   OH213529   8.198   2.177   0.428
 4529TIP3    H113530   8.292   2.169   0.411
 4529TIP3    H213531   8.183   2.124   0.506
 4530TIP3   OH213532   4.354   1.610   6.730
 4530TIP3    H113533   4.296   1.661   6.674
 4530TIP3    H213534   4.437   1.605   6.682
 4531TIP3   OH213535   2.588   1.862   4.794
 4531TIP3    H113536   2.496   1.870   4.768
 4531TIP3    H213537   2.617   1.780   4.753
 4532TIP3   OH213538   0.450   0.521   4.977
 4532TIP3    H113539   0.423   0.431   4.955
 4532TIP3    H213540   0.413   0.575   4.908
 4533TIP3   OH213541   2.361   5.292   1.313
 4533TIP3    H113542   2.430   5.358   1.310
 4533TIP3    H213543   2.403   5.215   1.352
 4534TIP3   OH213544   1.562   1.111   5.069
 4534TIP3    H113545   1.467   1.099   5.072
 4534TIP3    H213546   1.593   1.078   5.154
 4535TIP3   OH213547   4.924   7.026   0.427
 4535TIP3    H113548   4.885   6.994   0.508
 4535TIP3    H213549   4.857   7.014   0.361
 4536TIP3   OH213550   4.930   4.595   5.020
 4536TIP3    H113551   4.928   4.599   4.925
 4536TIP3    H213552   4.868   4.525   5.043
 4537TIP3   OH213553   5.796   1.247   1.095
 4537TIP3    H113554   5.775   1.287   1.010
 4537TIP3    H213555   5.715   1.204   1.122
 4538TIP3   OH213556   7.280   3.927   3.521
 4538TIP3    H113557   7.367   3.944   3.557
 4538TIP3    H213558   7.295   3.866   3.449
 4539TIP3   OH213559   0.463   2.258   5.955
 4539TIP3    H113560   0.485   2.272   5.863
 4539TIP3    H213561   0.516   2.321   6.002
 4540TIP3   OH213562   3.573   6.233   1.619
 4540TIP3    H113563   3.658   6.254   1.657
 4540TIP3    H213564   3.592   6.212   1.527
 4541TIP3   OH213565   4.598   4.766   0.958
 4541TIP3    H113566   4.508   4.791   0.979
 4541TIP3    H213567   4.590   4.714   0.877
 4542TIP3   OH213568   5.751   6.306   0.590
 4542TIP3    H113569   5.746   6.400   0.609
 4542TIP3    H213570   5.660   6.278   0.583
 4543TIP3   OH213571   3.905   5.458   4.828
 4543TIP3    H113572   3.896   5.423   4.739
 4543TIP3    H213573   3.998   5.478   4.837
 4544TIP3   OH213574   8.311   2.143   4.353
 4544TIP3    H113575   8.354   2.228   4.357
 4544TIP3    H213576   8.224   2.161   4.318
 4545TIP3   OH213577   7.095   0.308   0.648
 4545TIP3    H113578   7.037   0.303   0.572
 4545TIP3    H213579   7.051   0.369   0.708
 4546TIP3   OH213580   8.149   3.379   0.224
 4546TIP3    H113581   8.053   3.376   0.222
 4546TIP3    H213582   8.174   3.308   0.283
 4547TIP3   OH213583   4.000   1.278   3.704
 4547TIP3    H113584   4.078   1.332   3.697
 4547TIP3    H213585   4.014   1.206   3.643
 4548TIP3   OH213586   1.357   3.145   0.194
 4548TIP3    H113587   1.332   3.084   0.263
 4548TIP3    H213588   1.406   3.214   0.239
 4549TIP3   OH213589   8.164   3.711   1.696
 4549TIP3    H113590   8.217   3.633   1.708
 4549TIP3    H213591   8.163   3.753   1.782
 4550TIP3   OH213592   0.823   2.218   6.037
 4550TIP3    H113593   0.764   2.148   6.066
 4550TIP3    H213594   0.798   2.294   6.089
 4551TIP3   OH213595   4.114   5.470   2.366
 4551TIP3    H113596   4.190   5.412   2.365
 4551TIP3    H213597   4.085   5.471   2.457
 4552TIP3   OH213598   4.226   3.330   4.922
 4552TIP3    H113599   4.197   3.252   4.969
 4552TIP3    H213600   4.189   3.320   4.834
 4553TIP3   OH213601   5.543   1.141   4.590
 4553TIP3    H113602   5.565   1.217   4.643
 4553TIP3    H213603   5.487   1.088   4.646
 4554TIP3   OH213604   7.342   6.778   6.198
 4554TIP3    H113605   7.381   6.719   6.263
 4554TIP3    H213606   7.268   6.819   6.243
 4555TIP3   OH213607   6.146   3.036   0.860
 4555TIP3    H113608   6.238   3.010   0.859
 4555TIP3    H213609   6.101   2.965   0.905
 4556TIP3   OH213610   2.068   4.420   2.660
 4556TIP3    H113611   2.116   4.498   2.636
 4556TIP3    H213612   2.120   4.380   2.729
 4557TIP3   OH213613   0.102   5.926   3.444
 4557TIP3    H113614   0.041   5.902   3.513
 4557TIP3    H213615   0.090   5.859   3.377
 4558TIP3   OH213616   4.203   1.825   2.666
 4558TIP3    H113617   4.176   1.742   2.704
 4558TIP3    H213618   4.183   1.817   2.573
 4559TIP3   OH213619   0.328   5.055   6.228
 4559TIP3    H113620   0.281   5.091   6.303
 4559TIP3    H213621   0.402   5.115   6.216
 4560TIP3   OH213622   0.110   1.704   4.289
 4560TIP3    H113623   0.044   1.739   4.349
 4560TIP3    H213624   0.183   1.678   4.346
 4561TIP3   OH213625   6.982   7.663   5.045
 4561TIP3    H113626   6.974   7.651   4.950
 4561TIP3    H213627   6.913   7.608   5.082
 4562TIP3   OH213628   4.934   6.510   3.088
 4562TIP3    H113629   4.914   6.524   2.995
 4562TIP3    H213630   5.030   6.502   3.091
 4563TIP3   OH213631   4.461   2.907   6.061
 4563TIP3    H113632   4.542   2.933   6.017
 4563TIP3    H213633   4.486   2.832   6.115
 4564TIP3   OH213634   2.980   1.576   1.272
 4564TIP3    H113635   2.900   1.526   1.257
 4564TIP3    H213636   2.951   1.667   1.281
 4565TIP3   OH213637   6.171   2.769   4.018
 4565TIP3    H113638   6.224   2.730   3.949
 4565TIP3    H213639   6.141   2.853   3.982
 4566TIP3   OH213640   6.370   5.327   0.803
 4566TIP3    H113641   6.442   5.281   0.847
 4566TIP3    H213642   6.410   5.362   0.723
 4567TIP3   OH213643   3.696   4.751   3.097
 4567TIP3    H113644   3.698   4.721   3.188
 4567TIP3    H213645   3.609   4.724   3.065
 4568TIP3   OH213646   4.201   0.771   0.056
 4568TIP3    H113647   4.207   0.797   0.148
 4568TIP3    H213648   4.107   0.775   0.036
 4569TIP3   OH213649   8.206   1.011   2.174
 4569TIP3    H113650   8.270   1.056   2.119
 4569TIP3    H213651   8.194   0.926   2.131
 4570TIP3   OH213652   4.238   3.719   3.428
 4570TIP3    H113653   4.160   3.757   3.389
 4570TIP3    H213654   4.206   3.646   3.481
 4571TIP3   OH213655   6.510   2.728   4.354
 4571TIP3    H113656   6.509   2.794   4.284
 4571TIP3    H213657   6.467   2.652   4.315
 4572TIP3   OH213658   3.828   4.137   4.176
 4572TIP3    H113659   3.888   4.062   4.168
 4572TIP3    H213660   3.796   4.132   4.266
 4573TIP3   OH213661   2.440   6.599   3.864
 4573TIP3    H113662   2.460   6.578   3.955
 4573TIP3    H213663   2.468   6.690   3.854
 4574TIP3   OH213664   7.239   0.912   4.165
 4574TIP3    H113665   7.228   0.824   4.201
 4574TIP3    H213666   7.216   0.971   4.236
 4575TIP3   OH213667   4.702   6.563   4.292
 4575TIP3    H113668   4.652   6.621   4.235
 4575TIP3    H213669   4.780   6.613   4.315
 4576TIP3   OH213670   7.877   2.159   0.498
 4576TIP3    H113671   7.926   2.087   0.458
 4576TIP3    H213672   7.795   2.163   0.449
 4577TIP3   OH213673   7.056   1.842   2.833
 4577TIP3    H113674   7.134   1.890   2.806
 4577TIP3    H213675   7.057   1.762   2.782
 4578TIP3   OH213676   5.569   7.459   6.519
 4578TIP3    H113677   5.521   7.535   6.485
 4578TIP3    H213678   5.541   7.387   6.463
 4579TIP3   OH213679   2.381   1.147   2.201
 4579TIP3    H113680   2.381   1.165   2.295
 4579TIP3    H213681   2.456   1.089   2.187
 4580TIP3   OH213682   3.861   5.945   1.466
 4580TIP3    H113683   3.909   5.883   1.410
 4580TIP3    H213684   3.846   5.896   1.548
 4581TIP3   OH213685   8.163   4.517   3.204
 4581TIP3    H113686   8.152   4.503   3.298
 4581TIP3    H213687   8.255   4.542   3.194
 4582TIP3   OH213688   6.990   7.572   1.838
 4582TIP3    H113689   7.078   7.556   1.869
 4582TIP3    H213690   6.941   7.493   1.861
 4583TIP3   OH213691   4.585   3.042   6.373
 4583TIP3    H113692   4.604   2.948   6.364
 4583TIP3    H213693   4.591   3.076   6.284
 4584TIP3   OH213694   1.800   2.513   0.538
 4584TIP3    H113695   1.845   2.466   0.608
 4584TIP3    H213696   1.791   2.602   0.572
 4585TIP3   OH213697   0.593   5.642   5.607
 4585TIP3    H113698   0.678   5.668   5.570
 4585TIP3    H213699   0.602   5.548   5.624
 4586TIP3   OH213700   2.186   2.082   1.164
 4586TIP3    H113701   2.176   2.017   1.094
 4586TIP3    H213702   2.195   2.166   1.119
 4587TIP3   OH213703   2.088   3.487   2.132
 4587TIP3    H113704   2.015   3.461   2.188
 4587TIP3    H213705   2.136   3.406   2.117
 4588TIP3   OH213706   5.574   2.318   2.412
 4588TIP3    H113707   5.592   2.384   2.345
 4588TIP3    H213708   5.478   2.313   2.417
 4589TIP3   OH213709   3.501   2.157   5.509
 4589TIP3    H113710   3.597   2.161   5.506
 4589TIP3    H213711   3.474   2.248   5.523
 4590TIP3   OH213712   7.284   6.458   5.784
 4590TIP3    H113713   7.278   6.384   5.723
 4590TIP3    H213714   7.377   6.474   5.794
 4591TIP3   OH213715   4.058   2.984   1.657
 4591TIP3    H113716   4.133   2.954   1.606
 4591TIP3    H213717   4.073   3.078   1.667
 4592TIP3   OH213718   0.737   1.624   2.060
 4592TIP3    H113719   0.772   1.591   2.143
 4592TIP3    H213720   0.652   1.662   2.084
 4593TIP3   OH213721   5.652   0.714   3.654
 4593TIP3    H113722   5.560   0.741   3.656
 4593TIP3    H213723   5.689   0.762   3.579
 4594TIP3   OH213724   0.260   7.071   3.783
 4594TIP3    H113725   0.248   6.978   3.765
 4594TIP3    H213726   0.325   7.099   3.718
 4595TIP3   OH213727   7.199   2.770   6.752
 4595TIP3    H113728   7.139   2.764   6.678
 4595TIP3    H213729   7.285   2.785   6.712
 4596TIP3   OH213730   6.711   7.040   0.831
 4596TIP3    H113731   6.777   6.971   0.831
 4596TIP3    H213732   6.653   7.018   0.758
 4597TIP3   OH213733   1.163   5.516   0.847
 4597TIP3    H113734   1.083   5.563   0.874
 4597TIP3    H213735   1.155   5.508   0.752
 4598TIP3   OH213736   5.845   0.641   0.359
 4598TIP3    H113737   5.869   0.704   0.428
 4598TIP3    H213738   5.750   0.638   0.361
 4599TIP3   OH213739   6.204   7.798   1.479
 4599TIP3    H113740   6.179   7.724   1.424
 4599TIP3    H213741   6.262   7.760   1.545
 4600TIP3   OH213742   7.846   5.674   0.421
 4600TIP3    H113743   7.885   5.658   0.335
 4600TIP3    H213744   7.921   5.698   0.476
 4601TIP3   OH213745   7.184   1.550   2.415
 4601TIP3    H113746   7.177   1.578   2.324
 4601TIP3    H213747   7.273   1.515   2.422
 4602TIP3   OH213748   3.507   7.656   3.083
 4602TIP3    H113749   3.487   7.750   3.089
 4602TIP3    H213750   3.455   7.616   3.152
 4603TIP3   OH213751   4.350   0.728   4.276
 4603TIP3    H113752   4.391   0.673   4.342
 4603TIP3    H213753   4.422   0.752   4.217
 4604TIP3   OH213754   6.234   1.884   1.108
 4604TIP3    H113755   6.189   1.852   1.029
 4604TIP3    H213756   6.308   1.934   1.074
 4605TIP3   OH213757   5.387   6.395   4.245
 4605TIP3    H113758   5.365   6.320   4.189
 4605TIP3    H213759   5.389   6.359   4.334
 4606TIP3   OH213760   5.247   4.280   5.009
 4606TIP3    H113761   5.187   4.330   5.064
 4606TIP3    H213762   5.321   4.340   4.996
 4607TIP3   OH213763   6.243   5.583   4.976
 4607TIP3    H113764   6.286   5.500   4.955
 4607TIP3    H213765   6.263   5.640   4.903
 4608TIP3   OH213766   5.809   6.941   4.888
 4608TIP3    H113767   5.784   6.850   4.877
 4608TIP3    H213768   5.742   6.978   4.946
 4609TIP3   OH213769   1.672   7.608   0.979
 4609TIP3    H113770   1.687   7.683   1.037
 4609TIP3    H213771   1.760   7.579   0.955
 4610TIP3   OH213772   4.855   4.333   4.438
 4610TIP3    H113773   4.869   4.258   4.495
 4610TIP3    H213774   4.886   4.303   4.352
 4611TIP3   OH213775   0.793   6.176   4.566
 4611TIP3    H113776   0.842   6.112   4.617
 4611TIP3    H213777   0.757   6.237   4.630
 4612TIP3   OH213778   2.844   6.869   5.094
 4612TIP3    H113779   2.900   6.923   5.040
 4612TIP3    H213780   2.758   6.873   5.051
 4613TIP3   OH213781   2.797   1.391   6.310
 4613TIP3    H113782   2.726   1.372   6.372
 4613TIP3    H213783   2.790   1.323   6.244
 4614TIP3   OH213784   5.855   5.619   0.716
 4614TIP3    H113785   5.907   5.550   0.674
 4614TIP3    H213786   5.910   5.650   0.788
 4615TIP3   OH213787   2.083   6.274   4.527
 4615TIP3    H113788   2.049   6.356   4.563
 4615TIP3    H213789   2.005   6.228   4.495
 4616TIP3   OH213790   7.977   3.389   4.656
 4616TIP3    H113791   7.923   3.363   4.581
 4616TIP3    H213792   7.916   3.393   4.729
 4617TIP3   OH213793   1.579   3.242   3.686
 4617TIP3    H113794   1.573   3.181   3.760
 4617TIP3    H213795   1.577   3.329   3.727
 4618TIP3   OH213796   1.341   2.954   4.536
 4618TIP3    H113797   1.350   2.995   4.622
 4618TIP3    H213798   1.265   2.997   4.497
 4619TIP3   OH213799   4.416   4.411   5.419
 4619TIP3    H113800   4.379   4.456   5.344
 4619TIP3    H213801   4.343   4.360   5.455
 4620TIP3   OH213802   6.010   7.139   0.993
 4620TIP3    H113803   5.979   7.054   1.025
 4620TIP3    H213804   5.957   7.203   1.041
 4621TIP3   OH213805   6.904   3.611   5.572
 4621TIP3    H113806   6.986   3.660   5.576
 4621TIP3    H213807   6.905   3.556   5.649
 4622TIP3   OH213808   0.246   3.229   2.750
 4622TIP3    H113809   0.268   3.137   2.762
 4622TIP3    H213810   0.150   3.231   2.752
 4623TIP3   OH213811   0.378   3.055   4.769
 4623TIP3    H113812   0.292   3.049   4.727
 4623TIP3    H213813   0.389   2.970   4.812
 4624TIP3   OH213814   3.304   7.147   4.479
 4624TIP3    H113815   3.377   7.144   4.417
 4624TIP3    H213816   3.227   7.165   4.425
 4625TIP3   OH213817   1.414   4.740   4.474
 4625TIP3    H113818   1.363   4.803   4.525
 4625TIP3    H213819   1.505   4.758   4.497
 4626TIP3   OH213820   2.659   6.473   0.815
 4626TIP3    H113821   2.726   6.450   0.880
 4626TIP3    H213822   2.670   6.568   0.803
 4627TIP3   OH213823   5.603   0.890   2.949
 4627TIP3    H113824   5.530   0.829   2.959
 4627TIP3    H213825   5.670   0.841   2.901
 4628TIP3   OH213826   7.934   3.994   2.803
 4628TIP3    H113827   7.911   4.041   2.723
 4628TIP3    H213828   7.928   4.059   2.872
 4629TIP3   OH213829   0.317   6.077   3.389
 4629TIP3    H113830   0.247   6.023   3.427
 4629TIP3    H213831   0.293   6.085   3.296
 4630TIP3   OH213832   0.895   5.623   0.547
 4630TIP3    H113833   0.900   5.707   0.592
 4630TIP3    H213834   0.805   5.593   0.561
 4631TIP3   OH213835   3.383   1.366   0.837
 4631TIP3    H113836   3.409   1.283   0.877
 4631TIP3    H213837   3.372   1.345   0.744
 4632TIP3   OH213838   5.841   0.189   0.610
 4632TIP3    H113839   5.854   0.095   0.601
 4632TIP3    H213840   5.896   0.214   0.684
 4633TIP3   OH213841   5.771   0.318   5.166
 4633TIP3    H113842   5.764   0.247   5.230
 4633TIP3    H213843   5.751   0.397   5.216
 4634TIP3   OH213844   3.950   2.410   5.675
 4634TIP3    H113845   3.976   2.330   5.627
 4634TIP3    H213846   3.926   2.472   5.606
 4635TIP3   OH213847   2.658   6.285   2.272
 4635TIP3    H113848   2.738   6.284   2.218
 4635TIP3    H213849   2.599   6.224   2.228
 4636TIP3   OH213850   7.491   4.514   3.700
 4636TIP3    H113851   7.568   4.462   3.725
 4636TIP3    H213852   7.416   4.464   3.731
 4637TIP3   OH213853   7.332   1.022   1.304
 4637TIP3    H113854   7.417   0.980   1.315
 4637TIP3    H213855   7.289   0.972   1.235
 4638TIP3   OH213856   0.987   2.876   5.910
 4638TIP3    H113857   1.057   2.898   5.848
 4638TIP3    H213858   0.996   2.940   5.980
 4639TIP3   OH213859   4.554   6.764   5.050
 4639TIP3    H113860   4.552   6.835   4.986
 4639TIP3    H213861   4.620   6.792   5.114
 4640TIP3   OH213862   7.441   4.171   6.662
 4640TIP3    H113863   7.440   4.195   6.754
 4640TIP3    H213864   7.525   4.127   6.649
 4641TIP3   OH213865   0.765   5.332   4.107
 4641TIP3    H113866   0.742   5.266   4.173
 4641TIP3    H213867   0.689   5.334   4.049
 4642TIP3   OH213868   5.563   3.129   6.275
 4642TIP3    H113869   5.584   3.075   6.199
 4642TIP3    H213870   5.471   3.110   6.293
 4643TIP3   OH213871   7.158   0.891   4.441
 4643TIP3    H113872   7.166   0.836   4.519
 4643TIP3    H213873   7.077   0.863   4.400
 4644TIP3   OH213874   6.239   2.527   3.383
 4644TIP3    H113875   6.310   2.463   3.382
 4644TIP3    H213876   6.226   2.550   3.291
 4645TIP3   OH213877   7.196   0.891   0.753
 4645TIP3    H113878   7.199   0.819   0.690
 4645TIP3    H213879   7.121   0.944   0.725
 4646TIP3   OH213880   7.448   5.004   4.863
 4646TIP3    H113881   7.473   5.032   4.951
 4646TIP3    H213882   7.368   5.052   4.844
 4647TIP3   OH213883   6.888   5.286   6.219
 4647TIP3    H113884   6.862   5.194   6.215
 4647TIP3    H213885   6.983   5.284   6.231
 4648TIP3   OH213886   1.487   2.953   6.141
 4648TIP3    H113887   1.576   2.946   6.108
 4648TIP3    H213888   1.439   2.883   6.098
 4649TIP3   OH213889   2.648   6.964   6.721
 4649TIP3    H113890   2.553   6.968   6.732
 4649TIP3    H213891   2.668   7.029   6.654
 4650TIP3   OH213892   0.018   3.660   1.367
 4650TIP3    H113893  -0.073   3.683   1.347
 4650TIP3    H213894   0.052   3.623   1.286
 4651TIP3   OH213895   4.910   2.793   4.066
 4651TIP3    H113896   4.858   2.713   4.055
 4651TIP3    H213897   4.912   2.833   3.979
 4652TIP3   OH213898   4.786   0.775   0.191
 4652TIP3    H113899   4.768   0.685   0.162
 4652TIP3    H213900   4.723   0.829   0.143
 4653TIP3   OH213901   0.109   7.729   2.669
 4653TIP3    H113902   0.021   7.705   2.697
 4653TIP3    H213903   0.095   7.798   2.604
 4654TIP3   OH213904   1.641   0.022   6.587
 4654TIP3    H113905   1.608   0.051   6.502
 4654TIP3    H213906   1.653   0.103   6.637
 4655TIP3   OH213907   8.193   7.291   1.186
 4655TIP3    H113908   8.270   7.306   1.130
 4655TIP3    H213909   8.125   7.346   1.146
 4656TIP3   OH213910   8.012   6.622   1.278
 4656TIP3    H113911   8.045   6.557   1.216
 4656TIP3    H213912   7.977   6.692   1.222
 4657TIP3   OH213913   0.948   3.715   4.665
 4657TIP3    H113914   0.973   3.695   4.755
 4657TIP3    H213915   1.006   3.787   4.640
 4658TIP3   OH213916   3.125   0.923   5.263
 4658TIP3    H113917   3.106   1.011   5.231
 4658TIP3    H213918   3.218   0.909   5.244
 4659TIP3   OH213919   6.111   0.483   5.958
 4659TIP3    H113920   6.205   0.468   5.959
 4659TIP3    H213921   6.073   0.402   5.992
 4660TIP3   OH213922   4.321   2.556   0.277
 4660TIP3    H113923   4.238   2.511   0.263
 4660TIP3    H213924   4.360   2.510   0.352
 4661TIP3   OH213925   8.002   2.927   5.161
 4661TIP3    H113926   8.002   2.932   5.065
 4661TIP3    H213927   8.090   2.953   5.186
 4662TIP3   OH213928   1.943   3.708   1.032
 4662TIP3    H113929   1.936   3.710   1.127
 4662TIP3    H213930   1.936   3.800   1.006
 4663TIP3   OH213931   0.690   7.194   6.277
 4663TIP3    H113932   0.648   7.175   6.361
 4663TIP3    H213933   0.623   7.238   6.225
 4664TIP3   OH213934   4.722   2.924   2.086
 4664TIP3    H113935   4.670   2.996   2.123
 4664TIP3    H213936   4.735   2.864   2.158
 4665TIP3   OH213937   2.756   4.580   1.596
 4665TIP3    H113938   2.836   4.558   1.548
 4665TIP3    H213939   2.688   4.584   1.528
 4666TIP3   OH213940   6.403   5.169   1.289
 4666TIP3    H113941   6.358   5.102   1.340
 4666TIP3    H213942   6.334   5.209   1.236
 4667TIP3   OH213943   7.964   7.375   3.329
 4667TIP3    H113944   7.933   7.285   3.330
 4667TIP3    H213945   8.057   7.369   3.351
 4668TIP3   OH213946   2.460   3.527   3.377
 4668TIP3    H113947   2.507   3.460   3.327
 4668TIP3    H213948   2.498   3.523   3.464
 4669TIP3   OH213949   4.101   5.258   5.497
 4669TIP3    H113950   4.138   5.297   5.576
 4669TIP3    H213951   4.006   5.266   5.507
 4670TIP3   OH213952   3.667   4.288   1.696
 4670TIP3    H113953   3.577   4.271   1.724
 4670TIP3    H213954   3.716   4.210   1.722
 4671TIP3   OH213955   2.803   3.092   4.241
 4671TIP3    H113956   2.863   3.063   4.309
 4671TIP3    H213957   2.732   3.135   4.288
 4672TIP3   OH213958   7.862   7.359   5.766
 4672TIP3    H113959   7.869   7.455   5.768
 4672TIP3    H213960   7.925   7.332   5.699
 4673TIP3   OH213961   6.243   1.421   3.907
 4673TIP3    H113962   6.312   1.354   3.910
 4673TIP3    H213963   6.289   1.503   3.928
 4674TIP3   OH213964   6.669   1.424   1.028
 4674TIP3    H113965   6.751   1.411   1.074
 4674TIP3    H213966   6.609   1.361   1.067
 4675TIP3   OH213967   6.917   3.340   4.841
 4675TIP3    H113968   6.914   3.350   4.746
 4675TIP3    H213969   6.841   3.388   4.873
 4676TIP3   OH213970   4.889   4.663   3.311
 4676TIP3    H113971   4.912   4.644   3.402
 4676TIP3    H213972   4.927   4.591   3.261
 4677TIP3   OH213973   5.654   7.613   1.062
 4677TIP3    H113974   5.596   7.643   0.993
 4677TIP3    H213975   5.602   7.548   1.111
 4678TIP3   OH213976   0.720   2.026   2.775
 4678TIP3    H113977   0.672   1.952   2.738
 4678TIP3    H213978   0.653   2.080   2.817
 4679TIP3   OH213979   5.294   1.776   0.222
 4679TIP3    H113980   5.364   1.827   0.262
 4679TIP3    H213981   5.214   1.821   0.250
 4680TIP3   OH213982   5.650   3.112   4.573
 4680TIP3    H113983   5.710   3.080   4.640
 4680TIP3    H213984   5.673   3.064   4.494
 4681TIP3   OH213985   4.568   3.716   5.028
 4681TIP3    H113986   4.588   3.625   5.005
 4681TIP3    H213987   4.634   3.739   5.093
 4682TIP3   OH213988   1.353   0.180   5.579
 4682TIP3    H113989   1.412   0.221   5.515
 4682TIP3    H213990   1.267   0.218   5.560
 4683TIP3   OH213991   4.354   6.647   1.555
 4683TIP3    H113992   4.443   6.617   1.538
 4683TIP3    H213993   4.299   6.572   1.531
 4684TIP3   OH213994   3.904   3.983   5.984
 4684TIP3    H113995   3.859   3.899   6.000
 4684TIP3    H213996   3.942   3.973   5.896
 4685TIP3   OH213997   0.163   6.720   5.276
 4685TIP3    H113998   0.117   6.673   5.346
 4685TIP3    H213999   0.234   6.766   5.321
 4686TIP3   OH214000   1.608   7.214   2.241
 4686TIP3    H114001   1.571   7.183   2.323
 4686TIP3    H214002   1.664   7.288   2.266
 4687TIP3   OH214003   4.901   4.298   5.526
 4687TIP3    H114004   4.947   4.250   5.594
 4687TIP3    H214005   4.821   4.330   5.568
 4688TIP3   OH214006   1.836   3.431   1.134
 4688TIP3    H114007   1.906   3.491   1.107
 4688TIP3    H214008   1.859   3.405   1.223
 4689TIP3   OH214009   0.331   2.745   1.250
 4689TIP3    H114010   0.320   2.665   1.199
 4689TIP3    H214011   0.377   2.805   1.191
 4690TIP3   OH214012   6.789   3.338   0.101
 4690TIP3    H114013   6.697   3.338   0.127
 4690TIP3    H214014   6.812   3.245   0.097
 4691TIP3   OH214015   4.828   0.685   0.901
 4691TIP3    H114016   4.834   0.662   0.808
 4691TIP3    H214017   4.817   0.780   0.901
 4692TIP3   OH214018   2.479   0.980   3.768
 4692TIP3    H114019   2.536   1.027   3.828
 4692TIP3    H214020   2.394   1.024   3.776
 4693TIP3   OH214021   5.459   4.234   0.815
 4693TIP3    H114022   5.486   4.261   0.902
 4693TIP3    H214023   5.428   4.144   0.826
 4694TIP3   OH214024   8.022   5.350   0.417
 4694TIP3    H114025   8.074   5.292   0.473
 4694TIP3    H214026   8.036   5.437   0.454
 4695TIP3   OH214027   4.975   7.222   6.568
 4695TIP3    H114028   5.008   7.310   6.551
 4695TIP3    H214029   5.049   7.164   6.550
 4696TIP3   OH214030   5.193   4.802   2.016
 4696TIP3    H114031   5.241   4.719   2.017
 4696TIP3    H214032   5.101   4.778   2.027
 4697TIP3   OH214033   0.962   3.835   2.433
 4697TIP3    H114034   1.011   3.849   2.514
 4697TIP3    H214035   1.020   3.869   2.364
 4698TIP3   OH214036   6.440   6.460   5.185
 4698TIP3    H114037   6.434   6.549   5.151
 4698TIP3    H214038   6.365   6.451   5.244
 4699TIP3   OH214039   7.698   4.241   6.277
 4699TIP3    H114040   7.726   4.318   6.228
 4699TIP3    H214041   7.612   4.220   6.242
 4700TIP3   OH214042   0.181   5.139   2.079
 4700TIP3    H114043   0.215   5.097   2.000
 4700TIP3    H214044   0.191   5.074   2.148
 4701TIP3   OH214045   2.023   4.930   6.440
 4701TIP3    H114046   1.934   4.918   6.472
 4701TIP3    H214047   2.071   4.964   6.516
 4702TIP3   OH214048   6.912   7.089   1.338
 4702TIP3    H114049   6.937   7.032   1.411
 4702TIP3    H214050   6.904   7.030   1.263
 4703TIP3   OH214051   7.742   6.226   1.240
 4703TIP3    H114052   7.651   6.255   1.240
 4703TIP3    H214053   7.780   6.266   1.318
 4704TIP3   OH214054   3.711   3.672   0.897
 4704TIP3    H114055   3.683   3.585   0.868
 4704TIP3    H214056   3.721   3.663   0.992
 4705TIP3   OH214057   7.585   4.979   2.198
 4705TIP3    H114058   7.654   5.043   2.213
 4705TIP3    H214059   7.562   4.990   2.106
 4706TIP3   OH214060   3.623   5.691   4.543
 4706TIP3    H114061   3.624   5.785   4.559
 4706TIP3    H214062   3.704   5.674   4.493
 4707TIP3   OH214063   6.079   3.122   5.517
 4707TIP3    H114064   6.050   3.052   5.458
 4707TIP3    H214065   6.062   3.203   5.469
 4708TIP3   OH214066   7.288   3.619   0.409
 4708TIP3    H114067   7.224   3.561   0.448
 4708TIP3    H214068   7.301   3.689   0.473
 4709TIP3   OH214069   4.930   4.174   3.431
 4709TIP3    H114070   4.963   4.088   3.406
 4709TIP3    H214071   4.874   4.201   3.358
 4710TIP3   OH214072   7.608   1.220   4.917
 4710TIP3    H114073   7.617   1.161   4.843
 4710TIP3    H214074   7.573   1.165   4.988
 4711TIP3   OH214075   7.898   4.047   6.741
 4711TIP3    H114076   7.892   4.134   6.701
 4711TIP3    H214077   7.808   4.018   6.750
 4712TIP3   OH214078   4.801   6.465   1.991
 4712TIP3    H114079   4.853   6.394   2.028
 4712TIP3    H214080   4.730   6.478   2.054
 4713TIP3   OH214081   5.484   1.160   0.857
 4713TIP3    H114082   5.418   1.178   0.791
 4713TIP3    H214083   5.456   1.212   0.933
 4714TIP3   OH214084   4.603   6.660   3.647
 4714TIP3    H114085   4.593   6.687   3.738
 4714TIP3    H214086   4.689   6.692   3.622
 4715TIP3   OH214087   4.889   6.586   4.944
 4715TIP3    H114088   4.972   6.581   4.992
 4715TIP3    H214089   4.854   6.672   4.966
 4716TIP3   OH214090   4.680   2.486   0.916
 4716TIP3    H114091   4.663   2.470   1.009
 4716TIP3    H214092   4.703   2.400   0.880
 4717TIP3   OH214093   6.761   7.060   2.426
 4717TIP3    H114094   6.680   7.024   2.391
 4717TIP3    H214095   6.734   7.135   2.478
 4718TIP3   OH214096   6.938   2.738   1.450
 4718TIP3    H114097   6.920   2.818   1.400
 4718TIP3    H214098   6.973   2.770   1.533
 4719TIP3   OH214099   2.336   7.510   3.814
 4719TIP3    H114100   2.332   7.429   3.864
 4719TIP3    H214101   2.405   7.561   3.856
 4720TIP3   OH214102   3.657   1.116   2.884
 4720TIP3    H114103   3.673   1.210   2.886
 4720TIP3    H214104   3.562   1.107   2.891
 4721TIP3   OH214105   0.467   0.156   5.612
 4721TIP3    H114106   0.524   0.231   5.626
 4721TIP3    H214107   0.399   0.188   5.551
 4722TIP3   OH214108   7.223   0.337   1.138
 4722TIP3    H114109   7.259   0.397   1.203
 4722TIP3    H214110   7.298   0.285   1.110
 4723TIP3   OH214111   1.503   5.407   3.758
 4723TIP3    H114112   1.594   5.417   3.731
 4723TIP3    H214113   1.507   5.395   3.853
 4724TIP3   OH214114   3.054   5.106   3.607
 4724TIP3    H114115   3.082   5.186   3.653
 4724TIP3    H214116   3.013   5.053   3.675
 4725TIP3   OH214117   0.564   5.071   1.863
 4725TIP3    H114118   0.554   5.118   1.781
 4725TIP3    H214119   0.479   5.029   1.878
 4726TIP3   OH214120   7.574   0.736   1.815
 4726TIP3    H114121   7.604   0.805   1.756
 4726TIP3    H214122   7.613   0.656   1.779
 4727TIP3   OH214123   0.897   4.516   2.401
 4727TIP3    H114124   0.985   4.551   2.384
 4727TIP3    H214125   0.911   4.444   2.463
 4728TIP3   OH214126   3.202   3.905   3.042
 4728TIP3    H114127   3.110   3.912   3.017
 4728TIP3    H214128   3.209   3.817   3.081
 4729TIP3   OH214129   0.140   2.358   6.613
 4729TIP3    H114130   0.155   2.359   6.707
 4729TIP3    H214131   0.049   2.383   6.602
 4730TIP3   OH214132   2.080   7.618   2.611
 4730TIP3    H114133   2.004   7.678   2.615
 4730TIP3    H214134   2.121   7.628   2.697
 4731TIP3   OH214135   5.694   6.656   3.352
 4731TIP3    H114136   5.725   6.631   3.439
 4731TIP3    H214137   5.762   6.624   3.292
 4732TIP3   OH214138   7.157   7.452   3.645
 4732TIP3    H114139   7.125   7.526   3.696
 4732TIP3    H214140   7.079   7.397   3.632
 4733TIP3   OH214141   5.870   1.811   6.607
 4733TIP3    H114142   5.887   1.803   6.513
 4733TIP3    H214143   5.775   1.809   6.615
 4734TIP3   OH214144   6.108   4.837   4.460
 4734TIP3    H114145   6.151   4.876   4.536
 4734TIP3    H214146   6.119   4.743   4.473
 4735TIP3   OH214147   1.301   3.956   0.066
 4735TIP3    H114148   1.243   3.883   0.042
 4735TIP3    H214149   1.386   3.931   0.029
 4736TIP3   OH214150   4.140   0.094   5.915
 4736TIP3    H114151   4.113   0.184   5.898
 4736TIP3    H214152   4.108   0.045   5.839
 4737TIP3   OH214153   5.442   1.875   1.239
 4737TIP3    H114154   5.456   1.787   1.204
 4737TIP3    H214155   5.527   1.919   1.230
 4738TIP3   OH214156   3.155   0.954   0.814
 4738TIP3    H114157   3.230   0.918   0.861
 4738TIP3    H214158   3.162   1.048   0.826
 4739TIP3   OH214159   3.890   4.765   2.901
 4739TIP3    H114160   3.800   4.764   2.932
 4739TIP3    H214161   3.914   4.673   2.893
 4740TIP3   OH214162   5.549   2.725   6.220
 4740TIP3    H114163   5.567   2.684   6.135
 4740TIP3    H214164   5.550   2.819   6.202
 4741TIP3   OH214165   0.642   6.495   5.193
 4741TIP3    H114166   0.593   6.576   5.176
 4741TIP3    H214167   0.684   6.510   5.277
 4742TIP3   OH214168   3.021   7.595   6.378
 4742TIP3    H114169   3.052   7.599   6.468
 4742TIP3    H214170   3.031   7.503   6.353
 4743TIP3   OH214171   6.408   5.330   0.479
 4743TIP3    H114172   6.422   5.392   0.407
 4743TIP3    H214173   6.338   5.273   0.449
 4744TIP3   OH214174   5.551   6.571   1.572
 4744TIP3    H114175   5.499   6.530   1.502
 4744TIP3    H214176   5.488   6.586   1.642
 4745TIP3   OH214177   4.270   4.483   4.943
 4745TIP3    H114178   4.225   4.519   4.867
 4745TIP3    H214179   4.220   4.514   5.018
 4746TIP3   OH214180   0.063   7.536   2.463
 4746TIP3    H114181   0.111   7.617   2.445
 4746TIP3    H214182   0.124   7.466   2.441
 4747TIP3   OH214183   5.714   0.956   3.198
 4747TIP3    H114184   5.655   1.020   3.237
 4747TIP3    H214185   5.680   0.941   3.110
 4748TIP3   OH214186   2.558   0.878   6.650
 4748TIP3    H114187   2.547   0.973   6.642
 4748TIP3    H214188   2.648   0.863   6.620
 4749TIP3   OH214189   0.888   6.733   5.283
 4749TIP3    H114190   0.871   6.826   5.271
 4749TIP3    H214191   0.980   6.722   5.258
 4750TIP3   OH214192   6.892   4.751   5.640
 4750TIP3    H114193   6.873   4.772   5.731
 4750TIP3    H214194   6.962   4.685   5.645
 4751TIP3   OH214195   4.867   6.943   0.712
 4751TIP3    H114196   4.778   6.963   0.685
 4751TIP3    H214197   4.867   6.849   0.728
 4752TIP3   OH214198   1.606   6.184   1.864
 4752TIP3    H114199   1.672   6.171   1.932
 4752TIP3    H214200   1.591   6.279   1.863
 4753TIP3   OH214201   3.776   1.299   3.875
 4753TIP3    H114202   3.854   1.312   3.822
 4753TIP3    H214203   3.807   1.300   3.965
 4754TIP3   OH214204   5.583   4.340   2.237
 4754TIP3    H114205   5.533   4.421   2.238
 4754TIP3    H214206   5.650   4.353   2.170
 4755TIP3   OH214207   0.486   1.499   2.914
 4755TIP3    H114208   0.501   1.504   2.819
 4755TIP3    H214209   0.489   1.589   2.943
 4756TIP3   OH214210   8.293   5.137   1.445
 4756TIP3    H114211   8.210   5.174   1.414
 4756TIP3    H214212   8.269   5.053   1.484
 4757TIP3   OH214213   0.645   6.083   2.251
 4757TIP3    H114214   0.636   6.169   2.209
 4757TIP3    H214215   0.575   6.081   2.316
 4758TIP3   OH214216   2.417   2.511   5.166
 4758TIP3    H114217   2.506   2.478   5.174
 4758TIP3    H214218   2.423   2.581   5.101
 4759TIP3   OH214219   5.758   7.696   3.537
 4759TIP3    H114220   5.716   7.731   3.459
 4759TIP3    H214221   5.710   7.616   3.556
 4760TIP3   OH214222   5.364   6.407   1.465
 4760TIP3    H114223   5.368   6.346   1.539
 4760TIP3    H214224   5.342   6.353   1.390
 4761TIP3   OH214225   6.655   5.687   5.160
 4761TIP3    H114226   6.685   5.663   5.073
 4761TIP3    H214227   6.679   5.779   5.169
 4762TIP3   OH214228   7.668   7.027   3.792
 4762TIP3    H114229   7.610   7.090   3.750
 4762TIP3    H214230   7.754   7.047   3.755
 4763TIP3   OH214231   4.834   5.822   1.323
 4763TIP3    H114232   4.889   5.745   1.309
 4763TIP3    H214233   4.881   5.873   1.389
 4764TIP3   OH214234   0.785   7.546   2.193
 4764TIP3    H114235   0.782   7.576   2.102
 4764TIP3    H214236   0.710   7.588   2.234
 4765TIP3   OH214237   5.982   3.840   5.859
 4765TIP3    H114238   5.965   3.804   5.772
 4765TIP3    H214239   5.946   3.929   5.855
 4766TIP3   OH214240   3.133   1.504   3.578
 4766TIP3    H114241   3.039   1.501   3.597
 4766TIP3    H214242   3.151   1.421   3.533
 4767TIP3   OH214243   5.127   4.786   4.790
 4767TIP3    H114244   5.085   4.786   4.704
 4767TIP3    H214245   5.193   4.718   4.785
 4768TIP3   OH214246   4.712   6.218   1.812
 4768TIP3    H114247   4.632   6.222   1.865
 4768TIP3    H214248   4.683   6.240   1.724
 4769TIP3   OH214249   0.689   6.659   3.572
 4769TIP3    H114250   0.620   6.656   3.638
 4769TIP3    H214251   0.715   6.751   3.567
 4770TIP3   OH214252   6.217   7.579   4.918
 4770TIP3    H114253   6.194   7.659   4.966
 4770TIP3    H214254   6.313   7.577   4.918
 4771TIP3   OH214255   7.273   1.281   5.007
 4771TIP3    H114256   7.331   1.317   5.075
 4771TIP3    H214257   7.193   1.332   5.014
 4772TIP3   OH214258   1.193   1.388   4.616
 4772TIP3    H114259   1.281   1.416   4.640
 4772TIP3    H214260   1.172   1.438   4.537
 4773TIP3   OH214261   2.534   3.800   3.025
 4773TIP3    H114262   2.530   3.732   2.958
 4773TIP3    H214263   2.475   3.769   3.094
 4774TIP3   OH214264   1.894   3.851   4.771
 4774TIP3    H114265   1.850   3.935   4.780
 4774TIP3    H214266   1.968   3.855   4.832
 4775TIP3   OH214267   1.662   1.963   0.730
 4775TIP3    H114268   1.627   1.996   0.648
 4775TIP3    H214269   1.750   2.002   0.736
 4776TIP3   OH214270   5.141   6.979   0.261
 4776TIP3    H114271   5.065   6.995   0.317
 4776TIP3    H214272   5.175   6.895   0.290
 4777TIP3   OH214273   7.173   5.899   0.855
 4777TIP3    H114274   7.231   5.840   0.807
 4777TIP3    H214275   7.122   5.943   0.788
 4778TIP3   OH214276   5.189   2.531   5.810
 4778TIP3    H114277   5.248   2.570   5.746
 4778TIP3    H214278   5.107   2.580   5.802
 4779TIP3   OH214279   5.762   2.745   2.665
 4779TIP3    H114280   5.755   2.679   2.734
 4779TIP3    H214281   5.694   2.720   2.602
 4780TIP3   OH214282   7.694   2.291   4.821
 4780TIP3    H114283   7.679   2.378   4.859
 4780TIP3    H214284   7.675   2.230   4.892
 4781TIP3   OH214285   4.079   4.214   6.726
 4781TIP3    H114286   4.129   4.240   6.649
 4781TIP3    H214287   4.086   4.119   6.729
 4782TIP3   OH214288   7.815   6.958   4.137
 4782TIP3    H114289   7.850   6.934   4.051
 4782TIP3    H214290   7.867   6.908   4.199
 4783TIP3   OH214291   1.225   1.465   0.161
 4783TIP3    H114292   1.209   1.533   0.226
 4783TIP3    H214293   1.298   1.499   0.108
 4784TIP3   OH214294   5.475   0.472   4.089
 4784TIP3    H114295   5.444   0.477   3.998
 4784TIP3    H214296   5.547   0.409   4.086
 4785TIP3   OH214297   8.235   1.705   0.203
 4785TIP3    H114298   8.184   1.664   0.134
 4785TIP3    H214299   8.182   1.780   0.231
 4786TIP3   OH214300   8.164   5.486   0.716
 4786TIP3    H114301   8.117   5.501   0.798
 4786TIP3    H214302   8.166   5.391   0.707
 4787TIP3   OH214303   1.223   3.875   4.966
 4787TIP3    H114304   1.145   3.870   4.911
 4787TIP3    H214305   1.198   3.930   5.040
 4788TIP3   OH214306   0.591   7.441   0.103
 4788TIP3    H114307   0.673   7.434   0.153
 4788TIP3    H214308   0.530   7.483   0.164
 4789TIP3   OH214309   4.184   5.431   3.336
 4789TIP3    H114310   4.107   5.377   3.357
 4789TIP3    H214311   4.259   5.377   3.359
 4790TIP3   OH214312   5.409   0.229   0.595
 4790TIP3    H114313   5.392   0.272   0.511
 4790TIP3    H214314   5.355   0.278   0.658
 4791TIP3   OH214315   4.936   4.034   3.692
 4791TIP3    H114316   4.934   3.971   3.620
 4791TIP3    H214317   4.943   4.119   3.650
 4792TIP3   OH214318   1.160   4.496   0.201
 4792TIP3    H114319   1.255   4.504   0.190
 4792TIP3    H214320   1.123   4.567   0.150
 4793TIP3   OH214321   5.868   7.099   3.610
 4793TIP3    H114322   5.868   7.191   3.585
 4793TIP3    H214323   5.940   7.091   3.673
 4794TIP3   OH214324   6.730   4.709   1.784
 4794TIP3    H114325   6.707   4.623   1.749
 4794TIP3    H214326   6.810   4.694   1.834
 4795TIP3   OH214327   2.562   4.736   5.427
 4795TIP3    H114328   2.641   4.690   5.455
 4795TIP3    H214329   2.594   4.820   5.393
 4796TIP3   OH214330   7.697   4.121   4.733
 4796TIP3    H114331   7.754   4.176   4.786
 4796TIP3    H214332   7.688   4.169   4.650
 4797TIP3   OH214333   1.111   2.435   6.119
 4797TIP3    H114334   1.135   2.367   6.055
 4797TIP3    H214335   1.020   2.416   6.141
 4798TIP3   OH214336   3.964   7.565   0.011
 4798TIP3    H114337   4.035   7.562   0.075
 4798TIP3    H214338   3.886   7.583   0.064
 4799TIP3   OH214339   2.684   5.094   0.191
 4799TIP3    H114340   2.604   5.140   0.216
 4799TIP3    H214341   2.744   5.163   0.164
 4800TIP3   OH214342   5.224   1.424   0.431
 4800TIP3    H114343   5.290   1.447   0.365
 4800TIP3    H214344   5.198   1.508   0.469
 4801TIP3   OH214345   7.620   0.257   3.683
 4801TIP3    H114346   7.688   0.253   3.751
 4801TIP3    H214347   7.560   0.186   3.705
 4802TIP3   OH214348   4.188   1.167   6.517
 4802TIP3    H114349   4.248   1.146   6.589
 4802TIP3    H214350   4.245   1.170   6.440
 4803TIP3   OH214351   7.707   3.224   0.355
 4803TIP3    H114352   7.756   3.142   0.348
 4803TIP3    H214353   7.617   3.196   0.376
 4804TIP3   OH214354   7.804   7.391   1.186
 4804TIP3    H114355   7.826   7.401   1.093
 4804TIP3    H214356   7.710   7.374   1.187
 4805TIP3   OH214357   7.329   2.119   1.735
 4805TIP3    H114358   7.279   2.040   1.754
 4805TIP3    H214359   7.290   2.155   1.656
 4806TIP3   OH214360   1.734   4.889   5.813
 4806TIP3    H114361   1.712   4.818   5.752
 4806TIP3    H214362   1.689   4.865   5.894
 4807TIP3   OH214363   4.282   3.263   4.186
 4807TIP3    H114364   4.219   3.303   4.127
 4807TIP3    H214365   4.239   3.264   4.272
 4808TIP3   OH214366   6.077   1.063   2.008
 4808TIP3    H114367   6.069   1.126   1.937
 4808TIP3    H214368   6.107   1.115   2.083
 4809TIP3   OH214369   1.702   0.660   0.957
 4809TIP3    H114370   1.686   0.583   1.011
 4809TIP3    H214371   1.732   0.626   0.873
 4810TIP3   OH214372   0.770   3.065   5.432
 4810TIP3    H114373   0.861   3.069   5.403
 4810TIP3    H214374   0.766   2.985   5.486
 4811TIP3   OH214375   1.911   3.036   3.673
 4811TIP3    H114376   1.950   3.017   3.758
 4811TIP3    H214377   1.986   3.056   3.617
 4812TIP3   OH214378   2.628   0.940   3.078
 4812TIP3    H114379   2.607   0.982   3.161
 4812TIP3    H214380   2.545   0.906   3.046
 4813TIP3   OH214381   5.831   4.018   5.049
 4813TIP3    H114382   5.829   4.069   5.130
 4813TIP3    H214383   5.922   4.023   5.020
 4814TIP3   OH214384   2.245   1.337   3.297
 4814TIP3    H114385   2.324   1.306   3.342
 4814TIP3    H214386   2.194   1.257   3.282
 4815TIP3   OH214387   0.697   4.102   1.856
 4815TIP3    H114388   0.750   4.167   1.902
 4815TIP3    H214389   0.646   4.059   1.924
 4816TIP3   OH214390   2.777   4.767   4.384
 4816TIP3    H114391   2.719   4.694   4.407
 4816TIP3    H214392   2.864   4.739   4.412
 4817TIP3   OH214393   4.595   7.521   1.188
 4817TIP3    H114394   4.628   7.561   1.108
 4817TIP3    H214395   4.514   7.568   1.208
 4818TIP3   OH214396   6.233   4.418   2.521
 4818TIP3    H114397   6.279   4.346   2.564
 4818TIP3    H214398   6.145   4.383   2.503
 4819TIP3   OH214399   4.053   0.370   0.474
 4819TIP3    H114400   4.128   0.313   0.487
 4819TIP3    H214401   4.071   0.414   0.390
 4820TIP3   OH214402   8.296   7.479   2.916
 4820TIP3    H114403   8.277   7.572   2.927
 4820TIP3    H214404   8.213   7.435   2.937
 4821TIP3   OH214405   1.173   1.274   0.541
 4821TIP3    H114406   1.145   1.363   0.563
 4821TIP3    H214407   1.101   1.239   0.489
 4822TIP3   OH214408   7.306   7.275   1.563
 4822TIP3    H114409   7.311   7.368   1.585
 4822TIP3    H214410   7.222   7.266   1.518
 4823TIP3   OH214411   7.981   7.030   1.817
 4823TIP3    H114412   7.930   6.980   1.881
 4823TIP3    H214413   7.920   7.096   1.785
 4824TIP3   OH214414   1.271   7.562   3.303
 4824TIP3    H114415   1.252   7.587   3.213
 4824TIP3    H214416   1.360   7.593   3.318
 4825TIP3   OH214417   5.142   5.520   0.047
 4825TIP3    H114418   5.096   5.533   0.129
 4825TIP3    H214419   5.146   5.607   0.007
 4826TIP3   OH214420   7.115   1.542   6.247
 4826TIP3    H114421   7.104   1.614   6.186
 4826TIP3    H214422   7.200   1.503   6.224
 4827TIP3   OH214423   4.811   0.536   3.423
 4827TIP3    H114424   4.807   0.523   3.518
 4827TIP3    H214425   4.901   0.563   3.406
 4828TIP3   OH214426   7.911   2.549   3.483
 4828TIP3    H114427   7.842   2.606   3.449
 4828TIP3    H214428   7.903   2.556   3.578
 4829TIP3   OH214429   4.914   6.684   0.047
 4829TIP3    H114430   5.006   6.695   0.024
 4829TIP3    H214431   4.894   6.593   0.025
 4830TIP3   OH214432   6.745   2.392   2.116
 4830TIP3    H114433   6.687   2.396   2.040
 4830TIP3    H214434   6.828   2.426   2.084
 4831TIP3   OH214435   2.602   1.045   5.092
 4831TIP3    H114436   2.570   1.117   5.037
 4831TIP3    H214437   2.584   1.072   5.182
 4832TIP3   OH214438   5.299   5.183   5.395
 4832TIP3    H114439   5.369   5.183   5.459
 4832TIP3    H214440   5.220   5.199   5.446
 4833TIP3   OH214441   5.311   1.243   0.648
 4833TIP3    H114442   5.259   1.281   0.577
 4833TIP3    H214443   5.298   1.302   0.722
 4834TIP3   OH214444   2.459   1.699   5.752
 4834TIP3    H114445   2.415   1.626   5.796
 4834TIP3    H214446   2.461   1.769   5.818
 4835TIP3   OH214447   4.363   1.289   1.469
 4835TIP3    H114448   4.421   1.231   1.420
 4835TIP3    H214449   4.398   1.377   1.452
 4836TIP3   OH214450   6.198   5.717   4.140
 4836TIP3    H114451   6.206   5.810   4.160
 4836TIP3    H214452   6.217   5.673   4.223
 4837TIP3   OH214453   1.028   4.948   3.035
 4837TIP3    H114454   1.087   4.874   3.052
 4837TIP3    H214455   1.074   5.024   3.070
 4838TIP3   OH214456   6.931   6.943   0.431
 4838TIP3    H114457   6.847   6.917   0.468
 4838TIP3    H214458   6.941   7.035   0.455
 4839TIP3   OH214459   8.032   0.039   0.248
 4839TIP3    H114460   8.061  -0.050   0.227
 4839TIP3    H214461   8.084   0.095   0.190
 4840TIP3   OH214462   7.338   0.062   3.726
 4840TIP3    H114463   7.360  -0.020   3.680
 4840TIP3    H214464   7.267   0.099   3.675
 4841TIP3   OH214465   0.922   3.291   4.949
 4841TIP3    H114466   0.902   3.202   4.919
 4841TIP3    H214467   1.006   3.282   4.995
 4842TIP3   OH214468   2.456   2.592   0.956
 4842TIP3    H114469   2.393   2.531   0.994
 4842TIP3    H214470   2.429   2.600   0.864
 4843TIP3   OH214471   3.757   4.379   2.591
 4843TIP3    H114472   3.757   4.413   2.501
 4843TIP3    H214473   3.739   4.286   2.581
 4844TIP3   OH214474   5.228   3.668   2.631
 4844TIP3    H114475   5.191   3.611   2.563
 4844TIP3    H214476   5.229   3.613   2.709
 4845TIP3   OH214477   3.986   2.494   2.161
 4845TIP3    H114478   3.929   2.567   2.187
 4845TIP3    H214479   4.067   2.510   2.209
 4846TIP3   OH214480   1.612   6.879   1.791
 4846TIP3    H114481   1.618   6.927   1.874
 4846TIP3    H214482   1.518   6.872   1.774
 4847TIP3   OH214483   6.295   2.849   0.272
 4847TIP3    H114484   6.310   2.909   0.199
 4847TIP3    H214485   6.374   2.857   0.326
 4848TIP3   OH214486   1.375   7.368   3.094
 4848TIP3    H114487   1.468   7.352   3.084
 4848TIP3    H214488   1.369   7.431   3.165
 4849TIP3   OH214489   1.188   3.954   3.904
 4849TIP3    H114490   1.184   4.047   3.880
 4849TIP3    H214491   1.264   3.920   3.856
 4850TIP3   OH214492   4.111   4.343   0.842
 4850TIP3    H114493   4.078   4.279   0.779
 4850TIP3    H214494   4.032   4.381   0.880
 4851TIP3   OH214495   4.030   0.083   6.552
 4851TIP3    H114496   3.967   0.082   6.624
 4851TIP3    H214497   4.034  -0.008   6.523
 4852TIP3   OH214498   5.487   3.868   4.965
 4852TIP3    H114499   5.574   3.829   4.955
 4852TIP3    H214500   5.432   3.798   4.998
 4853TIP3   OH214501   4.255   6.408   3.158
 4853TIP3    H114502   4.214   6.326   3.130
 4853TIP3    H214503   4.193   6.446   3.220
 4854TIP3   OH214504   5.293   0.572   1.822
 4854TIP3    H114505   5.215   0.627   1.814
 4854TIP3    H214506   5.345   0.613   1.891
 4855TIP3   OH214507   3.975   1.940   5.678
 4855TIP3    H114508   3.913   1.899   5.617
 4855TIP3    H214509   4.051   1.883   5.676
 4856TIP3   OH214510   1.177   4.018   5.240
 4856TIP3    H114511   1.083   4.036   5.245
 4856TIP3    H214512   1.213   4.054   5.321
 4857TIP3   OH214513   6.530   4.060   0.934
 4857TIP3    H114514   6.490   4.087   1.017
 4857TIP3    H214515   6.624   4.062   0.950
 4858TIP3   OH214516   0.370   3.433   0.385
 4858TIP3    H114517   0.292   3.391   0.421
 4858TIP3    H214518   0.340   3.473   0.304
 4859TIP3   OH214519   0.880   1.392   6.399
 4859TIP3    H114520   0.867   1.373   6.306
 4859TIP3    H214521   0.894   1.307   6.439
 4860TIP3   OH214522   0.726   3.770   6.603
 4860TIP3    H114523   0.730   3.833   6.675
 4860TIP3    H214524   0.672   3.698   6.637
 4861TIP3   OH214525   7.385   2.590   2.301
 4861TIP3    H114526   7.439   2.619   2.227
 4861TIP3    H214527   7.444   2.538   2.355
 4862TIP3   OH214528   2.162   3.236   4.097
 4862TIP3    H114529   2.220   3.173   4.139
 4862TIP3    H214530   2.152   3.306   4.160
 4863TIP3   OH214531   7.920   6.794   0.485
 4863TIP3    H114532   7.929   6.865   0.548
 4863TIP3    H214533   8.008   6.758   0.476
 4864TIP3   OH214534   7.455   1.129   2.140
 4864TIP3    H114535   7.361   1.112   2.134
 4864TIP3    H214536   7.469   1.146   2.233
 4865TIP3   OH214537   3.455   2.207   6.233
 4865TIP3    H114538   3.409   2.181   6.313
 4865TIP3    H214539   3.482   2.124   6.193
 4866TIP3   OH214540   2.425   0.572   4.396
 4866TIP3    H114541   2.510   0.528   4.404
 4866TIP3    H214542   2.361   0.503   4.411
 4867TIP3   OH214543   1.001   3.969   1.727
 4867TIP3    H114544   1.097   3.973   1.731
 4867TIP3    H214545   0.978   3.890   1.776
 4868TIP3   OH214546   6.628   1.419   1.804
 4868TIP3    H114547   6.572   1.410   1.726
 4868TIP3    H214548   6.568   1.450   1.872
 4869TIP3   OH214549   1.058   0.427   5.568
 4869TIP3    H114550   1.007   0.505   5.546
 4869TIP3    H214551   1.034   0.406   5.658
 4870TIP3   OH214552   2.902   0.274   1.357
 4870TIP3    H114553   2.989   0.273   1.397
 4870TIP3    H214554   2.916   0.246   1.267
 4871TIP3   OH214555   4.398   3.988   4.445
 4871TIP3    H114556   4.480   4.004   4.397
 4871TIP3    H214557   4.400   3.894   4.463
 4872TIP3   OH214558   5.631   6.514   6.732
 4872TIP3    H114559   5.600   6.484   6.818
 4872TIP3    H214560   5.703   6.455   6.710
 4873TIP3   OH214561   5.813   6.415   6.096
 4873TIP3    H114562   5.878   6.377   6.036
 4873TIP3    H214563   5.831   6.373   6.180
 4874TIP3   OH214564   1.446   3.520   0.085
 4874TIP3    H114565   1.496   3.456   0.135
 4874TIP3    H214566   1.390   3.467   0.028
 4875TIP3   OH214567   4.154   6.941   0.272
 4875TIP3    H114568   4.109   6.882   0.213
 4875TIP3    H214569   4.093   6.954   0.345
 4876TIP3   OH214570   1.062   3.105   5.393
 4876TIP3    H114571   1.060   3.200   5.380
 4876TIP3    H214572   1.100   3.094   5.481
 4877TIP3   OH214573   7.964   1.392   6.153
 4877TIP3    H114574   8.010   1.308   6.152
 4877TIP3    H214575   7.968   1.421   6.244
 4878TIP3   OH214576   3.710   5.547   2.175
 4878TIP3    H114577   3.790   5.505   2.142
 4878TIP3    H214578   3.646   5.534   2.105
 4879TIP3   OH214579   7.044   5.755   3.275
 4879TIP3    H114580   7.084   5.838   3.300
 4879TIP3    H214581   7.111   5.689   3.291
 4880TIP3   OH214582   1.921   7.731   5.678
 4880TIP3    H114583   1.905   7.732   5.772
 4880TIP3    H214584   1.961   7.817   5.659
 4881TIP3   OH214585   4.890   1.204   5.328
 4881TIP3    H114586   4.857   1.250   5.405
 4881TIP3    H214587   4.848   1.247   5.254
 4882TIP3   OH214588   0.728   3.354   3.378
 4882TIP3    H114589   0.772   3.367   3.294
 4882TIP3    H214590   0.759   3.268   3.408
 4883TIP3   OH214591   7.346   3.328   6.351
 4883TIP3    H114592   7.311   3.411   6.321
 4883TIP3    H214593   7.374   3.283   6.271
 4884TIP3   OH214594   7.987   5.180   0.767
 4884TIP3    H114595   7.937   5.245   0.816
 4884TIP3    H214596   8.014   5.116   0.832
 4885TIP3   OH214597   2.974   3.309   6.144
 4885TIP3    H114598   2.958   3.385   6.089
 4885TIP3    H214599   2.886   3.279   6.169
 4886TIP3   OH214600   0.661   4.393   1.795
 4886TIP3    H114601   0.731   4.331   1.775
 4886TIP3    H214602   0.586   4.360   1.747
 4887TIP3   OH214603   2.848   6.890   2.264
 4887TIP3    H114604   2.937   6.877   2.296
 4887TIP3    H214605   2.855   6.965   2.205
 4888TIP3   OH214606   5.496   0.113   1.591
 4888TIP3    H114607   5.407   0.078   1.580
 4888TIP3    H214608   5.483   0.201   1.626
 4889TIP3   OH214609   8.203   5.077   3.988
 4889TIP3    H114610   8.188   4.994   4.034
 4889TIP3    H214611   8.298   5.083   3.980
 4890TIP3   OH214612   5.457   4.159   4.159
 4890TIP3    H114613   5.473   4.249   4.187
 4890TIP3    H214614   5.511   4.149   4.081
 4891TIP3   OH214615   8.028   5.369   1.798
 4891TIP3    H114616   8.083   5.352   1.875
 4891TIP3    H214617   7.983   5.451   1.818
 4892TIP3   OH214618   3.958   1.833   3.360
 4892TIP3    H114619   3.874   1.796   3.334
 4892TIP3    H214620   3.941   1.875   3.444
 4893TIP3   OH214621   2.847   4.932   0.602
 4893TIP3    H114622   2.904   4.863   0.636
 4893TIP3    H214623   2.825   4.986   0.678
 4894TIP3   OH214624   3.025   3.042   5.730
 4894TIP3    H114625   3.051   3.050   5.822
 4894TIP3    H214626   3.014   2.948   5.716
 4895TIP3   OH214627   5.646   6.247   3.429
 4895TIP3    H114628   5.679   6.271   3.515
 4895TIP3    H214629   5.725   6.244   3.374
 4896TIP3   OH214630   7.406   0.237   2.264
 4896TIP3    H114631   7.454   0.245   2.346
 4896TIP3    H214632   7.314   0.233   2.290
 4897TIP3   OH214633   2.178   0.604   4.269
 4897TIP3    H114634   2.265   0.602   4.309
 4897TIP3    H214635   2.195   0.616   4.176
 4898TIP3   OH214636   5.864   2.453   3.831
 4898TIP3    H114637   5.808   2.382   3.863
 4898TIP3    H214638   5.952   2.424   3.852
 4899TIP3   OH214639   3.175   0.741   1.202
 4899TIP3    H114640   3.221   0.810   1.154
 4899TIP3    H214641   3.095   0.782   1.233
 4900TIP3   OH214642   2.124   5.674   0.434
 4900TIP3    H114643   2.101   5.762   0.405
 4900TIP3    H214644   2.170   5.688   0.517
 4901TIP3   OH214645   2.339   6.595   0.217
 4901TIP3    H114646   2.387   6.579   0.135
 4901TIP3    H214647   2.280   6.667   0.196
 4902TIP3   OH214648   4.070   4.544   1.469
 4902TIP3    H114649   4.027   4.532   1.554
 4902TIP3    H214650   4.156   4.580   1.490
 4903TIP3   OH214651   0.232   5.582   1.078
 4903TIP3    H114652   0.243   5.489   1.057
 4903TIP3    H214653   0.142   5.602   1.052
 4904TIP3   OH214654   7.106   7.468   4.526
 4904TIP3    H114655   7.140   7.379   4.516
 4904TIP3    H214656   7.019   7.465   4.485
 4905TIP3   OH214657   5.861   4.119   1.412
 4905TIP3    H114658   5.940   4.164   1.441
 4905TIP3    H214659   5.820   4.179   1.351
 4906TIP3   OH214660   7.379   0.629   4.337
 4906TIP3    H114661   7.384   0.655   4.245
 4906TIP3    H214662   7.436   0.552   4.343
 4907TIP3   OH214663   4.726   0.704   2.590
 4907TIP3    H114664   4.685   0.669   2.511
 4907TIP3    H214665   4.728   0.630   2.651
 4908TIP3   OH214666   6.214   6.151   6.329
 4908TIP3    H114667   6.191   6.102   6.408
 4908TIP3    H214668   6.310   6.146   6.325
 4909TIP3   OH214669   4.633   5.801   1.637
 4909TIP3    H114670   4.598   5.827   1.723
 4909TIP3    H214671   4.641   5.883   1.589
 4910TIP3   OH214672   5.774   2.281   3.538
 4910TIP3    H114673   5.813   2.238   3.613
 4910TIP3    H214674   5.815   2.367   3.536
 4911TIP3   OH214675   2.265   7.473   2.129
 4911TIP3    H114676   2.351   7.437   2.108
 4911TIP3    H214677   2.274   7.567   2.115
 4912TIP3   OH214678   0.973   6.922   2.605
 4912TIP3    H114679   0.990   6.849   2.664
 4912TIP3    H214680   0.965   6.998   2.661
 4913TIP3   OH214681   3.943   3.021   0.541
 4913TIP3    H114682   4.016   3.005   0.602
 4913TIP3    H214683   3.946   3.115   0.524
 4914TIP3   OH214684   7.332   4.661   6.197
 4914TIP3    H114685   7.328   4.592   6.263
 4914TIP3    H214686   7.368   4.617   6.120
 4915TIP3   OH214687   7.630   1.148   1.231
 4915TIP3    H114688   7.669   1.061   1.238
 4915TIP3    H214689   7.581   1.147   1.149
 4916TIP3   OH214690   1.997   5.320   3.075
 4916TIP3    H114691   2.071   5.376   3.052
 4916TIP3    H214692   1.985   5.263   2.999
 4917TIP3   OH214693   3.075   2.133   1.275
 4917TIP3    H114694   3.072   2.115   1.370
 4917TIP3    H214695   3.088   2.047   1.235
 4918TIP3   OH214696   2.072   3.851   4.997
 4918TIP3    H114697   2.111   3.769   5.027
 4918TIP3    H214698   2.069   3.906   5.075
 4919TIP3   OH214699   5.975   5.229   5.986
 4919TIP3    H114700   5.881   5.209   5.987
 4919TIP3    H214701   6.009   5.191   6.067
 4920TIP3   OH214702   3.992   0.771   6.451
 4920TIP3    H114703   3.948   0.849   6.484
 4920TIP3    H214704   3.940   0.745   6.375
 4921TIP3   OH214705   4.297   1.810   4.583
 4921TIP3    H114706   4.279   1.839   4.493
 4921TIP3    H214707   4.237   1.736   4.596
 4922TIP3   OH214708   6.135   4.373   4.961
 4922TIP3    H114709   6.063   4.393   5.020
 4922TIP3    H214710   6.213   4.408   5.005
 4923TIP3   OH214711   6.625   5.581   6.419
 4923TIP3    H114712   6.658   5.505   6.467
 4923TIP3    H214713   6.695   5.601   6.356
 4924TIP3   OH214714   2.180   1.214   1.921
 4924TIP3    H114715   2.098   1.261   1.936
 4924TIP3    H214716   2.174   1.137   1.978
 4925TIP3   OH214717   7.257   2.776   3.407
 4925TIP3    H114718   7.285   2.710   3.470
 4925TIP3    H214719   7.338   2.819   3.381
 4926TIP3   OH214720   0.855   1.293   5.096
 4926TIP3    H114721   0.828   1.364   5.153
 4926TIP3    H214722   0.946   1.314   5.073
 4927TIP3   OH214723   2.287   1.324   5.209
 4927TIP3    H114724   2.327   1.237   5.209
 4927TIP3    H214725   2.311   1.362   5.293
 4928TIP3   OH214726   3.173   5.837   0.666
 4928TIP3    H114727   3.147   5.924   0.634
 4928TIP3    H214728   3.268   5.836   0.658
 4929TIP3   OH214729   3.686   1.182   1.530
 4929TIP3    H114730   3.666   1.233   1.608
 4929TIP3    H214731   3.678   1.091   1.559
 4930TIP3   OH214732   4.765   7.403   6.303
 4930TIP3    H114733   4.830   7.368   6.242
 4930TIP3    H214734   4.738   7.327   6.354
 4931TIP3   OH214735   6.753   5.265   2.166
 4931TIP3    H114736   6.746   5.354   2.132
 4931TIP3    H214737   6.820   5.224   2.112
 4932TIP3   OH214738   7.442   7.207   1.874
 4932TIP3    H114739   7.373   7.141   1.864
 4932TIP3    H214740   7.518   7.158   1.905
 4933TIP3   OH214741   1.114   2.028   4.010
 4933TIP3    H114742   1.145   1.988   4.091
 4933TIP3    H214743   1.171   2.105   3.998
 4934TIP3   OH214744   8.039   3.141   2.935
 4934TIP3    H114745   8.080   3.211   2.986
 4934TIP3    H214746   7.997   3.085   3.001
 4935TIP3   OH214747   6.923   0.034   0.909
 4935TIP3    H114748   6.947   0.095   0.979
 4935TIP3    H214749   6.879  -0.038   0.954
 4936TIP3   OH214750   7.310   2.208   2.459
 4936TIP3    H114751   7.234   2.151   2.473
 4936TIP3    H214752   7.296   2.245   2.372
 4937TIP3   OH214753   5.808   6.142   5.759
 4937TIP3    H114754   5.833   6.063   5.806
 4937TIP3    H214755   5.715   6.153   5.778
 4938TIP3   OH214756   0.024   4.925   6.326
 4938TIP3    H114757   0.073   5.003   6.349
 4938TIP3    H214758  -0.042   4.955   6.263
 4939TIP3   OH214759   0.680   5.130   4.258
 4939TIP3    H114760   0.703   5.045   4.295
 4939TIP3    H214761   0.617   5.110   4.189
 4940TIP3   OH214762   7.801   1.590   2.958
 4940TIP3    H114763   7.736   1.651   2.922
 4940TIP3    H214764   7.759   1.504   2.951
 4941TIP3   OH214765   2.934   2.148   6.130
 4941TIP3    H114766   2.952   2.168   6.038
 4941TIP3    H214767   2.888   2.064   6.127
 4942TIP3   OH214768   7.905   2.033   6.376
 4942TIP3    H114769   7.901   2.032   6.472
 4942TIP3    H214770   7.858   1.954   6.350
 4943TIP3   OH214771   7.255   7.734   5.587
 4943TIP3    H114772   7.221   7.805   5.641
 4943TIP3    H214773   7.344   7.761   5.564
 4944TIP3   OH214774   0.117   1.926   0.040
 4944TIP3    H114775   0.067   1.863  -0.013
 4944TIP3    H214776   0.073   1.926   0.125
 4945TIP3   OH214777   2.650   7.767   4.671
 4945TIP3    H114778   2.693   7.692   4.713
 4945TIP3    H214779   2.635   7.739   4.581
 4946TIP3   OH214780   0.311   4.327   3.886
 4946TIP3    H114781   0.302   4.231   3.889
 4946TIP3    H214782   0.266   4.357   3.965
 4947TIP3   OH214783   0.294   6.787   4.814
 4947TIP3    H114784   0.260   6.827   4.895
 4947TIP3    H214785   0.320   6.861   4.760
 4948TIP3   OH214786   2.992   2.738   0.497
 4948TIP3    H114787   3.015   2.762   0.587
 4948TIP3    H214788   3.005   2.819   0.447
 4949TIP3   OH214789   6.273   0.038   5.580
 4949TIP3    H114790   6.367   0.032   5.563
 4949TIP3    H214791   6.237  -0.044   5.547
 4950TIP3   OH214792   4.067   6.593   5.036
 4950TIP3    H114793   4.074   6.499   5.015
 4950TIP3    H214794   4.143   6.610   5.092
 4951TIP3   OH214795   3.319   0.829   2.062
 4951TIP3    H114796   3.307   0.779   1.982
 4951TIP3    H214797   3.374   0.903   2.037
 4952TIP3   OH214798   3.842   2.318   2.828
 4952TIP3    H114799   3.884   2.404   2.824
 4952TIP3    H214800   3.757   2.335   2.870
 4953TIP3   OH214801   8.174   1.882   5.490
 4953TIP3    H114802   8.261   1.922   5.494
 4953TIP3    H214803   8.173   1.836   5.406
 4954TIP3   OH214804   7.292   5.449   4.905
 4954TIP3    H114805   7.229   5.519   4.886
 4954TIP3    H214806   7.238   5.373   4.924
 4955TIP3   OH214807   1.603   1.126   3.944
 4955TIP3    H114808   1.508   1.114   3.944
 4955TIP3    H214809   1.626   1.147   4.034
 4956TIP3   OH214810   4.441   1.038   6.586
 4956TIP3    H114811   4.365   0.982   6.570
 4956TIP3    H214812   4.516   0.981   6.569
 4957TIP3   OH214813   7.145   6.342   1.218
 4957TIP3    H114814   7.240   6.354   1.213
 4957TIP3    H214815   7.110   6.430   1.218
 4958TIP3   OH214816   8.202   6.124   5.181
 4958TIP3    H114817   8.257   6.070   5.125
 4958TIP3    H214818   8.177   6.198   5.126
 4959TIP3   OH214819   4.494   1.319   2.002
 4959TIP3    H114820   4.584   1.324   1.970
 4959TIP3    H214821   4.454   1.249   1.950
 4960TIP3   OH214822   4.963   5.071   2.515
 4960TIP3    H114823   4.916   5.147   2.482
 4960TIP3    H214824   4.897   5.002   2.521
 4961TIP3   OH214825   7.705   0.816   0.968
 4961TIP3    H114826   7.622   0.803   0.921
 4961TIP3    H214827   7.770   0.769   0.915
 4962TIP3   OH214828   3.886   4.953   0.804
 4962TIP3    H114829   3.849   4.960   0.892
 4962TIP3    H214830   3.814   4.979   0.746
 4963TIP3   OH214831   3.389   6.969   2.851
 4963TIP3    H114832   3.450   6.948   2.781
 4963TIP3    H214833   3.304   6.974   2.808
 4964TIP3   OH214834   6.109   0.654   2.118
 4964TIP3    H114835   6.137   0.737   2.155
 4964TIP3    H214836   6.111   0.593   2.191
 4965TIP3   OH214837   4.625   2.794   4.993
 4965TIP3    H114838   4.586   2.711   5.020
 4965TIP3    H214839   4.588   2.858   5.053
 4966TIP3   OH214840   0.271   7.735   5.824
 4966TIP3    H114841   0.295   7.670   5.890
 4966TIP3    H214842   0.194   7.779   5.861
 4967TIP3   OH214843   2.523   3.038   0.087
 4967TIP3    H114844   2.582   3.009   0.157
 4967TIP3    H214845   2.516   2.963   0.029
 4968TIP3   OH214846   1.355   7.275   0.098
 4968TIP3    H114847   1.394   7.193   0.126
 4968TIP3    H214848   1.277   7.285   0.153
 4969TIP3   OH214849   2.992   5.150   1.486
 4969TIP3    H114850   2.904   5.164   1.452
 4969TIP3    H214851   2.982   5.153   1.581
 4970TIP3   OH214852   0.550   5.478   0.077
 4970TIP3    H114853   0.646   5.472   0.077
 4970TIP3    H214854   0.526   5.473   0.170
 4971TIP3   OH214855   3.713   4.287   2.971
 4971TIP3    H114856   3.757   4.204   2.952
 4971TIP3    H214857   3.698   4.285   3.065
 4972TIP3   OH214858   5.845   3.072   6.740
 4972TIP3    H114859   5.869   2.992   6.786
 4972TIP3    H214860   5.928   3.119   6.728
 4973TIP3   OH214861   2.196   0.835   0.182
 4973TIP3    H114862   2.132   0.895   0.143
 4973TIP3    H214863   2.235   0.791   0.107
 4974TIP3   OH214864   1.276   3.867   2.919
 4974TIP3    H114865   1.186   3.886   2.891
 4974TIP3    H214866   1.266   3.831   3.008
 4975TIP3   OH214867   4.822   1.606   5.055
 4975TIP3    H114868   4.854   1.686   5.097
 4975TIP3    H214869   4.901   1.555   5.037
 4976TIP3   OH214870   1.630   1.930   0.377
 4976TIP3    H114871   1.565   1.885   0.323
 4976TIP3    H214872   1.709   1.877   0.368
 4977TIP3   OH214873   3.452   4.553   2.795
 4977TIP3    H114874   3.457   4.600   2.879
 4977TIP3    H214875   3.515   4.481   2.805
 4978TIP3   OH214876   0.849   7.695   3.083
 4978TIP3    H114877   0.888   7.774   3.046
 4978TIP3    H214878   0.766   7.685   3.037
 4979TIP3   OH214879   8.015   1.543   5.927
 4979TIP3    H114880   7.988   1.503   6.010
 4979TIP3    H214881   8.061   1.623   5.953
 4980TIP3   OH214882   4.019   0.568   4.404
 4980TIP3    H114883   4.008   0.524   4.320
 4980TIP3    H214884   4.064   0.650   4.383
 4981TIP3   OH214885   0.536   5.774   4.202
 4981TIP3    H114886   0.508   5.782   4.293
 4981TIP3    H214887   0.610   5.713   4.205
 4982TIP3   OH214888   4.868   4.522   5.871
 4982TIP3    H114889   4.894   4.455   5.934
 4982TIP3    H214890   4.832   4.474   5.797
 4983TIP3   OH214891   1.932   3.721   6.281
 4983TIP3    H114892   1.851   3.678   6.309
 4983TIP3    H214893   1.971   3.661   6.217
 4984TIP3   OH214894   0.040   4.183   1.249
 4984TIP3    H114895   0.127   4.144   1.246
 4984TIP3    H214896   0.024   4.212   1.159
 4985TIP3   OH214897   7.757   2.540   5.422
 4985TIP3    H114898   7.745   2.592   5.501
 4985TIP3    H214899   7.679   2.485   5.417
 4986TIP3   OH214900   2.070   6.235   0.723
 4986TIP3    H114901   2.009   6.256   0.794
 4986TIP3    H214902   2.043   6.148   0.693
 4987TIP3   OH214903   3.818   1.643   1.012
 4987TIP3    H114904   3.904   1.628   0.974
 4987TIP3    H214905   3.782   1.717   0.962
 4988TIP3   OH214906   7.633   7.322   1.469
 4988TIP3    H114907   7.566   7.389   1.481
 4988TIP3    H214908   7.585   7.240   1.468
 4989TIP3   OH214909   5.587   6.856   2.545
 4989TIP3    H114910   5.577   6.888   2.635
 4989TIP3    H214911   5.642   6.922   2.503
 4990TIP3   OH214912   0.457   7.136   3.586
 4990TIP3    H114913   0.536   7.185   3.610
 4990TIP3    H214914   0.436   7.167   3.498
 4991TIP3   OH214915   2.580   6.345   1.182
 4991TIP3    H114916   2.492   6.308   1.184
 4991TIP3    H214917   2.624   6.305   1.257
 4992TIP3   OH214918   5.777   7.635   6.680
 4992TIP3    H114919   5.764   7.713   6.734
 4992TIP3    H214920   5.707   7.575   6.707
 4993TIP3   OH214921   5.190   4.174   6.470
 4993TIP3    H114922   5.260   4.191   6.406
 4993TIP3    H214923   5.116   4.143   6.418
 4994TIP3   OH214924   2.225   6.944   2.723
 4994TIP3    H114925   2.162   6.928   2.653
 4994TIP3    H214926   2.262   6.858   2.742
 4995TIP3   OH214927   3.218   3.588   5.500
 4995TIP3    H114928   3.152   3.528   5.466
 4995TIP3    H214929   3.167   3.656   5.546
 4996TIP3   OH214930   4.751   5.504   0.216
 4996TIP3    H114931   4.661   5.472   0.229
 4996TIP3    H214932   4.757   5.522   0.123
 4997TIP3   OH214933   2.233   1.118   5.826
 4997TIP3    H114934   2.161   1.089   5.769
 4997TIP3    H214935   2.212   1.080   5.911
 4998TIP3   OH214936   0.629   2.930   1.604
 4998TIP3    H114937   0.534   2.930   1.604
 4998TIP3    H214938   0.653   2.899   1.691
 4999TIP3   OH214939   8.225   4.417   0.015
 4999TIP3    H114940   8.296   4.435  -0.046
 4999TIP3    H214941   8.149   4.462  -0.022
 5000TIP3   OH214942   5.610   4.502   3.218
 5000TIP3    H114943   5.523   4.502   3.178
 5000TIP3    H214944   5.633   4.595   3.226
 5001TIP3   OH214945   3.890   5.000   1.070
 5001TIP3    H114946   3.910   5.043   1.153
 5001TIP3    H214947   3.841   4.922   1.095
 5002TIP3   OH214948   2.347   5.740   4.015
 5002TIP3    H114949   2.353   5.726   4.109
 5002TIP3    H214950   2.261   5.703   3.991
 5003TIP3   OH214951   5.528   6.860   5.982
 5003TIP3    H114952   5.472   6.873   5.906
 5003TIP3    H214953   5.479   6.800   6.038
 5004TIP3   OH214954   8.060   2.409   2.104
 5004TIP3    H114955   8.021   2.357   2.034
 5004TIP3    H214956   7.998   2.480   2.119
 5005TIP3   OH214957   5.253   4.574   6.414
 5005TIP3    H114958   5.225   4.663   6.432
 5005TIP3    H214959   5.181   4.536   6.363
 5006TIP3   OH214960   0.547   0.061   6.389
 5006TIP3    H114961   0.479   0.063   6.456
 5006TIP3    H214962   0.621   0.018   6.432
 5007TIP3   OH214963   2.178   4.892   2.964
 5007TIP3    H114964   2.087   4.910   2.942
 5007TIP3    H214965   2.229   4.940   2.898
 5008TIP3   OH214966   1.846   3.476   0.494
 5008TIP3    H114967   1.852   3.568   0.521
 5008TIP3    H214968   1.834   3.479   0.399
 5009TIP3   OH214969   6.793   5.244   3.392
 5009TIP3    H114970   6.817   5.324   3.346
 5009TIP3    H214971   6.798   5.268   3.485
 5010TIP3   OH214972   5.187   7.567   5.371
 5010TIP3    H114973   5.126   7.510   5.417
 5010TIP3    H214974   5.269   7.517   5.367
 5011TIP3   OH214975   3.294   5.151   2.850
 5011TIP3    H114976   3.201   5.139   2.831
 5011TIP3    H214977   3.296   5.216   2.920
 5012TIP3   OH214978   5.125   1.999   5.393
 5012TIP3    H114979   5.219   1.991   5.375
 5012TIP3    H214980   5.092   2.053   5.322
 5013TIP3   OH214981   2.386   7.486   5.940
 5013TIP3    H114982   2.341   7.424   5.998
 5013TIP3    H214983   2.329   7.495   5.864
 5014TIP3   OH214984   4.915   6.549   5.737
 5014TIP3    H114985   4.919   6.498   5.656
 5014TIP3    H214986   4.860   6.497   5.795
 5015TIP3   OH214987   8.105   3.115   4.811
 5015TIP3    H114988   8.078   3.201   4.844
 5015TIP3    H214989   8.139   3.132   4.724
 5016TIP3   OH214990   5.675   5.430   6.268
 5016TIP3    H114991   5.739   5.416   6.337
 5016TIP3    H214992   5.724   5.470   6.196
 5017TIP3   OH214993   0.440   7.688   3.697
 5017TIP3    H114994   0.456   7.595   3.712
 5017TIP3    H214995   0.526   7.729   3.707
 5018TIP3   OH214996   3.000   3.281   0.454
 5018TIP3    H114997   3.057   3.334   0.397
 5018TIP3    H214998   3.036   3.192   0.447
 5019TIP3   OH214999   0.430   2.829   5.971
 5019TIP3    H115000   0.409   2.881   5.893
 5019TIP3    H215001   0.509   2.870   6.007
 5020TIP3   OH215002   2.709   6.467   6.629
 5020TIP3    H115003   2.764   6.449   6.705
 5020TIP3    H215004   2.744   6.549   6.594
 5021TIP3   OH215005   4.973   0.044   4.025
 5021TIP3    H115006   4.894  -0.010   4.025
 5021TIP3    H215007   4.974   0.085   4.111
 5022TIP3   OH215008   3.395   6.969   2.194
 5022TIP3    H115009   3.376   6.919   2.115
 5022TIP3    H215010   3.475   7.017   2.173
 5023TIP3   OH215011   3.877   6.727   4.886
 5023TIP3    H115012   3.943   6.674   4.932
 5023TIP3    H215013   3.926   6.803   4.853
 5024TIP3   OH215014   0.408   5.699   4.482
 5024TIP3    H115015   0.430   5.764   4.547
 5024TIP3    H215016   0.470   5.628   4.496
 5025TIP3   OH215017   6.210   3.849   3.976
 5025TIP3    H115018   6.287   3.827   3.924
 5025TIP3    H215019   6.233   3.931   4.020
 5026TIP3   OH215020   2.718   7.519   1.629
 5026TIP3    H115021   2.639   7.469   1.608
 5026TIP3    H215022   2.760   7.534   1.544
 5027TIP3   OH215023   5.002   5.126   4.579
 5027TIP3    H115024   4.940   5.200   4.581
 5027TIP3    H215025   5.046   5.130   4.664
 5028TIP3   OH215026   6.138   5.591   5.782
 5028TIP3    H115027   6.155   5.525   5.850
 5028TIP3    H215028   6.192   5.563   5.708
 5029TIP3   OH215029   6.335   1.652   2.596
 5029TIP3    H115030   6.249   1.685   2.620
 5029TIP3    H215031   6.370   1.615   2.677
 5030TIP3   OH215032   6.922   4.248   4.673
 5030TIP3    H115033   6.856   4.270   4.738
 5030TIP3    H215034   6.925   4.324   4.616
 5031TIP3   OH215035   2.669   1.220   5.318
 5031TIP3    H115036   2.579   1.233   5.349
 5031TIP3    H215037   2.702   1.309   5.303
 5032TIP3   OH215038   0.871   0.945   3.072
 5032TIP3    H115039   0.914   0.995   3.141
 5032TIP3    H215040   0.910   0.977   2.991
 5033TIP3   OH215041   6.527   3.671   5.444
 5033TIP3    H115042   6.572   3.589   5.424
 5033TIP3    H215043   6.597   3.736   5.450
 5034TIP3   OH215044   1.077   7.170   4.388
 5034TIP3    H115045   1.112   7.090   4.428
 5034TIP3    H215046   1.073   7.150   4.295
 5035TIP3   OH215047   7.132   6.856   3.318
 5035TIP3    H115048   7.163   6.933   3.270
 5035TIP3    H215049   7.203   6.836   3.379
 5036TIP3   OH215050   6.081   4.854   2.948
 5036TIP3    H115051   6.063   4.911   3.022
 5036TIP3    H215052   6.002   4.858   2.894
 5037TIP3   OH215053   6.568   2.697   4.967
 5037TIP3    H115054   6.522   2.747   4.900
 5037TIP3    H215055   6.589   2.762   5.035
 5038TIP3   OH215056   1.873   2.450   6.256
 5038TIP3    H115057   1.860   2.375   6.313
 5038TIP3    H215058   1.968   2.455   6.243
 5039TIP3   OH215059   3.582   7.006   0.330
 5039TIP3    H115060   3.493   7.039   0.341
 5039TIP3    H215061   3.614   7.046   0.250
 5040TIP3   OH215062   5.439   0.802   0.776
 5040TIP3    H115063   5.362   0.856   0.759
 5040TIP3    H215064   5.407   0.712   0.774
 5041TIP3   OH215065   2.737   2.396   5.092
 5041TIP3    H115066   2.730   2.314   5.140
 5041TIP3    H215067   2.673   2.388   5.020
 5042TIP3   OH215068   3.762   6.838   5.505
 5042TIP3    H115069   3.835   6.782   5.530
 5042TIP3    H215070   3.769   6.914   5.563
 5043TIP3   OH215071   6.756   0.754   3.750
 5043TIP3    H115072   6.795   0.666   3.752
 5043TIP3    H215073   6.712   0.758   3.666
 5044TIP3   OH215074   3.421   5.467   3.249
 5044TIP3    H115075   3.434   5.429   3.336
 5044TIP3    H215076   3.487   5.536   3.243
 5045TIP3   OH215077   7.251   2.779   5.640
 5045TIP3    H115078   7.196   2.728   5.700
 5045TIP3    H215079   7.223   2.869   5.653
 5046TIP3   OH215080   4.536   2.505   5.939
 5046TIP3    H115081   4.454   2.492   5.891
 5046TIP3    H215082   4.604   2.500   5.872
 5047TIP3   OH215083   1.847   4.812   3.674
 5047TIP3    H115084   1.805   4.793   3.758
 5047TIP3    H215085   1.939   4.824   3.696
 5048TIP3   OH215086   3.435   6.039   2.594
 5048TIP3    H115087   3.416   6.113   2.651
 5048TIP3    H215088   3.520   6.006   2.624
 5049TIP3   OH215089   4.548   7.321   0.940
 5049TIP3    H115090   4.612   7.255   0.912
 5049TIP3    H215091   4.582   7.353   1.023
 5050TIP3   OH215092   3.438   5.552   1.978
 5050TIP3    H115093   3.414   5.508   2.059
 5050TIP3    H215094   3.371   5.620   1.968
 5051TIP3   OH215095   0.254   6.278   6.456
 5051TIP3    H115096   0.196   6.309   6.386
 5051TIP3    H215097   0.334   6.251   6.410
 5052TIP3   OH215098   2.008   5.049   0.019
 5052TIP3    H115099   1.953   5.118  -0.017
 5052TIP3    H215100   1.949   4.995   0.072
 5053TIP3   OH215101   8.142   7.498   6.588
 5053TIP3    H115102   8.154   7.487   6.494
 5053TIP3    H215103   8.055   7.462   6.605
 5054TIP3   OH215104   2.345   0.264   0.813
 5054TIP3    H115105   2.437   0.239   0.816
 5054TIP3    H215106   2.339   0.328   0.742
 5055TIP3   OH215107   1.948   4.911   2.771
 5055TIP3    H115108   2.005   4.932   2.697
 5055TIP3    H215109   1.881   4.853   2.735
 5056TIP3   OH215110   6.336   1.669   2.317
 5056TIP3    H115111   6.248   1.688   2.284
 5056TIP3    H215112   6.326   1.669   2.412
 5057TIP3   OH215113   2.186   6.945   5.509
 5057TIP3    H115114   2.276   6.968   5.531
 5057TIP3    H215115   2.140   7.028   5.506
 5058TIP3   OH215116   5.558   0.951   0.222
 5058TIP3    H115117   5.597   0.959   0.135
 5058TIP3    H215118   5.625   0.985   0.281
 5059TIP3   OH215119   2.421   6.622   3.021
 5059TIP3    H115120   2.406   6.711   3.051
 5059TIP3    H215121   2.508   6.624   2.982
 5060TIP3   OH215122   3.971   4.118   1.526
 5060TIP3    H115123   4.033   4.108   1.598
 5060TIP3    H215124   4.024   4.105   1.447
 5061TIP3   OH215125   3.303   2.446   6.380
 5061TIP3    H115126   3.226   2.433   6.324
 5061TIP3    H215127   3.327   2.357   6.407
 5062TIP3   OH215128   0.124   5.995   5.047
 5062TIP3    H115129   0.134   5.900   5.049
 5062TIP3    H215130   0.214   6.028   5.047
 5063TIP3   OH215131   4.553   6.601   4.805
 5063TIP3    H115132   4.557   6.622   4.898
 5063TIP3    H215133   4.465   6.628   4.778
 5064TIP3   OH215134   3.586   7.711   2.514
 5064TIP3    H115135   3.651   7.714   2.444
 5064TIP3    H215136   3.628   7.660   2.583
 5065TIP3   OH215137   3.679   5.622   1.860
 5065TIP3    H115138   3.597   5.590   1.897
 5065TIP3    H215139   3.730   5.544   1.842
 5066TIP3   OH215140   0.529   5.928   0.817
 5066TIP3    H115141   0.543   5.844   0.861
 5066TIP3    H215142   0.533   5.992   0.888
 5067TIP3   OH215143   2.755   4.325   4.133
 5067TIP3    H115144   2.837   4.320   4.183
 5067TIP3    H215145   2.751   4.241   4.087
 5068TIP3   OH215146   2.369   1.955   3.499
 5068TIP3    H115147   2.369   1.866   3.464
 5068TIP3    H215148   2.461   1.973   3.519
 5069TIP3   OH215149   4.658   6.812   2.406
 5069TIP3    H115150   4.702   6.746   2.353
 5069TIP3    H215151   4.568   6.813   2.374
 5070TIP3   OH215152   6.656   7.333   3.196
 5070TIP3    H115153   6.685   7.304   3.283
 5070TIP3    H215154   6.696   7.271   3.135
 5071TIP3   OH215155   3.456   2.916   3.817
 5071TIP3    H115156   3.427   2.965   3.740
 5071TIP3    H215157   3.407   2.834   3.812
 5072TIP3   OH215158   4.139   1.151   1.952
 5072TIP3    H115159   4.137   1.114   2.040
 5072TIP3    H215160   4.071   1.219   1.954
 5073TIP3   OH215161   6.790   5.752   4.168
 5073TIP3    H115162   6.724   5.785   4.106
 5073TIP3    H215163   6.871   5.796   4.142
 5074TIP3   OH215164   4.530   4.790   1.743
 5074TIP3    H115165   4.505   4.864   1.799
 5074TIP3    H215166   4.523   4.713   1.799
 5075TIP3   OH215167   4.208   7.101   0.608
 5075TIP3    H115168   4.142   7.033   0.602
 5075TIP3    H215169   4.265   7.073   0.680
 5076TIP3   OH215170   2.719   6.355   6.252
 5076TIP3    H115171   2.704   6.434   6.304
 5076TIP3    H215172   2.655   6.361   6.181
 5077TIP3   OH215173   3.691   2.516   3.201
 5077TIP3    H115174   3.658   2.441   3.250
 5077TIP3    H215175   3.782   2.493   3.180
 5078TIP3   OH215176   1.813   6.227   1.637
 5078TIP3    H115177   1.845   6.139   1.620
 5078TIP3    H215178   1.880   6.267   1.694
 5079TIP3   OH215179   2.978   0.694   5.282
 5079TIP3    H115180   3.031   0.765   5.245
 5079TIP3    H215181   2.990   0.702   5.377
 5080TIP3   OH215182   1.432   0.483   1.020
 5080TIP3    H115183   1.391   0.448   0.941
 5080TIP3    H215184   1.382   0.562   1.040
 5081TIP3   OH215185   1.784   0.805   6.545
 5081TIP3    H115186   1.818   0.770   6.628
 5081TIP3    H215187   1.716   0.743   6.519
 5082TIP3   OH215188   5.814   5.566   6.053
 5082TIP3    H115189   5.762   5.644   6.032
 5082TIP3    H215190   5.842   5.533   5.968
 5083TIP3   OH215191   8.183   3.704   2.176
 5083TIP3    H115192   8.124   3.708   2.101
 5083TIP3    H215193   8.209   3.795   2.191
 5084TIP3   OH215194   7.681   3.212   4.587
 5084TIP3    H115195   7.673   3.151   4.513
 5084TIP3    H215196   7.682   3.156   4.664
 5085TIP3   OH215197   6.588   6.467   2.376
 5085TIP3    H115198   6.666   6.425   2.414
 5085TIP3    H215199   6.541   6.395   2.334
 5086TIP3   OH215200   3.891   3.405   0.757
 5086TIP3    H115201   3.946   3.450   0.822
 5086TIP3    H215202   3.950   3.389   0.683
 5087TIP3   OH215203   3.164   7.117   4.089
 5087TIP3    H115204   3.090   7.089   4.143
 5087TIP3    H215205   3.132   7.196   4.044
 5088TIP3   OH215206   6.628   0.948   3.219
 5088TIP3    H115207   6.567   1.012   3.182
 5088TIP3    H215208   6.632   0.878   3.154
 5089TIP3   OH215209   5.049   2.144   0.924
 5089TIP3    H115210   5.027   2.148   0.831
 5089TIP3    H215211   5.093   2.227   0.942
 5090TIP3   OH215212   3.196   5.160   5.324
 5090TIP3    H115213   3.268   5.221   5.309
 5090TIP3    H215214   3.154   5.191   5.404
 5091TIP3   OH215215   0.572   0.279   5.961
 5091TIP3    H115216   0.642   0.245   6.017
 5091TIP3    H215217   0.616   0.299   5.878
 5092TIP3   OH215218   1.498   1.906   6.054
 5092TIP3    H115219   1.512   1.831   5.995
 5092TIP3    H215220   1.562   1.894   6.124
 5093TIP3   OH215221   4.733   3.970   5.689
 5093TIP3    H115222   4.656   3.920   5.715
 5093TIP3    H215223   4.806   3.928   5.735
 5094TIP3   OH215224   1.218   1.690   2.509
 5094TIP3    H115225   1.155   1.659   2.444
 5094TIP3    H215226   1.173   1.762   2.554
 5095TIP3   OH215227   7.244   0.959   5.933
 5095TIP3    H115228   7.286   1.008   5.863
 5095TIP3    H215229   7.194   0.891   5.889
 5096TIP3   OH215230   6.521   5.694   3.823
 5096TIP3    H115231   6.572   5.652   3.754
 5096TIP3    H215232   6.447   5.735   3.778
 5097TIP3   OH215233   8.011   2.243   6.661
 5097TIP3    H115234   8.028   2.229   6.754
 5097TIP3    H215235   7.922   2.210   6.647
 5098TIP3   OH215236   6.514   6.759   1.201
 5098TIP3    H115237   6.439   6.713   1.163
 5098TIP3    H215238   6.512   6.737   1.294
 5099TIP3   OH215239   1.607   5.634   5.611
 5099TIP3    H115240   1.618   5.539   5.616
 5099TIP3    H215241   1.527   5.651   5.660
 5100TIP3   OH215242   3.618   4.670   2.594
 5100TIP3    H115243   3.566   4.655   2.674
 5100TIP3    H215244   3.587   4.603   2.533
 5101TIP3   OH215245   7.638   0.894   6.710
 5101TIP3    H115246   7.610   0.984   6.696
 5101TIP3    H215247   7.730   0.900   6.737
 5102TIP3   OH215248   6.803   6.777   5.672
 5102TIP3    H115249   6.861   6.703   5.659
 5102TIP3    H215250   6.815   6.801   5.764
 5103TIP3   OH215251   1.868   3.564   1.544
 5103TIP3    H115252   1.912   3.647   1.563
 5103TIP3    H215253   1.785   3.589   1.505
 5104TIP3   OH215254   7.528   6.192   5.152
 5104TIP3    H115255   7.611   6.221   5.188
 5104TIP3    H215256   7.515   6.105   5.189
 5105TIP3   OH215257   5.749   1.419   0.877
 5105TIP3    H115258   5.722   1.510   0.876
 5105TIP3    H215259   5.701   1.379   0.805
 5106TIP3   OH215260   6.948   0.591   6.010
 5106TIP3    H115261   6.876   0.653   6.021
 5106TIP3    H215262   6.937   0.529   6.083
 5107TIP3   OH215263   2.668   1.350   2.449
 5107TIP3    H115264   2.760   1.346   2.476
 5107TIP3    H215265   2.667   1.417   2.380
 5108TIP3   OH215266   1.572   0.572   5.106
 5108TIP3    H115267   1.663   0.547   5.089
 5108TIP3    H215268   1.529   0.490   5.129
 5109TIP3   OH215269   3.312   0.243   1.005
 5109TIP3    H115270   3.310   0.227   0.911
 5109TIP3    H215271   3.292   0.158   1.045
 5110TIP3   OH215272   4.602   5.238   4.327
 5110TIP3    H115273   4.676   5.193   4.369
 5110TIP3    H215274   4.606   5.210   4.236
 5111TIP3   OH215275   1.820   4.856   0.820
 5111TIP3    H115276   1.768   4.916   0.874
 5111TIP3    H215277   1.892   4.910   0.787
 5112TIP3   OH215278   4.807   3.091   2.441
 5112TIP3    H115279   4.812   3.151   2.367
 5112TIP3    H215280   4.724   3.111   2.483
 5113TIP3   OH215281   6.507   4.387   1.532
 5113TIP3    H115282   6.422   4.421   1.506
 5113TIP3    H215283   6.556   4.464   1.560
 5114TIP3   OH215284   3.319   5.760   2.246
 5114TIP3    H115285   3.295   5.781   2.156
 5114TIP3    H215286   3.413   5.779   2.250
 5115TIP3   OH215287   1.886   4.300   6.177
 5115TIP3    H115288   1.850   4.386   6.202
 5115TIP3    H215289   1.869   4.294   6.083
 5116TIP3   OH215290   8.159   0.780   2.017
 5116TIP3    H115291   8.133   0.791   1.925
 5116TIP3    H215292   8.182   0.687   2.024
 5117TIP3   OH215293   7.524   5.050   4.492
 5117TIP3    H115294   7.530   5.144   4.507
 5117TIP3    H215295   7.541   5.039   4.398
 5118TIP3   OH215296   2.945   6.620   6.440
 5118TIP3    H115297   2.941   6.664   6.355
 5118TIP3    H215298   2.936   6.690   6.504
 5119TIP3   OH215299   3.717   6.898   0.953
 5119TIP3    H115300   3.809   6.880   0.975
 5119TIP3    H215301   3.707   6.992   0.969
 5120TIP3   OH215302   3.763   3.765   6.073
 5120TIP3    H115303   3.678   3.791   6.038
 5120TIP3    H215304   3.773   3.674   6.044
 5121TIP3   OH215305   1.372   3.213   5.099
 5121TIP3    H115306   1.459   3.245   5.075
 5121TIP3    H215307   1.387   3.160   5.177
 5122TIP3   OH215308   4.001   2.200   6.430
 5122TIP3    H115309   3.910   2.223   6.445
 5122TIP3    H215310   4.050   2.275   6.465
 5123TIP3   OH215311   6.682   2.649   1.490
 5123TIP3    H115312   6.677   2.561   1.452
 5123TIP3    H215313   6.772   2.677   1.471
 5124TIP3   OH215314   2.872   4.611   2.376
 5124TIP3    H115315   2.842   4.587   2.464
 5124TIP3    H215316   2.826   4.552   2.317
 5125TIP3   OH215317   6.214   6.177   0.218
 5125TIP3    H115318   6.172   6.124   0.151
 5125TIP3    H215319   6.168   6.261   0.215
 5126TIP3   OH215320   5.253   0.631   6.434
 5126TIP3    H115321   5.257   0.626   6.530
 5126TIP3    H215322   5.262   0.724   6.415
 5127TIP3   OH215323   2.702   4.161   1.481
 5127TIP3    H115324   2.625   4.197   1.439
 5127TIP3    H215325   2.774   4.179   1.419
 5128TIP3   OH215326   0.623   2.401   2.143
 5128TIP3    H115327   0.567   2.374   2.216
 5128TIP3    H215328   0.703   2.431   2.185
 5129TIP3   OH215329   1.239   2.463   1.338
 5129TIP3    H115330   1.220   2.555   1.320
 5129TIP3    H215331   1.284   2.432   1.260
 5130TIP3   OH215332   0.351   0.281   4.907
 5130TIP3    H115333   0.439   0.255   4.881
 5130TIP3    H215334   0.303   0.290   4.824
 5131TIP3   OH215335   4.851   3.578   2.025
 5131TIP3    H115336   4.840   3.594   2.119
 5131TIP3    H215337   4.931   3.624   2.002
 5132TIP3   OH215338   4.783   4.754   5.442
 5132TIP3    H115339   4.766   4.667   5.405
 5132TIP3    H215340   4.868   4.779   5.407
 5133TIP3   OH215341   3.172   1.782   1.885
 5133TIP3    H115342   3.219   1.703   1.859
 5133TIP3    H215343   3.125   1.757   1.964
 5134TIP3   OH215344   4.803   0.105   1.733
 5134TIP3    H115345   4.754   0.181   1.705
 5134TIP3    H215346   4.849   0.134   1.812
 5135TIP3   OH215347   0.956   1.090   4.258
 5135TIP3    H115348   0.960   1.137   4.341
 5135TIP3    H215349   0.916   1.153   4.197
 5136TIP3   OH215350   3.657   0.467   1.672
 5136TIP3    H115351   3.610   0.459   1.755
 5136TIP3    H215352   3.601   0.422   1.609
 5137TIP3   OH215353   7.025   5.251   5.906
 5137TIP3    H115354   7.075   5.186   5.955
 5137TIP3    H215355   6.973   5.296   5.972
 5138TIP3   OH215356   4.425   5.560   4.861
 5138TIP3    H115357   4.495   5.562   4.927
 5138TIP3    H215358   4.444   5.634   4.803
 5139TIP3   OH215359   4.413   1.728   1.662
 5139TIP3    H115360   4.349   1.692   1.600
 5139TIP3    H215361   4.463   1.792   1.610
 5140TIP3   OH215362   1.069   5.723   4.870
 5140TIP3    H115363   0.973   5.721   4.866
 5140TIP3    H215364   1.090   5.729   4.963
 5141TIP3   OH215365   7.721   6.173   6.471
 5141TIP3    H115366   7.640   6.148   6.428
 5141TIP3    H215367   7.788   6.120   6.427
 5142TIP3   OH215368   7.899   6.635   0.210
 5142TIP3    H115369   7.969   6.675   0.262
 5142TIP3    H215370   7.865   6.565   0.266
 5143TIP3   OH215371   7.939   5.225   4.980
 5143TIP3    H115372   7.939   5.316   4.952
 5143TIP3    H215373   8.023   5.190   4.948
 5144TIP3   OH215374   2.180   1.631   3.585
 5144TIP3    H115375   2.223   1.684   3.652
 5144TIP3    H215376   2.247   1.571   3.555
 5145TIP3   OH215377   6.458   3.376   5.072
 5145TIP3    H115378   6.435   3.466   5.094
 5145TIP3    H215379   6.384   3.344   5.020
 5146TIP3   OH215380   6.411   3.162   3.541
 5146TIP3    H115381   6.378   3.109   3.613
 5146TIP3    H215382   6.474   3.105   3.496
 5147TIP3   OH215383   4.830   7.423   0.546
 5147TIP3    H115384   4.914   7.404   0.588
 5147TIP3    H215385   4.839   7.388   0.457
 5148TIP3   OH215386   3.062   6.175   0.991
 5148TIP3    H115387   3.146   6.176   0.944
 5148TIP3    H215388   3.031   6.085   0.983
 5149TIP3   OH215389   1.226   1.351   6.110
 5149TIP3    H115390   1.248   1.397   6.029
 5149TIP3    H215391   1.168   1.412   6.156
 5150TIP3   OH215392   0.780   1.599   0.845
 5150TIP3    H115393   0.753   1.608   0.936
 5150TIP3    H215394   0.821   1.513   0.840
 5151TIP3   OH215395   5.088   7.575   1.856
 5151TIP3    H115396   5.071   7.558   1.764
 5151TIP3    H215397   5.015   7.630   1.884
 5152TIP3   OH215398   5.429   1.986   0.334
 5152TIP3    H115399   5.518   2.010   0.308
 5152TIP3    H215400   5.381   2.069   0.335
 5153TIP3   OH215401   5.481   7.478   5.966
 5153TIP3    H115402   5.419   7.460   5.896
 5153TIP3    H215403   5.468   7.408   6.029
 5154TIP3   OH215404   1.341   5.932   4.479
 5154TIP3    H115405   1.280   6.006   4.480
 5154TIP3    H215406   1.393   5.946   4.400
 5155TIP3   OH215407   3.529   5.382   1.546
 5155TIP3    H115408   3.522   5.477   1.537
 5155TIP3    H215409   3.467   5.347   1.482
 5156TIP3   OH215410   2.656   0.206   1.442
 5156TIP3    H115411   2.745   0.227   1.412
 5156TIP3    H215412   2.661   0.113   1.464
 5157TIP3   OH215413   2.357   0.704   3.305
 5157TIP3    H115414   2.407   0.669   3.231
 5157TIP3    H215415   2.422   0.715   3.375
 5158TIP3   OH215416   7.252   7.734   5.130
 5158TIP3    H115417   7.178   7.728   5.070
 5158TIP3    H215418   7.224   7.685   5.207
 5159TIP3   OH215419   6.103   1.979   3.720
 5159TIP3    H115420   6.118   1.888   3.746
 5159TIP3    H215421   6.172   1.998   3.657
 5160TIP3   OH215422   2.661   4.782   0.846
 5160TIP3    H115423   2.578   4.810   0.807
 5160TIP3    H215424   2.709   4.863   0.862
 5161TIP3   OH215425   0.564   7.694   2.996
 5161TIP3    H115426   0.480   7.735   3.018
 5161TIP3    H215427   0.556   7.604   3.028
 5162TIP3   OH215428   1.303   7.634   3.637
 5162TIP3    H115429   1.239   7.597   3.697
 5162TIP3    H215430   1.353   7.558   3.607
 5163TIP3   OH215431   4.749   0.456   6.265
 5163TIP3    H115432   4.799   0.534   6.286
 5163TIP3    H215433   4.803   0.409   6.201
 5164TIP3   OH215434   8.055   2.646   2.445
 5164TIP3    H115435   8.063   2.572   2.386
 5164TIP3    H215436   8.097   2.617   2.526
 5165TIP3   OH215437   5.508   5.739   5.039
 5165TIP3    H115438   5.444   5.683   4.997
 5165TIP3    H215439   5.584   5.683   5.054
 5166TIP3   OH215440   1.804   3.656   5.329
 5166TIP3    H115441   1.832   3.695   5.412
 5166TIP3    H215442   1.726   3.705   5.305
 5167TIP3   OH215443   3.011   2.112   1.556
 5167TIP3    H115444   3.024   2.056   1.632
 5167TIP3    H215445   2.937   2.168   1.580
 5168TIP3   OH215446   1.833   0.799   0.348
 5168TIP3    H115447   1.883   0.879   0.334
 5168TIP3    H215448   1.768   0.822   0.415
 5169TIP3   OH215449   4.063   1.139   1.247
 5169TIP3    H115450   3.978   1.170   1.218
 5169TIP3    H215451   4.126   1.184   1.190
 5170TIP3   OH215452   6.212   6.539   2.286
 5170TIP3    H115453   6.273   6.469   2.309
 5170TIP3    H215454   6.172   6.509   2.204
 5171TIP3   OH215455   1.473   2.197   3.770
 5171TIP3    H115456   1.566   2.219   3.762
 5171TIP3    H215457   1.443   2.186   3.680
 5172TIP3   OH215458   2.085   1.966   6.167
 5172TIP3    H115459   2.068   2.014   6.087
 5172TIP3    H215460   2.134   1.888   6.139
 5173TIP3   OH215461   6.243   5.942   3.057
 5173TIP3    H115462   6.291   5.862   3.040
 5173TIP3    H215463   6.310   6.010   3.062
 5174TIP3   OH215464   0.967   0.640   2.457
 5174TIP3    H115465   0.995   0.628   2.366
 5174TIP3    H215466   0.951   0.734   2.464
 5175TIP3   OH215467   3.859   5.169   5.765
 5175TIP3    H115468   3.788   5.128   5.814
 5175TIP3    H215469   3.933   5.110   5.775
 5176TIP3   OH215470   5.321   2.244   0.359
 5176TIP3    H115471   5.234   2.263   0.324
 5176TIP3    H215472   5.380   2.300   0.310
 5177TIP3   OH215473   3.266   5.411   5.021
 5177TIP3    H115474   3.262   5.315   5.017
 5177TIP3    H215475   3.261   5.431   5.114
 5178TIP3   OH215476   6.982   2.119   6.244
 5178TIP3    H115477   6.902   2.157   6.206
 5178TIP3    H215478   7.018   2.188   6.299
 5179TIP3   OH215479   1.561   2.525   6.469
 5179TIP3    H115480   1.584   2.432   6.467
 5179TIP3    H215481   1.505   2.538   6.393
 5180TIP3   OH215482   2.899   0.137   1.759
 5180TIP3    H115483   2.954   0.177   1.692
 5180TIP3    H215484   2.886   0.207   1.824
 5181TIP3   OH215485   5.696   5.075   5.119
 5181TIP3    H115486   5.631   5.144   5.105
 5181TIP3    H215487   5.671   5.035   5.203
 5182TIP3   OH215488   7.806   6.241   3.480
 5182TIP3    H115489   7.754   6.248   3.399
 5182TIP3    H215490   7.742   6.220   3.547
 5183TIP3   OH215491   5.660   2.949   5.607
 5183TIP3    H115492   5.567   2.964   5.626
 5183TIP3    H215493   5.661   2.874   5.548
 5184TIP3   OH215494   4.604   1.792   1.199
 5184TIP3    H115495   4.615   1.887   1.203
 5184TIP3    H215496   4.693   1.757   1.200
 5185TIP3   OH215497   4.014   4.093   6.364
 5185TIP3    H115498   4.060   4.098   6.280
 5185TIP3    H215499   3.928   4.058   6.343
 5186TIP3   OH215500   2.315   5.181   3.065
 5186TIP3    H115501   2.315   5.222   3.151
 5186TIP3    H215502   2.290   5.252   3.005
 5187TIP3   OH215503   3.796   4.017   1.698
 5187TIP3    H115504   3.863   4.046   1.636
 5187TIP3    H215505   3.764   3.934   1.662
 5188TIP3   OH215506   0.660   0.284   2.006
 5188TIP3    H115507   0.582   0.264   1.954
 5188TIP3    H215508   0.717   0.208   1.994
 5189TIP3   OH215509   1.337   5.540   5.306
 5189TIP3    H115510   1.366   5.451   5.287
 5189TIP3    H215511   1.289   5.533   5.389
 5190TIP3   OH215512   7.039   5.241   2.807
 5190TIP3    H115513   7.110   5.186   2.841
 5190TIP3    H215514   6.959   5.201   2.840
 5191TIP3   OH215515   1.252   0.067   6.225
 5191TIP3    H115516   1.255  -0.027   6.206
 5191TIP3    H215517   1.343   0.090   6.244
 5192TIP3   OH215518   2.897   3.371   2.897
 5192TIP3    H115519   2.944   3.298   2.938
 5192TIP3    H215520   2.811   3.369   2.938
 5193TIP3   OH215521   2.434   3.245   0.378
 5193TIP3    H115522   2.373   3.319   0.369
 5193TIP3    H215523   2.520   3.287   0.384
 5194TIP3   OH215524   7.799   3.911   3.618
 5194TIP3    H115525   7.735   3.841   3.619
 5194TIP3    H215526   7.866   3.883   3.556
 5195TIP3   OH215527   7.779   0.216   3.089
 5195TIP3    H115528   7.701   0.216   3.034
 5195TIP3    H215529   7.759   0.154   3.159
 5196TIP3   OH215530   6.621   4.313   0.629
 5196TIP3    H115531   6.655   4.383   0.574
 5196TIP3    H215532   6.690   4.297   0.693
 5197TIP3   OH215533   7.934   7.601   1.735
 5197TIP3    H115534   7.975   7.536   1.791
 5197TIP3    H215535   7.918   7.676   1.793
 5198TIP3   OH215536   2.753   0.343   6.377
 5198TIP3    H115537   2.715   0.296   6.451
 5198TIP3    H215538   2.702   0.313   6.301
 5199TIP3   OH215539   2.658   1.526   1.041
 5199TIP3    H115540   2.630   1.499   1.129
 5199TIP3    H215541   2.682   1.618   1.052
 5200TIP3   OH215542   5.808   0.216   3.628
 5200TIP3    H115543   5.869   0.261   3.570
 5200TIP3    H215544   5.862   0.152   3.674
 5201TIP3   OH215545   6.042   5.046   1.946
 5201TIP3    H115546   6.042   4.967   1.891
 5201TIP3    H215547   5.949   5.070   1.953
 5202TIP3   OH215548   5.269   7.503   3.637
 5202TIP3    H115549   5.337   7.435   3.635
 5202TIP3    H215550   5.206   7.476   3.571
 5203TIP3   OH215551   4.383   1.095   4.275
 5203TIP3    H115552   4.370   1.055   4.189
 5203TIP3    H215553   4.295   1.117   4.305
 5204TIP3   OH215554   6.940   6.898   3.017
 5204TIP3    H115555   6.975   6.967   2.960
 5204TIP3    H215556   6.877   6.852   2.963
 5205TIP3   OH215557   0.798   2.630   0.041
 5205TIP3    H115558   0.715   2.590   0.017
 5205TIP3    H215559   0.805   2.706  -0.017
 5206TIP3   OH215560   4.789   2.607   5.194
 5206TIP3    H115561   4.834   2.691   5.183
 5206TIP3    H215562   4.718   2.609   5.130
 5207TIP3   OH215563   1.701   3.658   2.223
 5207TIP3    H115564   1.790   3.688   2.243
 5207TIP3    H215565   1.714   3.585   2.162
 5208TIP3   OH215566   4.326   4.262   4.128
 5208TIP3    H115567   4.364   4.291   4.045
 5208TIP3    H215568   4.243   4.222   4.104
 5209TIP3   OH215569   0.141   2.120   1.569
 5209TIP3    H115570   0.199   2.079   1.634
 5209TIP3    H215571   0.197   2.183   1.523
 5210TIP3   OH215572   2.299   4.933   0.272
 5210TIP3    H115573   2.278   4.840   0.263
 5210TIP3    H215574   2.393   4.938   0.255
 5211TIP3   OH215575   1.819   0.383   5.054
 5211TIP3    H115576   1.879   0.316   5.084
 5211TIP3    H215577   1.862   0.421   4.977
 5212TIP3   OH215578   3.680   2.433   0.507
 5212TIP3    H115579   3.648   2.457   0.594
 5212TIP3    H215580   3.603   2.397   0.463
 5213TIP3   OH215581   3.373   2.642   1.955
 5213TIP3    H115582   3.371   2.737   1.940
 5213TIP3    H215583   3.450   2.629   2.011
 5214TIP3   OH215584   1.394   2.106   2.553
 5214TIP3    H115585   1.302   2.098   2.577
 5214TIP3    H215586   1.441   2.086   2.634
 5215TIP3   OH215587   6.849   1.469   5.156
 5215TIP3    H115588   6.848   1.563   5.140
 5215TIP3    H215589   6.785   1.456   5.226
 5216TIP3   OH215590   5.159   2.566   4.767
 5216TIP3    H115591   5.127   2.646   4.810
 5216TIP3    H215592   5.084   2.535   4.716
 5217TIP3   OH215593   1.608   1.423   5.854
 5217TIP3    H115594   1.587   1.422   5.947
 5217TIP3    H215595   1.698   1.391   5.849
 5218TIP3   OH215596   2.697   4.837   3.873
 5218TIP3    H115597   2.636   4.793   3.813
 5218TIP3    H215598   2.751   4.766   3.909
 5219TIP3   OH215599   0.849   6.146   4.857
 5219TIP3    H115600   0.779   6.191   4.904
 5219TIP3    H215601   0.916   6.129   4.923
 5220TIP3   OH215602   4.287   0.926   2.568
 5220TIP3    H115603   4.326   0.909   2.482
 5220TIP3    H215604   4.335   0.869   2.628
 5221TIP3   OH215605   5.023   3.711   6.073
 5221TIP3    H115606   4.946   3.672   6.114
 5221TIP3    H215607   5.058   3.642   6.016
 5222TIP3   OH215608   0.581   4.989   3.126
 5222TIP3    H115609   0.629   4.918   3.086
 5222TIP3    H215610   0.574   4.965   3.219
 5223TIP3   OH215611   2.226   1.587   6.317
 5223TIP3    H115612   2.187   1.629   6.241
 5223TIP3    H215613   2.301   1.643   6.339
 5224TIP3   OH215614   1.422   2.878   3.357
 5224TIP3    H115615   1.461   2.877   3.270
 5224TIP3    H215616   1.497   2.891   3.416
 5225TIP3   OH215617   6.840   0.566   4.281
 5225TIP3    H115618   6.813   0.497   4.341
 5225TIP3    H215619   6.848   0.523   4.196
 5226TIP3   OH215620   6.733   0.279   2.830
 5226TIP3    H115621   6.814   0.305   2.785
 5226TIP3    H215622   6.668   0.275   2.760
 5227TIP3   OH215623   3.627   1.130   3.199
 5227TIP3    H115624   3.700   1.095   3.147
 5227TIP3    H215625   3.550   1.115   3.144
 5228TIP3   OH215626   2.830   0.968   1.493
 5228TIP3    H115627   2.843   0.925   1.409
 5228TIP3    H215628   2.735   0.971   1.504
 5229TIP3   OH215629   6.403   3.038   6.005
 5229TIP3    H115630   6.446   3.111   5.961
 5229TIP3    H215631   6.352   2.995   5.936
 5230TIP3   OH215632   5.595   4.886   5.926
 5230TIP3    H115633   5.544   4.932   5.859
 5230TIP3    H215634   5.633   4.811   5.879
 5231TIP3   OH215635   6.320   5.243   6.506
 5231TIP3    H115636   6.402   5.195   6.508
 5231TIP3    H215637   6.253   5.176   6.521
 5232TIP3   OH215638   4.156   2.327   4.719
 5232TIP3    H115639   4.159   2.344   4.813
 5232TIP3    H215640   4.083   2.381   4.687
 5233TIP3   OH215641   5.605   7.118   5.356
 5233TIP3    H115642   5.681   7.176   5.344
 5233TIP3    H215643   5.540   7.150   5.293
 5234TIP3   OH215644   8.068   5.002   2.173
 5234TIP3    H115645   7.974   4.984   2.179
 5234TIP3    H215646   8.102   4.933   2.117
 5235TIP3   OH215647   3.053   0.900   4.857
 5235TIP3    H115648   2.981   0.932   4.912
 5235TIP3    H215649   3.061   0.808   4.882
 5236TIP3   OH215650   4.663   5.111   5.766
 5236TIP3    H115651   4.627   5.151   5.686
 5236TIP3    H215652   4.719   5.180   5.803
 5237TIP3   OH215653   3.680   4.251   4.959
 5237TIP3    H115654   3.586   4.249   4.941
 5237TIP3    H215655   3.698   4.165   4.998
 5238TIP3   OH215656   2.470   2.199   5.761
 5238TIP3    H115657   2.533   2.197   5.689
 5238TIP3    H215658   2.422   2.116   5.754
 5239TIP3   OH215659   3.328   5.489   3.608
 5239TIP3    H115660   3.396   5.422   3.613
 5239TIP3    H215661   3.275   5.465   3.532
 5240TIP3   OH215662   7.511   6.900   5.836
 5240TIP3    H115663   7.420   6.894   5.805
 5240TIP3    H215664   7.561   6.922   5.758
 5241TIP3   OH215665   6.070   3.289   3.739
 5241TIP3    H115666   6.130   3.225   3.778
 5241TIP3    H215667   5.999   3.235   3.703
 5242TIP3   OH215668   8.269   1.382   5.877
 5242TIP3    H115669   8.331   1.433   5.928
 5242TIP3    H215670   8.184   1.422   5.894
 5243TIP3   OH215671   1.998   6.281   4.192
 5243TIP3    H115672   2.020   6.348   4.128
 5243TIP3    H215673   2.073   6.222   4.192
 5244TIP3   OH215674   5.251   7.640   6.237
 5244TIP3    H115675   5.164   7.680   6.236
 5244TIP3    H215676   5.258   7.597   6.151
 5245TIP3   OH215677   3.434   3.522   1.626
 5245TIP3    H115678   3.447   3.429   1.642
 5245TIP3    H215679   3.519   3.562   1.647
 5246TIP3   OH215680   1.802   0.713   2.052
 5246TIP3    H115681   1.799   0.765   1.972
 5246TIP3    H215682   1.711   0.707   2.081
 5247TIP3   OH215683   3.013   3.310   6.604
 5247TIP3    H115684   2.918   3.311   6.619
 5247TIP3    H215685   3.033   3.219   6.582
 5248TIP3   OH215686   6.199   5.607   2.731
 5248TIP3    H115687   6.227   5.536   2.788
 5248TIP3    H215688   6.122   5.643   2.773
 5249TIP3   OH215689   0.876   1.732   2.821
 5249TIP3    H115690   0.860   1.641   2.798
 5249TIP3    H215691   0.866   1.780   2.739
 5250TIP3   OH215692   7.255   1.727   1.257
 5250TIP3    H115693   7.348   1.741   1.276
 5250TIP3    H215694   7.211   1.804   1.292
 5251TIP3   OH215695   6.408   4.325   6.358
 5251TIP3    H115696   6.340   4.272   6.317
 5251TIP3    H215697   6.404   4.302   6.450
 5252TIP3   OH215698   2.333   1.847   4.625
 5252TIP3    H115699   2.262   1.881   4.570
 5252TIP3    H215700   2.319   1.752   4.626
 5253TIP3   OH215701   3.046   5.514   4.715
 5253TIP3    H115702   3.092   5.591   4.751
 5253TIP3    H215703   2.970   5.504   4.772
 5254TIP3   OH215704   3.594   3.132   0.996
 5254TIP3    H115705   3.673   3.184   0.982
 5254TIP3    H215706   3.523   3.196   1.000
 5255TIP3   OH215707   6.848   5.455   2.879
 5255TIP3    H115708   6.924   5.397   2.883
 5255TIP3    H215709   6.875   5.526   2.819
 5256TIP3   OH215710   4.956   6.982   4.717
 5256TIP3    H115711   5.038   6.942   4.687
 5256TIP3    H215712   4.891   6.913   4.711
 5257TIP3   OH215713   4.767   4.970   4.848
 5257TIP3    H115714   4.768   4.910   4.773
 5257TIP3    H215715   4.800   5.053   4.812
 5258TIP3   OH215716   3.848   0.577   2.187
 5258TIP3    H115717   3.913   0.558   2.255
 5258TIP3    H215718   3.884   0.535   2.109
 5259TIP3   OH215719   2.401   1.037   4.816
 5259TIP3    H115720   2.443   1.009   4.734
 5259TIP3    H215721   2.469   1.085   4.863
 5260TIP3   OH215722   5.168   0.411   5.584
 5260TIP3    H115723   5.219   0.364   5.518
 5260TIP3    H215724   5.225   0.483   5.612
 5261TIP3   OH215725   5.300   3.071   6.267
 5261TIP3    H115726   5.247   2.993   6.277
 5261TIP3    H215727   5.239   3.139   6.237
 5262TIP3   OH215728   0.546   3.308   3.058
 5262TIP3    H115729   0.525   3.360   3.135
 5262TIP3    H215730   0.485   3.235   3.061
 5263TIP3   OH215731   4.298   1.952   4.313
 5263TIP3    H115732   4.296   1.871   4.262
 5263TIP3    H215733   4.383   1.991   4.291
 5264TIP3   OH215734   1.221   4.758   3.085
 5264TIP3    H115735   1.290   4.806   3.129
 5264TIP3    H215736   1.250   4.666   3.088
 5265TIP3   OH215737   6.477   7.443   4.487
 5265TIP3    H115738   6.489   7.430   4.581
 5265TIP3    H215739   6.442   7.532   4.479
 5266TIP3   OH215740   4.424   0.782   5.633
 5266TIP3    H115741   4.486   0.812   5.700
 5266TIP3    H215742   4.478   0.732   5.572
 5267TIP3   OH215743   4.448   1.426   0.974
 5267TIP3    H115744   4.417   1.510   0.939
 5267TIP3    H215745   4.538   1.444   1.003
 5268TIP3   OH215746   5.040   5.800   0.048
 5268TIP3    H115747   5.022   5.894   0.057
 5268TIP3    H215748   4.992   5.760   0.120
 5269TIP3   OH215749   2.751   3.837   0.126
 5269TIP3    H115750   2.732   3.864   0.216
 5269TIP3    H215751   2.672   3.791   0.098
 5270TIP3   OH215752   5.468   2.094   2.197
 5270TIP3    H115753   5.543   2.047   2.232
 5270TIP3    H215754   5.435   2.145   2.272
 5271TIP3   OH215755   3.156   1.704   4.748
 5271TIP3    H115756   3.170   1.707   4.654
 5271TIP3    H215757   3.240   1.675   4.784
 5272TIP3   OH215758   0.267   7.327   4.244
 5272TIP3    H115759   0.260   7.412   4.288
 5272TIP3    H215760   0.251   7.347   4.152
 5273TIP3   OH215761   5.552   4.249   5.290
 5273TIP3    H115762   5.555   4.223   5.198
 5273TIP3    H215763   5.620   4.316   5.299
 5274TIP3   OH215764   7.159   7.160   4.497
 5274TIP3    H115765   7.197   7.172   4.410
 5274TIP3    H215766   7.170   7.066   4.515
 5275TIP3   OH215767   5.023   6.475   2.383
 5275TIP3    H115768   5.019   6.417   2.307
 5275TIP3    H215769   4.937   6.464   2.425
 5276TIP3   OH215770   7.081   3.784   0.871
 5276TIP3    H115771   7.072   3.813   0.961
 5276TIP3    H215772   7.163   3.734   0.870
 5277TIP3   OH215773   1.452   2.276   5.545
 5277TIP3    H115774   1.392   2.311   5.480
 5277TIP3    H215775   1.468   2.348   5.605
 5278TIP3   OH215776   5.126   4.023   2.047
 5278TIP3    H115777   5.128   4.065   1.961
 5278TIP3    H215778   5.208   4.050   2.088
 5279TIP3   OH215779   6.853   0.144   6.506
 5279TIP3    H115780   6.916   0.183   6.446
 5279TIP3    H215781   6.868   0.050   6.500
 5280TIP3   OH215782   5.274   3.868   1.829
 5280TIP3    H115783   5.269   3.957   1.794
 5280TIP3    H215784   5.331   3.876   1.906
 5281TIP3   OH215785   3.511   6.279   3.553
 5281TIP3    H115786   3.553   6.241   3.631
 5281TIP3    H215787   3.522   6.213   3.485
 5282TIP3   OH215788   4.194   4.693   1.039
 5282TIP3    H115789   4.169   4.761   1.102
 5282TIP3    H215790   4.113   4.644   1.022
 5283TIP3   OH215791   0.688   5.298   1.951
 5283TIP3    H115792   0.641   5.215   1.946
 5283TIP3    H215793   0.627   5.357   1.995
 5284TIP3   OH215794   1.794   1.606   5.590
 5284TIP3    H115795   1.851   1.641   5.521
 5284TIP3    H215796   1.727   1.674   5.602
 5285TIP3   OH215797   1.272   5.158   1.699
 5285TIP3    H115798   1.206   5.155   1.768
 5285TIP3    H215799   1.319   5.075   1.706
 5286TIP3   OH215800   1.938   7.415   3.781
 5286TIP3    H115801   1.918   7.330   3.743
 5286TIP3    H215802   1.857   7.443   3.824
 5287TIP3   OH215803   3.480   2.929   1.943
 5287TIP3    H115804   3.552   2.973   1.899
 5287TIP3    H215805   3.516   2.902   2.028
 5288TIP3   OH215806   6.193   7.744   2.651
 5288TIP3    H115807   6.238   7.669   2.611
 5288TIP3    H215808   6.209   7.817   2.591
 5289TIP3   OH215809   5.687   0.733   2.130
 5289TIP3    H115810   5.752   0.801   2.114
 5289TIP3    H215811   5.663   0.742   2.222
 5290TIP3   OH215812   0.953   3.259   3.620
 5290TIP3    H115813   1.020   3.313   3.578
 5290TIP3    H215814   0.924   3.200   3.552
 5291TIP3   OH215815   1.665   2.282   5.876
 5291TIP3    H115816   1.664   2.243   5.789
 5291TIP3    H215817   1.575   2.273   5.908
 5292TIP3   OH215818   4.513   0.649   4.545
 5292TIP3    H115819   4.583   0.653   4.479
 5292TIP3    H215820   4.555   0.676   4.626
 5293TIP3   OH215821   3.845   7.114   3.351
 5293TIP3    H115822   3.864   7.165   3.429
 5293TIP3    H215823   3.834   7.024   3.384
 5294TIP3   OH215824   4.598   3.121   3.545
 5294TIP3    H115825   4.655   3.187   3.584
 5294TIP3    H215826   4.653   3.043   3.538
 5295TIP3   OH215827   2.342   0.729   6.049
 5295TIP3    H115828   2.258   0.715   6.093
 5295TIP3    H215829   2.331   0.688   5.963
 5296TIP3   OH215830   0.736   0.241   6.173
 5296TIP3    H115831   0.751   0.211   6.263
 5296TIP3    H215832   0.786   0.322   6.166
 5297TIP3   OH215833   1.567   2.971   0.071
 5297TIP3    H115834   1.502   3.033   0.105
 5297TIP3    H215835   1.609   2.935   0.149
 5298TIP3   OH215836   6.473   6.168   4.390
 5298TIP3    H115837   6.544   6.103   4.381
 5298TIP3    H215838   6.397   6.116   4.416
 5299TIP3   OH215839   2.537   6.246   4.036
 5299TIP3    H115840   2.524   6.339   4.057
 5299TIP3    H215841   2.521   6.201   4.118
 5300TIP3   OH215842   8.202   7.162   6.301
 5300TIP3    H115843   8.196   7.246   6.347
 5300TIP3    H215844   8.116   7.149   6.262
 5301TIP3   OH215845   0.608   0.375   2.250
 5301TIP3    H115846   0.646   0.462   2.237
 5301TIP3    H215847   0.618   0.331   2.166
 5302TIP3   OH215848   5.656   0.370   0.646
 5302TIP3    H115849   5.585   0.306   0.643
 5302TIP3    H215850   5.735   0.319   0.633
 5303TIP3   OH215851   2.646   7.421   3.206
 5303TIP3    H115852   2.560   7.382   3.220
 5303TIP3    H215853   2.708   7.358   3.241
 5304TIP3   OH215854   2.535   3.597   5.489
 5304TIP3    H115855   2.484   3.664   5.534
 5304TIP3    H215856   2.608   3.646   5.450
 5305TIP3   OH215857   5.658   5.781   5.729
 5305TIP3    H115858   5.715   5.729   5.672
 5305TIP3    H215859   5.639   5.859   5.679
 5306TIP3   OH215860   3.995   4.535   6.720
 5306TIP3    H115861   3.983   4.496   6.807
 5306TIP3    H215862   3.913   4.582   6.704
 5307TIP3   OH215863   3.787   4.912   4.570
 5307TIP3    H115864   3.797   4.934   4.662
 5307TIP3    H215865   3.694   4.926   4.552
 5308TIP3   OH215866   8.258   1.867   3.244
 5308TIP3    H115867   8.247   1.942   3.186
 5308TIP3    H215868   8.321   1.810   3.198
 5309TIP3   OH215869   2.116   0.368   5.259
 5309TIP3    H115870   2.192   0.391   5.313
 5309TIP3    H215871   2.047   0.427   5.290
 5310TIP3   OH215872   6.941   1.912   3.473
 5310TIP3    H115873   7.001   1.955   3.412
 5310TIP3    H215874   6.918   1.979   3.536
 5311TIP3   OH215875   6.585   4.003   3.428
 5311TIP3    H115876   6.615   3.925   3.381
 5311TIP3    H215877   6.664   4.037   3.471
 5312TIP3   OH215878   5.287   4.869   3.283
 5312TIP3    H115879   5.218   4.901   3.341
 5312TIP3    H215880   5.310   4.944   3.229
 5313TIP3   OH215881   2.967   4.056   3.028
 5313TIP3    H115882   2.940   4.035   2.938
 5313TIP3    H215883   2.920   4.136   3.049
 5314TIP3   OH215884   5.944   5.154   0.836
 5314TIP3    H115885   6.003   5.166   0.762
 5314TIP3    H215886   5.905   5.241   0.849
 5315TIP3   OH215887   5.294   5.180   3.487
 5315TIP3    H115888   5.344   5.160   3.408
 5315TIP3    H215889   5.276   5.273   3.481
 5316TIP3   OH215890   7.333   7.237   2.887
 5316TIP3    H115891   7.240   7.222   2.868
 5316TIP3    H215892   7.335   7.321   2.933
 5317TIP3   OH215893   2.856   4.511   3.795
 5317TIP3    H115894   2.944   4.524   3.832
 5317TIP3    H215895   2.865   4.433   3.741
 5318TIP3   OH215896   4.874   0.511   0.003
 5318TIP3    H115897   4.828   0.444   0.053
 5318TIP3    H215898   4.917   0.463  -0.067
 5319TIP3   OH215899   3.046   6.096   5.673
 5319TIP3    H115900   3.099   6.159   5.625
 5319TIP3    H215901   3.058   6.120   5.765
 5320TIP3   OH215902   7.111   3.268   0.838
 5320TIP3    H115903   7.028   3.297   0.876
 5320TIP3    H215904   7.126   3.182   0.877
 5321TIP3   OH215905   2.122   0.424   6.496
 5321TIP3    H115906   2.176   0.345   6.498
 5321TIP3    H215907   2.154   0.477   6.570
 5322TIP3   OH215908   0.512   7.404   2.485
 5322TIP3    H115909   0.478   7.463   2.418
 5322TIP3    H215910   0.536   7.461   2.558
 5323TIP3   OH215911   1.361   1.428   2.202
 5323TIP3    H115912   1.410   1.507   2.224
 5323TIP3    H215913   1.368   1.421   2.107
 5324TIP3   OH215914   1.946   4.626   5.794
 5324TIP3    H115915   1.980   4.584   5.715
 5324TIP3    H215916   1.855   4.649   5.772
 5325TIP3   OH215917   5.268   1.308   1.476
 5325TIP3    H115918   5.324   1.233   1.457
 5325TIP3    H215919   5.293   1.374   1.411
 5326TIP3   OH215920   5.264   7.211   3.711
 5326TIP3    H115921   5.191   7.214   3.648
 5326TIP3    H215922   5.341   7.229   3.658
 5327TIP3   OH215923   5.596   1.064   2.027
 5327TIP3    H115924   5.557   0.983   1.997
 5327TIP3    H215925   5.672   1.037   2.079
 5328TIP3   OH215926   7.948   1.913   1.634
 5328TIP3    H115927   8.015   1.882   1.695
 5328TIP3    H215928   7.893   1.836   1.617
 5329TIP3   OH215929   1.016   6.756   2.829
 5329TIP3    H115930   1.025   6.760   2.924
 5329TIP3    H215931   0.965   6.677   2.813
 5330TIP3   OH215932   3.280   4.502   0.579
 5330TIP3    H115933   3.229   4.450   0.517
 5330TIP3    H215934   3.220   4.518   0.652
 5331TIP3   OH215935   3.880   3.638   4.713
 5331TIP3    H115936   3.859   3.690   4.636
 5331TIP3    H215937   3.955   3.585   4.687
 5332TIP3   OH215938   3.508   5.179   3.701
 5332TIP3    H115939   3.460   5.201   3.781
 5332TIP3    H215940   3.510   5.083   3.701
 5333TIP3   OH215941   3.650   2.531   5.614
 5333TIP3    H115942   3.670   2.618   5.577
 5333TIP3    H215943   3.707   2.524   5.690
 5334TIP3   OH215944   0.931   4.553   4.775
 5334TIP3    H115945   0.996   4.485   4.791
 5334TIP3    H215946   0.852   4.506   4.751
 5335TIP3   OH215947   7.223   3.254   6.692
 5335TIP3    H115948   7.307   3.221   6.658
 5335TIP3    H215949   7.235   3.349   6.696
 5336TIP3   OH215950   5.676   7.123   5.958
 5336TIP3    H115951   5.723   7.103   5.876
 5336TIP3    H215952   5.584   7.124   5.933
 5337TIP3   OH215953   7.803   5.935   3.357
 5337TIP3    H115954   7.856   5.884   3.418
 5337TIP3    H215955   7.713   5.912   3.378
 5338TIP3   OH215956   5.194   0.297   3.340
 5338TIP3    H115957   5.187   0.213   3.294
 5338TIP3    H215958   5.255   0.280   3.412
 5339TIP3   OH215959   7.475   1.713   1.003
 5339TIP3    H115960   7.535   1.749   0.937
 5339TIP3    H215961   7.532   1.664   1.062
 5340TIP3   OH215962   5.766   2.945   6.403
 5340TIP3    H115963   5.702   2.977   6.339
 5340TIP3    H215964   5.781   3.020   6.460
 5341TIP3   OH215965   1.749   1.290   2.941
 5341TIP3    H115966   1.718   1.366   2.892
 5341TIP3    H215967   1.723   1.308   3.031
 5342TIP3   OH215968   5.651   6.619   5.028
 5342TIP3    H115969   5.639   6.669   4.947
 5342TIP3    H215970   5.733   6.572   5.015
 5343TIP3   OH215971   2.504   4.635   2.135
 5343TIP3    H115972   2.428   4.639   2.192
 5343TIP3    H215973   2.474   4.589   2.057
 5344TIP3   OH215974   5.725   7.530   0.734
 5344TIP3    H115975   5.676   7.467   0.787
 5344TIP3    H215976   5.657   7.581   0.689
 5345TIP3   OH215977   7.209   4.554   0.088
 5345TIP3    H115978   7.168   4.525   0.007
 5345TIP3    H215979   7.242   4.473   0.128
 5346TIP3   OH215980   0.158   0.558   6.328
 5346TIP3    H115981   0.117   0.475   6.354
 5346TIP3    H215982   0.187   0.543   6.238
 5347TIP3   OH215983   4.552   4.327   2.349
 5347TIP3    H115984   4.564   4.328   2.254
 5347TIP3    H215985   4.611   4.258   2.380
 5348TIP3   OH215986   5.408   3.597   5.903
 5348TIP3    H115987   5.412   3.671   5.964
 5348TIP3    H215988   5.430   3.521   5.955
 5349TIP3   OH215989   6.843   1.759   0.275
 5349TIP3    H115990   6.923   1.731   0.319
 5349TIP3    H215991   6.873   1.818   0.205
 5350TIP3   OH215992   3.844   6.792   4.518
 5350TIP3    H115993   3.850   6.887   4.515
 5350TIP3    H215994   3.751   6.774   4.521
 5351TIP3   OH215995   0.401   2.973   1.754
 5351TIP3    H115996   0.369   2.929   1.833
 5351TIP3    H215997   0.327   2.970   1.694
 5352TIP3   OH215998   6.877   4.210   2.347
 5352TIP3    H115999   6.817   4.140   2.320
 5352TIP3    H216000   6.905   4.183   2.435
 5353TIP3   OH216001   4.302   3.258   2.118
 5353TIP3    H116002   4.379   3.227   2.071
 5353TIP3    H216003   4.335   3.322   2.181
 5354TIP3   OH216004   6.152   0.118   5.948
 5354TIP3    H116005   6.057   0.118   5.936
 5354TIP3    H216006   6.170   0.042   6.002
 5355TIP3   OH216007   3.251   2.117   4.839
 5355TIP3    H116008   3.157   2.104   4.832
 5355TIP3    H216009   3.284   2.101   4.751
 5356TIP3   OH216010   5.675   2.725   5.469
 5356TIP3    H116011   5.769   2.720   5.486
 5356TIP3    H216012   5.648   2.633   5.459
 5357TIP3   OH216013   1.640   2.535   0.332
 5357TIP3    H116014   1.697   2.519   0.407
 5357TIP3    H216015   1.674   2.477   0.263
 5358TIP3   OH216016   2.298   5.727   0.983
 5358TIP3    H116017   2.280   5.700   1.074
 5358TIP3    H216018   2.348   5.808   0.992
 5359TIP3   OH216019   6.772   1.232   4.388
 5359TIP3    H116020   6.720   1.262   4.314
 5359TIP3    H216021   6.708   1.194   4.449
 5360TIP3   OH216022   1.814   0.154   2.681
 5360TIP3    H116023   1.891   0.107   2.647
 5360TIP3    H216024   1.741   0.093   2.668
 5361TIP3   OH216025   5.453   3.696   1.703
 5361TIP3    H116026   5.490   3.662   1.784
 5361TIP3    H216027   5.389   3.761   1.731
 5362TIP3   OH216028   6.442   2.610   5.953
 5362TIP3    H116029   6.513   2.587   6.013
 5362TIP3    H216030   6.364   2.614   6.010
 5363TIP3   OH216031   4.807   2.673   3.297
 5363TIP3    H116032   4.752   2.595   3.292
 5363TIP3    H216033   4.893   2.643   3.266
 5364TIP3   OH216034   1.508   6.766   6.621
 5364TIP3    H116035   1.476   6.822   6.550
 5364TIP3    H216036   1.487   6.677   6.592
 5365TIP3   OH216037   3.177   3.217   6.304
 5365TIP3    H116038   3.119   3.253   6.237
 5365TIP3    H216039   3.126   3.147   6.344
 5366TIP3   OH216040   6.556   5.250   1.068
 5366TIP3    H116041   6.492   5.220   1.132
 5366TIP3    H216042   6.527   5.338   1.044
 5367TIP3   OH216043   1.094   5.883   1.722
 5367TIP3    H116044   1.040   5.885   1.801
 5367TIP3    H216045   1.045   5.829   1.660
 5368TIP3   OH216046   0.258   0.571   6.068
 5368TIP3    H116047   0.321   0.514   6.023
 5368TIP3    H216048   0.305   0.653   6.080
 5369TIP3   OH216049   4.179   1.812   6.345
 5369TIP3    H116050   4.119   1.886   6.345
 5369TIP3    H216051   4.186   1.785   6.254
 5370TIP3   OH216052   1.340   2.591   0.550
 5370TIP3    H116053   1.250   2.596   0.583
 5370TIP3    H216054   1.393   2.626   0.622
 5371TIP3   OH216055   5.399   4.544   4.368
 5371TIP3    H116056   5.419   4.481   4.299
 5371TIP3    H216057   5.465   4.528   4.436
 5372TIP3   OH216058   7.400   4.386   0.467
 5372TIP3    H116059   7.458   4.387   0.543
 5372TIP3    H216060   7.327   4.330   0.493
 5373TIP3   OH216061   3.233   2.772   5.526
 5373TIP3    H116062   3.170   2.840   5.501
 5373TIP3    H216063   3.285   2.759   5.447
 5374TIP3   OH216064   1.557   3.199   1.669
 5374TIP3    H116065   1.504   3.134   1.714
 5374TIP3    H216066   1.624   3.148   1.624
 5375TIP3   OH216067   2.939   7.722   4.442
 5375TIP3    H116068   2.967   7.747   4.354
 5375TIP3    H216069   2.849   7.691   4.430
 5376TIP3   OH216070   3.667   2.068   4.141
 5376TIP3    H116071   3.611   2.065   4.218
 5376TIP3    H216072   3.618   2.119   4.077
 5377TIP3   OH216073   1.474   3.787   5.024
 5377TIP3    H116074   1.392   3.818   4.987
 5377TIP3    H216075   1.537   3.857   5.006
 5378TIP3   OH216076   5.270   4.470   1.991
 5378TIP3    H116077   5.267   4.507   1.903
 5378TIP3    H216078   5.342   4.517   2.034
 5379TIP3   OH216079   1.705   4.775   2.190
 5379TIP3    H116080   1.633   4.788   2.251
 5379TIP3    H216081   1.776   4.740   2.244
 5380TIP3   OH216082   7.125   4.873   3.282
 5380TIP3    H116083   7.045   4.907   3.323
 5380TIP3    H216084   7.196   4.916   3.329
 5381TIP3   OH216085   2.752   2.880   0.766
 5381TIP3    H116086   2.764   2.793   0.803
 5381TIP3    H216087   2.701   2.927   0.832
 5382TIP3   OH216088   1.063   5.988   0.403
 5382TIP3    H116089   0.972   6.009   0.425
 5382TIP3    H216090   1.108   5.989   0.487
 5383TIP3   OH216091   3.422   6.318   0.594
 5383TIP3    H116092   3.405   6.400   0.639
 5383TIP3    H216093   3.494   6.277   0.643
 5384TIP3   OH216094   5.535   3.793   6.091
 5384TIP3    H116095   5.610   3.742   6.059
 5384TIP3    H216096   5.516   3.756   6.177
 5385TIP3   OH216097   3.544   2.319   3.289
 5385TIP3    H116098   3.482   2.350   3.354
 5385TIP3    H216099   3.500   2.332   3.205
 5386TIP3   OH216100   8.268   1.896   4.469
 5386TIP3    H116101   8.210   1.907   4.545
 5386TIP3    H216102   8.291   1.986   4.445
 5387TIP3   OH216103   3.829   1.095   2.162
 5387TIP3    H116104   3.792   1.109   2.074
 5387TIP3    H216105   3.918   1.063   2.146
 5388TIP3   OH216106   0.317   1.608   5.552
 5388TIP3    H116107   0.288   1.557   5.628
 5388TIP3    H216108   0.346   1.691   5.589
 5389TIP3   OH216109   6.538   3.499   2.284
 5389TIP3    H116110   6.558   3.532   2.371
 5389TIP3    H216111   6.485   3.421   2.300
 5390TIP3   OH216112   7.615   0.377   6.178
 5390TIP3    H116113   7.706   0.355   6.156
 5390TIP3    H216114   7.617   0.472   6.192
 5391TIP3   OH216115   6.993   5.576   5.448
 5391TIP3    H116116   6.931   5.648   5.435
 5391TIP3    H216117   7.078   5.614   5.425
 5392TIP3   OH216118   5.200   4.305   3.450
 5392TIP3    H116119   5.116   4.259   3.452
 5392TIP3    H216120   5.241   4.286   3.534
 5393TIP3   OH216121   5.359   5.747   6.597
 5393TIP3    H116122   5.383   5.662   6.559
 5393TIP3    H216123   5.309   5.791   6.528
 5394TIP3   OH216124   4.479   6.402   3.328
 5394TIP3    H116125   4.566   6.418   3.365
 5394TIP3    H216126   4.477   6.308   3.310
 5395TIP3   OH216127   6.100   0.158   5.262
 5395TIP3    H116128   6.178   0.205   5.288
 5395TIP3    H216129   6.066   0.206   5.186
 5396TIP3   OH216130   1.720   5.018   4.347
 5396TIP3    H116131   1.811   5.047   4.345
 5396TIP3    H216132   1.712   4.970   4.429
 5397TIP3   OH216133   1.387   1.137   2.663
 5397TIP3    H116134   1.355   1.092   2.741
 5397TIP3    H216135   1.340   1.097   2.590
 5398TIP3   OH216136   4.661   0.498   4.821
 5398TIP3    H116137   4.718   0.444   4.876
 5398TIP3    H216138   4.676   0.465   4.732
 5399TIP3   OH216139   0.379   5.263   5.750
 5399TIP3    H116140   0.300   5.262   5.697
 5399TIP3    H216141   0.352   5.229   5.835
 5400TIP3   OH216142   1.260   1.453   3.540
 5400TIP3    H116143   1.343   1.496   3.521
 5400TIP3    H216144   1.283   1.376   3.592
 5401TIP3   OH216145   6.369   7.099   0.283
 5401TIP3    H116146   6.367   7.043   0.206
 5401TIP3    H216147   6.342   7.043   0.355
 5402TIP3   OH216148   1.366   6.191   5.225
 5402TIP3    H116149   1.427   6.123   5.252
 5402TIP3    H216150   1.350   6.174   5.132
 5403TIP3   OH216151   7.826   4.765   3.349
 5403TIP3    H116152   7.825   4.674   3.379
 5403TIP3    H216153   7.802   4.760   3.257
 5404TIP3   OH216154   5.847   1.195   3.270
 5404TIP3    H116155   5.845   1.192   3.175
 5404TIP3    H216156   5.766   1.151   3.297
 5405TIP3   OH216157   0.408   1.780   3.544
 5405TIP3    H116158   0.358   1.700   3.558
 5405TIP3    H216159   0.424   1.815   3.632
 5406TIP3   OH216160   2.086   4.088   0.876
 5406TIP3    H116161   2.136   4.168   0.888
 5406TIP3    H216162   2.022   4.109   0.808
 5407TIP3   OH216163   5.886   2.316   1.410
 5407TIP3    H116164   5.921   2.341   1.324
 5407TIP3    H216165   5.796   2.348   1.409
 5408TIP3   OH216166   5.624   4.524   4.526
 5408TIP3    H116167   5.609   4.597   4.587
 5408TIP3    H216168   5.676   4.461   4.577
 5409TIP3   OH216169   3.812   7.149   1.073
 5409TIP3    H116170   3.867   7.228   1.075
 5409TIP3    H216171   3.861   7.084   1.122
 5410TIP3   OH216172   4.563   2.763   2.724
 5410TIP3    H116173   4.615   2.842   2.736
 5410TIP3    H216174   4.530   2.743   2.811
 5411TIP3   OH216175   0.072   3.520   3.819
 5411TIP3    H116176   0.077   3.495   3.911
 5411TIP3    H216177   0.153   3.488   3.781
 5412TIP3   OH216178   2.167   5.170   6.066
 5412TIP3    H116179   2.085   5.195   6.024
 5412TIP3    H216180   2.143   5.102   6.128
 5413TIP3   OH216181   3.592   4.550   6.037
 5413TIP3    H116182   3.670   4.533   6.089
 5413TIP3    H216183   3.566   4.639   6.060
 5414TIP3   OH216184   4.449   4.138   4.692
 5414TIP3    H116185   4.480   4.065   4.746
 5414TIP3    H216186   4.471   4.112   4.602
 5415TIP3   OH216187   8.113   6.325   0.421
 5415TIP3    H116188   8.158   6.364   0.345
 5415TIP3    H216189   8.023   6.355   0.413
 5416TIP3   OH216190   6.188   0.442   1.798
 5416TIP3    H116191   6.270   0.415   1.758
 5416TIP3    H216192   6.201   0.534   1.821
 5417TIP3   OH216193   7.483   4.076   3.616
 5417TIP3    H116194   7.509   4.141   3.551
 5417TIP3    H216195   7.529   4.103   3.696
 5418TIP3   OH216196   3.406   2.547   1.125
 5418TIP3    H116197   3.343   2.479   1.147
 5418TIP3    H216198   3.393   2.615   1.192
 5419TIP3   OH216199   0.765   6.517   5.424
 5419TIP3    H116200   0.825   6.582   5.388
 5419TIP3    H216201   0.822   6.450   5.461
 5420TIP3   OH216202   1.185   1.798   1.576
 5420TIP3    H116203   1.105   1.837   1.541
 5420TIP3    H216204   1.175   1.704   1.562
 5421TIP3   OH216205   6.237   0.013   1.686
 5421TIP3    H116206   6.296  -0.061   1.670
 5421TIP3    H216207   6.260   0.043   1.774
 5422TIP3   OH216208   4.472   2.394   1.327
 5422TIP3    H116209   4.493   2.305   1.356
 5422TIP3    H216210   4.556   2.429   1.298
 5423TIP3   OH216211   0.867   4.134   2.416
 5423TIP3    H116212   0.892   4.200   2.481
 5423TIP3    H216213   0.875   4.051   2.462
 5424TIP3   OH216214   5.447   1.615   5.511
 5424TIP3    H116215   5.431   1.572   5.427
 5424TIP3    H216216   5.531   1.661   5.498
 5425TIP3   OH216217   1.500   5.753   4.694
 5425TIP3    H116218   1.519   5.795   4.610
 5425TIP3    H216219   1.585   5.745   4.736
 5426TIP3   OH216220   7.484   2.049   1.392
 5426TIP3    H116221   7.466   1.966   1.349
 5426TIP3    H216222   7.565   2.034   1.441
 5427TIP3   OH216223   3.979   4.301   1.902
 5427TIP3    H116224   3.948   4.290   1.812
 5427TIP3    H216225   3.965   4.215   1.943
 5428TIP3   OH216226   4.374   6.070   0.918
 5428TIP3    H116227   4.330   6.152   0.941
 5428TIP3    H216228   4.433   6.053   0.992
 5429TIP3   OH216229   4.129   6.430   0.268
 5429TIP3    H116230   4.223   6.412   0.274
 5429TIP3    H216231   4.103   6.452   0.357
 5430TIP3   OH216232   0.317   4.024   1.279
 5430TIP3    H116233   0.392   3.975   1.313
 5430TIP3    H216234   0.288   3.975   1.203
 5431TIP3   OH216235   1.141   5.743   6.417
 5431TIP3    H116236   1.154   5.803   6.344
 5431TIP3    H216237   1.059   5.698   6.397
 5432TIP3   OH216238   1.910   6.356   1.850
 5432TIP3    H116239   1.821   6.373   1.881
 5432TIP3    H216240   1.961   6.345   1.930
 5433TIP3   OH216241   2.708   2.743   1.897
 5433TIP3    H116242   2.704   2.838   1.903
 5433TIP3    H216243   2.696   2.712   1.987
 5434TIP3   OH216244   5.158   5.566   3.594
 5434TIP3    H116245   5.191   5.575   3.504
 5434TIP3    H216246   5.234   5.581   3.649
 5435TIP3   OH216247   0.053   4.473   6.769
 5435TIP3    H116248  -0.015   4.508   6.710
 5435TIP3    H216249   0.077   4.389   6.730
 5436TIP3   OH216250   1.970   1.461   3.513
 5436TIP3    H116251   2.026   1.528   3.552
 5436TIP3    H216252   1.983   1.470   3.419
 5437TIP3   OH216253   6.695   1.897   4.055
 5437TIP3    H116254   6.783   1.902   4.015
 5437TIP3    H216255   6.679   1.804   4.065
 5438TIP3   OH216256   0.555   7.026   3.313
 5438TIP3    H116257   0.545   7.111   3.270
 5438TIP3    H216258   0.592   6.969   3.244
 5439TIP3   OH216259   3.320   3.042   0.626
 5439TIP3    H116260   3.225   3.029   0.628
 5439TIP3    H216261   3.334   3.121   0.679
 5440TIP3   OH216262   1.622   5.826   4.435
 5440TIP3    H116263   1.547   5.853   4.382
 5440TIP3    H216264   1.669   5.764   4.379
 5441TIP3   OH216265   6.431   6.611   5.997
 5441TIP3    H116266   6.503   6.600   6.059
 5441TIP3    H216267   6.407   6.522   5.971
 5442TIP3   OH216268   4.329   2.204   2.706
 5442TIP3    H116269   4.263   2.154   2.754
 5442TIP3    H216270   4.323   2.293   2.742
 5443TIP3   OH216271   2.076   5.963   3.915
 5443TIP3    H116272   2.116   6.016   3.984
 5443TIP3    H216273   2.092   6.012   3.835
 5444TIP3   OH216274   7.763   2.624   4.018
 5444TIP3    H116275   7.753   2.548   4.075
 5444TIP3    H216276   7.855   2.622   3.991
 5445TIP3   OH216277   6.116   5.510   2.996
 5445TIP3    H116278   6.057   5.585   2.996
 5445TIP3    H216279   6.059   5.433   2.997
 5446TIP3   OH216280   2.438   6.672   5.416
 5446TIP3    H116281   2.371   6.638   5.475
 5446TIP3    H216282   2.421   6.627   5.333
 5447TIP3   OH216283   2.858   3.671   3.403
 5447TIP3    H116284   2.850   3.720   3.321
 5447TIP3    H216285   2.952   3.673   3.423
 5448TIP3   OH216286   7.994   0.016   2.145
 5448TIP3    H116287   7.939   0.074   2.197
 5448TIP3    H216288   8.071   0.000   2.199
 5449TIP3   OH216289   3.925   1.987   3.578
 5449TIP3    H116290   3.986   2.020   3.643
 5449TIP3    H216291   3.839   2.018   3.607
 5450TIP3   OH216292   1.096   0.589   2.236
 5450TIP3    H116293   1.104   0.593   2.141
 5450TIP3    H216294   1.187   0.594   2.268
 5451TIP3   OH216295   7.828   6.698   4.601
 5451TIP3    H116296   7.757   6.634   4.606
 5451TIP3    H216297   7.865   6.700   4.689
 5452TIP3   OH216298   6.002   0.784   1.524
 5452TIP3    H116299   5.980   0.789   1.431
 5452TIP3    H216300   5.938   0.841   1.566
 5453TIP3   OH216301   7.750   1.818   0.996
 5453TIP3    H116302   7.735   1.791   1.086
 5453TIP3    H216303   7.842   1.797   0.979
 5454TIP3   OH216304   1.195   6.732   2.173
 5454TIP3    H116305   1.162   6.706   2.087
 5454TIP3    H216306   1.149   6.813   2.194
 5455TIP3   OH216307   1.129   4.595   5.108
 5455TIP3    H116308   1.092   4.543   5.179
 5455TIP3    H216309   1.060   4.597   5.042
 5456TIP3   OH216310   6.561   6.936   2.311
 5456TIP3    H116311   6.546   6.955   2.218
 5456TIP3    H216312   6.550   6.842   2.319
 5457TIP3   OH216313   1.844   1.292   4.913
 5457TIP3    H116314   1.927   1.334   4.936
 5457TIP3    H216315   1.869   1.212   4.867
 5458TIP3   OH216316   0.915   1.422   1.965
 5458TIP3    H116317   0.823   1.424   1.991
 5458TIP3    H216318   0.962   1.404   2.046
 5459TIP3   OH216319   5.978   0.689   4.992
 5459TIP3    H116320   6.073   0.684   4.983
 5459TIP3    H216321   5.964   0.724   5.080
 5460TIP3   OH216322   5.526   2.696   4.334
 5460TIP3    H116323   5.561   2.640   4.265
 5460TIP3    H216324   5.452   2.741   4.294
 5461TIP3   OH216325   1.863   0.095   0.851
 5461TIP3    H116326   1.791   0.032   0.847
 5461TIP3    H216327   1.942   0.043   0.840
 5462TIP3   OH216328   8.017   5.703   5.468
 5462TIP3    H116329   7.946   5.640   5.477
 5462TIP3    H216330   8.071   5.691   5.546
 5463TIP3   OH216331   5.323   5.309   5.716
 5463TIP3    H116332   5.314   5.396   5.754
 5463TIP3    H216333   5.417   5.291   5.717
 5464TIP3   OH216334   8.236   0.580   0.437
 5464TIP3    H116335   8.307   0.609   0.379
 5464TIP3    H216336   8.253   0.628   0.519
 5465TIP3   OH216337   4.496   2.172   5.963
 5465TIP3    H116338   4.563   2.216   5.910
 5465TIP3    H216339   4.438   2.132   5.898
 5466TIP3   OH216340   3.744   0.412   5.439
 5466TIP3    H116341   3.681   0.379   5.375
 5466TIP3    H216342   3.776   0.494   5.401
 5467TIP3   OH216343   1.359   3.640   1.325
 5467TIP3    H116344   1.452   3.618   1.323
 5467TIP3    H216345   1.343   3.671   1.414
 5468TIP3   OH216346   4.807   5.557   6.009
 5468TIP3    H116347   4.837   5.485   6.065
 5468TIP3    H216348   4.718   5.533   5.984
 5469TIP3   OH216349   1.076   1.333   2.210
 5469TIP3    H116350   1.091   1.427   2.224
 5469TIP3    H216351   1.162   1.294   2.223
 5470TIP3   OH216352   6.344   2.353   5.418
 5470TIP3    H116353   6.325   2.447   5.415
 5470TIP3    H216354   6.277   2.318   5.476
 5471TIP3   OH216355   2.048   4.920   1.107
 5471TIP3    H116356   2.095   4.851   1.061
 5471TIP3    H216357   2.115   4.964   1.160
 5472TIP3   OH216358   5.819   0.791   6.379
 5472TIP3    H116359   5.824   0.871   6.326
 5472TIP3    H216360   5.747   0.741   6.339
 5473TIP3   OH216361   6.674   7.583   5.468
 5473TIP3    H116362   6.585   7.606   5.441
 5473TIP3    H216363   6.696   7.648   5.534
 5474TIP3   OH216364   5.010   3.231   1.060
 5474TIP3    H116365   5.048   3.166   1.119
 5474TIP3    H216366   4.947   3.278   1.114
 5475TIP3   OH216367   6.977   4.988   6.552
 5475TIP3    H116368   6.944   5.075   6.575
 5475TIP3    H216369   6.991   4.992   6.458
 5476TIP3   OH216370   0.059   2.949   2.654
 5476TIP3    H116371   0.154   2.957   2.653
 5476TIP3    H216372   0.031   2.979   2.568
 5477TIP3   OH216373   4.223   7.338   5.126
 5477TIP3    H116374   4.148   7.282   5.145
 5477TIP3    H216375   4.282   7.325   5.200
 5478TIP3   OH216376   0.777   4.166   2.755
 5478TIP3    H116377   0.799   4.256   2.775
 5478TIP3    H216378   0.846   4.114   2.797
 5479TIP3   OH216379   3.116   3.759   1.354
 5479TIP3    H116380   3.074   3.751   1.439
 5479TIP3    H216381   3.048   3.794   1.297
 5480TIP3   OH216382   0.800   1.501   2.693
 5480TIP3    H116383   0.713   1.483   2.656
 5480TIP3    H216384   0.811   1.436   2.762
 5481TIP3   OH216385   5.639   4.849   2.557
 5481TIP3    H116386   5.576   4.917   2.533
 5481TIP3    H216387   5.585   4.773   2.579
 5482TIP3   OH216388   4.425   5.587   6.201
 5482TIP3    H116389   4.504   5.542   6.232
 5482TIP3    H216390   4.396   5.639   6.275
 5483TIP3   OH216391   0.203   4.481   5.465
 5483TIP3    H116392   0.266   4.511   5.531
 5483TIP3    H216393   0.216   4.386   5.462
 5484TIP3   OH216394   7.130   0.129   2.782
 5484TIP3    H116395   7.064   0.162   2.843
 5484TIP3    H216396   7.091   0.051   2.744
 5485TIP3   OH216397   7.337   0.447   0.458
 5485TIP3    H116398   7.326   0.354   0.479
 5485TIP3    H216399   7.422   0.452   0.415
 5486TIP3   OH216400   6.679   3.960   1.966
 5486TIP3    H116401   6.647   3.880   2.007
 5486TIP3    H216402   6.636   3.962   1.881
 5487TIP3   OH216403   2.193   2.374   1.416
 5487TIP3    H116404   2.275   2.415   1.444
 5487TIP3    H216405   2.165   2.426   1.341
 5488TIP3   OH216406   7.104   0.800   5.760
 5488TIP3    H116407   7.037   0.867   5.775
 5488TIP3    H216408   7.123   0.806   5.666
 5489TIP3   OH216409   1.956   4.231   5.598
 5489TIP3    H116410   2.021   4.166   5.574
 5489TIP3    H216411   1.902   4.188   5.664
 5490TIP3   OH216412   5.240   3.934   3.546
 5490TIP3    H116413   5.219   3.856   3.597
 5490TIP3    H216414   5.238   4.005   3.609
 5491TIP3   OH216415   7.371   0.994   3.443
 5491TIP3    H116416   7.324   0.998   3.526
 5491TIP3    H216417   7.304   1.011   3.376
 5492TIP3   OH216418   1.254   0.123   3.163
 5492TIP3    H116419   1.328   0.065   3.176
 5492TIP3    H216420   1.269   0.162   3.077
 5493TIP3   OH216421   0.801   2.057   3.182
 5493TIP3    H116422   0.834   1.978   3.141
 5493TIP3    H216423   0.880   2.104   3.210
 5494TIP3   OH216424   7.444   1.912   2.004
 5494TIP3    H116425   7.448   1.907   2.099
 5494TIP3    H216426   7.461   1.823   1.974
 5495TIP3   OH216427   6.657   3.727   3.302
 5495TIP3    H116428   6.737   3.697   3.260
 5495TIP3    H216429   6.593   3.659   3.282
 5496TIP3   OH216430   7.897   5.167   6.099
 5496TIP3    H116431   7.885   5.200   6.010
 5496TIP3    H216432   7.833   5.096   6.108
 5497TIP3   OH216433   4.132   1.573   4.563
 5497TIP3    H116434   4.145   1.572   4.468
 5497TIP3    H216435   4.068   1.503   4.579
 5498TIP3   OH216436   6.381   1.707   0.633
 5498TIP3    H116437   6.427   1.699   0.550
 5498TIP3    H216438   6.387   1.800   0.656
 5499TIP3   OH216439   1.322   3.964   6.645
 5499TIP3    H116440   1.248   3.935   6.697
 5499TIP3    H216441   1.397   3.916   6.682
 5500TIP3   OH216442   5.144   4.452   5.203
 5500TIP3    H116443   5.075   4.496   5.153
 5500TIP3    H216444   5.214   4.516   5.209
 5501TIP3   OH216445   7.323   1.962   0.995
 5501TIP3    H116446   7.365   1.877   1.004
 5501TIP3    H216447   7.391   2.019   0.959
 5502TIP3   OH216448   7.263   1.883   4.459
 5502TIP3    H116449   7.319   1.936   4.402
 5502TIP3    H216450   7.321   1.818   4.496
 5503TIP3   OH216451   4.336   2.605   4.830
 5503TIP3    H116452   4.391   2.538   4.791
 5503TIP3    H216453   4.371   2.688   4.795
 5504TIP3   OH216454   7.483   6.488   3.785
 5504TIP3    H116455   7.489   6.516   3.694
 5504TIP3    H216456   7.550   6.538   3.831
 5505TIP3   OH216457   4.310   7.382   1.107
 5505TIP3    H116458   4.396   7.368   1.067
 5505TIP3    H216459   4.308   7.476   1.127
 5506TIP3   OH216460   5.224   3.433   3.212
 5506TIP3    H116461   5.167   3.508   3.195
 5506TIP3    H216462   5.301   3.448   3.156
 5507TIP3   OH216463   3.294   7.520   2.377
 5507TIP3    H116464   3.285   7.474   2.460
 5507TIP3    H216465   3.292   7.613   2.401
 5508TIP3   OH216466   2.350   5.640   1.860
 5508TIP3    H116467   2.412   5.571   1.834
 5508TIP3    H216468   2.339   5.629   1.954
 5509TIP3   OH216469   6.094   2.154   4.784
 5509TIP3    H116470   6.148   2.079   4.811
 5509TIP3    H216471   6.109   2.161   4.690
 5510TIP3   OH216472   1.244   3.165   3.379
 5510TIP3    H116473   1.188   3.180   3.303
 5510TIP3    H216474   1.219   3.078   3.410
 5511TIP3   OH216475   8.258   3.931   4.803
 5511TIP3    H116476   8.307   3.898   4.727
 5511TIP3    H216477   8.209   3.855   4.835
 5512TIP3   OH216478   8.177   7.317   5.244
 5512TIP3    H116479   8.201   7.224   5.248
 5512TIP3    H216480   8.101   7.320   5.187
 5513TIP3   OH216481   0.763   0.497   0.221
 5513TIP3    H116482   0.677   0.458   0.235
 5513TIP3    H216483   0.815   0.428   0.181
 5514TIP3   OH216484   2.023   1.071   5.645
 5514TIP3    H116485   1.951   1.104   5.699
 5514TIP3    H216486   2.037   1.139   5.579
 5515TIP3   OH216487   6.093   7.235   5.853
 5515TIP3    H116488   6.120   7.144   5.865
 5515TIP3    H216489   6.137   7.282   5.923
 5516TIP3   OH216490   3.165   6.985   5.518
 5516TIP3    H116491   3.156   6.907   5.572
 5516TIP3    H216492   3.098   6.974   5.450
 5517TIP3   OH216493   2.158   5.975   3.432
 5517TIP3    H116494   2.064   5.958   3.433
 5517TIP3    H216495   2.199   5.889   3.436
 5518TIP3   OH216496   6.287   0.057   0.035
 5518TIP3    H116497   6.207   0.031   0.080
 5518TIP3    H216498   6.277   0.152   0.023
 5519TIP3   OH216499   6.763   2.381   5.582
 5519TIP3    H116500   6.726   2.458   5.539
 5519TIP3    H216501   6.747   2.309   5.522
 5520TIP3   OH216502   3.068   2.233   3.842
 5520TIP3    H116503   2.991   2.280   3.874
 5520TIP3    H216504   3.134   2.302   3.829
 5521TIP3   OH216505   4.966   6.162   3.466
 5521TIP3    H116506   5.024   6.235   3.486
 5521TIP3    H216507   4.964   6.158   3.370
 5522TIP3   OH216508   3.288   2.721   6.442
 5522TIP3    H116509   3.288   2.630   6.410
 5522TIP3    H216510   3.201   2.733   6.479
 5523TIP3   OH216511   4.861   5.024   1.568
 5523TIP3    H116512   4.894   4.978   1.645
 5523TIP3    H216513   4.940   5.050   1.520
 5524TIP3   OH216514   4.749   0.841   6.054
 5524TIP3    H116515   4.804   0.780   6.004
 5524TIP3    H216516   4.714   0.788   6.125
 5525TIP3   OH216517   6.521   5.561   2.481
 5525TIP3    H116518   6.509   5.618   2.557
 5525TIP3    H216519   6.609   5.526   2.491
 5526TIP3   OH216520   2.803   1.447   4.621
 5526TIP3    H116521   2.833   1.381   4.685
 5526TIP3    H216522   2.866   1.439   4.549
 5527TIP3   OH216523   2.527   4.200   6.407
 5527TIP3    H116524   2.614   4.204   6.366
 5527TIP3    H216525   2.540   4.146   6.485
 5528TIP3   OH216526   4.178   4.026   5.542
 5528TIP3    H116527   4.104   3.989   5.494
 5528TIP3    H216528   4.251   4.022   5.480
 5529TIP3   OH216529   3.833   5.816   5.943
 5529TIP3    H116530   3.840   5.902   5.983
 5529TIP3    H216531   3.826   5.834   5.849
 5530TIP3   OH216532   2.205   1.297   1.378
 5530TIP3    H116533   2.244   1.371   1.331
 5530TIP3    H216534   2.143   1.259   1.316
 5531TIP3   OH216535   1.915   5.807   6.372
 5531TIP3    H116536   1.970   5.880   6.401
 5531TIP3    H216537   1.974   5.754   6.318
 5532TIP3   OH216538   1.859   0.769   5.055
 5532TIP3    H116539   1.771   0.798   5.030
 5532TIP3    H216540   1.915   0.801   4.984
 5533TIP3   OH216541   3.702   2.206   2.029
 5533TIP3    H116542   3.622   2.190   2.078
 5533TIP3    H216543   3.673   2.222   1.939
 5534TIP3   OH216544   0.252   7.096   6.436
 5534TIP3    H116545   0.215   7.184   6.429
 5534TIP3    H216546   0.187   7.046   6.485
 5535TIP3   OH216547   6.494   4.470   2.205
 5535TIP3    H116548   6.449   4.416   2.269
 5535TIP3    H216549   6.581   4.486   2.243
 5536TIP3   OH216550   1.784   5.801   5.913
 5536TIP3    H116551   1.810   5.719   5.872
 5536TIP3    H216552   1.799   5.868   5.846
 5537TIP3   OH216553   6.021   4.185   2.827
 5537TIP3    H116554   6.032   4.252   2.894
 5537TIP3    H216555   6.043   4.230   2.745
 5538TIP3   OH216556   5.334   7.070   0.772
 5538TIP3    H116557   5.269   7.021   0.721
 5538TIP3    H216558   5.308   7.057   0.863
 5539TIP3   OH216559   8.221   5.173   4.905
 5539TIP3    H116560   8.257   5.089   4.878
 5539TIP3    H216561   8.273   5.238   4.858
 5540TIP3   OH216562   5.701   3.208   4.946
 5540TIP3    H116563   5.751   3.190   5.026
 5540TIP3    H216564   5.739   3.150   4.881
 5541TIP3   OH216565   4.074   5.100   6.410
 5541TIP3    H116566   4.116   5.016   6.429
 5541TIP3    H216567   4.062   5.141   6.495
 5542TIP3   OH216568   2.204   3.055   2.992
 5542TIP3    H116569   2.109   3.060   2.976
 5542TIP3    H216570   2.212   3.061   3.088
 5543TIP3   OH216571   1.352   5.575   6.544
 5543TIP3    H116572   1.296   5.644   6.509
 5543TIP3    H216573   1.417   5.561   6.476
 5544TIP3   OH216574   6.577   1.122   0.061
 5544TIP3    H116575   6.619   1.057   0.117
 5544TIP3    H216576   6.557   1.195   0.121
 5545TIP3   OH216577   3.330   6.880   6.325
 5545TIP3    H116578   3.382   6.955   6.352
 5545TIP3    H216579   3.307   6.834   6.406
 5546TIP3   OH216580   4.873   0.159   2.633
 5546TIP3    H116581   4.886   0.126   2.544
 5546TIP3    H216582   4.908   0.248   2.630
 5547TIP3   OH216583   2.686   4.935   5.257
 5547TIP3    H116584   2.769   4.914   5.300
 5547TIP3    H216585   2.708   4.999   5.190
 5548TIP3   OH216586   4.525   0.503   1.054
 5548TIP3    H116587   4.480   0.504   0.969
 5548TIP3    H216588   4.572   0.419   1.054
 5549TIP3   OH216589   6.285   7.320   0.434
 5549TIP3    H116590   6.321   7.258   0.371
 5549TIP3    H216591   6.237   7.266   0.497
 5550TIP3   OH216592   2.206   3.505   5.822
 5550TIP3    H116593   2.213   3.492   5.728
 5550TIP3    H216594   2.269   3.443   5.860
 5551TIP3   OH216595   2.821   4.993   6.705
 5551TIP3    H116596   2.891   4.969   6.644
 5551TIP3    H216597   2.763   4.917   6.707
 5552TIP3   OH216598   1.161   0.438   5.187
 5552TIP3    H116599   1.231   0.393   5.140
 5552TIP3    H216600   1.122   0.371   5.242
 5553TIP3   OH216601   7.175   5.985   3.344
 5553TIP3    H116602   7.196   5.986   3.251
 5553TIP3    H216603   7.187   6.076   3.372
 5554TIP3   OH216604   0.151   7.186   6.144
 5554TIP3    H116605   0.133   7.123   6.075
 5554TIP3    H216606   0.073   7.185   6.199
 5555TIP3   OH216607   3.959   4.874   3.349
 5555TIP3    H116608   3.992   4.940   3.287
 5555TIP3    H216609   3.945   4.922   3.430
 5556TIP3   OH216610   0.644   6.211   5.598
 5556TIP3    H116611   0.574   6.206   5.532
 5556TIP3    H216612   0.723   6.233   5.548
 5557TIP3   OH216613   5.248   7.337   3.025
 5557TIP3    H116614   5.305   7.320   3.100
 5557TIP3    H216615   5.281   7.418   2.987
 5558TIP3   OH216616   1.382   6.613   3.676
 5558TIP3    H116617   1.348   6.539   3.625
 5558TIP3    H216618   1.424   6.669   3.611
 5559TIP3   OH216619   7.492   2.695   2.818
 5559TIP3    H116620   7.400   2.714   2.797
 5559TIP3    H216621   7.536   2.689   2.733
 5560TIP3   OH216622   0.578   0.089   4.203
 5560TIP3    H116623   0.565   0.058   4.293
 5560TIP3    H216624   0.619   0.175   4.213
 5561TIP3   OH216625   7.371   1.616   4.222
 5561TIP3    H116626   7.466   1.602   4.225
 5561TIP3    H216627   7.349   1.652   4.308
 5562TIP3   OH216628   1.723   6.018   2.917
 5562TIP3    H116629   1.808   6.063   2.920
 5562TIP3    H216630   1.745   5.926   2.904
 5563TIP3   OH216631   3.283   1.923   5.897
 5563TIP3    H116632   3.361   1.926   5.843
 5563TIP3    H216633   3.310   1.961   5.981
 5564TIP3   OH216634   4.177   3.535   3.646
 5564TIP3    H116635   4.137   3.453   3.678
 5564TIP3    H216636   4.103   3.588   3.617
 5565TIP3   OH216637   3.458   4.098   6.461
 5565TIP3    H116638   3.444   4.135   6.548
 5565TIP3    H216639   3.513   4.163   6.417
 5566TIP3   OH216640   0.506   2.270   5.123
 5566TIP3    H116641   0.411   2.266   5.131
 5566TIP3    H216642   0.529   2.358   5.152
 5567TIP3   OH216643   5.416   0.201   1.966
 5567TIP3    H116644   5.450   0.254   1.895
 5567TIP3    H216645   5.435   0.110   1.940
 5568TIP3   OH216646   2.876   2.829   1.527
 5568TIP3    H116647   2.861   2.924   1.521
 5568TIP3    H216648   2.971   2.820   1.529
 5569TIP3   OH216649   3.447   4.270   3.463
 5569TIP3    H116650   3.437   4.294   3.555
 5569TIP3    H216651   3.518   4.207   3.462
 5570TIP3   OH216652   8.121   6.410   5.851
 5570TIP3    H116653   8.134   6.323   5.889
 5570TIP3    H216654   8.088   6.393   5.763
 5571TIP3   OH216655   3.095   7.439   4.153
 5571TIP3    H116656   3.003   7.465   4.159
 5571TIP3    H216657   3.115   7.403   4.240
 5572TIP3   OH216658   0.029   2.657   4.885
 5572TIP3    H116659   0.036   2.649   4.981
 5572TIP3    H216660  -0.063   2.638   4.867
 5573TIP3   OH216661   6.510   5.003   6.173
 5573TIP3    H116662   6.486   4.969   6.087
 5573TIP3    H216663   6.462   5.085   6.181
 5574TIP3   OH216664   3.456   7.319   3.164
 5574TIP3    H116665   3.396   7.245   3.154
 5574TIP3    H216666   3.400   7.392   3.192
 5575TIP3   OH216667   1.088   0.684   5.060
 5575TIP3    H116668   1.103   0.595   5.091
 5575TIP3    H216669   1.021   0.675   4.992
 5576TIP3   OH216670   6.289   6.284   0.839
 5576TIP3    H116671   6.258   6.244   0.757
 5576TIP3    H216672   6.212   6.284   0.896
 5577TIP3   OH216673   5.064   5.297   2.965
 5577TIP3    H116674   5.077   5.208   2.932
 5577TIP3    H216675   4.970   5.311   2.959
 5578TIP3   OH216676   4.887   2.859   1.676
 5578TIP3    H116677   4.892   2.770   1.710
 5578TIP3    H216678   4.978   2.888   1.671
 5579TIP3   OH216679   3.830   5.258   3.238
 5579TIP3    H116680   3.895   5.214   3.183
 5579TIP3    H216681   3.762   5.192   3.251
 5580TIP3   OH216682   1.653   0.953   1.445
 5580TIP3    H116683   1.647   1.033   1.497
 5580TIP3    H216684   1.716   0.973   1.376
 5581TIP3   OH216685   8.181   2.818   5.836
 5581TIP3    H116686   8.142   2.890   5.786
 5581TIP3    H216687   8.120   2.745   5.825
 5582TIP3   OH216688   7.651   3.708   1.971
 5582TIP3    H116689   7.694   3.695   1.887
 5582TIP3    H216690   7.557   3.704   1.951
 5583TIP3   OH216691   7.689   4.267   4.495
 5583TIP3    H116692   7.682   4.362   4.504
 5583TIP3    H216693   7.764   4.254   4.437
 5584TIP3   OH216694   3.279   1.458   4.400
 5584TIP3    H116695   3.375   1.454   4.395
 5584TIP3    H216696   3.250   1.458   4.309
 5585TIP3   OH216697   0.282   5.283   3.895
 5585TIP3    H116698   0.197   5.295   3.939
 5585TIP3    H216699   0.271   5.203   3.844
 5586TIP3   OH216700   4.535   7.716   5.847
 5586TIP3    H116701   4.565   7.796   5.804
 5586TIP3    H216702   4.439   7.717   5.836
 5587TIP3   OH216703   3.310   3.443   4.876
 5587TIP3    H116704   3.338   3.352   4.878
 5587TIP3    H216705   3.360   3.486   4.945
 5588TIP3   OH216706   3.706   2.512   2.592
 5588TIP3    H116707   3.750   2.491   2.675
 5588TIP3    H216708   3.673   2.601   2.604
 5589TIP3   OH216709   7.630   7.759   3.825
 5589TIP3    H116710   7.681   7.728   3.750
 5589TIP3    H216711   7.650   7.852   3.830
 5590TIP3   OH216712   5.604   3.079   2.749
 5590TIP3    H116713   5.659   3.083   2.671
 5590TIP3    H216714   5.516   3.097   2.717
 5591TIP3   OH216715   1.038   4.664   2.849
 5591TIP3    H116716   0.999   4.746   2.819
 5591TIP3    H216717   1.127   4.665   2.812
 5592TIP3   OH216718   5.499   3.788   3.344
 5592TIP3    H116719   5.554   3.809   3.269
 5592TIP3    H216720   5.465   3.873   3.373
 5593TIP3   OH216721   7.446   1.527   6.148
 5593TIP3    H116722   7.454   1.620   6.130
 5593TIP3    H216723   7.534   1.492   6.132
 5594TIP3   OH216724   5.360   7.340   3.272
 5594TIP3    H116725   5.373   7.245   3.281
 5594TIP3    H216726   5.445   7.378   3.295
 5595TIP3   OH216727   0.964   2.460   3.666
 5595TIP3    H116728   1.038   2.409   3.699
 5595TIP3    H216729   0.927   2.502   3.744
 5596TIP3   OH216730   5.913   7.322   4.947
 5596TIP3    H116731   5.880   7.246   4.898
 5596TIP3    H216732   6.002   7.297   4.971
 5597TIP3   OH216733   4.249   0.139   1.488
 5597TIP3    H116734   4.267   0.148   1.582
 5597TIP3    H216735   4.304   0.066   1.460
 5598TIP3   OH216736   3.152   5.285   4.646
 5598TIP3    H116737   3.128   5.373   4.672
 5598TIP3    H216738   3.188   5.295   4.557
 5599TIP3   OH216739   7.542   1.780   1.329
 5599TIP3    H116740   7.534   1.703   1.273
 5599TIP3    H216741   7.636   1.792   1.339
 5600TIP3   OH216742   3.102   1.794   5.033
 5600TIP3    H116743   3.174   1.857   5.038
 5600TIP3    H216744   3.125   1.737   4.959
 5601TIP3   OH216745   0.840   2.892   2.079
 5601TIP3    H116746   0.825   2.840   2.158
 5601TIP3    H216747   0.867   2.978   2.112
 5602TIP3   OH216748   7.516   4.510   4.831
 5602TIP3    H116749   7.604   4.545   4.816
 5602TIP3    H216750   7.457   4.582   4.808
 5603TIP3   OH216751   7.651   5.252   0.640
 5603TIP3    H116752   7.559   5.280   0.636
 5603TIP3    H216753   7.686   5.295   0.718
 5604TIP3   OH216754   4.590   6.200   1.562
 5604TIP3    H116755   4.632   6.154   1.489
 5604TIP3    H216756   4.530   6.135   1.599
 5605TIP3   OH216757   5.293   7.612   2.559
 5605TIP3    H116758   5.264   7.521   2.565
 5605TIP3    H216759   5.251   7.655   2.633
 5606TIP3   OH216760   7.450   1.372   4.721
 5606TIP3    H116761   7.502   1.356   4.799
 5606TIP3    H216762   7.477   1.304   4.659
 5607TIP3   OH216763   4.545   4.258   3.134
 5607TIP3    H116764   4.561   4.317   3.208
 5607TIP3    H216765   4.495   4.311   3.072
 5608TIP3   OH216766   8.159   5.929   6.190
 5608TIP3    H116767   8.226   5.967   6.247
 5608TIP3    H216768   8.140   5.844   6.229
 5609TIP3   OH216769   7.545   3.599   3.367
 5609TIP3    H116770   7.531   3.513   3.406
 5609TIP3    H216771   7.578   3.653   3.439
 5610TIP3   OH216772   2.808   4.655   5.543
 5610TIP3    H116773   2.805   4.612   5.628
 5610TIP3    H216774   2.858   4.595   5.488
 5611TIP3   OH216775   0.992   0.331   2.306
 5611TIP3    H116776   1.076   0.375   2.315
 5611TIP3    H216777   0.974   0.330   2.212
 5612TIP3   OH216778   7.708   5.953   1.342
 5612TIP3    H116779   7.757   6.022   1.297
 5612TIP3    H216780   7.754   5.940   1.424
 5613TIP3   OH216781   7.804   5.258   0.276
 5613TIP3    H116782   7.868   5.273   0.346
 5613TIP3    H216783   7.722   5.293   0.311
 5614TIP3   OH216784   2.347   7.447   5.286
 5614TIP3    H116785   2.353   7.353   5.302
 5614TIP3    H216786   2.254   7.467   5.297
 5615TIP3   OH216787   3.689   3.717   4.141
 5615TIP3    H116788   3.712   3.710   4.233
 5615TIP3    H216789   3.596   3.697   4.137
 5616TIP3   OH216790   0.093   3.211   5.795
 5616TIP3    H116791   0.017   3.177   5.748
 5616TIP3    H216792   0.116   3.141   5.857
 5617TIP3   OH216793   6.184   1.565   5.415
 5617TIP3    H116794   6.093   1.534   5.416
 5617TIP3    H216795   6.198   1.602   5.502
 5618TIP3   OH216796   4.749   5.787   5.867
 5618TIP3    H116797   4.669   5.825   5.901
 5618TIP3    H216798   4.748   5.696   5.898
 5619TIP3   OH216799   0.954   5.199   1.658
 5619TIP3    H116800   0.954   5.160   1.745
 5619TIP3    H216801   0.913   5.132   1.602
 5620TIP3   OH216802   5.185   0.612   1.123
 5620TIP3    H116803   5.222   0.537   1.170
 5620TIP3    H216804   5.090   0.603   1.135
 5621TIP3   OH216805   2.889   2.911   3.701
 5621TIP3    H116806   2.931   2.995   3.721
 5621TIP3    H216807   2.930   2.883   3.619
 5622TIP3   OH216808   5.118   2.038   1.788
 5622TIP3    H116809   5.201   2.050   1.743
 5622TIP3    H216810   5.053   2.030   1.718
 5623TIP3   OH216811   5.093   3.013   2.395
 5623TIP3    H116812   5.061   2.967   2.317
 5623TIP3    H216813   5.013   3.044   2.438
 5624TIP3   OH216814   5.609   4.925   4.339
 5624TIP3    H116815   5.609   4.997   4.275
 5624TIP3    H216816   5.680   4.948   4.400
 5625TIP3   OH216817   2.246   5.647   1.250
 5625TIP3    H116818   2.337   5.627   1.270
 5625TIP3    H216819   2.196   5.601   1.317
 5626TIP3   OH216820   8.197   0.668   4.844
 5626TIP3    H116821   8.174   0.619   4.765
 5626TIP3    H216822   8.159   0.618   4.916
 5627TIP3   OH216823   6.709   3.505   0.848
 5627TIP3    H116824   6.647   3.541   0.913
 5627TIP3    H216825   6.783   3.475   0.900
 5628TIP3   OH216826   1.132   0.487   3.367
 5628TIP3    H116827   1.049   0.448   3.340
 5628TIP3    H216828   1.182   0.414   3.404
 5629TIP3   OH216829   3.445   2.436   0.334
 5629TIP3    H116830   3.490   2.507   0.288
 5629TIP3    H216831   3.374   2.479   0.382
 5630TIP3   OH216832   0.287   4.062   3.866
 5630TIP3    H116833   0.233   3.998   3.819
 5630TIP3    H216834   0.362   4.011   3.897
 5631TIP3   OH216835   3.506   6.468   6.466
 5631TIP3    H116836   3.478   6.419   6.544
 5631TIP3    H216837   3.579   6.418   6.431
 5632TIP3   OH216838   3.309   0.937   4.718
 5632TIP3    H116839   3.234   0.933   4.776
 5632TIP3    H216840   3.281   0.992   4.645
 5633TIP3   OH216841   1.229   6.065   0.991
 5633TIP3    H116842   1.255   6.150   0.957
 5633TIP3    H216843   1.306   6.035   1.041
 5634TIP3   OH216844   4.938   2.384   1.577
 5634TIP3    H116845   4.894   2.444   1.517
 5634TIP3    H216846   4.902   2.298   1.556
 5635TIP3   OH216847   3.991   3.429   0.141
 5635TIP3    H116848   4.069   3.481   0.160
 5635TIP3    H216849   3.918   3.482   0.174
 5636TIP3   OH216850   4.853   7.520   5.615
 5636TIP3    H116851   4.891   7.466   5.545
 5636TIP3    H216852   4.760   7.502   5.612
 5637TIP3   OH216853   8.157   2.931   2.173
 5637TIP3    H116854   8.097   3.004   2.188
 5637TIP3    H216855   8.157   2.919   2.079
 5638TIP3   OH216856   3.205   0.557   1.435
 5638TIP3    H116857   3.211   0.600   1.520
 5638TIP3    H216858   3.278   0.595   1.385
 5639TIP3   OH216859   1.923   0.055   3.222
 5639TIP3    H116860   1.901   0.025   3.310
 5639TIP3    H216861   1.997   0.001   3.196
 5640TIP3   OH216862   7.097   4.748   2.126
 5640TIP3    H116863   7.037   4.822   2.121
 5640TIP3    H216864   7.122   4.744   2.219
 5641TIP3   OH216865   0.282   3.466   6.362
 5641TIP3    H116866   0.329   3.422   6.291
 5641TIP3    H216867   0.199   3.420   6.368
 5642TIP3   OH216868   4.462   0.393   4.067
 5642TIP3    H116869   4.378   0.415   4.108
 5642TIP3    H216870   4.451   0.304   4.036
 5643TIP3   OH216871   5.861   0.871   0.538
 5643TIP3    H116872   5.820   0.890   0.622
 5643TIP3    H216873   5.859   0.955   0.491
 5644TIP3   OH216874   2.464   6.208   4.280
 5644TIP3    H116875   2.420   6.252   4.352
 5644TIP3    H216876   2.499   6.127   4.319
 5645TIP3   OH216877   6.840   5.844   1.279
 5645TIP3    H116878   6.758   5.822   1.235
 5645TIP3    H216879   6.907   5.833   1.212
 5646TIP3   OH216880   7.286   0.379   6.201
 5646TIP3    H116881   7.196   0.385   6.232
 5646TIP3    H216882   7.332   0.448   6.249
 5647TIP3   OH216883   5.408   6.350   3.859
 5647TIP3    H116884   5.448   6.352   3.945
 5647TIP3    H216885   5.471   6.394   3.802
 5648TIP3   OH216886   6.562   3.661   1.025
 5648TIP3    H116887   6.623   3.714   1.077
 5648TIP3    H216888   6.526   3.599   1.088
 5649TIP3   OH216889   4.127   5.263   3.554
 5649TIP3    H116890   4.086   5.306   3.629
 5649TIP3    H216891   4.217   5.248   3.582
 5650TIP3   OH216892   7.013   6.975   2.272
 5650TIP3    H116893   6.980   6.896   2.230
 5650TIP3    H216894   6.940   7.006   2.325
 5651TIP3   OH216895   3.170   1.366   2.242
 5651TIP3    H116896   3.158   1.290   2.298
 5651TIP3    H216897   3.265   1.377   2.236
 5652TIP3   OH216898   2.957   2.551   6.463
 5652TIP3    H116899   2.955   2.465   6.421
 5652TIP3    H216900   2.907   2.538   6.544
 5653TIP3   OH216901   3.114   1.130   3.668
 5653TIP3    H116902   3.079   1.156   3.583
 5653TIP3    H216903   3.208   1.121   3.653
 5654TIP3   OH216904   2.935   6.277   2.123
 5654TIP3    H116905   3.019   6.323   2.110
 5654TIP3    H216906   2.946   6.194   2.077
 5655TIP3   OH216907   0.013   0.193   5.736
 5655TIP3    H116908   0.066   0.237   5.802
 5655TIP3    H216909   0.011   0.102   5.763
 5656TIP3   OH216910   0.851   1.303   0.324
 5656TIP3    H116911   0.786   1.233   0.324
 5656TIP3    H216912   0.800   1.384   0.333
 5657TIP3   OH216913   0.833   5.698   2.623
 5657TIP3    H116914   0.858   5.701   2.716
 5657TIP3    H216915   0.757   5.755   2.617
 5658TIP3   OH216916   6.530   1.507   3.896
 5658TIP3    H116917   6.602   1.569   3.887
 5658TIP3    H216918   6.507   1.510   3.989
 5659TIP3   OH216919   4.254   4.766   0.132
 5659TIP3    H116920   4.168   4.790   0.166
 5659TIP3    H216921   4.245   4.771   0.037
 5660TIP3   OH216922   3.939   5.405   2.109
 5660TIP3    H116923   4.013   5.392   2.168
 5660TIP3    H216924   3.916   5.317   2.079
 5661TIP3   OH216925   4.161   2.554   2.584
 5661TIP3    H116926   4.117   2.471   2.564
 5661TIP3    H216927   4.223   2.566   2.513
 5662TIP3   OH216928   6.455   7.323   2.978
 5662TIP3    H116929   6.432   7.416   2.973
 5662TIP3    H216930   6.516   7.318   3.051
 5663TIP3   OH216931   7.493   3.941   6.135
 5663TIP3    H116932   7.549   4.005   6.091
 5663TIP3    H216933   7.413   3.990   6.156
 5664TIP3   OH216934   8.171   2.571   1.289
 5664TIP3    H116935   8.152   2.529   1.373
 5664TIP3    H216936   8.086   2.602   1.259
 5665TIP3   OH216937   6.085   0.122   3.397
 5665TIP3    H116938   6.026   0.194   3.375
 5665TIP3    H216939   6.026   0.051   3.422
 5666TIP3   OH216940   0.524   2.329   1.320
 5666TIP3    H116941   0.591   2.278   1.274
 5666TIP3    H216942   0.557   2.335   1.410
 5667TIP3   OH216943   8.124   5.203   0.003
 5667TIP3    H116944   8.033   5.191  -0.024
 5667TIP3    H216945   8.161   5.115   0.004
 5668TIP3   OH216946   4.876   0.463   4.346
 5668TIP3    H116947   4.972   0.466   4.345
 5668TIP3    H216948   4.851   0.451   4.255
 5669TIP3   OH216949   6.285   5.085   2.110
 5669TIP3    H116950   6.196   5.099   2.078
 5669TIP3    H216951   6.323   5.173   2.115
 5670TIP3   OH216952   2.825   6.054   0.514
 5670TIP3    H116953   2.810   6.129   0.571
 5670TIP3    H216954   2.825   5.979   0.573
 5671TIP3   OH216955   3.027   4.088   6.349
 5671TIP3    H116956   3.042   4.023   6.417
 5671TIP3    H216957   3.090   4.067   6.280
 5672TIP3   OH216958   1.230   1.655   6.760
 5672TIP3    H116959   1.239   1.581   6.700
 5672TIP3    H216960   1.137   1.657   6.782
 5673TIP3   OH216961  -0.007   0.866   2.422
 5673TIP3    H116962  -0.012   0.942   2.364
 5673TIP3    H216963   0.061   0.890   2.486
 5674TIP3   OH216964   7.873   2.427   0.616
 5674TIP3    H116965   7.966   2.438   0.598
 5674TIP3    H216966   7.852   2.341   0.580
 5675TIP3   OH216967   5.046   3.598   0.808
 5675TIP3    H116968   4.965   3.563   0.847
 5675TIP3    H216969   5.018   3.676   0.762
 5676TIP3   OH216970   0.821   2.605   0.779
 5676TIP3    H116971   0.771   2.557   0.845
 5676TIP3    H216972   0.828   2.545   0.705
 5677TIP3   OH216973   1.697   3.018   4.784
 5677TIP3    H116974   1.645   2.969   4.846
 5677TIP3    H216975   1.785   3.021   4.822
 5678TIP3   OH216976   7.360   6.360   1.541
 5678TIP3    H116977   7.365   6.410   1.622
 5678TIP3    H216978   7.266   6.342   1.530
 5679TIP3   OH216979   7.216   2.743   2.967
 5679TIP3    H116980   7.200   2.706   3.054
 5679TIP3    H216981   7.134   2.787   2.944
 5680TIP3   OH216982   6.533   4.890   2.770
 5680TIP3    H116983   6.562   4.977   2.742
 5680TIP3    H216984   6.514   4.901   2.863
 5681TIP3   OH216985   2.636   1.858   5.619
 5681TIP3    H116986   2.553   1.813   5.634
 5681TIP3    H216987   2.702   1.799   5.653
 5682TIP3   OH216988   3.082   1.984   0.118
 5682TIP3    H116989   3.154   2.027   0.072
 5682TIP3    H216990   3.037   2.056   0.164
 5683TIP3   OH216991   2.958   1.945   2.073
 5683TIP3    H116992   2.996   1.862   2.101
 5683TIP3    H216993   3.031   2.006   2.072
 5684TIP3   OH216994   5.635   4.714   3.818
 5684TIP3    H116995   5.632   4.744   3.909
 5684TIP3    H216996   5.649   4.793   3.767
 5685TIP3   OH216997   6.370   7.685   4.043
 5685TIP3    H116998   6.392   7.759   3.986
 5685TIP3    H216999   6.405   7.609   3.998
 5686TIP3   OH217000   3.734   1.805   2.457
 5686TIP3    H117001   3.714   1.871   2.391
 5686TIP3    H217002   3.801   1.749   2.417
 5687TIP3   OH217003   2.089   7.550   4.947
 5687TIP3    H117004   2.074   7.644   4.949
 5687TIP3    H217005   2.124   7.532   4.860
 5688TIP3   OH217006   0.466   5.396   3.390
 5688TIP3    H117007   0.383   5.352   3.409
 5688TIP3    H217008   0.444   5.489   3.393
 5689TIP3   OH217009   5.002   7.617   5.841
 5689TIP3    H117010   4.978   7.583   5.755
 5689TIP3    H217011   4.919   7.620   5.889
 5690TIP3   OH217012   2.822   3.508   2.485
 5690TIP3    H117013   2.764   3.565   2.536
 5690TIP3    H217014   2.888   3.567   2.449
 5691TIP3   OH217015   6.281   2.717   2.423
 5691TIP3    H117016   6.272   2.733   2.517
 5691TIP3    H217017   6.209   2.765   2.383
 5692TIP3   OH217018   4.741   3.746   1.764
 5692TIP3    H117019   4.765   3.775   1.852
 5692TIP3    H217020   4.715   3.654   1.776
 5693TIP3   OH217021   6.503   1.856   0.119
 5693TIP3    H117022   6.545   1.771   0.131
 5693TIP3    H217023   6.550   1.896   0.045
 5694TIP3   OH217024   6.995   6.581   5.592
 5694TIP3    H117025   6.957   6.580   5.504
 5694TIP3    H217026   7.090   6.587   5.577
 5695TIP3   OH217027   4.314   6.318   4.114
 5695TIP3    H117028   4.222   6.339   4.134
 5695TIP3    H217029   4.341   6.387   4.053
 5696TIP3   OH217030   3.088   6.280   5.897
 5696TIP3    H117031   3.025   6.324   5.841
 5696TIP3    H217032   3.151   6.348   5.921
 5697TIP3   OH217033   4.578   6.515   0.406
 5697TIP3    H117034   4.562   6.458   0.481
 5697TIP3    H217035   4.601   6.599   0.444
 5698TIP3   OH217036   0.905   7.441   3.267
 5698TIP3    H117037   0.933   7.423   3.178
 5698TIP3    H217038   0.964   7.389   3.322
 5699TIP3   OH217039   3.902   6.815   3.927
 5699TIP3    H117040   3.828   6.873   3.911
 5699TIP3    H217041   3.884   6.776   4.013
 5700TIP3   OH217042   6.312   4.297   4.437
 5700TIP3    H117043   6.321   4.202   4.424
 5700TIP3    H217044   6.343   4.335   4.355
 5701TIP3   OH217045   6.883   5.792   6.378
 5701TIP3    H117046   6.900   5.725   6.312
 5701TIP3    H217047   6.957   5.852   6.371
 5702TIP3   OH217048   4.623   2.869   1.066
 5702TIP3    H117049   4.692   2.805   1.050
 5702TIP3    H217050   4.670   2.946   1.100
 5703TIP3   OH217051   3.546   1.151   2.232
 5703TIP3    H117052   3.637   1.125   2.221
 5703TIP3    H217053   3.500   1.109   2.160
 5704TIP3   OH217054   6.253   3.235   1.271
 5704TIP3    H117055   6.224   3.287   1.346
 5704TIP3    H217056   6.255   3.145   1.303
 5705TIP3   OH217057   6.553   6.676   1.465
 5705TIP3    H117058   6.468   6.703   1.501
 5705TIP3    H217059   6.557   6.582   1.482
 5706TIP3   OH217060   0.769   4.913   4.583
 5706TIP3    H117061   0.805   4.826   4.565
 5706TIP3    H217062   0.800   4.967   4.511
 5707TIP3   OH217063   7.712   3.812   1.613
 5707TIP3    H117064   7.732   3.867   1.689
 5707TIP3    H217065   7.786   3.751   1.608
 5708TIP3   OH217066   0.238   7.766   0.368
 5708TIP3    H117067   0.145   7.785   0.361
 5708TIP3    H217068   0.266   7.808   0.449
 5709TIP3   OH217069   4.066   4.057   3.692
 5709TIP3    H117070   4.132   3.988   3.680
 5709TIP3    H217071   4.083   4.118   3.621
 5710TIP3   OH217072   5.078   3.245   0.798
 5710TIP3    H117073   5.149   3.305   0.777
 5710TIP3    H217074   5.053   3.268   0.887
 5711TIP3   OH217075   2.130   1.813   0.131
 5711TIP3    H117076   2.208   1.857   0.096
 5711TIP3    H217077   2.091   1.878   0.189
 5712TIP3   OH217078   4.643   2.929   1.825
 5712TIP3    H117079   4.714   2.879   1.786
 5712TIP3    H217080   4.660   2.924   1.919
 5713TIP3   OH217081   7.771   1.328   3.405
 5713TIP3    H117082   7.713   1.252   3.402
 5713TIP3    H217083   7.729   1.388   3.466
 5714TIP3   OH217084   5.480   4.012   5.371
 5714TIP3    H117085   5.436   4.003   5.287
 5714TIP3    H217086   5.523   4.097   5.367
 5715TIP3   OH217087   4.448   1.990   3.740
 5715TIP3    H117088   4.412   1.927   3.677
 5715TIP3    H217089   4.509   1.938   3.793
 5716TIP3   OH217090   0.987   2.790   5.328
 5716TIP3    H117091   0.914   2.805   5.389
 5716TIP3    H217092   1.063   2.777   5.384
 5717TIP3   OH217093   2.479   6.891   3.880
 5717TIP3    H117094   2.455   6.976   3.843
 5717TIP3    H217095   2.438   6.891   3.967
 5718TIP3   OH217096   5.382   6.182   0.880
 5718TIP3    H117097   5.320   6.114   0.905
 5718TIP3    H217098   5.446   6.183   0.951
 5719TIP3   OH217099   0.543   5.389   3.967
 5719TIP3    H117100   0.507   5.473   3.995
 5719TIP3    H217101   0.467   5.336   3.944
 5720TIP3   OH217102   2.044   1.409   2.160
 5720TIP3    H117103   2.015   1.486   2.209
 5720TIP3    H217104   2.139   1.406   2.173
 5721TIP3   OH217105   4.687   1.423   1.072
 5721TIP3    H117106   4.744   1.362   1.119
 5721TIP3    H217107   4.742   1.501   1.059
 5722TIP3   OH217108   1.097   6.477   6.218
 5722TIP3    H117109   1.112   6.411   6.286
 5722TIP3    H217110   1.054   6.429   6.147
 5723TIP3   OH217111   4.077   0.983   1.748
 5723TIP3    H117112   4.072   1.034   1.667
 5723TIP3    H217113   4.104   1.046   1.814
 5724TIP3   OH217114   3.814   0.449   5.691
 5724TIP3    H117115   3.755   0.440   5.766
 5724TIP3    H217116   3.756   0.466   5.617
 5725TIP3   OH217117   1.254   2.821   0.129
 5725TIP3    H117118   1.167   2.786   0.146
 5725TIP3    H217119   1.314   2.750   0.152
 5726TIP3   OH217120   7.258   2.383   6.139
 5726TIP3    H117121   7.198   2.359   6.068
 5726TIP3    H217122   7.213   2.356   6.219
 5727TIP3   OH217123   1.484   7.132   4.149
 5727TIP3    H117124   1.552   7.066   4.133
 5727TIP3    H217125   1.499   7.161   4.239
 5728TIP3   OH217126   5.322   5.367   6.484
 5728TIP3    H117127   5.370   5.286   6.501
 5728TIP3    H217128   5.390   5.434   6.474
 5729TIP3   OH217129   3.202   1.700   0.541
 5729TIP3    H117130   3.124   1.756   0.540
 5729TIP3    H217131   3.170   1.615   0.511
 5730TIP3   OH217132   7.677   7.378   6.512
 5730TIP3    H117133   7.735   7.353   6.439
 5730TIP3    H217134   7.736   7.387   6.587
 5731TIP3   OH217135   3.979   1.995   0.040
 5731TIP3    H117136   3.946   2.073   0.084
 5731TIP3    H217137   3.922   1.985  -0.037
 5732TIP3   OH217138   7.167   2.304   0.357
 5732TIP3    H117139   7.174   2.280   0.264
 5732TIP3    H217140   7.236   2.369   0.370
 5733TIP3   OH217141   1.335   3.534   5.663
 5733TIP3    H117142   1.255   3.538   5.715
 5733TIP3    H217143   1.311   3.570   5.578
 5734TIP3   OH217144   0.039   3.077   6.176
 5734TIP3    H117145  -0.050   3.108   6.161
 5734TIP3    H217146   0.047   3.069   6.271
 5735TIP3   OH217147   0.531   3.671   3.680
 5735TIP3    H117148   0.606   3.660   3.622
 5735TIP3    H217149   0.504   3.762   3.667
 5736TIP3   OH217150   6.084   1.769   2.652
 5736TIP3    H117151   6.039   1.839   2.605
 5736TIP3    H217152   6.015   1.722   2.698
 5737TIP3   OH217153   1.737   6.928   3.346
 5737TIP3    H117154   1.690   6.979   3.412
 5737TIP3    H217155   1.825   6.917   3.383
 5738TIP3   OH217156   4.121   1.424   0.117
 5738TIP3    H117157   4.043   1.395   0.164
 5738TIP3    H217158   4.159   1.492   0.173
 5739TIP3   OH217159   7.556   2.744   6.201
 5739TIP3    H117160   7.476   2.782   6.165
 5739TIP3    H217161   7.526   2.671   6.255
 5740TIP3   OH217162   3.139   1.925   3.221
 5740TIP3    H117163   3.221   1.974   3.216
 5740TIP3    H217164   3.105   1.926   3.132
 5741TIP3   OH217165   0.476   3.231   1.716
 5741TIP3    H117166   0.462   3.139   1.737
 5741TIP3    H217167   0.479   3.274   1.802
 5742TIP3   OH217168   3.267   0.728   3.630
 5742TIP3    H117169   3.349   0.680   3.626
 5742TIP3    H217170   3.261   0.758   3.721
 5743TIP3   OH217171   6.443   2.333   1.535
 5743TIP3    H117172   6.462   2.252   1.583
 5743TIP3    H217173   6.358   2.317   1.493
 5744TIP3   OH217174   1.355   2.298   1.140
 5744TIP3    H117175   1.383   2.270   1.053
 5744TIP3    H217176   1.436   2.304   1.190
 5745TIP3   OH217177   1.263   3.497   2.705
 5745TIP3    H117178   1.216   3.489   2.788
 5745TIP3    H217179   1.353   3.516   2.731
 5746TIP3   OH217180   6.772   7.661   0.084
 5746TIP3    H117181   6.838   7.722   0.115
 5746TIP3    H217182   6.821   7.584   0.055
 5747TIP3   OH217183   4.054   5.910   5.328
 5747TIP3    H117184   4.089   5.940   5.244
 5747TIP3    H217185   3.964   5.884   5.309
 5748TIP3   OH217186   4.032   0.917   2.919
 5748TIP3    H117187   4.039   0.822   2.908
 5748TIP3    H217188   4.101   0.953   2.863
 5749TIP3   OH217189   7.336   3.140   1.503
 5749TIP3    H117190   7.251   3.173   1.530
 5749TIP3    H217191   7.386   3.131   1.584
 5750TIP3   OH217192   6.298   1.657   4.073
 5750TIP3    H117193   6.319   1.742   4.034
 5750TIP3    H217194   6.272   1.678   4.163
 5751TIP3   OH217195   7.988   2.074   4.973
 5751TIP3    H117196   8.032   2.159   4.971
 5751TIP3    H217197   8.031   2.024   4.903
 5752TIP3   OH217198   1.157   2.257   5.917
 5752TIP3    H117199   1.133   2.188   5.855
 5752TIP3    H217200   1.253   2.258   5.915
 5753TIP3   OH217201   3.438   5.328   2.200
 5753TIP3    H117202   3.346   5.318   2.176
 5753TIP3    H217203   3.473   5.239   2.200
 5754TIP3   OH217204   1.411   1.038   1.215
 5754TIP3    H117205   1.441   1.089   1.140
 5754TIP3    H217206   1.451   0.952   1.203
 5755TIP3   OH217207   7.181   0.628   0.609
 5755TIP3    H117208   7.099   0.599   0.569
 5755TIP3    H217209   7.239   0.552   0.603
 5756TIP3   OH217210   2.832   1.758   3.196
 5756TIP3    H117211   2.843   1.835   3.252
 5756TIP3    H217212   2.893   1.693   3.231
 5757TIP3   OH217213   6.267   5.442   1.682
 5757TIP3    H117214   6.291   5.467   1.593
 5757TIP3    H217215   6.335   5.382   1.709
 5758TIP3   OH217216   4.171   6.360   2.641
 5758TIP3    H117217   4.241   6.374   2.577
 5758TIP3    H217218   4.179   6.268   2.665
 5759TIP3   OH217219   7.161   3.104   2.130
 5759TIP3    H117220   7.217   3.027   2.135
 5759TIP3    H217221   7.136   3.122   2.221
 5760TIP3   OH217222   3.808   7.244   0.306
 5760TIP3    H117223   3.733   7.298   0.284
 5760TIP3    H217224   3.804   7.170   0.245
 5761TIP3   OH217225   6.455   6.905   2.586
 5761TIP3    H117226   6.438   6.992   2.623
 5761TIP3    H217227   6.467   6.921   2.492
 5762TIP3   OH217228   4.026   2.348   2.458
 5762TIP3    H117229   3.984   2.264   2.473
 5762TIP3    H217230   3.961   2.398   2.408
 5763TIP3   OH217231   1.186   4.790   1.989
 5763TIP3    H117232   1.103   4.779   2.036
 5763TIP3    H217233   1.241   4.719   2.022
 5764TIP3   OH217234   4.135   3.140   3.234
 5764TIP3    H117235   4.048   3.114   3.266
 5764TIP3    H217236   4.124   3.143   3.139
 5765TIP3   OH217237   4.544   6.389   0.635
 5765TIP3    H117238   4.626   6.367   0.678
 5765TIP3    H217239   4.498   6.306   0.625
 5766TIP3   OH217240   8.017   0.810   2.561
 5766TIP3    H117241   8.047   0.773   2.643
 5766TIP3    H217242   8.097   0.833   2.513
 5767TIP3   OH217243   7.451   6.030   5.535
 5767TIP3    H117244   7.492   6.009   5.619
 5767TIP3    H217245   7.432   5.946   5.495
 5768TIP3   OH217246   3.109   6.967   1.109
 5768TIP3    H117247   3.139   7.047   1.151
 5768TIP3    H217248   3.100   6.989   1.016
 5769TIP3   OH217249   6.278   1.369   6.180
 5769TIP3    H117250   6.356   1.417   6.210
 5769TIP3    H217251   6.216   1.377   6.252
 5770TIP3   OH217252   7.582   1.189   5.291
 5770TIP3    H117253   7.672   1.218   5.273
 5770TIP3    H217254   7.551   1.154   5.207
 5771TIP3   OH217255   0.926   5.190   2.081
 5771TIP3    H117256   0.867   5.239   2.024
 5771TIP3    H217257   0.995   5.252   2.104
 5772TIP3   OH217258   2.352   2.686   5.516
 5772TIP3    H117259   2.385   2.745   5.583
 5772TIP3    H217260   2.298   2.622   5.564
 5773TIP3   OH217261   2.199   6.562   6.722
 5773TIP3    H117262   2.110   6.528   6.714
 5773TIP3    H217263   2.211   6.577   6.816
 5774TIP3   OH217264   4.929   0.171   1.977
 5774TIP3    H117265   4.879   0.181   2.058
 5774TIP3    H217266   5.011   0.217   1.994
 5775TIP3   OH217267   3.727   5.674   5.531
 5775TIP3    H117268   3.706   5.587   5.498
 5775TIP3    H217269   3.774   5.716   5.459
 5776TIP3   OH217270   7.177   5.509   3.304
 5776TIP3    H117271   7.266   5.481   3.326
 5776TIP3    H217272   7.122   5.434   3.327
 5777TIP3   OH217273   4.900   6.568   3.431
 5777TIP3    H117274   4.868   6.478   3.439
 5777TIP3    H217275   4.831   6.613   3.381
 5778TIP3   OH217276   6.722   2.977   5.737
 5778TIP3    H117277   6.714   3.044   5.669
 5778TIP3    H217278   6.738   3.027   5.817
 5779TIP3   OH217279   5.261   0.866   4.274
 5779TIP3    H117280   5.330   0.829   4.219
 5779TIP3    H217281   5.180   0.830   4.238
 5780TIP3   OH217282   4.201   3.248   4.643
 5780TIP3    H117283   4.164   3.161   4.657
 5780TIP3    H217284   4.155   3.281   4.565
 5781TIP3   OH217285   4.983   1.542   1.638
 5781TIP3    H117286   4.917   1.610   1.630
 5781TIP3    H217287   5.063   1.589   1.663
 5782TIP3   OH217288   1.701   2.195   5.629
 5782TIP3    H117289   1.649   2.265   5.589
 5782TIP3    H217290   1.665   2.114   5.593
 5783TIP3   OH217291   1.512   3.220   4.485
 5783TIP3    H117292   1.546   3.276   4.555
 5783TIP3    H217293   1.431   3.262   4.458
 5784TIP3   OH217294   2.151  -0.016   0.075
 5784TIP3    H117295   2.068   0.031   0.087
 5784TIP3    H217296   2.209   0.049   0.036
 5785TIP3   OH217297   2.585   2.018   1.430
 5785TIP3    H117298   2.492   2.020   1.452
 5785TIP3    H217299   2.598   1.933   1.388
 5786TIP3   OH217300   7.183   4.935   5.255
 5786TIP3    H117301   7.163   4.852   5.211
 5786TIP3    H217302   7.115   4.944   5.322
 5787TIP3   OH217303   4.317   0.769   5.909
 5787TIP3    H117304   4.254   0.782   5.838
 5787TIP3    H217305   4.390   0.827   5.888
 5788TIP3   OH217306   2.460   3.292   5.655
 5788TIP3    H117307   2.397   3.359   5.627
 5788TIP3    H217308   2.423   3.257   5.736
 5789TIP3   OH217309   8.105   0.227   3.767
 5789TIP3    H117310   8.159   0.148   3.768
 5789TIP3    H217311   8.137   0.280   3.840
 5790TIP3   OH217312   5.428   6.450   3.346
 5790TIP3    H117313   5.493   6.380   3.345
 5790TIP3    H217314   5.458   6.509   3.415
 5791TIP3   OH217315   1.359   4.849   4.924
 5791TIP3    H117316   1.426   4.880   4.863
 5791TIP3    H217317   1.404   4.784   4.978
 5792TIP3   OH217318   0.572   2.484   5.268
 5792TIP3    H117319   0.540   2.516   5.352
 5792TIP3    H217320   0.666   2.472   5.281
 5793TIP3   OH217321   3.963   3.157   0.153
 5793TIP3    H117322   4.007   3.131   0.234
 5793TIP3    H217323   3.973   3.252   0.149
 5794TIP3   OH217324   1.796   2.437   1.452
 5794TIP3    H117325   1.833   2.350   1.443
 5794TIP3    H217326   1.848   2.479   1.520
 5795TIP3   OH217327   1.614   0.420   6.240
 5795TIP3    H117328   1.670   0.361   6.189
 5795TIP3    H217329   1.554   0.458   6.176
 5796TIP3   OH217330   2.245   0.094   3.093
 5796TIP3    H117331   2.340   0.096   3.103
 5796TIP3    H217332   2.211   0.132   3.174
 5797TIP3   OH217333   7.752   0.513   6.686
 5797TIP3    H117334   7.773   0.520   6.593
 5797TIP3    H217335   7.780   0.425   6.710
 5798TIP3   OH217336   3.866   0.597   6.111
 5798TIP3    H117337   3.923   0.607   6.034
 5798TIP3    H217338   3.872   0.504   6.133
 5799TIP3   OH217339   6.507   5.211   5.853
 5799TIP3    H117340   6.502   5.274   5.926
 5799TIP3    H217341   6.509   5.266   5.775
 5800TIP3   OH217342   3.058   6.763   2.519
 5800TIP3    H117343   3.100   6.721   2.445
 5800TIP3    H217344   2.998   6.697   2.554
 5801TIP3   OH217345   2.290   0.211   1.793
 5801TIP3    H117346   2.318   0.299   1.769
 5801TIP3    H217347   2.209   0.198   1.744
 5802TIP3   OH217348   5.722   7.346   0.166
 5802TIP3    H117349   5.796   7.289   0.185
 5802TIP3    H217350   5.661   7.290   0.117
 5803TIP3   OH217351   7.082   6.943   6.765
 5803TIP3    H117352   7.137   6.995   6.705
 5803TIP3    H217353   7.057   6.866   6.713
 5804TIP3   OH217354   5.613   5.436   3.403
 5804TIP3    H117355   5.576   5.501   3.462
 5804TIP3    H217356   5.643   5.366   3.461
 5805TIP3   OH217357   5.649   7.151   3.973
 5805TIP3    H117358   5.669   7.078   3.914
 5805TIP3    H217359   5.686   7.125   4.057
 5806TIP3   OH217360   3.141   7.001   3.237
 5806TIP3    H117361   3.178   7.048   3.312
 5806TIP3    H217362   3.215   6.992   3.177
 5807TIP3   OH217363   3.141   7.007   1.709
 5807TIP3    H117364   3.235   6.990   1.708
 5807TIP3    H217365   3.123   7.040   1.798
 5808TIP3   OH217366   6.071   7.189   0.563
 5808TIP3    H117367   6.018   7.118   0.526
 5808TIP3    H217368   6.088   7.162   0.654
 5809TIP3   OH217369   5.293   5.052   6.159
 5809TIP3    H117370   5.270   5.024   6.070
 5809TIP3    H217371   5.350   5.128   6.146
 5810TIP3   OH217372   3.044   6.791   2.068
 5810TIP3    H117373   2.996   6.790   2.151
 5810TIP3    H217374   3.030   6.879   2.033
 5811TIP3   OH217375   6.216   2.394   5.172
 5811TIP3    H117376   6.207   2.490   5.172
 5811TIP3    H217377   6.295   2.377   5.222
 5812TIP3   OH217378   0.993   1.582   5.981
 5812TIP3    H117379   0.931   1.641   6.024
 5812TIP3    H217380   0.981   1.598   5.887
 5813TIP3   OH217381   2.429   1.918   1.121
 5813TIP3    H117382   2.334   1.906   1.117
 5813TIP3    H217383   2.461   1.843   1.171
 5814TIP3   OH217384   5.836   5.663   3.550
 5814TIP3    H117385   5.752   5.693   3.514
 5814TIP3    H217386   5.890   5.646   3.473
 5815TIP3   OH217387   6.585   3.414   0.298
 5815TIP3    H117388   6.568   3.503   0.268
 5815TIP3    H217389   6.659   3.423   0.358
 5816TIP3   OH217390   4.885   0.188   6.760
 5816TIP3    H117391   4.838   0.107   6.740
 5816TIP3    H217392   4.967   0.181   6.712
 5817TIP3   OH217393   6.812   4.956   4.760
 5817TIP3    H117394   6.837   4.910   4.841
 5817TIP3    H217395   6.894   4.971   4.715
 5818TIP3   OH217396   3.473   4.854   0.253
 5818TIP3    H117397   3.478   4.851   0.349
 5818TIP3    H217398   3.437   4.940   0.234
 5819TIP3   OH217399   1.841   5.717   3.705
 5819TIP3    H117400   1.764   5.703   3.759
 5819TIP3    H217401   1.869   5.629   3.679
 5820TIP3   OH217402   3.700   3.247   0.499
 5820TIP3    H117403   3.641   3.205   0.563
 5820TIP3    H217404   3.673   3.211   0.415
 5821TIP3   OH217405   6.633   1.807   5.231
 5821TIP3    H117406   6.611   1.806   5.138
 5821TIP3    H217407   6.709   1.865   5.237
 5822TIP3   OH217408   0.254   2.139   6.168
 5822TIP3    H117409   0.297   2.110   6.087
 5822TIP3    H217410   0.321   2.189   6.214
 5823TIP3   OH217411   2.459   7.083   2.298
 5823TIP3    H117412   2.487   6.995   2.323
 5823TIP3    H217413   2.447   7.129   2.381
 5824TIP3   OH217414   0.491   5.717   5.083
 5824TIP3    H117415   0.483   5.810   5.104
 5824TIP3    H217416   0.499   5.674   5.168
 5825TIP3   OH217417   4.356   2.882   1.721
 5825TIP3    H117418   4.439   2.840   1.702
 5825TIP3    H217419   4.295   2.810   1.738
 5826TIP3   OH217420   0.221   0.761   2.847
 5826TIP3    H117421   0.238   0.834   2.906
 5826TIP3    H217422   0.133   0.776   2.814
 5827TIP3   OH217423   5.891   2.657   1.715
 5827TIP3    H117424   5.887   2.738   1.766
 5827TIP3    H217425   5.967   2.667   1.659
 5828TIP3   OH217426   2.263   1.491   2.313
 5828TIP3    H117427   2.274   1.413   2.367
 5828TIP3    H217428   2.297   1.563   2.366
 5829TIP3   OH217429   2.641   4.502   4.343
 5829TIP3    H117430   2.706   4.434   4.361
 5829TIP3    H217431   2.621   4.539   4.429
 5830TIP3   OH217432   5.985   6.247   2.745
 5830TIP3    H117433   6.051   6.302   2.787
 5830TIP3    H217434   6.019   6.158   2.754
 5831TIP3   OH217435   5.309   2.465   0.555
 5831TIP3    H117436   5.277   2.390   0.506
 5831TIP3    H217437   5.374   2.505   0.498
 5832TIP3   OH217438   7.927   4.094   5.304
 5832TIP3    H117439   7.911   4.042   5.226
 5832TIP3    H217440   8.012   4.136   5.287
 5833TIP3   OH217441   5.365   5.477   4.158
 5833TIP3    H117442   5.458   5.452   4.157
 5833TIP3    H217443   5.321   5.405   4.204
 5834TIP3   OH217444   6.991   4.492   6.453
 5834TIP3    H117445   6.943   4.468   6.532
 5834TIP3    H217446   7.050   4.563   6.481
 5835TIP3   OH217447   6.620   5.874   3.996
 5835TIP3    H117448   6.630   5.961   3.958
 5835TIP3    H217449   6.598   5.818   3.921
 5836TIP3   OH217450   6.779   6.133   2.997
 5836TIP3    H117451   6.802   6.040   2.998
 5836TIP3    H217452   6.746   6.148   2.908
 5837TIP3   OH217453   2.576   1.126   2.818
 5837TIP3    H117454   2.646   1.060   2.819
 5837TIP3    H217455   2.539   1.123   2.906
 5838TIP3   OH217456   3.281   1.722   3.617
 5838TIP3    H117457   3.302   1.727   3.710
 5838TIP3    H217458   3.218   1.651   3.610
 5839TIP3   OH217459   3.572   5.831   2.202
 5839TIP3    H117460   3.613   5.849   2.287
 5839TIP3    H217461   3.641   5.848   2.138
 5840TIP3   OH217462   7.085   6.576   4.855
 5840TIP3    H117463   7.011   6.516   4.863
 5840TIP3    H217464   7.162   6.521   4.865
 5841TIP3   OH217465   8.113   1.716   4.129
 5841TIP3    H117466   8.138   1.800   4.090
 5841TIP3    H217467   8.114   1.655   4.056
 5842TIP3   OH217468   1.211   0.035   6.600
 5842TIP3    H117469   1.218   0.065   6.509
 5842TIP3    H217470   1.238   0.111   6.652
 5843TIP3   OH217471   2.011   5.467   0.768
 5843TIP3    H117472   2.079   5.402   0.786
 5843TIP3    H217473   1.950   5.459   0.841
 5844TIP3   OH217474   0.588   5.886   1.229
 5844TIP3    H117475   0.598   5.833   1.308
 5844TIP3    H217476   0.540   5.829   1.169
 5845TIP3   OH217477   2.352   6.217   3.063
 5845TIP3    H117478   2.386   6.246   2.978
 5845TIP3    H217479   2.265   6.257   3.069
 5846TIP3   OH217480   1.003   5.828   5.388
 5846TIP3    H117481   0.944   5.756   5.408
 5846TIP3    H217482   1.007   5.879   5.470
 5847TIP3   OH217483   5.450   1.265   1.915
 5847TIP3    H117484   5.523   1.205   1.932
 5847TIP3    H217485   5.375   1.208   1.899
 5848TIP3   OH217486   1.720   6.287   3.334
 5848TIP3    H117487   1.706   6.370   3.379
 5848TIP3    H217488   1.814   6.270   3.343
 5849TIP3   OH217489   2.340   4.002   2.310
 5849TIP3    H117490   2.293   3.928   2.270
 5849TIP3    H217491   2.309   4.004   2.400
 5850TIP3   OH217492   6.732   0.490   0.212
 5850TIP3    H117493   6.818   0.506   0.250
 5850TIP3    H217494   6.746   0.420   0.149
 5851TIP3   OH217495   7.071   4.759   0.249
 5851TIP3    H117496   7.090   4.701   0.176
 5851TIP3    H217497   7.147   4.752   0.307
 5852TIP3   OH217498   2.924   5.017   3.834
 5852TIP3    H117499   2.868   4.953   3.790
 5852TIP3    H217500   2.936   4.982   3.923
 5853TIP3   OH217501   7.783   6.729   2.264
 5853TIP3    H117502   7.841   6.691   2.330
 5853TIP3    H217503   7.695   6.719   2.302
 5854TIP3   OH217504   8.091   5.998   5.441
 5854TIP3    H117505   8.179   6.028   5.417
 5854TIP3    H217506   8.101   5.904   5.457
 5855TIP3   OH217507   4.873   1.272   2.732
 5855TIP3    H117508   4.787   1.279   2.773
 5855TIP3    H217509   4.854   1.267   2.639
 5856TIP3   OH217510   5.934   0.482   1.344
 5856TIP3    H117511   5.993   0.467   1.270
 5856TIP3    H217512   5.990   0.516   1.413
 5857TIP3   OH217513   1.781   4.481   0.368
 5857TIP3    H117514   1.843   4.411   0.388
 5857TIP3    H217515   1.729   4.447   0.296
 5858TIP3   OH217516   8.147   0.851   3.658
 5858TIP3    H117517   8.210   0.869   3.588
 5858TIP3    H217518   8.171   0.911   3.728
 5859TIP3   OH217519   6.454   6.963   6.043
 5859TIP3    H117520   6.464   7.048   6.084
 5859TIP3    H217521   6.389   6.917   6.096
 5860TIP3   OH217522   5.943   7.814   0.825
 5860TIP3    H117523   5.978   7.730   0.854
 5860TIP3    H217524   5.957   7.873   0.899
 5861TIP3   OH217525   6.004   6.247   4.211
 5861TIP3    H117526   5.949   6.315   4.173
 5861TIP3    H217527   6.029   6.281   4.297
 5862TIP3   OH217528   5.432   0.365   5.774
 5862TIP3    H117529   5.453   0.457   5.761
 5862TIP3    H217530   5.444   0.350   5.867
 5863TIP3   OH217531   4.090   5.101   3.172
 5863TIP3    H117532   4.160   5.108   3.237
 5863TIP3    H217533   4.111   5.021   3.124
 5864TIP3   OH217534   1.898   5.692   1.337
 5864TIP3    H117535   1.880   5.598   1.344
 5864TIP3    H217536   1.916   5.705   1.244
 5865TIP3   OH217537   2.119   4.780   0.525
 5865TIP3    H117538   2.126   4.869   0.559
 5865TIP3    H217539   2.089   4.790   0.435
 5866TIP3   OH217540   7.564   3.952   4.514
 5866TIP3    H117541   7.622   3.882   4.543
 5866TIP3    H217542   7.520   3.981   4.594
 5867TIP3   OH217543   6.976   6.252   2.103
 5867TIP3    H117544   6.948   6.161   2.092
 5867TIP3    H217545   7.011   6.256   2.192
 5868TIP3   OH217546   7.016   7.254   0.136
 5868TIP3    H117547   7.008   7.349   0.121
 5868TIP3    H217548   7.094   7.246   0.191
 5869TIP3   OH217549   1.688   3.920   0.741
 5869TIP3    H117550   1.702   3.952   0.830
 5869TIP3    H217551   1.689   4.000   0.687
 5870TIP3   OH217552   3.562   4.794   5.684
 5870TIP3    H117553   3.642   4.777   5.635
 5870TIP3    H217554   3.548   4.716   5.736
 5871TIP3   OH217555   5.217   3.649   3.919
 5871TIP3    H117556   5.142   3.646   3.977
 5871TIP3    H217557   5.192   3.596   3.844
 5872TIP3   OH217558   7.056   2.825   1.674
 5872TIP3    H117559   7.064   2.918   1.696
 5872TIP3    H217560   7.123   2.782   1.728
 5873TIP3   OH217561   4.942   5.927   1.603
 5873TIP3    H117562   4.955   5.996   1.538
 5873TIP3    H217563   5.030   5.909   1.636
 5874TIP3   OH217564   5.814   0.406   3.222
 5874TIP3    H117565   5.828   0.364   3.137
 5874TIP3    H217566   5.800   0.498   3.200
 5875TIP3   OH217567   3.022   3.121   1.379
 5875TIP3    H117568   3.060   3.202   1.346
 5875TIP3    H217569   2.927   3.133   1.370
 5876TIP3   OH217570   1.785   4.585   5.450
 5876TIP3    H117571   1.876   4.590   5.480
 5876TIP3    H217572   1.770   4.669   5.407
 5877TIP3   OH217573   5.837   1.684   6.157
 5877TIP3    H117574   5.813   1.603   6.112
 5877TIP3    H217575   5.765   1.744   6.136
 5878TIP3   OH217576   1.199   1.985   5.357
 5878TIP3    H117577   1.172   2.076   5.343
 5878TIP3    H217578   1.185   1.943   5.272
 5879TIP3   OH217579   8.169   5.610   5.693
 5879TIP3    H117580   8.149   5.665   5.769
 5879TIP3    H217581   8.261   5.586   5.704
 5880TIP3   OH217582   0.808   7.788   6.496
 5880TIP3    H117583   0.731   7.842   6.513
 5880TIP3    H217584   0.853   7.832   6.424
 5881TIP3   OH217585   4.992   7.341   5.406
 5881TIP3    H117586   5.033   7.258   5.432
 5881TIP3    H217587   4.943   7.319   5.327
 5882TIP3   OH217588   0.861   4.884   1.116
 5882TIP3    H117589   0.839   4.791   1.117
 5882TIP3    H217590   0.808   4.922   1.185
 5883TIP3   OH217591   0.338   3.019   5.481
 5883TIP3    H117592   0.375   3.036   5.568
 5883TIP3    H217593   0.304   3.104   5.453
 5884TIP3   OH217594   1.987   3.782   3.340
 5884TIP3    H117595   2.010   3.710   3.281
 5884TIP3    H217596   2.046   3.853   3.316
 5885TIP3   OH217597   4.568   3.086   2.246
 5885TIP3    H117598   4.547   3.124   2.332
 5885TIP3    H217599   4.484   3.072   2.204
 5886TIP3   OH217600   4.906   6.591   1.773
 5886TIP3    H117601   4.847   6.547   1.834
 5886TIP3    H217602   4.887   6.552   1.688
 5887TIP3   OH217603   5.984   7.567   2.224
 5887TIP3    H117604   5.955   7.557   2.314
 5887TIP3    H217605   5.968   7.660   2.204
 5888TIP3   OH217606   0.736   6.222   2.549
 5888TIP3    H117607   0.723   6.310   2.585
 5888TIP3    H217608   0.652   6.200   2.509
 5889TIP3   OH217609   4.317   7.350   2.401
 5889TIP3    H117610   4.241   7.316   2.354
 5889TIP3    H217611   4.318   7.303   2.484
 5890TIP3   OH217612   1.636   0.321   0.429
 5890TIP3    H117613   1.709   0.267   0.398
 5890TIP3    H217614   1.624   0.293   0.520
 5891TIP3   OH217615   0.470   4.449   1.989
 5891TIP3    H117616   0.508   4.390   1.923
 5891TIP3    H217617   0.509   4.421   2.071
 5892TIP3   OH217618   5.315   2.841   0.561
 5892TIP3    H117619   5.264   2.905   0.611
 5892TIP3    H217620   5.249   2.788   0.516
 5893TIP3   OH217621   6.845   1.733   6.456
 5893TIP3    H117622   6.757   1.766   6.473
 5893TIP3    H217623   6.889   1.738   6.541
 5894TIP3   OH217624   6.204   4.687   6.691
 5894TIP3    H117625   6.259   4.750   6.736
 5894TIP3    H217626   6.167   4.736   6.617
 5895TIP3   OH217627   2.217   0.236   5.986
 5895TIP3    H117628   2.248   0.249   6.075
 5895TIP3    H217629   2.214   0.141   5.975
 5896TIP3   OH217630   3.272   3.011   1.400
 5896TIP3    H117631   3.190   3.049   1.432
 5896TIP3    H217632   3.295   3.065   1.324
 5897TIP3   OH217633   0.618   5.023   6.469
 5897TIP3    H117634   0.578   5.096   6.422
 5897TIP3    H217635   0.547   4.987   6.522
 5898TIP3   OH217636   0.820   2.214   5.779
 5898TIP3    H117637   0.848   2.138   5.728
 5898TIP3    H217638   0.850   2.196   5.868
 5899TIP3   OH217639   7.082   3.964   0.659
 5899TIP3    H117640   7.077   3.897   0.727
 5899TIP3    H217641   6.999   4.013   0.668
 5900TIP3   OH217642   1.819   5.358   4.775
 5900TIP3    H117643   1.881   5.334   4.844
 5900TIP3    H217644   1.741   5.305   4.793
 5901TIP3   OH217645   7.708   3.508   3.144
 5901TIP3    H117646   7.800   3.520   3.166
 5901TIP3    H217647   7.661   3.541   3.221
 5902TIP3   OH217648   4.726   5.463   0.883
 5902TIP3    H117649   4.637   5.493   0.901
 5902TIP3    H217650   4.732   5.379   0.928
 5903TIP3   OH217651   0.259   5.830   6.284
 5903TIP3    H117652   0.205   5.908   6.291
 5903TIP3    H217653   0.346   5.863   6.263
 5904TIP3   OH217654   0.963   1.145   5.945
 5904TIP3    H117655   0.892   1.126   5.883
 5904TIP3    H217656   1.041   1.150   5.890
 5905TIP3   OH217657   4.285   4.926   2.482
 5905TIP3    H117658   4.229   4.993   2.442
 5905TIP3    H217659   4.224   4.864   2.522
 5906TIP3   OH217660   6.694   3.825   3.854
 5906TIP3    H117661   6.725   3.743   3.893
 5906TIP3    H217662   6.671   3.802   3.764
 5907TIP3   OH217663   1.570   6.236   4.504
 5907TIP3    H117664   1.534   6.192   4.427
 5907TIP3    H217665   1.538   6.326   4.497
 5908TIP3   OH217666   3.822   2.927   4.944
 5908TIP3    H117667   3.875   2.871   4.887
 5908TIP3    H217668   3.776   2.986   4.884
 5909TIP3   OH217669   4.831   7.353   4.437
 5909TIP3    H117670   4.758   7.300   4.406
 5909TIP3    H217671   4.896   7.290   4.469
 5910TIP3   OH217672   2.701   3.718   2.650
 5910TIP3    H117673   2.739   3.737   2.735
 5910TIP3    H217674   2.667   3.802   2.618
 5911TIP3   OH217675   2.595   1.915   2.773
 5911TIP3    H117676   2.627   1.954   2.854
 5911TIP3    H217677   2.674   1.881   2.730
 5912TIP3   OH217678   3.086   7.785   4.178
 5912TIP3    H117679   3.176   7.814   4.166
 5912TIP3    H217680   3.072   7.722   4.108
 5913TIP3   OH217681   1.827   1.860   5.776
 5913TIP3    H117682   1.744   1.848   5.731
 5913TIP3    H217683   1.839   1.778   5.825
 5914TIP3   OH217684   6.150   1.777   0.868
 5914TIP3    H117685   6.224   1.769   0.807
 5914TIP3    H217686   6.080   1.726   0.828
 5915TIP3   OH217687   5.480   5.143   6.525
 5915TIP3    H117688   5.552   5.139   6.588
 5915TIP3    H217689   5.491   5.065   6.471
 5916TIP3   OH217690   4.829   6.789   1.525
 5916TIP3    H117691   4.919   6.800   1.554
 5916TIP3    H217692   4.835   6.730   1.449
 5917TIP3   OH217693   2.814   1.097   5.525
 5917TIP3    H117694   2.810   1.141   5.440
 5917TIP3    H217695   2.743   1.032   5.522
 5918TIP3   OH217696   2.096   5.101   4.153
 5918TIP3    H117697   2.112   5.046   4.077
 5918TIP3    H217698   2.029   5.163   4.124
 5919TIP3   OH217699   4.382   5.471   5.573
 5919TIP3    H117700   4.458   5.526   5.589
 5919TIP3    H217701   4.326   5.524   5.516
 5920TIP3   OH217702   6.373   6.955   4.981
 5920TIP3    H117703   6.392   7.032   4.926
 5920TIP3    H217704   6.294   6.918   4.943
 5921TIP3   OH217705   6.898   0.330   1.260
 5921TIP3    H117706   6.820   0.353   1.210
 5921TIP3    H217707   6.955   0.406   1.253
 5922TIP3   OH217708   1.910   3.958   1.024
 5922TIP3    H117709   1.870   4.023   1.082
 5922TIP3    H217710   1.980   4.006   0.979
 5923TIP3   OH217711   1.370   6.543   5.107
 5923TIP3    H117712   1.370   6.492   5.025
 5923TIP3    H217713   1.428   6.494   5.165
 5924TIP3   OH217714   3.662   1.034   5.761
 5924TIP3    H117715   3.737   1.045   5.703
 5924TIP3    H217716   3.604   0.974   5.715
 5925TIP3   OH217717   6.928   7.115   5.736
 5925TIP3    H117718   6.851   7.145   5.785
 5925TIP3    H217719   6.901   7.121   5.644
 5926TIP3   OH217720   4.769   3.865   4.586
 5926TIP3    H117721   4.804   3.779   4.565
 5926TIP3    H217722   4.779   3.873   4.681
 5927TIP3   OH217723   6.134   0.211   1.509
 5927TIP3    H117724   6.152   0.147   1.578
 5927TIP3    H217725   6.066   0.267   1.545
 5928TIP3   OH217726   0.171   6.294   6.726
 5928TIP3    H117727   0.166   6.273   6.632
 5928TIP3    H217728   0.203   6.385   6.728
 5929TIP3   OH217729   6.920   1.271   3.918
 5929TIP3    H117730   6.890   1.181   3.933
 5929TIP3    H217731   6.959   1.269   3.830
 5930TIP3   OH217732   5.978   3.718   3.872
 5930TIP3    H117733   6.030   3.789   3.910
 5930TIP3    H217734   5.960   3.659   3.945
 5931TIP3   OH217735   4.800   6.998   5.616
 5931TIP3    H117736   4.822   6.940   5.543
 5931TIP3    H217737   4.884   7.016   5.659
 5932TIP3   OH217738   5.416   2.341   6.118
 5932TIP3    H117739   5.410   2.358   6.212
 5932TIP3    H217740   5.327   2.355   6.085
 5933TIP3   OH217741   4.912   4.065   0.889
 5933TIP3    H117742   4.919   4.042   0.982
 5933TIP3    H217743   4.979   4.132   0.877
 5934TIP3   OH217744   6.666   6.329   6.058
 5934TIP3    H117745   6.743   6.282   6.090
 5934TIP3    H217746   6.636   6.277   5.983
 5935TIP3   OH217747   7.742   6.432   2.556
 5935TIP3    H117748   7.691   6.509   2.530
 5935TIP3    H217749   7.803   6.419   2.484
 5936TIP3   OH217750   6.100   1.119   0.643
 5936TIP3    H117751   6.159   1.045   0.633
 5936TIP3    H217752   6.082   1.123   0.737
 5937TIP3   OH217753   1.569   6.245   5.756
 5937TIP3    H117754   1.542   6.205   5.674
 5937TIP3    H217755   1.635   6.186   5.792
 5938TIP3   OH217756   0.050   4.369   1.021
 5938TIP3    H117757   0.002   4.373   0.938
 5938TIP3    H217758   0.121   4.432   1.011
 5939TIP3   OH217759   7.574   4.594   2.433
 5939TIP3    H117760   7.550   4.552   2.515
 5939TIP3    H217761   7.569   4.688   2.452
 5940TIP3   OH217762   7.556   0.787   0.556
 5940TIP3    H117763   7.647   0.815   0.558
 5940TIP3    H217764   7.559   0.694   0.577
 5941TIP3   OH217765   3.538   6.330   0.938
 5941TIP3    H117766   3.500   6.405   0.892
 5941TIP3    H217767   3.627   6.322   0.903
 5942TIP3   OH217768   4.165   4.898   4.653
 5942TIP3    H117769   4.130   4.921   4.567
 5942TIP3    H217770   4.252   4.863   4.634
 5943TIP3   OH217771   1.740   0.924   4.640
 5943TIP3    H117772   1.658   0.974   4.641
 5943TIP3    H217773   1.800   0.976   4.694
 5944TIP3   OH217774   7.297   2.464   3.908
 5944TIP3    H117775   7.322   2.429   3.823
 5944TIP3    H217776   7.222   2.410   3.935
 5945TIP3   OH217777   3.647   6.542   3.971
 5945TIP3    H117778   3.617   6.609   3.909
 5945TIP3    H217779   3.717   6.584   4.020
 5946TIP3   OH217780   6.547   7.525   2.042
 5946TIP3    H117781   6.585   7.491   2.123
 5946TIP3    H217782   6.564   7.619   2.044
 5947TIP3   OH217783   5.185   2.080   4.648
 5947TIP3    H117784   5.218   2.161   4.609
 5947TIP3    H217785   5.139   2.036   4.577
 5948TIP3   OH217786   7.282   3.057   5.551
 5948TIP3    H117787   7.329   3.059   5.634
 5948TIP3    H217788   7.291   3.146   5.516
 5949TIP3   OH217789   7.680   3.546   5.498
 5949TIP3    H117790   7.633   3.483   5.552
 5949TIP3    H217791   7.718   3.493   5.427
 5950TIP3   OH217792   0.288   5.906   0.241
 5950TIP3    H117793   0.199   5.897   0.207
 5950TIP3    H217794   0.339   5.844   0.190
 5951TIP3   OH217795   5.714   5.051   3.169
 5951TIP3    H117796   5.790   5.018   3.121
 5951TIP3    H217797   5.732   5.144   3.183
 5952TIP3   OH217798   7.708   4.034   5.970
 5952TIP3    H117799   7.788   4.024   6.022
 5952TIP3    H217800   7.733   4.005   5.882
 5953TIP3   OH217801   7.968   7.663   3.688
 5953TIP3    H117802   7.997   7.695   3.773
 5953TIP3    H217803   7.944   7.572   3.704
 5954TIP3   OH217804   7.672   3.588   4.523
 5954TIP3    H117805   7.622   3.571   4.444
 5954TIP3    H217806   7.725   3.509   4.535
 5955TIP3   OH217807   1.784   4.775   4.918
 5955TIP3    H117808   1.751   4.770   4.828
 5955TIP3    H217809   1.780   4.684   4.950
 5956TIP3   OH217810   6.137   2.925   5.329
 5956TIP3    H117811   6.232   2.924   5.320
 5956TIP3    H217812   6.110   2.835   5.313
 5957TIP3   OH217813   1.399   1.295   3.701
 5957TIP3    H117814   1.412   1.227   3.766
 5957TIP3    H217815   1.466   1.361   3.721
 5958TIP3   OH217816   6.918   3.432   1.992
 5958TIP3    H117817   6.982   3.418   2.063
 5958TIP3    H217818   6.864   3.504   2.024
 5959TIP3   OH217819   7.794   0.708   5.458
 5959TIP3    H117820   7.884   0.676   5.465
 5959TIP3    H217821   7.740   0.631   5.473
 5960TIP3   OH217822   3.832   5.576   0.832
 5960TIP3    H117823   3.849   5.483   0.844
 5960TIP3    H217824   3.920   5.616   0.830
 5961TIP3   OH217825   5.859   1.072   0.223
 5961TIP3    H117826   5.823   1.103   0.305
 5961TIP3    H217827   5.877   1.151   0.172
 5962TIP3   OH217828   6.487   7.627   4.916
 5962TIP3    H117829   6.543   7.557   4.951
 5962TIP3    H217830   6.521   7.707   4.957
 5963TIP3   OH217831   3.544   7.160   1.618
 5963TIP3    H117832   3.519   7.097   1.686
 5963TIP3    H217833   3.623   7.123   1.579
 5964TIP3   OH217834   1.750   5.714   2.909
 5964TIP3    H117835   1.845   5.716   2.922
 5964TIP3    H217836   1.716   5.663   2.983
 5965TIP3   OH217837   5.376   4.749   3.539
 5965TIP3    H117838   5.468   4.769   3.555
 5965TIP3    H217839   5.357   4.787   3.453
 5966TIP3   OH217840   1.358   5.327   4.715
 5966TIP3    H117841   1.340   5.404   4.767
 5966TIP3    H217842   1.317   5.345   4.630
 5967TIP3   OH217843   5.146   1.982   0.451
 5967TIP3    H117844   5.238   2.000   0.472
 5967TIP3    H217845   5.107   1.960   0.536
 5968TIP3   OH217846   0.742   4.853   4.304
 5968TIP3    H117847   0.766   4.796   4.230
 5968TIP3    H217848   0.688   4.797   4.360
 5969TIP3   OH217849   1.930   7.473   3.066
 5969TIP3    H117850   1.938   7.568   3.069
 5969TIP3    H217851   1.948   7.450   2.974
 5970TIP3   OH217852   6.972   2.435   1.964
 5970TIP3    H117853   7.048   2.460   2.016
 5970TIP3    H217854   6.995   2.351   1.925
 5971TIP3   OH217855   3.911   5.055   1.984
 5971TIP3    H117856   3.861   5.024   2.060
 5971TIP3    H217857   3.964   4.979   1.959
 5972TIP3   OH217858   4.120   0.814   4.005
 5972TIP3    H117859   4.081   0.876   3.944
 5972TIP3    H217860   4.197   0.859   4.040
 5973TIP3   OH217861   5.029   7.191   2.955
 5973TIP3    H117862   5.095   7.249   2.992
 5973TIP3    H217863   5.048   7.189   2.861
 5974TIP3   OH217864   0.931   1.363   0.773
 5974TIP3    H117865   0.952   1.376   0.681
 5974TIP3    H217866   0.887   1.279   0.776
 5975TIP3   OH217867   0.528   5.252   6.317
 5975TIP3    H117868   0.569   5.318   6.262
 5975TIP3    H217869   0.483   5.302   6.386
 5976TIP3   OH217870   2.267   6.742   2.180
 5976TIP3    H117871   2.342   6.771   2.128
 5976TIP3    H217872   2.199   6.807   2.163
 5977TIP3   OH217873   7.827   4.700   5.087
 5977TIP3    H117874   7.862   4.787   5.104
 5977TIP3    H217875   7.772   4.710   5.010
 5978TIP3   OH217876   6.684   6.553   4.919
 5978TIP3    H117877   6.675   6.594   5.005
 5978TIP3    H217878   6.653   6.620   4.857
 5979TIP3   OH217879   4.581   1.862   6.108
 5979TIP3    H117880   4.672   1.880   6.129
 5979TIP3    H217881   4.556   1.930   6.046
 5980TIP3   OH217882   1.641   6.128   0.958
 5980TIP3    H117883   1.552   6.129   0.994
 5980TIP3    H217884   1.653   6.038   0.926
 5981TIP3   OH217885   3.302   5.943   3.889
 5981TIP3    H117886   3.255   5.905   3.963
 5981TIP3    H217887   3.393   5.944   3.916
 5982TIP3   OH217888   7.841   0.022   0.459
 5982TIP3    H117889   7.891   0.050   0.383
 5982TIP3    H217890   7.828  -0.072   0.445
 5983TIP3   OH217891   0.682   4.142   0.925
 5983TIP3    H117892   0.721   4.121   0.840
 5983TIP3    H217893   0.733   4.216   0.957
 5984TIP3   OH217894   0.956   6.559   3.009
 5984TIP3    H117895   0.873   6.512   3.013
 5984TIP3    H217896   1.020   6.493   2.983
 5985TIP3   OH217897   4.246   5.645   5.380
 5985TIP3    H117898   4.323   5.690   5.348
 5985TIP3    H217899   4.179   5.713   5.387
 5986TIP3   OH217900   0.626   6.547   5.870
 5986TIP3    H117901   0.661   6.600   5.799
 5986TIP3    H217902   0.695   6.482   5.887
 5987TIP3   OH217903   3.458   2.774   0.506
 5987TIP3    H117904   3.420   2.838   0.565
 5987TIP3    H217905   3.551   2.773   0.527
 5988TIP3   OH217906   4.793   3.900   2.065
 5988TIP3    H117907   4.703   3.930   2.083
 5988TIP3    H217908   4.801   3.818   2.114
 5989TIP3   OH217909   1.918   7.119   4.358
 5989TIP3    H117910   2.013   7.118   4.361
 5989TIP3    H217911   1.897   7.157   4.272
 5990TIP3   OH217912   6.504   4.590   3.028
 5990TIP3    H117913   6.537   4.668   3.073
 5990TIP3    H217914   6.581   4.538   3.009
 5991TIP3   OH217915   5.415   6.120   2.470
 5991TIP3    H117916   5.329   6.081   2.458
 5991TIP3    H217917   5.425   6.180   2.395
 5992TIP3   OH217918   1.665   2.041   1.377
 5992TIP3    H117919   1.619   2.109   1.427
 5992TIP3    H217920   1.740   2.086   1.339
 5993TIP3   OH217921   3.001   6.651   4.532
 5993TIP3    H117922   2.961   6.603   4.460
 5993TIP3    H217923   2.940   6.723   4.550
 5994TIP3   OH217924   0.118   5.117   2.575
 5994TIP3    H117925   0.142   5.192   2.520
 5994TIP3    H217926   0.163   5.132   2.657
 5995TIP3   OH217927   0.282   0.317   5.875
 5995TIP3    H117928   0.298   0.400   5.829
 5995TIP3    H217929   0.369   0.279   5.886
 5996TIP3   OH217930   1.686   3.434   5.572
 5996TIP3    H117931   1.762   3.391   5.532
 5996TIP3    H217932   1.724   3.500   5.630
 5997TIP3   OH217933   6.938   5.137   1.921
 5997TIP3    H117934   6.921   5.223   1.884
 5997TIP3    H217935   7.022   5.110   1.884
 5998TIP3   OH217936   7.807   1.210   5.831
 5998TIP3    H117937   7.741   1.201   5.762
 5998TIP3    H217938   7.797   1.300   5.862
 5999TIP3   OH217939   7.997   6.781   2.608
 5999TIP3    H117940   7.934   6.777   2.679
 5999TIP3    H217941   8.069   6.833   2.642
 6000TIP3   OH217942   8.191   7.708   4.322
 6000TIP3    H117943   8.173   7.745   4.409
 6000TIP3    H217944   8.238   7.777   4.275
 6001TIP3   OH217945   4.923   4.745   3.581
 6001TIP3    H117946   4.982   4.670   3.580
 6001TIP3    H217947   4.969   4.811   3.632
 6002TIP3   OH217948   4.007   5.167   1.263
 6002TIP3    H117949   4.015   5.257   1.230
 6002TIP3    H217950   4.076   5.159   1.328
 6003TIP3   OH217951   5.839   4.563   4.357
 6003TIP3    H117952   5.756   4.537   4.397
 6003TIP3    H217953   5.855   4.652   4.388
 6004TIP3   OH217954   8.272   5.214   1.772
 6004TIP3    H117955   8.252   5.120   1.769
 6004TIP3    H217956   8.187   5.257   1.767
 6005TIP3   OH217957   6.853   6.040   0.319
 6005TIP3    H117958   6.858   6.133   0.340
 6005TIP3    H217959   6.783   6.007   0.375
 6006TIP3   OH217960   3.544   1.310   1.731
 6006TIP3    H117961   3.619   1.335   1.784
 6006TIP3    H217962   3.477   1.282   1.794
 6007TIP3   OH217963   6.083   1.052   6.114
 6007TIP3    H117964   6.067   1.146   6.103
 6007TIP3    H217965   6.128   1.045   6.198
 6008TIP3   OH217966   7.160   4.060   6.160
 6008TIP3    H117967   7.130   4.150   6.174
 6008TIP3    H217968   7.110   4.030   6.084
 6009TIP3   OH217969   7.212   7.758   4.383
 6009TIP3    H117970   7.279   7.706   4.426
 6009TIP3    H217971   7.251   7.783   4.299
 6010TIP3   OH217972   0.880   7.253   5.831
 6010TIP3    H117973   0.848   7.178   5.882
 6010TIP3    H217974   0.959   7.281   5.877
 6011TIP3   OH217975   7.206   5.808   6.103
 6011TIP3    H117976   7.211   5.722   6.145
 6011TIP3    H217977   7.239   5.869   6.170
 6012TIP3   OH217978   0.263   5.971   6.578
 6012TIP3    H117979   0.238   5.999   6.490
 6012TIP3    H217980   0.358   5.963   6.575
 6013TIP3   OH217981   0.010   4.442   1.361
 6013TIP3    H117982   0.100   4.475   1.365
 6013TIP3    H217983   0.020   4.347   1.352
 6014TIP3   OH217984   5.384   5.804   0.088
 6014TIP3    H117985   5.470   5.814   0.128
 6014TIP3    H217986   5.385   5.717   0.050
 6015TIP3   OH217987   1.879   0.063   4.713
 6015TIP3    H117988   1.792   0.084   4.748
 6015TIP3    H217989   1.909   0.145   4.674
 6016TIP3   OH217990   2.603   3.073   5.538
 6016TIP3    H117991   2.633   3.013   5.607
 6016TIP3    H217992   2.533   3.124   5.579
 6017TIP3   OH217993   7.481   6.203   3.036
 6017TIP3    H117994   7.408   6.147   3.064
 6017TIP3    H217995   7.442   6.262   2.971
 6018TIP3   OH217996   7.327   6.743   6.613
 6018TIP3    H117997   7.332   6.787   6.698
 6018TIP3    H217998   7.234   6.743   6.591
 6019TIP3   OH217999   4.336   0.215   2.136
 6019TIP3    H118000   4.390   0.175   2.068
 6019TIP3    H218001   4.389   0.207   2.216
 6020TIP3   OH218002   6.994   1.758   4.495
 6020TIP3    H118003   7.008   1.780   4.403
 6020TIP3    H218004   7.040   1.675   4.507
 6021TIP3   OH218005   7.407   4.060   2.638
 6021TIP3    H118006   7.369   3.985   2.593
 6021TIP3    H218007   7.415   4.031   2.729
 6022TIP3   OH218008   6.670   7.800   1.991
 6022TIP3    H118009   6.653   7.778   1.900
 6022TIP3    H218010   6.764   7.788   2.002
 6023TIP3   OH218011   3.661   0.412   2.902
 6023TIP3    H118012   3.570   0.435   2.886
 6023TIP3    H218013   3.705   0.429   2.819
 6024TIP3   OH218014   6.467   7.423   1.613
 6024TIP3    H118015   6.549   7.384   1.644
 6024TIP3    H218016   6.398   7.365   1.647
 6025TIP3   OH218017   0.453   3.643   4.337
 6025TIP3    H118018   0.439   3.551   4.358
 6025TIP3    H218019   0.477   3.683   4.420
 6026TIP3   OH218020   4.653   0.187   5.864
 6026TIP3    H118021   4.570   0.172   5.819
 6026TIP3    H218022   4.720   0.182   5.795
 6027TIP3   OH218023   0.366   7.086   2.259
 6027TIP3    H118024   0.444   7.140   2.250
 6027TIP3    H218025   0.385   7.008   2.207
 6028TIP3   OH218026   6.514   5.759   4.269
 6028TIP3    H118027   6.581   5.699   4.301
 6028TIP3    H218028   6.516   5.747   4.174
 6029TIP3   OH218029   0.553   5.978   3.157
 6029TIP3    H118030   0.497   6.036   3.106
 6029TIP3    H218031   0.496   5.907   3.186
 6030TIP3   OH218032   4.365   7.298   5.395
 6030TIP3    H118033   4.405   7.244   5.463
 6030TIP3    H218034   4.392   7.388   5.416
 6031TIP3   OH218035   7.290   5.415   3.658
 6031TIP3    H118036   7.294   5.328   3.696
 6031TIP3    H218037   7.219   5.410   3.594
 6032TIP3   OH218038   1.547   6.250   4.780
 6032TIP3    H118039   1.506   6.225   4.698
 6032TIP3    H218040   1.606   6.322   4.756
 6033TIP3   OH218041   3.538   1.969   6.107
 6033TIP3    H118042   3.629   1.960   6.135
 6033TIP3    H218043   3.494   1.890   6.142
 6034TIP3   OH218044   1.702   0.828   5.519
 6034TIP3    H118045   1.619   0.869   5.541
 6034TIP3    H218046   1.710   0.839   5.424
 6035TIP3   OH218047   1.157   6.387   3.766
 6035TIP3    H118048   1.194   6.344   3.689
 6035TIP3    H218049   1.120   6.316   3.818
 6036TIP3   OH218050   3.683   2.813   0.688
 6036TIP3    H118051   3.739   2.782   0.616
 6036TIP3    H218052   3.674   2.907   0.673
 6037TIP3   OH218053   2.699   5.555   5.306
 6037TIP3    H118054   2.777   5.552   5.251
 6037TIP3    H218055   2.731   5.576   5.393
 6038TIP3   OH218056   5.258   0.267   5.326
 6038TIP3    H118057   5.275   0.357   5.298
 6038TIP3    H218058   5.209   0.228   5.253
 6039TIP3   OH218059   5.226   1.207   2.458
 6039TIP3    H118060   5.188   1.272   2.399
 6039TIP3    H218061   5.175   1.127   2.442
 6040TIP3   OH218062   5.873   4.410   1.221
 6040TIP3    H118063   5.849   4.354   1.147
 6040TIP3    H218064   5.791   4.428   1.265
 6041TIP3   OH218065   7.801   7.009   5.867
 6041TIP3    H118066   7.792   6.977   5.777
 6041TIP3    H218067   7.719   7.056   5.884
 6042TIP3   OH218068   7.977   4.903   5.449
 6042TIP3    H118069   8.053   4.886   5.505
 6042TIP3    H218070   7.946   4.989   5.475
 6043TIP3   OH218071   2.813   3.558   6.511
 6043TIP3    H118072   2.741   3.504   6.543
 6043TIP3    H218073   2.808   3.638   6.563
 6044TIP3   OH218074   0.912   4.144   5.260
 6044TIP3    H118075   0.920   4.150   5.355
 6044TIP3    H218076   0.859   4.220   5.237
 6045TIP3   OH218077   6.296   5.759   4.423
 6045TIP3    H118078   6.365   5.798   4.369
 6045TIP3    H218079   6.330   5.672   4.444
 6046TIP3   OH218080   2.116   4.005   6.505
 6046TIP3    H118081   2.039   4.054   6.477
 6046TIP3    H218082   2.166   4.067   6.557
 6047TIP3   OH218083   0.159   2.613   2.416
 6047TIP3    H118084   0.113   2.695   2.433
 6047TIP3    H218085   0.091   2.552   2.388
 6048TIP3   OH218086   1.181   7.444   1.897
 6048TIP3    H118087   1.155   7.398   1.818
 6048TIP3    H218088   1.113   7.423   1.961
 6049TIP3   OH218089   4.175   2.247   3.035
 6049TIP3    H118090   4.152   2.205   3.118
 6049TIP3    H218091   4.170   2.177   2.970
 6050TIP3   OH218092   0.596   7.698   3.319
 6050TIP3    H118093   0.539   7.628   3.286
 6050TIP3    H218094   0.536   7.766   3.348
 6051TIP3   OH218095   2.994   5.033   2.562
 6051TIP3    H118096   3.019   4.982   2.639
 6051TIP3    H218097   3.061   5.013   2.497
 6052TIP3   OH218098   1.677   0.246   2.366
 6052TIP3    H118099   1.733   0.171   2.349
 6052TIP3    H218100   1.636   0.265   2.281
 6053TIP3   OH218101   5.802   3.560   2.233
 6053TIP3    H118102   5.841   3.484   2.191
 6053TIP3    H218103   5.817   3.546   2.327
 6054TIP3   OH218104   5.047   6.022   6.120
 6054TIP3    H118105   4.957   6.054   6.131
 6054TIP3    H218106   5.055   6.004   6.026
 6055TIP3   OH218107   3.714   2.583   5.264
 6055TIP3    H118108   3.727   2.612   5.174
 6055TIP3    H218109   3.653   2.510   5.258
 6056TIP3   OH218110   2.489   1.878   3.938
 6056TIP3    H118111   2.495   1.896   4.032
 6056TIP3    H218112   2.580   1.872   3.909
 6057TIP3   OH218113   3.179   5.912   1.505
 6057TIP3    H118114   3.222   5.990   1.540
 6057TIP3    H218115   3.194   5.916   1.411
 6058TIP3   OH218116   2.258   6.095   3.665
 6058TIP3    H118117   2.232   6.062   3.578
 6058TIP3    H218118   2.337   6.046   3.686
 6059TIP3   OH218119   0.638   4.950   5.054
 6059TIP3    H118120   0.694   5.015   5.097
 6059TIP3    H218121   0.696   4.876   5.037
 6060TIP3   OH218122   2.821   3.872   3.218
 6060TIP3    H118123   2.752   3.833   3.164
 6060TIP3    H218124   2.852   3.946   3.166
 6061TIP3   OH218125   8.055   4.652   4.026
 6061TIP3    H118126   7.990   4.718   4.049
 6061TIP3    H218127   8.030   4.575   4.077
 6062TIP3   OH218128   0.273   2.941   0.053
 6062TIP3    H118129   0.327   3.020   0.063
 6062TIP3    H218130   0.201   2.953   0.115
 6063TIP3   OH218131   0.571   0.164   0.991
 6063TIP3    H118132   0.605   0.106   1.059
 6063TIP3    H218133   0.647   0.187   0.938
 6064TIP3   OH218134   7.864   4.467   2.674
 6064TIP3    H118135   7.808   4.538   2.706
 6064TIP3    H218136   7.803   4.406   2.632
 6065TIP3   OH218137   0.445   0.693   4.585
 6065TIP3    H118138   0.380   0.702   4.654
 6065TIP3    H218139   0.524   0.733   4.621
 6066TIP3   OH218140   0.135   6.679   4.078
 6066TIP3    H118141   0.067   6.730   4.123
 6066TIP3    H218142   0.104   6.589   4.084
 6067TIP3   OH218143   0.275   2.498   3.315
 6067TIP3    H118144   0.221   2.500   3.394
 6067TIP3    H218145   0.265   2.410   3.281
 6068TIP3   OH218146   7.137   6.311   1.862
 6068TIP3    H118147   7.177   6.393   1.892
 6068TIP3    H218148   7.053   6.308   1.907
 6069TIP3   OH218149   5.311   3.357   0.683
 6069TIP3    H118150   5.295   3.444   0.645
 6069TIP3    H218151   5.384   3.322   0.631
 6070TIP3   OH218152   7.801   4.473   4.707
 6070TIP3    H118153   7.857   4.437   4.638
 6070TIP3    H218154   7.830   4.429   4.787
 6071TIP3   OH218155   4.422   3.650   4.775
 6071TIP3    H118156   4.448   3.616   4.861
 6071TIP3    H218157   4.501   3.642   4.721
 6072TIP3   OH218158   5.005   0.563   6.320
 6072TIP3    H118159   5.093   0.571   6.358
 6072TIP3    H218160   5.009   0.485   6.264
 6073TIP3   OH218161   7.309   5.055   2.311
 6073TIP3    H118162   7.238   5.100   2.266
 6073TIP3    H218163   7.381   5.057   2.249
 6074TIP3   OH218164   7.762   3.251   6.032
 6074TIP3    H118165   7.721   3.290   6.109
 6074TIP3    H218166   7.829   3.315   6.006
 6075TIP3   OH218167   2.693   0.480   4.307
 6075TIP3    H118168   2.773   0.532   4.300
 6075TIP3    H218169   2.665   0.467   4.216
 6076TIP3   OH218170   2.927   5.580   0.283
 6076TIP3    H118171   2.936   5.673   0.304
 6076TIP3    H218172   2.993   5.537   0.338
 6077TIP3   OH218173   2.627   0.489   1.094
 6077TIP3    H118174   2.532   0.479   1.087
 6077TIP3    H218175   2.642   0.516   1.185
 6078TIP3   OH218176   7.088   2.112   3.026
 6078TIP3    H118177   7.142   2.109   2.947
 6078TIP3    H218178   7.000   2.132   2.995
 6079TIP3   OH218179   4.264   7.734   0.332
 6079TIP3    H118180   4.177   7.744   0.371
 6079TIP3    H218181   4.325   7.745   0.404
 6080TIP3   OH218182   4.261   4.907   3.491
 6080TIP3    H118183   4.196   4.836   3.499
 6080TIP3    H218184   4.256   4.933   3.399
 6081TIP3   OH218185   6.208   6.325   5.650
 6081TIP3    H118186   6.134   6.335   5.711
 6081TIP3    H218187   6.254   6.409   5.655
 6082TIP3   OH218188   7.195   1.184   4.599
 6082TIP3    H118189   7.276   1.197   4.649
 6082TIP3    H218190   7.164   1.097   4.626
 6083TIP3   OH218191   0.022   0.566   5.931
 6083TIP3    H118192   0.093   0.622   5.962
 6083TIP3    H218193  -0.015   0.527   6.011
 6084TIP3   OH218194   2.151   1.343   0.059
 6084TIP3    H118195   2.188   1.317  -0.026
 6084TIP3    H218196   2.214   1.310   0.123
 6085TIP3   OH218197   5.632   0.221   3.850
 6085TIP3    H118198   5.680   0.227   3.932
 6085TIP3    H218199   5.700   0.215   3.783
 6086TIP3   OH218200   5.095   1.464   1.216
 6086TIP3    H118201   5.063   1.395   1.157
 6086TIP3    H218202   5.191   1.459   1.209
 6087TIP3   OH218203   3.180   3.832   4.027
 6087TIP3    H118204   3.168   3.770   4.099
 6087TIP3    H218205   3.275   3.839   4.018
 6088TIP3   OH218206   2.599   7.156   0.753
 6088TIP3    H118207   2.648   7.074   0.760
 6088TIP3    H218208   2.581   7.181   0.844
 6089TIP3   OH218209   2.327   4.502   3.644
 6089TIP3    H118210   2.267   4.571   3.674
 6089TIP3    H218211   2.270   4.434   3.609
 6090TIP3   OH218212   1.991   3.271   6.707
 6090TIP3    H118213   1.931   3.202   6.680
 6090TIP3    H218214   1.945   3.316   6.778
 6091TIP3   OH218215   2.107   1.469   4.421
 6091TIP3    H118216   2.025   1.511   4.448
 6091TIP3    H218217   2.096   1.450   4.328
 6092TIP3   OH218218   5.990   4.061   0.237
 6092TIP3    H118219   5.948   4.147   0.238
 6092TIP3    H218220   5.926   4.003   0.280
 6093TIP3   OH218221   6.533   5.173   3.908
 6093TIP3    H118222   6.540   5.254   3.959
 6093TIP3    H218223   6.583   5.190   3.829
 6094TIP3   OH218224   5.069   3.016   3.659
 6094TIP3    H118225   5.025   2.954   3.601
 6094TIP3    H218226   5.069   3.099   3.610
 6095TIP3   OH218227   5.695   0.931   0.760
 6095TIP3    H118228   5.636   0.857   0.745
 6095TIP3    H218229   5.638   1.002   0.789
 6096TIP3   OH218230   2.302   4.582   0.390
 6096TIP3    H118231   2.277   4.578   0.297
 6096TIP3    H218232   2.227   4.621   0.434
 6097TIP3   OH218233   5.261   6.685   6.705
 6097TIP3    H118234   5.175   6.657   6.674
 6097TIP3    H218235   5.320   6.663   6.634
 6098TIP3   OH218236   4.234   1.872   1.254
 6098TIP3    H118237   4.210   1.915   1.172
 6098TIP3    H218238   4.232   1.942   1.319
 6099TIP3   OH218239   5.714   0.527   5.368
 6099TIP3    H118240   5.718   0.481   5.452
 6099TIP3    H218241   5.620   0.536   5.350
 6100TIP3   OH218242   7.275   3.331   1.047
 6100TIP3    H118243   7.244   3.345   0.957
 6100TIP3    H218244   7.217   3.386   1.101
 6101TIP3   OH218245   0.617   3.436   4.509
 6101TIP3    H118246   0.605   3.383   4.430
 6101TIP3    H218247   0.533   3.428   4.556
 6102TIP3   OH218248   6.235   2.132   6.095
 6102TIP3    H118249   6.291   2.170   6.163
 6102TIP3    H218250   6.261   2.040   6.091
 6103TIP3   OH218251   3.158   3.933   0.431
 6103TIP3    H118252   3.216   3.969   0.498
 6103TIP3    H218253   3.081   3.990   0.433
 6104TIP3   OH218254   7.501   2.080   3.069
 6104TIP3    H118255   7.450   2.149   3.113
 6104TIP3    H218256   7.578   2.126   3.035
 6105TIP3   OH218257   2.453   3.631   6.510
 6105TIP3    H118258   2.381   3.681   6.549
 6105TIP3    H218259   2.411   3.573   6.447
 6106TIP3   OH218260   7.096   3.671   0.218
 6106TIP3    H118261   7.173   3.629   0.256
 6106TIP3    H218262   7.044   3.698   0.293
 6107TIP3   OH218263   0.235   0.149   0.373
 6107TIP3    H118264   0.226   0.104   0.288
 6107TIP3    H218265   0.258   0.080   0.435
 6108TIP3   OH218266   6.527   2.446   4.666
 6108TIP3    H118267   6.476   2.397   4.603
 6108TIP3    H218268   6.547   2.384   4.736
 6109TIP3   OH218269   1.198   5.985   4.050
 6109TIP3    H118270   1.173   6.041   4.123
 6109TIP3    H218271   1.294   5.988   4.049
 6110TIP3   OH218272   5.040   0.869   3.875
 6110TIP3    H118273   4.987   0.943   3.905
 6110TIP3    H218274   5.128   0.904   3.865
 6111TIP3   OH218275   0.653   0.286   4.974
 6111TIP3    H118276   0.637   0.380   4.979
 6111TIP3    H218277   0.666   0.269   4.881
 6112TIP3   OH218278   1.369   5.738   3.410
 6112TIP3    H118279   1.355   5.654   3.454
 6112TIP3    H218280   1.456   5.766   3.438
 6113TIP3   OH218281   4.271   6.752   4.163
 6113TIP3    H118282   4.232   6.707   4.088
 6113TIP3    H218283   4.209   6.737   4.235
 6114TIP3   OH218284   1.610   6.548   4.242
 6114TIP3    H118285   1.594   6.528   4.150
 6114TIP3    H218286   1.523   6.547   4.283
 6115TIP3   OH218287   1.024   7.635   4.487
 6115TIP3    H118288   1.092   7.700   4.506
 6115TIP3    H218289   0.959   7.648   4.555
 6116TIP3   OH218290   0.020   3.917   4.259
 6116TIP3    H118291   0.004   3.823   4.244
 6116TIP3    H218292   0.032   3.925   4.354
 6117TIP3   OH218293   7.321   6.520   2.605
 6117TIP3    H118294   7.331   6.587   2.538
 6117TIP3    H218295   7.254   6.554   2.664
 6118TIP3   OH218296   7.648   4.070   1.474
 6118TIP3    H118297   7.666   3.979   1.499
 6118TIP3    H218298   7.732   4.114   1.481
 6119TIP3   OH218299   1.746   7.382   6.191
 6119TIP3    H118300   1.735   7.370   6.097
 6119TIP3    H218301   1.694   7.312   6.230
 6120TIP3   OH218302   6.436   0.690   5.656
 6120TIP3    H118303   6.447   0.596   5.672
 6120TIP3    H218304   6.373   0.719   5.721
 6121TIP3   OH218305   6.104   0.561   3.090
 6121TIP3    H118306   6.076   0.552   2.999
 6121TIP3    H218307   6.023   0.575   3.139
 6122TIP3   OH218308   7.863   1.220   1.986
 6122TIP3    H118309   7.809   1.274   2.044
 6122TIP3    H218310   7.847   1.130   2.015
 6123TIP3   OH218311   0.719   4.748   6.543
 6123TIP3    H118312   0.765   4.790   6.616
 6123TIP3    H218313   0.702   4.819   6.481
 6124TIP3   OH218314   3.863   2.501   6.245
 6124TIP3    H118315   3.770   2.480   6.252
 6124TIP3    H218316   3.894   2.451   6.170
 6125TIP3   OH218317   7.116   0.100   2.512
 6125TIP3    H118318   7.081   0.020   2.550
 6125TIP3    H218319   7.211   0.093   2.523
 6126TIP3   OH218320   5.493   6.668   6.551
 6126TIP3    H118321   5.501   6.602   6.482
 6126TIP3    H218322   5.539   6.630   6.626
 6127TIP3   OH218323   3.972   5.344   0.217
 6127TIP3    H118324   4.064   5.346   0.242
 6127TIP3    H218325   3.967   5.273   0.152
 6128TIP3   OH218326   5.776   5.163   5.580
 6128TIP3    H118327   5.805   5.072   5.573
 6128TIP3    H218328   5.716   5.175   5.506
 6129TIP3   OH218329   6.915   0.353   4.990
 6129TIP3    H118330   6.935   0.364   4.897
 6129TIP3    H218331   6.823   0.330   4.992
 6130TIP3   OH218332   4.818   0.512   1.871
 6130TIP3    H118333   4.828   0.471   1.957
 6130TIP3    H218334   4.776   0.596   1.888
 6131TIP3   OH218335   4.862   6.693   5.506
 6131TIP3    H118336   4.872   6.686   5.601
 6131TIP3    H218337   4.853   6.603   5.476
 6132TIP3   OH218338   2.935   3.491   1.384
 6132TIP3    H118339   2.984   3.565   1.349
 6132TIP3    H218340   2.973   3.475   1.471
 6133TIP3   OH218341   3.718   1.456   1.881
 6133TIP3    H118342   3.702   1.548   1.899
 6133TIP3    H218343   3.807   1.453   1.845
 6134TIP3   OH218344   7.752   7.613   0.903
 6134TIP3    H118345   7.722   7.593   0.814
 6134TIP3    H218346   7.725   7.704   0.917
 6135TIP3   OH218347   5.356   2.378   4.839
 6135TIP3    H118348   5.417   2.371   4.765
 6135TIP3    H218349   5.305   2.457   4.821
 6136TIP3   OH218350   8.088   4.954   1.687
 6136TIP3    H118351   8.021   4.899   1.645
 6136TIP3    H218352   8.167   4.937   1.637
 6137TIP3   OH218353   3.596   0.536   1.925
 6137TIP3    H118354   3.659   0.602   1.954
 6137TIP3    H218355   3.553   0.506   2.005
 6138TIP3   OH218356   2.868   2.298   1.174
 6138TIP3    H118357   2.936   2.240   1.208
 6138TIP3    H218358   2.795   2.289   1.236
 6139TIP3   OH218359   0.812   0.617   5.696
 6139TIP3    H118360   0.728   0.650   5.726
 6139TIP3    H218361   0.849   0.571   5.772
 6140TIP3   OH218362   7.379   0.754   3.841
 6140TIP3    H118363   7.300   0.756   3.786
 6140TIP3    H218364   7.450   0.774   3.781
 6141TIP3   OH218365   4.424   4.769   2.298
 6141TIP3    H118366   4.377   4.817   2.366
 6141TIP3    H218367   4.355   4.728   2.246
 6142TIP3   OH218368   3.065   5.846   5.912
 6142TIP3    H118369   2.996   5.879   5.970
 6142TIP3    H218370   3.139   5.830   5.970
 6143TIP3   OH218371   7.165   6.068   0.591
 6143TIP3    H118372   7.255   6.086   0.564
 6143TIP3    H218373   7.129   6.018   0.518
 6144TIP3   OH218374   6.041   5.819   5.614
 6144TIP3    H118375   6.116   5.818   5.554
 6144TIP3    H218376   6.077   5.795   5.699
 6145TIP3   OH218377   0.199   4.413   4.991
 6145TIP3    H118378   0.146   4.334   5.002
 6145TIP3    H218379   0.191   4.434   4.898
 6146TIP3   OH218380   7.263   7.011   2.412
 6146TIP3    H118381   7.239   7.062   2.334
 6146TIP3    H218382   7.181   7.002   2.460
 6147TIP3   OH218383   3.722   3.646   1.213
 6147TIP3    H118384   3.744   3.611   1.300
 6147TIP3    H218385   3.627   3.640   1.208
 6148TIP3   OH218386   6.016   7.650   6.190
 6148TIP3    H118387   6.029   7.728   6.244
 6148TIP3    H218388   5.945   7.603   6.234
 6149TIP3   OH218389   6.489   1.930   0.993
 6149TIP3    H118390   6.561   1.992   0.984
 6149TIP3    H218391   6.527   1.845   0.972
 6150TIP3   OH218392   3.498   5.917   1.417
 6150TIP3    H118393   3.444   5.969   1.357
 6150TIP3    H218394   3.562   5.979   1.452
 6151TIP3   OH218395   3.353   7.176   0.298
 6151TIP3    H118396   3.374   7.252   0.352
 6151TIP3    H218397   3.270   7.145   0.331
 6152TIP3   OH218398   3.389   7.293   6.562
 6152TIP3    H118399   3.382   7.379   6.603
 6152TIP3    H218400   3.447   7.243   6.619
 6153TIP3   OH218401   5.093   4.326   2.157
 6153TIP3    H118402   5.051   4.262   2.100
 6153TIP3    H218403   5.155   4.373   2.101
 6154TIP3   OH218404   6.824   2.646   4.355
 6154TIP3    H118405   6.799   2.644   4.448
 6154TIP3    H218406   6.790   2.730   4.324
 6155TIP3   OH218407   1.144   0.636   5.993
 6155TIP3    H118408   1.156   0.726   6.025
 6155TIP3    H218409   1.058   0.610   6.027
 6156TIP3   OH218410   8.035   3.772   5.485
 6156TIP3    H118411   8.128   3.783   5.468
 6156TIP3    H218412   8.001   3.861   5.494
 6157TIP3   OH218413   1.979   2.697   5.752
 6157TIP3    H118414   2.065   2.656   5.757
 6157TIP3    H218415   1.926   2.650   5.817
 6158TIP3   OH218416   2.636   1.245   4.278
 6158TIP3    H118417   2.681   1.325   4.249
 6158TIP3    H218418   2.704   1.192   4.318
 6159TIP3   OH218419   0.068   2.615   2.916
 6159TIP3    H118420   0.146   2.609   2.971
 6159TIP3    H218421  -0.002   2.578   2.970
 6160TIP3   OH218422   2.597   2.479   6.207
 6160TIP3    H118423   2.606   2.450   6.116
 6160TIP3    H218424   2.625   2.571   6.206
 6161TIP3   OH218425   2.279   4.961   6.592
 6161TIP3    H118426   2.298   4.869   6.608
 6161TIP3    H218427   2.268   4.967   6.497
 6162TIP3   OH218428   7.514   5.489   4.096
 6162TIP3    H118429   7.572   5.559   4.124
 6162TIP3    H218430   7.430   5.531   4.081
 6163TIP3   OH218431   0.959   3.256   1.178
 6163TIP3    H118432   0.913   3.300   1.249
 6163TIP3    H218433   1.044   3.300   1.173
 6164TIP3   OH218434   6.720   0.342   3.797
 6164TIP3    H118435   6.655   0.408   3.771
 6164TIP3    H218436   6.709   0.335   3.892
 6165TIP3   OH218437   4.064   0.403   3.533
 6165TIP3    H118438   4.018   0.398   3.449
 6165TIP3    H218439   4.156   0.408   3.510
 6166TIP3   OH218440   0.506   4.120   6.552
 6166TIP3    H118441   0.439   4.053   6.543
 6166TIP3    H218442   0.564   4.107   6.477
 6167TIP3   OH218443   8.147   7.592   5.919
 6167TIP3    H118444   8.180   7.507   5.947
 6167TIP3    H218445   8.052   7.582   5.916
 6168TIP3   OH218446   7.649   3.672   3.616
 6168TIP3    H118447   7.688   3.585   3.628
 6168TIP3    H218448   7.562   3.665   3.655
 6169TIP3   OH218449   4.703   1.521   3.799
 6169TIP3    H118450   4.648   1.565   3.734
 6169TIP3    H218451   4.641   1.486   3.863
 6170TIP3   OH218452   0.393   1.225   3.896
 6170TIP3    H118453   0.426   1.266   3.816
 6170TIP3    H218454   0.376   1.135   3.872
 6171TIP3   OH218455   5.648   4.453   5.754
 6171TIP3    H118456   5.641   4.406   5.671
 6171TIP3    H218457   5.655   4.384   5.820
 6172TIP3   OH218458   3.666   3.277   1.420
 6172TIP3    H118459   3.704   3.208   1.474
 6172TIP3    H218460   3.715   3.356   1.444
 6173TIP3   OH218461   7.739   1.330   2.905
 6173TIP3    H118462   7.822   1.300   2.941
 6173TIP3    H218463   7.672   1.280   2.951
 6174TIP3   OH218464   6.522   0.033   3.877
 6174TIP3    H118465   6.527  -0.017   3.959
 6174TIP3    H218466   6.607   0.019   3.836
 6175TIP3   OH218467   1.963   1.235   5.417
 6175TIP3    H118468   2.012   1.192   5.347
 6175TIP3    H218469   1.878   1.191   5.418
 6176TIP3   OH218470   5.807   3.352   4.514
 6176TIP3    H118471   5.803   3.417   4.584
 6176TIP3    H218472   5.747   3.283   4.542
 6177TIP3   OH218473   6.521   7.305   0.769
 6177TIP3    H118474   6.509   7.210   0.762
 6177TIP3    H218475   6.515   7.323   0.862
 6178TIP3   OH218476   2.745   3.209   5.288
 6178TIP3    H118477   2.711   3.203   5.377
 6178TIP3    H218478   2.735   3.302   5.265
 6179TIP3   OH218479   6.988   2.446   1.443
 6179TIP3    H118480   6.895   2.434   1.421
 6179TIP3    H218481   6.986   2.490   1.528
 6180TIP3   OH218482   5.546   2.888   1.771
 6180TIP3    H118483   5.598   2.962   1.802
 6180TIP3    H218484   5.520   2.842   1.851
 6181TIP3   OH218485   1.561   0.980   0.263
 6181TIP3    H118486   1.497   1.047   0.288
 6181TIP3    H218487   1.515   0.897   0.276
 6182TIP3   OH218488   7.200   3.747   1.596
 6182TIP3    H118489   7.293   3.739   1.618
 6182TIP3    H218490   7.192   3.834   1.557
 6183TIP3   OH218491   3.850   3.072   1.487
 6183TIP3    H118492   3.857   3.010   1.415
 6183TIP3    H218493   3.920   3.047   1.547
 6184TIP3   OH218494   1.248   1.570   3.879
 6184TIP3    H118495   1.282   1.560   3.967
 6184TIP3    H218496   1.295   1.505   3.827
 6185TIP3   OH218497   6.991   3.004   4.234
 6185TIP3    H118498   6.955   2.992   4.146
 6185TIP3    H218499   6.988   3.099   4.248
 6186TIP3   OH218500   2.076   4.509   3.276
 6186TIP3    H118501   2.148   4.479   3.331
 6186TIP3    H218502   2.016   4.552   3.336
 6187TIP3   OH218503   5.579   0.832   4.685
 6187TIP3    H118504   5.636   0.836   4.762
 6187TIP3    H218505   5.631   0.784   4.620
 6188TIP3   OH218506   0.675   2.431   0.940
 6188TIP3    H118507   0.599   2.415   0.995
 6188TIP3    H218508   0.738   2.364   0.967
 6189TIP3   OH218509   2.408   4.177   5.711
 6189TIP3    H118510   2.319   4.140   5.709
 6189TIP3    H218511   2.396   4.267   5.741
 6190TIP3   OH218512   6.130   2.139   3.369
 6190TIP3    H118513   6.153   2.048   3.390
 6190TIP3    H218514   6.162   2.152   3.279
 6191TIP3   OH218515   1.357   6.452   0.555
 6191TIP3    H118516   1.304   6.531   0.546
 6191TIP3    H218517   1.348   6.427   0.647
 6192TIP3   OH218518   1.541   0.300   1.192
 6192TIP3    H118519   1.501   0.360   1.129
 6192TIP3    H218520   1.474   0.286   1.259
 6193TIP3   OH218521   0.033   4.462   5.871
 6193TIP3    H118522   0.039   4.538   5.813
 6193TIP3    H218523  -0.022   4.492   5.944
 6194TIP3   OH218524   7.107   7.301   1.341
 6194TIP3    H118525   7.118   7.296   1.246
 6194TIP3    H218526   7.021   7.263   1.358
 6195TIP3   OH218527   1.822   3.051   6.337
 6195TIP3    H118528   1.779   3.131   6.365
 6195TIP3    H218529   1.775   2.981   6.382
 6196TIP3   OH218530   7.072   1.023   6.304
 6196TIP3    H118531   7.003   0.961   6.323
 6196TIP3    H218532   7.139   1.007   6.370
 6197TIP3   OH218533   1.810   6.667   4.377
 6197TIP3    H118534   1.764   6.749   4.393
 6197TIP3    H218535   1.751   6.616   4.322
 6198TIP3   OH218536   6.428   3.617   3.888
 6198TIP3    H118537   6.450   3.597   3.797
 6198TIP3    H218538   6.512   3.624   3.932
 6199TIP3   OH218539   4.526   4.203   0.220
 6199TIP3    H118540   4.568   4.188   0.305
 6199TIP3    H218541   4.433   4.205   0.239
 6200TIP3   OH218542   1.099   4.327   1.547
 6200TIP3    H118543   1.096   4.345   1.454
 6200TIP3    H218544   1.191   4.303   1.564
 6201TIP3   OH218545   5.990   0.067   3.769
 6201TIP3    H118546   6.063   0.073   3.831
 6201TIP3    H218547   5.998  -0.020   3.731
 6202TIP3   OH218548   2.434   5.756   0.280
 6202TIP3    H118549   2.438   5.665   0.309
 6202TIP3    H218550   2.520   5.791   0.302
 6203TIP3   OH218551   4.642   5.490   5.279
 6203TIP3    H118552   4.592   5.409   5.262
 6203TIP3    H218553   4.614   5.517   5.366
 6204TIP3   OH218554   0.328   7.600   6.072
 6204TIP3    H118555   0.346   7.692   6.090
 6204TIP3    H218556   0.261   7.575   6.135
 6205TIP3   OH218557   3.703   6.465   2.736
 6205TIP3    H118558   3.668   6.545   2.777
 6205TIP3    H218559   3.786   6.492   2.698
 6206TIP3   OH218560   2.173   4.164   6.176
 6206TIP3    H118561   2.126   4.240   6.141
 6206TIP3    H218562   2.128   4.145   6.259
 6207TIP3   OH218563   0.775   7.599   3.570
 6207TIP3    H118564   0.831   7.657   3.620
 6207TIP3    H218565   0.686   7.632   3.585
 6208TIP3   OH218566   6.724   6.737   5.223
 6208TIP3    H118567   6.814   6.769   5.212
 6208TIP3    H218568   6.676   6.812   5.259
 6209TIP3   OH218569   6.375   3.711   4.639
 6209TIP3    H118570   6.312   3.720   4.568
 6209TIP3    H218571   6.327   3.738   4.718
 6210TIP3   OH218572   0.695   2.664   3.636
 6210TIP3    H118573   0.663   2.664   3.726
 6210TIP3    H218574   0.718   2.573   3.618
 6211TIP3   OH218575   3.901   5.441   3.957
 6211TIP3    H118576   3.969   5.433   3.890
 6211TIP3    H218577   3.820   5.450   3.908
 6212TIP3   OH218578   2.339   6.929   6.147
 6212TIP3    H118579   2.338   6.912   6.053
 6212TIP3    H218580   2.369   6.847   6.186
 6213TIP3   OH218581   3.362   0.627   0.746
 6213TIP3    H118582   3.306   0.575   0.803
 6213TIP3    H218583   3.451   0.604   0.771
 6214TIP3   OH218584   6.754   2.908   4.360
 6214TIP3    H118585   6.718   2.957   4.286
 6214TIP3    H218586   6.848   2.923   4.355
 6215TIP3   OH218587   2.529   0.721   0.147
 6215TIP3    H118588   2.478   0.780   0.091
 6215TIP3    H218589   2.585   0.779   0.199
 6216TIP3   OH218590   4.497   7.574   4.850
 6216TIP3    H118591   4.463   7.523   4.776
 6216TIP3    H218592   4.419   7.616   4.887
 6217TIP3   OH218593  -0.002   4.137   6.329
 6217TIP3    H118594  -0.013   4.220   6.283
 6217TIP3    H218595   0.082   4.102   6.297
 6218TIP3   OH218596   4.432   6.155   0.559
 6218TIP3    H118597   4.358   6.154   0.620
 6218TIP3    H218598   4.406   6.094   0.489
 6219TIP3   OH218599   7.840   1.667   1.625
 6219TIP3    H118600   7.929   1.641   1.599
 6219TIP3    H218601   7.813   1.600   1.688
 6220TIP3   OH218602   4.490   4.028   1.554
 6220TIP3    H118603   4.481   4.123   1.565
 6220TIP3    H218604   4.477   3.992   1.641
 6221TIP3   OH218605   7.540   4.575   1.907
 6221TIP3    H118606   7.460   4.553   1.859
 6221TIP3    H218607   7.510   4.602   1.993
 6222TIP3   OH218608   7.184   0.262   5.487
 6222TIP3    H118609   7.120   0.329   5.509
 6222TIP3    H218610   7.250   0.308   5.435
 6223TIP3   OH218611   4.903   2.284   1.146
 6223TIP3    H118612   4.968   2.330   1.092
 6223TIP3    H218613   4.941   2.197   1.159
 6224TIP3   OH218614   3.458   6.693   0.369
 6224TIP3    H118615   3.446   6.599   0.360
 6224TIP3    H218616   3.553   6.706   0.361
 6225TIP3   OH218617   6.892   4.541   4.538
 6225TIP3    H118618   6.869   4.619   4.487
 6225TIP3    H218619   6.949   4.574   4.608
 6226TIP3   OH218620   5.348   5.219   6.798
 6226TIP3    H118621   5.358   5.187   6.708
 6226TIP3    H218622   5.385   5.307   6.797
 6227TIP3   OH218623   4.396   3.094   1.889
 6227TIP3    H118624   4.390   3.022   1.827
 6227TIP3    H218625   4.481   3.135   1.870
 6228TIP3   OH218626   2.207   3.648   6.656
 6228TIP3    H118627   2.166   3.614   6.736
 6228TIP3    H218628   2.136   3.649   6.591
 6229TIP3   OH218629   5.826   2.488   2.478
 6229TIP3    H118630   5.788   2.412   2.523
 6229TIP3    H218631   5.751   2.543   2.457
 6230TIP3   OH218632   3.845   6.591   1.068
 6230TIP3    H118633   3.812   6.529   1.133
 6230TIP3    H218634   3.927   6.624   1.105
 6231TIP3   OH218635   1.888   5.083   1.549
 6231TIP3    H118636   1.896   5.017   1.618
 6231TIP3    H218637   1.952   5.150   1.572
 6232TIP3   OH218638   6.570   2.049   2.326
 6232TIP3    H118639   6.547   1.989   2.256
 6232TIP3    H218640   6.528   2.013   2.404
 6233TIP3   OH218641   2.716   0.779   6.199
 6233TIP3    H118642   2.643   0.752   6.255
 6233TIP3    H218643   2.715   0.875   6.203
 6234TIP3   OH218644   0.343   1.389   1.474
 6234TIP3    H118645   0.313   1.312   1.522
 6234TIP3    H218646   0.407   1.355   1.412
 6235TIP3   OH218647   1.826   4.811   5.296
 6235TIP3    H118648   1.755   4.868   5.267
 6235TIP3    H218649   1.897   4.826   5.233
 6236TIP3   OH218650   1.544   1.695   5.855
 6236TIP3    H118651   1.578   1.613   5.819
 6236TIP3    H218652   1.537   1.753   5.779
 6237TIP3   OH218653   7.010   1.584   0.629
 6237TIP3    H118654   7.091   1.618   0.667
 6237TIP3    H218655   6.941   1.612   0.690
 6238TIP3   OH218656   1.012   7.809   6.680
 6238TIP3    H118657   0.939   7.800   6.741
 6238TIP3    H218658   0.981   7.769   6.598
 6239TIP3   OH218659   2.942   7.672   2.333
 6239TIP3    H118660   3.024   7.721   2.323
 6239TIP3    H218661   2.922   7.640   2.246
 6240TIP3   OH218662   0.814   2.502   5.887
 6240TIP3    H118663   0.740   2.532   5.939
 6240TIP3    H218664   0.830   2.412   5.917
 6241TIP3   OH218665   1.509   1.673   6.245
 6241TIP3    H118666   1.472   1.675   6.157
 6241TIP3    H218667   1.568   1.597   6.244
 6242TIP3   OH218668   8.194   6.710   4.814
 6242TIP3    H118669   8.242   6.667   4.886
 6242TIP3    H218670   8.206   6.803   4.831
 6243TIP3   OH218671   5.634   4.564   0.932
 6243TIP3    H118672   5.694   4.626   0.890
 6243TIP3    H218673   5.635   4.588   1.025
 6244TIP3   OH218674   3.256   4.149   2.266
 6244TIP3    H118675   3.189   4.213   2.289
 6244TIP3    H218676   3.339   4.193   2.288
 6245TIP3   OH218677   7.715   4.732   2.193
 6245TIP3    H118678   7.649   4.801   2.180
 6245TIP3    H218679   7.754   4.721   2.106
 6246TIP3   OH218680   6.690   6.007   4.300
 6246TIP3    H118681   6.671   5.928   4.250
 6246TIP3    H218682   6.779   5.995   4.332
 6247TIP3   OH218683   4.152   7.403   4.065
 6247TIP3    H118684   4.209   7.479   4.062
 6247TIP3    H218685   4.067   7.435   4.034
 6248TIP3   OH218686   2.803   0.147   2.536
 6248TIP3    H118687   2.810   0.207   2.610
 6248TIP3    H218688   2.858   0.185   2.468
 6249TIP3   OH218689   7.362   4.450   6.376
 6249TIP3    H118690   7.329   4.360   6.371
 6249TIP3    H218691   7.391   4.460   6.466
 6250TIP3   OH218692   1.929   7.419   2.089
 6250TIP3    H118693   1.975   7.337   2.104
 6250TIP3    H218694   1.970   7.455   2.010
 6251TIP3   OH218695   3.362   6.891   3.964
 6251TIP3    H118696   3.285   6.948   3.975
 6251TIP3    H218697   3.340   6.835   3.890
 6252TIP3   OH218698   2.617   3.652   1.434
 6252TIP3    H118699   2.693   3.705   1.456
 6252TIP3    H218700   2.559   3.661   1.510
 6253TIP3   OH218701   6.473   0.721   6.536
 6253TIP3    H118702   6.413   0.749   6.605
 6253TIP3    H218703   6.481   0.797   6.479
 6254TIP3   OH218704   0.099   3.944   2.934
 6254TIP3    H118705   0.058   4.029   2.917
 6254TIP3    H218706   0.026   3.887   2.959
 6255TIP3   OH218707   5.414   4.624   6.624
 6255TIP3    H118708   5.358   4.602   6.549
 6255TIP3    H218709   5.400   4.553   6.686
 6256TIP3   OH218710   2.163   3.241   6.508
 6256TIP3    H118711   2.110   3.278   6.578
 6256TIP3    H218712   2.156   3.146   6.521
 6257TIP3   OH218713   2.368   2.858   3.556
 6257TIP3    H118714   2.357   2.950   3.580
 6257TIP3    H218715   2.456   2.835   3.586
 6258TIP3   OH218716   2.377   4.613   4.140
 6258TIP3    H118717   2.345   4.683   4.197
 6258TIP3    H218718   2.357   4.644   4.052
 6259TIP3   OH218719   6.723   0.850   2.750
 6259TIP3    H118720   6.671   0.778   2.785
 6259TIP3    H218721   6.661   0.903   2.699
 6260TIP3   OH218722   5.638   1.579   5.271
 6260TIP3    H118723   5.667   1.550   5.185
 6260TIP3    H218724   5.560   1.631   5.254
 6261TIP3   OH218725   3.681   3.499   6.027
 6261TIP3    H118726   3.618   3.470   6.093
 6261TIP3    H218727   3.704   3.420   5.978
 6262TIP3   OH218728   6.957   5.396   1.795
 6262TIP3    H118729   6.867   5.395   1.761
 6262TIP3    H218730   7.012   5.396   1.716
 6263TIP3   OH218731   3.313   0.431   1.708
 6263TIP3    H118732   3.332   0.524   1.700
 6263TIP3    H218733   3.359   0.391   1.634
 6264TIP3   OH218734   2.192   3.506   1.205
 6264TIP3    H118735   2.124   3.485   1.269
 6264TIP3    H218736   2.186   3.436   1.140
 6265TIP3   OH218737   7.540   0.491   0.268
 6265TIP3    H118738   7.496   0.552   0.209
 6265TIP3    H218739   7.621   0.536   0.293
 6266TIP3   OH218740   2.011   2.634   2.060
 6266TIP3    H118741   2.083   2.689   2.092
 6266TIP3    H218742   1.939   2.654   2.119
 6267TIP3   OH218743   5.724   5.284   3.623
 6267TIP3    H118744   5.646   5.237   3.652
 6267TIP3    H218745   5.737   5.352   3.689
 6268TIP3   OH218746   4.863   5.774   3.939
 6268TIP3    H118747   4.890   5.866   3.948
 6268TIP3    H218748   4.903   5.745   3.858
 6269TIP3   OH218749   1.590   4.160   6.227
 6269TIP3    H118750   1.517   4.222   6.219
 6269TIP3    H218751   1.635   4.188   6.307
 6270TIP3   OH218752   2.971   6.216   5.252
 6270TIP3    H118753   2.972   6.273   5.329
 6270TIP3    H218754   3.025   6.262   5.188
 6271TIP3   OH218755   0.964   0.342   0.466
 6271TIP3    H118756   1.046   0.392   0.465
 6271TIP3    H218757   0.969   0.289   0.545
 6272TIP3   OH218758   7.080   1.453   5.020
 6272TIP3    H118759   7.038   1.414   5.097
 6272TIP3    H218760   7.021   1.525   4.995
 6273TIP3   OH218761   7.548   2.812   4.812
 6273TIP3    H118762   7.552   2.846   4.723
 6273TIP3    H218763   7.459   2.777   4.820
 6274TIP3   OH218764   8.027   0.996   3.447
 6274TIP3    H118765   8.046   0.952   3.530
 6274TIP3    H218766   8.024   1.089   3.470
 6275TIP3   OH218767   2.616   7.363   6.349
 6275TIP3    H118768   2.528   7.325   6.343
 6275TIP3    H218769   2.641   7.381   6.259
 6276TIP3   OH218770   8.269   5.538   4.961
 6276TIP3    H118771   8.218   5.515   5.038
 6276TIP3    H218772   8.265   5.461   4.905
 6277TIP3   OH218773   7.944   4.232   2.382
 6277TIP3    H118774   7.929   4.326   2.392
 6277TIP3    H218775   7.945   4.198   2.471
 6278TIP3   OH218776   0.809   4.500   0.649
 6278TIP3    H118777   0.798   4.591   0.621
 6278TIP3    H218778   0.899   4.478   0.623
 6279TIP3   OH218779   3.744   3.403   4.437
 6279TIP3    H118780   3.741   3.376   4.345
 6279TIP3    H218781   3.750   3.498   4.435
 6280TIP3   OH218782   3.954   3.566   5.475
 6280TIP3    H118783   3.905   3.492   5.438
 6280TIP3    H218784   3.901   3.595   5.549
 6281TIP3   OH218785   1.373   5.075   5.399
 6281TIP3    H118786   1.348   5.154   5.351
 6281TIP3    H218787   1.375   5.006   5.333
 6282TIP3   OH218788   5.702   6.982   5.565
 6282TIP3    H118789   5.620   6.936   5.551
 6282TIP3    H218790   5.707   7.045   5.493
 6283TIP3   OH218791   0.578   1.682   0.037
 6283TIP3    H118792   0.663   1.726   0.035
 6283TIP3    H218793   0.598   1.594   0.070
 6284TIP3   OH218794   4.601   2.380   1.781
 6284TIP3    H118795   4.667   2.313   1.800
 6284TIP3    H218796   4.554   2.345   1.705
 6285TIP3   OH218797   0.709   7.637   6.264
 6285TIP3    H118798   0.768   7.563   6.248
 6285TIP3    H218799   0.743   7.678   6.343
 6286TIP3   OH218800   4.418   5.620   0.514
 6286TIP3    H118801   4.457   5.706   0.531
 6286TIP3    H218802   4.392   5.588   0.601
 6287TIP3   OH218803   7.761   1.951   3.443
 6287TIP3    H118804   7.836   1.921   3.494
 6287TIP3    H218805   7.770   2.046   3.441
 6288TIP3   OH218806   6.928   3.088   0.537
 6288TIP3    H118807   6.872   3.118   0.609
 6288TIP3    H218808   6.868   3.049   0.474
 6289TIP3   OH218809   3.907   4.234   1.238
 6289TIP3    H118810   3.857   4.180   1.299
 6289TIP3    H218811   3.905   4.185   1.156
 6290TIP3   OH218812   1.158   2.334   5.150
 6290TIP3    H118813   1.244   2.342   5.107
 6290TIP3    H218814   1.151   2.413   5.203
 6291TIP3   OH218815   2.986   1.246   2.631
 6291TIP3    H118816   2.986   1.342   2.626
 6291TIP3    H218817   3.073   1.224   2.665
 6292TIP3   OH218818   5.127   1.127   3.046
 6292TIP3    H118819   5.120   1.039   3.010
 6292TIP3    H218820   5.220   1.141   3.060
 6293TIP3   OH218821   1.813   2.373   2.022
 6293TIP3    H118822   1.801   2.280   2.006
 6293TIP3    H218823   1.826   2.411   1.935
 6294TIP3   OH218824   6.570   4.895   0.799
 6294TIP3    H118825   6.479   4.906   0.773
 6294TIP3    H218826   6.567   4.884   0.894
 6295TIP3   OH218827   1.438   2.530   4.225
 6295TIP3    H118828   1.444   2.553   4.317
 6295TIP3    H218829   1.350   2.557   4.199
 6296TIP3   OH218830   5.742   6.356   2.804
 6296TIP3    H118831   5.702   6.336   2.720
 6296TIP3    H218832   5.825   6.307   2.804
 6297TIP3   OH218833   1.011   6.128   5.054
 6297TIP3    H118834   1.005   6.200   5.117
 6297TIP3    H218835   1.099   6.135   5.018
 6298TIP3   OH218836   2.561   1.258   1.261
 6298TIP3    H118837   2.491   1.318   1.234
 6298TIP3    H218838   2.522   1.207   1.333
 6299TIP3   OH218839   1.641   4.377   5.929
 6299TIP3    H118840   1.547   4.359   5.936
 6299TIP3    H218841   1.676   4.356   6.016
 6300TIP3   OH218842   6.335   1.688   6.299
 6300TIP3    H118843   6.409   1.720   6.351
 6300TIP3    H218844   6.267   1.668   6.364
 6301TIP3   OH218845   0.677   2.320   4.433
 6301TIP3    H118846   0.590   2.280   4.443
 6301TIP3    H218847   0.736   2.260   4.477
 6302TIP3   OH218848   4.702   5.560   0.629
 6302TIP3    H118849   4.637   5.505   0.586
 6302TIP3    H218850   4.717   5.518   0.714
 6303TIP3   OH218851   2.274   7.235   1.518
 6303TIP3    H118852   2.323   7.157   1.494
 6303TIP3    H218853   2.255   7.224   1.612
 6304TIP3   OH218854   6.435   5.526   4.506
 6304TIP3    H118855   6.469   5.511   4.418
 6304TIP3    H218856   6.472   5.455   4.559
 6305TIP3   OH218857   1.545   5.703   5.360
 6305TIP3    H118858   1.500   5.632   5.313
 6305TIP3    H218859   1.540   5.678   5.452
 6306TIP3   OH218860   0.409   4.071   3.371
 6306TIP3    H118861   0.335   4.132   3.373
 6306TIP3    H218862   0.387   4.008   3.303
 6307TIP3   OH218863   4.957   2.043   2.731
 6307TIP3    H118864   4.955   1.974   2.665
 6307TIP3    H218865   4.871   2.084   2.726
 6308TIP3   OH218866   8.158   2.483   3.073
 6308TIP3    H118867   8.152   2.507   3.166
 6308TIP3    H218868   8.067   2.473   3.045
 6309TIP3   OH218869   4.954   1.129   1.885
 6309TIP3    H118870   4.869   1.125   1.929
 6309TIP3    H218871   4.932   1.127   1.792
 6310TIP3   OH218872   5.691   7.470   4.973
 6310TIP3    H118873   5.781   7.437   4.968
 6310TIP3    H218874   5.650   7.440   4.891
 6311TIP3   OH218875   4.261   6.126   2.059
 6311TIP3    H118876   4.245   6.070   1.983
 6311TIP3    H218877   4.191   6.103   2.120
 6312TIP3   OH218878   3.475   2.237   2.213
 6312TIP3    H118879   3.439   2.268   2.130
 6312TIP3    H218880   3.461   2.309   2.274
 6313TIP3   OH218881   2.367   5.054   4.652
 6313TIP3    H118882   2.404   5.117   4.590
 6313TIP3    H218883   2.398   4.969   4.622
 6314TIP3   OH218884   5.414   0.812   0.433
 6314TIP3    H118885   5.429   0.907   0.440
 6314TIP3    H218886   5.479   0.773   0.491
 6315TIP3   OH218887   1.601   2.250   6.423
 6315TIP3    H118888   1.690   2.249   6.388
 6315TIP3    H218889   1.595   2.171   6.477
 6316TIP3   OH218890   2.262   1.239   2.454
 6316TIP3    H118891   2.223   1.152   2.461
 6316TIP3    H218892   2.351   1.228   2.489
 6317TIP3   OH218893   4.306   6.352   5.206
 6317TIP3    H118894   4.279   6.442   5.189
 6317TIP3    H218895   4.223   6.303   5.210
 6318TIP3   OH218896   4.581   3.638   0.257
 6318TIP3    H118897   4.526   3.586   0.315
 6318TIP3    H218898   4.520   3.702   0.218
 6319TIP3   OH218899   5.853   1.502   4.115
 6319TIP3    H118900   5.908   1.543   4.049
 6319TIP3    H218901   5.895   1.417   4.132
 6320TIP3   OH218902   5.065   7.658   2.994
 6320TIP3    H118903   4.994   7.722   2.991
 6320TIP3    H218904   5.030   7.581   2.948
 6321TIP3   OH218905   7.280   4.949   4.548
 6321TIP3    H118906   7.360   5.002   4.539
 6321TIP3    H218907   7.295   4.873   4.492
 6322TIP3   OH218908   3.003   2.311   1.874
 6322TIP3    H118909   3.064   2.349   1.937
 6322TIP3    H218910   3.058   2.260   1.815
 6323TIP3   OH218911   4.021   7.407   3.009
 6323TIP3    H118912   4.030   7.312   3.024
 6323TIP3    H218913   3.927   7.421   3.001
 6324TIP3   OH218914   0.484   3.047   0.541
 6324TIP3    H118915   0.502   3.072   0.632
 6324TIP3    H218916   0.394   3.015   0.542
 6325TIP3   OH218917   0.202   5.629   1.963
 6325TIP3    H118918   0.113   5.606   1.991
 6325TIP3    H218919   0.240   5.547   1.931
 6326TIP3   OH218920   7.225   7.170   5.551
 6326TIP3    H118921   7.229   7.265   5.549
 6326TIP3    H218922   7.174   7.149   5.629
 6327TIP3   OH218923   7.273   5.767   3.981
 6327TIP3    H118924   7.336   5.831   4.012
 6327TIP3    H218925   7.311   5.732   3.901
 6328TIP3   OH218926   5.886   2.431   1.895
 6328TIP3    H118927   5.906   2.514   1.852
 6328TIP3    H218928   5.960   2.417   1.955
 6329TIP3   OH218929   2.579   0.221   3.362
 6329TIP3    H118930   2.560   0.211   3.269
 6329TIP3    H218931   2.674   0.224   3.367
 6330TIP3   OH218932   4.024   6.911   0.594
 6330TIP3    H118933   4.014   6.881   0.685
 6330TIP3    H218934   3.940   6.950   0.572
 6331TIP3   OH218935   6.410   2.967   4.798
 6331TIP3    H118936   6.362   2.954   4.717
 6331TIP3    H218937   6.493   3.006   4.772
 6332TIP3   OH218938   2.630   2.452   2.088
 6332TIP3    H118939   2.646   2.538   2.128
 6332TIP3    H218940   2.611   2.394   2.162
 6333TIP3   OH218941   0.420   0.701   3.614
 6333TIP3    H118942   0.502   0.740   3.642
 6333TIP3    H218943   0.443   0.610   3.593
 6334TIP3   OH218944   2.912   6.389   5.527
 6334TIP3    H118945   2.945   6.427   5.608
 6334TIP3    H218946   2.887   6.464   5.473
 6335TIP3   OH218947   2.939   4.729   1.268
 6335TIP3    H118948   2.870   4.722   1.202
 6335TIP3    H218949   2.971   4.819   1.259
 6336TIP3   OH218950   1.855   3.740   0.597
 6336TIP3    H118951   1.810   3.793   0.663
 6336TIP3    H218952   1.939   3.784   0.584
 6337TIP3   OH218953   6.960   0.348   2.686
 6337TIP3    H118954   7.018   0.278   2.657
 6337TIP3    H218955   6.970   0.417   2.621
 6338TIP3   OH218956   4.886   6.902   4.263
 6338TIP3    H118957   4.835   6.946   4.195
 6338TIP3    H218958   4.961   6.864   4.216
 6339TIP3   OH218959   5.779   1.751   3.048
 6339TIP3    H118960   5.780   1.681   3.113
 6339TIP3    H218961   5.842   1.815   3.082
 6340TIP3   OH218962   7.819   1.348   5.308
 6340TIP3    H118963   7.850   1.279   5.366
 6340TIP3    H218964   7.799   1.421   5.366
 6341TIP3   OH218965   5.560   1.764   4.773
 6341TIP3    H118966   5.577   1.708   4.698
 6341TIP3    H218967   5.502   1.833   4.740
 6342TIP3   OH218968   4.009   7.177   1.998
 6342TIP3    H118969   4.035   7.210   2.084
 6342TIP3    H218970   4.082   7.201   1.941
 6343TIP3   OH218971   6.100   0.444   1.126
 6343TIP3    H118972   6.078   0.507   1.058
 6343TIP3    H218973   6.179   0.400   1.094
 6344TIP3   OH218974   2.874   6.378   4.856
 6344TIP3    H118975   2.905   6.444   4.919
 6344TIP3    H218976   2.954   6.335   4.826
 6345TIP3   OH218977   0.607   1.370   5.693
 6345TIP3    H118978   0.644   1.363   5.780
 6345TIP3    H218979   0.527   1.421   5.705
 6346TIP3   OH218980   0.802   1.543   3.213
 6346TIP3    H118981   0.739   1.601   3.257
 6346TIP3    H218982   0.820   1.475   3.278
 6347TIP3   OH218983   4.114   7.494   0.803
 6347TIP3    H118984   4.163   7.522   0.881
 6347TIP3    H218985   4.172   7.431   0.760
 6348TIP3   OH218986   7.285   5.189   0.992
 6348TIP3    H118987   7.236   5.271   0.990
 6348TIP3    H218988   7.376   5.215   0.977
 6349TIP3   OH218989   3.641   4.364   3.249
 6349TIP3    H118990   3.690   4.446   3.250
 6349TIP3    H218991   3.614   4.351   3.340
 6350TIP3   OH218992   3.748   3.577   5.674
 6350TIP3    H118993   3.761   3.484   5.695
 6350TIP3    H218994   3.669   3.601   5.722
 6351TIP3   OH218995   8.163   6.339   5.011
 6351TIP3    H118996   8.235   6.394   5.042
 6351TIP3    H218997   8.199   6.292   4.936
 6352TIP3   OH218998   6.954   0.508   3.741
 6352TIP3    H118999   6.922   0.511   3.652
 6352TIP3    H219000   6.926   0.423   3.775
 6353TIP3   OH219001   2.032   2.152   4.884
 6353TIP3    H119002   2.050   2.059   4.874
 6353TIP3    H219003   1.947   2.157   4.928
 6354TIP3   OH219004   2.634   4.936   1.144
 6354TIP3    H119005   2.700   4.868   1.130
 6354TIP3    H219006   2.658   5.005   1.081
 6355TIP3   OH219007   2.127   3.139   0.506
 6355TIP3    H119008   2.109   3.077   0.436
 6355TIP3    H219009   2.112   3.225   0.467
 6356TIP3   OH219010   1.017   3.543   6.267
 6356TIP3    H119011   1.052   3.465   6.310
 6356TIP3    H219012   1.005   3.606   6.337
 6357TIP3   OH219013   3.286   3.236   1.228
 6357TIP3    H119014   3.323   3.307   1.280
 6357TIP3    H219015   3.309   3.258   1.137
 6358TIP3   OH219016   3.784   6.132   2.294
 6358TIP3    H119017   3.743   6.145   2.380
 6358TIP3    H219018   3.857   6.073   2.311
 6359TIP3   OH219019   7.912   3.422   1.395
 6359TIP3    H119020   7.948   3.380   1.473
 6359TIP3    H219021   7.818   3.407   1.401
 6360TIP3   OH219022   0.645   1.354   1.724
 6360TIP3    H119023   0.603   1.297   1.659
 6360TIP3    H219024   0.604   1.330   1.807
 6361TIP3   OH219025   5.721   3.154   5.807
 6361TIP3    H119026   5.705   3.073   5.759
 6361TIP3    H219027   5.810   3.144   5.842
 6362TIP3   OH219028   3.773   3.911   3.626
 6362TIP3    H119029   3.853   3.872   3.590
 6362TIP3    H219030   3.739   3.844   3.686
 6363TIP3   OH219031   5.760   4.279   3.225
 6363TIP3    H119032   5.746   4.270   3.131
 6363TIP3    H219033   5.716   4.361   3.249
 6364TIP3   OH219034   4.832   3.815   3.529
 6364TIP3    H119035   4.755   3.852   3.487
 6364TIP3    H219036   4.818   3.720   3.526
 6365TIP3   OH219037   7.225   4.490   1.824
 6365TIP3    H119038   7.209   4.496   1.730
 6365TIP3    H219039   7.145   4.525   1.865
 6366TIP3   OH219040   6.513   7.066   0.615
 6366TIP3    H119041   6.437   7.021   0.578
 6366TIP3    H219042   6.531   7.137   0.555
 6367TIP3   OH219043   2.505   7.149   4.262
 6367TIP3    H119044   2.516   7.152   4.357
 6367TIP3    H219045   2.563   7.217   4.228
 6368TIP3   OH219046   7.069   7.117   1.701
 6368TIP3    H119047   7.060   7.069   1.784
 6368TIP3    H219048   7.150   7.167   1.711
 6369TIP3   OH219049   3.460   3.849   6.323
 6369TIP3    H119050   3.446   3.783   6.391
 6369TIP3    H219051   3.423   3.930   6.360
 6370TIP3   OH219052   5.727   4.049   0.356
 6370TIP3    H119053   5.653   3.987   0.357
 6370TIP3    H219054   5.693   4.126   0.311
 6371TIP3   OH219055   5.990   0.411   2.005
 6371TIP3    H119056   6.012   0.388   1.915
 6371TIP3    H219057   6.039   0.492   2.022
 6372TIP3   OH219058   3.424   1.112   1.432
 6372TIP3    H119059   3.417   1.166   1.353
 6372TIP3    H219060   3.502   1.144   1.477
 6373TIP3   OH219061   7.307   4.363   2.949
 6373TIP3    H119062   7.259   4.281   2.961
 6373TIP3    H219063   7.240   4.427   2.926
 6374TIP3   OH219064   7.325   3.775   4.095
 6374TIP3    H119065   7.347   3.769   4.188
 6374TIP3    H219066   7.328   3.684   4.065
 6375TIP3   OH219067   2.774   6.549   0.523
 6375TIP3    H119068   2.693   6.503   0.501
 6375TIP3    H219069   2.746   6.620   0.581
 6376TIP3   OH219070   4.189   6.830   5.427
 6376TIP3    H119071   4.121   6.831   5.495
 6376TIP3    H219072   4.249   6.761   5.456
 6377TIP3   OH219073   7.079   1.302   3.684
 6377TIP3    H119074   7.115   1.329   3.600
 6377TIP3    H219075   7.155   1.285   3.739
 6378TIP3   OH219076   7.462   1.099   0.999
 6378TIP3    H119077   7.462   1.024   0.939
 6378TIP3    H219078   7.376   1.139   0.987
 6379TIP3   OH219079   5.162   4.760   1.522
 6379TIP3    H119080   5.170   4.828   1.589
 6379TIP3    H219081   5.069   4.740   1.519
 6380TIP3   OH219082   5.711   1.311   2.110
 6380TIP3    H119083   5.667   1.238   2.066
 6380TIP3    H219084   5.687   1.301   2.202
 6381TIP3   OH219085   3.196   0.929   5.521
 6381TIP3    H119086   3.179   0.892   5.434
 6381TIP3    H219087   3.115   0.916   5.570
 6382TIP3   OH219088   8.072   5.776   5.152
 6382TIP3    H119089   8.153   5.818   5.180
 6382TIP3    H219090   8.010   5.795   5.222
 6383TIP3   OH219091   5.556   3.257   2.162
 6383TIP3    H119092   5.560   3.161   2.171
 6383TIP3    H219093   5.647   3.283   2.147
 6384TIP3   OH219094   1.914   6.889   1.624
 6384TIP3    H119095   1.936   6.805   1.664
 6384TIP3    H219096   1.819   6.899   1.638
 6385TIP3   OH219097   8.214   4.832   6.560
 6385TIP3    H119098   8.264   4.857   6.638
 6385TIP3    H219099   8.272   4.852   6.487
 6386TIP3   OH219100   4.112   7.436   1.709
 6386TIP3    H119101   4.031   7.431   1.657
 6386TIP3    H219102   4.169   7.370   1.671
 6387TIP3   OH219103   7.643   1.621   4.259
 6387TIP3    H119104   7.664   1.528   4.264
 6387TIP3    H219105   7.712   1.658   4.203
 6388TIP3   OH219106   3.058   3.685   0.392
 6388TIP3    H119107   2.967   3.678   0.423
 6388TIP3    H219108   3.069   3.779   0.374
 6389TIP3   OH219109   1.408   6.144   5.509
 6389TIP3    H119110   1.408   6.204   5.435
 6389TIP3    H219111   1.460   6.069   5.480
 6390TIP3   OH219112   0.565   3.609   1.914
 6390TIP3    H119113   0.596   3.675   1.852
 6390TIP3    H219114   0.501   3.656   1.968
 6391TIP3   OH219115   4.861   5.037   6.575
 6391TIP3    H119116   4.871   4.962   6.517
 6391TIP3    H219117   4.942   5.086   6.566
 6392TIP3   OH219118   6.980   0.830   5.011
 6392TIP3    H119119   6.885   0.841   5.008
 6392TIP3    H219120   7.004   0.855   5.100
 6393TIP3   OH219121   0.643   2.072   6.391
 6393TIP3    H119122   0.574   2.045   6.451
 6393TIP3    H219123   0.718   2.094   6.448
 6394TIP3   OH219124   7.809   5.186   1.617
 6394TIP3    H119125   7.813   5.105   1.668
 6394TIP3    H219126   7.845   5.252   1.676
 6395TIP3   OH219127   3.487   4.512   5.787
 6395TIP3    H119128   3.392   4.510   5.782
 6395TIP3    H219129   3.506   4.501   5.880
 6396TIP3   OH219130   7.945   5.626   1.812
 6396TIP3    H119131   7.874   5.690   1.810
 6396TIP3    H219132   8.014   5.669   1.863
 6397TIP3   OH219133   2.895   1.999   0.893
 6397TIP3    H119134   2.846   2.081   0.893
 6397TIP3    H219135   2.837   1.937   0.848
 6398TIP3   OH219136   2.493   0.779   1.809
 6398TIP3    H119137   2.408   0.757   1.770
 6398TIP3    H219138   2.555   0.776   1.735
 6399TIP3   OH219139   0.892   0.172   2.521
 6399TIP3    H119140   0.798   0.160   2.509
 6399TIP3    H219141   0.917   0.231   2.449
 6400TIP3   OH219142   4.924   5.920   2.247
 6400TIP3    H119143   4.841   5.902   2.292
 6400TIP3    H219144   4.903   5.909   2.154
 6401TIP3   OH219145   7.074   4.289   6.290
 6401TIP3    H119146   7.142   4.257   6.349
 6401TIP3    H219147   7.034   4.363   6.336
 6402TIP3   OH219148   5.008   2.873   6.321
 6402TIP3    H119149   4.987   2.870   6.414
 6402TIP3    H219150   5.012   2.782   6.294
 6403TIP3   OH219151   1.718   5.445   3.355
 6403TIP3    H119152   1.645   5.388   3.328
 6403TIP3    H219153   1.730   5.505   3.282
 6404TIP3   OH219154   7.674   1.125   6.255
 6404TIP3    H119155   7.600   1.068   6.276
 6404TIP3    H219156   7.700   1.163   6.339
 6405TIP3   OH219157   2.184   3.555   4.178
 6405TIP3    H119158   2.263   3.509   4.206
 6405TIP3    H219159   2.145   3.587   4.260
 6406TIP3   OH219160   2.870   6.493   6.032
 6406TIP3    H119161   2.842   6.456   6.115
 6406TIP3    H219162   2.964   6.475   6.029
 6407TIP3   OH219163   4.450   5.901   4.877
 6407TIP3    H119164   4.454   5.857   4.793
 6407TIP3    H219165   4.356   5.916   4.892
 6408TIP3   OH219166   1.459   6.490   2.496
 6408TIP3    H119167   1.410   6.531   2.567
 6408TIP3    H219168   1.414   6.406   2.481
 6409TIP3   OH219169   3.896   4.613   4.868
 6409TIP3    H119170   3.911   4.705   4.888
 6409TIP3    H219171   3.943   4.598   4.786
 6410TIP3   OH219172   5.399   0.076   1.225
 6410TIP3    H119173   5.429   0.080   1.134
 6410TIP3    H219174   5.410   0.165   1.258
 6411TIP3   OH219175   4.643   0.348   3.255
 6411TIP3    H119176   4.678   0.393   3.332
 6411TIP3    H219177   4.549   0.344   3.270
 6412TIP3   OH219178   4.284   3.054   6.186
 6412TIP3    H119179   4.205   3.043   6.134
 6412TIP3    H219180   4.352   3.008   6.136
 6413TIP3   OH219181   8.083   6.603   0.921
 6413TIP3    H119182   8.027   6.662   0.971
 6413TIP3    H219183   8.094   6.527   0.978
 6414TIP3   OH219184   3.430   6.365   3.065
 6414TIP3    H119185   3.428   6.274   3.034
 6414TIP3    H219186   3.350   6.404   3.031
 6415TIP3   OH219187   1.424   1.617   4.196
 6415TIP3    H119188   1.470   1.551   4.144
 6415TIP3    H219189   1.445   1.596   4.287
 6416TIP3   OH219190   3.939   1.675   2.975
 6416TIP3    H119191   3.907   1.720   2.897
 6416TIP3    H219192   4.003   1.612   2.943
 6417TIP3   OH219193   1.760   4.506   2.918
 6417TIP3    H119194   1.819   4.566   2.962
 6417TIP3    H219195   1.675   4.549   2.921
 6418TIP3   OH219196   4.885   6.650   0.465
 6418TIP3    H119197   4.939   6.672   0.389
 6418TIP3    H219198   4.802   6.694   0.450
 6419TIP3   OH219199   5.623   4.047   5.747
 6419TIP3    H119200   5.605   4.028   5.839
 6419TIP3    H219201   5.718   4.052   5.741
 6420TIP3   OH219202   8.028   2.159   2.293
 6420TIP3    H119203   8.034   2.220   2.219
 6420TIP3    H219204   8.104   2.180   2.348
 6421TIP3   OH219205   3.399   6.238   5.804
 6421TIP3    H119206   3.365   6.314   5.852
 6421TIP3    H219207   3.363   6.247   5.716
 6422TIP3   OH219208   7.481   3.564   5.169
 6422TIP3    H119209   7.563   3.585   5.124
 6422TIP3    H219210   7.461   3.475   5.141
 6423TIP3   OH219211   0.549   1.030   1.545
 6423TIP3    H119212   0.640   1.000   1.552
 6423TIP3    H219213   0.518   1.032   1.635
 6424TIP3   OH219214   5.022   2.071   2.992
 6424TIP3    H119215   5.004   2.165   2.994
 6424TIP3    H219216   5.012   2.046   2.900
 6425TIP3   OH219217   1.329   2.664   6.602
 6425TIP3    H119218   1.417   2.632   6.585
 6425TIP3    H219219   1.323   2.746   6.553
 6426TIP3   OH219220   7.310   0.407   3.572
 6426TIP3    H119221   7.338   0.424   3.662
 6426TIP3    H219222   7.214   0.411   3.576
 6427TIP3   OH219223   2.750   2.806   3.414
 6427TIP3    H119224   2.700   2.801   3.496
 6427TIP3    H219225   2.727   2.725   3.368
 6428TIP3   OH219226   5.169   6.389   3.521
 6428TIP3    H119227   5.212   6.451   3.462
 6428TIP3    H219228   5.128   6.444   3.588
 6429TIP3   OH219229   6.672   7.230   3.472
 6429TIP3    H119230   6.650   7.221   3.564
 6429TIP3    H219231   6.767   7.222   3.468
 6430TIP3   OH219232   7.285   3.184   2.849
 6430TIP3    H119233   7.363   3.226   2.886
 6430TIP3    H219234   7.214   3.209   2.908
 6431TIP3   OH219235   0.355   2.001   5.364
 6431TIP3    H119236   0.423   2.068   5.370
 6431TIP3    H219237   0.403   1.918   5.360
 6432TIP3   OH219238   1.015   7.645   2.317
 6432TIP3    H119239   0.935   7.616   2.274
 6432TIP3    H219240   1.069   7.566   2.324
 6433TIP3   OH219241   6.322   0.271   5.338
 6433TIP3    H119242   6.368   0.197   5.377
 6433TIP3    H219243   6.373   0.348   5.365
 6434TIP3   OH219244   0.184   7.448   5.564
 6434TIP3    H119245   0.263   7.415   5.522
 6434TIP3    H219246   0.213   7.529   5.607
 6435TIP3   OH219247   7.513   5.865   0.594
 6435TIP3    H119248   7.589   5.884   0.649
 6435TIP3    H219249   7.482   5.950   0.564
 6436TIP3   OH219250   3.941   2.040   4.194
 6436TIP3    H119251   3.958   2.126   4.234
 6436TIP3    H219252   3.859   2.052   4.146
 6437TIP3   OH219253   2.090   0.241   1.184
 6437TIP3    H119254   1.998   0.231   1.210
 6437TIP3    H219255   2.088   0.313   1.121
 6438TIP3   OH219256   4.827   3.674   2.269
 6438TIP3    H119257   4.829   3.610   2.340
 6438TIP3    H219258   4.903   3.730   2.283
 6439TIP3   OH219259   2.656   3.667   6.319
 6439TIP3    H119260   2.583   3.729   6.318
 6439TIP3    H219261   2.682   3.661   6.411
 6440TIP3   OH219262   6.136   1.964   2.934
 6440TIP3    H119263   6.116   1.890   2.991
 6440TIP3    H219264   6.232   1.966   2.930
 6441TIP3   OH219265   7.588   7.322   3.205
 6441TIP3    H119266   7.625   7.254   3.148
 6441TIP3    H219267   7.497   7.296   3.216
 6442TIP3   OH219268   7.300   0.491  -0.038
 6442TIP3    H119269   7.229   0.517   0.021
 6442TIP3    H219270   7.336   0.411   0.002
 6443TIP3   OH219271   6.520   7.396   2.446
 6443TIP3    H119272   6.576   7.384   2.369
 6443TIP3    H219273   6.446   7.449   2.414
 6444TIP3   OH219274   3.979   7.241   4.188
 6444TIP3    H119275   4.062   7.280   4.159
 6444TIP3    H219276   3.915   7.267   4.122
 6445TIP3   OH219277   1.522   2.535   5.595
 6445TIP3    H119278   1.468   2.611   5.574
 6445TIP3    H219279   1.596   2.540   5.534
 6446TIP3   OH219280   7.791   5.171   2.312
 6446TIP3    H119281   7.834   5.087   2.332
 6446TIP3    H219282   7.832   5.233   2.372
 6447TIP3   OH219283   7.595   2.113   1.823
 6447TIP3    H119284   7.595   2.082   1.913
 6447TIP3    H219285   7.503   2.109   1.795
 6448TIP3   OH219286   6.497   4.576   6.251
 6448TIP3    H119287   6.461   4.489   6.265
 6448TIP3    H219288   6.591   4.561   6.238
 6449TIP3   OH219289   4.430   4.812   5.399
 6449TIP3    H119290   4.357   4.869   5.418
 6449TIP3    H219291   4.424   4.796   5.305
 6450TIP3   OH219292   8.140   4.085   1.009
 6450TIP3    H119293   8.105   4.170   1.036
 6450TIP3    H219294   8.181   4.102   0.924
 6451TIP3   OH219295   4.156   5.940   4.766
 6451TIP3    H119296   4.212   5.986   4.704
 6451TIP3    H219297   4.123   5.865   4.717
 6452TIP3   OH219298   4.990   5.611   5.069
 6452TIP3    H119299   4.963   5.667   4.997
 6452TIP3    H219300   5.044   5.543   5.028
 6453TIP3   OH219301   2.489   0.034   1.872
 6453TIP3    H119302   2.423   0.102   1.865
 6453TIP3    H219303   2.546   0.062   1.944
 6454TIP3   OH219304   5.665   6.729   4.785
 6454TIP3    H119305   5.609   6.670   4.736
 6454TIP3    H219306   5.640   6.817   4.755
 6455TIP3   OH219307   6.363   1.069   5.378
 6455TIP3    H119308   6.334   1.043   5.291
 6455TIP3    H219309   6.440   1.125   5.362
 6456TIP3   OH219310   3.220   4.971   5.924
 6456TIP3    H119311   3.254   4.913   5.855
 6456TIP3    H219312   3.167   5.036   5.877
 6457TIP3   OH219313   0.256   1.670   1.555
 6457TIP3    H119314   0.307   1.594   1.529
 6457TIP3    H219315   0.227   1.651   1.644
 6458TIP3   OH219316   2.102   1.666   5.850
 6458TIP3    H119317   2.138   1.578   5.856
 6458TIP3    H219318   2.015   1.659   5.891
 6459TIP3   OH219319   0.700   5.793   0.306
 6459TIP3    H119320   0.610   5.790   0.271
 6459TIP3    H219321   0.688   5.808   0.400
 6460TIP3   OH219322   2.232   6.069   1.806
 6460TIP3    H119323   2.273   6.113   1.732
 6460TIP3    H219324   2.166   6.131   1.837
 6461TIP3   OH219325   6.481   3.032   1.205
 6461TIP3    H119326   6.425   3.003   1.276
 6461TIP3    H219327   6.508   3.121   1.229
 6462TIP3   OH219328   5.818   3.861   2.821
 6462TIP3    H119329   5.872   3.886   2.896
 6462TIP3    H219330   5.728   3.864   2.854
 6463TIP3   OH219331   7.518   2.663   2.052
 6463TIP3    H119332   7.538   2.754   2.029
 6463TIP3    H219333   7.539   2.613   1.974
 6464TIP3   OH219334   4.927   1.622   2.788
 6464TIP3    H119335   4.932   1.702   2.737
 6464TIP3    H219336   5.017   1.603   2.813
 6465TIP3   OH219337   3.811   7.110   3.865
 6465TIP3    H119338   3.907   7.106   3.866
 6465TIP3    H219339   3.785   7.081   3.952
 6466TIP3   OH219340   0.569   2.313   5.704
 6466TIP3    H119341   0.635   2.255   5.742
 6466TIP3    H219342   0.608   2.344   5.622
 6467TIP3   OH219343   5.204   5.753   1.008
 6467TIP3    H119344   5.176   5.699   0.934
 6467TIP3    H219345   5.163   5.838   0.993
 6468TIP3   OH219346   7.006   5.504   5.763
 6468TIP3    H119347   7.035   5.421   5.801
 6468TIP3    H219348   6.969   5.480   5.678
 6469TIP3   OH219349   3.372   7.393   0.455
 6469TIP3    H119350   3.280   7.399   0.482
 6469TIP3    H219351   3.409   7.479   0.477
 6470TIP3   OH219352   7.051   7.339   2.606
 6470TIP3    H119353   7.020   7.409   2.664
 6470TIP3    H219354   7.024   7.258   2.651
 6471TIP3   OH219355   6.309   5.315   2.755
 6471TIP3    H119356   6.314   5.227   2.793
 6471TIP3    H219357   6.394   5.354   2.775
 6472TIP3   OH219358   8.144   0.589   3.839
 6472TIP3    H119359   8.219   0.574   3.781
 6472TIP3    H219360   8.144   0.684   3.852
 6473TIP3   OH219361   4.608   7.270   4.653
 6473TIP3    H119362   4.522   7.304   4.674
 6473TIP3    H219363   4.668   7.341   4.676
 6474TIP3   OH219364   7.012   4.422   0.533
 6474TIP3    H119365   7.099   4.391   0.559
 6474TIP3    H219366   6.999   4.386   0.445
 6475TIP3   OH219367   4.333   4.954   2.064
 6475TIP3    H119368   4.250   4.954   2.015
 6475TIP3    H219369   4.337   4.866   2.103
 6476TIP3   OH219370   6.360   6.216   3.737
 6476TIP3    H119371   6.292   6.278   3.763
 6476TIP3    H219372   6.348   6.141   3.795
 6477TIP3   OH219373   0.682   0.355   4.717
 6477TIP3    H119374   0.707   0.267   4.687
 6477TIP3    H219375   0.701   0.411   4.642
 6478TIP3   OH219376   3.331   7.033   0.919
 6478TIP3    H119377   3.242   6.999   0.923
 6478TIP3    H219378   3.381   6.977   0.980
 6479TIP3   OH219379   4.687   5.413   3.567
 6479TIP3    H119380   4.696   5.321   3.591
 6479TIP3    H219381   4.767   5.454   3.598
 6480TIP3   OH219382   7.725   2.599   0.230
 6480TIP3    H119383   7.743   2.505   0.237
 6480TIP3    H219384   7.751   2.634   0.315
 6481TIP3   OH219385   2.661   1.372   3.481
 6481TIP3    H119386   2.594   1.422   3.529
 6481TIP3    H219387   2.635   1.378   3.389
 6482TIP3   OH219388   1.505   2.421   2.830
 6482TIP3    H119389   1.422   2.469   2.828
 6482TIP3    H219390   1.554   2.460   2.903
 6483TIP3   OH219391   5.122   4.785   6.139
 6483TIP3    H119392   5.208   4.747   6.121
 6483TIP3    H219393   5.122   4.867   6.090
 6484TIP3   OH219394   5.236   7.106   6.463
 6484TIP3    H119395   5.315   7.106   6.518
 6484TIP3    H219396   5.253   7.172   6.397
 6485TIP3   OH219397   4.394   0.612   6.506
 6485TIP3    H119398   4.390   0.516   6.504
 6485TIP3    H219399   4.303   0.640   6.495
 6486TIP3   OH219400   0.963   1.003   2.794
 6486TIP3    H119401   0.906   0.950   2.738
 6486TIP3    H219402   1.052   0.976   2.769
 6487TIP3   OH219403   2.881   1.687   5.157
 6487TIP3    H119404   2.804   1.740   5.135
 6487TIP3    H219405   2.949   1.719   5.098
 6488TIP3   OH219406   1.225   1.953   0.354
 6488TIP3    H119407   1.207   1.994   0.439
 6488TIP3    H219408   1.309   1.992   0.327
 6489TIP3   OH219409   2.873   5.295   0.178
 6489TIP3    H119410   2.885   5.353   0.253
 6489TIP3    H219411   2.828   5.348   0.113
 6490TIP3   OH219412   4.955   5.463   4.194
 6490TIP3    H119413   4.958   5.462   4.098
 6490TIP3    H219414   4.897   5.536   4.215
 6491TIP3   OH219415   2.771   5.405   1.861
 6491TIP3    H119416   2.764   5.370   1.949
 6491TIP3    H219417   2.824   5.484   1.870
 6492TIP3   OH219418   8.077   5.722   4.380
 6492TIP3    H119419   8.108   5.741   4.292
 6492TIP3    H219420   8.107   5.796   4.433
 6493TIP3   OH219421   7.448   4.768   4.423
 6493TIP3    H119422   7.460   4.679   4.390
 6493TIP3    H219423   7.537   4.803   4.427
 6494TIP3   OH219424   1.288   5.848   5.323
 6494TIP3    H119425   1.197   5.838   5.351
 6494TIP3    H219426   1.339   5.803   5.391
 6495TIP3   OH219427   2.885   6.061   3.404
 6495TIP3    H119428   2.879   6.115   3.483
 6495TIP3    H219429   2.911   5.975   3.435
 6496TIP3   OH219430   6.616   4.252   4.718
 6496TIP3    H119431   6.544   4.304   4.684
 6496TIP3    H219432   6.656   4.308   4.785
 6497TIP3   OH219433   8.159   2.242   6.377
 6497TIP3    H119434   8.116   2.220   6.459
 6497TIP3    H219435   8.138   2.334   6.362
 6498TIP3   OH219436   8.217   1.282   0.907
 6498TIP3    H119437   8.266   1.320   0.834
 6498TIP3    H219438   8.125   1.296   0.883
 6499TIP3   OH219439   6.394   1.286   0.275
 6499TIP3    H119440   6.409   1.196   0.303
 6499TIP3    H219441   6.373   1.333   0.356
 6500TIP3   OH219442   3.969   7.006   6.098
 6500TIP3    H119443   3.926   6.996   6.183
 6500TIP3    H219444   4.058   6.974   6.112
 6501TIP3   OH219445   2.177   0.213   3.356
 6501TIP3    H119446   2.149   0.288   3.304
 6501TIP3    H219447   2.146   0.232   3.444
 6502TIP3   OH219448   2.022   1.346   1.676
 6502TIP3    H119449   2.071   1.298   1.609
 6502TIP3    H219450   1.956   1.283   1.706
 6503TIP3   OH219451   7.981   2.891   4.899
 6503TIP3    H119452   7.932   2.841   4.833
 6503TIP3    H219453   8.004   2.973   4.855
 6504TIP3   OH219454   4.856   2.103   5.547
 6504TIP3    H119455   4.843   2.031   5.609
 6504TIP3    H219456   4.940   2.141   5.573
 6505TIP3   OH219457   5.517   2.404   4.628
 6505TIP3    H119458   5.477   2.341   4.566
 6505TIP3    H219459   5.585   2.447   4.577
 6506TIP3   OH219460   5.043   6.497   1.099
 6506TIP3    H119461   4.995   6.577   1.082
 6506TIP3    H219462   5.034   6.446   1.018
 6507TIP3   OH219463   0.225   2.954   3.839
 6507TIP3    H119464   0.315   2.985   3.851
 6507TIP3    H219465   0.187   2.958   3.927
 6508TIP3   OH219466   6.720   6.017   5.275
 6508TIP3    H119467   6.721   5.992   5.183
 6508TIP3    H219468   6.650   6.081   5.282
 6509TIP3   OH219469   5.881   3.065   3.012
 6509TIP3    H119470   5.945   3.032   2.950
 6509TIP3    H219471   5.800   3.017   2.991
 6510TIP3   OH219472   5.066   6.774   4.096
 6510TIP3    H119473   5.132   6.821   4.045
 6510TIP3    H219474   5.106   6.688   4.112
 6511TIP3   OH219475   7.740   6.384   5.140
 6511TIP3    H119476   7.759   6.409   5.050
 6511TIP3    H219477   7.653   6.419   5.157
 6512TIP3   OH219478   2.876   0.893   4.164
 6512TIP3    H119479   2.795   0.874   4.117
 6512TIP3    H219480   2.860   0.978   4.206
 6513TIP3   OH219481   6.726   4.341   2.653
 6513TIP3    H119482   6.682   4.423   2.632
 6513TIP3    H219483   6.721   4.290   2.573
 6514TIP3   OH219484   5.173   1.724   4.615
 6514TIP3    H119485   5.189   1.800   4.560
 6514TIP3    H219486   5.157   1.653   4.553
 6515TIP3   OH219487   6.234   3.954   5.795
 6515TIP3    H119488   6.234   3.913   5.708
 6515TIP3    H219489   6.172   3.901   5.846
 6516TIP3   OH219490   5.069   4.663   1.106
 6516TIP3    H119491   4.992   4.712   1.136
 6516TIP3    H219492   5.033   4.589   1.057
 6517TIP3   OH219493   3.707   4.353   1.427
 6517TIP3    H119494   3.688   4.302   1.506
 6517TIP3    H219495   3.633   4.336   1.369
 6518TIP3   OH219496   4.128   3.654   4.358
 6518TIP3    H119497   4.203   3.702   4.393
 6518TIP3    H219498   4.053   3.712   4.371
 6519TIP3   OH219499   6.203   4.313   3.659
 6519TIP3    H119500   6.290   4.280   3.639
 6519TIP3    H219501   6.174   4.355   3.578
 6520TIP3   OH219502   8.082   4.620   2.769
 6520TIP3    H119503   8.022   4.556   2.731
 6520TIP3    H219504   8.041   4.705   2.752
 6521TIP3   OH219505   7.284   6.286   3.813
 6521TIP3    H119506   7.349   6.344   3.774
 6521TIP3    H219507   7.201   6.310   3.771
 6522TIP3   OH219508   0.143   6.994   5.539
 6522TIP3    H119509   0.184   6.996   5.453
 6522TIP3    H219510   0.137   6.901   5.561
 6523TIP3   OH219511   3.243   3.198   3.581
 6523TIP3    H119512   3.274   3.284   3.555
 6523TIP3    H219513   3.251   3.197   3.677
 6524TIP3   OH219514   4.378   3.210   6.393
 6524TIP3    H119515   4.332   3.149   6.334
 6524TIP3    H219516   4.458   3.163   6.417
 6525TIP3   OH219517   6.142   5.995   4.744
 6525TIP3    H119518   6.102   6.069   4.790
 6525TIP3    H219519   6.112   5.918   4.793
 6526TIP3   OH219520   0.390   1.276   5.069
 6526TIP3    H119521   0.432   1.213   5.127
 6526TIP3    H219522   0.385   1.357   5.121
 6527TIP3   OH219523   5.615   5.618   1.787
 6527TIP3    H119524   5.606   5.675   1.863
 6527TIP3    H219525   5.703   5.581   1.795
 6528TIP3   OH219526   3.956   0.835   0.999
 6528TIP3    H119527   4.014   0.852   0.925
 6528TIP3    H219528   3.967   0.742   1.018
 6529TIP3   OH219529   0.180   6.000   4.076
 6529TIP3    H119530   0.092   5.998   4.038
 6529TIP3    H219531   0.238   6.020   4.003
 6530TIP3   OH219532   7.442   3.489   1.493
 6530TIP3    H119533   7.398   3.551   1.435
 6530TIP3    H219534   7.371   3.444   1.538
 6531TIP3   OH219535   8.161   6.825   1.895
 6531TIP3    H119536   8.172   6.847   1.987
 6531TIP3    H219537   8.137   6.907   1.853
 6532TIP3   OH219538   2.189   7.510   4.680
 6532TIP3    H119539   2.276   7.489   4.647
 6532TIP3    H219540   2.133   7.441   4.645
 6533TIP3   OH219541   4.174   1.883   2.385
 6533TIP3    H119542   4.225   1.819   2.336
 6533TIP3    H219543   4.162   1.956   2.325
 6534TIP3   OH219544   5.449   6.477   0.172
 6534TIP3    H119545   5.532   6.447   0.209
 6534TIP3    H219546   5.472   6.507   0.084
 6535TIP3   OH219547   0.885   0.088   6.488
 6535TIP3    H119548   0.973   0.119   6.468
 6535TIP3    H219549   0.864   0.128   6.572
 6536TIP3   OH219550   1.785   0.887   2.269
 6536TIP3    H119551   1.828   0.958   2.221
 6536TIP3    H219552   1.774   0.920   2.358
 6537TIP3   OH219553   7.883   7.038   5.028
 6537TIP3    H119554   7.893   7.134   5.030
 6537TIP3    H219555   7.891   7.015   4.935
 6538TIP3   OH219556   1.199   1.786   6.198
 6538TIP3    H119557   1.231   1.804   6.286
 6538TIP3    H219558   1.153   1.866   6.172
 6539TIP3   OH219559   5.342   4.434   1.208
 6539TIP3    H119560   5.395   4.377   1.264
 6539TIP3    H219561   5.252   4.418   1.235
 6540TIP3   OH219562   6.524   1.332   6.755
 6540TIP3    H119563   6.604   1.383   6.741
 6540TIP3    H219564   6.453   1.392   6.732
 6541TIP3   OH219565   4.824   5.631   2.656
 6541TIP3    H119566   4.837   5.627   2.751
 6541TIP3    H219567   4.742   5.584   2.642
 6542TIP3   OH219568   1.991   0.016   6.575
 6542TIP3    H119569   1.961   0.029   6.665
 6542TIP3    H219570   1.916   0.039   6.521
 6543TIP3   OH219571   5.752   5.615   5.009
 6543TIP3    H119572   5.783   5.634   5.098
 6543TIP3    H219573   5.788   5.686   4.956
 6544TIP3   OH219574   6.436   5.560   6.229
 6544TIP3    H119575   6.354   5.577   6.274
 6544TIP3    H219576   6.504   5.571   6.296
 6545TIP3   OH219577   1.514   2.884   2.390
 6545TIP3    H119578   1.455   2.952   2.424
 6545TIP3    H219579   1.501   2.810   2.448
 6546TIP3   OH219580   3.925   3.399   5.217
 6546TIP3    H119581   3.893   3.391   5.127
 6546TIP3    H219582   4.019   3.414   5.207
 6547TIP3   OH219583   1.840   1.907   1.583
 6547TIP3    H119584   1.893   1.983   1.558
 6547TIP3    H219585   1.888   1.865   1.654
 6548TIP3   OH219586   4.058   6.471   0.791
 6548TIP3    H119587   4.014   6.467   0.706
 6548TIP3    H219588   4.148   6.493   0.770
 6549TIP3   OH219589   5.195   2.599   1.479
 6549TIP3    H119590   5.194   2.563   1.568
 6549TIP3    H219591   5.269   2.660   1.479
 6550TIP3   OH219592   5.786   4.487   6.521
 6550TIP3    H119593   5.759   4.402   6.555
 6550TIP3    H219594   5.881   4.478   6.507
 6551TIP3   OH219595   0.135   1.999   5.543
 6551TIP3    H119596   0.174   2.044   5.468
 6551TIP3    H219597   0.208   1.949   5.581
 6552TIP3   OH219598   6.535   2.931   0.416
 6552TIP3    H119599   6.573   2.952   0.331
 6552TIP3    H219600   6.527   3.016   0.460
 6553TIP3   OH219601   3.418   2.642   4.179
 6553TIP3    H119602   3.330   2.617   4.207
 6553TIP3    H219603   3.456   2.562   4.144
 6554TIP3   OH219604   3.933   6.091   0.720
 6554TIP3    H119605   3.879   6.142   0.780
 6554TIP3    H219606   3.871   6.057   0.655
 6555TIP3   OH219607   6.367   4.792   5.362
 6555TIP3    H119608   6.424   4.794   5.439
 6555TIP3    H219609   6.415   4.840   5.295
 6556TIP3   OH219610   5.219   5.800   2.863
 6556TIP3    H119611   5.307   5.788   2.899
 6556TIP3    H219612   5.175   5.716   2.880
 6557TIP3   OH219613   3.741   4.591   4.398
 6557TIP3    H119614   3.809   4.635   4.347
 6557TIP3    H219615   3.774   4.502   4.410
 6558TIP3   OH219616   0.263   4.211   5.472
 6558TIP3    H119617   0.212   4.136   5.442
 6558TIP3    H219618   0.341   4.173   5.512
 6559TIP3   OH219619   2.262   2.993   4.843
 6559TIP3    H119620   2.208   3.056   4.891
 6559TIP3    H219621   2.344   3.039   4.826
 6560TIP3   OH219622   0.329   1.727   6.007
 6560TIP3    H119623   0.328   1.821   5.995
 6560TIP3    H219624   0.414   1.709   6.047
 6561TIP3   OH219625   2.576   6.056   3.147
 6561TIP3    H119626   2.526   6.127   3.107
 6561TIP3    H219627   2.525   6.032   3.225
 6562TIP3   OH219628   0.250   1.222   4.443
 6562TIP3    H119629   0.195   1.163   4.392
 6562TIP3    H219630   0.339   1.191   4.429
 6563TIP3   OH219631   5.270   4.083   1.172
 6563TIP3    H119632   5.315   4.028   1.236
 6563TIP3    H219633   5.191   4.112   1.217
 6564TIP3   OH219634   0.321   6.514   6.195
 6564TIP3    H119635   0.225   6.521   6.198
 6564TIP3    H219636   0.339   6.422   6.211
 6565TIP3   OH219637   6.481   2.414   3.003
 6565TIP3    H119638   6.409   2.435   2.944
 6565TIP3    H219639   6.503   2.323   2.983
 6566TIP3   OH219640   7.999   6.931   2.393
 6566TIP3    H119641   7.945   6.887   2.327
 6566TIP3    H219642   7.984   6.881   2.473
 6567TIP3   OH219643   6.984   6.753   1.809
 6567TIP3    H119644   7.023   6.758   1.722
 6567TIP3    H219645   6.897   6.716   1.794
 6568TIP3   OH219646   0.785   6.630   2.399
 6568TIP3    H119647   0.707   6.604   2.448
 6568TIP3    H219648   0.853   6.570   2.428
 6569TIP3   OH219649   3.775   4.694   5.215
 6569TIP3    H119650   3.705   4.711   5.152
 6569TIP3    H219651   3.793   4.600   5.207
 6570TIP3   OH219652   0.642   0.691   6.152
 6570TIP3    H119653   0.717   0.711   6.097
 6570TIP3    H219654   0.567   0.696   6.093
 6571TIP3   OH219655   7.248   7.379   2.435
 6571TIP3    H119656   7.321   7.343   2.486
 6571TIP3    H219657   7.173   7.373   2.495
 6572TIP3   OH219658   7.740   1.684   2.519
 6572TIP3    H119659   7.812   1.660   2.577
 6572TIP3    H219660   7.725   1.777   2.535
 6573TIP3   OH219661   6.002   1.899   3.173
 6573TIP3    H119662   6.090   1.861   3.164
 6573TIP3    H219663   6.015   1.992   3.158
 6574TIP3   OH219664   0.078   0.447   5.172
 6574TIP3    H119665  -0.006   0.442   5.218
 6574TIP3    H219666   0.108   0.356   5.168
 6575TIP3   OH219667   4.611   2.216   0.870
 6575TIP3    H119668   4.619   2.165   0.789
 6575TIP3    H219669   4.516   2.220   0.886
 6576TIP3   OH219670   5.097   5.952   0.364
 6576TIP3    H119671   5.108   6.043   0.337
 6576TIP3    H219672   5.081   5.956   0.458
 6577TIP3   OH219673   6.179   6.805   6.061
 6577TIP3    H119674   6.222   6.727   6.026
 6577TIP3    H219675   6.206   6.809   6.153
 6578TIP3   OH219676   5.559   0.769   2.614
 6578TIP3    H119677   5.633   0.711   2.629
 6578TIP3    H219678   5.588   0.829   2.545
 6579TIP3   OH219679   0.813   4.164   4.524
 6579TIP3    H119680   0.892   4.124   4.488
 6579TIP3    H219681   0.830   4.170   4.618
 6580TIP3   OH219682   5.745   5.075   6.321
 6580TIP3    H119683   5.755   5.048   6.230
 6580TIP3    H219684   5.664   5.032   6.350
 6581TIP3   OH219685   7.575   6.351   6.104
 6581TIP3    H119686   7.539   6.336   6.017
 6581TIP3    H219687   7.550   6.273   6.154
 6582TIP3   OH219688   0.213   2.938   0.600
 6582TIP3    H119689   0.248   2.853   0.574
 6582TIP3    H219690   0.131   2.917   0.646
 6583TIP3   OH219691   5.454   5.105   1.936
 6583TIP3    H119692   5.460   5.088   1.842
 6583TIP3    H219693   5.452   5.201   1.942
 6584TIP3   OH219694   2.943   7.155   1.562
 6584TIP3    H119695   2.870   7.149   1.624
 6584TIP3    H219696   3.005   7.089   1.592
 6585TIP3   OH219697   6.550   0.965   3.758
 6585TIP3    H119698   6.577   0.908   3.686
 6585TIP3    H219699   6.627   1.019   3.776
 6586TIP3   OH219700   0.273   7.377   1.383
 6586TIP3    H119701   0.315   7.418   1.459
 6586TIP3    H219702   0.279   7.443   1.314
 6587TIP3   OH219703   3.717   3.911   2.275
 6587TIP3    H119704   3.740   3.925   2.183
 6587TIP3    H219705   3.801   3.907   2.320
 6588TIP3   OH219706   1.256   0.669   5.328
 6588TIP3    H119707   1.328   0.701   5.274
 6588TIP3    H219708   1.209   0.608   5.272
 6589TIP3   OH219709   7.703   1.858   0.554
 6589TIP3    H119710   7.794   1.853   0.526
 6589TIP3    H219711   7.683   1.771   0.588
 6590TIP3   OH219712   7.966   7.625   2.112
 6590TIP3    H119713   8.033   7.692   2.093
 6590TIP3    H219714   8.012   7.542   2.098
 6591TIP3   OH219715   6.207   7.418   6.080
 6591TIP3    H119716   6.144   7.486   6.105
 6591TIP3    H219717   6.266   7.462   6.019
 6592TIP3   OH219718   3.081   2.411   4.428
 6592TIP3    H119719   3.057   2.406   4.521
 6592TIP3    H219720   3.119   2.326   4.409
 6593TIP3   OH219721   5.625   0.564   6.352
 6593TIP3    H119722   5.603   0.485   6.303
 6593TIP3    H219723   5.561   0.629   6.323
 6594TIP3   OH219724   6.128   2.123   4.461
 6594TIP3    H119725   6.203   2.084   4.418
 6594TIP3    H219726   6.054   2.066   4.438
 6595TIP3   OH219727   2.440   3.845   6.303
 6595TIP3    H119728   2.467   3.890   6.382
 6595TIP3    H219729   2.344   3.850   6.303
 6596TIP3   OH219730   0.755   2.020   0.814
 6596TIP3    H119731   0.788   2.016   0.904
 6596TIP3    H219732   0.675   2.072   0.821
 6597TIP3   OH219733   1.664   5.353   5.478
 6597TIP3    H119734   1.753   5.387   5.484
 6597TIP3    H219735   1.635   5.377   5.390
 6598TIP3   OH219736   1.728   6.822   5.210
 6598TIP3    H119737   1.729   6.817   5.305
 6598TIP3    H219738   1.741   6.731   5.181
 6599TIP3   OH219739   7.733   1.342   6.460
 6599TIP3    H119740   7.667   1.411   6.456
 6599TIP3    H219741   7.715   1.296   6.542
 6600TIP3   OH219742   1.954   0.337   5.936
 6600TIP3    H119743   2.046   0.311   5.937
 6600TIP3    H219744   1.954   0.423   5.895
 6601TIP3   OH219745   4.869   0.221   3.768
 6601TIP3    H119746   4.910   0.299   3.730
 6601TIP3    H219747   4.871   0.237   3.862
 6602TIP3   OH219748   0.695   5.863   0.564
 6602TIP3    H119749   0.668   5.828   0.649
 6602TIP3    H219750   0.786   5.889   0.576
 6603TIP3   OH219751   5.335   5.168   4.894
 6603TIP3    H119752   5.353   5.104   4.962
 6603TIP3    H219753   5.347   5.121   4.812
 6604TIP3   OH219754   1.007   4.857   5.661
 6604TIP3    H119755   1.043   4.943   5.639
 6604TIP3    H219756   0.973   4.868   5.750
 6605TIP3   OH219757   3.983   4.549   3.787
 6605TIP3    H119758   3.909   4.595   3.828
 6605TIP3    H219759   3.954   4.459   3.779
 6606TIP3   OH219760   3.139   3.197   3.249
 6606TIP3    H119761   3.130   3.160   3.161
 6606TIP3    H219762   3.157   3.121   3.305
 6607TIP3   OH219763   4.144   0.830   3.309
 6607TIP3    H119764   4.064   0.884   3.312
 6607TIP3    H219765   4.202   0.869   3.374
 6608TIP3   OH219766   5.592   3.209   3.447
 6608TIP3    H119767   5.579   3.303   3.447
 6608TIP3    H219768   5.504   3.172   3.455
 6609TIP3   OH219769   5.413   0.602   2.073
 6609TIP3    H119770   5.506   0.584   2.058
 6609TIP3    H219771   5.385   0.536   2.137
 6610TIP3   OH219772   3.766   1.837   1.221
 6610TIP3    H119773   3.685   1.874   1.186
 6610TIP3    H219774   3.822   1.912   1.238
 6611TIP3   OH219775   0.275   4.493   6.481
 6611TIP3    H119776   0.223   4.424   6.522
 6611TIP3    H219777   0.348   4.508   6.542
 6612TIP3   OH219778   3.008   6.230   0.094
 6612TIP3    H119779   2.933   6.217   0.151
 6612TIP3    H219780   3.075   6.171   0.129
 6613TIP3   OH219781   5.121   0.937   0.386
 6613TIP3    H119782   5.092   1.025   0.410
 6613TIP3    H219783   5.139   0.894   0.470
 6614TIP3   OH219784   3.107   7.714   3.359
 6614TIP3    H119785   3.077   7.725   3.268
 6614TIP3    H219786   3.027   7.693   3.408
 6615TIP3   OH219787   2.379   2.856   1.879
 6615TIP3    H119788   2.353   2.858   1.786
 6615TIP3    H219789   2.437   2.931   1.889
 6616TIP3   OH219790   7.192   0.344   4.837
 6616TIP3    H119791   7.108   0.388   4.821
 6616TIP3    H219792   7.249   0.413   4.871
 6617TIP3   OH219793   6.364   4.899   5.941
 6617TIP3    H119794   6.305   4.968   5.910
 6617TIP3    H219795   6.347   4.825   5.884
 6618TIP3   OH219796   7.308   6.429   0.587
 6618TIP3    H119797   7.271   6.440   0.675
 6618TIP3    H219798   7.394   6.390   0.602
 6619TIP3   OH219799   7.802   2.521   3.757
 6619TIP3    H119800   7.761   2.434   3.754
 6619TIP3    H219801   7.778   2.555   3.843
 6620TIP3   OH219802   7.381   4.829   6.746
 6620TIP3    H119803   7.448   4.892   6.717
 6620TIP3    H219804   7.299   4.878   6.743
 6621TIP3   OH219805   7.693   6.520   1.452
 6621TIP3    H119806   7.779   6.488   1.479
 6621TIP3    H219807   7.635   6.445   1.464
 6622TIP3   OH219808   2.957   3.297   2.632
 6622TIP3    H119809   2.962   3.350   2.712
 6622TIP3    H219810   2.949   3.361   2.561
 6623TIP3   OH219811   4.517   0.769   0.924
 6623TIP3    H119812   4.565   0.687   0.932
 6623TIP3    H219813   4.554   0.825   0.994
 6624TIP3   OH219814   6.217   5.509   1.063
 6624TIP3    H119815   6.309   5.490   1.045
 6624TIP3    H219816   6.219   5.585   1.121
 6625TIP3   OH219817   8.039   4.746   2.486
 6625TIP3    H119818   8.111   4.803   2.516
 6625TIP3    H219819   7.983   4.736   2.563
 6626TIP3   OH219820   7.573   7.111   5.997
 6626TIP3    H119821   7.555   7.180   5.934
 6626TIP3    H219822   7.534   7.032   5.959
 6627TIP3   OH219823   7.067   3.262   4.214
 6627TIP3    H119824   7.126   3.223   4.150
 6627TIP3    H219825   7.118   3.331   4.256
 6628TIP3   OH219826   6.707   1.970   4.605
 6628TIP3    H119827   6.786   2.018   4.631
 6628TIP3    H219828   6.732   1.927   4.523
 6629TIP3   OH219829   0.683   0.583   2.806
 6629TIP3    H119830   0.738   0.507   2.788
 6629TIP3    H219831   0.638   0.561   2.887
 6630TIP3   OH219832   5.030   2.219   2.280
 6630TIP3    H119833   4.936   2.203   2.285
 6630TIP3    H219834   5.054   2.200   2.189
 6631TIP3   OH219835   1.474   7.387   1.060
 6631TIP3    H119836   1.439   7.354   0.977
 6631TIP3    H219837   1.467   7.482   1.053
 6632TIP3   OH219838   0.252   7.057   2.495
 6632TIP3    H119839   0.168   7.028   2.459
 6632TIP3    H219840   0.309   7.063   2.418
 6633TIP3   OH219841   1.870   6.835   4.835
 6633TIP3    H119842   1.776   6.849   4.834
 6633TIP3    H219843   1.899   6.871   4.919
 6634TIP3   OH219844   4.674   4.010   0.073
 6634TIP3    H119845   4.750   4.042   0.122
 6634TIP3    H219846   4.602   4.068   0.100
 6635TIP3   OH219847   7.242   0.695   2.802
 6635TIP3    H119848   7.260   0.606   2.832
 6635TIP3    H219849   7.147   0.704   2.809
 6636TIP3   OH219850   3.692   7.057   3.132
 6636TIP3    H119851   3.698   6.961   3.124
 6636TIP3    H219852   3.724   7.075   3.221
 6637TIP3   OH219853   2.677   4.069   6.076
 6637TIP3    H119854   2.618   4.145   6.076
 6637TIP3    H219855   2.621   3.995   6.050
 6638TIP3   OH219856   5.585   1.284   2.357
 6638TIP3    H119857   5.512   1.307   2.299
 6638TIP3    H219858   5.545   1.229   2.425
 6639TIP3   OH219859   6.822   7.623   1.609
 6639TIP3    H119860   6.854   7.611   1.698
 6639TIP3    H219861   6.793   7.535   1.582
 6640TIP3   OH219862   2.021   3.098   1.199
 6640TIP3    H119863   1.941   3.134   1.161
 6640TIP3    H219864   1.992   3.018   1.244
 6641TIP3   OH219865   4.218   6.355   1.740
 6641TIP3    H119866   4.176   6.269   1.738
 6641TIP3    H219867   4.236   6.374   1.649
 6642TIP3   OH219868   7.701   5.662   4.225
 6642TIP3    H119869   7.755   5.644   4.302
 6642TIP3    H219870   7.734   5.746   4.192
 6643TIP3   OH219871   2.332   3.295   4.889
 6643TIP3    H119872   2.362   3.291   4.980
 6643TIP3    H219873   2.406   3.263   4.838
 6644TIP3   OH219874   4.477   4.275   6.447
 6644TIP3    H119875   4.524   4.299   6.527
 6644TIP3    H219876   4.542   4.227   6.395
 6645TIP3   OH219877   1.171   1.213   1.075
 6645TIP3    H119878   1.259   1.249   1.084
 6645TIP3    H219879   1.174   1.164   0.993
 6646TIP3   OH219880   2.308   0.868   5.210
 6646TIP3    H119881   2.399   0.839   5.204
 6646TIP3    H219882   2.263   0.797   5.256
 6647TIP3   OH219883   1.322   4.782   1.262
 6647TIP3    H119884   1.263   4.848   1.225
 6647TIP3    H219885   1.264   4.711   1.290
 6648TIP3   OH219886   0.491   0.407   3.575
 6648TIP3    H119887   0.499   0.335   3.513
 6648TIP3    H219888   0.448   0.368   3.651
 6649TIP3   OH219889   1.808   4.240   3.602
 6649TIP3    H119890   1.797   4.296   3.678
 6649TIP3    H219891   1.885   4.187   3.622
 6650TIP3   OH219892   1.457   5.522   4.288
 6650TIP3    H119893   1.548   5.494   4.302
 6650TIP3    H219894   1.404   5.453   4.327
 6651TIP3   OH219895   5.723   3.477   4.960
 6651TIP3    H119896   5.688   3.388   4.962
 6651TIP3    H219897   5.679   3.519   4.887
 6652TIP3   OH219898   0.884   2.855   2.640
 6652TIP3    H119899   0.907   2.808   2.720
 6652TIP3    H219900   0.935   2.936   2.644
 6653TIP3   OH219901   1.115   4.372   1.275
 6653TIP3    H119902   1.087   4.460   1.250
 6653TIP3    H219903   1.065   4.314   1.218
 6654TIP3   OH219904   4.375   3.526   3.950
 6654TIP3    H119905   4.334   3.586   4.013
 6654TIP3    H219906   4.416   3.584   3.886
 6655TIP3   OH219907   6.009   6.095   3.036
 6655TIP3    H119908   5.939   6.045   2.993
 6655TIP3    H219909   6.087   6.041   3.024
 6656TIP3   OH219910   7.847   7.262   1.640
 6656TIP3    H119911   7.811   7.347   1.663
 6656TIP3    H219912   7.770   7.203   1.640
 6657TIP3   OH219913   5.611   5.111   3.930
 6657TIP3    H119914   5.565   5.155   3.857
 6657TIP3    H219915   5.703   5.129   3.915
 6658TIP3   OH219916   2.561   3.622   2.004
 6658TIP3    H119917   2.512   3.562   1.948
 6658TIP3    H219918   2.539   3.594   2.093
 6659TIP3   OH219919   2.772   6.806   5.568
 6659TIP3    H119920   2.807   6.835   5.483
 6659TIP3    H219921   2.753   6.713   5.555
 6660TIP3   OH219922   7.231   1.352   0.311
 6660TIP3    H119923   7.270   1.428   0.354
 6660TIP3    H219924   7.302   1.315   0.258
 6661TIP3   OH219925   5.867   1.254   5.067
 6661TIP3    H119926   5.809   1.184   5.095
 6661TIP3    H219927   5.941   1.249   5.128
 6662TIP3   OH219928   6.571   4.518   5.343
 6662TIP3    H119929   6.555   4.510   5.249
 6662TIP3    H219930   6.605   4.606   5.355
 6663TIP3   OH219931   5.986   7.174   2.929
 6663TIP3    H119932   6.065   7.206   2.972
 6663TIP3    H219933   5.963   7.094   2.976
 6664TIP3   OH219934   2.195   7.248   5.151
 6664TIP3    H119935   2.273   7.251   5.094
 6664TIP3    H219936   2.228   7.216   5.235
 6665TIP3   OH219937   3.716   2.110   0.321
 6665TIP3    H119938   3.634   2.123   0.368
 6665TIP3    H219939   3.693   2.115   0.229
 6666TIP3   OH219940   3.783   1.226   6.274
 6666TIP3    H119941   3.827   1.201   6.193
 6666TIP3    H219942   3.721   1.294   6.247
 6667TIP3   OH219943   3.685   0.809   4.030
 6667TIP3    H119944   3.664   0.722   3.995
 6667TIP3    H219945   3.712   0.860   3.954
 6668TIP3   OH219946   5.077   3.331   6.666
 6668TIP3    H119947   5.143   3.363   6.728
 6668TIP3    H219948   5.108   3.360   6.581
 6669TIP3   OH219949   1.976   7.054   1.836
 6669TIP3    H119950   1.951   6.999   1.761
 6669TIP3    H219951   2.056   7.098   1.806
 6670TIP3   OH219952   0.532   2.690   0.656
 6670TIP3    H119953   0.447   2.691   0.612
 6670TIP3    H219954   0.537   2.775   0.700
 6671TIP3   OH219955   3.827   0.041   0.706
 6671TIP3    H119956   3.799   0.112   0.648
 6671TIP3    H219957   3.745   0.003   0.738
 6672TIP3   OH219958   1.338   2.263   4.305
 6672TIP3    H119959   1.349   2.226   4.217
 6672TIP3    H219960   1.411   2.323   4.315
 6673TIP3   OH219961   4.338   5.662   5.940
 6673TIP3    H119962   4.335   5.616   6.025
 6673TIP3    H219963   4.249   5.696   5.929
 6674TIP3   OH219964   1.581   2.699   4.053
 6674TIP3    H119965   1.653   2.637   4.047
 6674TIP3    H219966   1.521   2.660   4.116
 6675TIP3   OH219967   6.429   6.330   3.126
 6675TIP3    H119968   6.405   6.394   3.059
 6675TIP3    H219969   6.508   6.365   3.167
 6676TIP3   OH219970   5.920   0.907   0.968
 6676TIP3    H119971   5.869   0.839   1.012
 6676TIP3    H219972   5.862   0.939   0.898
 6677TIP3   OH219973   4.645   5.790   6.286
 6677TIP3    H119974   4.637   5.815   6.378
 6677TIP3    H219975   4.738   5.770   6.276
 6678TIP3   OH219976   7.798   1.798   1.384
 6678TIP3    H119977   7.884   1.840   1.383
 6678TIP3    H219978   7.807   1.726   1.447
 6679TIP3   OH219979   5.938   6.096   6.015
 6679TIP3    H119980   5.883   6.088   6.094
 6679TIP3    H219981   6.018   6.049   6.037
 6680TIP3   OH219982   7.543   3.010   1.839
 6680TIP3    H119983   7.589   3.067   1.777
 6680TIP3    H219984   7.577   2.922   1.819
 6681TIP3   OH219985   4.200   6.695   1.786
 6681TIP3    H119986   4.236   6.772   1.830
 6681TIP3    H219987   4.276   6.655   1.742
 6682TIP3   OH219988   3.780   0.909   0.262
 6682TIP3    H119989   3.765   0.916   0.357
 6682TIP3    H219990   3.693   0.908   0.224
 6683TIP3   OH219991   4.317   7.071   4.589
 6683TIP3    H119992   4.327   7.099   4.680
 6683TIP3    H219993   4.306   7.153   4.540
 6684TIP3   OH219994   5.913   7.634   4.115
 6684TIP3    H119995   5.907   7.659   4.023
 6684TIP3    H219996   5.875   7.708   4.162
 6685TIP3   OH219997   1.903   4.075   1.426
 6685TIP3    H119998   1.923   4.060   1.333
 6685TIP3    H219999   1.819   4.120   1.425
 6686TIP3   OH220000   1.291   1.101   5.037
 6686TIP3    H120001   1.291   1.135   4.948
 6686TIP3    H220002   1.218   1.144   5.080
 6687TIP3   OH220003   1.011   1.568   3.784
 6687TIP3    H120004   1.096   1.582   3.825
 6687TIP3    H220005   1.023   1.488   3.733
 6688TIP3   OH220006   3.709   4.032   1.325
 6688TIP3    H120007   3.641   4.051   1.389
 6688TIP3    H220008   3.663   4.024   1.242
 6689TIP3   OH220009   6.444   3.190   1.651
 6689TIP3    H120010   6.456   3.108   1.603
 6689TIP3    H220011   6.349   3.196   1.665
 6690TIP3   OH220012   2.984   0.136   0.598
 6690TIP3    H120013   2.892   0.163   0.604
 6690TIP3    H220014   3.033   0.214   0.625
 6691TIP3   OH220015   1.998   4.242   5.121
 6691TIP3    H120016   1.982   4.227   5.028
 6691TIP3    H220017   2.029   4.333   5.125
 6692TIP3   OH220018   5.656   3.646   4.237
 6692TIP3    H120019   5.723   3.623   4.172
 6692TIP3    H220020   5.601   3.711   4.193
 6693TIP3   OH220021   1.409   4.384   6.167
 6693TIP3    H120022   1.381   4.339   6.087
 6693TIP3    H220023   1.327   4.414   6.206
 6694TIP3   OH220024   4.592   6.777   1.685
 6694TIP3    H120025   4.561   6.686   1.681
 6694TIP3    H220026   4.669   6.779   1.628
 6695TIP3   OH220027   6.603   0.914   0.955
 6695TIP3    H120028   6.646   0.896   1.038
 6695TIP3    H220029   6.582   0.827   0.919
 6696TIP3   OH220030   5.536   0.644   6.006
 6696TIP3    H120031   5.473   0.674   6.072
 6696TIP3    H220032   5.489   0.653   5.923
 6697TIP3   OH220033   1.924   0.587   5.262
 6697TIP3    H120034   1.865   0.642   5.210
 6697TIP3    H220035   1.873   0.565   5.340
 6698TIP3   OH220036   2.318   0.250   6.555
 6698TIP3    H120037   2.369   0.327   6.531
 6698TIP3    H220038   2.351   0.223   6.640
 6699TIP3   OH220039   7.921   4.834   2.707
 6699TIP3    H120040   7.958   4.916   2.739
 6699TIP3    H220041   7.826   4.845   2.719
 6700TIP3   OH220042   0.226   7.276   1.751
 6700TIP3    H120043   0.258   7.365   1.734
 6700TIP3    H220044   0.293   7.237   1.807
 6701TIP3   OH220045   0.107   3.382   0.534
 6701TIP3    H120046   0.056   3.453   0.572
 6701TIP3    H220047   0.049   3.305   0.539
 6702TIP3   OH220048   7.924   5.710   6.352
 6702TIP3    H120049   8.004   5.676   6.394
 6702TIP3    H220050   7.855   5.694   6.416
 6703TIP3   OH220051   0.450   6.099   4.443
 6703TIP3    H120052   0.465   6.109   4.537
 6703TIP3    H220053   0.536   6.116   4.404
 6704TIP3   OH220054   0.997   3.219   4.629
 6704TIP3    H120055   1.033   3.230   4.541
 6704TIP3    H220056   1.064   3.257   4.686
 6705TIP3   OH220057   7.369   0.704   1.557
 6705TIP3    H120058   7.464   0.693   1.555
 6705TIP3    H220059   7.337   0.654   1.482
 6706TIP3   OH220060   5.136   2.394   6.066
 6706TIP3    H120061   5.158   2.443   5.987
 6706TIP3    H220062   5.157   2.453   6.138
 6707TIP3   OH220063   6.506   4.172   2.862
 6707TIP3    H120064   6.502   4.143   2.953
 6707TIP3    H220065   6.545   4.259   2.866
 6708TIP3   OH220066   3.133   1.953   2.949
 6708TIP3    H120067   3.218   1.972   2.911
 6708TIP3    H220068   3.076   1.934   2.874
 6709TIP3   OH220069   1.954   1.293   1.166
 6709TIP3    H120070   2.002   1.278   1.084
 6709TIP3    H220071   1.915   1.208   1.186
 6710TIP3   OH220072   2.421   5.134   1.905
 6710TIP3    H120073   2.488   5.109   1.841
 6710TIP3    H220074   2.398   5.051   1.948
 6711TIP3   OH220075   7.443   3.141   1.245
 6711TIP3    H120076   7.423   3.083   1.172
 6711TIP3    H220077   7.379   3.119   1.312
 6712TIP3   OH220078   0.805   1.796   5.997
 6712TIP3    H120079   0.817   1.872   6.055
 6712TIP3    H220080   0.878   1.803   5.935
 6713TIP3   OH220081   0.320   6.179   1.357
 6713TIP3    H120082   0.303   6.091   1.324
 6713TIP3    H220083   0.381   6.165   1.430
 6714TIP3   OH220084   3.348   6.850   6.063
 6714TIP3    H120085   3.316   6.836   6.152
 6714TIP3    H220086   3.417   6.916   6.073
 6715TIP3   OH220087   7.992   5.105   2.529
 6715TIP3    H120088   7.959   5.026   2.486
 6715TIP3    H220089   8.023   5.074   2.614
 6716TIP3   OH220090   1.437   6.404   2.185
 6716TIP3    H120091   1.526   6.417   2.218
 6716TIP3    H220092   1.447   6.401   2.090
 6717TIP3   OH220093   0.210   7.472   6.509
 6717TIP3    H120094   0.179   7.439   6.593
 6717TIP3    H220095   0.303   7.488   6.522
 6718TIP3   OH220096   7.016   4.699   4.722
 6718TIP3    H120097   7.083   4.687   4.789
 6718TIP3    H220098   7.066   4.717   4.642
 6719TIP3   OH220099   8.288   4.456   2.870
 6719TIP3    H120100   8.212   4.512   2.856
 6719TIP3    H220101   8.339   4.501   2.938
 6720TIP3   OH220102   4.094   1.567   0.603
 6720TIP3    H120103   4.015   1.517   0.586
 6720TIP3    H220104   4.063   1.651   0.638
 6721TIP3   OH220105   7.904   0.162   5.974
 6721TIP3    H120106   7.849   0.127   6.044
 6721TIP3    H220107   7.881   0.255   5.971
 6722TIP3   OH220108   3.022   4.056   3.663
 6722TIP3    H120109   3.046   4.039   3.754
 6722TIP3    H220110   3.093   4.112   3.629
 6723TIP3   OH220111   3.698   2.233   1.191
 6723TIP3    H120112   3.779   2.186   1.173
 6723TIP3    H220113   3.674   2.208   1.280
 6724TIP3   OH220114   4.589  -0.014   0.793
 6724TIP3    H120115   4.508   0.036   0.806
 6724TIP3    H220116   4.567  -0.080   0.728
 6725TIP3   OH220117   1.532   7.564   4.185
 6725TIP3    H120118   1.453   7.614   4.208
 6725TIP3    H220119   1.504   7.509   4.112
 6726TIP3   OH220120   1.957   5.548   6.036
 6726TIP3    H120121   1.999   5.630   6.063
 6726TIP3    H220122   1.955   5.553   5.941
 6727TIP3   OH220123   7.420   4.554   6.629
 6727TIP3    H120124   7.500   4.524   6.673
 6727TIP3    H220125   7.419   4.649   6.642
 6728TIP3   OH220126   2.164   0.884   3.394
 6728TIP3    H120127   2.082   0.865   3.439
 6728TIP3    H220128   2.205   0.799   3.380
 6729TIP3   OH220129   7.950   3.540   6.484
 6729TIP3    H120130   8.011   3.516   6.415
 6729TIP3    H220131   7.882   3.591   6.439
 6730TIP3   OH220132   8.129   0.934   1.417
 6730TIP3    H120133   8.078   0.938   1.498
 6730TIP3    H220134   8.074   0.980   1.352
 6731TIP3   OH220135   7.629   1.516   2.357
 6731TIP3    H120136   7.708   1.462   2.360
 6731TIP3    H220137   7.650   1.593   2.410
 6732TIP3   OH220138   6.718   7.745   4.034
 6732TIP3    H120139   6.725   7.808   3.962
 6732TIP3    H220140   6.660   7.788   4.097
 6733TIP3   OH220141   6.776   6.801   2.817
 6733TIP3    H120142   6.756   6.893   2.800
 6733TIP3    H220143   6.690   6.760   2.826
 6734TIP3   OH220144   0.785   0.612   2.171
 6734TIP3    H120145   0.855   0.546   2.167
 6734TIP3    H220146   0.744   0.607   2.085
 6735TIP3   OH220147   4.579   7.078   6.623
 6735TIP3    H120148   4.505   7.027   6.592
 6735TIP3    H220149   4.646   7.067   6.556
 6736TIP3   OH220150   4.256   3.937   6.759
 6736TIP3    H120151   4.285   3.892   6.838
 6736TIP3    H220152   4.291   3.884   6.687
 6737TIP3   OH220153   1.753   2.527   6.677
 6737TIP3    H120154   1.686   2.546   6.611
 6737TIP3    H220155   1.719   2.452   6.725
 6738TIP3   OH220156   2.465   6.080   2.127
 6738TIP3    H120157   2.469   5.984   2.131
 6738TIP3    H220158   2.537   6.105   2.070
 6739TIP3   OH220159   4.706   5.837   2.365
 6739TIP3    H120160   4.693   5.742   2.369
 6739TIP3    H220161   4.618   5.872   2.348
 6740TIP3   OH220162   2.158   4.241   1.424
 6740TIP3    H120163   2.225   4.288   1.374
 6740TIP3    H220164   2.108   4.194   1.358
 6741TIP3   OH220165   6.257   4.971   3.322
 6741TIP3    H120166   6.302   5.044   3.363
 6741TIP3    H220167   6.317   4.897   3.333
 6742TIP3   OH220168   4.323   5.766   0.793
 6742TIP3    H120169   4.411   5.762   0.756
 6742TIP3    H220170   4.300   5.858   0.789
 6743TIP3   OH220171   2.936   0.261   3.894
 6743TIP3    H120172   3.011   0.308   3.930
 6743TIP3    H220173   2.965   0.170   3.887
 6744TIP3   OH220174   6.576   2.804   3.596
 6744TIP3    H120175   6.536   2.744   3.533
 6744TIP3    H220176   6.585   2.886   3.547
 6745TIP3   OH220177   2.416   3.824   5.330
 6745TIP3    H120178   2.414   3.903   5.384
 6745TIP3    H220179   2.345   3.770   5.365
 6746TIP3   OH220180   5.529   1.154   2.590
 6746TIP3    H120181   5.440   1.163   2.623
 6746TIP3    H220182   5.583   1.149   2.669
 6747TIP3   OH220183   7.780   2.910   3.931
 6747TIP3    H120184   7.809   2.822   3.952
 6747TIP3    H220185   7.843   2.968   3.974
 6748TIP3   OH220186   1.591   6.249   3.595
 6748TIP3    H120187   1.645   6.327   3.610
 6748TIP3    H220188   1.620   6.216   3.510
 6749TIP3   OH220189   6.062   1.968   1.913
 6749TIP3    H120190   5.986   2.026   1.911
 6749TIP3    H220191   6.055   1.917   1.832
 6750TIP3   OH220192   5.019   0.303   3.104
 6750TIP3    H120193   5.023   0.221   3.055
 6750TIP3    H220194   5.060   0.282   3.189
 6751TIP3   OH220195   1.897   5.041   2.479
 6751TIP3    H120196   1.976   5.062   2.528
 6751TIP3    H220197   1.926   5.035   2.388
 6752TIP3   OH220198   3.572   0.936   4.789
 6752TIP3    H120199   3.485   0.919   4.753
 6752TIP3    H220200   3.557   1.002   4.857
 6753TIP3   OH220201   0.528   7.126   0.668
 6753TIP3    H120202   0.452   7.183   0.665
 6753TIP3    H220203   0.581   7.152   0.593
 6754TIP3   OH220204   5.298   5.337   5.161
 6754TIP3    H120205   5.373   5.285   5.129
 6754TIP3    H220206   5.291   5.314   5.254
 6755TIP3   OH220207   4.891   3.379   4.200
 6755TIP3    H120208   4.833   3.454   4.187
 6755TIP3    H220209   4.896   3.336   4.115
 6756TIP3   OH220210   0.719   4.430   4.662
 6756TIP3    H120211   0.752   4.369   4.596
 6756TIP3    H220212   0.657   4.378   4.713
 6757TIP3   OH220213   8.262   1.745   4.880
 6757TIP3    H120214   8.238   1.675   4.940
 6757TIP3    H220215   8.221   1.721   4.797
 6758TIP3   OH220216   7.989   2.618   0.058
 6758TIP3    H120217   7.922   2.551   0.073
 6758TIP3    H220218   7.944   2.701   0.073
 6759TIP3   OH220219   0.312   5.511   2.322
 6759TIP3    H120220   0.242   5.466   2.274
 6759TIP3    H220221   0.332   5.452   2.395
 6760TIP3   OH220222   0.523   4.649   1.355
 6760TIP3    H120223   0.617   4.656   1.368
 6760TIP3    H220224   0.485   4.702   1.425
 6761TIP3   OH220225   1.693   6.776   1.340
 6761TIP3    H120226   1.706   6.850   1.281
 6761TIP3    H220227   1.614   6.798   1.390
 6762TIP3   OH220228   2.296   5.667   4.624
 6762TIP3    H120229   2.296   5.573   4.608
 6762TIP3    H220230   2.312   5.675   4.718
 6763TIP3   OH220231   2.420   3.394   6.033
 6763TIP3    H120232   2.472   3.416   5.957
 6763TIP3    H220233   2.483   3.359   6.096
 6764TIP3   OH220234   0.047   4.616   5.655
 6764TIP3    H120235   0.095   4.570   5.585
 6764TIP3    H220236   0.053   4.708   5.630
 6765TIP3   OH220237   1.162   3.278   2.974
 6765TIP3    H120238   1.075   3.278   2.933
 6765TIP3    H220239   1.183   3.371   2.985
 6766TIP3   OH220240   8.073   7.509   2.554
 6766TIP3    H120241   8.158   7.542   2.526
 6766TIP3    H220242   8.057   7.433   2.498
 6767TIP3   OH220243   0.985   0.159   5.789
 6767TIP3    H120244   0.955   0.069   5.801
 6767TIP3    H220245   1.078   0.155   5.811
 6768TIP3   OH220246   3.225   3.545   1.012
 6768TIP3    H120247   3.203   3.638   1.016
 6768TIP3    H220248   3.162   3.508   0.950
 6769TIP3   OH220249   4.070   1.630   6.568
 6769TIP3    H120250   4.071   1.709   6.514
 6769TIP3    H220251   4.066   1.558   6.505
 6770TIP3   OH220252   4.154   3.209   3.701
 6770TIP3    H120253   4.220   3.147   3.731
 6770TIP3    H220254   4.071   3.175   3.735
 6771TIP3   OH220255   4.737   6.306   2.807
 6771TIP3    H120256   4.780   6.392   2.813
 6771TIP3    H220257   4.807   6.245   2.784
 6772TIP3   OH220258   3.824   5.662   2.597
 6772TIP3    H120259   3.767   5.588   2.617
 6772TIP3    H220260   3.906   5.641   2.641
 6773TIP3   OH220261   4.388   3.677   3.062
 6773TIP3    H120262   4.433   3.722   2.991
 6773TIP3    H220263   4.310   3.730   3.079
 6774TIP3   OH220264   4.082   7.050   0.966
 6774TIP3    H120265   4.021   6.977   0.955
 6774TIP3    H220266   4.168   7.013   0.947
 6775TIP3   OH220267   4.520   1.420   3.079
 6775TIP3    H120268   4.447   1.479   3.099
 6775TIP3    H220269   4.584   1.476   3.035
 6776TIP3   OH220270   5.038   7.784   3.794
 6776TIP3    H120271   5.030   7.751   3.884
 6776TIP3    H220272   5.059   7.877   3.804
 6777TIP3   OH220273   7.226   4.118   4.453
 6777TIP3    H120274   7.210   4.034   4.410
 6777TIP3    H220275   7.259   4.094   4.539
 6778TIP3   OH220276   6.540   1.816   2.189
 6778TIP3    H120277   6.469   1.782   2.244
 6778TIP3    H220278   6.618   1.768   2.218
 6779TIP3   OH220279   4.535   6.704   4.123
 6779TIP3    H120280   4.531   6.641   4.050
 6779TIP3    H220281   4.448   6.699   4.163
 6780TIP3   OH220282   3.866   5.517   5.729
 6780TIP3    H120283   3.838   5.544   5.642
 6780TIP3    H220284   3.832   5.429   5.739
 6781TIP3   OH220285   1.628   0.213   4.542
 6781TIP3    H120286   1.617   0.135   4.487
 6781TIP3    H220287   1.608   0.182   4.631
 6782TIP3   OH220288   0.717   7.162   1.160
 6782TIP3    H120289   0.634   7.147   1.204
 6782TIP3    H220290   0.753   7.240   1.203
 6783TIP3   OH220291   6.240   4.843   2.314
 6783TIP3    H120292   6.286   4.813   2.236
 6783TIP3    H220293   6.275   4.788   2.385
 6784TIP3   OH220294   6.816   5.805   5.433
 6784TIP3    H120295   6.755   5.877   5.417
 6784TIP3    H220296   6.903   5.844   5.420
 6785TIP3   OH220297   2.858   4.405   1.024
 6785TIP3    H120298   2.884   4.376   1.112
 6785TIP3    H220299   2.769   4.371   1.013
 6786TIP3   OH220300   1.288   6.093   4.980
 6786TIP3    H120301   1.308   6.006   5.017
 6786TIP3    H220302   1.291   6.080   4.886
 6787TIP3   OH220303   3.015   6.825   4.098
 6787TIP3    H120304   3.091   6.883   4.087
 6787TIP3    H220305   2.945   6.883   4.129
 6788TIP3   OH220306   0.801   7.271   5.167
 6788TIP3    H120307   0.768   7.329   5.235
 6788TIP3    H220308   0.728   7.262   5.105
 6789TIP3   OH220309   6.009   0.497   1.614
 6789TIP3    H120310   6.083   0.490   1.674
 6789TIP3    H220311   6.007   0.590   1.589
 6790TIP3   OH220312   1.625   3.402   0.658
 6790TIP3    H120313   1.616   3.434   0.747
 6790TIP3    H220314   1.715   3.424   0.633
 6791TIP3   OH220315   6.858   1.779   1.510
 6791TIP3    H120316   6.789   1.825   1.558
 6791TIP3    H220317   6.935   1.835   1.519
 6792TIP3   OH220318   6.439   2.757   6.274
 6792TIP3    H120319   6.365   2.727   6.221
 6792TIP3    H220320   6.509   2.693   6.255
 6793TIP3   OH220321   7.348   6.141   4.229
 6793TIP3    H120322   7.288   6.130   4.155
 6793TIP3    H220323   7.335   6.232   4.257
 6794TIP3   OH220324   0.667   1.822   1.400
 6794TIP3    H120325   0.684   1.730   1.419
 6794TIP3    H220326   0.598   1.847   1.461
 6795TIP3   OH220327   6.426   2.027   4.691
 6795TIP3    H120328   6.406   1.991   4.605
 6795TIP3    H220329   6.521   2.027   4.696
 6796TIP3   OH220330   7.923   3.454   1.996
 6796TIP3    H120331   7.989   3.522   1.984
 6796TIP3    H220332   7.967   3.373   1.971
 6797TIP3   OH220333   8.068   2.457   4.891
 6797TIP3    H120334   8.123   2.408   4.953
 6797TIP3    H220335   8.086   2.418   4.806
 6798TIP3   OH220336   6.768   4.128   6.422
 6798TIP3    H120337   6.797   4.141   6.331
 6798TIP3    H220338   6.783   4.034   6.438
 6799TIP3   OH220339   8.071   7.056   1.057
 6799TIP3    H120340   8.103   7.122   1.118
 6799TIP3    H220341   8.021   7.105   0.992
 6800TIP3   OH220342   2.227   0.549   4.987
 6800TIP3    H120343   2.316   0.553   5.022
 6800TIP3    H220344   2.175   0.600   5.049
 6801TIP3   OH220345   0.155   4.757   6.064
 6801TIP3    H120346   0.071   4.723   6.034
 6801TIP3    H220347   0.144   4.770   6.158
 6802TIP3   OH220348   8.116   6.505   6.332
 6802TIP3    H120349   8.044   6.444   6.349
 6802TIP3    H220350   8.083   6.590   6.359
 6803TIP3   OH220351   5.614   7.444   0.404
 6803TIP3    H120352   5.660   7.398   0.474
 6803TIP3    H220353   5.648   7.404   0.324
 6804TIP3   OH220354   1.280   5.172   3.465
 6804TIP3    H120355   1.292   5.090   3.514
 6804TIP3    H220356   1.245   5.233   3.530
 6805TIP3   OH220357   4.271   7.067   2.826
 6805TIP3    H120358   4.342   7.022   2.782
 6805TIP3    H220359   4.237   7.003   2.889
 6806TIP3   OH220360   3.851   6.713   2.627
 6806TIP3    H120361   3.921   6.716   2.563
 6806TIP3    H220362   3.780   6.765   2.588
 6807TIP3   OH220363   5.787   7.602   0.069
 6807TIP3    H120364   5.809   7.560  -0.014
 6807TIP3    H220365   5.769   7.530   0.129
 6808TIP3   OH220366   3.497   5.280   4.427
 6808TIP3    H120367   3.567   5.309   4.486
 6808TIP3    H220368   3.425   5.259   4.486
 6809TIP3   OH220369   7.730   3.057   4.811
 6809TIP3    H120370   7.773   3.107   4.882
 6809TIP3    H220371   7.736   2.966   4.840
 6810TIP3   OH220372   5.151   7.151   4.190
 6810TIP3    H120373   5.096   7.230   4.191
 6810TIP3    H220374   5.131   7.107   4.272
 6811TIP3   OH220375   1.340   0.306   4.177
 6811TIP3    H120376   1.436   0.298   4.176
 6811TIP3    H220377   1.314   0.272   4.263
 6812TIP3   OH220378   6.954   1.712   3.688
 6812TIP3    H120379   7.046   1.694   3.707
 6812TIP3    H220380   6.955   1.768   3.611
 6813TIP3   OH220381   5.708   1.690   0.938
 6813TIP3    H120382   5.681   1.754   0.873
 6813TIP3    H220383   5.752   1.742   1.006
 6814TIP3   OH220384   2.403   2.285   1.637
 6814TIP3    H120385   2.352   2.267   1.716
 6814TIP3    H220386   2.396   2.204   1.586
 6815TIP3   OH220387   2.418   4.650   0.669
 6815TIP3    H120388   2.471   4.647   0.589
 6815TIP3    H220389   2.334   4.611   0.643
 6816TIP3   OH220390   2.590   3.430   6.622
 6816TIP3    H120391   2.531   3.497   6.587
 6816TIP3    H220392   2.532   3.361   6.653
 6817TIP3   OH220393   3.800   1.649   6.680
 6817TIP3    H120394   3.761   1.562   6.682
 6817TIP3    H220395   3.887   1.635   6.641
 6818TIP3   OH220396   1.696   0.931   1.898
 6818TIP3    H120397   1.644   0.983   1.959
 6818TIP3    H220398   1.632   0.891   1.839
 6819TIP3   OH220399   3.863   2.733   2.168
 6819TIP3    H120400   3.852   2.786   2.247
 6819TIP3    H220401   3.845   2.793   2.096
 6820TIP3   OH220402   3.850   0.418   6.380
 6820TIP3    H120403   3.928   0.365   6.363
 6820TIP3    H220404   3.788   0.358   6.421
 6821TIP3   OH220405   0.185   3.346   5.234
 6821TIP3    H120406   0.114   3.293   5.271
 6821TIP3    H220407   0.240   3.282   5.188
 6822TIP3   OH220408   4.139   6.195   3.913
 6822TIP3    H120409   4.127   6.252   3.988
 6822TIP3    H220410   4.126   6.251   3.837
 6823TIP3   OH220411   4.630   1.175   1.689
 6823TIP3    H120412   4.642   1.262   1.727
 6823TIP3    H220413   4.549   1.142   1.728
 6824TIP3   OH220414   7.573   2.055   6.176
 6824TIP3    H120415   7.526   2.120   6.124
 6824TIP3    H220416   7.650   2.102   6.208
 6825TIP3   OH220417   2.784   6.266   4.403
 6825TIP3    H120418   2.712   6.326   4.381
 6825TIP3    H220419   2.752   6.218   4.479
 6826TIP3   OH220420   3.467   3.635   6.526
 6826TIP3    H120421   3.402   3.583   6.479
 6826TIP3    H220422   3.552   3.601   6.496
 6827TIP3   OH220423   2.990   1.858   5.506
 6827TIP3    H120424   3.013   1.854   5.599
 6827TIP3    H220425   2.911   1.914   5.504
 6828TIP3   OH220426   7.481   2.144   4.077
 6828TIP3    H120427   7.542   2.207   4.115
 6828TIP3    H220428   7.427   2.116   4.151
 6829TIP3   OH220429   6.751   4.803   5.921
 6829TIP3    H120430   6.684   4.867   5.895
 6829TIP3    H220431   6.702   4.723   5.940
 6830TIP3   OH220432   0.695   5.607   1.981
 6830TIP3    H120433   0.726   5.575   2.065
 6830TIP3    H220434   0.703   5.703   1.987
 6831TIP3   OH220435   0.365   3.436   4.605
 6831TIP3    H120436   0.390   3.377   4.676
 6831TIP3    H220437   0.296   3.491   4.643
 6832TIP3   OH220438   3.480   5.373   6.581
 6832TIP3    H120439   3.395   5.335   6.559
 6832TIP3    H220440   3.524   5.383   6.496
 6833TIP3   OH220441   1.930   3.474   5.158
 6833TIP3    H120442   1.853   3.463   5.102
 6833TIP3    H220443   1.900   3.529   5.230
 6834TIP3   OH220444   0.784   1.825   6.270
 6834TIP3    H120445   0.850   1.789   6.330
 6834TIP3    H220446   0.736   1.889   6.323
 6835TIP3   OH220447   7.148   4.982   0.583
 6835TIP3    H120448   7.240   5.006   0.573
 6835TIP3    H220449   7.145   4.889   0.559
 6836TIP3   OH220450   1.530   6.524   6.519
 6836TIP3    H120451   1.591   6.479   6.578
 6836TIP3    H220452   1.477   6.454   6.481
 6837TIP3   OH220453   2.475   2.172   1.052
 6837TIP3    H120454   2.540   2.215   1.108
 6837TIP3    H220455   2.469   2.082   1.087
 6838TIP3   OH220456   4.460   5.283   4.830
 6838TIP3    H120457   4.467   5.288   4.735
 6838TIP3    H220458   4.376   5.324   4.851
 6839TIP3   OH220459   4.625   7.099   3.793
 6839TIP3    H120460   4.712   7.117   3.759
 6839TIP3    H220461   4.619   7.151   3.873
 6840TIP3   OH220462   5.307   1.669   1.839
 6840TIP3    H120463   5.297   1.727   1.763
 6840TIP3    H220464   5.284   1.582   1.806
 6841TIP3   OH220465   2.419   3.491   0.516
 6841TIP3    H120466   2.506   3.512   0.552
 6841TIP3    H220467   2.370   3.457   0.591
 6842TIP3   OH220468   5.481   2.717   1.988
 6842TIP3    H120469   5.412   2.698   2.051
 6842TIP3    H220470   5.508   2.631   1.955
 6843TIP3   OH220471   7.816   4.044   0.602
 6843TIP3    H120472   7.779   4.041   0.691
 6843TIP3    H220473   7.747   4.007   0.547
 6844TIP3   OH220474   3.777   5.217   2.304
 6844TIP3    H120475   3.695   5.219   2.354
 6844TIP3    H220476   3.760   5.271   2.227
 6845TIP3   OH220477   6.467   0.524   0.640
 6845TIP3    H120478   6.375   0.502   0.624
 6845TIP3    H220479   6.512   0.495   0.561
 6846TIP3   OH220480   5.218   6.194   4.152
 6846TIP3    H120481   5.210   6.124   4.217
 6846TIP3    H220482   5.145   6.253   4.172
 6847TIP3   OH220483   0.591   4.214   6.250
 6847TIP3    H120484   0.581   4.119   6.244
 6847TIP3    H220485   0.558   4.247   6.166
 6848TIP3   OH220486   2.494   0.178   4.097
 6848TIP3    H120487   2.497   0.155   4.190
 6848TIP3    H220488   2.542   0.260   4.091
 6849TIP3   OH220489   3.739   0.632   1.214
 6849TIP3    H120490   3.824   0.668   1.188
 6849TIP3    H220491   3.758   0.544   1.246
 6850TIP3   OH220492   3.220   3.124   5.478
 6850TIP3    H120493   3.165   3.052   5.448
 6850TIP3    H220494   3.165   3.173   5.539
 6851TIP3   OH220495   3.315   2.911   0.321
 6851TIP3    H120496   3.371   2.901   0.244
 6851TIP3    H220497   3.346   2.843   0.381
 6852TIP3   OH220498   2.681   1.801   1.316
 6852TIP3    H120499   2.736   1.802   1.238
 6852TIP3    H220500   2.680   1.709   1.343
 6853TIP3   OH220501   3.958   4.146   0.707
 6853TIP3    H120502   3.992   4.059   0.728
 6853TIP3    H220503   3.916   4.135   0.621
 6854TIP3   OH220504   0.710   5.674   1.717
 6854TIP3    H120505   0.692   5.631   1.801
 6854TIP3    H220506   0.774   5.617   1.675
 6855TIP3   OH220507   3.403   5.819   6.347
 6855TIP3    H120508   3.445   5.734   6.352
 6855TIP3    H220509   3.474   5.880   6.327
 6856TIP3   OH220510   3.260   6.423   3.690
 6856TIP3    H120511   3.186   6.365   3.673
 6856TIP3    H220512   3.337   6.367   3.682
 6857TIP3   OH220513   1.689   7.807   3.642
 6857TIP3    H120514   1.749   7.785   3.714
 6857TIP3    H220515   1.661   7.722   3.607
 6858TIP3   OH220516   2.441   7.307   2.504
 6858TIP3    H120517   2.461   7.343   2.591
 6858TIP3    H220518   2.365   7.356   2.474
 6859TIP3   OH220519   4.334   0.361   2.867
 6859TIP3    H120520   4.331   0.404   2.781
 6859TIP3    H220521   4.242   0.348   2.891
 6860TIP3   OH220522   6.118   5.230   0.011
 6860TIP3    H120523   6.033   5.242   0.054
 6860TIP3    H220524   6.159   5.316   0.014
 6861TIP3   OH220525   0.673   7.687   1.525
 6861TIP3    H120526   0.702   7.700   1.435
 6861TIP3    H220527   0.733   7.620   1.559
 6862TIP3   OH220528   2.253   3.205   0.778
 6862TIP3    H120529   2.339   3.173   0.751
 6862TIP3    H220530   2.192   3.168   0.714
 6863TIP3   OH220531   2.030   4.516   5.566
 6863TIP3    H120532   2.028   4.425   5.535
 6863TIP3    H220533   2.110   4.552   5.527
 6864TIP3   OH220534   5.228   3.721   6.580
 6864TIP3    H120535   5.236   3.737   6.674
 6864TIP3    H220536   5.289   3.651   6.562
 6865TIP3   OH220537   3.384   5.113   0.236
 6865TIP3    H120538   3.331   5.141   0.161
 6865TIP3    H220539   3.341   5.153   0.312
 6866TIP3   OH220540   6.247   5.679   5.254
 6866TIP3    H120541   6.157   5.657   5.277
 6866TIP3    H220542   6.251   5.669   5.158
 6867TIP3   OH220543   1.414   6.873   3.151
 6867TIP3    H120544   1.406   6.823   3.231
 6867TIP3    H220545   1.334   6.925   3.147
 6868TIP3   OH220546   0.595   3.538   1.259
 6868TIP3    H120547   0.544   3.471   1.213
 6868TIP3    H220548   0.554   3.543   1.346
 6869TIP3   OH220549   3.326   2.539   6.069
 6869TIP3    H120550   3.351   2.485   6.144
 6869TIP3    H220551   3.317   2.477   5.997
 6870TIP3   OH220552   6.445   5.906   4.828
 6870TIP3    H120553   6.510   5.870   4.768
 6870TIP3    H220554   6.382   5.836   4.841
 6871TIP3   OH220555   4.845   3.460   3.841
 6871TIP3    H120556   4.888   3.543   3.860
 6871TIP3    H220557   4.780   3.449   3.910
 6872TIP3   OH220558   0.839   7.052   4.570
 6872TIP3    H120559   0.919   7.032   4.620
 6872TIP3    H220560   0.855   7.139   4.533
 6873TIP3   OH220561   3.959   1.554   1.798
 6873TIP3    H120562   3.969   1.516   1.710
 6873TIP3    H220563   4.002   1.639   1.792
 6874TIP3   OH220564   0.528   2.619   1.450
 6874TIP3    H120565   0.480   2.668   1.384
 6874TIP3    H220566   0.608   2.592   1.405
 6875TIP3   OH220567   3.938   5.515   4.472
 6875TIP3    H120568   3.978   5.516   4.385
 6875TIP3    H220569   3.846   5.492   4.456
 6876TIP3   OH220570   5.632   0.950   3.941
 6876TIP3    H120571   5.701   1.015   3.955
 6876TIP3    H220572   5.673   0.883   3.886
 6877TIP3   OH220573   1.717   5.277   6.760
 6877TIP3    H120574   1.704   5.357   6.812
 6877TIP3    H220575   1.805   5.287   6.723
 6878TIP3   OH220576   8.153   3.245   6.575
 6878TIP3    H120577   8.086   3.206   6.518
 6878TIP3    H220578   8.136   3.207   6.661
 6879TIP3   OH220579   7.177   1.176   0.981
 6879TIP3    H120580   7.125   1.197   0.903
 6879TIP3    H220581   7.119   1.198   1.054
 6880TIP3   OH220582   3.462   4.272   5.527
 6880TIP3    H120583   3.459   4.341   5.461
 6880TIP3    H220584   3.385   4.287   5.582
 6881TIP3   OH220585   3.593   1.478   3.821
 6881TIP3    H120586   3.622   1.553   3.873
 6881TIP3    H220587   3.647   1.405   3.852
 6882TIP3   OH220588   5.526   3.725   2.580
 6882TIP3    H120589   5.456   3.735   2.645
 6882TIP3    H220590   5.526   3.632   2.560
 6883TIP3   OH220591   5.936   5.393   6.456
 6883TIP3    H120592   5.942   5.314   6.508
 6883TIP3    H220593   5.929   5.464   6.520
 6884TIP3   OH220594   6.916   6.814   4.385
 6884TIP3    H120595   6.926   6.783   4.475
 6884TIP3    H220596   6.877   6.901   4.394
 6885TIP3   OH220597   0.668   0.755   5.356
 6885TIP3    H120598   0.627   0.756   5.269
 6885TIP3    H220599   0.685   0.662   5.373
 6886TIP3   OH220600   5.402   1.637   2.572
 6886TIP3    H120601   5.384   1.568   2.636
 6886TIP3    H220602   5.496   1.652   2.579
 6887TIP3   OH220603   0.799   6.430   2.753
 6887TIP3    H120604   0.763   6.390   2.832
 6887TIP3    H220605   0.775   6.522   2.760
 6888TIP3   OH220606   5.967   1.751   0.686
 6888TIP3    H120607   5.878   1.785   0.677
 6888TIP3    H220608   5.972   1.682   0.619
 6889TIP3   OH220609   6.533   0.673   0.858
 6889TIP3    H120610   6.438   0.670   0.854
 6889TIP3    H220611   6.562   0.605   0.798
 6890TIP3   OH220612   1.249   5.212   5.147
 6890TIP3    H120613   1.255   5.215   5.052
 6890TIP3    H220614   1.177   5.152   5.165
 6891TIP3   OH220615   6.831   1.290   1.349
 6891TIP3    H120616   6.843   1.373   1.302
 6891TIP3    H220617   6.741   1.295   1.382
 6892TIP3   OH220618   1.405   1.765   2.684
 6892TIP3    H120619   1.360   1.743   2.766
 6892TIP3    H220620   1.352   1.723   2.616
 6893TIP3   OH220621   5.771   0.379   0.234
 6893TIP3    H120622   5.780   0.461   0.282
 6893TIP3    H220623   5.796   0.400   0.144
 6894TIP3   OH220624   6.475   1.168   6.099
 6894TIP3    H120625   6.430   1.083   6.098
 6894TIP3    H220626   6.419   1.224   6.153
 6895TIP3   OH220627   1.836   7.221   3.487
 6895TIP3    H120628   1.883   7.290   3.439
 6895TIP3    H220629   1.866   7.139   3.447
 6896TIP3   OH220630   5.031   3.080   1.471
 6896TIP3    H120631   5.066   3.026   1.541
 6896TIP3    H220632   4.944   3.106   1.502
 6897TIP3   OH220633   0.217   5.935   1.163
 6897TIP3    H120634   0.146   5.883   1.201
 6897TIP3    H220635   0.206   5.925   1.068
 6898TIP3   OH220636   2.633   3.644   5.909
 6898TIP3    H120637   2.711   3.699   5.914
 6898TIP3    H220638   2.668   3.555   5.901
 6899TIP3   OH220639   0.511   3.453   2.407
 6899TIP3    H120640   0.549   3.510   2.474
 6899TIP3    H220641   0.494   3.371   2.452
 6900TIP3   OH220642   8.012   6.202   3.311
 6900TIP3    H120643   7.957   6.155   3.250
 6900TIP3    H220644   7.951   6.243   3.373
 6901TIP3   OH220645   1.732   3.987   2.808
 6901TIP3    H120646   1.694   4.070   2.834
 6901TIP3    H220647   1.658   3.934   2.779
 6902TIP3   OH220648   7.331   2.446   2.923
 6902TIP3    H120649   7.350   2.534   2.892
 6902TIP3    H220650   7.273   2.409   2.856
 6903TIP3   OH220651   0.184   1.844   0.415
 6903TIP3    H120652   0.168   1.794   0.495
 6903TIP3    H220653   0.191   1.779   0.346
 6904TIP3   OH220654   6.322   5.831   3.664
 6904TIP3    H120655   6.234   5.846   3.630
 6904TIP3    H220656   6.366   5.780   3.595
 6905TIP3   OH220657   3.930   2.517   5.423
 6905TIP3    H120658   3.995   2.481   5.362
 6905TIP3    H220659   3.855   2.538   5.368
 6906TIP3   OH220660   2.932   4.268   1.337
 6906TIP3    H120661   2.975   4.189   1.370
 6906TIP3    H220662   2.995   4.306   1.276
 6907TIP3   OH220663   5.716   5.399   5.292
 6907TIP3    H120664   5.649   5.391   5.224
 6907TIP3    H220665   5.798   5.404   5.244
 6908TIP3   OH220666   6.495   3.613   0.119
 6908TIP3    H120667   6.510   3.592   0.027
 6908TIP3    H220668   6.502   3.708   0.124
 6909TIP3   OH220669   2.566   2.833   6.432
 6909TIP3    H120670   2.568   2.797   6.343
 6909TIP3    H220671   2.496   2.785   6.476
 6910TIP3   OH220672   1.315   3.510   6.082
 6910TIP3    H120673   1.392   3.525   6.027
 6910TIP3    H220674   1.245   3.558   6.038
 6911TIP3   OH220675   2.964   5.297   6.690
 6911TIP3    H120676   2.871   5.286   6.673
 6911TIP3    H220677   2.980   5.242   6.767
 6912TIP3   OH220678   3.291   1.288   0.161
 6912TIP3    H120679   3.262   1.197   0.154
 6912TIP3    H220680   3.355   1.287   0.232
 6913TIP3   OH220681   3.464   7.153   3.551
 6913TIP3    H120682   3.470   7.248   3.545
 6913TIP3    H220683   3.397   7.130   3.487
 6914TIP3   OH220684   4.556   2.587   3.521
 6914TIP3    H120685   4.469   2.558   3.492
 6914TIP3    H220686   4.559   2.680   3.498
 6915TIP3   OH220687   7.976   4.577   3.773
 6915TIP3    H120688   8.013   4.620   3.850
 6915TIP3    H220689   7.926   4.645   3.729
 6916TIP3   OH220690   0.447   5.363   2.843
 6916TIP3    H120691   0.374   5.305   2.820
 6916TIP3    H220692   0.427   5.390   2.933
 6917TIP3   OH220693   6.915   1.461   2.273
 6917TIP3    H120694   6.927   1.422   2.186
 6917TIP3    H220695   7.003   1.459   2.312
 6918TIP3   OH220696   6.758   6.286   2.517
 6918TIP3    H120697   6.824   6.356   2.516
 6918TIP3    H220698   6.773   6.241   2.600
 6919TIP3   OH220699   7.505   6.883   2.678
 6919TIP3    H120700   7.524   6.846   2.764
 6919TIP3    H220701   7.410   6.876   2.669
 6920TIP3   OH220702   5.550   7.087   1.078
 6920TIP3    H120703   5.583   7.024   1.142
 6920TIP3    H220704   5.496   7.034   1.019
 6921TIP3   OH220705   0.214   5.924   0.876
 6921TIP3    H120706   0.303   5.950   0.854
 6921TIP3    H220707   0.158   5.976   0.817
 6922TIP3   OH220708   6.828   4.395   6.672
 6922TIP3    H120709   6.795   4.462   6.731
 6922TIP3    H220710   6.754   4.335   6.660
 6923TIP3   OH220711   3.813   7.362   5.351
 6923TIP3    H120712   3.838   7.329   5.265
 6923TIP3    H220713   3.757   7.437   5.333
 6924TIP3   OH220714   4.769   2.340   5.270
 6924TIP3    H120715   4.855   2.297   5.273
 6924TIP3    H220716   4.788   2.430   5.242
 6925TIP3   OH220717   3.556   0.237   4.813
 6925TIP3    H120718   3.480   0.215   4.867
 6925TIP3    H220719   3.543   0.328   4.789
 6926TIP3   OH220720   5.980   1.382   3.847
 6926TIP3    H120721   5.926   1.458   3.823
 6926TIP3    H220722   6.063   1.421   3.876
 6927TIP3   OH220723   6.349   6.076   5.315
 6927TIP3    H120724   6.415   6.104   5.379
 6927TIP3    H220725   6.382   6.108   5.231
 6928TIP3   OH220726   7.926   4.236   0.108
 6928TIP3    H120727   7.955   4.171   0.044
 6928TIP3    H220728   7.881   4.186   0.175
 6929TIP3   OH220729   3.942   6.602   1.717
 6929TIP3    H120730   4.026   6.622   1.758
 6929TIP3    H220731   3.894   6.553   1.783
 6930TIP3   OH220732   1.090   2.190   1.626
 6930TIP3    H120733   1.085   2.285   1.621
 6930TIP3    H220734   1.104   2.161   1.536
 6931TIP3   OH220735   4.106   0.710   5.211
 6931TIP3    H120736   4.062   0.750   5.136
 6931TIP3    H220737   4.088   0.769   5.283
 6932TIP3   OH220738   1.893   2.238   6.700
 6932TIP3    H120739   1.886   2.142   6.708
 6932TIP3    H220740   1.815   2.271   6.745
 6933TIP3   OH220741   4.792   7.739   0.380
 6933TIP3    H120742   4.813   7.700   0.465
 6933TIP3    H220743   4.817   7.831   0.390
 6934TIP3   OH220744   5.094   5.765   3.379
 6934TIP3    H120745   5.139   5.817   3.446
 6934TIP3    H220746   5.004   5.760   3.410
 6935TIP3   OH220747   1.361   0.116   2.330
 6935TIP3    H120748   1.346   0.207   2.355
 6935TIP3    H220749   1.416   0.121   2.251
 6936TIP3   OH220750   7.532   1.757   1.671
 6936TIP3    H120751   7.582   1.836   1.651
 6936TIP3    H220752   7.487   1.736   1.589
 6937TIP3   OH220753   1.519   2.380   0.644
 6937TIP3    H120754   1.540   2.293   0.610
 6937TIP3    H220755   1.461   2.419   0.578
 6938TIP3   OH220756   1.021   3.662   6.568
 6938TIP3    H120757   0.936   3.671   6.611
 6938TIP3    H220758   1.080   3.634   6.638
 6939TIP3   OH220759   7.350   7.505   4.224
 6939TIP3    H120760   7.421   7.526   4.163
 6939TIP3    H220761   7.365   7.562   4.299
 6940TIP3   OH220762   4.499   6.577   2.629
 6940TIP3    H120763   4.493   6.482   2.632
 6940TIP3    H220764   4.420   6.604   2.582
 6941TIP3   OH220765   1.791   5.824   5.552
 6941TIP3    H120766   1.732   5.762   5.595
 6941TIP3    H220767   1.865   5.771   5.524
 6942TIP3   OH220768   6.512   6.356   0.682
 6942TIP3    H120769   6.498   6.277   0.630
 6942TIP3    H220770   6.433   6.365   0.735
 6943TIP3   OH220771   7.882   0.550   1.019
 6943TIP3    H120772   7.881   0.570   0.925
 6943TIP3    H220773   7.940   0.616   1.057
 6944TIP3   OH220774   5.351   2.319   6.422
 6944TIP3    H120775   5.290   2.285   6.487
 6944TIP3    H220776   5.429   2.344   6.473
 6945TIP3   OH220777   1.074   6.240   6.031
 6945TIP3    H120778   1.162   6.248   5.996
 6945TIP3    H220779   1.021   6.207   5.958
 6946TIP3   OH220780   4.251   4.966   4.986
 6946TIP3    H120781   4.213   4.954   4.899
 6946TIP3    H220782   4.247   5.061   5.001
 6947TIP3   OH220783   1.595   7.043   3.553
 6947TIP3    H120784   1.593   7.125   3.504
 6947TIP3    H220785   1.643   7.064   3.633
 6948TIP3   OH220786   0.022   0.332   4.020
 6948TIP3    H120787   0.115   0.325   4.046
 6948TIP3    H220788  -0.025   0.284   4.089
 6949TIP3   OH220789   2.178   6.750   6.532
 6949TIP3    H120790   2.187   6.670   6.583
 6949TIP3    H220791   2.167   6.721   6.442
 6950TIP3   OH220792   2.665   5.625   1.641
 6950TIP3    H120793   2.631   5.673   1.565
 6950TIP3    H220794   2.589   5.608   1.696
 6951TIP3   OH220795   0.882   6.550   6.528
 6951TIP3    H120796   0.835   6.612   6.583
 6951TIP3    H220797   0.818   6.483   6.505
 6952TIP3   OH220798   4.329   3.171   0.963
 6952TIP3    H120799   4.360   3.082   0.981
 6952TIP3    H220800   4.370   3.225   1.031
 6953TIP3   OH220801   3.401   4.999   5.430
 6953TIP3    H120802   3.322   5.050   5.413
 6953TIP3    H220803   3.469   5.041   5.377
 6954TIP3   OH220804   6.399   3.586   3.624
 6954TIP3    H120805   6.396   3.667   3.572
 6954TIP3    H220806   6.312   3.548   3.614
 6955TIP3   OH220807   6.084   4.912   4.205
 6955TIP3    H120808   6.097   4.898   4.298
 6955TIP3    H220809   6.164   4.878   4.164
 6956TIP3   OH220810   1.581   6.836   3.887
 6956TIP3    H120811   1.628   6.765   3.931
 6956TIP3    H220812   1.599   6.914   3.940
 6957TIP3   OH220813   1.071   2.012   6.123
 6957TIP3    H120814   0.984   2.045   6.102
 6957TIP3    H220815   1.127   2.042   6.052
 6958TIP3   OH220816   6.300   2.038   2.209
 6958TIP3    H120817   6.369   2.022   2.274
 6958TIP3    H220818   6.332   2.112   2.158
 6959TIP3   OH220819   3.216   1.956   5.395
 6959TIP3    H120820   3.277   1.888   5.369
 6959TIP3    H220821   3.130   1.913   5.393
 6960TIP3   OH220822   1.171   6.998   4.730
 6960TIP3    H120823   1.155   6.980   4.822
 6960TIP3    H220824   1.181   7.093   4.725
 6961TIP3   OH220825   6.137   4.045   2.529
 6961TIP3    H120826   6.101   4.127   2.497
 6961TIP3    H220827   6.061   3.990   2.548
 6962TIP3   OH220828   5.089   1.217   4.344
 6962TIP3    H120829   5.172   1.193   4.386
 6962TIP3    H220830   5.031   1.143   4.362
 6963TIP3   OH220831   6.943   7.279   3.602
 6963TIP3    H120832   6.928   7.256   3.693
 6963TIP3    H220833   6.950   7.195   3.557
 6964TIP3   OH220834   1.991   2.417   5.131
 6964TIP3    H120835   2.074   2.415   5.179
 6964TIP3    H220836   1.935   2.355   5.178
 6965TIP3   OH220837   6.703   0.772   4.197
 6965TIP3    H120838   6.763   0.705   4.228
 6965TIP3    H220839   6.648   0.792   4.273
 6966TIP3   OH220840   1.986   1.032   0.355
 6966TIP3    H120841   2.038   1.077   0.422
 6966TIP3    H220842   1.957   1.101   0.296
 6967TIP3   OH220843   4.241   7.491   1.954
 6967TIP3    H120844   4.292   7.411   1.963
 6967TIP3    H220845   4.180   7.472   1.883
 6968TIP3   OH220846   4.079   5.576   6.010
 6968TIP3    H120847   4.068   5.643   5.943
 6968TIP3    H220848   4.040   5.613   6.089
 6969TIP3   OH220849   1.429   4.089   4.334
 6969TIP3    H120850   1.382   4.009   4.308
 6969TIP3    H220851   1.517   4.077   4.301
 6970TIP3   OH220852   0.807   6.769   1.378
 6970TIP3    H120853   0.798   6.800   1.468
 6970TIP3    H220854   0.721   6.735   1.355
 6971TIP3   OH220855   3.929   3.779   5.761
 6971TIP3    H120856   3.957   3.824   5.681
 6971TIP3    H220857   3.870   3.709   5.729
 6972TIP3   OH220858   3.351   1.073   6.378
 6972TIP3    H120859   3.303   1.148   6.340
 6972TIP3    H220860   3.342   1.085   6.473
 6973TIP3   OH220861   7.898   6.034   1.764
 6973TIP3    H120862   7.833   5.979   1.721
 6973TIP3    H220863   7.898   6.005   1.855
 6974TIP3   OH220864   1.010   2.706   0.228
 6974TIP3    H120865   1.023   2.625   0.277
 6974TIP3    H220866   0.938   2.686   0.168
 6975TIP3   OH220867   7.065   3.134   6.482
 6975TIP3    H120868   7.029   3.208   6.434
 6975TIP3    H220869   7.124   3.173   6.547
 6976TIP3   OH220870   1.062   5.699   3.213
 6976TIP3    H120871   1.123   5.712   3.140
 6976TIP3    H220872   1.017   5.617   3.193
 6977TIP3   OH220873   6.026   6.470   2.093
 6977TIP3    H120874   5.935   6.441   2.103
 6977TIP3    H220875   6.068   6.400   2.043
 6978TIP3   OH220876   0.265   7.576   1.720
 6978TIP3    H120877   0.192   7.605   1.775
 6978TIP3    H220878   0.314   7.656   1.701
 6979TIP3   OH220879   5.738   2.253   3.013
 6979TIP3    H120880   5.800   2.212   2.954
 6979TIP3    H220881   5.786   2.263   3.096
 6980TIP3   OH220882   0.304   1.935   2.143
 6980TIP3    H120883   0.293   1.927   2.048
 6980TIP3    H220884   0.221   1.969   2.175
 6981TIP3   OH220885   0.805   6.554   1.055
 6981TIP3    H120886   0.725   6.519   1.092
 6981TIP3    H220887   0.864   6.564   1.130
 6982TIP3   OH220888   4.974   2.641   5.497
 6982TIP3    H120889   4.924   2.667   5.420
 6982TIP3    H220890   5.054   2.603   5.463
 6983TIP3   OH220891   4.279   4.234   2.299
 6983TIP3    H120892   4.257   4.268   2.213
 6983TIP3    H220893   4.375   4.235   2.301
 6984TIP3   OH220894   4.997   5.545   0.316
 6984TIP3    H120895   4.901   5.547   0.313
 6984TIP3    H220896   5.021   5.621   0.369
 6985TIP3   OH220897   1.268   4.392   2.818
 6985TIP3    H120898   1.257   4.304   2.782
 6985TIP3    H220899   1.221   4.391   2.901
 6986TIP3   OH220900   4.581   7.648   0.946
 6986TIP3    H120901   4.633   7.615   0.872
 6986TIP3    H220902   4.501   7.680   0.906
 6987TIP3   OH220903   6.456   6.266   1.043
 6987TIP3    H120904   6.392   6.269   0.972
 6987TIP3    H220905   6.530   6.317   1.011
 6988TIP3   OH220906   3.737   1.107   1.924
 6988TIP3    H120907   3.783   1.067   1.850
 6988TIP3    H220908   3.753   1.201   1.915
 6989TIP3   OH220909   5.833   7.238   2.700
 6989TIP3    H120910   5.890   7.300   2.655
 6989TIP3    H220911   5.881   7.217   2.781
 6990TIP3   OH220912   0.350   0.932   3.735
 6990TIP3    H120913   0.284   0.986   3.692
 6990TIP3    H220914   0.353   0.852   3.682
 6991TIP3   OH220915   3.394   1.558   3.406
 6991TIP3    H120916   3.354   1.562   3.319
 6991TIP3    H220917   3.325   1.586   3.465
 6992TIP3   OH220918   3.829   7.066   4.545
 6992TIP3    H120919   3.849   7.157   4.525
 6992TIP3    H220920   3.872   7.049   4.629
 6993TIP3   OH220921   4.726   1.661   3.400
 6993TIP3    H120922   4.777   1.676   3.320
 6993TIP3    H220923   4.784   1.611   3.457
 6994TIP3   OH220924   5.146   0.466   4.080
 6994TIP3    H120925   5.227   0.510   4.052
 6994TIP3    H220926   5.175   0.381   4.111
 6995TIP3   OH220927   0.385   1.831   4.606
 6995TIP3    H120928   0.305   1.778   4.606
 6995TIP3    H220929   0.456   1.769   4.623
 6996TIP3   OH220930   7.013   4.588   0.742
 6996TIP3    H120931   7.032   4.533   0.666
 6996TIP3    H220932   7.095   4.588   0.792
 6997TIP3   OH220933   4.201   5.363   5.273
 6997TIP3    H120934   4.173   5.330   5.358
 6997TIP3    H220935   4.245   5.446   5.292
 6998TIP3   OH220936   1.555   1.992   2.766
 6998TIP3    H120937   1.507   1.912   2.786
 6998TIP3    H220938   1.623   1.965   2.704
 6999TIP3   OH220939   8.017   2.768   2.808
 6999TIP3    H120940   7.970   2.686   2.791
 6999TIP3    H220941   8.096   2.762   2.755
 7000TIP3   OH220942   3.264   3.941   4.949
 7000TIP3    H120943   3.323   3.953   5.024
 7000TIP3    H220944   3.177   3.955   4.985
 7001TIP3   OH220945   5.957   1.239   4.171
 7001TIP3    H120946   5.941   1.158   4.220
 7001TIP3    H220947   6.015   1.213   4.099
 7002TIP3   OH220948   1.216   7.472   2.881
 7002TIP3    H120949   1.214   7.564   2.857
 7002TIP3    H220950   1.289   7.463   2.942
 7003TIP3   OH220951   2.180   7.216   4.234
 7003TIP3    H120952   2.250   7.250   4.180
 7003TIP3    H220953   2.121   7.171   4.173
 7004TIP3   OH220954   7.255   3.410   1.732
 7004TIP3    H120955   7.256   3.339   1.797
 7004TIP3    H220956   7.165   3.412   1.699
 7005TIP3   OH220957   1.372   7.034   6.244
 7005TIP3    H120958   1.384   7.118   6.288
 7005TIP3    H220959   1.413   7.046   6.158
 7006TIP3   OH220960   2.782   2.408   5.711
 7006TIP3    H120961   2.756   2.446   5.627
 7006TIP3    H220962   2.867   2.367   5.693
 7007TIP3   OH220963   3.131   0.868   5.913
 7007TIP3    H120964   3.214   0.915   5.912
 7007TIP3    H220965   3.093   0.883   5.826
 7008TIP3   OH220966   2.783   5.194   1.288
 7008TIP3    H120967   2.688   5.192   1.277
 7008TIP3    H220968   2.813   5.260   1.226
 7009TIP3   OH220969   5.499   1.469   6.465
 7009TIP3    H120970   5.529   1.435   6.549
 7009TIP3    H220971   5.417   1.514   6.484
 7010TIP3   OH220972   1.761   2.766   2.206
 7010TIP3    H120973   1.719   2.690   2.246
 7010TIP3    H220974   1.715   2.842   2.243
 7011TIP3   OH220975   5.618   4.764   3.150
 7011TIP3    H120976   5.637   4.857   3.158
 7011TIP3    H220977   5.523   4.759   3.151
 7012TIP3   OH220978   3.874   4.615   5.758
 7012TIP3    H120979   3.961   4.649   5.736
 7012TIP3    H220980   3.844   4.570   5.679
 7013TIP3   OH220981   6.374   3.740   4.195
 7013TIP3    H120982   6.418   3.821   4.169
 7013TIP3    H220983   6.379   3.685   4.118
 7014TIP3   OH220984   7.919   6.749   4.324
 7014TIP3    H120985   7.894   6.746   4.417
 7014TIP3    H220986   8.008   6.713   4.322
 7015TIP3   OH220987   0.360   1.264   1.813
 7015TIP3    H120988   0.348   1.201   1.884
 7015TIP3    H220989   0.336   1.217   1.734
 7016TIP3   OH220990   4.516   1.982   4.629
 7016TIP3    H120991   4.449   1.923   4.593
 7016TIP3    H220992   4.493   2.068   4.594
 7017TIP3   OH220993   5.655   7.354   5.220
 7017TIP3    H120994   5.656   7.383   5.129
 7017TIP3    H220995   5.670   7.433   5.272
 7018TIP3   OH220996   6.690   0.213   0.137
 7018TIP3    H120997   6.672   0.149   0.207
 7018TIP3    H220998   6.641   0.180   0.062
 7019TIP3   OH220999   6.742   3.856   5.809
 7019TIP3    H121000   6.700   3.884   5.890
 7019TIP3    H221001   6.687   3.893   5.740
 7020TIP3   OH221002   2.628   1.172   6.168
 7020TIP3    H121003   2.557   1.121   6.129
 7020TIP3    H221004   2.653   1.235   6.101
 7021TIP3   OH221005   5.580   3.813   2.974
 7021TIP3    H121006   5.521   3.747   3.008
 7021TIP3    H221007   5.552   3.895   3.016
 7022TIP3   OH221008   3.373   7.534   6.708
 7022TIP3    H121009   3.451   7.577   6.674
 7022TIP3    H221010   3.302   7.596   6.690
 7023TIP3   OH221011   3.597   2.164   4.748
 7023TIP3    H121012   3.590   2.108   4.670
 7023TIP3    H221013   3.683   2.205   4.739
 7024TIP3   OH221014   0.006   4.909   5.567
 7024TIP3    H121015   0.075   4.903   5.634
 7024TIP3    H221016  -0.043   4.988   5.590
 7025TIP3   OH221017   8.023   3.384   5.938
 7025TIP3    H121018   8.083   3.336   5.994
 7025TIP3    H221019   7.976   3.443   5.998
 7026TIP3   OH221020   8.133   2.609   3.317
 7026TIP3    H121021   8.063   2.577   3.374
 7026TIP3    H221022   8.211   2.609   3.372
 7027TIP3   OH221023   3.923   5.901   6.675
 7027TIP3    H121024   3.947   5.948   6.755
 7027TIP3    H221025   3.828   5.899   6.676
 7028TIP3   OH221026   0.837   1.075   0.020
 7028TIP3    H121027   0.892   1.045   0.093
 7028TIP3    H221028   0.843   1.170   0.023
 7029TIP3   OH221029   3.827   1.815   5.492
 7029TIP3    H121030   3.813   1.895   5.440
 7029TIP3    H221031   3.765   1.752   5.456
 7030TIP3   OH221032   7.745   4.555   1.689
 7030TIP3    H121033   7.698   4.582   1.768
 7030TIP3    H221034   7.769   4.464   1.706
 7031TIP3   OH221035   6.084   6.355   0.982
 7031TIP3    H121036   6.096   6.449   0.967
 7031TIP3    H221037   5.990   6.343   0.989
 7032TIP3   OH221038   1.380   7.585   2.516
 7032TIP3    H121039   1.335   7.542   2.442
 7032TIP3    H221040   1.426   7.659   2.476
 7033TIP3   OH221041   2.841   1.095   4.417
 7033TIP3    H121042   2.882   1.181   4.416
 7033TIP3    H221043   2.904   1.040   4.464
 7034TIP3   OH221044   4.891   2.771   1.049
 7034TIP3    H121045   4.946   2.719   1.106
 7034TIP3    H221046   4.945   2.785   0.971
 7035TIP3   OH221047   2.413   6.916   1.773
 7035TIP3    H121048   2.345   6.852   1.752
 7035TIP3    H221049   2.449   6.886   1.857
 7036TIP3   OH221050   3.578   1.245   5.156
 7036TIP3    H121051   3.627   1.184   5.211
 7036TIP3    H221052   3.526   1.297   5.217
 7037TIP3   OH221053   8.086   1.597   3.873
 7037TIP3    H121054   8.180   1.596   3.855
 7037TIP3    H221055   8.049   1.656   3.807
 7038TIP3   OH221056   7.003   7.696   5.436
 7038TIP3    H121057   7.074   7.757   5.457
 7038TIP3    H221058   7.020   7.620   5.491
 7039TIP3   OH221059   4.039   5.423   4.226
 7039TIP3    H121060   3.987   5.414   4.146
 7039TIP3    H221061   4.088   5.341   4.232
 7040TIP3   OH221062   7.600   6.889   5.022
 7040TIP3    H121063   7.580   6.948   4.949
 7040TIP3    H221064   7.525   6.896   5.081
 7041TIP3   OH221065   3.898   5.798   1.722
 7041TIP3    H121066   3.842   5.722   1.709
 7041TIP3    H221067   3.985   5.762   1.737
 7042TIP3   OH221068   6.446   5.442   3.632
 7042TIP3    H121069   6.476   5.528   3.603
 7042TIP3    H221070   6.525   5.388   3.633
 7043TIP3   OH221071   5.164   7.496   6.014
 7043TIP3    H121072   5.215   7.463   5.940
 7043TIP3    H221073   5.109   7.564   5.976
 7044TIP3   OH221074   1.661   0.889   4.905
 7044TIP3    H121075   1.628   0.979   4.903
 7044TIP3    H221076   1.583   0.835   4.912
 7045TIP3   OH221077   6.136   7.270   4.009
 7045TIP3    H121078   6.125   7.354   3.965
 7045TIP3    H221079   6.175   7.293   4.094
 7046TIP3   OH221080   1.783   1.752   2.388
 7046TIP3    H121081   1.720   1.709   2.331
 7046TIP3    H221082   1.792   1.840   2.352
 7047TIP3   OH221083   8.138   5.437   5.201
 7047TIP3    H121084   8.089   5.369   5.248
 7047TIP3    H221085   8.072   5.500   5.174
 7048TIP3   OH221086   3.535   7.365   4.873
 7048TIP3    H121087   3.463   7.318   4.831
 7048TIP3    H221088   3.614   7.334   4.828
 7049TIP3   OH221089   8.193   0.510   1.981
 7049TIP3    H121090   8.248   0.458   1.923
 7049TIP3    H221091   8.155   0.446   2.042
 7050TIP3   OH221092   6.008   4.892   0.425
 7050TIP3    H121093   5.916   4.904   0.399
 7050TIP3    H221094   6.032   4.807   0.388
 7051TIP3   OH221095   4.284   0.086   1.786
 7051TIP3    H121096   4.222   0.123   1.849
 7051TIP3    H221097   4.312   0.003   1.826
 7052TIP3   OH221098   4.035   5.052   0.485
 7052TIP3    H121099   3.961   5.092   0.529
 7052TIP3    H221100   4.000   5.021   0.402
 7053TIP3   OH221101   6.769   6.415   2.893
 7053TIP3    H121102   6.741   6.418   2.984
 7053TIP3    H221103   6.702   6.360   2.850
 7054TIP3   OH221104   2.535   0.251   3.064
 7054TIP3    H121105   2.529   0.238   2.969
 7054TIP3    H221106   2.525   0.346   3.076
 7055TIP3   OH221107   3.901   2.873   0.953
 7055TIP3    H121108   3.833   2.940   0.941
 7055TIP3    H221109   3.947   2.871   0.869
 7056TIP3   OH221110   7.211   2.530   1.339
 7056TIP3    H121111   7.212   2.471   1.264
 7056TIP3    H221112   7.128   2.511   1.383
 7057TIP3   OH221113   3.682   4.093   3.422
 7057TIP3    H121114   3.700   4.045   3.341
 7057TIP3    H221115   3.725   4.041   3.490
 7058TIP3   OH221116   6.056   5.595   1.978
 7058TIP3    H121117   6.018   5.535   2.042
 7058TIP3    H221118   6.038   5.682   2.013
 7059TIP3   OH221119   7.449   5.197   5.363
 7059TIP3    H121120   7.407   5.233   5.442
 7059TIP3    H221121   7.491   5.273   5.323
 7060TIP3   OH221122   4.406   2.266   6.499
 7060TIP3    H121123   4.399   2.172   6.485
 7060TIP3    H221124   4.330   2.304   6.455
 7061TIP3   OH221125   1.243   5.356   6.667
 7061TIP3    H121126   1.158   5.377   6.629
 7061TIP3    H221127   1.302   5.424   6.634
 7062TIP3   OH221128   2.958   4.703   3.166
 7062TIP3    H121129   2.927   4.635   3.107
 7062TIP3    H221130   2.883   4.762   3.176
 7063TIP3   OH221131   5.398   7.107   5.830
 7063TIP3    H121132   5.382   7.018   5.798
 7063TIP3    H221133   5.359   7.108   5.918
 7064TIP3   OH221134   7.524   0.659   6.649
 7064TIP3    H121135   7.551   0.751   6.657
 7064TIP3    H221136   7.602   0.609   6.672
 7065TIP3   OH221137   6.312   2.088   1.445
 7065TIP3    H121138   6.228   2.111   1.486
 7065TIP3    H221139   6.336   2.005   1.486
 7066TIP3   OH221140   0.756   2.972   5.750
 7066TIP3    H121141   0.784   3.063   5.744
 7066TIP3    H221142   0.801   2.938   5.828
 7067TIP3   OH221143   2.259   0.622   4.011
 7067TIP3    H121144   2.293   0.660   3.930
 7067TIP3    H221145   2.183   0.570   3.983
 7068TIP3   OH221146   5.748   4.476   4.955
 7068TIP3    H121147   5.821   4.505   5.010
 7068TIP3    H221148   5.789   4.419   4.890
 7069TIP3   OH221149   5.870   6.371   5.158
 7069TIP3    H121150   5.925   6.295   5.143
 7069TIP3    H221151   5.843   6.400   5.071
 7070TIP3   OH221152   3.125   6.479   0.165
 7070TIP3    H121153   3.065   6.405   0.168
 7070TIP3    H221154   3.067   6.556   0.162
 7071TIP3   OH221155   0.235   2.946   1.541
 7071TIP3    H121156   0.190   2.873   1.498
 7071TIP3    H221157   0.267   3.000   1.469
 7072TIP3   OH221158   4.067   4.594   5.158
 7072TIP3    H121159   3.992   4.591   5.098
 7072TIP3    H221160   4.045   4.531   5.227
 7073TIP3   OH221161   7.505   4.250   6.098
 7073TIP3    H121162   7.541   4.330   6.060
 7073TIP3    H221163   7.411   4.267   6.106
 7074TIP3   OH221164   6.463   6.716   5.111
 7074TIP3    H121165   6.555   6.733   5.130
 7074TIP3    H221166   6.437   6.788   5.053
 7075TIP3   OH221167   2.788   6.697   4.720
 7075TIP3    H121168   2.746   6.732   4.641
 7075TIP3    H221169   2.736   6.620   4.743
 7076TIP3   OH221170   3.440   5.256   3.084
 7076TIP3    H121171   3.448   5.334   3.138
 7076TIP3    H221172   3.474   5.185   3.140
 7077TIP3   OH221173   3.053   6.927   6.181
 7077TIP3    H121174   3.125   6.916   6.242
 7077TIP3    H221175   3.083   6.993   6.118
 7078TIP3   OH221176   7.892   6.064   5.618
 7078TIP3    H121177   7.842   5.994   5.577
 7078TIP3    H221178   7.975   6.065   5.571
 7079TIP3   OH221179   1.647   0.100   5.756
 7079TIP3    H121180   1.574   0.133   5.809
 7079TIP3    H221181   1.689   0.178   5.721
 7080TIP3   OH221182   2.206   3.865   4.236
 7080TIP3    H121183   2.249   3.936   4.189
 7080TIP3    H221184   2.160   3.816   4.168
 7081TIP3   OH221185   1.322   3.051   1.220
 7081TIP3    H121186   1.385   3.020   1.155
 7081TIP3    H221187   1.338   2.997   1.297
 7082TIP3   OH221188   0.305   5.682   6.551
 7082TIP3    H121189   0.268   5.755   6.600
 7082TIP3    H221190   0.334   5.721   6.468
 7083TIP3   OH221191   8.281   7.646   0.480
 7083TIP3    H121192   8.215   7.691   0.428
 7083TIP3    H221193   8.253   7.554   0.479
 7084TIP3   OH221194   3.582   4.011   1.082
 7084TIP3    H121195   3.502   3.964   1.058
 7084TIP3    H221196   3.609   4.054   1.001
 7085TIP3   OH221197   7.844   5.777   3.580
 7085TIP3    H121198   7.843   5.681   3.572
 7085TIP3    H221199   7.768   5.797   3.634
 7086TIP3   OH221200   6.392   6.937   3.546
 7086TIP3    H121201   6.383   6.932   3.451
 7086TIP3    H221202   6.444   6.861   3.570
 7087TIP3   OH221203   0.954   2.021   2.933
 7087TIP3    H121204   0.869   2.057   2.909
 7087TIP3    H221205   0.970   1.952   2.868
 7088TIP3   OH221206   6.880   2.126   4.755
 7088TIP3    H121207   6.959   2.074   4.742
 7088TIP3    H221208   6.864   2.122   4.849
 7089TIP3   OH221209   3.955   0.054   3.889
 7089TIP3    H121210   3.891   0.118   3.920
 7089TIP3    H221211   3.916  -0.031   3.911
 7090TIP3   OH221212   1.073   6.467   4.375
 7090TIP3    H121213   1.143   6.424   4.425
 7090TIP3    H221214   1.054   6.546   4.424
 7091TIP3   OH221215   3.124   0.793   2.257
 7091TIP3    H121216   3.110   0.715   2.203
 7091TIP3    H221217   3.201   0.835   2.219
 7092TIP3   OH221218   0.358   1.280   6.082
 7092TIP3    H121219   0.329   1.209   6.140
 7092TIP3    H221220   0.416   1.237   6.019
 7093TIP3   OH221221   1.669   0.631   2.337
 7093TIP3    H121222   1.711   0.714   2.317
 7093TIP3    H221223   1.724   0.565   2.296
 7094TIP3   OH221224   0.513   7.162   6.495
 7094TIP3    H121225   0.556   7.088   6.538
 7094TIP3    H221226   0.423   7.133   6.483
 7095TIP3   OH221227   8.000   4.035   6.073
 7095TIP3    H121228   8.049   4.000   5.998
 7095TIP3    H221229   7.987   4.127   6.051
 7096TIP3   OH221230   0.270   6.901   3.274
 7096TIP3    H121231   0.334   6.954   3.227
 7096TIP3    H221232   0.257   6.824   3.219
 7097TIP3   OH221233   6.509   1.260   1.336
 7097TIP3    H121234   6.521   1.214   1.253
 7097TIP3    H221235   6.418   1.241   1.360
 7098TIP3   OH221236   3.579   1.381   3.546
 7098TIP3    H121237   3.576   1.417   3.635
 7098TIP3    H221238   3.532   1.446   3.493
 7099TIP3   OH221239   0.178   5.173   6.724
 7099TIP3    H121240   0.148   5.260   6.749
 7099TIP3    H221241   0.272   5.184   6.710
 7100TIP3   OH221242   2.734   4.630   6.718
 7100TIP3    H121243   2.734   4.551   6.665
 7100TIP3    H221244   2.703   4.699   6.659
 7101TIP3   OH221245   5.995   0.346   0.419
 7101TIP3    H121246   5.942   0.304   0.487
 7101TIP3    H221247   5.933   0.363   0.348
 7102TIP3   OH221248   6.352   4.877   1.896
 7102TIP3    H121249   6.294   4.946   1.928
 7102TIP3    H221250   6.349   4.810   1.964
 7103TIP3   OH221251   4.410   0.413   4.945
 7103TIP3    H121252   4.500   0.425   4.973
 7103TIP3    H221253   4.413   0.420   4.850
 7104TIP3   OH221254   5.306   6.200   4.999
 7104TIP3    H121255   5.323   6.107   4.985
 7104TIP3    H221256   5.288   6.208   5.093
 7105TIP3   OH221257   6.521   1.179   1.044
 7105TIP3    H121258   6.527   1.085   1.030
 7105TIP3    H221259   6.524   1.217   0.956
 7106TIP3   OH221260   6.017   2.528   0.648
 7106TIP3    H121261   6.037   2.464   0.580
 7106TIP3    H221262   5.981   2.604   0.601
 7107TIP3   OH221263   2.214   6.138   4.096
 7107TIP3    H121264   2.289   6.113   4.150
 7107TIP3    H221265   2.252   6.192   4.026
 7108TIP3   OH221266   4.493   4.458   3.953
 7108TIP3    H121267   4.468   4.375   3.911
 7108TIP3    H221268   4.528   4.511   3.881
 7109TIP3   OH221269   0.285   6.907   5.052
 7109TIP3    H121270   0.264   6.891   5.144
 7109TIP3    H221271   0.241   6.989   5.031
 7110TIP3   OH221272   8.096   4.938   6.145
 7110TIP3    H121273   8.003   4.959   6.141
 7110TIP3    H221274   8.138   5.005   6.090
 7111TIP3   OH221275   1.678   6.576   0.356
 7111TIP3    H121276   1.621   6.515   0.310
 7111TIP3    H221277   1.641   6.663   0.338
 7112TIP3   OH221278   0.597   7.823   4.340
 7112TIP3    H121279   0.625   7.868   4.420
 7112TIP3    H221280   0.597   7.730   4.365
 7113TIP3   OH221281   6.100   3.630   3.317
 7113TIP3    H121282   6.017   3.584   3.304
 7113TIP3    H221283   6.103   3.647   3.412
 7114TIP3   OH221284   3.304   1.570   1.754
 7114TIP3    H121285   3.331   1.568   1.662
 7114TIP3    H221286   3.224   1.517   1.757
 7115TIP3   OH221287   0.886   1.972   2.425
 7115TIP3    H121288   0.961   1.960   2.484
 7115TIP3    H221289   0.812   1.937   2.474
 7116TIP3   OH221290   5.460   1.649   0.525
 7116TIP3    H121291   5.508   1.691   0.454
 7116TIP3    H221292   5.371   1.684   0.518
 7117TIP3   OH221293   3.411   3.154   3.040
 7117TIP3    H121294   3.340   3.104   2.999
 7117TIP3    H221295   3.403   3.241   3.002
 7118TIP3   OH221296   5.129   6.272   3.814
 7118TIP3    H121297   5.097   6.360   3.794
 7118TIP3    H221298   5.223   6.283   3.833
 7119TIP3   OH221299   1.927   5.816   2.581
 7119TIP3    H121300   1.972   5.901   2.575
 7119TIP3    H221301   1.839   5.838   2.610
 7120TIP3   OH221302   0.237   5.937   4.367
 7120TIP3    H121303   0.244   5.942   4.271
 7120TIP3    H221304   0.307   5.995   4.398
 7121TIP3   OH221305   4.224   4.982   1.699
 7121TIP3    H121306   4.287   5.042   1.739
 7121TIP3    H221307   4.267   4.951   1.619
 7122TIP3   OH221308   5.499   5.545   5.588
 7122TIP3    H121309   5.415   5.579   5.557
 7122TIP3    H221310   5.488   5.537   5.683
 7123TIP3   OH221311   6.243   2.210   1.200
 7123TIP3    H121312   6.328   2.234   1.163
 7123TIP3    H221313   6.265   2.159   1.278
 7124TIP3   OH221314   5.328   2.023   3.375
 7124TIP3    H121315   5.260   2.074   3.332
 7124TIP3    H221316   5.404   2.081   3.379
 7125TIP3   OH221317   4.032   3.409   0.520
 7125TIP3    H121318   4.097   3.342   0.498
 7125TIP3    H221319   4.055   3.484   0.466
 7126TIP3   OH221320   4.247   0.028   6.187
 7126TIP3    H121321   4.334  -0.009   6.203
 7126TIP3    H221322   4.263   0.100   6.126
 7127TIP3   OH221323   3.997   2.095   4.728
 7127TIP3    H121324   3.925   2.142   4.686
 7127TIP3    H221325   4.064   2.162   4.745
 7128TIP3   OH221326   6.368   1.409   4.893
 7128TIP3    H121327   6.460   1.433   4.884
 7128TIP3    H221328   6.332   1.419   4.805
 7129TIP3   OH221329   5.836   0.886   1.722
 7129TIP3    H121330   5.747   0.870   1.690
 7129TIP3    H221331   5.824   0.915   1.812
 7130TIP3   OH221332   7.055   6.592   1.473
 7130TIP3    H121333   6.967   6.609   1.440
 7130TIP3    H221334   7.048   6.506   1.516
 7131TIP3   OH221335   2.904   4.360   3.570
 7131TIP3    H121336   2.984   4.388   3.526
 7131TIP3    H221337   2.881   4.277   3.528
 7132TIP3   OH221338   2.754   4.216   3.148
 7132TIP3    H121339   2.682   4.274   3.172
 7132TIP3    H221340   2.716   4.153   3.087
 7133TIP3   OH221341   7.436   3.572   2.984
 7133TIP3    H121342   7.490   3.643   3.020
 7133TIP3    H221343   7.437   3.505   3.053
 7134TIP3   OH221344   1.847   1.749   4.519
 7134TIP3    H121345   1.886   1.734   4.606
 7134TIP3    H221346   1.824   1.662   4.488
 7135TIP3   OH221347   4.530   3.884   1.338
 7135TIP3    H121348   4.509   3.948   1.405
 7135TIP3    H221349   4.608   3.840   1.370
 7136TIP3   OH221350   1.075   5.752   5.755
 7136TIP3    H121351   1.057   5.843   5.729
 7136TIP3    H221352   0.995   5.724   5.800
 7137TIP3   OH221353   0.737   4.316   5.058
 7137TIP3    H121354   0.792   4.288   4.985
 7137TIP3    H221355   0.658   4.350   5.016
 7138TIP3   OH221356   4.745   4.308   4.891
 7138TIP3    H121357   4.753   4.334   4.799
 7138TIP3    H221358   4.652   4.315   4.910
 7139TIP3   OH221359   1.537   4.187   5.504
 7139TIP3    H121360   1.547   4.146   5.590
 7139TIP3    H221361   1.618   4.165   5.458
 7140TIP3   OH221362   5.257   5.317   1.660
 7140TIP3    H121363   5.220   5.248   1.715
 7140TIP3    H221364   5.324   5.357   1.714
 7141TIP3   OH221365   1.232   1.769   0.734
 7141TIP3    H121366   1.159   1.800   0.680
 7141TIP3    H221367   1.223   1.818   0.816
 7142TIP3   OH221368   4.703   3.896   3.821
 7142TIP3    H121369   4.730   3.955   3.891
 7142TIP3    H221370   4.785   3.869   3.779
 7143TIP3   OH221371   1.140   2.229   4.501
 7143TIP3    H121372   1.210   2.245   4.438
 7143TIP3    H221373   1.117   2.316   4.534
 7144TIP3   OH221374   3.230   4.330   2.832
 7144TIP3    H121375   3.318   4.302   2.807
 7144TIP3    H221376   3.172   4.262   2.796
 7145TIP3   OH221377   6.313   6.432   4.019
 7145TIP3    H121378   6.343   6.348   4.053
 7145TIP3    H221379   6.250   6.410   3.951
 7146TIP3   OH221380   6.997   2.781   5.481
 7146TIP3    H121381   6.984   2.756   5.572
 7146TIP3    H221382   7.091   2.798   5.475
 7147TIP3   OH221383   2.700   3.302   4.094
 7147TIP3    H121384   2.757   3.342   4.028
 7147TIP3    H221385   2.747   3.224   4.122
 7148TIP3   OH221386   5.382   6.454   0.997
 7148TIP3    H121387   5.430   6.469   1.078
 7148TIP3    H221388   5.366   6.360   0.995
 7149TIP3   OH221389   5.537   5.951   2.653
 7149TIP3    H121390   5.491   5.977   2.733
 7149TIP3    H221391   5.502   6.009   2.585
 7150TIP3   OH221392   4.504   0.509   6.165
 7150TIP3    H121393   4.583   0.481   6.210
 7150TIP3    H221394   4.522   0.493   6.072
 7151TIP3   OH221395   4.586   7.304   0.570
 7151TIP3    H121396   4.677   7.330   0.583
 7151TIP3    H221397   4.554   7.362   0.501
 7152TIP3   OH221398   5.853   5.768   3.162
 7152TIP3    H121399   5.932   5.744   3.211
 7152TIP3    H221400   5.880   5.843   3.109
 7153TIP3   OH221401   5.831   6.230   5.502
 7153TIP3    H121402   5.827   6.184   5.586
 7153TIP3    H221403   5.874   6.313   5.522
 7154TIP3   OH221404   0.657   5.937   4.883
 7154TIP3    H121405   0.713   5.860   4.892
 7154TIP3    H221406   0.716   6.007   4.855
 7155TIP3   OH221407   2.200   5.006   3.869
 7155TIP3    H121408   2.270   5.029   3.807
 7155TIP3    H221409   2.120   5.015   3.819
 7156TIP3   OH221410   3.035   3.495   0.642
 7156TIP3    H121411   3.081   3.535   0.568
 7156TIP3    H221412   3.003   3.412   0.608
 7157TIP3   OH221413   1.717   5.747   2.023
 7157TIP3    H121414   1.699   5.788   1.938
 7157TIP3    H221415   1.764   5.815   2.072
 7158TIP3   OH221416   3.349   0.184   5.751
 7158TIP3    H121417   3.402   0.184   5.830
 7158TIP3    H221418   3.358   0.096   5.715
 7159TIP3   OH221419   6.489   4.277   3.626
 7159TIP3    H121420   6.471   4.205   3.565
 7159TIP3    H221421   6.502   4.234   3.710
 7160TIP3   OH221422   1.281   3.387   4.451
 7160TIP3    H121423   1.192   3.364   4.423
 7160TIP3    H221424   1.272   3.414   4.542
 7161TIP3   OH221425   3.680   7.399   3.371
 7161TIP3    H121426   3.714   7.315   3.401
 7161TIP3    H221427   3.642   7.381   3.285
 7162TIP3   OH221428   1.721   0.657   5.724
 7162TIP3    H121429   1.667   0.597   5.672
 7162TIP3    H221430   1.729   0.735   5.669
 7163TIP3   OH221431   4.919   5.766   6.192
 7163TIP3    H121432   4.945   5.838   6.135
 7163TIP3    H221433   4.897   5.695   6.132
 7164TIP3   OH221434   7.414   1.359   5.683
 7164TIP3    H121435   7.501   1.366   5.722
 7164TIP3    H221436   7.356   1.404   5.745
 7165TIP3   OH221437   1.991   0.688   2.495
 7165TIP3    H121438   1.960   0.602   2.523
 7165TIP3    H221439   2.013   0.733   2.577
 7166TIP3   OH221440   3.425   3.608   0.473
 7166TIP3    H121441   3.517   3.636   0.475
 7166TIP3    H221442   3.398   3.621   0.383
 7167TIP3   OH221443   6.976   3.471   0.999
 7167TIP3    H121444   7.062   3.502   0.971
 7167TIP3    H221445   6.960   3.517   1.081
 7168TIP3   OH221446   0.895   3.448   6.052
 7168TIP3    H121447   0.945   3.484   6.125
 7168TIP3    H221448   0.847   3.523   6.016
 7169TIP3   OH221449   1.763   1.553   0.732
 7169TIP3    H121450   1.686   1.535   0.677
 7169TIP3    H221451   1.835   1.509   0.687
 7170TIP3   OH221452   0.184   5.707   6.057
 7170TIP3    H121453   0.224   5.754   6.130
 7170TIP3    H221454   0.094   5.739   6.054
 7171TIP3   OH221455   3.270   3.906   3.428
 7171TIP3    H121456   3.249   3.972   3.363
 7171TIP3    H221457   3.278   3.955   3.510
 7172TIP3   OH221458   7.418   0.137   3.412
 7172TIP3    H121459   7.395   0.214   3.464
 7172TIP3    H221460   7.410   0.064   3.473
 7173TIP3   OH221461   4.405   4.608   1.277
 7173TIP3    H121462   4.338   4.554   1.236
 7173TIP3    H221463   4.381   4.698   1.255
 7174TIP3   OH221464   4.981   2.338   3.938
 7174TIP3    H121465   5.018   2.276   3.876
 7174TIP3    H221466   5.003   2.424   3.902
 7175TIP3   OH221467   7.776   2.164   0.791
 7175TIP3    H121468   7.774   2.151   0.696
 7175TIP3    H221469   7.845   2.104   0.821
 7176TIP3   OH221470   5.928   4.279   6.703
 7176TIP3    H121471   5.900   4.349   6.760
 7176TIP3    H221472   6.024   4.289   6.698
 7177TIP3   OH221473   1.713   2.811   6.001
 7177TIP3    H121474   1.737   2.768   6.083
 7177TIP3    H221475   1.696   2.739   5.940
 7178TIP3   OH221476   6.787   2.278   6.086
 7178TIP3    H121477   6.723   2.292   6.016
 7178TIP3    H221478   6.750   2.322   6.162
 7179TIP3   OH221479   0.370   3.122   3.157
 7179TIP3    H121480   0.379   3.118   3.253
 7179TIP3    H221481   0.341   3.035   3.132
 7180TIP3   OH221482   3.121   3.938   0.759
 7180TIP3    H121483   3.039   3.889   0.750
 7180TIP3    H221484   3.190   3.873   0.748
 7181TIP3   OH221485   1.904   1.306   2.439
 7181TIP3    H121486   1.950   1.368   2.496
 7181TIP3    H221487   1.964   1.292   2.366
 7182TIP3   OH221488   6.742   0.704   6.244
 7182TIP3    H121489   6.652   0.675   6.233
 7182TIP3    H221490   6.791   0.623   6.262
 7183TIP3   OH221491   6.907   2.652   3.940
 7183TIP3    H121492   6.890   2.579   3.999
 7183TIP3    H221493   7.003   2.659   3.937
 7184TIP3   OH221494   4.526   3.421   2.006
 7184TIP3    H121495   4.490   3.392   1.922
 7184TIP3    H221496   4.620   3.409   1.997
 7185TIP3   OH221497   1.671   1.194   2.671
 7185TIP3    H121498   1.576   1.183   2.672
 7185TIP3    H221499   1.690   1.249   2.747
 7186TIP3   OH221500   5.868   0.565   4.755
 7186TIP3    H121501   5.834   0.484   4.794
 7186TIP3    H221502   5.920   0.606   4.824
 7187TIP3   OH221503   6.651   4.871   0.070
 7187TIP3    H121504   6.565   4.910   0.060
 7187TIP3    H221505   6.635   4.777   0.069
 7188TIP3   OH221506   4.512   3.924   1.808
 7188TIP3    H121507   4.601   3.890   1.796
 7188TIP3    H221508   4.522   3.997   1.869
 7189TIP3   OH221509   6.547   5.036   6.573
 7189TIP3    H121510   6.525   4.947   6.600
 7189TIP3    H221511   6.608   5.068   6.639
 7190TIP3   OH221512   3.281   0.507   2.705
 7190TIP3    H121513   3.297   0.566   2.779
 7190TIP3    H221514   3.362   0.512   2.653
 7191TIP3   OH221515   7.996   0.737   0.457
 7191TIP3    H121516   8.083   0.707   0.481
 7191TIP3    H221517   7.951   0.751   0.540
 7192TIP3   OH221518   2.972   1.808   4.417
 7192TIP3    H121519   3.063   1.777   4.422
 7192TIP3    H221520   2.942   1.809   4.508
 7193TIP3   OH221521   4.079   3.206   2.968
 7193TIP3    H121522   4.027   3.127   2.957
 7193TIP3    H221523   4.135   3.209   2.891
 7194TIP3   OH221524   0.590   5.390   5.380
 7194TIP3    H121525   0.551   5.302   5.373
 7194TIP3    H221526   0.654   5.394   5.309
 7195TIP3   OH221527   1.623   3.687   1.495
 7195TIP3    H121528   1.562   3.727   1.432
 7195TIP3    H221529   1.572   3.618   1.537
 7196TIP3   OH221530   2.607   1.830   6.330
 7196TIP3    H121531   2.656   1.837   6.412
 7196TIP3    H221532   2.564   1.915   6.321
 7197TIP3   OH221533   6.352   4.649   0.265
 7197TIP3    H121534   6.400   4.669   0.346
 7197TIP3    H221535   6.323   4.734   0.233
 7198TIP3   OH221536   1.615   2.992   1.908
 7198TIP3    H121537   1.538   2.968   1.857
 7198TIP3    H221538   1.586   2.989   1.999
 7199TIP3   OH221539   6.594   0.516   1.078
 7199TIP3    H121540   6.598   0.593   1.022
 7199TIP3    H221541   6.646   0.539   1.155
 7200TIP3   OH221542   2.969   6.323   2.416
 7200TIP3    H121543   2.998   6.247   2.466
 7200TIP3    H221544   2.959   6.292   2.327
 7201TIP3   OH221545   3.898   0.685   2.650
 7201TIP3    H121546   3.854   0.637   2.719
 7201TIP3    H221547   3.835   0.686   2.578
 7202TIP3   OH221548   6.359   0.373   1.071
 7202TIP3    H121549   6.431   0.434   1.052
 7202TIP3    H221550   6.358   0.313   0.997
 7203TIP3   OH221551   1.979   2.048   4.244
 7203TIP3    H121552   2.033   2.023   4.170
 7203TIP3    H221553   1.913   2.107   4.207
 7204TIP3   OH221554   5.172   6.210   2.037
 7204TIP3    H121555   5.125   6.180   1.959
 7204TIP3    H221556   5.265   6.205   2.012
 7205TIP3   OH221557   2.582   6.906   1.209
 7205TIP3    H121558   2.614   6.825   1.169
 7205TIP3    H221559   2.567   6.965   1.135
 7206TIP3   OH221560   1.563   3.432   5.288
 7206TIP3    H121561   1.552   3.526   5.278
 7206TIP3    H221562   1.563   3.417   5.383
 7207TIP3   OH221563   1.821   1.122   0.828
 7207TIP3    H121564   1.873   1.193   0.790
 7207TIP3    H221565   1.871   1.043   0.808
 7208TIP3   OH221566   5.428   2.407   0.064
 7208TIP3    H121567   5.513   2.373   0.036
 7208TIP3    H221568   5.407   2.475   0.000
 7209TIP3   OH221569   2.330   2.624   0.720
 7209TIP3    H121570   2.327   2.563   0.646
 7209TIP3    H221571   2.315   2.710   0.681
 7210TIP3   OH221572   4.537   1.079   3.619
 7210TIP3    H121573   4.589   1.148   3.579
 7210TIP3    H221574   4.515   1.113   3.706
 7211TIP3   OH221575   0.789   5.648   3.886
 7211TIP3    H121576   0.844   5.579   3.925
 7211TIP3    H221577   0.807   5.725   3.940
 7212TIP3   OH221578   6.399   7.682   2.460
 7212TIP3    H121579   6.346   7.660   2.383
 7212TIP3    H221580   6.448   7.760   2.434
 7213TIP3   OH221581   3.090   1.383   6.038
 7213TIP3    H121582   3.058   1.312   6.094
 7213TIP3    H221583   3.073   1.354   5.949
 7214TIP3   OH221584   6.687   3.476   4.949
 7214TIP3    H121585   6.607   3.433   4.978
 7214TIP3    H221586   6.660   3.532   4.876
 7215TIP3   OH221587   8.057   2.199   1.903
 7215TIP3    H121588   8.076   2.210   1.810
 7215TIP3    H221589   8.044   2.104   1.913
 7216TIP3   OH221590   1.550   7.521   2.724
 7216TIP3    H121591   1.473   7.541   2.671
 7216TIP3    H221592   1.553   7.426   2.726
 7217TIP3   OH221593   4.144   7.239   5.973
 7217TIP3    H121594   4.197   7.165   6.003
 7217TIP3    H221595   4.102   7.207   5.893
 7218TIP3   OH221596   3.223   0.710   6.130
 7218TIP3    H121597   3.207   0.773   6.060
 7218TIP3    H221598   3.313   0.726   6.158
 7219TIP3   OH221599   1.855   1.787   0.314
 7219TIP3    H121600   1.920   1.856   0.307
 7219TIP3    H221601   1.904   1.711   0.347
 7220TIP3   OH221602   2.949   5.361   5.485
 7220TIP3    H121603   2.967   5.280   5.532
 7220TIP3    H221604   3.029   5.413   5.495
 7221TIP3   OH221605   6.424   7.188   2.572
 7221TIP3    H121606   6.334   7.188   2.539
 7221TIP3    H221607   6.466   7.262   2.527
 7222TIP3   OH221608   0.894   1.347   4.201
 7222TIP3    H121609   0.861   1.374   4.287
 7222TIP3    H221610   0.853   1.407   4.139
 7223TIP3   OH221611   1.951   7.489   1.547
 7223TIP3    H121612   2.027   7.533   1.585
 7223TIP3    H221613   1.988   7.430   1.481
 7224TIP3   OH221614   1.994   6.909   4.615
 7224TIP3    H121615   1.951   6.991   4.589
 7224TIP3    H221616   1.946   6.881   4.693
 7225TIP3   OH221617   3.707   4.332   1.038
 7225TIP3    H121618   3.716   4.260   0.975
 7225TIP3    H221619   3.790   4.333   1.085
 7226TIP3   OH221620   7.901   3.430   3.415
 7226TIP3    H121621   7.823   3.405   3.465
 7226TIP3    H221622   7.928   3.349   3.371
 7227TIP3   OH221623   4.033   6.841   5.693
 7227TIP3    H121624   4.058   6.933   5.700
 7227TIP3    H221625   3.960   6.831   5.754
 7228TIP3   OH221626   5.894   7.109   6.445
 7228TIP3    H121627   5.933   7.191   6.414
 7228TIP3    H221628   5.910   7.046   6.375
 7229TIP3   OH221629   3.180   6.550   3.925
 7229TIP3    H121630   3.251   6.501   3.882
 7229TIP3    H221631   3.193   6.534   4.018
 7230TIP3   OH221632   3.889   3.339   4.947
 7230TIP3    H121633   3.796   3.318   4.933
 7230TIP3    H221634   3.925   3.349   4.859
 7231TIP3   OH221635   6.472   2.285   2.452
 7231TIP3    H121636   6.397   2.331   2.414
 7231TIP3    H221637   6.506   2.231   2.381
 7232TIP3   OH221638   6.722   6.414   1.925
 7232TIP3    H121639   6.698   6.321   1.925
 7232TIP3    H221640   6.777   6.424   2.003
 7233TIP3   OH221641   1.737   5.894   1.794
 7233TIP3    H121642   1.702   5.945   1.721
 7233TIP3    H221643   1.828   5.923   1.802
 7234TIP3   OH221644   5.394   3.758   5.695
 7234TIP3    H121645   5.402   3.842   5.740
 7234TIP3    H221646   5.382   3.694   5.765
 7235TIP3   OH221647   3.830   2.537   4.428
 7235TIP3    H121648   3.756   2.598   4.424
 7235TIP3    H221649   3.888   2.564   4.356
 7236TIP3   OH221650   4.363   5.303   2.314
 7236TIP3    H121651   4.421   5.267   2.382
 7236TIP3    H221652   4.422   5.350   2.255
 7237TIP3   OH221653   2.108   6.889   3.747
 7237TIP3    H121654   2.122   6.979   3.777
 7237TIP3    H221655   2.159   6.882   3.667
 7238TIP3   OH221656   3.809   1.873   5.926
 7238TIP3    H121657   3.840   1.901   5.840
 7238TIP3    H221658   3.767   1.789   5.911
 7239TIP3   OH221659   4.508   7.312   6.759
 7239TIP3    H121660   4.484   7.363   6.682
 7239TIP3    H221661   4.547   7.232   6.724
 7240TIP3   OH221662   4.904   5.502   5.303
 7240TIP3    H121663   4.946   5.526   5.220
 7240TIP3    H221664   4.811   5.493   5.280
 7241TIP3   OH221665   2.018   0.740   2.220
 7241TIP3    H121666   1.996   0.709   2.308
 7241TIP3    H221667   1.935   0.737   2.172
 7242TIP3   OH221668   0.365   5.905   0.553
 7242TIP3    H121669   0.434   5.875   0.494
 7242TIP3    H221670   0.409   5.914   0.638
 7243TIP3   OH221671   1.180   0.299   3.775
 7243TIP3    H121672   1.214   0.368   3.832
 7243TIP3    H221673   1.085   0.305   3.785
 7244TIP3   OH221674   3.490   0.369   1.497
 7244TIP3    H121675   3.504   0.426   1.422
 7244TIP3    H221676   3.514   0.281   1.466
 7245TIP3   OH221677   3.182   6.359   4.799
 7245TIP3    H121678   3.222   6.275   4.778
 7245TIP3    H221679   3.235   6.423   4.752
 7246TIP3   OH221680   0.155   1.504   4.097
 7246TIP3    H121681   0.108   1.556   4.032
 7246TIP3    H221682   0.136   1.547   4.181
 7247TIP3   OH221683   0.335   2.498   6.194
 7247TIP3    H121684   0.242   2.476   6.195
 7247TIP3    H221685   0.378   2.422   6.234
 7248TIP3   OH221686   2.335   6.516   5.618
 7248TIP3    H121687   2.420   6.472   5.609
 7248TIP3    H221688   2.342   6.567   5.698
 7249TIP3   OH221689   5.488   6.131   4.052
 7249TIP3    H121690   5.548   6.094   4.116
 7249TIP3    H221691   5.401   6.116   4.088
 7250TIP3   OH221692   6.146   6.016   2.682
 7250TIP3    H121693   6.217   5.956   2.657
 7250TIP3    H221694   6.094   6.027   2.603
 7251TIP3   OH221695   7.667   0.362   3.423
 7251TIP3    H121696   7.717   0.291   3.383
 7251TIP3    H221697   7.656   0.335   3.514
 7252TIP3   OH221698   8.115   7.735   5.247
 7252TIP3    H121699   8.151   7.718   5.160
 7252TIP3    H221700   8.190   7.764   5.299
 7253TIP3   OH221701   0.087   6.315   2.274
 7253TIP3    H121702   0.173   6.353   2.292
 7253TIP3    H221703   0.090   6.290   2.182
 7254TIP3   OH221704   6.437   7.367   3.346
 7254TIP3    H121705   6.512   7.331   3.299
 7254TIP3    H221706   6.471   7.388   3.433
 7255TIP3   OH221707   4.108   0.993   6.229
 7255TIP3    H121708   4.070   0.944   6.156
 7255TIP3    H221709   4.037   1.003   6.292
 7256TIP3   OH221710   4.163   3.986   2.340
 7256TIP3    H121711   4.230   3.925   2.371
 7256TIP3    H221712   4.201   4.073   2.353
 7257TIP3   OH221713   5.839   7.288   6.114
 7257TIP3    H121714   5.789   7.229   6.057
 7257TIP3    H221715   5.809   7.375   6.090
 7258TIP3   OH221716   5.058   5.175   5.182
 7258TIP3    H121717   5.129   5.162   5.119
 7258TIP3    H221718   5.091   5.139   5.264
 7259TIP3   OH221719   2.341   1.691   3.802
 7259TIP3    H121720   2.390   1.739   3.868
 7259TIP3    H221721   2.316   1.609   3.845
 7260TIP3   OH221722   3.328   7.377   4.687
 7260TIP3    H121723   3.361   7.329   4.610
 7260TIP3    H221724   3.269   7.315   4.729
 7261TIP3   OH221725   4.799   2.241   2.460
 7261TIP3    H121726   4.782   2.219   2.551
 7261TIP3    H221727   4.725   2.296   2.434
 7262TIP3   OH221728   4.233   4.046   3.315
 7262TIP3    H121729   4.276   4.025   3.398
 7262TIP3    H221730   4.186   4.127   3.333
 7263TIP3   OH221731   2.569   2.292   0.124
 7263TIP3    H121732   2.555   2.290   0.029
 7263TIP3    H221733   2.575   2.199   0.149
 7264TIP3   OH221734   2.134   4.332   3.508
 7264TIP3    H121735   2.045   4.331   3.544
 7264TIP3    H221736   2.146   4.244   3.472
 7265TIP3   OH221737   0.087   5.891   2.738
 7265TIP3    H121738   0.065   5.827   2.806
 7265TIP3    H221739   0.004   5.905   2.692
 7266TIP3   OH221740   1.920   1.385   6.606
 7266TIP3    H121741   1.849   1.322   6.594
 7266TIP3    H221742   1.971   1.380   6.526
 7267TIP3   OH221743   7.724   2.793   1.756
 7267TIP3    H121744   7.743   2.800   1.663
 7267TIP3    H221745   7.810   2.788   1.799
 7268TIP3   OH221746   7.102   0.645   0.912
 7268TIP3    H121747   7.044   0.720   0.922
 7268TIP3    H221748   7.127   0.646   0.820
 7269TIP3   OH221749   3.439   6.075   3.032
 7269TIP3    H121750   3.471   6.058   2.944
 7269TIP3    H221751   3.369   6.011   3.045
 7270TIP3   OH221752   4.872   4.132   0.241
 7270TIP3    H121753   4.846   4.224   0.238
 7270TIP3    H221754   4.827   4.096   0.317
 7271TIP3   OH221755   0.981   0.410   1.993
 7271TIP3    H121756   1.048   0.468   1.957
 7271TIP3    H221757   0.906   0.420   1.935
 7272TIP3   OH221758   4.575   3.832   1.073
 7272TIP3    H121759   4.591   3.924   1.051
 7272TIP3    H221760   4.548   3.833   1.165
 7273TIP3   OH221761   6.879   4.838   0.791
 7273TIP3    H121762   6.906   4.747   0.794
 7273TIP3    H221763   6.946   4.885   0.840
 7274TIP3   OH221764   8.072   3.008   0.873
 7274TIP3    H121765   8.013   2.935   0.855
 7274TIP3    H221766   8.157   2.968   0.888
 7275TIP3   OH221767   5.133   0.485   1.523
 7275TIP3    H121768   5.106   0.564   1.569
 7275TIP3    H221769   5.164   0.426   1.591
 7276TIP3   OH221770   4.015   1.460   6.348
 7276TIP3    H121771   4.058   1.400   6.287
 7276TIP3    H221772   3.938   1.491   6.300
 7277TIP3   OH221773   5.787   3.739   0.070
 7277TIP3    H121774   5.698   3.744   0.105
 7277TIP3    H221775   5.784   3.788  -0.011
 7278TIP3   OH221776   2.397   2.583   1.830
 7278TIP3    H121777   2.432   2.662   1.871
 7278TIP3    H221778   2.310   2.572   1.869
 7279TIP3   OH221779   4.960   3.824   0.705
 7279TIP3    H121780   4.871   3.814   0.672
 7279TIP3    H221781   4.950   3.882   0.781
 7280TIP3   OH221782   6.092   0.536   6.743
 7280TIP3    H121783   6.086   0.480   6.821
 7280TIP3    H221784   6.034   0.609   6.762
 7281TIP3   OH221785   7.094   6.151   6.652
 7281TIP3    H121786   7.113   6.245   6.659
 7281TIP3    H221787   7.028   6.145   6.582
 7282TIP3   OH221788   0.923   4.437   3.714
 7282TIP3    H121789   0.984   4.459   3.784
 7282TIP3    H221790   0.853   4.388   3.757
 7283TIP3   OH221791   1.502   0.429   1.898
 7283TIP3    H121792   1.479   0.516   1.930
 7283TIP3    H221793   1.594   0.418   1.920
 7284TIP3   OH221794   1.384   5.860   5.062
 7284TIP3    H121795   1.414   5.770   5.046
 7284TIP3    H221796   1.360   5.862   5.154
 7285TIP3   OH221797   5.037   4.145   2.671
 7285TIP3    H121798   5.064   4.054   2.673
 7285TIP3    H221799   4.951   4.144   2.628
 7286TIP3   OH221800   5.602   2.123   5.323
 7286TIP3    H121801   5.602   2.215   5.350
 7286TIP3    H221802   5.514   2.091   5.345
 7287TIP3   OH221803   2.334   3.336   1.489
 7287TIP3    H121804   2.260   3.278   1.505
 7287TIP3    H221805   2.294   3.416   1.456
 7288TIP3   OH221806   7.486   1.341   1.893
 7288TIP3    H121807   7.404   1.311   1.930
 7288TIP3    H221808   7.541   1.361   1.969
 7289TIP3   OH221809   0.211   4.572   0.972
 7289TIP3    H121810   0.148   4.643   0.966
 7289TIP3    H221811   0.283   4.608   1.024
 7290TIP3   OH221812   4.395   0.895   6.182
 7290TIP3    H121813   4.386   0.843   6.102
 7290TIP3    H221814   4.306   0.921   6.204
 7291TIP3   OH221815   2.905   1.101   0.594
 7291TIP3    H121816   2.879   1.111   0.685
 7291TIP3    H221817   2.991   1.060   0.598
 7292TIP3   OH221818   7.187   5.104   1.833
 7292TIP3    H121819   7.197   5.176   1.770
 7292TIP3    H221820   7.205   5.025   1.783
 7293TIP3   OH221821   4.747   3.125   4.273
 7293TIP3    H121822   4.830   3.077   4.275
 7293TIP3    H221823   4.738   3.152   4.182
 7294TIP3   OH221824   5.398   5.826   0.707
 7294TIP3    H121825   5.436   5.821   0.619
 7294TIP3    H221826   5.394   5.735   0.737
 7295TIP3   OH221827   2.010   6.722   5.556
 7295TIP3    H121828   2.047   6.637   5.534
 7295TIP3    H221829   2.068   6.786   5.513
 7296TIP3   OH221830   6.190   1.912   5.599
 7296TIP3    H121831   6.108   1.880   5.562
 7296TIP3    H221832   6.231   1.835   5.637
 7297TIP3   OH221833   3.476   3.113   0.385
 7297TIP3    H121834   3.420   3.104   0.462
 7297TIP3    H221835   3.438   3.053   0.321
 7298TIP3   OH221836   4.547   3.675   6.674
 7298TIP3    H121837   4.522   3.616   6.603
 7298TIP3    H221838   4.596   3.745   6.631
 7299TIP3   OH221839   6.768   6.237   3.246
 7299TIP3    H121840   6.755   6.317   3.196
 7299TIP3    H221841   6.820   6.180   3.188
 7300TIP3   OH221842   2.612   1.650   4.615
 7300TIP3    H121843   2.582   1.636   4.526
 7300TIP3    H221844   2.686   1.590   4.625
 7301TIP3   OH221845   0.620   1.020   4.134
 7301TIP3    H121846   0.674   1.079   4.082
 7301TIP3    H221847   0.583   0.959   4.070
 7302TIP3   OH221848   4.261   7.317   6.254
 7302TIP3    H121849   4.310   7.303   6.173
 7302TIP3    H221850   4.173   7.340   6.226
 7303TIP3   OH221851   6.140   5.457   6.018
 7303TIP3    H121852   6.069   5.395   6.002
 7303TIP3    H221853   6.098   5.531   6.063
 7304TIP3   OH221854   4.285   4.647   2.069
 7304TIP3    H121855   4.199   4.627   2.033
 7304TIP3    H221856   4.347   4.622   2.001
 7305TIP3   OH221857   4.042   7.339   2.256
 7305TIP3    H121858   4.066   7.427   2.227
 7305TIP3    H221859   3.966   7.353   2.314
 7306TIP3   OH221860   6.840   2.197   5.023
 7306TIP3    H121861   6.798   2.230   5.102
 7306TIP3    H221862   6.810   2.256   4.954
 7307TIP3   OH221863   4.526   5.187   2.516
 7307TIP3    H121864   4.477   5.143   2.585
 7307TIP3    H221865   4.579   5.118   2.476
 7308TIP3   OH221866   2.744   2.996   3.982
 7308TIP3    H121867   2.721   2.904   3.997
 7308TIP3    H221868   2.779   3.026   4.066
 7309TIP3   OH221869   5.633   3.715   5.597
 7309TIP3    H121870   5.539   3.729   5.608
 7309TIP3    H221871   5.665   3.796   5.559
 7310TIP3   OH221872   2.621   4.698   6.479
 7310TIP3    H121873   2.645   4.780   6.436
 7310TIP3    H221874   2.582   4.645   6.409
 7311TIP3   OH221875   4.936   3.485   3.496
 7311TIP3    H121876   5.021   3.453   3.466
 7311TIP3    H221877   4.876   3.466   3.424
 7312TIP3   OH221878   3.568   6.960   6.563
 7312TIP3    H121879   3.586   7.030   6.625
 7312TIP3    H221880   3.554   7.004   6.479
 7313TIP3   OH221881   7.116   1.183   1.705
 7313TIP3    H121882   7.112   1.171   1.800
 7313TIP3    H221883   7.193   1.133   1.678
 7314TIP3   OH221884   0.858   2.512   2.234
 7314TIP3    H121885   0.925   2.475   2.292
 7314TIP3    H221886   0.902   2.519   2.149
 7315TIP3   OH221887   7.456   4.988   5.139
 7315TIP3    H121888   7.544   4.980   5.177
 7315TIP3    H221889   7.425   4.897   5.132
 7316TIP3   OH221890   4.673   2.641   4.004
 7316TIP3    H121891   4.589   2.685   4.016
 7316TIP3    H221892   4.679   2.623   3.910
 7317TIP3   OH221893   3.271   5.372   1.379
 7317TIP3    H121894   3.196   5.331   1.336
 7317TIP3    H221895   3.231   5.440   1.435
 7318TIP3   OH221896   5.064   2.778   2.820
 7318TIP3    H121897   5.100   2.811   2.738
 7318TIP3    H221898   5.085   2.684   2.820
 7319TIP3   OH221899   1.993   7.340   4.564
 7319TIP3    H121900   2.053   7.265   4.568
 7319TIP3    H221901   1.910   7.302   4.533
 7320TIP3   OH221902   1.615   2.879   6.418
 7320TIP3    H121903   1.574   2.940   6.479
 7320TIP3    H221904   1.559   2.883   6.340
 7321TIP3   OH221905   6.979   5.977   4.276
 7321TIP3    H121906   6.998   5.986   4.182
 7321TIP3    H221907   7.039   5.909   4.306
 7322TIP3   OH221908   7.626   7.483   2.931
 7322TIP3    H121909   7.713   7.446   2.912
 7322TIP3    H221910   7.601   7.444   3.015
 7323TIP3   OH221911   0.909   2.049   5.557
 7323TIP3    H121912   0.927   1.964   5.516
 7323TIP3    H221913   0.970   2.109   5.514
 7324TIP3   OH221914   8.085   3.230   1.935
 7324TIP3    H121915   8.176   3.213   1.910
 7324TIP3    H221916   8.037   3.152   1.908
 7325TIP3   OH221917   0.898   6.373   5.803
 7325TIP3    H121918   0.875   6.361   5.711
 7325TIP3    H221919   0.985   6.414   5.801
 7326TIP3   OH221920   3.788   6.221   4.990
 7326TIP3    H121921   3.718   6.286   4.994
 7326TIP3    H221922   3.769   6.170   4.911
 7327TIP3   OH221923   2.757   7.659   0.031
 7327TIP3    H121924   2.696   7.588   0.052
 7327TIP3    H221925   2.801   7.629  -0.048
 7328TIP3   OH221926   2.163   1.786   0.663
 7328TIP3    H121927   2.199   1.718   0.720
 7328TIP3    H221928   2.213   1.778   0.581
 7329TIP3   OH221929   4.326   0.329   6.423
 7329TIP3    H121930   4.245   0.299   6.383
 7329TIP3    H221931   4.393   0.312   6.357
 7330TIP3   OH221932   2.590   2.392   4.858
 7330TIP3    H121933   2.657   2.393   4.790
 7330TIP3    H221934   2.583   2.300   4.884
 7331TIP3   OH221935   2.868   2.942   1.063
 7331TIP3    H121936   2.825   2.932   1.148
 7331TIP3    H221937   2.795   2.946   1.000
 7332TIP3   OH221938   1.248   5.086   2.713
 7332TIP3    H121939   1.154   5.093   2.724
 7332TIP3    H221940   1.284   5.156   2.768
 7333TIP3   OH221941   6.472   2.706   1.326
 7333TIP3    H121942   6.501   2.691   1.236
 7333TIP3    H221943   6.551   2.700   1.379
 7334TIP3   OH221944   3.791   7.057   5.677
 7334TIP3    H121945   3.821   7.143   5.649
 7334TIP3    H221946   3.702   7.071   5.708
 7335TIP3   OH221947   3.012   4.130   4.624
 7335TIP3    H121948   3.108   4.131   4.626
 7335TIP3    H221949   2.990   4.164   4.537
 7336TIP3   OH221950   4.626   4.142   0.730
 7336TIP3    H121951   4.591   4.213   0.782
 7336TIP3    H221952   4.698   4.106   0.783
 7337TIP3   OH221953   2.838   3.472   1.916
 7337TIP3    H121954   2.790   3.413   1.973
 7337TIP3    H221955   2.790   3.471   1.834
 7338TIP3   OH221956   0.130   7.619   3.304
 7338TIP3    H121957   0.072   7.636   3.229
 7338TIP3    H221958   0.072   7.617   3.379
 7339TIP3   OH221959   8.176   7.076   2.102
 7339TIP3    H121960   8.188   6.993   2.148
 7339TIP3    H221961   8.087   7.102   2.123
 7340TIP3   OH221962   5.847   3.232   2.359
 7340TIP3    H121963   5.831   3.138   2.346
 7340TIP3    H221964   5.921   3.252   2.303
 7341TIP3   OH221965   4.162   4.567   2.992
 7341TIP3    H121966   4.080   4.521   3.008
 7341TIP3    H221967   4.162   4.583   2.897
 7342TIP3   OH221968   4.118   2.672   5.564
 7342TIP3    H121969   4.099   2.651   5.656
 7342TIP3    H221970   4.059   2.616   5.514
 7343TIP3   OH221971   1.664   4.052   3.761
 7343TIP3    H121972   1.739   4.004   3.725
 7343TIP3    H221973   1.664   4.136   3.714
 7344TIP3   OH221974   2.932   1.420   2.124
 7344TIP3    H121975   3.023   1.400   2.148
 7344TIP3    H221976   2.899   1.337   2.089
 7345TIP3   OH221977   4.141   0.823   4.479
 7345TIP3    H121978   4.213   0.796   4.422
 7345TIP3    H221979   4.180   0.889   4.536
 7346TIP3   OH221980   2.424   0.832   4.342
 7346TIP3    H121981   2.425   0.739   4.366
 7346TIP3    H221982   2.465   0.877   4.416
 7347TIP3   OH221983   3.984   4.068   5.736
 7347TIP3    H121984   3.912   4.087   5.676
 7347TIP3    H221985   4.061   4.061   5.679
 7348TIP3   OH221986   1.664   1.057   6.575
 7348TIP3    H121987   1.683   1.121   6.507
 7348TIP3    H221988   1.710   0.978   6.547
 7349TIP3   OH221989   4.560   0.327   3.530
 7349TIP3    H121990   4.615   0.249   3.516
 7349TIP3    H221991   4.545   0.330   3.624
 7350TIP3   OH221992   1.943   5.493   0.501
 7350TIP3    H121993   2.013   5.548   0.466
 7350TIP3    H221994   1.974   5.466   0.588
 7351TIP3   OH221995   0.397   4.237   4.327
 7351TIP3    H121996   0.443   4.286   4.259
 7351TIP3    H221997   0.385   4.150   4.289
 7352TIP3   OH221998   2.546   6.220   0.399
 7352TIP3    H121999   2.585   6.207   0.485
 7352TIP3    H222000   2.469   6.275   0.415
 7353TIP3   OH222001   0.446   5.347   2.113
 7353TIP3    H122002   0.466   5.277   2.175
 7353TIP3    H222003   0.391   5.408   2.163
 7354TIP3   OH222004   3.892   0.687   3.824
 7354TIP3    H122005   3.953   0.618   3.849
 7354TIP3    H222006   3.807   0.643   3.821
 7355TIP3   OH222007   2.755   2.200   1.966
 7355TIP3    H122008   2.830   2.259   1.960
 7355TIP3    H222009   2.749   2.178   2.059
 7356TIP3   OH222010   0.462   4.614   1.082
 7356TIP3    H122011   0.494   4.622   1.172
 7356TIP3    H222012   0.470   4.520   1.062
 7357TIP3   OH222013   7.583   0.922   3.074
 7357TIP3    H122014   7.548   0.845   3.119
 7357TIP3    H222015   7.513   0.948   3.014
 7358TIP3   OH222016   2.493   5.169   0.781
 7358TIP3    H122017   2.580   5.150   0.816
 7358TIP3    H222018   2.443   5.090   0.799
 7359TIP3   OH222019   0.722   5.822   3.419
 7359TIP3    H122020   0.782   5.794   3.488
 7359TIP3    H222021   0.655   5.872   3.464
 7360TIP3   OH222022   1.312   5.050   0.460
 7360TIP3    H122023   1.320   5.117   0.393
 7360TIP3    H222024   1.222   5.058   0.491
 7361TIP3   OH222025   6.403   6.530   6.498
 7361TIP3    H122026   6.368   6.510   6.411
 7361TIP3    H222027   6.327   6.524   6.556
 7362TIP3   OH222028   4.355   0.575   3.135
 7362TIP3    H122029   4.344   0.593   3.041
 7362TIP3    H222030   4.324   0.655   3.178
 7363TIP3   OH222031   3.300   0.631   2.955
 7363TIP3    H122032   3.348   0.698   2.907
 7363TIP3    H222033   3.363   0.597   3.019
 7364TIP3   OH222034   0.837   5.687   2.924
 7364TIP3    H122035   0.842   5.759   2.987
 7364TIP3    H222036   0.790   5.618   2.970
 7365TIP3   OH222037   7.928   6.699   4.867
 7365TIP3    H122038   8.023   6.702   4.873
 7365TIP3    H222039   7.904   6.613   4.902
 7366TIP3   OH222040   7.221   2.484   0.698
 7366TIP3    H122041   7.180   2.557   0.651
 7366TIP3    H222042   7.215   2.508   0.790
 7367TIP3   OH222043   0.845   7.432   0.215
 7367TIP3    H122044   0.878   7.519   0.191
 7367TIP3    H222045   0.865   7.424   0.308
 7368TIP3   OH222046   6.019   0.216   4.798
 7368TIP3    H122047   5.941   0.166   4.773
 7368TIP3    H222048   5.992   0.265   4.877
 7369TIP3   OH222049   8.073   2.140   5.369
 7369TIP3    H122050   8.050   2.051   5.341
 7369TIP3    H222051   8.004   2.164   5.431
 7370TIP3   OH222052   5.997   5.747   2.850
 7370TIP3    H122053   5.902   5.753   2.836
 7370TIP3    H222054   6.032   5.826   2.808
 7371TIP3   OH222055   3.416   5.964   5.822
 7371TIP3    H122056   3.380   5.936   5.738
 7371TIP3    H222057   3.399   6.058   5.825
 7372TIP3   OH222058   1.551   3.479   1.971
 7372TIP3    H122059   1.552   3.574   1.971
 7372TIP3    H222060   1.459   3.455   1.977
 7373TIP3   OH222061   3.268   4.504   5.383
 7373TIP3    H122062   3.252   4.439   5.315
 7373TIP3    H222063   3.257   4.456   5.465
 7374TIP3   OH222064   2.885   0.942   3.280
 7374TIP3    H122065   2.838   0.969   3.359
 7374TIP3    H222066   2.844   0.993   3.209
 7375TIP3   OH222067   0.916   5.663   0.220
 7375TIP3    H122068   0.952   5.650   0.308
 7375TIP3    H222069   0.844   5.725   0.233
 7376TIP3   OH222070   6.359   6.085   1.881
 7376TIP3    H122071   6.443   6.104   1.924
 7376TIP3    H222072   6.380   6.018   1.817
 7377TIP3   OH222073   4.966   2.571   6.421
 7377TIP3    H122074   4.888   2.537   6.379
 7377TIP3    H222075   4.935   2.643   6.476
 7378TIP3   OH222076   1.694   1.550   0.980
 7378TIP3    H122077   1.622   1.612   0.982
 7378TIP3    H222078   1.710   1.534   0.887
 7379TIP3   OH222079   4.659   5.969   6.704
 7379TIP3    H122080   4.575   5.969   6.658
 7379TIP3    H222081   4.720   6.008   6.642
 7380TIP3   OH222082   4.360   2.709   4.354
 7380TIP3    H122083   4.374   2.710   4.260
 7380TIP3    H222084   4.272   2.672   4.365
 7381TIP3   OH222085   8.112   1.756   3.467
 7381TIP3    H122086   8.183   1.707   3.509
 7381TIP3    H222087   8.139   1.764   3.376
 7382TIP3   OH222088   4.249   3.559   2.579
 7382TIP3    H122089   4.275   3.645   2.546
 7382TIP3    H222090   4.323   3.531   2.633
 7383TIP3   OH222091   8.061   1.280   4.629
 7383TIP3    H122092   8.132   1.279   4.693
 7383TIP3    H222093   8.091   1.222   4.559
 7384TIP3   OH222094   2.402   7.099   3.108
 7384TIP3    H122095   2.383   7.097   3.014
 7384TIP3    H222096   2.348   7.170   3.142
 7385TIP3   OH222097   6.775   5.145   0.919
 7385TIP3    H122098   6.829   5.124   0.995
 7385TIP3    H222099   6.694   5.181   0.956
 7386TIP3   OH222100   3.388   1.940   0.258
 7386TIP3    H122101   3.347   1.857   0.232
 7386TIP3    H222102   3.448   1.961   0.186
 7387TIP3   OH222103   3.997   4.917   0.214
 7387TIP3    H122104   3.904   4.895   0.206
 7387TIP3    H222105   4.003   5.007   0.181
 7388TIP3   OH222106   5.781   4.911   0.722
 7388TIP3    H122107   5.779   4.968   0.799
 7388TIP3    H222108   5.697   4.864   0.724
 7389TIP3   OH222109   6.963   1.816   2.154
 7389TIP3    H122110   7.030   1.752   2.177
 7389TIP3    H222111   6.923   1.781   2.074
 7390TIP3   OH222112   2.735   4.447   2.217
 7390TIP3    H122113   2.667   4.514   2.209
 7390TIP3    H222114   2.736   4.404   2.132
 7391TIP3   OH222115   4.548   2.546   5.029
 7391TIP3    H122116   4.510   2.523   4.944
 7391TIP3    H222117   4.481   2.520   5.092
 7392TIP3   OH222118   3.202   7.682   0.357
 7392TIP3    H122119   3.284   7.659   0.399
 7392TIP3    H222120   3.135   7.640   0.412
 7393TIP3   OH222121   3.334   3.546   2.495
 7393TIP3    H122122   3.423   3.527   2.465
 7393TIP3    H222123   3.333   3.519   2.586
 7394TIP3   OH222124   0.173   2.144   0.838
 7394TIP3    H122125   0.125   2.061   0.830
 7394TIP3    H222126   0.110   2.210   0.810
 7395TIP3   OH222127   6.445   3.021   4.494
 7395TIP3    H122128   6.361   3.030   4.449
 7395TIP3    H222129   6.492   3.102   4.475
 7396TIP3   OH222130   2.351   6.951   4.108
 7396TIP3    H122131   2.257   6.945   4.124
 7396TIP3    H222132   2.380   7.028   4.157
 7397TIP3   OH222133   6.062   0.948   4.257
 7397TIP3    H122134   6.128   0.941   4.189
 7397TIP3    H222135   6.034   0.857   4.272
 7398TIP3   OH222136   6.863   7.849   5.218
 7398TIP3    H122137   6.843   7.822   5.308
 7398TIP3    H222138   6.923   7.782   5.186
 7399TIP3   OH222139   5.204   7.791   5.762
 7399TIP3    H122140   5.191   7.874   5.807
 7399TIP3    H222141   5.141   7.731   5.802
 7400TIP3   OH222142   8.137   5.797   5.894
 7400TIP3    H122143   8.184   5.866   5.848
 7400TIP3    H222144   8.076   5.844   5.951
 7401TIP3   OH222145   6.258   3.575   6.232
 7401TIP3    H122146   6.210   3.648   6.268
 7401TIP3    H222147   6.214   3.555   6.149
 7402TIP3   OH222148   3.268   4.936   3.543
 7402TIP3    H122149   3.215   4.995   3.596
 7402TIP3    H222150   3.204   4.888   3.490
 7403TIP3   OH222151   1.060   7.528   6.315
 7403TIP3    H122152   1.033   7.489   6.232
 7403TIP3    H222153   1.155   7.534   6.309
 7404TIP3   OH222154   0.785   3.862   5.207
 7404TIP3    H122155   0.819   3.946   5.238
 7404TIP3    H222156   0.694   3.860   5.236
 7405TIP3   OH222157   6.763   6.603   4.319
 7405TIP3    H122158   6.822   6.677   4.336
 7405TIP3    H222159   6.758   6.598   4.224
 7406TIP3   OH222160   5.647   2.586   4.979
 7406TIP3    H122161   5.657   2.675   5.014
 7406TIP3    H222162   5.600   2.597   4.897
 7407TIP3   OH222163   3.170   5.505   0.404
 7407TIP3    H122164   3.238   5.546   0.350
 7407TIP3    H222165   3.173   5.554   0.486
 7408TIP3   OH222166   5.621   7.287   0.878
 7408TIP3    H122167   5.558   7.248   0.817
 7408TIP3    H222168   5.612   7.235   0.958
 7409TIP3   OH222169   4.600   4.745   5.923
 7409TIP3    H122170   4.658   4.672   5.903
 7409TIP3    H222171   4.606   4.802   5.846
 7410TIP3   OH222172   5.396   7.609   4.456
 7410TIP3    H122173   5.471   7.600   4.514
 7410TIP3    H222174   5.321   7.578   4.507
 7411TIP3   OH222175   3.289   6.390   5.273
 7411TIP3    H122176   3.255   6.411   5.186
 7411TIP3    H222177   3.383   6.379   5.261
 7412TIP3   OH222178   7.065   4.794   3.027
 7412TIP3    H122179   7.085   4.831   3.113
 7412TIP3    H222180   7.149   4.759   2.996
 7413TIP3   OH222181   2.087   4.587   3.779
 7413TIP3    H122182   2.010   4.550   3.737
 7413TIP3    H222183   2.114   4.522   3.843
 7414TIP3   OH222184   6.928   5.222   4.031
 7414TIP3    H122185   7.021   5.228   4.053
 7414TIP3    H222186   6.904   5.132   4.053
 7415TIP3   OH222187   3.007   5.680   3.904
 7415TIP3    H122188   2.991   5.588   3.925
 7415TIP3    H222189   3.079   5.677   3.841
 7416TIP3   OH222190   6.983   7.404   5.400
 7416TIP3    H122191   6.909   7.434   5.452
 7416TIP3    H222192   6.992   7.311   5.421
 7417TIP3   OH222193   6.230   2.608   5.380
 7417TIP3    H122194   6.286   2.686   5.374
 7417TIP3    H222195   6.193   2.599   5.293
 7418TIP3   OH222196   7.936   2.810   6.344
 7418TIP3    H122197   7.870   2.815   6.413
 7418TIP3    H222198   8.018   2.833   6.387
 7419TIP3   OH222199   3.428   4.678   3.053
 7419TIP3    H122200   3.410   4.587   3.077
 7419TIP3    H222201   3.350   4.726   3.082
 7420TIP3   OH222202   7.036   5.920   3.754
 7420TIP3    H122203   6.968   5.913   3.687
 7420TIP3    H222204   7.040   6.014   3.773
 7421TIP3   OH222205   4.675   4.651   2.651
 7421TIP3    H122206   4.643   4.629   2.738
 7421TIP3    H222207   4.612   4.611   2.591
 7422TIP3   OH222208   2.373   6.834   5.068
 7422TIP3    H122209   2.317   6.793   5.134
 7422TIP3    H222210   2.339   6.923   5.059
 7423TIP3   OH222211   7.476   3.839   0.060
 7423TIP3    H122212   7.526   3.770   0.104
 7423TIP3    H222213   7.435   3.795  -0.015
 7424TIP3   OH222214   8.187   7.075   4.458
 7424TIP3    H122215   8.257   7.042   4.402
 7424TIP3    H222216   8.149   6.996   4.497
 7425TIP3   OH222217   5.795   6.607   3.823
 7425TIP3    H122218   5.877   6.618   3.872
 7425TIP3    H222219   5.726   6.619   3.888
 7426TIP3   OH222220   7.431   1.598   5.566
 7426TIP3    H122221   7.526   1.589   5.576
 7426TIP3    H222222   7.397   1.510   5.584
 7427TIP3   OH222223   2.514   3.785   0.895
 7427TIP3    H122224   2.429   3.790   0.938
 7427TIP3    H222225   2.527   3.872   0.859
 7428TIP3   OH222226   5.124   6.213   0.301
 7428TIP3    H122227   5.192   6.220   0.234
 7428TIP3    H222228   5.063   6.285   0.281
 7429TIP3   OH222229   0.109   7.560   5.311
 7429TIP3    H122230   0.054   7.637   5.297
 7429TIP3    H222231   0.170   7.561   5.237
 7430TIP3   OH222232   7.848   4.339   5.872
 7430TIP3    H122233   7.788   4.265   5.874
 7430TIP3    H222234   7.894   4.336   5.955
 7431TIP3   OH222235   2.348   6.816   3.246
 7431TIP3    H122236   2.314   6.859   3.324
 7431TIP3    H222237   2.408   6.880   3.207
 7432TIP3   OH222238   6.133   1.607   3.325
 7432TIP3    H122239   6.101   1.585   3.238
 7432TIP3    H222240   6.064   1.574   3.384
 7433TIP3   OH222241   7.307   4.578   1.417
 7433TIP3    H122242   7.229   4.622   1.450
 7433TIP3    H222243   7.325   4.619   1.333
 7434TIP3   OH222244   4.767   0.599   3.685
 7434TIP3    H122245   4.675   0.616   3.708
 7434TIP3    H222246   4.810   0.586   3.769
 7435TIP3   OH222247   6.580   1.811   6.411
 7435TIP3    H122248   6.509   1.853   6.460
 7435TIP3    H222249   6.618   1.881   6.358
 7436TIP3   OH222250   4.456   2.218   3.544
 7436TIP3    H122251   4.371   2.228   3.586
 7436TIP3    H222252   4.510   2.172   3.609
 7437TIP3   OH222253   4.525   5.288   6.023
 7437TIP3    H122254   4.571   5.237   6.089
 7437TIP3    H222255   4.514   5.228   5.949
 7438TIP3   OH222256   4.944   4.496   4.665
 7438TIP3    H122257   5.008   4.435   4.701
 7438TIP3    H222258   4.927   4.463   4.577
 7439TIP3   OH222259   0.086   6.091   5.418
 7439TIP3    H122260   0.146   6.025   5.453
 7439TIP3    H222261   0.074   6.066   5.326
 7440TIP3   OH222262   0.043   6.460   5.262
 7440TIP3    H122263   0.010   6.544   5.231
 7440TIP3    H222264   0.006   6.451   5.350
 7441TIP3   OH222265   0.084   3.512   1.145
 7441TIP3    H122266   0.135   3.436   1.172
 7441TIP3    H222267   0.011   3.476   1.096
 7442TIP3   OH222268  -0.004   1.889   2.684
 7442TIP3    H122269   0.078   1.894   2.733
 7442TIP3    H222270   0.014   1.828   2.612
 7443TIP3   OH222271   5.460   2.141   3.810
 7443TIP3    H122272   5.538   2.092   3.781
 7443TIP3    H222273   5.439   2.103   3.895
 7444TIP3   OH222274   7.409   4.617   2.185
 7444TIP3    H122275   7.347   4.572   2.242
 7444TIP3    H222276   7.491   4.620   2.235
 7445TIP3   OH222277   4.506   5.106   5.037
 7445TIP3    H122278   4.448   5.030   5.024
 7445TIP3    H222279   4.488   5.162   4.962
 7446TIP3   OH222280   8.054   2.423   4.480
 7446TIP3    H122281   8.013   2.374   4.552
 7446TIP3    H222282   7.987   2.486   4.453
 7447TIP3   OH222283   7.595   6.673   2.511
 7447TIP3    H122284   7.508   6.660   2.473
 7447TIP3    H222285   7.598   6.766   2.533
 7448TIP3   OH222286   4.262   5.768   2.540
 7448TIP3    H122287   4.353   5.741   2.555
 7448TIP3    H222288   4.231   5.796   2.626
 7449TIP3   OH222289   1.744   6.632   2.117
 7449TIP3    H122290   1.669   6.687   2.097
 7449TIP3    H222291   1.819   6.680   2.083
 7450TIP3   OH222292   3.166   3.443   0.321
 7450TIP3    H122293   3.142   3.440   0.228
 7450TIP3    H222294   3.160   3.535   0.345
 7451TIP3   OH222295   1.523   0.058   3.279
 7451TIP3    H122296   1.453   0.035   3.341
 7451TIP3    H222297   1.591  -0.007   3.296
 7452TIP3   OH222298   4.377   3.997   0.761
 7452TIP3    H122299   4.449   4.057   0.743
 7452TIP3    H222300   4.356   4.012   0.853
 7453TIP3   OH222301   2.104   3.673   3.569
 7453TIP3    H122302   2.052   3.651   3.647
 7453TIP3    H222303   2.041   3.675   3.498
 7454TIP3   OH222304   0.730   3.393   1.920
 7454TIP3    H122305   0.735   3.363   2.011
 7454TIP3    H222306   0.669   3.467   1.923
 7455TIP3   OH222307   0.637   6.412   1.229
 7455TIP3    H122308   0.572   6.442   1.293
 7455TIP3    H222309   0.665   6.327   1.262
 7456TIP3   OH222310   2.357   0.225   0.445
 7456TIP3    H122311   2.328   0.260   0.361
 7456TIP3    H222312   2.440   0.182   0.426
 7457TIP3   OH222313   0.209   6.751   0.217
 7457TIP3    H122314   0.195   6.720   0.307
 7457TIP3    H222315   0.285   6.702   0.187
 7458TIP3   OH222316   6.882   3.875   4.597
 7458TIP3    H122317   6.787   3.885   4.590
 7458TIP3    H222318   6.897   3.854   4.690
 7459TIP3   OH222319   4.939   1.953   2.269
 7459TIP3    H122320   4.942   2.020   2.200
 7459TIP3    H222321   5.017   1.899   2.253
 7460TIP3   OH222322   8.109   2.870   1.487
 7460TIP3    H122323   8.186   2.815   1.502
 7460TIP3    H222324   8.138   2.959   1.510
 7461TIP3   OH222325   0.334   3.133   5.169
 7461TIP3    H122326   0.403   3.081   5.128
 7461TIP3    H222327   0.376   3.172   5.245
 7462TIP3   OH222328   2.489   7.396   2.751
 7462TIP3    H122329   2.454   7.429   2.834
 7462TIP3    H222330   2.581   7.377   2.770
 7463TIP3   OH222331   7.038   7.546   2.243
 7463TIP3    H122332   7.134   7.538   2.240
 7463TIP3    H222333   7.021   7.638   2.224
 7464TIP3   OH222334   2.810   0.387   2.785
 7464TIP3    H122335   2.754   0.464   2.787
 7464TIP3    H222336   2.898   0.420   2.798
 7465TIP3   OH222337   0.422   1.842   0.851
 7465TIP3    H122338   0.378   1.818   0.933
 7465TIP3    H222339   0.401   1.934   0.839
 7466TIP3   OH222340   3.660   1.016   0.795
 7466TIP3    H122341   3.595   1.068   0.842
 7466TIP3    H222342   3.722   0.989   0.863
 7467TIP3   OH222343   2.840   5.936   2.188
 7467TIP3    H122344   2.797   5.851   2.195
 7467TIP3    H222345   2.888   5.945   2.270
 7468TIP3   OH222346   2.065   1.714   1.498
 7468TIP3    H122347   1.972   1.707   1.522
 7468TIP3    H222348   2.077   1.806   1.476
 7469TIP3   OH222349   7.160   6.872   6.370
 7469TIP3    H122350   7.097   6.852   6.440
 7469TIP3    H222351   7.196   6.958   6.394
 7470TIP3   OH222352   7.720   2.748   3.508
 7470TIP3    H122353   7.638   2.724   3.551
 7470TIP3    H222354   7.695   2.805   3.437
 7471TIP3   OH222355   4.914   3.993   1.148
 7471TIP3    H122356   4.979   3.931   1.182
 7471TIP3    H222357   4.876   4.033   1.226
 7472TIP3   OH222358   7.810   0.261   6.773
 7472TIP3    H122359   7.733   0.214   6.804
 7472TIP3    H222360   7.854   0.201   6.714
 7473TIP3   OH222361   5.849   0.276   2.958
 7473TIP3    H122362   5.845   0.181   2.963
 7473TIP3    H222363   5.898   0.294   2.878
 7474TIP3   OH222364   6.004   0.737   4.442
 7474TIP3    H122365   6.004   0.644   4.461
 7474TIP3    H222366   5.927   0.771   4.487
 7475TIP3   OH222367   1.548   3.715   5.283
 7475TIP3    H122368   1.537   3.769   5.204
 7475TIP3    H222369   1.530   3.775   5.356
 7476TIP3   OH222370   0.934   5.798   4.324
 7476TIP3    H122371   0.944   5.824   4.232
 7476TIP3    H222372   1.016   5.752   4.344
 7477TIP3   OH222373   6.995   5.100   2.379
 7477TIP3    H122374   7.051   5.155   2.434
 7477TIP3    H222375   6.918   5.083   2.433
 7478TIP3   OH222376   1.799   0.206   1.280
 7478TIP3    H122377   1.766   0.125   1.317
 7478TIP3    H222378   1.724   0.245   1.236
 7479TIP3   OH222379   3.317   6.099   6.633
 7479TIP3    H122380   3.271   6.154   6.570
 7479TIP3    H222381   3.247   6.048   6.675
 7480TIP3   OH222382   5.418   6.672   0.571
 7480TIP3    H122383   5.359   6.728   0.622
 7480TIP3    H222384   5.405   6.584   0.608
 7481TIP3   OH222385   3.769   4.402   0.749
 7481TIP3    H122386   3.754   4.310   0.771
 7481TIP3    H222387   3.824   4.399   0.671
 7482TIP3   OH222388   5.328   1.424   4.030
 7482TIP3    H122389   5.243   1.383   4.013
 7482TIP3    H222390   5.368   1.371   4.098
 7483TIP3   OH222391   3.067   6.905   0.805
 7483TIP3    H122392   3.031   6.821   0.777
 7483TIP3    H222393   3.094   6.947   0.724
 7484TIP3   OH222394   3.476   2.072   5.239
 7484TIP3    H122395   3.509   2.158   5.214
 7484TIP3    H222396   3.468   2.077   5.335
 7485TIP3   OH222397   0.834   6.134   0.524
 7485TIP3    H122398   0.873   6.221   0.515
 7485TIP3    H222399   0.802   6.114   0.436
 7486TIP3   OH222400   3.047   3.050   4.395
 7486TIP3    H122401   3.057   3.027   4.488
 7486TIP3    H222402   3.082   2.974   4.348
 7487TIP3   OH222403   2.234   4.697   6.131
 7487TIP3    H122404   2.193   4.611   6.138
 7487TIP3    H222405   2.175   4.748   6.076
 7488TIP3   OH222406   4.740   0.435   4.121
 7488TIP3    H122407   4.715   0.354   4.166
 7488TIP3    H222408   4.660   0.465   4.079
 7489TIP3   OH222409   4.329   3.044   2.854
 7489TIP3    H122410   4.394   3.066   2.921
 7489TIP3    H222411   4.312   2.951   2.866
 7490TIP3   OH222412   3.418   2.208   3.021
 7490TIP3    H122413   3.379   2.182   2.937
 7490TIP3    H222414   3.446   2.125   3.060
 7491TIP3   OH222415   1.159   6.493   6.581
 7491TIP3    H122416   1.201   6.451   6.506
 7491TIP3    H222417   1.067   6.500   6.557
 7492TIP3   OH222418   5.083   1.189   3.320
 7492TIP3    H122419   5.090   1.183   3.225
 7492TIP3    H222420   5.113   1.278   3.340
 7493TIP3   OH222421   0.456   4.045   1.992
 7493TIP3    H122422   0.448   3.963   1.944
 7493TIP3    H222423   0.370   4.058   2.032
 7494TIP3   OH222424   4.033   4.425   5.464
 7494TIP3    H122425   3.961   4.456   5.519
 7494TIP3    H222426   4.097   4.391   5.527
 7495TIP3   OH222427   3.262   4.607   4.275
 7495TIP3    H122428   3.268   4.516   4.246
 7495TIP3    H222429   3.275   4.603   4.370
 7496TIP3   OH222430   4.107   2.065   2.195
 7496TIP3    H122431   4.173   2.044   2.129
 7496TIP3    H222432   4.048   2.126   2.152
 7497TIP3   OH222433   3.672   3.633   1.685
 7497TIP3    H122434   3.659   3.693   1.758
 7497TIP3    H222435   3.705   3.689   1.614
 7498TIP3   OH222436   3.162   4.404   6.090
 7498TIP3    H122437   3.222   4.348   6.138
 7498TIP3    H222438   3.090   4.421   6.151
 7499TIP3   OH222439   0.040   5.945   6.766
 7499TIP3    H122440   0.099   5.978   6.698
 7499TIP3    H222441  -0.032   5.905   6.717
 7500TIP3   OH222442   2.737   3.302   0.409
 7500TIP3    H122443   2.710   3.316   0.499
 7500TIP3    H222444   2.833   3.309   0.411
 7501TIP3   OH222445   2.519   4.015   6.608
 7501TIP3    H122446   2.575   3.968   6.671
 7501TIP3    H222447   2.432   4.010   6.646
 7502TIP3   OH222448   6.106   1.577   3.038
 7502TIP3    H122449   6.035   1.601   2.978
 7502TIP3    H222450   6.169   1.531   2.983
 7503TIP3   OH222451   7.342   4.247   3.279
 7503TIP3    H122452   7.402   4.271   3.349
 7503TIP3    H222453   7.327   4.329   3.231
 7504TIP3   OH222454   0.229   6.324   4.097
 7504TIP3    H122455   0.260   6.233   4.093
 7504TIP3    H222456   0.295   6.369   4.149
 7505TIP3   OH222457   7.573   4.186   3.871
 7505TIP3    H122458   7.614   4.268   3.846
 7505TIP3    H222459   7.647   4.126   3.885
 7506TIP3   OH222460   5.343   7.605   1.972
 7506TIP3    H122461   5.282   7.543   1.932
 7506TIP3    H222462   5.290   7.652   2.036
 7507TIP3   OH222463   1.029   6.337   1.739
 7507TIP3    H122464   1.097   6.284   1.779
 7507TIP3    H222465   0.947   6.296   1.767
 7508TIP3   OH222466   5.962   2.145   2.486
 7508TIP3    H122467   5.883   2.158   2.538
 7508TIP3    H222468   6.033   2.176   2.541
 7509TIP3   OH222469   0.389   3.711   6.393
 7509TIP3    H122470   0.467   3.682   6.346
 7509TIP3    H222471   0.342   3.630   6.414
 7510TIP3   OH222472   4.755   6.127   1.361
 7510TIP3    H122473   4.848   6.141   1.376
 7510TIP3    H222474   4.750   6.050   1.304
 7511TIP3   OH222475   1.663   4.003   2.009
 7511TIP3    H122476   1.667   3.941   1.936
 7511TIP3    H222477   1.666   4.089   1.968
 7512TIP3   OH222478   2.500   6.863   0.537
 7512TIP3    H122479   2.490   6.952   0.505
 7512TIP3    H222480   2.425   6.816   0.500
 7513TIP3   OH222481   5.841   7.774   4.765
 7513TIP3    H122482   5.915   7.728   4.727
 7513TIP3    H222483   5.843   7.862   4.726
 7514TIP3   OH222484   5.478   5.856   2.289
 7514TIP3    H122485   5.394   5.874   2.331
 7514TIP3    H222486   5.467   5.886   2.199
 7515TIP3   OH222487   1.989   3.032   1.676
 7515TIP3    H122488   1.985   3.126   1.656
 7515TIP3    H222489   1.972   3.027   1.770
 7516TIP3   OH222490   0.161   2.464   0.047
 7516TIP3    H122491   0.111   2.503   0.118
 7516TIP3    H222492   0.125   2.376   0.037
 7517TIP3   OH222493   2.472   2.093   6.492
 7517TIP3    H122494   2.552   2.120   6.538
 7517TIP3    H222495   2.484   2.124   6.403
 7518TIP3   OH222496   7.602   4.047   4.261
 7518TIP3    H122497   7.622   4.019   4.351
 7518TIP3    H222498   7.533   4.113   4.272
 7519TIP3   OH222499   5.252   2.392   3.704
 7519TIP3    H122500   5.189   2.338   3.657
 7519TIP3    H222501   5.332   2.387   3.652
 7520TIP3   OH222502   7.808   4.741   3.030
 7520TIP3    H122503   7.874   4.803   3.000
 7520TIP3    H222504   7.724   4.782   3.007
 7521TIP3   OH222505   5.204   5.452   6.183
 7521TIP3    H122506   5.238   5.391   6.248
 7521TIP3    H222507   5.152   5.515   6.234
 7522TIP3   OH222508   4.954   6.415   5.495
 7522TIP3    H122509   5.045   6.401   5.470
 7522TIP3    H222510   4.905   6.354   5.440
 7523TIP3   OH222511   4.201   5.654   4.348
 7523TIP3    H122512   4.291   5.626   4.333
 7523TIP3    H222513   4.150   5.611   4.279
 7524TIP3   OH222514   1.179   1.069   6.411
 7524TIP3    H122515   1.134   1.077   6.327
 7524TIP3    H222516   1.272   1.064   6.388
 7525TIP3   OH222517   6.213   4.093   3.134
 7525TIP3    H122518   6.142   4.063   3.190
 7525TIP3    H222519   6.181   4.174   3.095
 7526TIP3   OH222520   1.483   5.512   2.608
 7526TIP3    H122521   1.506   5.587   2.552
 7526TIP3    H222522   1.546   5.516   2.680
 7527TIP3   OH222523   4.722   2.829   5.524
 7527TIP3    H122524   4.690   2.832   5.614
 7527TIP3    H222525   4.705   2.740   5.495
 7528TIP3   OH222526   8.041   1.980   5.816
 7528TIP3    H122527   7.992   2.032   5.880
 7528TIP3    H222528   7.994   1.993   5.734
 7529TIP3   OH222529   1.944   0.014   5.430
 7529TIP3    H122530   1.994   0.093   5.406
 7529TIP3    H222531   1.995  -0.058   5.393
 7530TIP3   OH222532   2.175   6.782   0.118
 7530TIP3    H122533   2.183   6.785   0.023
 7530TIP3    H222534   2.083   6.762   0.134
 7531TIP3   OH222535   5.845   3.627   0.337
 7531TIP3    H122536   5.932   3.662   0.354
 7531TIP3    H222537   5.814   3.675   0.261
 7532TIP3   OH222538   6.507   4.900   5.154
 7532TIP3    H122539   6.510   4.937   5.066
 7532TIP3    H222540   6.590   4.925   5.193
 7533TIP3   OH222541   4.637   4.295   2.071
 7533TIP3    H122542   4.589   4.363   2.024
 7533TIP3    H222543   4.652   4.227   2.005
 7534TIP3   OH222544   8.047   7.187   6.638
 7534TIP3    H122545   8.029   7.268   6.686
 7534TIP3    H222546   7.987   7.123   6.676
 7535TIP3   OH222547   1.323   5.758   3.767
 7535TIP3    H122548   1.292   5.832   3.715
 7535TIP3    H222549   1.303   5.681   3.713
 7536TIP3   OH222550   1.510   7.604   1.876
 7536TIP3    H122551   1.533   7.580   1.966
 7536TIP3    H222552   1.516   7.522   1.827
 7537TIP3   OH222553   4.167   7.582   1.419
 7537TIP3    H122554   4.239   7.523   1.442
 7537TIP3    H222555   4.122   7.600   1.501
 7538TIP3   OH222556   5.799   4.717   5.768
 7538TIP3    H122557   5.892   4.716   5.792
 7538TIP3    H222558   5.772   4.625   5.776
 7539TIP3   OH222559   4.862   5.722   5.604
 7539TIP3    H122560   4.879   5.784   5.533
 7539TIP3    H222561   4.868   5.775   5.684
 7540TIP3   OH222562   1.143   5.850   6.677
 7540TIP3    H122563   1.238   5.857   6.688
 7540TIP3    H222564   1.131   5.789   6.604
 7541TIP3   OH222565   2.901   0.033   4.521
 7541TIP3    H122566   2.928   0.114   4.478
 7541TIP3    H222567   2.806   0.041   4.527
 7542TIP3   OH222568   5.337   1.409   3.088
 7542TIP3    H122569   5.247   1.380   3.074
 7542TIP3    H222570   5.328   1.497   3.124
 7543TIP3   OH222571   5.579   0.302   6.277
 7543TIP3    H122572   5.648   0.251   6.235
 7543TIP3    H222573   5.537   0.240   6.337
 7544TIP3   OH222574   2.137   5.872   5.060
 7544TIP3    H122575   2.131   5.820   5.140
 7544TIP3    H222576   2.048   5.869   5.024
 7545TIP3   OH222577   0.996   6.768   3.201
 7545TIP3    H122578   0.982   6.695   3.141
 7545TIP3    H222579   1.062   6.736   3.263
 7546TIP3   OH222580   1.344   0.844   0.786
 7546TIP3    H122581   1.428   0.874   0.819
 7546TIP3    H222582   1.288   0.922   0.788
 7547TIP3   OH222583   3.881   6.662   6.176
 7547TIP3    H122584   3.831   6.649   6.095
 7547TIP3    H222585   3.882   6.757   6.188
 7548TIP3   OH222586   0.927   3.034   0.596
 7548TIP3    H122587   0.947   2.949   0.556
 7548TIP3    H222588   0.848   3.064   0.551
 7549TIP3   OH222589   2.275   3.071   4.509
 7549TIP3    H122590   2.307   3.161   4.513
 7549TIP3    H222591   2.183   3.077   4.533
 7550TIP3   OH222592   0.559   0.366   6.645
 7550TIP3    H122593   0.620   0.303   6.684
 7550TIP3    H222594   0.493   0.312   6.602
 7551TIP3   OH222595   6.136   1.404   5.696
 7551TIP3    H122596   6.100   1.323   5.659
 7551TIP3    H222597   6.061   1.448   5.736
 7552TIP3   OH222598   1.674   3.294   1.425
 7552TIP3    H122599   1.708   3.346   1.497
 7552TIP3    H222600   1.582   3.278   1.447
 7553TIP3   OH222601   0.453   1.065   4.621
 7553TIP3    H122602   0.496   1.148   4.602
 7553TIP3    H222603   0.391   1.086   4.691
 7554TIP3   OH222604   2.884   2.386   3.984
 7554TIP3    H122605   2.803   2.433   3.965
 7554TIP3    H222606   2.868   2.343   4.068
 7555TIP3   OH222607   1.911   2.692   3.064
 7555TIP3    H122608   1.951   2.731   3.142
 7555TIP3    H222609   1.829   2.655   3.095
 7556TIP3   OH222610   3.071   4.644   3.673
 7556TIP3    H122611   2.977   4.628   3.685
 7556TIP3    H222612   3.079   4.670   3.581
 7557TIP3   OH222613   4.344   7.646   1.208
 7557TIP3    H122614   4.289   7.634   1.285
 7557TIP3    H222615   4.307   7.723   1.165
 7558TIP3   OH222616   6.017   6.141   3.943
 7558TIP3    H122617   6.030   6.183   4.028
 7558TIP3    H222618   5.936   6.090   3.953
 7559TIP3   OH222619   0.994   2.743   6.583
 7559TIP3    H122620   1.070   2.778   6.536
 7559TIP3    H222621   0.980   2.657   6.544
 7560TIP3   OH222622   2.621   5.465   3.340
 7560TIP3    H122623   2.634   5.372   3.320
 7560TIP3    H222624   2.696   5.509   3.300
 7561TIP3   OH222625   4.221   6.091   2.721
 7561TIP3    H122626   4.179   6.051   2.797
 7561TIP3    H222627   4.303   6.044   2.711
 7562TIP3   OH222628   5.630   6.397   3.699
 7562TIP3    H122629   5.646   6.311   3.739
 7562TIP3    H222630   5.713   6.444   3.711
 7563TIP3   OH222631   7.003   0.296   3.967
 7563TIP3    H122632   6.951   0.218   3.984
 7563TIP3    H222633   7.056   0.307   4.046
 7564TIP3   OH222634   7.387   7.629   4.558
 7564TIP3    H122635   7.357   7.573   4.630
 7564TIP3    H222636   7.399   7.715   4.597
 7565TIP3   OH222637   0.411   1.421   4.095
 7565TIP3    H122638   0.398   1.341   4.043
 7565TIP3    H222639   0.324   1.459   4.103
 7566TIP3   OH222640   7.546   0.818   2.425
 7566TIP3    H122641   7.529   0.806   2.518
 7566TIP3    H222642   7.631   0.778   2.410
 7567TIP3   OH222643   6.699   4.537   0.491
 7567TIP3    H122644   6.642   4.578   0.557
 7567TIP3    H222645   6.773   4.597   0.484
 7568TIP3   OH222646   0.383   1.528   1.897
 7568TIP3    H122647   0.458   1.564   1.850
 7568TIP3    H222648   0.382   1.435   1.871
 7569TIP3   OH222649   3.422   5.095   1.269
 7569TIP3    H122650   3.415   5.049   1.352
 7569TIP3    H222651   3.515   5.118   1.262
 7570TIP3   OH222652   1.984   5.691   6.750
 7570TIP3    H122653   1.905   5.656   6.791
 7570TIP3    H222654   2.027   5.615   6.711
 7571TIP3   OH222655   1.487   0.328   5.389
 7571TIP3    H122656   1.548   0.262   5.356
 7571TIP3    H222657   1.420   0.335   5.321
 7572TIP3   OH222658   5.016   0.087   2.873
 7572TIP3    H122659   4.982   0.129   2.794
 7572TIP3    H222660   5.100   0.049   2.846
 7573TIP3   OH222661   3.143   0.574   0.513
 7573TIP3    H122662   3.137   0.504   0.578
 7573TIP3    H222663   3.222   0.622   0.536
 7574TIP3   OH222664   2.668   1.203   3.206
 7574TIP3    H122665   2.746   1.236   3.163
 7574TIP3    H222666   2.595   1.235   3.152
 7575TIP3   OH222667   4.150   6.554   6.193
 7575TIP3    H122668   4.153   6.626   6.256
 7575TIP3    H222669   4.058   6.528   6.190
 7576TIP3   OH222670   0.263   2.583   1.583
 7576TIP3    H122671   0.201   2.543   1.521
 7576TIP3    H222672   0.344   2.591   1.534
 7577TIP3   OH222673   1.110   3.669   3.555
 7577TIP3    H122674   1.047   3.686   3.485
 7577TIP3    H222675   1.060   3.624   3.622
 7578TIP3   OH222676   4.123   0.746   2.277
 7578TIP3    H122677   4.203   0.797   2.289
 7578TIP3    H222678   4.123   0.685   2.351
 7579TIP3   OH222679   6.226   6.026   6.557
 7579TIP3    H122680   6.223   5.936   6.590
 7579TIP3    H222681   6.187   6.078   6.628
 7580TIP3   OH222682   3.827   6.598   1.476
 7580TIP3    H122683   3.888   6.641   1.415
 7580TIP3    H222684   3.871   6.603   1.561
 7581TIP3   OH222685   5.362   0.199   3.853
 7581TIP3    H122686   5.334   0.226   3.941
 7581TIP3    H222687   5.453   0.226   3.847
 7582TIP3   OH222688   3.492   2.472   3.917
 7582TIP3    H122689   3.435   2.398   3.894
 7582TIP3    H222690   3.544   2.440   3.991
 7583TIP3   OH222691   7.007   5.405   1.335
 7583TIP3    H122692   6.911   5.413   1.335
 7583TIP3    H222693   7.037   5.478   1.281
 7584TIP3   OH222694   1.620   2.220   2.162
 7584TIP3    H122695   1.628   2.264   2.077
 7584TIP3    H222696   1.556   2.272   2.210
 7585TIP3   OH222697   6.510   0.021   1.190
 7585TIP3    H122698   6.440   0.080   1.162
 7585TIP3    H222699   6.560   0.070   1.254
 7586TIP3   OH222700   4.313   2.580   1.551
 7586TIP3    H122701   4.278   2.516   1.612
 7586TIP3    H222702   4.401   2.599   1.583
 7587TIP3   OH222703   6.473   5.584   5.339
 7587TIP3    H122704   6.533   5.590   5.265
 7587TIP3    H222705   6.388   5.610   5.304
 7588TIP3   OH222706   6.923   6.521   0.693
 7588TIP3    H122707   6.985   6.540   0.622
 7588TIP3    H222708   6.837   6.528   0.653
 7589TIP3   OH222709   2.811   6.098   6.315
 7589TIP3    H122710   2.880   6.081   6.251
 7589TIP3    H222711   2.799   6.193   6.311
 7590TIP3   OH222712   6.479   4.787   2.494
 7590TIP3    H122713   6.475   4.837   2.576
 7590TIP3    H222714   6.490   4.853   2.426
 7591TIP3   OH222715   8.017   3.572   3.225
 7591TIP3    H122716   7.979   3.525   3.300
 7591TIP3    H222717   8.052   3.652   3.263
 7592TIP3   OH222718   7.892   6.040   3.114
 7592TIP3    H122719   7.861   6.011   3.200
 7592TIP3    H222720   7.860   5.973   3.054
 7593TIP3   OH222721   4.261   0.806   1.017
 7593TIP3    H122722   4.259   0.798   1.112
 7593TIP3    H222723   4.354   0.820   0.996
 7594TIP3   OH222724   8.049   6.726   6.487
 7594TIP3    H122725   8.085   6.809   6.456
 7594TIP3    H222726   7.954   6.738   6.480
 7595TIP3   OH222727   1.681   1.334   2.269
 7595TIP3    H122728   1.656   1.427   2.276
 7595TIP3    H222729   1.753   1.324   2.332
 7596TIP3   OH222730   3.995   7.697   2.709
 7596TIP3    H122731   3.950   7.755   2.648
 7596TIP3    H222732   3.932   7.685   2.781
 7597TIP3   OH222733   5.685   2.863   4.992
 7597TIP3    H122734   5.712   2.856   4.901
 7597TIP3    H222735   5.750   2.920   5.032
 7598TIP3   OH222736   7.413   7.150   0.182
 7598TIP3    H122737   7.482   7.206   0.147
 7598TIP3    H222738   7.356   7.210   0.231
 7599TIP3   OH222739   0.668   3.302   6.133
 7599TIP3    H122740   0.671   3.309   6.229
 7599TIP3    H222741   0.741   3.355   6.103
 7600TIP3   OH222742   4.030   0.166   2.689
 7600TIP3    H122743   4.119   0.136   2.705
 7600TIP3    H222744   3.994   0.102   2.627
 7601TIP3   OH222745   7.554   6.875   6.478
 7601TIP3    H122746   7.508   6.916   6.405
 7601TIP3    H222747   7.493   6.881   6.551
 7602TIP3   OH222748   2.809   1.179   2.020
 7602TIP3    H122749   2.720   1.175   1.984
 7602TIP3    H222750   2.836   1.087   2.026
 7603TIP3   OH222751   8.205   0.391   6.133
 7603TIP3    H122752   8.281   0.337   6.109
 7603TIP3    H222753   8.170   0.350   6.212
 7604TIP3   OH222754   3.903   1.216   6.030
 7604TIP3    H122755   3.890   1.273   5.955
 7604TIP3    H222756   3.988   1.174   6.014
 7605TIP3   OH222757   3.776   3.508   0.475
 7605TIP3    H122758   3.869   3.495   0.453
 7605TIP3    H222759   3.748   3.422   0.506
 7606TIP3   OH222760   0.575   1.682   0.679
 7606TIP3    H122761   0.543   1.761   0.723
 7606TIP3    H222762   0.616   1.631   0.749
 7607TIP3   OH222763   4.865   1.252   3.010
 7607TIP3    H122764   4.882   1.304   2.931
 7607TIP3    H222765   4.944   1.199   3.022
 7608TIP3   OH222766   3.027   7.682   0.978
 7608TIP3    H122767   3.089   7.718   0.914
 7608TIP3    H222768   3.034   7.740   1.053
 7609TIP3   OH222769   1.952   1.794   1.176
 7609TIP3    H122770   1.897   1.826   1.105
 7609TIP3    H222771   1.913   1.711   1.202
 7610TIP3   OH222772   3.209   4.335   4.199
 7610TIP3    H122773   3.258   4.262   4.160
 7610TIP3    H222774   3.145   4.293   4.256
 7611TIP3   OH222775   3.503   0.619   5.189
 7611TIP3    H122776   3.553   0.698   5.169
 7611TIP3    H222777   3.454   0.642   5.268
 7612TIP3   OH222778   2.998   3.961   1.169
 7612TIP3    H122779   2.981   4.008   1.250
 7612TIP3    H222780   2.935   3.996   1.106
 7613TIP3   OH222781   7.446   3.325   5.032
 7613TIP3    H122782   7.358   3.359   5.017
 7613TIP3    H222783   7.446   3.239   4.988
 7614TIP3   OH222784   2.700   3.435   1.643
 7614TIP3    H122785   2.610   3.460   1.664
 7614TIP3    H222786   2.721   3.487   1.565
 7615TIP3   OH222787   4.800   4.892   1.258
 7615TIP3    H122788   4.797   4.958   1.327
 7615TIP3    H222789   4.880   4.912   1.209
 7616TIP3   OH222790   7.251   7.437   5.611
 7616TIP3    H122791   7.291   7.517   5.643
 7616TIP3    H222792   7.158   7.458   5.605
 7617TIP3   OH222793   8.114   1.935   1.926
 7617TIP3    H122794   8.161   1.868   1.877
 7617TIP3    H222795   8.070   1.886   1.996
 7618TIP3   OH222796   3.567   3.989   0.259
 7618TIP3    H122797   3.504   3.918   0.274
 7618TIP3    H222798   3.531   4.063   0.308
 7619TIP3   OH222799   1.408   0.760   3.014
 7619TIP3    H122800   1.322   0.725   2.990
 7619TIP3    H222801   1.400   0.854   3.003
 7620TIP3   OH222802   0.404   0.038   2.295
 7620TIP3    H122803   0.412   0.086   2.212
 7620TIP3    H222804   0.320   0.068   2.331
 7621TIP3   OH222805   1.790   6.793   5.677
 7621TIP3    H122806   1.860   6.783   5.612
 7621TIP3    H222807   1.796   6.714   5.731
 7622TIP3   OH222808   6.382   0.500   2.159
 7622TIP3    H122809   6.450   0.563   2.180
 7622TIP3    H222810   6.397   0.479   2.066
 7623TIP3   OH222811   8.191   5.166   5.435
 7623TIP3    H122812   8.165   5.202   5.349
 7623TIP3    H222813   8.124   5.198   5.495
 7624TIP3   OH222814   1.914   0.027   0.525
 7624TIP3    H122815   2.000   0.008   0.489
 7624TIP3    H222816   1.932   0.075   0.606
 7625TIP3   OH222817   2.359   3.399   2.684
 7625TIP3    H122818   2.397   3.487   2.687
 7625TIP3    H222819   2.278   3.406   2.734
 7626TIP3   OH222820   3.133   4.272   4.894
 7626TIP3    H122821   3.075   4.262   4.819
 7626TIP3    H222822   3.110   4.357   4.932
 7627TIP3   OH222823   3.827   5.425   6.692
 7627TIP3    H122824   3.891   5.489   6.661
 7627TIP3    H222825   3.762   5.478   6.740
 7628TIP3   OH222826   3.171   5.177   0.754
 7628TIP3    H122827   3.109   5.241   0.718
 7628TIP3    H222828   3.123   5.135   0.826
 7629TIP3   OH222829   3.187   6.271   1.217
 7629TIP3    H122830   3.207   6.181   1.243
 7629TIP3    H222831   3.140   6.261   1.134
 7630TIP3   OH222832   0.197   4.488   4.116
 7630TIP3    H122833   0.117   4.522   4.155
 7630TIP3    H222834   0.243   4.567   4.086
 7631TIP3   OH222835   0.830   5.277   5.591
 7631TIP3    H122836   0.752   5.327   5.618
 7631TIP3    H222837   0.813   5.254   5.500
 7632TIP3   OH222838   2.870   1.407   4.957
 7632TIP3    H122839   2.801   1.472   4.945
 7632TIP3    H222840   2.929   1.445   5.021
 7633TIP3   OH222841   6.329   5.435   6.750
 7633TIP3    H122842   6.343   5.401   6.661
 7633TIP3    H222843   6.381   5.515   6.753
 7634TIP3   OH222844   7.550   5.561   4.949
 7634TIP3    H122845   7.597   5.487   4.909
 7634TIP3    H222846   7.458   5.541   4.934
 7635TIP3   OH222847   4.891   6.887   6.674
 7635TIP3    H122848   4.817   6.907   6.731
 7635TIP3    H222849   4.959   6.951   6.698
 7636TIP3   OH222850   7.168   7.104   5.276
 7636TIP3    H122851   7.202   7.113   5.365
 7636TIP3    H222852   7.085   7.058   5.287
 7637TIP3   OH222853   7.979   4.995   0.547
 7637TIP3    H122854   7.960   5.063   0.612
 7637TIP3    H222855   7.907   4.933   0.557
 7638TIP3   OH222856   2.648   1.141   3.923
 7638TIP3    H122857   2.714   1.139   3.854
 7638TIP3    H222858   2.694   1.177   3.999
 7639TIP3   OH222859   4.570   3.318   2.610
 7639TIP3    H122860   4.561   3.373   2.688
 7639TIP3    H222861   4.539   3.232   2.637
 7640TIP3   OH222862   3.656   0.055   0.389
 7640TIP3    H122863   3.728   0.007   0.348
 7640TIP3    H222864   3.699   0.120   0.444
 7641TIP3   OH222865   6.499   2.246   6.115
 7641TIP3    H122866   6.531   2.327   6.156
 7641TIP3    H222867   6.504   2.263   6.021
 7642TIP3   OH222868   5.592   5.151   4.194
 7642TIP3    H122869   5.595   5.124   4.102
 7642TIP3    H222870   5.679   5.187   4.211
 7643TIP3   OH222871   0.953   7.820   6.254
 7643TIP3    H122872   1.038   7.857   6.232
 7643TIP3    H222873   0.939   7.751   6.190
 7644TIP3   OH222874   0.359   2.560   5.118
 7644TIP3    H122875   0.431   2.535   5.175
 7644TIP3    H222876   0.401   2.596   5.040
 7645TIP3   OH222877   0.297   0.252   5.404
 7645TIP3    H122878   0.273   0.191   5.335
 7645TIP3    H222879   0.216   0.301   5.421
 7646TIP3   OH222880   3.089   6.515   6.646
 7646TIP3    H122881   3.045   6.453   6.704
 7646TIP3    H222882   3.020   6.542   6.584
 7647TIP3   OH222883   7.495   5.441   1.413
 7647TIP3    H122884   7.442   5.433   1.493
 7647TIP3    H222885   7.479   5.530   1.382
 7648TIP3   OH222886   5.640   4.276   1.301
 7648TIP3    H122887   5.609   4.217   1.233
 7648TIP3    H222888   5.582   4.260   1.376
 7649TIP3   OH222889   6.439   6.060   3.488
 7649TIP3    H122890   6.409   5.983   3.537
 7649TIP3    H222891   6.441   6.131   3.552
 7650TIP3   OH222892   0.752   6.738   0.323
 7650TIP3    H122893   0.712   6.820   0.353
 7650TIP3    H222894   0.831   6.729   0.376
 7651TIP3   OH222895   1.423   5.689   6.793
 7651TIP3    H122896   1.464   5.771   6.764
 7651TIP3    H222897   1.391   5.648   6.713
 7652TIP3   OH222898   2.247   1.790   5.616
 7652TIP3    H122899   2.332   1.755   5.642
 7652TIP3    H222900   2.190   1.771   5.691
 7653TIP3   OH222901   2.092   5.060   4.689
 7653TIP3    H122902   2.182   5.092   4.680
 7653TIP3    H222903   2.052   5.118   4.754
 7654TIP3   OH222904   7.546   4.322   3.485
 7654TIP3    H122905   7.638   4.303   3.468
 7654TIP3    H222906   7.541   4.417   3.489
 7655TIP3   OH222907   4.024   4.910   5.180
 7655TIP3    H122908   4.098   4.892   5.122
 7655TIP3    H222909   3.988   4.824   5.200
 7656TIP3   OH222910   0.809   1.901   1.082
 7656TIP3    H122911   0.743   1.834   1.102
 7656TIP3    H222912   0.879   1.885   1.145
 7657TIP3   OH222913   2.916   4.923   4.112
 7657TIP3    H122914   2.861   4.847   4.094
 7657TIP3    H222915   2.958   4.903   4.195
 7658TIP3   OH222916   1.526   4.070   2.432
 7658TIP3    H122917   1.622   4.074   2.439
 7658TIP3    H222918   1.506   3.978   2.449
 7659TIP3   OH222919   0.278   2.297   2.857
 7659TIP3    H122920   0.237   2.351   2.790
 7659TIP3    H222921   0.212   2.290   2.926
 7660TIP3   OH222922   5.504   2.337   3.089
 7660TIP3    H122923   5.592   2.302   3.077
 7660TIP3    H222924   5.517   2.427   3.116
 7661TIP3   OH222925   5.671   1.492   2.523
 7661TIP3    H122926   5.664   1.403   2.488
 7661TIP3    H222927   5.682   1.547   2.445
 7662TIP3   OH222928   2.816   0.575   3.947
 7662TIP3    H122929   2.746   0.641   3.951
 7662TIP3    H222930   2.801   0.530   3.864
 7663TIP3   OH222931   8.285   1.199   3.153
 7663TIP3    H122932   8.207   1.251   3.172
 7663TIP3    H222933   8.254   1.108   3.153
 7664TIP3   OH222934   7.157   5.675   2.760
 7664TIP3    H122935   7.165   5.664   2.855
 7664TIP3    H222936   7.063   5.672   2.743
 7665TIP3   OH222937   7.428   5.047   6.541
 7665TIP3    H122938   7.451   4.998   6.462
 7665TIP3    H222939   7.333   5.039   6.547
 7666TIP3   OH222940   7.288   1.700   0.726
 7666TIP3    H122941   7.329   1.666   0.805
 7666TIP3    H222942   7.321   1.789   0.718
 7667TIP3   OH222943   3.417   1.383   5.328
 7667TIP3    H122944   3.370   1.464   5.344
 7667TIP3    H222945   3.387   1.323   5.396
 7668TIP3   OH222946   6.504   1.827   3.672
 7668TIP3    H122947   6.519   1.884   3.596
 7668TIP3    H222948   6.582   1.772   3.678
 7669TIP3   OH222949   6.747   2.681   1.766
 7669TIP3    H122950   6.831   2.640   1.746
 7669TIP3    H222951   6.702   2.686   1.682
 7670TIP3   OH222952   7.810   5.030   6.383
 7670TIP3    H122953   7.849   5.099   6.436
 7670TIP3    H222954   7.880   4.965   6.373
 7671TIP3   OH222955   7.397   5.060   0.199
 7671TIP3    H122956   7.367   4.984   0.148
 7671TIP3    H222957   7.330   5.126   0.184
 7672TIP3   OH222958   5.624   7.377   2.620
 7672TIP3    H122959   5.692   7.317   2.649
 7672TIP3    H222960   5.650   7.462   2.656
 7673TIP3   OH222961   4.808   0.940   5.359
 7673TIP3    H122962   4.844   1.026   5.337
 7673TIP3    H222963   4.713   0.953   5.357
 7674TIP3   OH222964   2.997   6.497   2.824
 7674TIP3    H122965   2.936   6.538   2.885
 7674TIP3    H222966   2.976   6.536   2.739
 7675TIP3   OH222967   4.126   4.267   5.128
 7675TIP3    H122968   4.194   4.217   5.084
 7675TIP3    H222969   4.138   4.357   5.098
 7676TIP3   OH222970   5.805   6.425   2.229
 7676TIP3    H122971   5.747   6.348   2.233
 7676TIP3    H222972   5.883   6.398   2.277
 7677TIP3   OH222973   6.010   6.747   0.325
 7677TIP3    H122974   6.034   6.742   0.233
 7677TIP3    H222975   6.059   6.676   0.367
 7678TIP3   OH222976   1.667   0.636   2.627
 7678TIP3    H122977   1.662   0.640   2.532
 7678TIP3    H222978   1.671   0.543   2.647
 7679TIP3   OH222979   3.384   2.927   4.094
 7679TIP3    H122980   3.396   2.922   3.999
 7679TIP3    H222981   3.402   2.839   4.126
 7680TIP3   OH222982   7.555   2.934   0.578
 7680TIP3    H122983   7.629   2.922   0.637
 7680TIP3    H222984   7.487   2.876   0.613
 7681TIP3   OH222985   7.274   2.294   1.039
 7681TIP3    H122986   7.277   2.276   1.133
 7681TIP3    H222987   7.269   2.389   1.033
 7682TIP3   OH222988   7.347   1.969   0.683
 7682TIP3    H122989   7.341   2.063   0.666
 7682TIP3    H222990   7.401   1.962   0.761
 7683TIP3   OH222991   6.713   5.775   2.381
 7683TIP3    H122992   6.678   5.738   2.463
 7683TIP3    H222993   6.703   5.869   2.391
 7684TIP3   OH222994   2.147   5.519   3.430
 7684TIP3    H122995   2.226   5.491   3.384
 7684TIP3    H222996   2.175   5.536   3.520
 7685TIP3   OH222997   4.966   3.666   4.052
 7685TIP3    H122998   4.977   3.590   4.108
 7685TIP3    H222999   4.886   3.708   4.084
 7686TIP3   OH223000   1.636   1.288   0.380
 7686TIP3    H123001   1.676   1.209   0.418
 7686TIP3    H223002   1.699   1.317   0.314
 7687TIP3   OH223003   7.941   1.293   1.437
 7687TIP3    H123004   7.949   1.226   1.505
 7687TIP3    H223005   7.999   1.264   1.367
 7688TIP3   OH223006   3.836   3.191   6.310
 7688TIP3    H123007   3.793   3.193   6.396
 7688TIP3    H223008   3.894   3.267   6.312
 7689TIP3   OH223009   2.339   1.865   6.538
 7689TIP3    H123010   2.389   1.946   6.542
 7689TIP3    H223011   2.291   1.862   6.620
 7690TIP3   OH223012   3.730   6.426   0.403
 7690TIP3    H123013   3.728   6.494   0.336
 7690TIP3    H223014   3.710   6.345   0.357
 7691TIP3   OH223015   6.193   3.180   6.240
 7691TIP3    H123016   6.264   3.153   6.298
 7691TIP3    H223017   6.168   3.100   6.194
 7692TIP3   OH223018   1.629   4.857   3.419
 7692TIP3    H123019   1.582   4.777   3.440
 7692TIP3    H223020   1.698   4.863   3.485
 7693TIP3   OH223021   5.521   4.138   2.758
 7693TIP3    H123022   5.471   4.213   2.790
 7693TIP3    H223023   5.562   4.170   2.678
 7694TIP3   OH223024   2.018   5.733   3.292
 7694TIP3    H123025   2.056   5.651   3.325
 7694TIP3    H223026   1.952   5.757   3.358
 7695TIP3   OH223027   1.505   7.185   3.826
 7695TIP3    H123028   1.573   7.136   3.872
 7695TIP3    H223029   1.426   7.172   3.878
 7696TIP3   OH223030   4.816   6.588   2.798
 7696TIP3    H123031   4.775   6.655   2.744
 7696TIP3    H223032   4.908   6.588   2.772
 7697TIP3   OH223033   1.479   3.735   2.087
 7697TIP3    H123034   1.555   3.732   2.147
 7697TIP3    H223035   1.500   3.805   2.026
 7698TIP3   OH223036   3.138   4.458   3.893
 7698TIP3    H123037   3.149   4.550   3.871
 7698TIP3    H223038   3.125   4.458   3.988
 7699TIP3   OH223039   1.571   4.423   3.169
 7699TIP3    H123040   1.592   4.465   3.086
 7699TIP3    H223041   1.629   4.465   3.233
 7700TIP3   OH223042   0.506   3.438   2.139
 7700TIP3    H123043   0.411   3.452   2.136
 7700TIP3    H223044   0.529   3.448   2.231
 7701TIP3   OH223045   3.921   7.360   5.093
 7701TIP3    H123046   3.923   7.456   5.086
 7701TIP3    H223047   3.914   7.330   5.002
 7702TIP3   OH223048   0.126   0.375   0.767
 7702TIP3    H123049   0.132   0.439   0.838
 7702TIP3    H223050   0.033   0.373   0.744
 7703TIP3   OH223051   0.443   4.177   2.312
 7703TIP3    H123052   0.374   4.149   2.251
 7703TIP3    H223053   0.513   4.209   2.255
 7704TIP3   OH223054   0.379   3.872   0.608
 7704TIP3    H123055   0.440   3.946   0.616
 7704TIP3    H223056   0.384   3.847   0.516
 7705TIP3   OH223057   2.461   4.199   1.776
 7705TIP3    H123058   2.518   4.260   1.728
 7705TIP3    H223059   2.444   4.243   1.860
 7706TIP3   OH223060   0.595   7.441   0.423
 7706TIP3    H123061   0.513   7.470   0.384
 7706TIP3    H223062   0.649   7.521   0.427
 7707TIP3   OH223063   8.284   1.017   0.432
 7707TIP3    H123064   8.312   0.952   0.368
 7707TIP3    H223065   8.189   1.010   0.432
 7708TIP3   OH223066   2.897   0.568   1.610
 7708TIP3    H123067   2.928   0.497   1.667
 7708TIP3    H223068   2.957   0.640   1.627
 7709TIP3   OH223069   5.484   0.078   6.477
 7709TIP3    H123070   5.566   0.085   6.525
 7709TIP3    H223071   5.468  -0.016   6.469
 7710TIP3   OH223072   0.720   7.779   3.817
 7710TIP3    H123073   0.775   7.714   3.859
 7710TIP3    H223074   0.706   7.846   3.884
 7711TIP3   OH223075   8.172   0.074   2.920
 7711TIP3    H123076   8.127   0.029   2.848
 7711TIP3    H223077   8.122   0.154   2.934
 7712TIP3   OH223078   4.532   1.994   0.727
 7712TIP3    H123079   4.503   1.967   0.814
 7712TIP3    H223080   4.469   2.060   0.700
 7713TIP3   OH223081   3.172   5.165   1.189
 7713TIP3    H123082   3.210   5.223   1.122
 7713TIP3    H223083   3.247   5.123   1.230
 7714TIP3   OH223084   5.212   7.504   4.199
 7714TIP3    H123085   5.257   7.585   4.224
 7714TIP3    H223086   5.252   7.479   4.116
 7715TIP3   OH223087   0.092   0.904   3.069
 7715TIP3    H123088   0.156   0.945   3.128
 7715TIP3    H223089   0.040   0.847   3.126
 7716TIP3   OH223090   4.220   0.879   6.626
 7716TIP3    H123091   4.147   0.866   6.565
 7716TIP3    H223092   4.202   0.819   6.698
 7717TIP3   OH223093   1.687   3.250   6.448
 7717TIP3    H123094   1.692   3.302   6.368
 7717TIP3    H223095   1.665   3.314   6.517
 7718TIP3   OH223096   4.479   6.704   6.135
 7718TIP3    H123097   4.465   6.780   6.079
 7718TIP3    H223098   4.572   6.686   6.129
 7719TIP3   OH223099   3.407   0.784   2.766
 7719TIP3    H123100   3.350   0.773   2.690
 7719TIP3    H223101   3.437   0.874   2.761
 7720TIP3   OH223102   4.858   7.564   5.186
 7720TIP3    H123103   4.770   7.538   5.159
 7720TIP3    H223104   4.878   7.507   5.261
 7721TIP3   OH223105   1.326   5.065   2.185
 7721TIP3    H123106   1.323   5.096   2.095
 7721TIP3    H223107   1.401   5.111   2.224
 7722TIP3   OH223108   4.957   2.827   5.204
 7722TIP3    H123109   5.029   2.780   5.164
 7722TIP3    H223110   4.947   2.906   5.151
 7723TIP3   OH223111   5.215   3.371   4.692
 7723TIP3    H123112   5.293   3.326   4.723
 7723TIP3    H223113   5.217   3.361   4.597
 7724TIP3   OH223114   2.660   0.827   5.930
 7724TIP3    H123115   2.638   0.783   6.012
 7724TIP3    H223116   2.704   0.759   5.878
 7725TIP3   OH223117   2.415   4.333   6.197
 7725TIP3    H123118   2.342   4.277   6.172
 7725TIP3    H223119   2.455   4.289   6.272
 7726TIP3   OH223120   6.965   3.086   4.931
 7726TIP3    H123121   6.870   3.087   4.944
 7726TIP3    H223122   6.983   3.167   4.883
 7727TIP3   OH223123   4.767   2.427   6.085
 7727TIP3    H123124   4.698   2.462   6.029
 7727TIP3    H223125   4.751   2.468   6.170
 7728TIP3   OH223126   3.355   3.239   1.602
 7728TIP3    H123127   3.308   3.178   1.660
 7728TIP3    H223128   3.415   3.183   1.552
 7729TIP3   OH223129   7.460   1.544   3.342
 7729TIP3    H123130   7.439   1.636   3.361
 7729TIP3    H223131   7.536   1.548   3.285
 7730TIP3   OH223132   4.565   5.592   3.015
 7730TIP3    H123133   4.563   5.539   2.936
 7730TIP3    H223134   4.537   5.532   3.084
 7731TIP3   OH223135   5.966   2.974   4.457
 7731TIP3    H123136   5.928   3.054   4.420
 7731TIP3    H223137   5.891   2.927   4.494
 7732TIP3   OH223138   5.543   3.386   3.706
 7732TIP3    H123139   5.610   3.341   3.759
 7732TIP3    H223140   5.590   3.456   3.662
 7733TIP3   OH223141   1.816   7.011   2.221
 7733TIP3    H123142   1.760   7.079   2.185
 7733TIP3    H223143   1.758   6.957   2.274
 7734TIP3   OH223144   4.566   0.701   5.040
 7734TIP3    H123145   4.574   0.791   5.007
 7734TIP3    H223146   4.584   0.646   4.964
 7735TIP3   OH223147   0.154   5.281   5.583
 7735TIP3    H123148   0.183   5.371   5.568
 7735TIP3    H223149   0.086   5.266   5.517
 7736TIP3   OH223150   7.021   7.132   0.790
 7736TIP3    H123151   7.013   7.142   0.695
 7736TIP3    H223152   7.009   7.038   0.805
 7737TIP3   OH223153   6.996   2.385   3.278
 7737TIP3    H123154   6.929   2.322   3.306
 7737TIP3    H223155   6.957   2.430   3.203
 7738TIP3   OH223156   0.783   5.392   2.700
 7738TIP3    H123157   0.693   5.388   2.732
 7738TIP3    H223158   0.837   5.371   2.777
 7739TIP3   OH223159   6.527   6.708   2.774
 7739TIP3    H123160   6.529   6.636   2.711
 7739TIP3    H223161   6.483   6.779   2.727
 7740TIP3   OH223162   2.786   4.107   0.751
 7740TIP3    H123163   2.774   4.102   0.846
 7740TIP3    H223164   2.696   4.105   0.716
 7741TIP3   OH223165   5.367   5.359   3.083
 7741TIP3    H123166   5.307   5.414   3.134
 7741TIP3    H223167   5.338   5.369   2.992
 7742TIP3   OH223168   5.188   0.706   0.590
 7742TIP3    H123169   5.251   0.725   0.521
 7742TIP3    H223170   5.214   0.763   0.663
 7743TIP3   OH223171   5.647   4.276   6.643
 7743TIP3    H123172   5.654   4.312   6.732
 7743TIP3    H223173   5.554   4.286   6.620
 7744TIP3   OH223174   4.758   7.520   4.659
 7744TIP3    H123175   4.774   7.479   4.574
 7744TIP3    H223176   4.752   7.614   4.640
 7745TIP3   OH223177   4.394   3.394   2.359
 7745TIP3    H123178   4.451   3.400   2.436
 7745TIP3    H223179   4.311   3.362   2.394
 7746TIP3   OH223180   5.246   3.942   3.877
 7746TIP3    H123181   5.240   3.847   3.882
 7746TIP3    H223182   5.193   3.973   3.951
 7747TIP3   OH223183   6.357   3.306   2.438
 7747TIP3    H123184   6.350   3.367   2.512
 7747TIP3    H223185   6.269   3.305   2.400
 7748TIP3   OH223186   5.614   2.102   4.498
 7748TIP3    H123187   5.616   2.090   4.593
 7748TIP3    H223188   5.621   2.013   4.462
 7749TIP3   OH223189   4.855   7.770   0.657
 7749TIP3    H123190   4.872   7.691   0.707
 7749TIP3    H223191   4.939   7.816   0.655
 7750TIP3   OH223192   5.389   4.571   3.874
 7750TIP3    H123193   5.345   4.624   3.940
 7750TIP3    H223194   5.457   4.628   3.837
 7751TIP3   OH223195   0.228   4.239   0.706
 7751TIP3    H123196   0.301   4.219   0.647
 7751TIP3    H223197   0.261   4.216   0.793
 7752TIP3   OH223198   6.171   7.227   6.719
 7752TIP3    H123199   6.096   7.275   6.684
 7752TIP3    H223200   6.144   7.201   6.807
 7753TIP3   OH223201   2.153   5.279   5.235
 7753TIP3    H123202   2.143   5.371   5.261
 7753TIP3    H223203   2.247   5.266   5.230
 7754TIP3   OH223204   5.128   5.244   5.930
 7754TIP3    H123205   5.120   5.315   5.994
 7754TIP3    H223206   5.173   5.285   5.856
 7755TIP3   OH223207   2.226   3.087   3.264
 7755TIP3    H123208   2.289   3.158   3.278
 7755TIP3    H223209   2.265   3.011   3.308
 7756TIP3   OH223210   8.036   0.781   1.194
 7756TIP3    H123211   8.126   0.792   1.164
 7756TIP3    H223212   8.045   0.744   1.282
 7757TIP3   OH223213   1.570   3.241   4.776
 7757TIP3    H123214   1.486   3.202   4.752
 7757TIP3    H223215   1.635   3.173   4.757
 7758TIP3   OH223216   1.870   5.388   3.810
 7758TIP3    H123217   1.873   5.429   3.723
 7758TIP3    H223218   1.801   5.321   3.803
 7759TIP3   OH223219   0.926   6.769   5.873
 7759TIP3    H123220   0.973   6.694   5.909
 7759TIP3    H223221   0.942   6.764   5.778
 7760TIP3   OH223222   5.802   4.029   2.199
 7760TIP3    H123223   5.859   4.086   2.147
 7760TIP3    H223224   5.851   3.947   2.207
 7761TIP3   OH223225   4.547   6.872   5.601
 7761TIP3    H123226   4.635   6.906   5.616
 7761TIP3    H223227   4.544   6.788   5.646
 7762TIP3   OH223228   2.875   6.614   5.351
 7762TIP3    H123229   2.950   6.632   5.295
 7762TIP3    H223230   2.806   6.587   5.290
 7763TIP3   OH223231   7.698   7.037   5.234
 7763TIP3    H123232   7.690   6.964   5.295
 7763TIP3    H223233   7.698   6.996   5.147
 7764TIP3   OH223234   6.502   1.374   4.135
 7764TIP3    H123235   6.488   1.284   4.164
 7764TIP3    H223236   6.590   1.373   4.098
 7765TIP3   OH223237   1.099   3.137   1.873
 7765TIP3    H123238   1.037   3.093   1.815
 7765TIP3    H223239   1.050   3.153   1.953
 7766TIP3   OH223240   4.478   2.119   5.458
 7766TIP3    H123241   4.418   2.183   5.496
 7766TIP3    H223242   4.473   2.043   5.517
 7767TIP3   OH223243   2.877   0.956   6.484
 7767TIP3    H123244   2.799   1.010   6.473
 7767TIP3    H223245   2.903   0.932   6.396
 7768TIP3   OH223246   1.115   5.114   0.609
 7768TIP3    H123247   1.038   5.159   0.574
 7768TIP3    H223248   1.170   5.184   0.644
 7769TIP3   OH223249   4.372   7.470   2.779
 7769TIP3    H123250   4.399   7.443   2.867
 7769TIP3    H223251   4.452   7.463   2.726
 7770TIP3   OH223252   7.955   6.516   3.095
 7770TIP3    H123253   7.878   6.512   3.040
 7770TIP3    H223254   7.921   6.521   3.185
 7771TIP3   OH223255   3.923   7.656   5.047
 7771TIP3    H123256   3.830   7.678   5.055
 7771TIP3    H223257   3.962   7.732   5.005
 7772TIP3   OH223258   4.799   5.178   5.101
 7772TIP3    H123259   4.814   5.246   5.036
 7772TIP3    H223260   4.885   5.164   5.141
 7773TIP3   OH223261   0.152   5.625   2.536
 7773TIP3    H123262   0.222   5.587   2.483
 7773TIP3    H223263   0.169   5.593   2.624
 7774TIP3   OH223264   5.982   6.320   5.888
 7774TIP3    H123265   5.993   6.237   5.933
 7774TIP3    H223266   5.910   6.304   5.826
 7775TIP3   OH223267   6.736   7.617   3.637
 7775TIP3    H123268   6.700   7.674   3.704
 7775TIP3    H223269   6.661   7.566   3.606
 7776TIP3   OH223270   0.252   6.360   3.822
 7776TIP3    H123271   0.223   6.370   3.913
 7776TIP3    H223272   0.308   6.437   3.806
 7777TIP3   OH223273   2.460   4.628   0.960
 7777TIP3    H123274   2.493   4.540   0.979
 7777TIP3    H223275   2.465   4.636   0.865
 7778TIP3   OH223276   6.737   1.173   5.063
 7778TIP3    H123277   6.663   1.184   5.123
 7778TIP3    H223278   6.810   1.218   5.105
 7779TIP3   OH223279   3.872   5.439   1.775
 7779TIP3    H123280   3.934   5.511   1.786
 7779TIP3    H223281   3.915   5.364   1.815
 7780TIP3   OH223282   2.219   2.025   5.476
 7780TIP3    H123283   2.222   1.956   5.542
 7780TIP3    H223284   2.127   2.030   5.450
 7781TIP3   OH223285   4.033   7.715   1.631
 7781TIP3    H123286   4.057   7.797   1.587
 7781TIP3    H223287   4.102   7.703   1.697
 7782TIP3   OH223288   5.195   5.738   5.239
 7782TIP3    H123289   5.146   5.670   5.193
 7782TIP3    H223290   5.209   5.806   5.173
 7783TIP3   OH223291   1.451   3.500   4.269
 7783TIP3    H123292   1.481   3.481   4.180
 7783TIP3    H223293   1.404   3.421   4.297
 7784TIP3   OH223294   1.221   1.237   6.786
 7784TIP3    H123295   1.205   1.277   6.701
 7784TIP3    H223296   1.310   1.202   6.779
 7785TIP3   OH223297   3.193   2.619   3.400
 7785TIP3    H123298   3.106   2.599   3.366
 7785TIP3    H223299   3.179   2.689   3.463
 7786TIP3   OH223300   8.039   2.012   2.635
 7786TIP3    H123301   8.130   1.993   2.658
 7786TIP3    H223302   8.000   2.045   2.716
 7787TIP3   OH223303   3.417   2.344   1.948
 7787TIP3    H123304   3.405   2.320   1.857
 7787TIP3    H223305   3.469   2.424   1.945
 7788TIP3   OH223306   5.641   5.025   4.823
 7788TIP3    H123307   5.583   4.959   4.787
 7788TIP3    H223308   5.618   5.030   4.916
 7789TIP3   OH223309   4.348   4.703   3.649
 7789TIP3    H123310   4.436   4.700   3.688
 7789TIP3    H223311   4.350   4.781   3.593
 7790TIP3   OH223312   5.236   3.229   5.503
 7790TIP3    H123313   5.268   3.213   5.414
 7790TIP3    H223314   5.148   3.192   5.504
 7791TIP3   OH223315   2.610   2.991   0.993
 7791TIP3    H123316   2.539   2.931   1.016
 7791TIP3    H223317   2.567   3.077   0.989
 7792TIP3   OH223318   6.912   2.801   2.648
 7792TIP3    H123319   6.930   2.881   2.697
 7792TIP3    H223320   6.848   2.827   2.582
 7793TIP3   OH223321   2.627   7.051   2.823
 7793TIP3    H123322   2.538   7.068   2.854
 7793TIP3    H223323   2.668   7.137   2.819
 7794TIP3   OH223324   1.805   2.828   4.327
 7794TIP3    H123325   1.721   2.869   4.348
 7794TIP3    H223326   1.791   2.735   4.342
 7795TIP3   OH223327   5.644   6.133   6.650
 7795TIP3    H123328   5.698   6.054   6.642
 7795TIP3    H223329   5.567   6.115   6.596
 7796TIP3   OH223330   0.196   3.381   3.087
 7796TIP3    H123331   0.240   3.299   3.067
 7796TIP3    H223332   0.166   3.371   3.178
 7797TIP3   OH223333   7.470   7.522   5.963
 7797TIP3    H123334   7.424   7.440   5.944
 7797TIP3    H223335   7.492   7.558   5.877
 7798TIP3   OH223336   2.610   0.278   0.872
 7798TIP3    H123337   2.658   0.290   0.790
 7798TIP3    H223338   2.631   0.355   0.924
 7799TIP3   OH223339   1.167   2.358   2.169
 7799TIP3    H123340   1.110   2.387   2.098
 7799TIP3    H223341   1.116   2.292   2.216
 7800TIP3   OH223342   3.945   3.886   4.148
 7800TIP3    H123343   3.886   3.833   4.202
 7800TIP3    H223344   4.026   3.889   4.199
 7801TIP3   OH223345   4.419   7.190   3.559
 7801TIP3    H123346   4.466   7.235   3.489
 7801TIP3    H223347   4.488   7.163   3.620
 7802TIP3   OH223348   7.131   1.305   0.546
 7802TIP3    H123349   7.064   1.373   0.550
 7802TIP3    H223350   7.155   1.301   0.453
 7803TIP3   OH223351   7.411   4.943   3.196
 7803TIP3    H123352   7.403   4.967   3.289
 7803TIP3    H223353   7.482   4.879   3.194
 7804TIP3   OH223354   5.025   6.530   3.707
 7804TIP3    H123355   5.097   6.593   3.712
 7804TIP3    H223356   4.947   6.584   3.699
 7805TIP3   OH223357   5.653   5.326   5.794
 7805TIP3    H123358   5.691   5.280   5.719
 7805TIP3    H223359   5.694   5.412   5.793
 7806TIP3   OH223360   3.015   2.596   3.683
 7806TIP3    H123361   3.027   2.658   3.756
 7806TIP3    H223362   2.920   2.593   3.670
 7807TIP3   OH223363   8.259   1.555   0.967
 7807TIP3    H123364   8.169   1.584   0.985
 7807TIP3    H223365   8.249   1.463   0.941
 7808TIP3   OH223366   0.565   4.521   5.030
 7808TIP3    H123367   0.514   4.515   4.949
 7808TIP3    H223368   0.501   4.512   5.100
 7809TIP3   OH223369   1.795   6.095   5.827
 7809TIP3    H123370   1.831   6.073   5.741
 7809TIP3    H223371   1.867   6.140   5.872
 7810TIP3   OH223372   2.101   3.812   0.058
 7810TIP3    H123373   2.039   3.791   0.128
 7810TIP3    H223374   2.094   3.739  -0.003
 7811TIP3   OH223375   6.481   1.312   1.607
 7811TIP3    H123376   6.492   1.240   1.668
 7811TIP3    H223377   6.502   1.275   1.521
 7812TIP3   OH223378   0.651   5.485   0.540
 7812TIP3    H123379   0.615   5.421   0.601
 7812TIP3    H223380   0.588   5.486   0.467
 7813TIP3   OH223381   6.022   5.254   1.456
 7813TIP3    H123382   6.032   5.224   1.547
 7813TIP3    H223383   5.961   5.192   1.417
 7814TIP3   OH223384   3.260   5.381   0.028
 7814TIP3    H123385   3.224   5.310   0.082
 7814TIP3    H223386   3.254   5.348  -0.062
 7815TIP3   OH223387   5.039   0.271   1.150
 7815TIP3    H123388   4.981   0.347   1.153
 7815TIP3    H223389   5.126   0.308   1.133
 7816TIP3   OH223390   1.254   2.578   5.829
 7816TIP3    H123391   1.254   2.627   5.746
 7816TIP3    H223392   1.223   2.491   5.805
 7817TIP3   OH223393   1.840   6.219   4.417
 7817TIP3    H123394   1.751   6.253   4.424
 7817TIP3    H223395   1.887   6.283   4.363
 7818TIP3   OH223396   7.081   2.378   4.238
 7818TIP3    H123397   7.102   2.332   4.319
 7818TIP3    H223398   7.008   2.329   4.200
 7819TIP3   OH223399   8.256   7.574   3.930
 7819TIP3    H123400   8.260   7.535   4.018
 7819TIP3    H223401   8.187   7.641   3.937
 7820TIP3   OH223402   0.915   4.684   4.499
 7820TIP3    H123403   0.990   4.738   4.526
 7820TIP3    H223404   0.919   4.608   4.556
 7821TIP3   OH223405   2.768   6.092   6.740
 7821TIP3    H123406   2.753   6.135   6.656
 7821TIP3    H223407   2.800   6.005   6.717
 7822TIP3   OH223408   2.074   7.031   6.210
 7822TIP3    H123409   2.026   6.958   6.250
 7822TIP3    H223410   2.144   6.989   6.161
 7823TIP3   OH223411   5.245   5.641   5.482
 7823TIP3    H123412   5.213   5.675   5.399
 7823TIP3    H223413   5.192   5.563   5.498
 7824TIP3   OH223414   6.637   2.000   4.315
 7824TIP3    H123415   6.678   2.086   4.312
 7824TIP3    H223416   6.680   1.950   4.246
 7825TIP3   OH223417   0.971   5.866   4.039
 7825TIP3    H123418   1.054   5.912   4.030
 7825TIP3    H223419   0.914   5.907   3.974
 7826TIP3   OH223420   7.943   5.709   3.919
 7826TIP3    H123421   7.893   5.634   3.950
 7826TIP3    H223422   7.876   5.773   3.893
 7827TIP3   OH223423   0.359   4.685   1.974
 7827TIP3    H123424   0.390   4.594   1.983
 7827TIP3    H223425   0.421   4.736   2.025
 7828TIP3   OH223426   3.182   4.274   5.239
 7828TIP3    H123427   3.251   4.210   5.220
 7828TIP3    H223428   3.141   4.291   5.154
 7829TIP3   OH223429   1.010   7.635   3.925
 7829TIP3    H123430   1.069   7.607   3.995
 7829TIP3    H223431   0.930   7.585   3.940
 7830TIP3   OH223432   4.951   2.954   5.759
 7830TIP3    H123433   4.954   3.035   5.808
 7830TIP3    H223434   4.910   2.977   5.676
 7831TIP3   OH223435   3.597   1.774   0.934
 7831TIP3    H123436   3.555   1.768   1.020
 7831TIP3    H223437   3.558   1.851   0.894
 7832TIP3   OH223438   3.012   4.787   3.431
 7832TIP3    H123439   2.997   4.750   3.344
 7832TIP3    H223440   2.988   4.879   3.421
 7833TIP3   OH223441   6.767   5.364   6.488
 7833TIP3    H123442   6.818   5.313   6.426
 7833TIP3    H223443   6.730   5.300   6.549
 7834TIP3   OH223444   1.524   5.552   0.552
 7834TIP3    H123445   1.546   5.572   0.643
 7834TIP3    H223446   1.437   5.511   0.557
 7835TIP3   OH223447   7.857   2.856   5.779
 7835TIP3    H123448   7.887   2.768   5.758
 7835TIP3    H223449   7.802   2.844   5.857
 7836TIP3   OH223450   1.659   7.471   2.115
 7836TIP3    H123451   1.640   7.385   2.078
 7836TIP3    H223452   1.754   7.481   2.105
 7837TIP3   OH223453   3.982   3.790   3.469
 7837TIP3    H123454   3.965   3.862   3.410
 7837TIP3    H223455   3.928   3.718   3.436
 7838TIP3   OH223456   7.809   4.981   1.293
 7838TIP3    H123457   7.843   5.010   1.209
 7838TIP3    H223458   7.865   5.026   1.358
 7839TIP3   OH223459   7.638   5.869   1.894
 7839TIP3    H123460   7.562   5.924   1.912
 7839TIP3    H223461   7.685   5.864   1.977
 7840TIP3   OH223462   7.400   0.282   3.170
 7840TIP3    H123463   7.401   0.238   3.255
 7840TIP3    H223464   7.472   0.345   3.175
 7841TIP3   OH223465   2.717   4.170   4.559
 7841TIP3    H123466   2.684   4.135   4.476
 7841TIP3    H223467   2.788   4.229   4.533
 7842TIP3   OH223468   0.850   3.619   5.590
 7842TIP3    H123469   0.769   3.643   5.634
 7842TIP3    H223470   0.832   3.633   5.497
 7843TIP3   OH223471   3.676   7.090   0.097
 7843TIP3    H123472   3.633   7.170   0.066
 7843TIP3    H223473   3.697   7.042   0.017
 7844TIP3   OH223474   6.365   1.523   3.630
 7844TIP3    H123475   6.423   1.561   3.565
 7844TIP3    H223476   6.411   1.533   3.713
 7845TIP3   OH223477   5.546   0.477   0.954
 7845TIP3    H123478   5.588   0.397   0.925
 7845TIP3    H223479   5.518   0.459   1.044
 7846TIP3   OH223480   7.344   0.575   2.453
 7846TIP3    H123481   7.406   0.610   2.517
 7846TIP3    H223482   7.348   0.636   2.380
 7847TIP3   OH223483   4.434   6.225   1.882
 7847TIP3    H123484   4.388   6.206   1.964
 7847TIP3    H223485   4.384   6.296   1.842
 7848TIP3   OH223486   3.940   2.313   0.970
 7848TIP3    H123487   3.964   2.364   1.048
 7848TIP3    H223488   4.019   2.315   0.915
 7849TIP3   OH223489   5.190   7.569   4.622
 7849TIP3    H123490   5.109   7.621   4.626
 7849TIP3    H223491   5.234   7.587   4.704
 7850TIP3   OH223492   3.206   4.550   0.860
 7850TIP3    H123493   3.285   4.498   0.872
 7850TIP3    H223494   3.135   4.486   0.857
 7851TIP3   OH223495   4.987   0.089   4.813
 7851TIP3    H123496   4.960   0.107   4.903
 7851TIP3    H223497   5.053   0.021   4.821
 7852TIP3   OH223498   1.904   5.231   5.304
 7852TIP3    H123499   1.997   5.226   5.281
 7852TIP3    H223500   1.893   5.319   5.340
 7853TIP3   OH223501   8.166   6.616   4.331
 7853TIP3    H123502   8.211   6.547   4.282
 7853TIP3    H223503   8.223   6.632   4.407
 7854TIP3   OH223504   0.072   6.682   5.538
 7854TIP3    H123505  -0.008   6.650   5.496
 7854TIP3    H223506   0.076   6.634   5.621
 7855TIP3   OH223507   0.757   6.017   4.345
 7855TIP3    H123508   0.806   5.935   4.340
 7855TIP3    H223509   0.787   6.057   4.427
 7856TIP3   OH223510   2.758   5.261   4.551
 7856TIP3    H123511   2.826   5.238   4.616
 7856TIP3    H223512   2.702   5.183   4.547
 7857TIP3   OH223513   1.285   4.042   1.684
 7857TIP3    H123514   1.246   4.076   1.603
 7857TIP3    H223515   1.380   4.047   1.669
 7858TIP3   OH223516   1.198   3.864   4.154
 7858TIP3    H123517   1.198   3.912   4.071
 7858TIP3    H223518   1.271   3.803   4.147
 7859TIP3   OH223519   4.102   7.076   2.309
 7859TIP3    H123520   4.110   7.167   2.282
 7859TIP3    H223521   4.063   7.079   2.396
 7860TIP3   OH223522   1.006   5.375   5.032
 7860TIP3    H123523   1.052   5.459   5.036
 7860TIP3    H223524   1.010   5.351   4.939
 7861TIP3   OH223525   3.951   3.830   2.608
 7861TIP3    H123526   3.970   3.766   2.539
 7861TIP3    H223527   3.869   3.798   2.647
 7862TIP3   OH223528   7.779   3.194   1.020
 7862TIP3    H123529   7.855   3.252   1.027
 7862TIP3    H223530   7.794   3.127   1.086
 7863TIP3   OH223531   5.977   7.021   6.090
 7863TIP3    H123532   6.004   7.112   6.106
 7863TIP3    H223533   6.058   6.970   6.097
 7864TIP3   OH223534   4.956   5.199   0.073
 7864TIP3    H123535   5.031   5.170   0.020
 7864TIP3    H223536   4.881   5.151   0.037
 7865TIP3   OH223537   6.259   5.832   1.197
 7865TIP3    H123538   6.349   5.861   1.214
 7865TIP3    H223539   6.208   5.913   1.195
 7866TIP3   OH223540   7.177   0.132   0.003
 7866TIP3    H123541   7.177   0.056   0.062
 7866TIP3    H223542   7.261   0.175   0.021
 7867TIP3   OH223543   0.801   2.269   3.537
 7867TIP3    H123544   0.878   2.318   3.565
 7867TIP3    H223545   0.837   2.192   3.492
 7868TIP3   OH223546   3.302   2.487   5.282
 7868TIP3    H123547   3.368   2.456   5.344
 7868TIP3    H223548   3.327   2.577   5.264
 7869TIP3   OH223549   6.708   0.111   4.212
 7869TIP3    H123550   6.683   0.190   4.164
 7869TIP3    H223551   6.725   0.141   4.301
 7870TIP3   OH223552   1.750   4.410   2.654
 7870TIP3    H123553   1.751   4.454   2.740
 7870TIP3    H223554   1.843   4.398   2.633
 7871TIP3   OH223555   2.780   0.028   5.407
 7871TIP3    H123556   2.767   0.122   5.416
 7871TIP3    H223557   2.845   0.006   5.474
 7872TIP3   OH223558   3.928   0.237   4.235
 7872TIP3    H123559   3.870   0.212   4.307
 7872TIP3    H223560   3.874   0.230   4.156
 7873TIP3   OH223561   6.375   2.036   4.341
 7873TIP3    H123562   6.468   2.014   4.329
 7873TIP3    H223563   6.338   2.034   4.253
 7874TIP3   OH223564   5.040   1.916   5.911
 7874TIP3    H123565   5.092   1.939   5.834
 7874TIP3    H223566   5.104   1.899   5.979
 7875TIP3   OH223567   0.677   6.692   6.664
 7875TIP3    H123568   0.647   6.601   6.655
 7875TIP3    H223569   0.693   6.701   6.758
 7876TIP3   OH223570   2.441   3.182   5.149
 7876TIP3    H123571   2.362   3.179   5.203
 7876TIP3    H223572   2.493   3.106   5.178
 7877TIP3   OH223573   4.670   3.545   4.081
 7877TIP3    H123574   4.588   3.517   4.122
 7877TIP3    H223575   4.683   3.635   4.113
 7878TIP3   OH223576   4.065   0.511   1.365
 7878TIP3    H123577   4.116   0.470   1.434
 7878TIP3    H223578   3.995   0.557   1.412
 7879TIP3   OH223579   6.339   4.357   4.715
 7879TIP3    H123580   6.329   4.318   4.629
 7879TIP3    H223581   6.253   4.349   4.756
 7880TIP3   OH223582   2.630   5.365   2.950
 7880TIP3    H123583   2.622   5.334   2.860
 7880TIP3    H223584   2.672   5.451   2.942
 7881TIP3   OH223585   0.566   4.830   0.901
 7881TIP3    H123586   0.527   4.763   0.957
 7881TIP3    H223587   0.530   4.812   0.814
 7882TIP3   OH223588   7.920   6.975   0.683
 7882TIP3    H123589   7.846   7.023   0.721
 7882TIP3    H223590   7.995   7.032   0.696
 7883TIP3   OH223591   8.048   1.103   3.859
 7883TIP3    H123592   7.956   1.077   3.873
 7883TIP3    H223593   8.098   1.041   3.913
 7884TIP3   OH223594   4.937   6.143   4.992
 7884TIP3    H123595   4.935   6.096   5.075
 7884TIP3    H223596   4.848   6.134   4.957
 7885TIP3   OH223597   4.111   0.156   1.989
 7885TIP3    H123598   4.069   0.079   2.027
 7885TIP3    H223599   4.150   0.202   2.063
 7886TIP3   OH223600   4.720   7.030   4.046
 7886TIP3    H123601   4.703   7.123   4.027
 7886TIP3    H223602   4.664   7.010   4.121
 7887TIP3   OH223603   6.671   4.158   2.121
 7887TIP3    H123604   6.585   4.127   2.150
 7887TIP3    H223605   6.703   4.089   2.063
 7888TIP3   OH223606   0.212   5.018   4.291
 7888TIP3    H123607   0.140   4.971   4.333
 7888TIP3    H223608   0.229   4.969   4.210
 7889TIP3   OH223609   6.645   0.681   3.113
 7889TIP3    H123610   6.558   0.656   3.144
 7889TIP3    H223611   6.705   0.629   3.166
 7890TIP3   OH223612   7.305   2.659   5.908
 7890TIP3    H123613   7.225   2.621   5.945
 7890TIP3    H223614   7.315   2.743   5.954
 7891TIP3   OH223615   1.356   4.869   5.571
 7891TIP3    H123616   1.362   4.955   5.531
 7891TIP3    H223617   1.314   4.814   5.506
 7892TIP3   OH223618   4.687   6.098   3.078
 7892TIP3    H123619   4.632   6.092   3.156
 7892TIP3    H223620   4.772   6.128   3.111
 7893TIP3   OH223621   7.136   1.038   3.921
 7893TIP3    H123622   7.159   1.105   3.986
 7893TIP3    H223623   7.183   0.960   3.949
 7894TIP3   OH223624   0.240   5.673   0.390
 7894TIP3    H123625   0.247   5.684   0.485
 7894TIP3    H223626   0.207   5.757   0.359
 7895TIP3   OH223627   1.546   7.052   2.025
 7895TIP3    H123628   1.502   7.118   1.971
 7895TIP3    H223629   1.579   7.101   2.100
 7896TIP3   OH223630   1.647   0.696   2.879
 7896TIP3    H123631   1.642   0.673   2.786
 7896TIP3    H223632   1.559   0.725   2.901
 7897TIP3   OH223633   5.123   3.506   6.453
 7897TIP3    H123634   5.213   3.479   6.470
 7897TIP3    H223635   5.117   3.595   6.488
 7898TIP3   OH223636   8.188   2.052   3.058
 7898TIP3    H123637   8.105   2.100   3.066
 7898TIP3    H223638   8.246   2.113   3.012
 7899TIP3   OH223639   0.046   1.256   4.016
 7899TIP3    H123640  -0.049   1.269   4.008
 7899TIP3    H223641   0.078   1.335   4.058
 7900TIP3   OH223642   2.508   2.643   3.848
 7900TIP3    H123643   2.427   2.598   3.824
 7900TIP3    H223644   2.490   2.679   3.935
 7901TIP3   OH223645   2.432   0.072   6.395
 7901TIP3    H123646   2.374  -0.004   6.405
 7901TIP3    H223647   2.390   0.141   6.446
 7902TIP3   OH223648   7.372   2.538   0.034
 7902TIP3    H123649   7.336   2.577  -0.046
 7902TIP3    H223650   7.311   2.564   0.103
 7903TIP3   OH223651   6.444   0.887   1.394
 7903TIP3    H123652   6.510   0.941   1.350
 7903TIP3    H223653   6.387   0.857   1.323
 7904TIP3   OH223654   3.986   3.778   1.326
 7904TIP3    H123655   3.990   3.688   1.293
 7904TIP3    H223656   4.057   3.823   1.281
 7905TIP3   OH223657   0.274   1.106   1.582
 7905TIP3    H123658   0.295   1.037   1.646
 7905TIP3    H223659   0.249   1.058   1.503
 7906TIP3   OH223660   2.438   2.150   4.693
 7906TIP3    H123661   2.397   2.235   4.709
 7906TIP3    H223662   2.386   2.111   4.622
 7907TIP3   OH223663   8.135   7.417   4.874
 7907TIP3    H123664   8.184   7.419   4.792
 7907TIP3    H223665   8.043   7.422   4.848
 7908TIP3   OH223666   3.981   0.067   3.511
 7908TIP3    H123667   4.058   0.124   3.500
 7908TIP3    H223668   4.012  -0.006   3.565
 7909TIP3   OH223669   4.883   6.876   3.896
 7909TIP3    H123670   4.925   6.821   3.963
 7909TIP3    H223671   4.825   6.934   3.945
 7910TIP3   OH223672   1.329   1.079   6.101
 7910TIP3    H123673   1.396   1.076   6.169
 7910TIP3    H223674   1.302   1.171   6.098
 7911TIP3   OH223675   4.332   1.640   0.780
 7911TIP3    H123676   4.309   1.621   0.689
 7911TIP3    H223677   4.381   1.722   0.775
 7912TIP3   OH223678   5.740   5.703   6.486
 7912TIP3    H123679   5.832   5.683   6.472
 7912TIP3    H223680   5.736   5.799   6.487
 7913TIP3   OH223681   3.143   2.374   2.459
 7913TIP3    H123682   3.193   2.396   2.380
 7913TIP3    H223683   3.051   2.384   2.432
 7914TIP3   OH223684   3.346   0.397   5.586
 7914TIP3    H123685   3.330   0.449   5.664
 7914TIP3    H223686   3.356   0.307   5.619
 7915TIP3   OH223687   0.658   4.665   5.911
 7915TIP3    H123688   0.563   4.681   5.911
 7915TIP3    H223689   0.675   4.620   5.993
 7916TIP3   OH223690   4.579   0.797   6.561
 7916TIP3    H123691   4.654   0.738   6.552
 7916TIP3    H223692   4.503   0.741   6.544
 7917TIP3   OH223693   1.715   4.171   4.581
 7917TIP3    H123694   1.737   4.136   4.495
 7917TIP3    H223695   1.666   4.101   4.623
 7918TIP3   OH223696   2.030   6.279   2.108
 7918TIP3    H123697   2.124   6.270   2.095
 7918TIP3    H223698   2.021   6.343   2.178
 7919TIP3   OH223699   6.966   4.919   2.805
 7919TIP3    H123700   7.003   4.881   2.885
 7919TIP3    H223701   6.896   4.976   2.837
 7920TIP3   OH223702   7.691   4.269   2.019
 7920TIP3    H123703   7.631   4.332   2.058
 7920TIP3    H223704   7.679   4.279   1.924
 7921TIP3   OH223705   6.934   6.600   3.059
 7921TIP3    H123706   6.969   6.538   2.996
 7921TIP3    H223707   6.953   6.686   3.022
 7922TIP3   OH223708   1.525   0.217   5.972
 7922TIP3    H123709   1.612   0.225   6.012
 7922TIP3    H223710   1.473   0.286   6.014
 7923TIP3   OH223711   0.477   7.406   0.884
 7923TIP3    H123712   0.418   7.346   0.929
 7923TIP3    H223713   0.436   7.422   0.800
 7924TIP3   OH223714   5.277   2.250   1.615
 7924TIP3    H123715   5.258   2.312   1.686
 7924TIP3    H223716   5.206   2.263   1.552
 7925TIP3   OH223717   0.845   2.520   5.099
 7925TIP3    H123718   0.819   2.484   5.014
 7925TIP3    H223719   0.793   2.599   5.109
 7926TIP3   OH223720   3.213   4.019   1.665
 7926TIP3    H123721   3.153   4.026   1.739
 7926TIP3    H223722   3.234   3.926   1.661
 7927TIP3   OH223723   3.646   4.469   4.682
 7927TIP3    H123724   3.720   4.521   4.652
 7927TIP3    H223725   3.600   4.527   4.744
 7928TIP3   OH223726   4.042   2.468   3.697
 7928TIP3    H123727   4.083   2.385   3.674
 7928TIP3    H223728   3.982   2.485   3.624
 7929TIP3   OH223729   5.817   3.726   1.949
 7929TIP3    H123730   5.890   3.674   1.916
 7929TIP3    H223731   5.845   3.753   2.036
 7930TIP3   OH223732   5.288   0.337   1.079
 7930TIP3    H123733   5.307   0.262   1.023
 7930TIP3    H223734   5.369   0.352   1.128
 7931TIP3   OH223735   1.940   7.438   5.468
 7931TIP3    H123736   2.012   7.472   5.415
 7931TIP3    H223737   1.864   7.490   5.441
 7932TIP3   OH223738   1.329   5.510   3.556
 7932TIP3    H123739   1.253   5.456   3.576
 7932TIP3    H223740   1.400   5.470   3.606
 7933TIP3   OH223741   2.726   5.938   4.061
 7933TIP3    H123742   2.701   5.846   4.052
 7933TIP3    H223743   2.686   5.965   4.144
 7934TIP3   OH223744   6.764   1.447   6.697
 7934TIP3    H123745   6.827   1.515   6.720
 7934TIP3    H223746   6.816   1.378   6.657
 7935TIP3   OH223747   7.441   5.644   3.226
 7935TIP3    H123748   7.456   5.687   3.311
 7935TIP3    H223749   7.450   5.550   3.245
 7936TIP3   OH223750   1.111   6.152   6.738
 7936TIP3    H123751   1.100   6.093   6.663
 7936TIP3    H223752   1.204   6.175   6.736
 7937TIP3   OH223753   3.332   0.805   0.971
 7937TIP3    H123754   3.333   0.712   0.950
 7937TIP3    H223755   3.423   0.828   0.986
 7938TIP3   OH223756   3.418   0.161   3.122
 7938TIP3    H123757   3.404   0.206   3.039
 7938TIP3    H223758   3.353   0.090   3.122
 7939TIP3   OH223759   3.144   5.155   4.359
 7939TIP3    H123760   3.125   5.064   4.381
 7939TIP3    H223761   3.076   5.179   4.296
 7940TIP3   OH223762   8.057   0.192   2.621
 7940TIP3    H123763   8.043   0.280   2.586
 7940TIP3    H223764   8.017   0.195   2.708
 7941TIP3   OH223765   7.905   6.743   2.910
 7941TIP3    H123766   7.834   6.704   2.960
 7941TIP3    H223767   7.888   6.837   2.912
 7942TIP3   OH223768   5.777   3.706   6.001
 7942TIP3    H123769   5.825   3.785   5.977
 7942TIP3    H223770   5.831   3.665   6.069
 7943TIP3   OH223771   2.530   1.503   5.433
 7943TIP3    H123772   2.455   1.488   5.491
 7943TIP3    H223773   2.513   1.589   5.394
 7944TIP3   OH223774   6.884   2.856   1.056
 7944TIP3    H123775   6.805   2.819   1.015
 7944TIP3    H223776   6.903   2.796   1.128
 7945TIP3   OH223777   6.544   0.089   1.627
 7945TIP3    H123778   6.628   0.045   1.644
 7945TIP3    H223779   6.478   0.031   1.664
 7946TIP3   OH223780   1.089   0.087   2.694
 7946TIP3    H123781   1.045   0.126   2.618
 7946TIP3    H223782   1.162   0.039   2.656
 7947TIP3   OH223783   1.726   7.022   6.412
 7947TIP3    H123784   1.817   6.990   6.411
 7947TIP3    H223785   1.685   6.979   6.338
 7948TIP3   OH223786   1.347   1.056   3.015
 7948TIP3    H123787   1.374   1.144   2.991
 7948TIP3    H223788   1.259   1.047   2.978
 7949TIP3   OH223789   8.125   0.660   5.724
 7949TIP3    H123790   8.048   0.630   5.772
 7949TIP3    H223791   8.198   0.646   5.784
 7950TIP3   OH223792   7.099   4.182   3.312
 7950TIP3    H123793   7.058   4.119   3.253
 7950TIP3    H223794   7.192   4.177   3.292
 7951TIP3   OH223795   1.120   3.432   3.296
 7951TIP3    H123796   1.080   3.493   3.234
 7951TIP3    H223797   1.141   3.355   3.243
 7952TIP3   OH223798   3.613   7.534   5.270
 7952TIP3    H123799   3.562   7.560   5.194
 7952TIP3    H223800   3.559   7.560   5.345
 7953TIP3   OH223801   3.875   6.350   5.708
 7953TIP3    H123802   3.807   6.294   5.670
 7953TIP3    H223803   3.909   6.298   5.781
 7954TIP3   OH223804   2.479   6.534   1.697
 7954TIP3    H123805   2.523   6.587   1.763
 7954TIP3    H223806   2.413   6.485   1.745
 7955TIP3   OH223807   0.076   4.364   6.169
 7955TIP3    H123808   0.051   4.358   6.077
 7955TIP3    H223809   0.158   4.414   6.169
 7956TIP3   OH223810   3.060   4.999   0.932
 7956TIP3    H123811   2.965   4.992   0.927
 7956TIP3    H223812   3.080   4.990   1.026
 7957TIP3   OH223813   6.572   3.650   4.464
 7957TIP3    H123814   6.550   3.709   4.392
 7957TIP3    H223815   6.511   3.674   4.534
 7958TIP3   OH223816   0.407   6.995   4.259
 7958TIP3    H123817   0.405   6.908   4.220
 7958TIP3    H223818   0.448   6.982   4.345
 7959TIP3   OH223819   5.403   1.392   2.152
 7959TIP3    H123820   5.412   1.367   2.060
 7959TIP3    H223821   5.452   1.474   2.159
 7960TIP3   OH223822   2.809   1.118   0.862
 7960TIP3    H123823   2.776   1.044   0.914
 7960TIP3    H223824   2.757   1.192   0.892
 7961TIP3   OH223825   4.883   5.307   1.586
 7961TIP3    H123826   4.967   5.327   1.629
 7961TIP3    H223827   4.834   5.258   1.652
 7962TIP3   OH223828   7.379   6.721   2.094
 7962TIP3    H123829   7.376   6.727   1.999
 7962TIP3    H223830   7.444   6.653   2.112
 7963TIP3   OH223831   5.869   7.808   3.288
 7963TIP3    H123832   5.938   7.746   3.310
 7963TIP3    H223833   5.914   7.892   3.280
 7964TIP3   OH223834   1.528   0.294   3.469
 7964TIP3    H123835   1.441   0.317   3.435
 7964TIP3    H223836   1.522   0.200   3.485
 7965TIP3   OH223837   0.326   4.499   6.183
 7965TIP3    H123838   0.362   4.569   6.129
 7965TIP3    H223839   0.337   4.530   6.273
 7966TIP3   OH223840   2.632   5.137   1.722
 7966TIP3    H123841   2.687   5.059   1.717
 7966TIP3    H223842   2.683   5.205   1.678
 7967TIP3   OH223843   4.772   0.283   0.480
 7967TIP3    H123844   4.729   0.289   0.565
 7967TIP3    H223845   4.858   0.246   0.498
 7968TIP3   OH223846   1.704   5.158   3.792
 7968TIP3    H123847   1.618   5.134   3.759
 7968TIP3    H223848   1.704   5.127   3.883
 7969TIP3   OH223849   5.042   6.570   4.503
 7969TIP3    H123850   4.977   6.515   4.547
 7969TIP3    H223851   5.054   6.529   4.417
 7970TIP3   OH223852   0.761   3.251  -0.018
 7970TIP3    H123853   0.806   3.204   0.052
 7970TIP3    H223854   0.770   3.344   0.006
 7971TIP3   OH223855   1.347   0.158   4.403
 7971TIP3    H123856   1.421   0.116   4.361
 7971TIP3    H223857   1.288   0.086   4.425
 7972TIP3   OH223858   7.344   2.248   5.509
 7972TIP3    H123859   7.379   2.265   5.597
 7972TIP3    H223860   7.376   2.161   5.486
 7973TIP3   OH223861   0.484   7.040   0.926
 7973TIP3    H123862   0.452   7.105   0.863
 7973TIP3    H223863   0.413   6.975   0.930
 7974TIP3   OH223864   0.313   0.871   4.163
 7974TIP3    H123865   0.354   0.845   4.081
 7974TIP3    H223866   0.385   0.871   4.226
 7975TIP3   OH223867   5.611   4.064   6.287
 7975TIP3    H123868   5.538   4.124   6.274
 7975TIP3    H223869   5.592   3.989   6.231
 7976TIP3   OH223870   3.456   0.802   1.815
 7976TIP3    H123871   3.505   0.876   1.849
 7976TIP3    H223872   3.514   0.727   1.829
 7977TIP3   OH223873   5.907   4.252   5.190
 7977TIP3    H123874   5.857   4.334   5.188
 7977TIP3    H223875   5.998   4.279   5.187
 7978TIP3   OH223876   2.991   1.137   6.136
 7978TIP3    H123877   2.988   1.061   6.195
 7978TIP3    H223878   2.927   1.116   6.068
 7979TIP3   OH223879   2.829   2.283   6.334
 7979TIP3    H123880   2.870   2.239   6.259
 7979TIP3    H223881   2.739   2.300   6.307
 7980TIP3   OH223882   2.412   6.007   6.497
 7980TIP3    H123883   2.418   5.931   6.555
 7980TIP3    H223884   2.470   5.985   6.424
 7981TIP3   OH223885   5.934   4.629   0.808
 7981TIP3    H123886   5.998   4.575   0.760
 7981TIP3    H223887   5.946   4.717   0.772
 7982TIP3   OH223888   4.796   6.814   2.622
 7982TIP3    H123889   4.757   6.791   2.537
 7982TIP3    H223890   4.887   6.836   2.602
 7983TIP3   OH223891   5.857   7.373   3.465
 7983TIP3    H123892   5.923   7.441   3.481
 7983TIP3    H223893   5.847   7.371   3.370
 7984TIP3   OH223894   2.319   3.680   3.717
 7984TIP3    H123895   2.258   3.694   3.644
 7984TIP3    H223896   2.387   3.747   3.705
 7985TIP3   OH223897   0.825   0.910   1.658
 7985TIP3    H123898   0.885   0.859   1.604
 7985TIP3    H223899   0.848   0.888   1.748
 7986TIP3   OH223900   3.764   5.875   1.977
 7986TIP3    H123901   3.788   5.946   1.917
 7986TIP3    H223902   3.777   5.795   1.926
 7987TIP3   OH223903   4.465   4.985   2.689
 7987TIP3    H123904   4.429   4.939   2.765
 7987TIP3    H223905   4.405   4.963   2.617
 7988TIP3   OH223906   6.921   4.954   2.108
 7988TIP3    H123907   6.977   5.007   2.165
 7988TIP3    H223908   6.910   5.008   2.030
 7989TIP3   OH223909   7.884   0.365   6.207
 7989TIP3    H123910   7.873   0.341   6.299
 7989TIP3    H223911   7.960   0.314   6.178
 7990TIP3   OH223912   2.110   3.408   3.534
 7990TIP3    H123913   2.034   3.399   3.592
 7990TIP3    H223914   2.132   3.501   3.537
 7991TIP3   OH223915   6.651   4.657   1.508
 7991TIP3    H123916   6.690   4.718   1.571
 7991TIP3    H223917   6.604   4.713   1.446
 7992TIP3   OH223918   4.774   4.081   2.880
 7992TIP3    H123919   4.760   4.170   2.847
 7992TIP3    H223920   4.820   4.036   2.809
 7993TIP3   OH223921   3.139   0.042   1.118
 7993TIP3    H123922   3.051   0.075   1.101
 7993TIP3    H223923   3.156  -0.018   1.045
 7994TIP3   OH223924   1.393   5.571   4.985
 7994TIP3    H123925   1.299   5.581   4.973
 7994TIP3    H223926   1.404   5.481   5.016
 7995TIP3   OH223927   5.824   1.861   1.144
 7995TIP3    H123928   5.851   1.901   1.227
 7995TIP3    H223929   5.882   1.786   1.133
 7996TIP3   OH223930   5.337   3.676   3.070
 7996TIP3    H123931   5.321   3.623   2.992
 7996TIP3    H223932   5.250   3.691   3.108
 7997TIP3   OH223933   2.271   7.148   1.787
 7997TIP3    H123934   2.316   7.184   1.864
 7997TIP3    H223935   2.319   7.068   1.766
 7998TIP3   OH223936   0.370   4.816   2.659
 7998TIP3    H123937   0.383   4.856   2.745
 7998TIP3    H223938   0.425   4.738   2.660
 7999TIP3   OH223939   6.425   0.965   5.842
 7999TIP3    H123940   6.494   0.967   5.776
 7999TIP3    H223941   6.460   0.910   5.912
 8000TIP3   OH223942   4.388   6.638   3.496
 8000TIP3    H123943   4.407   6.545   3.484
 8000TIP3    H223944   4.459   6.669   3.552
 8001TIP3   OH223945   0.243   0.156   3.803
 8001TIP3    H123946   0.315   0.172   3.741
 8001TIP3    H223947   0.182   0.228   3.788
 8002TIP3   OH223948   2.267   3.145   0.114
 8002TIP3    H123949   2.265   3.198   0.194
 8002TIP3    H223950   2.356   3.109   0.112
 8003TIP3   OH223951   3.583   4.495   3.914
 8003TIP3    H123952   3.620   4.547   3.843
 8003TIP3    H223953   3.659   4.464   3.963
 8004TIP3   OH223954   5.353   4.591   1.456
 8004TIP3    H123955   5.281   4.653   1.444
 8004TIP3    H223956   5.389   4.581   1.368
 8005TIP3   OH223957   4.123   5.379   3.797
 8005TIP3    H123958   4.151   5.304   3.849
 8005TIP3    H223959   4.203   5.428   3.780
 8006TIP3   OH223960   0.908   0.147   1.993
 8006TIP3    H123961   0.954   0.229   2.012
 8006TIP3    H223962   0.976   0.080   1.994
 8007TIP3   OH223963   1.605   6.864   4.775
 8007TIP3    H123964   1.612   6.937   4.837
 8007TIP3    H223965   1.556   6.900   4.701
 8008TIP3   OH223966   3.856   3.877   1.069
 8008TIP3    H123967   3.762   3.866   1.052
 8008TIP3    H223968   3.869   3.842   1.157
 8009TIP3   OH223969   2.396   2.490   5.752
 8009TIP3    H123970   2.326   2.467   5.691
 8009TIP3    H223971   2.443   2.407   5.766
 8010TIP3   OH223972   7.818   0.337   4.865
 8010TIP3    H123973   7.754   0.269   4.884
 8010TIP3    H223974   7.859   0.356   4.949
 8011TIP3   OH223975   4.979   4.894   0.726
 8011TIP3    H123976   4.899   4.919   0.772
 8011TIP3    H223977   4.978   4.948   0.646
 8012TIP3   OH223978   7.173   3.853   6.665
 8012TIP3    H123979   7.089   3.896   6.650
 8012TIP3    H223980   7.229   3.886   6.595
 8013TIP3   OH223981   6.857   5.351   0.374
 8013TIP3    H123982   6.797   5.287   0.335
 8013TIP3    H223983   6.930   5.356   0.312
 8014TIP3   OH223984   0.222   3.143   6.711
 8014TIP3    H123985   0.230   3.232   6.747
 8014TIP3    H223986   0.312   3.109   6.711
 8015TIP3   OH223987   7.504   0.940   4.097
 8015TIP3    H123988   7.414   0.909   4.105
 8015TIP3    H223989   7.496   1.032   4.071
 8016TIP3   OH223990   5.573   6.004   5.562
 8016TIP3    H123991   5.655   5.993   5.514
 8016TIP3    H223992   5.561   6.099   5.568
 8017TIP3   OH223993   1.177   1.068   0.756
 8017TIP3    H123994   1.090   1.079   0.720
 8017TIP3    H223995   1.231   1.134   0.711
 8018TIP3   OH223996   7.087   1.913   4.710
 8018TIP3    H123997   7.036   1.872   4.640
 8018TIP3    H223998   7.174   1.925   4.673
 8019TIP3   OH223999   6.502   0.263   4.350
 8019TIP3    H124000   6.593   0.291   4.353
 8019TIP3    H224001   6.473   0.265   4.441
 8020TIP3   OH224002   7.320   4.841   3.824
 8020TIP3    H124003   7.298   4.877   3.738
 8020TIP3    H224004   7.258   4.769   3.836
 8021TIP3   OH224005   1.093   5.777   2.317
 8021TIP3    H124006   1.149   5.782   2.240
 8021TIP3    H224007   1.022   5.839   2.299
 8022TIP3   OH224008   8.111   1.361   2.950
 8022TIP3    H124009   8.143   1.275   2.922
 8022TIP3    H224010   8.059   1.343   3.028
 8023TIP3   OH224011   1.823   7.758   1.656
 8023TIP3    H124012   1.911   7.773   1.690
 8023TIP3    H224013   1.829   7.674   1.611
 8024TIP3   OH224014   1.252   3.924   6.365
 8024TIP3    H124015   1.288   3.942   6.452
 8024TIP3    H224016   1.301   3.849   6.333
 8025TIP3   OH224017   3.724   2.788   5.473
 8025TIP3    H124018   3.810   2.826   5.492
 8025TIP3    H224019   3.739   2.732   5.397
 8026TIP3   OH224020   2.266   2.721   3.023
 8026TIP3    H124021   2.198   2.669   2.980
 8026TIP3    H224022   2.233   2.735   3.112
 8027TIP3   OH224023   2.310   4.755   5.286
 8027TIP3    H124024   2.398   4.727   5.312
 8027TIP3    H224025   2.290   4.829   5.343
 8028TIP3   OH224026   1.979   2.154   5.488
 8028TIP3    H124027   1.889   2.126   5.507
 8028TIP3    H224028   1.998   2.220   5.555
 8029TIP3   OH224029   2.278   4.396   4.473
 8029TIP3    H124030   2.216   4.365   4.538
 8029TIP3    H224031   2.361   4.356   4.499
 8030TIP3   OH224032   4.438   6.660   2.318
 8030TIP3    H124033   4.383   6.645   2.395
 8030TIP3    H224034   4.492   6.581   2.312
 8031TIP3   OH224035   6.715   7.280   4.106
 8031TIP3    H124036   6.677   7.352   4.056
 8031TIP3    H224037   6.658   7.205   4.087
 8032TIP3   OH224038   1.403   7.206   4.881
 8032TIP3    H124039   1.313   7.199   4.848
 8032TIP3    H224040   1.400   7.278   4.944
 8033TIP3   OH224041   0.986   4.286   6.416
 8033TIP3    H124042   1.068   4.310   6.458
 8033TIP3    H224043   0.990   4.328   6.330
 8034TIP3   OH224044   7.875   5.118   0.068
 8034TIP3    H124045   7.901   5.037   0.113
 8034TIP3    H224046   7.837   5.172   0.137
 8035TIP3   OH224047   5.941   1.692   0.386
 8035TIP3    H124048   6.017   1.641   0.357
 8035TIP3    H224049   5.975   1.781   0.398
 8036TIP3   OH224050   4.764   7.778   5.524
 8036TIP3    H124051   4.820   7.701   5.537
 8036TIP3    H224052   4.696   7.749   5.464
 8037TIP3   OH224053   2.439   1.448   6.202
 8037TIP3    H124054   2.369   1.491   6.250
 8037TIP3    H224055   2.458   1.369   6.253
 8038TIP3   OH224056   5.395   0.242   4.736
 8038TIP3    H124057   5.322   0.271   4.681
 8038TIP3    H224058   5.397   0.147   4.725
 8039TIP3   OH224059   3.175   5.312   2.095
 8039TIP3    H124060   3.131   5.349   2.018
 8039TIP3    H224061   3.105   5.273   2.147
 8040TIP3   OH224062   4.650   4.777   2.066
 8040TIP3    H124063   4.603   4.785   2.149
 8040TIP3    H224064   4.620   4.694   2.029
 8041TIP3   OH224065   5.719   5.205   2.186
 8041TIP3    H124066   5.693   5.132   2.130
 8041TIP3    H224067   5.646   5.215   2.247
 8042TIP3   OH224068   6.834   3.872   1.628
 8042TIP3    H124069   6.883   3.811   1.683
 8042TIP3    H224070   6.764   3.904   1.684
 8043TIP3   OH224071   2.734   4.094   5.713
 8043TIP3    H124072   2.753   4.125   5.802
 8043TIP3    H224073   2.640   4.076   5.714
 8044TIP3   OH224074   0.554   6.703   1.401
 8044TIP3    H124075   0.486   6.637   1.389
 8044TIP3    H224076   0.549   6.725   1.494
 8045TIP3   OH224077   4.314   4.464   3.504
 8045TIP3    H124078   4.317   4.545   3.556
 8045TIP3    H224079   4.400   4.459   3.463
 8046TIP3   OH224080   4.173   2.983   6.544
 8046TIP3    H124081   4.103   2.941   6.494
 8046TIP3    H224082   4.127   3.040   6.605
 8047TIP3   OH224083   5.033   7.327   6.191
 8047TIP3    H124084   5.090   7.397   6.160
 8047TIP3    H224085   5.092   7.254   6.211
 8048TIP3   OH224086   0.005   4.423   5.268
 8048TIP3    H124087   0.037   4.456   5.185
 8048TIP3    H224088   0.068   4.455   5.333
 8049TIP3   OH224089   4.820   1.891   5.728
 8049TIP3    H124090   4.850   1.821   5.671
 8049TIP3    H224091   4.872   1.881   5.808
 8050TIP3   OH224092   8.107   5.301   6.225
 8050TIP3    H124093   8.179   5.254   6.183
 8050TIP3    H224094   8.030   5.247   6.208
 8051TIP3   OH224095   4.850   1.946   4.400
 8051TIP3    H124096   4.831   1.852   4.390
 8051TIP3    H224097   4.807   1.986   4.325
 8052TIP3   OH224098   6.700   0.026   0.402
 8052TIP3    H124099   6.768   0.064   0.458
 8052TIP3    H224100   6.623   0.023   0.458
 8053TIP3   OH224101   7.232   4.359   5.589
 8053TIP3    H124102   7.295   4.368   5.517
 8053TIP3    H224103   7.286   4.356   5.668
 8054TIP3   OH224104   1.166   2.073   0.575
 8054TIP3    H124105   1.076   2.106   0.569
 8054TIP3    H224106   1.196   2.102   0.661
 8055TIP3   OH224107   1.815   0.290   3.652
 8055TIP3    H124108   1.815   0.366   3.710
 8055TIP3    H224109   1.838   0.326   3.566
 8056TIP3   OH224110   4.083   7.044   3.524
 8056TIP3    H124111   4.009   6.986   3.546
 8056TIP3    H224112   4.106   7.085   3.607
 8057TIP3   OH224113   1.000   5.365   5.327
 8057TIP3    H124114   1.048   5.365   5.244
 8057TIP3    H224115   0.939   5.292   5.320
 8058TIP3   OH224116   5.680   0.966   2.453
 8058TIP3    H124117   5.606   1.002   2.502
 8058TIP3    H224118   5.730   1.043   2.427
 8059TIP3   OH224119   4.520   4.004   2.089
 8059TIP3    H124120   4.427   3.984   2.083
 8059TIP3    H224121   4.526   4.097   2.064
 8060TIP3   OH224122   7.869   3.940   1.829
 8060TIP3    H124123   7.824   3.999   1.889
 8060TIP3    H224124   7.917   3.998   1.770
 8061TIP3   OH224125   2.755   7.523   5.626
 8061TIP3    H124126   2.725   7.561   5.543
 8061TIP3    H224127   2.720   7.581   5.693
 8062TIP3   OH224128   0.167   1.332   0.210
 8062TIP3    H124129   0.143   1.302   0.298
 8062TIP3    H224130   0.172   1.428   0.218
 8063TIP3   OH224131  -0.009   6.936   3.849
 8063TIP3    H124132  -0.048   6.979   3.925
 8063TIP3    H224133   0.058   6.998   3.818
 8064TIP3   OH224134   3.367   7.258   0.033
 8064TIP3    H124135   3.294   7.206   0.001
 8064TIP3    H224136   3.385   7.223   0.121
 8065TIP3   OH224137   7.289   2.558   4.929
 8065TIP3    H124138   7.319   2.599   4.848
 8065TIP3    H224139   7.229   2.489   4.899
 8066TIP3   OH224140   4.240   5.654   2.865
 8066TIP3    H124141   4.147   5.647   2.844
 8066TIP3    H224142   4.244   5.645   2.960
 8067TIP3   OH224143   4.785   2.679   0.750
 8067TIP3    H124144   4.871   2.705   0.784
 8067TIP3    H224145   4.737   2.650   0.827
 8068TIP3   OH224146   6.043   5.112   6.214
 8068TIP3    H124147   6.021   5.047   6.281
 8068TIP3    H224148   6.115   5.163   6.253
 8069TIP3   OH224149   1.396   0.100   3.787
 8069TIP3    H124150   1.307   0.121   3.817
 8069TIP3    H224151   1.445   0.181   3.799
 8070TIP3   OH224152   2.197   0.903   4.953
 8070TIP3    H124153   2.232   0.897   5.041
 8070TIP3    H224154   2.263   0.953   4.904
 8071TIP3   OH224155   5.053   6.593   2.080
 8071TIP3    H124156   5.128   6.535   2.063
 8071TIP3    H224157   4.985   6.561   2.021
 8072TIP3   OH224158   6.012   4.797   1.808
 8072TIP3    H124159   5.978   4.714   1.772
 8072TIP3    H224160   6.073   4.770   1.876
 8073TIP3   OH224161   2.398   0.233   3.721
 8073TIP3    H124162   2.408   0.159   3.662
 8073TIP3    H224163   2.438   0.307   3.675
 8074TIP3   OH224164   0.967   7.356   2.596
 8074TIP3    H124165   1.000   7.316   2.516
 8074TIP3    H224166   0.879   7.320   2.607
 8075TIP3   OH224167   2.614   6.226   6.531
 8075TIP3    H124168   2.528   6.231   6.573
 8075TIP3    H224169   2.660   6.304   6.561
 8076TIP3   OH224170   4.562   3.680   2.531
 8076TIP3    H124171   4.647   3.690   2.487
 8076TIP3    H224172   4.581   3.699   2.623
 8077TIP3   OH224173   2.853   3.733   5.724
 8077TIP3    H124174   2.881   3.642   5.734
 8077TIP3    H224175   2.891   3.778   5.799
 8078TIP3   OH224176   3.357   4.201   0.237
 8078TIP3    H124177   3.436   4.237   0.276
 8078TIP3    H224178   3.292   4.202   0.307
 8079TIP3   OH224179   6.035   4.020   6.529
 8079TIP3    H124180   6.106   4.079   6.551
 8079TIP3    H224181   5.997   4.055   6.448
 8080TIP3   OH224182   3.479   4.733   0.533
 8080TIP3    H124183   3.458   4.772   0.618
 8080TIP3    H224184   3.436   4.648   0.534
 8081TIP3   OH224185   6.425   4.037   4.782
 8081TIP3    H124186   6.484   4.112   4.775
 8081TIP3    H224187   6.345   4.064   4.736
 8082TIP3   OH224188   7.121   5.945   4.689
 8082TIP3    H124189   7.075   6.012   4.638
 8082TIP3    H224190   7.214   5.969   4.682
 8083TIP3   OH224191   1.176   6.048   0.657
 8083TIP3    H124192   1.134   6.133   0.643
 8083TIP3    H224193   1.197   6.046   0.750
 8084TIP3   OH224194   6.952   3.480   6.605
 8084TIP3    H124195   6.945   3.433   6.688
 8084TIP3    H224196   6.951   3.412   6.538
 8085TIP3   OH224197   7.503   7.249   5.514
 8085TIP3    H124198   7.523   7.220   5.425
 8085TIP3    H224199   7.423   7.200   5.537
 8086TIP3   OH224200   0.280   0.787   1.210
 8086TIP3    H124201   0.357   0.830   1.175
 8086TIP3    H224202   0.314   0.722   1.271
 8087TIP3   OH224203   3.374   5.665   5.852
 8087TIP3    H124204   3.373   5.758   5.828
 8087TIP3    H224205   3.451   5.656   5.908
 8088TIP3   OH224206   7.386   7.028   1.636
 8088TIP3    H124207   7.315   6.969   1.611
 8088TIP3    H224208   7.350   7.116   1.620
 8089TIP3   OH224209   2.497   1.727   6.100
 8089TIP3    H124210   2.561   1.660   6.080
 8089TIP3    H224211   2.536   1.777   6.172
 8090TIP3   OH224212   6.740   0.539   5.621
 8090TIP3    H124213   6.654   0.572   5.596
 8090TIP3    H224214   6.784   0.613   5.661
 8091TIP3   OH224215   6.683   6.525   0.561
 8091TIP3    H124216   6.683   6.483   0.475
 8091TIP3    H224217   6.636   6.463   0.618
 8092TIP3   OH224218   2.512   3.914   2.674
 8092TIP3    H124219   2.572   3.988   2.685
 8092TIP3    H224220   2.431   3.953   2.642
 8093TIP3   OH224221   5.765   0.115   1.486
 8093TIP3    H124222   5.696   0.088   1.547
 8093TIP3    H224223   5.788   0.035   1.439
 8094TIP3   OH224224   6.175   5.554   6.390
 8094TIP3    H124225   6.114   5.623   6.418
 8094TIP3    H224226   6.120   5.477   6.377
 8095TIP3   OH224227   7.985   4.823   6.390
 8095TIP3    H124228   8.053   4.833   6.457
 8095TIP3    H224229   8.028   4.848   6.309
 8096TIP3   OH224230   1.231   6.825   1.358
 8096TIP3    H124231   1.327   6.828   1.363
 8096TIP3    H224232   1.207   6.752   1.415
 8097TIP3   OH224233   2.152   0.812   4.478
 8097TIP3    H124234   2.145   0.901   4.444
 8097TIP3    H224235   2.189   0.762   4.405
 8098TIP3   OH224236   0.342   6.955   6.211
 8098TIP3    H124237   0.315   7.025   6.271
 8098TIP3    H224238   0.267   6.895   6.209
 8099TIP3   OH224239   3.342   5.070   6.445
 8099TIP3    H124240   3.312   5.119   6.521
 8099TIP3    H224241   3.358   4.982   6.478
 8100TIP3   OH224242   1.644   3.102   3.970
 8100TIP3    H124243   1.566   3.047   3.978
 8100TIP3    H224244   1.717   3.041   3.975
 8101TIP3   OH224245   7.587   0.120   0.900
 8101TIP3    H124246   7.570   0.087   0.812
 8101TIP3    H224247   7.651   0.191   0.886
 8102TIP3   OH224248   2.016   1.814   3.399
 8102TIP3    H124249   2.051   1.725   3.402
 8102TIP3    H224250   2.018   1.838   3.307
 8103TIP3   OH224251   5.714   5.035   0.971
 8103TIP3    H124252   5.791   5.092   0.971
 8103TIP3    H224253   5.648   5.084   1.020
 8104TIP3   OH224254   6.738   5.623   4.919
 8104TIP3    H124255   6.657   5.575   4.901
 8104TIP3    H224256   6.735   5.698   4.859
 8105TIP3   OH224257   4.128   4.573   2.722
 8105TIP3    H124258   4.153   4.497   2.669
 8105TIP3    H224259   4.040   4.553   2.753
 8106TIP3   OH224260   6.048   7.657   3.618
 8106TIP3    H124261   6.052   7.649   3.523
 8106TIP3    H224262   6.003   7.739   3.634
 8107TIP3   OH224263   6.246   6.181   0.569
 8107TIP3    H124264   6.155   6.201   0.545
 8107TIP3    H224265   6.295   6.191   0.487
 8108TIP3   OH224266   2.374   2.772   2.538
 8108TIP3    H124267   2.287   2.777   2.498
 8108TIP3    H224268   2.368   2.828   2.615
 8109TIP3   OH224269   1.103   0.197   4.069
 8109TIP3    H124270   1.024   0.243   4.096
 8109TIP3    H224271   1.175   0.246   4.109
 8110TIP3   OH224272   4.392   1.120   1.831
 8110TIP3    H124273   4.386   1.040   1.780
 8110TIP3    H224274   4.302   1.151   1.840
 8111TIP3   OH224275   7.917   3.035   1.864
 8111TIP3    H124276   7.850   3.023   1.798
 8111TIP3    H224277   7.875   3.010   1.946
 8112TIP3   OH224278   8.310   1.617   5.314
 8112TIP3    H124279   8.221   1.613   5.348
 8112TIP3    H224280   8.362   1.568   5.378
 8113TIP3   OH224281   6.926   3.631   2.763
 8113TIP3    H124282   6.877   3.550   2.752
 8113TIP3    H224283   6.859   3.699   2.767
 8114TIP3   OH224284   6.676   5.585   3.556
 8114TIP3    H124285   6.695   5.498   3.589
 8114TIP3    H224286   6.699   5.582   3.463
 8115TIP3   OH224287   2.196   2.228   2.347
 8115TIP3    H124288   2.259   2.253   2.415
 8115TIP3    H224289   2.249   2.184   2.280
 8116TIP3   OH224290   6.061   7.305   6.362
 8116TIP3    H124291   6.093   7.278   6.276
 8116TIP3    H224292   6.123   7.372   6.391
 8117TIP3   OH224293   7.425   4.971   0.548
 8117TIP3    H124294   7.503   4.943   0.595
 8117TIP3    H224295   7.424   4.916   0.469
 8118TIP3   OH224296   5.775   0.668   2.872
 8118TIP3    H124297   5.861   0.634   2.847
 8118TIP3    H224298   5.719   0.591   2.874
 8119TIP3   OH224299   5.281   3.304   5.779
 8119TIP3    H124300   5.244   3.256   5.705
 8119TIP3    H224301   5.364   3.339   5.746
 8120TIP3   OH224302   6.873   6.560   0.087
 8120TIP3    H124303   6.935   6.579   0.016
 8120TIP3    H224304   6.899   6.619   0.157
 8121TIP3   OH224305   0.135   4.834   0.861
 8121TIP3    H124306   0.057   4.810   0.811
 8121TIP3    H224307   0.207   4.821   0.799
 8122TIP3   OH224308   1.277   2.041   1.845
 8122TIP3    H124309   1.261   1.947   1.844
 8122TIP3    H224310   1.243   2.072   1.761
 8123TIP3   OH224311   8.001   4.447   5.214
 8123TIP3    H124312   8.017   4.475   5.124
 8123TIP3    H224313   8.086   4.455   5.257
 8124TIP3   OH224314   5.098   5.740   4.816
 8124TIP3    H124315   5.060   5.667   4.767
 8124TIP3    H224316   5.191   5.738   4.793
 8125TIP3   OH224317   4.471   5.259   5.265
 8125TIP3    H124318   4.492   5.201   5.191
 8125TIP3    H224319   4.375   5.258   5.270
 8126TIP3   OH224320   2.623   3.176   2.900
 8126TIP3    H124321   2.691   3.134   2.952
 8126TIP3    H224322   2.658   3.175   2.810
 8127TIP3   OH224323   7.086   7.447   0.457
 8127TIP3    H124324   7.129   7.530   0.479
 8127TIP3    H224325   6.993   7.463   0.476
 8128TIP3   OH224326   1.324   1.566   5.488
 8128TIP3    H124327   1.359   1.494   5.541
 8128TIP3    H224328   1.391   1.582   5.422
 8129TIP3   OH224329   6.983   7.410   3.945
 8129TIP3    H124330   7.028   7.447   4.020
 8129TIP3    H224331   6.988   7.478   3.878
 8130TIP3   OH224332   3.830   6.904   6.308
 8130TIP3    H124333   3.854   6.853   6.385
 8130TIP3    H224334   3.739   6.882   6.291
 8131TIP3   OH224335   0.966   5.344   6.591
 8131TIP3    H124336   0.916   5.425   6.583
 8131TIP3    H224337   0.915   5.289   6.651
 8132TIP3   OH224338   1.998   2.212   1.492
 8132TIP3    H124339   2.064   2.278   1.471
 8132TIP3    H224340   2.039   2.128   1.469
 8133TIP3   OH224341   3.496   3.928   3.062
 8133TIP3    H124342   3.485   4.017   3.097
 8133TIP3    H224343   3.412   3.909   3.019
 8134TIP3   OH224344   5.756   5.411   0.204
 8134TIP3    H124345   5.845   5.426   0.235
 8134TIP3    H224346   5.701   5.466   0.261
 8135TIP3   OH224347   6.528   2.084   1.674
 8135TIP3    H124348   6.601   2.105   1.732
 8135TIP3    H224349   6.458   2.055   1.733
 8136TIP3   OH224350   5.311   0.309   4.994
 8136TIP3    H124351   5.355   0.229   4.966
 8136TIP3    H224352   5.373   0.379   4.972
 8137TIP3   OH224353   5.876   3.488   3.334
 8137TIP3    H124354   5.866   3.393   3.334
 8137TIP3    H224355   5.808   3.520   3.275
 8138TIP3   OH224356   2.010   3.986   5.237
 8138TIP3    H124357   2.018   3.944   5.323
 8138TIP3    H224358   2.003   4.079   5.257
 8139TIP3   OH224359   6.829   0.267   5.414
 8139TIP3    H124360   6.878   0.339   5.453
 8139TIP3    H224361   6.878   0.244   5.335
 8140TIP3   OH224362   7.970   5.369   3.732
 8140TIP3    H124363   7.966   5.274   3.723
 8140TIP3    H224364   7.911   5.402   3.664
 8141TIP3   OH224365   4.352   7.463   6.466
 8141TIP3    H124366   4.329   7.395   6.404
 8141TIP3    H224367   4.269   7.506   6.487
 8142TIP3   OH224368   2.326   0.672   3.730
 8142TIP3    H124369   2.332   0.613   3.654
 8142TIP3    H224370   2.368   0.753   3.700
 8143TIP3   OH224371   3.347   2.738   3.002
 8143TIP3    H124372   3.435   2.768   3.020
 8143TIP3    H224373   3.306   2.810   2.954
 8144TIP3   OH224374   5.399   6.853   4.493
 8144TIP3    H124375   5.317   6.848   4.542
 8144TIP3    H224376   5.377   6.905   4.415
 8145TIP3   OH224377   5.758   3.667   3.122
 8145TIP3    H124378   5.700   3.711   3.061
 8145TIP3    H224379   5.796   3.595   3.072
 8146TIP3   OH224380   3.455   7.716   6.134
 8146TIP3    H124381   3.502   7.643   6.095
 8146TIP3    H224382   3.386   7.675   6.186
 8147TIP3   OH224383   4.924   5.359   3.270
 8147TIP3    H124384   4.829   5.367   3.276
 8147TIP3    H224385   4.940   5.267   3.251
 8148TIP3   OH224386   0.310   6.499   2.884
 8148TIP3    H124387   0.401   6.517   2.858
 8148TIP3    H224388   0.310   6.405   2.904
 8149TIP3   OH224389   0.406   4.369   1.650
 8149TIP3    H124390   0.475   4.323   1.603
 8149TIP3    H224391   0.329   4.312   1.641
 8150TIP3   OH224392   4.656   1.289   5.824
 8150TIP3    H124393   4.690   1.365   5.872
 8150TIP3    H224394   4.678   1.214   5.879
 8151TIP3   OH224395   5.965   1.418   2.084
 8151TIP3    H124396   5.876   1.383   2.083
 8151TIP3    H224397   5.990   1.423   1.992
 8152TIP3   OH224398   0.786   3.966   0.183
 8152TIP3    H124399   0.777   3.989   0.090
 8152TIP3    H224400   0.846   4.032   0.219
 8153TIP3   OH224401   8.123   5.819   2.678
 8153TIP3    H124402   8.144   5.765   2.602
 8153TIP3    H224403   8.038   5.858   2.657
 8154TIP3   OH224404   4.676   3.543   0.858
 8154TIP3    H124405   4.730   3.571   0.932
 8154TIP3    H224406   4.618   3.618   0.842
 8155TIP3   OH224407   6.413   1.952   6.569
 8155TIP3    H124408   6.319   1.965   6.560
 8155TIP3    H224409   6.446   2.033   6.608
 8156TIP3   OH224410   2.987   5.754   3.098
 8156TIP3    H124411   3.075   5.791   3.103
 8156TIP3    H224412   2.929   5.829   3.113
 8157TIP3   OH224413   7.557   7.447   0.229
 8157TIP3    H124414   7.480   7.502   0.240
 8157TIP3    H224415   7.631   7.505   0.248
 8158TIP3   OH224416   2.841   1.408   0.526
 8158TIP3    H124417   2.853   1.466   0.601
 8158TIP3    H224418   2.847   1.320   0.563
 8159TIP3   OH224419   1.292   5.503   3.263
 8159TIP3    H124420   1.362   5.443   3.291
 8159TIP3    H224421   1.297   5.576   3.324
 8160TIP3   OH224422   2.691   5.684   2.301
 8160TIP3    H124423   2.602   5.649   2.291
 8160TIP3    H224424   2.683   5.752   2.367
 8161TIP3   OH224425   3.470   0.886   5.601
 8161TIP3    H124426   3.375   0.894   5.591
 8161TIP3    H224427   3.489   0.794   5.581
 8162TIP3   OH224428   5.725   0.222   1.870
 8162TIP3    H124429   5.664   0.265   1.810
 8162TIP3    H224430   5.812   0.244   1.836
 8163TIP3   OH224431   7.680   0.159   4.984
 8163TIP3    H124432   7.596   0.113   4.990
 8163TIP3    H224433   7.744   0.098   5.019
 8164TIP3   OH224434   7.959   4.914   0.228
 8164TIP3    H124435   7.956   4.961   0.312
 8164TIP3    H224436   7.921   4.828   0.247
 8165TIP3   OH224437   6.858   7.668   2.973
 8165TIP3    H124438   6.801   7.658   3.049
 8165TIP3    H224439   6.919   7.594   2.977
 8166TIP3   OH224440   5.885   2.384   5.879
 8166TIP3    H124441   5.881   2.294   5.849
 8166TIP3    H224442   5.960   2.386   5.939
 8167TIP3   OH224443   4.250   7.012   6.052
 8167TIP3    H124444   4.304   7.033   6.128
 8167TIP3    H224445   4.293   6.938   6.011
 8168TIP3   OH224446   5.315   1.073   3.387
 8168TIP3    H124447   5.313   1.127   3.466
 8168TIP3    H224448   5.230   1.088   3.345
 8169TIP3   OH224449   1.557   5.163   5.651
 8169TIP3    H124450   1.577   5.076   5.617
 8169TIP3    H224451   1.591   5.223   5.584
 8170TIP3   OH224452   5.600   5.928   3.575
 8170TIP3    H124453   5.611   5.878   3.494
 8170TIP3    H224454   5.517   5.974   3.563
 8171TIP3   OH224455   0.420   1.883   1.476
 8171TIP3    H124456   0.417   1.965   1.524
 8171TIP3    H224457   0.368   1.822   1.529
 8172TIP3   OH224458   6.932   4.080   5.448
 8172TIP3    H124459   6.897   3.993   5.468
 8172TIP3    H224460   6.976   4.069   5.363
 8173TIP3   OH224461   3.326   7.343   2.633
 8173TIP3    H124462   3.261   7.274   2.648
 8173TIP3    H224463   3.372   7.350   2.716
 8174TIP3   OH224464   6.636   7.221   6.370
 8174TIP3    H124465   6.637   7.317   6.370
 8174TIP3    H224466   6.690   7.197   6.445
 8175TIP3   OH224467   6.526   4.542   6.538
 8175TIP3    H124468   6.563   4.456   6.558
 8175TIP3    H224469   6.537   4.552   6.444
 8176TIP3   OH224470   6.976   3.712   5.083
 8176TIP3    H124471   6.964   3.619   5.066
 8176TIP3    H224472   6.983   3.752   4.996
 8177TIP3   OH224473   0.694   7.280   5.590
 8177TIP3    H124474   0.750   7.350   5.556
 8177TIP3    H224475   0.689   7.297   5.684
 8178TIP3   OH224476   8.019   0.398   2.172
 8178TIP3    H124477   7.973   0.347   2.105
 8178TIP3    H224478   7.980   0.369   2.255
 8179TIP3   OH224479   5.961   4.849   5.174
 8179TIP3    H124480   5.988   4.809   5.092
 8179TIP3    H224481   5.926   4.935   5.148
 8180TIP3   OH224482   1.171   5.282   0.970
 8180TIP3    H124483   1.237   5.302   1.036
 8180TIP3    H224484   1.184   5.348   0.903
 8181TIP3   OH224485   4.894   4.634   1.509
 8181TIP3    H124486   4.902   4.598   1.598
 8181TIP3    H224487   4.914   4.561   1.451
 8182TIP3   OH224488   4.380   3.389   6.049
 8182TIP3    H124489   4.380   3.294   6.057
 8182TIP3    H224490   4.473   3.412   6.045
 8183TIP3   OH224491   3.504   1.622   0.280
 8183TIP3    H124492   3.565   1.654   0.214
 8183TIP3    H224493   3.419   1.620   0.236
 8184TIP3   OH224494   3.130   5.411   6.185
 8184TIP3    H124495   3.193   5.432   6.116
 8184TIP3    H224496   3.091   5.495   6.209
 8185TIP3   OH224497   3.315   1.218   5.529
 8185TIP3    H124498   3.274   1.134   5.507
 8185TIP3    H224499   3.308   1.223   5.625
 8186TIP3   OH224500   2.990   6.119   1.470
 8186TIP3    H124501   2.982   6.171   1.550
 8186TIP3    H224502   3.056   6.053   1.490
 8187TIP3   OH224503   0.185   5.475   6.207
 8187TIP3    H124504   0.270   5.449   6.174
 8187TIP3    H224505   0.168   5.559   6.165
 8188TIP3   OH224506   1.252   5.393   4.477
 8188TIP3    H124507   1.169   5.371   4.435
 8188TIP3    H224508   1.235   5.477   4.522
 8189TIP3   OH224509   8.255   3.613   0.598
 8189TIP3    H124510   8.296   3.699   0.600
 8189TIP3    H224511   8.172   3.627   0.553
 8190TIP3   OH224512   5.416   0.856   1.972
 8190TIP3    H124513   5.457   0.782   2.017
 8190TIP3    H224514   5.344   0.881   2.029
 8191TIP3   OH224515   1.109   6.562   5.927
 8191TIP3    H124516   1.193   6.566   5.973
 8191TIP3    H224517   1.130   6.523   5.842
 8192TIP3   OH224518   5.554   0.448   2.864
 8192TIP3    H124519   5.517   0.458   2.776
 8192TIP3    H224520   5.496   0.387   2.909
 8193TIP3   OH224521   0.086   3.309   3.319
 8193TIP3    H124522   0.060   3.217   3.321
 8193TIP3    H224523   0.005   3.356   3.298
 8194TIP3   OH224524   6.604   2.383   3.368
 8194TIP3    H124525   6.539   2.331   3.322
 8194TIP3    H224526   6.687   2.363   3.324
 8195TIP3   OH224527   3.017   2.960   0.705
 8195TIP3    H124528   2.933   2.935   0.744
 8195TIP3    H224529   3.048   3.033   0.758
 8196TIP3   OH224530   1.983   2.654   4.078
 8196TIP3    H124531   2.017   2.614   4.158
 8196TIP3    H224532   2.058   2.701   4.041
 8197TIP3   OH224533   2.229   1.730   6.093
 8197TIP3    H124534   2.200   1.684   6.014
 8197TIP3    H224535   2.324   1.718   6.095
 8198TIP3   OH224536   0.557   6.749   2.942
 8198TIP3    H124537   0.571   6.745   2.848
 8198TIP3    H224538   0.616   6.818   2.972
 8199TIP3   OH224539   4.079   3.354   4.376
 8199TIP3    H124540   4.091   3.437   4.330
 8199TIP3    H224541   3.986   3.333   4.365
 8200TIP3   OH224542   4.631   0.759   3.469
 8200TIP3    H124543   4.662   0.668   3.470
 8200TIP3    H224544   4.544   0.755   3.508
 8201TIP3   OH224545   1.219   7.528   0.951
 8201TIP3    H124546   1.291   7.547   0.890
 8201TIP3    H224547   1.211   7.608   1.003
 8202TIP3   OH224548   4.921   0.505   5.277
 8202TIP3    H124549   4.884   0.439   5.218
 8202TIP3    H224550   4.898   0.474   5.364
 8203TIP3   OH224551   7.717   4.967   5.300
 8203TIP3    H124552   7.777   4.894   5.314
 8203TIP3    H224553   7.727   5.021   5.378
 8204TIP3   OH224554   6.064   4.979   3.540
 8204TIP3    H124555   6.131   4.980   3.471
 8204TIP3    H224556   5.982   4.994   3.494
 8205TIP3   OH224557   2.170   3.422   2.893
 8205TIP3    H124558   2.228   3.381   2.956
 8205TIP3    H224559   2.083   3.416   2.933
 8206TIP3   OH224560   4.814   7.199   1.894
 8206TIP3    H124561   4.836   7.282   1.937
 8206TIP3    H224562   4.893   7.146   1.902
 8207TIP3   OH224563   0.160   1.669   4.646
 8207TIP3    H124564   0.164   1.592   4.589
 8207TIP3    H224565   0.067   1.694   4.646
 8208TIP3   OH224566   2.761   4.668   1.071
 8208TIP3    H124567   2.782   4.579   1.045
 8208TIP3    H224568   2.702   4.700   1.003
 8209TIP3   OH224569   7.664   3.144   0.043
 8209TIP3    H124570   7.591   3.096   0.006
 8209TIP3    H224571   7.624   3.204   0.106
 8210TIP3   OH224572   2.024   0.689   0.539
 8210TIP3    H124573   2.101   0.641   0.510
 8210TIP3    H224574   1.982   0.719   0.459
 8211TIP3   OH224575   3.485   6.810   4.256
 8211TIP3    H124576   3.538   6.850   4.326
 8211TIP3    H224577   3.506   6.860   4.178
 8212TIP3   OH224578   5.845   5.162   0.027
 8212TIP3    H124579   5.779   5.166   0.097
 8212TIP3    H224580   5.808   5.215  -0.044
 8213TIP3   OH224581   5.483   4.939   6.362
 8213TIP3    H124582   5.415   4.967   6.300
 8213TIP3    H224583   5.521   4.861   6.322
 8214TIP3   OH224584   6.330   1.815   4.869
 8214TIP3    H124585   6.260   1.758   4.837
 8214TIP3    H224586   6.351   1.871   4.794
 8215TIP3   OH224587   7.338   6.394   2.369
 8215TIP3    H124588   7.338   6.428   2.459
 8215TIP3    H224589   7.362   6.469   2.315
 8216TIP3   OH224590   1.906   1.831   0.749
 8216TIP3    H124591   1.988   1.823   0.699
 8216TIP3    H224592   1.865   1.745   0.742
 8217TIP3   OH224593   5.180   0.924   2.774
 8217TIP3    H124594   5.110   0.944   2.712
 8217TIP3    H224595   5.134   0.904   2.856
 8218TIP3   OH224596   3.058   4.903   4.438
 8218TIP3    H124597   3.060   4.954   4.519
 8218TIP3    H224598   3.037   4.814   4.465
 8219TIP3   OH224599   6.855   1.863   0.982
 8219TIP3    H124600   6.857   1.853   1.077
 8219TIP3    H224601   6.947   1.874   0.957
 8220TIP3   OH224602   3.666   6.224   0.689
 8220TIP3    H124603   3.723   6.189   0.621
 8220TIP3    H224604   3.684   6.318   0.690
 8221TIP3   OH224605   6.166   1.724   3.726
 8221TIP3    H124606   6.211   1.648   3.689
 8221TIP3    H224607   6.112   1.689   3.797
 8222TIP3   OH224608   1.059   1.722   4.232
 8222TIP3    H124609   1.110   1.768   4.166
 8222TIP3    H224610   0.990   1.783   4.256
 8223TIP3   OH224611   2.124   0.137   6.352
 8223TIP3    H124612   2.120   0.049   6.314
 8223TIP3    H224613   2.099   0.124   6.444
 8224TIP3   OH224614   0.158   0.100   0.793
 8224TIP3    H124615   0.245   0.067   0.771
 8224TIP3    H224616   0.165   0.195   0.780
 8225TIP3   OH224617   2.938   2.019   3.909
 8225TIP3    H124618   2.997   2.094   3.901
 8225TIP3    H224619   2.876   2.044   3.977
 8226TIP3   OH224620   2.494   1.370   0.534
 8226TIP3    H124621   2.480   1.390   0.441
 8226TIP3    H224622   2.547   1.443   0.566
 8227TIP3   OH224623   8.160   4.360   1.674
 8227TIP3    H124624   8.122   4.358   1.587
 8227TIP3    H224625   8.085   4.353   1.733
 8228TIP3   OH224626   1.289   3.619   0.311
 8228TIP3    H124627   1.329   3.546   0.357
 8228TIP3    H224628   1.337   3.626   0.229
 8229TIP3   OH224629   3.353   1.017   5.897
 8229TIP3    H124630   3.324   1.103   5.866
 8229TIP3    H224631   3.433   1.000   5.848
 8230TIP3   OH224632   4.983   7.759   6.076
 8230TIP3    H124633   4.896   7.750   6.038
 8230TIP3    H224634   4.977   7.714   6.161
 8231TIP3   OH224635   1.960   0.430   2.626
 8231TIP3    H124636   1.888   0.372   2.651
 8231TIP3    H224637   2.032   0.406   2.683
 8232TIP3   OH224638   3.558   0.304   3.726
 8232TIP3    H124639   3.627   0.355   3.768
 8232TIP3    H224640   3.479   0.323   3.776
 8233TIP3   OH224641   6.862   1.204   0.873
 8233TIP3    H124642   6.906   1.286   0.851
 8233TIP3    H224643   6.769   1.225   0.868
 8234TIP3   OH224644   4.895   3.265   2.226
 8234TIP3    H124645   4.897   3.201   2.155
 8234TIP3    H224646   4.958   3.332   2.200
 8235TIP3   OH224647   7.392   0.550   5.993
 8235TIP3    H124648   7.312   0.586   6.032
 8235TIP3    H224649   7.438   0.626   5.957
 8236TIP3   OH224650   6.785   1.703   4.733
 8236TIP3    H124651   6.760   1.784   4.690
 8236TIP3    H224652   6.800   1.641   4.662
 8237TIP3   OH224653   6.257   4.190   1.943
 8237TIP3    H124654   6.233   4.195   2.036
 8237TIP3    H224655   6.297   4.275   1.924
 8238TIP3   OH224656   7.210   3.007   0.611
 8238TIP3    H124657   7.234   3.061   0.686
 8238TIP3    H224658   7.114   3.010   0.609
 8239TIP3   OH224659   5.224   4.986   4.202
 8239TIP3    H124660   5.182   5.033   4.129
 8239TIP3    H224661   5.270   5.055   4.250
 8240TIP3   OH224662   0.585   4.968   0.590
 8240TIP3    H124663   0.562   4.879   0.617
 8240TIP3    H224664   0.523   5.024   0.636
 8241TIP3   OH224665   1.462   2.236   0.040
 8241TIP3    H124666   1.371   2.251   0.014
 8241TIP3    H224667   1.512   2.298  -0.013
 8242TIP3   OH224668   2.394   0.458   1.771
 8242TIP3    H124669   2.457   0.478   1.702
 8242TIP3    H224670   2.447   0.449   1.850
 8243TIP3   OH224671   3.810   5.606   1.166
 8243TIP3    H124672   3.842   5.673   1.226
 8243TIP3    H224673   3.868   5.531   1.180
 8244TIP3   OH224674   2.433   6.322   2.824
 8244TIP3    H124675   2.470   6.243   2.785
 8244TIP3    H224676   2.503   6.356   2.880
 8245TIP3   OH224677  -0.042   6.075   1.751
 8245TIP3    H124678  -0.041   5.992   1.799
 8245TIP3    H224679   0.050   6.101   1.747
 8246TIP3   OH224680   3.786   5.444   5.381
 8246TIP3    H124681   3.796   5.352   5.403
 8246TIP3    H224682   3.835   5.455   5.299
 8247TIP3   OH224683   7.909   3.637   1.629
 8247TIP3    H124684   7.994   3.667   1.662
 8247TIP3    H224685   7.928   3.550   1.592
 8248TIP3   OH224686   6.852   3.174   0.957
 8248TIP3    H124687   6.832   3.218   1.039
 8248TIP3    H224688   6.881   3.086   0.983
 8249TIP3   OH224689   2.463   6.485   0.420
 8249TIP3    H124690   2.440   6.524   0.504
 8249TIP3    H224691   2.416   6.538   0.356
 8250TIP3   OH224692   1.092   3.054   4.880
 8250TIP3    H124693   1.083   3.050   4.976
 8250TIP3    H224694   1.080   2.964   4.851
 8251TIP3   OH224695   2.753   2.069   4.654
 8251TIP3    H124696   2.790   1.981   4.645
 8251TIP3    H224697   2.659   2.055   4.664
 8252TIP3   OH224698   1.401   2.250   0.324
 8252TIP3    H124699   1.314   2.289   0.312
 8252TIP3    H224700   1.444   2.260   0.239
 8253TIP3   OH224701   0.811   5.942   6.037
 8253TIP3    H124702   0.813   5.855   5.999
 8253TIP3    H224703   0.873   5.993   5.985
 8254TIP3   OH224704   0.463   7.568   2.277
 8254TIP3    H124705   0.447   7.573   2.182
 8254TIP3    H224706   0.424   7.648   2.311
 8255TIP3   OH224707   1.537   5.343   5.208
 8255TIP3    H124708   1.620   5.295   5.199
 8255TIP3    H224709   1.471   5.283   5.172
 8256TIP3   OH224710   0.398   7.465   0.638
 8256TIP3    H124711   0.467   7.504   0.584
 8256TIP3    H224712   0.328   7.531   0.638
 8257TIP3   OH224713   5.063   3.074   0.003
 8257TIP3    H124714   5.017   3.156   0.022
 8257TIP3    H224715   5.012   3.007   0.048
 8258TIP3   OH224716   1.644   3.950   6.506
 8258TIP3    H124717   1.707   3.992   6.448
 8258TIP3    H224718   1.654   3.995   6.589
 8259TIP3   OH224719   1.087   0.680   1.913
 8259TIP3    H124720   1.009   0.733   1.930
 8259TIP3    H224721   1.148   0.741   1.870
 8260TIP3   OH224722   2.071   4.103   1.662
 8260TIP3    H124723   2.162   4.118   1.636
 8260TIP3    H224724   2.021   4.117   1.581
 8261TIP3   OH224725   2.098   5.736   1.989
 8261TIP3    H124726   2.071   5.811   2.043
 8261TIP3    H224727   2.082   5.763   1.899
 8262TIP3   OH224728   6.664   5.785   1.556
 8262TIP3    H124729   6.642   5.853   1.492
 8262TIP3    H224730   6.759   5.793   1.569
 8263TIP3   OH224731   4.459   5.841   4.229
 8263TIP3    H124732   4.485   5.800   4.312
 8263TIP3    H224733   4.406   5.916   4.254
 8264TIP3   OH224734   8.227   2.232   5.011
 8264TIP3    H124735   8.279   2.250   5.089
 8264TIP3    H224736   8.225   2.137   5.005
 8265TIP3   OH224737   3.880   0.948   3.362
 8265TIP3    H124738   3.862   0.961   3.268
 8265TIP3    H224739   3.799   0.909   3.396
 8266TIP3   OH224740   7.988   0.065   1.684
 8266TIP3    H124741   7.976   0.123   1.760
 8266TIP3    H224742   8.033  -0.011   1.719
 8267TIP3   OH224743   7.143   1.933   1.393
 8267TIP3    H124744   7.139   1.952   1.487
 8267TIP3    H224745   7.070   1.982   1.355
 8268TIP3   OH224746   4.846   7.067   1.544
 8268TIP3    H124747   4.866   6.974   1.549
 8268TIP3    H224748   4.930   7.108   1.521
 8269TIP3   OH224749   6.137   2.374   6.029
 8269TIP3    H124750   6.180   2.292   6.054
 8269TIP3    H224751   6.064   2.382   6.091
 8270TIP3   OH224752   4.884   6.054   2.786
 8270TIP3    H124753   4.863   5.978   2.732
 8270TIP3    H224754   4.800   6.080   2.824
 8271TIP3   OH224755   3.189   0.427   6.152
 8271TIP3    H124756   3.140   0.401   6.229
 8271TIP3    H224757   3.229   0.510   6.176
 8272TIP3   OH224758   0.691   7.052   4.186
 8272TIP3    H124759   0.669   7.052   4.279
 8272TIP3    H224760   0.645   7.128   4.151
 8273TIP3   OH224761   0.260   1.080   2.581
 8273TIP3    H124762   0.187   1.087   2.519
 8273TIP3    H224763   0.315   1.156   2.562
 8274TIP3   OH224764   5.267   0.827   0.175
 8274TIP3    H124765   5.330   0.834   0.247
 8274TIP3    H224766   5.308   0.766   0.114
 8275TIP3   OH224767   0.390   2.104   4.321
 8275TIP3    H124768   0.346   2.041   4.378
 8275TIP3    H224769   0.406   2.180   4.377
 8276TIP3   OH224770   3.608   7.428   0.249
 8276TIP3    H124771   3.645   7.514   0.267
 8276TIP3    H224772   3.526   7.426   0.299
 8277TIP3   OH224773   1.743   1.724   3.304
 8277TIP3    H124774   1.797   1.756   3.376
 8277TIP3    H224775   1.764   1.782   3.230
 8278TIP3   OH224776   8.222   5.429   3.235
 8278TIP3    H124777   8.154   5.496   3.225
 8278TIP3    H224778   8.175   5.351   3.263
 8279TIP3   OH224779   6.384   5.981   5.903
 8279TIP3    H124780   6.462   6.034   5.887
 8279TIP3    H224781   6.325   6.004   5.830
 8280TIP3   OH224782   5.207   6.650   2.538
 8280TIP3    H124783   5.182   6.665   2.629
 8280TIP3    H224784   5.142   6.589   2.504
 8281TIP3   OH224785   6.128   1.498   0.278
 8281TIP3    H124786   6.218   1.527   0.263
 8281TIP3    H224787   6.130   1.460   0.366
 8282TIP3   OH224788   5.371   1.753   3.038
 8282TIP3    H124789   5.357   1.771   2.945
 8282TIP3    H224790   5.446   1.808   3.062
 8283TIP3   OH224791   5.223   5.463   4.651
 8283TIP3    H124792   5.202   5.457   4.558
 8283TIP3    H224793   5.186   5.383   4.689
 8284TIP3   OH224794   5.050   1.737   1.943
 8284TIP3    H124795   5.123   1.709   1.887
 8284TIP3    H224796   5.090   1.795   2.007
 8285TIP3   OH224797   6.251   3.160   6.657
 8285TIP3    H124798   6.306   3.192   6.586
 8285TIP3    H224799   6.249   3.065   6.644
 8286TIP3   OH224800   1.512   0.788   1.187
 8286TIP3    H124801   1.538   0.732   1.260
 8286TIP3    H224802   1.447   0.736   1.139
 8287TIP3   OH224803   1.967   3.903   6.042
 8287TIP3    H124804   1.956   3.836   6.110
 8287TIP3    H224805   2.062   3.918   6.039
 8288TIP3   OH224806   6.468   5.208   1.855
 8288TIP3    H124807   6.452   5.245   1.942
 8288TIP3    H224808   6.533   5.139   1.870
 8289TIP3   OH224809   2.849   5.640   2.664
 8289TIP3    H124810   2.943   5.628   2.678
 8289TIP3    H224811   2.829   5.585   2.588
 8290TIP3   OH224812   3.849   2.702   1.606
 8290TIP3    H124813   3.761   2.721   1.572
 8290TIP3    H224814   3.858   2.760   1.681
 8291TIP3   OH224815   7.938   6.859   6.073
 8291TIP3    H124816   7.882   6.858   5.996
 8291TIP3    H224817   7.887   6.813   6.140
 8292TIP3   OH224818   7.498   1.483   1.552
 8292TIP3    H124819   7.531   1.549   1.492
 8292TIP3    H224820   7.550   1.405   1.534
 8293TIP3   OH224821   5.190   3.183   1.289
 8293TIP3    H124822   5.130   3.149   1.355
 8293TIP3    H224823   5.271   3.200   1.338
 8294TIP3   OH224824   1.766   3.081   2.224
 8294TIP3    H124825   1.796   3.042   2.142
 8294TIP3    H224826   1.671   3.083   2.217
 8295TIP3   OH224827   0.347   3.198   2.471
 8295TIP3    H124828   0.277   3.138   2.447
 8295TIP3    H224829   0.333   3.215   2.564
 8296TIP3   OH224830   2.596   1.530   5.042
 8296TIP3    H124831   2.565   1.576   5.120
 8296TIP3    H224832   2.538   1.560   4.972
 8297TIP3   OH224833   2.508   3.120   2.291
 8297TIP3    H124834   2.534   3.192   2.348
 8297TIP3    H224835   2.478   3.163   2.211
 8298TIP3   OH224836   4.454   5.435   1.215
 8298TIP3    H124837   4.420   5.411   1.301
 8298TIP3    H224838   4.507   5.513   1.231
 8299TIP3   OH224839   5.971   1.848   6.319
 8299TIP3    H124840   5.922   1.925   6.289
 8299TIP3    H224841   5.930   1.775   6.273
 8300TIP3   OH224842   2.251   6.813   4.570
 8300TIP3    H124843   2.160   6.841   4.561
 8300TIP3    H224844   2.278   6.789   4.482
 8301TIP3   OH224845   4.426   4.076   5.389
 8301TIP3    H124846   4.506   4.127   5.403
 8301TIP3    H224847   4.422   4.065   5.294
 8302TIP3   OH224848   5.545   6.411   1.233
 8302TIP3    H124849   5.527   6.441   1.322
 8302TIP3    H224850   5.562   6.317   1.243
 8303TIP3   OH224851   1.032   3.284   0.357
 8303TIP3    H124852   0.979   3.220   0.309
 8303TIP3    H224853   1.088   3.322   0.290
 8304TIP3   OH224854   5.428   5.154   0.036
 8304TIP3    H124855   5.350   5.099   0.026
 8304TIP3    H224856   5.397   5.229   0.087
 8305TIP3   OH224857   4.600   7.476   3.755
 8305TIP3    H124858   4.618   7.387   3.723
 8305TIP3    H224859   4.658   7.486   3.830
 8306TIP3   OH224860   3.044   0.576   4.784
 8306TIP3    H124861   3.010   0.487   4.786
 8306TIP3    H224862   3.129   0.570   4.828
 8307TIP3   OH224863   8.062   4.098   3.248
 8307TIP3    H124864   7.997   4.159   3.212
 8307TIP3    H224865   8.124   4.085   3.176
 8308TIP3   OH224866   1.680   5.070   5.292
 8308TIP3    H124867   1.701   5.041   5.381
 8308TIP3    H224868   1.758   5.119   5.264
 8309TIP3   OH224869   6.306   2.997   1.436
 8309TIP3    H124870   6.228   3.001   1.492
 8309TIP3    H224871   6.348   2.914   1.459
 8310TIP3   OH224872   3.907   4.377   1.648
 8310TIP3    H124873   3.818   4.397   1.676
 8310TIP3    H224874   3.896   4.310   1.580
 8311TIP3   OH224875   5.735   5.599   1.128
 8311TIP3    H124876   5.823   5.599   1.090
 8311TIP3    H224877   5.733   5.522   1.185
 8312TIP3   OH224878   4.535   3.225   3.317
 8312TIP3    H124879   4.557   3.150   3.373
 8312TIP3    H224880   4.460   3.265   3.360
 8313TIP3   OH224881   1.282   6.007   5.789
 8313TIP3    H124882   1.279   6.103   5.784
 8313TIP3    H224883   1.368   5.988   5.825
 8314TIP3   OH224884   5.158   2.074   4.192
 8314TIP3    H124885   5.161   2.170   4.188
 8314TIP3    H224886   5.100   2.049   4.121
 8315TIP3   OH224887   2.079   2.083   3.815
 8315TIP3    H124888   2.174   2.078   3.810
 8315TIP3    H224889   2.049   2.020   3.749
 8316TIP3   OH224890   7.452   6.108   0.457
 8316TIP3    H124891   7.499   6.192   0.461
 8316TIP3    H224892   7.426   6.099   0.365
 8317TIP3   OH224893   1.589   4.043   1.645
 8317TIP3    H124894   1.674   4.049   1.688
 8317TIP3    H224895   1.598   4.099   1.568
 8318TIP3   OH224896   4.735   4.301   1.615
 8318TIP3    H124897   4.757   4.377   1.669
 8318TIP3    H224898   4.674   4.334   1.549
 8319TIP3   OH224899   1.466   1.037   5.360
 8319TIP3    H124900   1.449   1.015   5.451
 8319TIP3    H224901   1.440   0.960   5.311
 8320TIP3   OH224902   4.925   0.647   2.259
 8320TIP3    H124903   4.871   0.571   2.238
 8320TIP3    H224904   4.994   0.612   2.317
 8321TIP3   OH224905   6.726   2.267   4.418
 8321TIP3    H124906   6.770   2.266   4.503
 8321TIP3    H224907   6.635   2.285   4.439
 8322TIP3   OH224908   5.716   4.207   2.978
 8322TIP3    H124909   5.655   4.185   2.908
 8322TIP3    H224910   5.799   4.169   2.951
 8323TIP3   OH224911   0.083   1.169   2.402
 8323TIP3    H124912   0.005   1.174   2.347
 8323TIP3    H224913   0.134   1.247   2.378
 8324TIP3   OH224914   4.376   3.774   2.381
 8324TIP3    H124915   4.457   3.748   2.425
 8324TIP3    H224916   4.381   3.732   2.295
 8325TIP3   OH224917   7.467   3.697   1.671
 8325TIP3    H124918   7.547   3.742   1.641
 8325TIP3    H224919   7.472   3.610   1.633
 8326TIP3   OH224920   5.209   0.591   6.698
 8326TIP3    H124921   5.159   0.655   6.748
 8326TIP3    H224922   5.187   0.507   6.738
 8327TIP3   OH224923   3.275   2.121   3.691
 8327TIP3    H124924   3.269   2.087   3.602
 8327TIP3    H224925   3.222   2.201   3.689
 8328TIP3   OH224926   3.070   3.769   4.339
 8328TIP3    H124927   3.081   3.864   4.337
 8328TIP3    H224928   3.153   3.736   4.375
 8329TIP3   OH224929   6.359   3.836   3.490
 8329TIP3    H124930   6.358   3.819   3.395
 8329TIP3    H224931   6.284   3.895   3.504
 8330TIP3   OH224932   0.835   5.153   5.347
 8330TIP3    H124933   0.828   5.132   5.254
 8330TIP3    H224934   0.884   5.080   5.385
 8331TIP3   OH224935   3.796   7.050   0.534
 8331TIP3    H124936   3.791   7.136   0.492
 8331TIP3    H224937   3.726   6.999   0.493
 8332TIP3   OH224938   0.475   0.037   1.875
 8332TIP3    H124939   0.563   0.034   1.838
 8332TIP3    H224940   0.447  -0.055   1.878
 8333TIP3   OH224941   0.101   7.107   5.199
 8333TIP3    H124942   0.026   7.048   5.204
 8333TIP3    H224943   0.100   7.140   5.109
 8334TIP3   OH224944   2.575   6.737   3.465
 8334TIP3    H124945   2.575   6.809   3.402
 8334TIP3    H224946   2.590   6.779   3.549
 8335TIP3   OH224947   6.575   3.032   4.170
 8335TIP3    H124948   6.555   3.104   4.111
 8335TIP3    H224949   6.491   2.988   4.185
 8336TIP3   OH224950   6.665   3.566   6.678
 8336TIP3    H124951   6.748   3.611   6.665
 8336TIP3    H224952   6.684   3.474   6.661
 8337TIP3   OH224953   3.598   7.135   4.688
 8337TIP3    H124954   3.666   7.085   4.644
 8337TIP3    H224955   3.586   7.090   4.772
 8338TIP3   OH224956   5.840   5.189   2.505
 8338TIP3    H124957   5.754   5.232   2.504
 8338TIP3    H224958   5.822   5.099   2.480
 8339TIP3   OH224959   3.268   0.448   5.870
 8339TIP3    H124960   3.303   0.432   5.958
 8339TIP3    H224961   3.249   0.360   5.835
 8340TIP3   OH224962   5.001   1.272   4.693
 8340TIP3    H124963   5.089   1.309   4.688
 8340TIP3    H224964   4.950   1.324   4.629
 8341TIP3   OH224965   1.848   2.268   2.450
 8341TIP3    H124966   1.771   2.306   2.492
 8341TIP3    H224967   1.854   2.313   2.366
 8342TIP3   OH224968   3.209   6.896   4.926
 8342TIP3    H124969   3.131   6.947   4.948
 8342TIP3    H224970   3.180   6.837   4.856
 8343TIP3   OH224971   7.782   6.709   3.305
 8343TIP3    H124972   7.726   6.632   3.312
 8343TIP3    H224973   7.749   6.756   3.227
 8344TIP3   OH224974   3.092   7.085   1.985
 8344TIP3    H124975   3.152   7.086   2.060
 8344TIP3    H224976   3.009   7.116   2.021
 8345TIP3   OH224977   3.477   7.673   0.456
 8345TIP3    H124978   3.516   7.739   0.400
 8345TIP3    H224979   3.551   7.638   0.506
 8346TIP3   OH224980   0.116   3.913   3.362
 8346TIP3    H124981   0.045   3.860   3.325
 8346TIP3    H224982   0.156   3.856   3.428
 8347TIP3   OH224983   2.811   5.460   2.164
 8347TIP3    H124984   2.779   5.536   2.213
 8347TIP3    H224985   2.882   5.495   2.110
 8348TIP3   OH224986   4.763   3.038   4.878
 8348TIP3    H124987   4.858   3.039   4.861
 8348TIP3    H224988   4.738   2.946   4.869
 8349TIP3   OH224989   7.808   2.772   4.719
 8349TIP3    H124990   7.817   2.714   4.643
 8349TIP3    H224991   7.722   2.752   4.755
 8350TIP3   OH224992   1.136   5.016   0.032
 8350TIP3    H124993   1.204   5.042   0.096
 8350TIP3    H224994   1.075   5.090   0.032
 8351TIP3   OH224995   5.040   1.898   6.778
 8351TIP3    H124996   5.040   1.812   6.820
 8351TIP3    H224997   4.974   1.891   6.709
 8352TIP3   OH224998   5.995   2.891   4.885
 8352TIP3    H124999   6.077   2.872   4.930
 8352TIP3    H225000   5.949   2.807   4.882
 8353TIP3   OH225001   6.858   6.929   3.675
 8353TIP3    H125002   6.922   6.904   3.742
 8353TIP3    H225003   6.799   6.990   3.720
 8354TIP3   OH225004   0.470   4.356   1.085
 8354TIP3    H125005   0.420   4.287   1.040
 8354TIP3    H225006   0.468   4.330   1.178
 8355TIP3   OH225007   5.417   4.641   5.803
 8355TIP3    H125008   5.486   4.577   5.784
 8355TIP3    H225009   5.337   4.599   5.771
 8356TIP3   OH225010   1.067   5.409   3.171
 8356TIP3    H125011   1.148   5.447   3.204
 8356TIP3    H225012   1.078   5.315   3.184
 8357TIP3   OH225013   1.813   3.086   6.656
 8357TIP3    H125014   1.759   3.026   6.709
 8357TIP3    H225015   1.750   3.127   6.596
 8358TIP3   OH225016   1.121   5.743   2.576
 8358TIP3    H125017   1.135   5.714   2.485
 8358TIP3    H225018   1.027   5.755   2.583
 8359TIP3   OH225019   5.862   3.933   6.755
 8359TIP3    H125020   5.947   3.948   6.713
 8359TIP3    H225021   5.799   3.979   6.700
 8360TIP3   OH225022   6.369   3.389   0.650
 8360TIP3    H125023   6.397   3.306   0.610
 8360TIP3    H225024   6.427   3.455   0.611
 8361TIP3   OH225025   5.604   6.775   4.287
 8361TIP3    H125026   5.533   6.808   4.341
 8361TIP3    H225027   5.622   6.688   4.321
 8362TIP3   OH225028   4.027   4.548   6.205
 8362TIP3    H125029   4.042   4.509   6.291
 8362TIP3    H225030   4.081   4.627   6.204
 8363TIP3   OH225031   5.637   1.826   6.003
 8363TIP3    H125032   5.590   1.788   5.929
 8363TIP3    H225033   5.698   1.888   5.963
 8364TIP3   OH225034   3.672   7.161   4.996
 8364TIP3    H125035   3.665   7.171   5.091
 8364TIP3    H225036   3.623   7.235   4.960
 8365TIP3   OH225037   6.595   4.619   5.077
 8365TIP3    H125038   6.676   4.652   5.038
 8365TIP3    H225039   6.546   4.697   5.102
 8366TIP3   OH225040   0.131   6.065   6.307
 8366TIP3    H125041   0.141   6.117   6.228
 8366TIP3    H225042   0.064   6.111   6.358
 8367TIP3   OH225043   4.803   5.774   3.476
 8367TIP3    H125044   4.783   5.718   3.400
 8367TIP3    H225045   4.739   5.845   3.470
 8368TIP3   OH225046   8.036   6.597   2.107
 8368TIP3    H125047   7.969   6.609   2.175
 8368TIP3    H225048   8.052   6.502   2.106
 8369TIP3   OH225049   1.363   5.780   5.626
 8369TIP3    H125050   1.279   5.753   5.662
 8369TIP3    H225051   1.381   5.865   5.668
 8370TIP3   OH225052   0.393   1.991   5.963
 8370TIP3    H125053   0.429   2.079   5.974
 8370TIP3    H225054   0.325   2.000   5.897
 8371TIP3   OH225055   7.153   5.122   0.017
 8371TIP3    H125056   7.176   5.050  -0.041
 8371TIP3    H225057   7.092   5.083   0.080
 8372TIP3   OH225058   6.947   1.810   4.225
 8372TIP3    H125059   6.954   1.895   4.181
 8372TIP3    H225060   6.991   1.749   4.166
 8373TIP3   OH225061   7.584   4.547   0.336
 8373TIP3    H125062   7.518   4.478   0.344
 8373TIP3    H225063   7.657   4.518   0.390
 8374TIP3   OH225064   3.471   5.517   3.979
 8374TIP3    H125065   3.432   5.480   4.059
 8374TIP3    H225066   3.475   5.611   3.996
 8375TIP3   OH225067   5.604   2.213   1.756
 8375TIP3    H125068   5.551   2.271   1.703
 8375TIP3    H225069   5.542   2.167   1.813
 8376TIP3   OH225070   4.211   7.594   3.030
 8376TIP3    H125071   4.154   7.519   3.014
 8376TIP3    H225072   4.300   7.561   3.012
 8377TIP3   OH225073   1.673   7.041   2.876
 8377TIP3    H125074   1.714   6.997   2.951
 8377TIP3    H225075   1.583   7.058   2.904
 8378TIP3   OH225076   1.698   1.725   2.641
 8378TIP3    H125077   1.602   1.718   2.639
 8378TIP3    H225078   1.723   1.732   2.549
 8379TIP3   OH225079   3.603   7.130   2.125
 8379TIP3    H125080   3.556   7.133   2.042
 8379TIP3    H225081   3.645   7.216   2.132
 8380TIP3   OH225082   6.094   1.777   1.708
 8380TIP3    H125083   6.169   1.739   1.753
 8380TIP3    H225084   6.103   1.748   1.617
 8381TIP3   OH225085   0.403   6.665   5.572
 8381TIP3    H125086   0.410   6.573   5.546
 8381TIP3    H225087   0.494   6.691   5.587
 8382TIP3   OH225088   6.930   1.506   5.743
 8382TIP3    H125089   6.968   1.590   5.769
 8382TIP3    H225090   6.942   1.449   5.819
 8383TIP3   OH225091   2.372   0.950   2.972
 8383TIP3    H125092   2.336   1.016   2.913
 8383TIP3    H225093   2.309   0.945   3.044
 8384TIP3   OH225094   2.483   5.600   3.843
 8384TIP3    H125095   2.429   5.530   3.881
 8384TIP3    H225096   2.454   5.679   3.888
 8385TIP3   OH225097   2.498   1.791   1.761
 8385TIP3    H125098   2.469   1.717   1.814
 8385TIP3    H225099   2.505   1.864   1.822
 8386TIP3   OH225100   5.484   6.455   6.366
 8386TIP3    H125101   5.482   6.429   6.274
 8386TIP3    H225102   5.494   6.373   6.414
 8387TIP3   OH225103   2.550   1.862   2.143
 8387TIP3    H125104   2.603   1.933   2.179
 8387TIP3    H225105   2.606   1.822   2.077
 8388TIP3   OH225106   1.925   1.819   2.090
 8388TIP3    H125107   1.965   1.890   2.040
 8388TIP3    H225108   1.989   1.798   2.158
 8389TIP3   OH225109   2.039   4.525   4.345
 8389TIP3    H125110   2.134   4.519   4.353
 8389TIP3    H225111   2.020   4.496   4.256
 8390TIP3   OH225112   2.077   3.609   3.158
 8390TIP3    H125113   2.035   3.653   3.084
 8390TIP3    H225114   2.060   3.516   3.143
 8391TIP3   OH225115   7.129   7.307   5.088
 8391TIP3    H125116   7.141   7.244   5.159
 8391TIP3    H225117   7.130   7.392   5.131
 8392TIP3   OH225118   2.321   2.410   4.549
 8392TIP3    H125119   2.267   2.409   4.628
 8392TIP3    H225120   2.277   2.348   4.490
 8393TIP3   OH225121   7.247   2.057   2.801
 8393TIP3    H125122   7.243   2.107   2.719
 8393TIP3    H225123   7.334   2.018   2.801
 8394TIP3   OH225124   0.959   2.667   1.632
 8394TIP3    H125125   0.868   2.673   1.664
 8394TIP3    H225126   0.964   2.733   1.564
 8395TIP3   OH225127   5.458   3.289   0.435
 8395TIP3    H125128   5.526   3.356   0.423
 8395TIP3    H225129   5.502   3.206   0.417
 8396TIP3   OH225130   6.708   1.122   4.061
 8396TIP3    H125131   6.768   1.084   3.997
 8396TIP3    H225132   6.633   1.063   4.062
 8397TIP3   OH225133   0.799   4.707   4.985
 8397TIP3    H125134   0.734   4.654   5.031
 8397TIP3    H225135   0.840   4.646   4.924
 8398TIP3   OH225136   3.407   0.416   3.242
 8398TIP3    H125137   3.384   0.324   3.227
 8398TIP3    H225138   3.471   0.414   3.313
 8399TIP3   OH225139   6.870   2.460   5.826
 8399TIP3    H125140   6.825   2.536   5.864
 8399TIP3    H225141   6.841   2.459   5.734
 8400TIP3   OH225142   0.939   5.952   2.000
 8400TIP3    H125143   0.863   5.900   2.029
 8400TIP3    H225144   0.901   6.026   1.953
 8401TIP3   OH225145   1.264   1.571   5.941
 8401TIP3    H125146   1.172   1.587   5.962
 8401TIP3    H225147   1.299   1.658   5.923
 8402TIP3   OH225148   8.202   3.530   5.787
 8402TIP3    H125149   8.124   3.517   5.841
 8402TIP3    H225150   8.239   3.612   5.819
 8403TIP3   OH225151   1.331   4.304   0.682
 8403TIP3    H125152   1.351   4.266   0.768
 8403TIP3    H225153   1.402   4.366   0.666
 8404TIP3   OH225154   5.662   1.338   3.543
 8404TIP3    H125155   5.595   1.402   3.566
 8404TIP3    H225156   5.631   1.256   3.582
 8405TIP3   OH225157   4.703   4.496   5.372
 8405TIP3    H125158   4.609   4.485   5.387
 8405TIP3    H225159   4.720   4.448   5.291
 8406TIP3   OH225160   2.927   6.777   1.659
 8406TIP3    H125161   2.842   6.812   1.631
 8406TIP3    H225162   2.978   6.770   1.578
 8407TIP3   OH225163   6.175   4.460   1.048
 8407TIP3    H125164   6.178   4.387   0.986
 8407TIP3    H225165   6.179   4.419   1.134
 8408TIP3   OH225166   3.377   6.296   6.289
 8408TIP3    H125167   3.323   6.229   6.331
 8408TIP3    H225168   3.319   6.371   6.278
 8409TIP3   OH225169   1.340   5.799   1.399
 8409TIP3    H125170   1.432   5.784   1.376
 8409TIP3    H225171   1.307   5.714   1.426
 8410TIP3   OH225172   2.925   1.672   3.966
 8410TIP3    H125173   2.891   1.649   4.053
 8410TIP3    H225174   3.013   1.705   3.984
 8411TIP3   OH225175   2.652   6.996   4.864
 8411TIP3    H125176   2.714   6.964   4.798
 8411TIP3    H225177   2.569   6.957   4.838
 8412TIP3   OH225178   7.543   4.057   5.441
 8412TIP3    H125179   7.562   4.105   5.361
 8412TIP3    H225180   7.597   3.979   5.437
 8413TIP3   OH225181   2.216   6.392   6.432
 8413TIP3    H125182   2.291   6.423   6.483
 8413TIP3    H225183   2.151   6.461   6.441
 8414TIP3   OH225184   3.385   2.052   3.258
 8414TIP3    H125185   3.413   2.021   3.344
 8414TIP3    H225186   3.464   2.045   3.203
 8415TIP3   OH225187   2.927   3.164   2.320
 8415TIP3    H125188   2.920   3.189   2.412
 8415TIP3    H225189   3.021   3.148   2.307
 8416TIP3   OH225190   7.521   0.756   2.093
 8416TIP3    H125191   7.567   0.677   2.122
 8416TIP3    H225192   7.547   0.767   2.002
 8417TIP3   OH225193   1.635   2.661   3.247
 8417TIP3    H125194   1.684   2.683   3.327
 8417TIP3    H225195   1.671   2.577   3.220
 8418TIP3   OH225196   7.476   5.905   4.127
 8418TIP3    H125197   7.428   5.966   4.183
 8418TIP3    H225198   7.550   5.878   4.181
 8419TIP3   OH225199   4.517   6.241   4.286
 8419TIP3    H125200   4.540   6.332   4.271
 8419TIP3    H225201   4.444   6.225   4.226
 8420TIP3   OH225202   4.913   7.758   2.016
 8420TIP3    H125203   4.825   7.796   2.019
 8420TIP3    H225204   4.967   7.821   2.064
 8421TIP3   OH225205   4.020   6.350   4.156
 8421TIP3    H125206   3.977   6.266   4.170
 8421TIP3    H225207   3.982   6.408   4.222
 8422TIP3   OH225208   6.710   3.453   5.405
 8422TIP3    H125209   6.740   3.398   5.332
 8422TIP3    H225210   6.791   3.475   5.452
 8423TIP3   OH225211   4.695   1.853   0.559
 8423TIP3    H125212   4.677   1.878   0.469
 8423TIP3    H225213   4.639   1.910   0.612
 8424TIP3   OH225214   7.525   0.870   1.335
 8424TIP3    H125215   7.497   0.783   1.366
 8424TIP3    H225216   7.613   0.856   1.300
 8425TIP3   OH225217   2.503   7.292   5.641
 8425TIP3    H125218   2.463   7.375   5.617
 8425TIP3    H225219   2.443   7.255   5.706
 8426TIP3   OH225220   2.891   5.267   6.183
 8426TIP3    H125221   2.982   5.294   6.198
 8426TIP3    H225222   2.868   5.304   6.098
 8427TIP3   OH225223   2.950   5.009   1.213
 8427TIP3    H125224   2.876   5.062   1.244
 8427TIP3    H225225   3.025   5.068   1.220
 8428TIP3   OH225226   7.699   7.128   1.931
 8428TIP3    H125227   7.732   7.216   1.947
 8428TIP3    H225228   7.693   7.088   2.018
 8429TIP3   OH225229   3.801   0.244   0.512
 8429TIP3    H125230   3.885   0.282   0.539
 8429TIP3    H225231   3.747   0.319   0.488
 8430TIP3   OH225232   7.607   7.040   2.462
 8430TIP3    H125233   7.557   7.121   2.463
 8430TIP3    H225234   7.589   7.000   2.548
 8431TIP3   OH225235   6.190   0.491   3.421
 8431TIP3    H125236   6.253   0.425   3.390
 8431TIP3    H225237   6.240   0.573   3.421
 8432TIP3   OH225238   7.016   6.172   4.924
 8432TIP3    H125239   6.921   6.185   4.921
 8432TIP3    H225240   7.029   6.096   4.980
 8433TIP3   OH225241   7.947   6.298   6.538
 8433TIP3    H125242   7.886   6.235   6.577
 8433TIP3    H225243   7.923   6.301   6.445
 8434TIP3   OH225244   5.540   3.642   2.184
 8434TIP3    H125245   5.633   3.625   2.202
 8434TIP3    H225246   5.494   3.566   2.220
 8435TIP3   OH225247   1.988   6.200   3.334
 8435TIP3    H125248   1.999   6.133   3.267
 8435TIP3    H225249   2.074   6.243   3.338
 8436TIP3   OH225250   6.056   5.122   2.358
 8436TIP3    H125251   5.994   5.174   2.409
 8436TIP3    H225252   6.005   5.045   2.329
 8437TIP3   OH225253   4.116   5.744   3.911
 8437TIP3    H125254   4.161   5.660   3.903
 8437TIP3    H225255   4.031   5.722   3.949
 8438TIP3   OH225256   7.861   4.202   4.255
 8438TIP3    H125257   7.767   4.199   4.239
 8438TIP3    H225258   7.896   4.125   4.210
 8439TIP3   OH225259   8.225   7.347   6.017
 8439TIP3    H125260   8.302   7.293   6.036
 8439TIP3    H225261   8.158   7.284   5.991
 8440TIP3   OH225262   6.469   3.936   1.206
 8440TIP3    H125263   6.437   3.846   1.198
 8440TIP3    H225264   6.559   3.933   1.175
 8441TIP3   OH225265   4.348   0.983   4.033
 8441TIP3    H125266   4.322   1.040   3.961
 8441TIP3    H225267   4.438   0.957   4.011
 8442TIP3   OH225268   1.266   5.348   3.871
 8442TIP3    H125269   1.306   5.334   3.957
 8442TIP3    H225270   1.339   5.365   3.812
 8443TIP3   OH225271   5.762   4.320   0.987
 8443TIP3    H125272   5.681   4.269   0.994
 8443TIP3    H225273   5.733   4.407   0.959
 8444TIP3   OH225274   4.792   2.737   2.307
 8444TIP3    H125275   4.712   2.729   2.359
 8444TIP3    H225276   4.861   2.701   2.362
 8445TIP3   OH225277   6.915   6.770   2.085
 8445TIP3    H125278   6.982   6.761   2.017
 8445TIP3    H225279   6.869   6.851   2.062
 8446TIP3   OH225280   6.692   2.482   2.418
 8446TIP3    H125281   6.646   2.399   2.432
 8446TIP3    H225282   6.710   2.483   2.324
 8447TIP3   OH225283   0.043   0.090   4.422
 8447TIP3    H125284   0.016   0.177   4.394
 8447TIP3    H225285  -0.012   0.071   4.498
 8448TIP3   OH225286   1.617   6.490   5.254
 8448TIP3    H125287   1.568   6.480   5.336
 8448TIP3    H225288   1.702   6.525   5.281
 8449TIP3   OH225289   1.329   5.748   1.795
 8449TIP3    H125290   1.402   5.803   1.823
 8449TIP3    H225291   1.262   5.810   1.765
 8450TIP3   OH225292   0.684   1.628   5.501
 8450TIP3    H125293   0.624   1.584   5.562
 8450TIP3    H225294   0.645   1.714   5.488
 8451TIP3   OH225295   1.840   2.372   0.156
 8451TIP3    H125296   1.818   2.279   0.159
 8451TIP3    H225297   1.927   2.377   0.196
 8452TIP3   OH225298   5.495   1.672   6.290
 8452TIP3    H125299   5.469   1.634   6.205
 8452TIP3    H225300   5.504   1.596   6.348
 8453TIP3   OH225301   7.857   4.643   0.268
 8453TIP3    H125302   7.888   4.556   0.290
 8453TIP3    H225303   7.786   4.629   0.206
 8454TIP3   OH225304   3.788   4.215   0.150
 8454TIP3    H125305   3.796   4.296   0.199
 8454TIP3    H225306   3.785   4.146   0.217
 8455TIP3   OH225307   0.697   1.541   0.408
 8455TIP3    H125308   0.638   1.569   0.338
 8455TIP3    H225309   0.645   1.481   0.461
 8456TIP3   OH225310   0.746   3.810   1.906
 8456TIP3    H125311   0.764   3.834   1.815
 8456TIP3    H225312   0.759   3.891   1.956
 8457TIP3   OH225313   5.213   6.453   5.455
 8457TIP3    H125314   5.230   6.369   5.498
 8457TIP3    H225315   5.257   6.445   5.370
 8458TIP3   OH225316   1.258   4.669   4.220
 8458TIP3    H125317   1.320   4.693   4.289
 8458TIP3    H225318   1.194   4.613   4.264
 8459TIP3   OH225319   1.790   2.517   3.938
 8459TIP3    H125320   1.799   2.423   3.954
 8459TIP3    H225321   1.869   2.556   3.976
 8460TIP3   OH225322   6.495   0.945   4.929
 8460TIP3    H125323   6.513   0.947   4.835
 8460TIP3    H225324   6.454   1.030   4.947
 8461TIP3   OH225325   5.359   7.340   2.715
 8461TIP3    H125326   5.427   7.372   2.656
 8461TIP3    H225327   5.393   7.355   2.803
 8462TIP3   OH225328   5.189   5.498   3.238
 8462TIP3    H125329   5.100   5.468   3.259
 8462TIP3    H225330   5.178   5.589   3.212
 8463TIP3   OH225331   0.427   4.043   0.094
 8463TIP3    H125332   0.486   4.107   0.136
 8463TIP3    H225333   0.359   4.096   0.054
 8464TIP3   OH225334   1.408   4.606   0.241
 8464TIP3    H125335   1.485   4.656   0.270
 8464TIP3    H225336   1.334   4.654   0.277
 8465TIP3   OH225337   1.600   2.753   4.713
 8465TIP3    H125338   1.567   2.831   4.668
 8465TIP3    H225339   1.695   2.764   4.714
 8466TIP3   OH225340   5.789   5.376   0.926
 8466TIP3    H125341   5.778   5.337   1.013
 8466TIP3    H225342   5.790   5.470   0.941
 8467TIP3   OH225343   2.264   7.654   3.199
 8467TIP3    H125344   2.195   7.685   3.141
 8467TIP3    H225345   2.245   7.697   3.283
 8468TIP3   OH225346   1.102   5.376   3.608
 8468TIP3    H125347   1.053   5.342   3.682
 8468TIP3    H225348   1.036   5.416   3.551
 8469TIP3   OH225349   8.155   4.296   0.268
 8469TIP3    H125350   8.082   4.291   0.206
 8469TIP3    H225351   8.222   4.345   0.221
 8470TIP3   OH225352   4.562   5.800   0.639
 8470TIP3    H125353   4.636   5.741   0.625
 8470TIP3    H225354   4.601   5.885   0.659
 8471TIP3   OH225355   7.430   6.036   1.935
 8471TIP3    H125356   7.472   6.092   1.869
 8471TIP3    H225357   7.337   6.039   1.913
 8472TIP3   OH225358   6.748   0.090   0.668
 8472TIP3    H125359   6.756  -0.005   0.675
 8472TIP3    H225360   6.746   0.120   0.759
 8473TIP3   OH225361   6.507   2.240   1.139
 8473TIP3    H125362   6.515   2.324   1.094
 8473TIP3    H225363   6.564   2.181   1.090
 8474TIP3   OH225364   3.554   2.779   6.553
 8474TIP3    H125365   3.465   2.776   6.520
 8474TIP3    H225366   3.560   2.706   6.615
 8475TIP3   OH225367   6.534   0.146   2.067
 8475TIP3    H125368   6.456   0.201   2.071
 8475TIP3    H225369   6.597   0.197   2.016
 8476TIP3   OH225370   5.208   7.387   6.710
 8476TIP3    H125371   5.273   7.317   6.707
 8476TIP3    H225372   5.182   7.391   6.802
 8477TIP3   OH225373   7.654   1.192   5.606
 8477TIP3    H125374   7.677   1.174   5.515
 8477TIP3    H225375   7.574   1.245   5.601
 8478TIP3   OH225376   5.279   7.338   6.304
 8478TIP3    H125377   5.364   7.342   6.261
 8478TIP3    H225378   5.251   7.430   6.310
 8479TIP3   OH225379   4.670   2.617   0.446
 8479TIP3    H125380   4.731   2.689   0.428
 8479TIP3    H225381   4.641   2.633   0.536
 8480TIP3   OH225382   1.760   5.452   6.361
 8480TIP3    H125383   1.854   5.452   6.347
 8480TIP3    H225384   1.728   5.377   6.312
 8481TIP3   OH225385   0.529   7.537   4.403
 8481TIP3    H125386   0.546   7.460   4.457
 8481TIP3    H225387   0.456   7.580   4.445
 8482TIP3   OH225388   5.668   2.514   2.790
 8482TIP3    H125389   5.685   2.426   2.755
 8482TIP3    H225390   5.693   2.508   2.882
 8483TIP3   OH225391   7.927   6.302   4.369
 8483TIP3    H125392   8.004   6.286   4.314
 8483TIP3    H225393   7.962   6.342   4.448
 8484TIP3   OH225394   1.667   5.829   2.671
 8484TIP3    H125395   1.669   5.783   2.755
 8484TIP3    H225396   1.627   5.914   2.691
 8485TIP3   OH225397   1.358   4.129   2.891
 8485TIP3    H125398   1.366   4.037   2.916
 8485TIP3    H225399   1.448   4.163   2.894
 8486TIP3   OH225400   6.688   0.850   2.388
 8486TIP3    H125401   6.656   0.785   2.325
 8486TIP3    H225402   6.711   0.798   2.465
 8487TIP3   OH225403   1.666   3.415   6.242
 8487TIP3    H125404   1.700   3.481   6.303
 8487TIP3    H225405   1.706   3.437   6.158
 8488TIP3   OH225406   2.896   5.260   4.831
 8488TIP3    H125407   2.934   5.307   4.906
 8488TIP3    H225408   2.952   5.184   4.820
 8489TIP3   OH225409   6.602   2.408   1.897
 8489TIP3    H125410   6.511   2.437   1.893
 8489TIP3    H225411   6.647   2.463   1.833
 8490TIP3   OH225412   5.956   6.290   3.616
 8490TIP3    H125413   6.029   6.264   3.560
 8490TIP3    H225414   5.911   6.208   3.637
 8491TIP3   OH225415   7.240   0.614   0.255
 8491TIP3    H125416   7.299   0.577   0.321
 8491TIP3    H225417   7.214   0.699   0.290
 8492TIP3   OH225418   8.261   3.899   6.109
 8492TIP3    H125419   8.197   3.968   6.128
 8492TIP3    H225420   8.343   3.932   6.145
 8493TIP3   OH225421   6.471   0.545   4.197
 8493TIP3    H125422   6.531   0.619   4.195
 8493TIP3    H225423   6.398   0.575   4.252
 8494TIP3   OH225424   0.712   7.409   2.927
 8494TIP3    H125425   0.806   7.412   2.947
 8494TIP3    H225426   0.703   7.457   2.845
 8495TIP3   OH225427   1.053   4.371   5.451
 8495TIP3    H125428   1.014   4.395   5.368
 8495TIP3    H225429   1.045   4.450   5.505
 8496TIP3   OH225430   5.248   5.323   1.385
 8496TIP3    H125431   5.324   5.353   1.335
 8496TIP3    H225432   5.281   5.308   1.473
 8497TIP3   OH225433   3.869   0.051   3.225
 8497TIP3    H125434   3.901   0.054   3.315
 8497TIP3    H225435   3.930  -0.007   3.180
 8498TIP3   OH225436   1.604   3.791   1.795
 8498TIP3    H125437   1.571   3.865   1.744
 8498TIP3    H225438   1.610   3.719   1.732
 8499TIP3   OH225439   3.791   7.062   1.513
 8499TIP3    H125440   3.837   6.982   1.539
 8499TIP3    H225441   3.856   7.111   1.462
 8500TIP3   OH225442   5.013   5.169   4.083
 8500TIP3    H125443   4.981   5.252   4.119
 8500TIP3    H225444   4.941   5.107   4.097
 8501TIP3   OH225445   5.304   2.640   5.595
 8501TIP3    H125446   5.261   2.724   5.610
 8501TIP3    H225447   5.289   2.622   5.502
 8502TIP3   OH225448   3.401   5.686   2.568
 8502TIP3    H125449   3.462   5.759   2.579
 8502TIP3    H225450   3.447   5.625   2.511
 8503TIP3   OH225451   8.236   3.988   3.725
 8503TIP3    H125452   8.303   3.929   3.758
 8503TIP3    H225453   8.183   4.011   3.802
 8504TIP3   OH225454   0.082   4.628   2.283
 8504TIP3    H125455   0.126   4.626   2.368
 8504TIP3    H225456   0.119   4.704   2.239
 8505TIP3   OH225457   6.694   6.451   1.024
 8505TIP3    H125458   6.765   6.501   1.065
 8505TIP3    H225459   6.736   6.372   0.989
 8506TIP3   OH225460   6.944   5.549   6.622
 8506TIP3    H125461   6.861   5.542   6.574
 8506TIP3    H225462   6.963   5.643   6.623
 8507TIP3   OH225463   1.356   1.488   1.235
 8507TIP3    H125464   1.376   1.548   1.163
 8507TIP3    H225465   1.266   1.460   1.218
 8508TIP3   OH225466   3.679   5.484   3.114
 8508TIP3    H125467   3.709   5.536   3.188
 8508TIP3    H225468   3.706   5.395   3.134
 8509TIP3   OH225469   1.555   1.237   3.316
 8509TIP3    H125470   1.567   1.290   3.394
 8509TIP3    H225471   1.643   1.205   3.295
 8510TIP3   OH225472   3.217   6.755   6.529
 8510TIP3    H125473   3.271   6.806   6.588
 8510TIP3    H225474   3.130   6.755   6.569
 8511TIP3   OH225475   5.319   1.303   5.931
 8511TIP3    H125476   5.359   1.218   5.916
 8511TIP3    H225477   5.312   1.342   5.843
 8512TIP3   OH225478   1.067   6.538   1.949
 8512TIP3    H125479   1.014   6.485   2.008
 8512TIP3    H225480   1.131   6.477   1.912
 8513TIP3   OH225481   7.951   6.431   5.322
 8513TIP3    H125482   7.955   6.335   5.320
 8513TIP3    H225483   7.873   6.452   5.270
 8514TIP3   OH225484   0.821   1.340   3.419
 8514TIP3    H125485   0.875   1.270   3.456
 8514TIP3    H225486   0.765   1.369   3.491
 8515TIP3   OH225487   8.200   3.929   1.887
 8515TIP3    H125488   8.271   3.962   1.832
 8515TIP3    H225489   8.186   3.998   1.952
 8516TIP3   OH225490   1.399   6.309   2.994
 8516TIP3    H125491   1.401   6.215   2.976
 8516TIP3    H225492   1.450   6.348   2.923
 8517TIP3   OH225493   8.237   4.696   5.358
 8517TIP3    H125494   8.177   4.633   5.398
 8517TIP3    H225495   8.264   4.753   5.429
 8518TIP3   OH225496   4.804   0.849   0.471
 8518TIP3    H125497   4.838   0.773   0.518
 8518TIP3    H225498   4.782   0.816   0.384
 8519TIP3   OH225499   1.688   3.849   3.397
 8519TIP3    H125500   1.699   3.822   3.306
 8519TIP3    H225501   1.777   3.861   3.430
 8520TIP3   OH225502   1.795   1.092   0.129
 8520TIP3    H125503   1.746   1.030   0.183
 8520TIP3    H225504   1.757   1.082   0.042
 8521TIP3   OH225505   0.666   0.299   1.618
 8521TIP3    H125506   0.596   0.273   1.559
 8521TIP3    H225507   0.704   0.216   1.648
 8522TIP3   OH225508   2.624   0.400   0.244
 8522TIP3    H125509   2.682   0.476   0.248
 8522TIP3    H225510   2.679   0.326   0.269
 8523TIP3   OH225511   8.105   7.388   1.435
 8523TIP3    H125512   8.161   7.385   1.513
 8523TIP3    H225513   8.164   7.369   1.362
 8524TIP3   OH225514   6.323   0.936   2.978
 8524TIP3    H125515   6.384   0.989   3.030
 8524TIP3    H225516   6.253   0.997   2.955
 8525TIP3   OH225517   5.413   4.746   2.382
 8525TIP3    H125518   5.392   4.705   2.466
 8525TIP3    H225519   5.412   4.840   2.401
 8526TIP3   OH225520   3.945   5.070   3.557
 8526TIP3    H125521   3.945   5.031   3.645
 8526TIP3    H225522   4.020   5.130   3.557
 8527TIP3   OH225523   4.626   3.472   4.943
 8527TIP3    H125524   4.647   3.465   4.850
 8527TIP3    H225525   4.642   3.384   4.977
 8528TIP3   OH225526   6.349   7.635   3.272
 8528TIP3    H125527   6.356   7.661   3.181
 8528TIP3    H225528   6.397   7.552   3.278
 8529TIP3   OH225529   0.029   1.881   1.464
 8529TIP3    H125530   0.055   1.973   1.467
 8529TIP3    H225531   0.111   1.834   1.453
 8530TIP3   OH225532   0.933   4.823   5.238
 8530TIP3    H125533   0.895   4.802   5.152
 8530TIP3    H225534   0.887   4.764   5.298
 8531TIP3   OH225535   2.256   2.793   2.121
 8531TIP3    H125536   2.313   2.812   2.047
 8531TIP3    H225537   2.309   2.813   2.198
 8532TIP3   OH225538   6.189   4.133   6.001
 8532TIP3    H125539   6.216   4.084   5.923
 8532TIP3    H225540   6.217   4.223   5.984
 8533TIP3   OH225541   6.153   2.476   3.027
 8533TIP3    H125542   6.074   2.528   3.042
 8533TIP3    H225543   6.189   2.510   2.945
 8534TIP3   OH225544   7.171   2.024   4.016
 8534TIP3    H125545   7.248   2.003   3.963
 8534TIP3    H225546   7.204   2.026   4.106
 8535TIP3   OH225547   0.353   0.291   4.094
 8535TIP3    H125548   0.415   0.238   4.145
 8535TIP3    H225549   0.362   0.379   4.130
 8536TIP3   OH225550   5.274   0.875   5.523
 8536TIP3    H125551   5.251   0.902   5.612
 8536TIP3    H225552   5.192   0.842   5.487
 8537TIP3   OH225553   3.371   4.013   3.697
 8537TIP3    H125554   3.462   3.987   3.707
 8537TIP3    H225555   3.375   4.107   3.678
 8538TIP3   OH225556   2.775   5.676   1.217
 8538TIP3    H125557   2.739   5.674   1.128
 8538TIP3    H225558   2.758   5.765   1.247
 8539TIP3   OH225559   4.841   3.760   3.030
 8539TIP3    H125560   4.773   3.827   3.030
 8539TIP3    H225561   4.795   3.678   3.010
 8540TIP3   OH225562   3.401   6.383   0.036
 8540TIP3    H125563   3.335   6.419   0.095
 8540TIP3    H225564   3.403   6.290   0.057
 8541TIP3   OH225565   3.990   6.712   0.401
 8541TIP3    H125566   3.931   6.747   0.334
 8541TIP3    H225567   3.984   6.775   0.473
 8542TIP3   OH225568   3.940   4.120   0.992
 8542TIP3    H125569   3.894   4.041   1.021
 8542TIP3    H225570   3.920   4.127   0.899
 8543TIP3   OH225571   6.631   3.504   6.098
 8543TIP3    H125572   6.562   3.543   6.044
 8543TIP3    H225573   6.712   3.527   6.053
 8544TIP3   OH225574   2.166   6.123   2.364
 8544TIP3    H125575   2.188   6.216   2.369
 8544TIP3    H225576   2.251   6.078   2.369
 8545TIP3   OH225577   3.392   3.521   5.298
 8545TIP3    H125578   3.346   3.442   5.267
 8545TIP3    H225579   3.332   3.560   5.361
 8546TIP3   OH225580   7.509   0.767   3.355
 8546TIP3    H125581   7.598   0.801   3.367
 8546TIP3    H225582   7.453   0.833   3.396
 8547TIP3   OH225583   2.036   5.690   5.550
 8547TIP3    H125584   2.127   5.662   5.536
 8547TIP3    H225585   2.042   5.786   5.554
 8548TIP3   OH225586   5.396   3.136   2.578
 8548TIP3    H125587   5.428   3.226   2.570
 8548TIP3    H225588   5.434   3.091   2.503
 8549TIP3   OH225589   2.475   5.336   0.512
 8549TIP3    H125590   2.486   5.274   0.583
 8549TIP3    H225591   2.554   5.391   0.514
 8550TIP3   OH225592   6.140   4.334   0.171
 8550TIP3    H125593   6.212   4.394   0.150
 8550TIP3    H225594   6.065   4.369   0.123
 8551TIP3   OH225595   1.609   5.890   3.427
 8551TIP3    H125596   1.702   5.876   3.449
 8551TIP3    H225597   1.611   5.938   3.344
 8552TIP3   OH225598   5.133   6.390   2.887
 8552TIP3    H125599   5.171   6.398   2.975
 8552TIP3    H225600   5.154   6.301   2.860
 8553TIP3   OH225601   1.982   6.534   4.551
 8553TIP3    H125602   1.919   6.588   4.504
 8553TIP3    H225603   2.062   6.541   4.499
 8554TIP3   OH225604   2.157   4.258   2.851
 8554TIP3    H125605   2.108   4.280   2.930
 8554TIP3    H225606   2.177   4.165   2.861
 8555TIP3   OH225607   2.726   5.384   4.201
 8555TIP3    H125608   2.648   5.329   4.191
 8555TIP3    H225609   2.714   5.428   4.284
 8556TIP3   OH225610   4.155   6.776   6.381
 8556TIP3    H125611   4.072   6.747   6.419
 8556TIP3    H225612   4.200   6.821   6.453
 8557TIP3   OH225613   1.881   0.471   6.636
 8557TIP3    H125614   1.916   0.536   6.697
 8557TIP3    H225615   1.957   0.445   6.583
 8558TIP3   OH225616   3.565   0.848   4.444
 8558TIP3    H125617   3.573   0.898   4.525
 8558TIP3    H225618   3.637   0.785   4.447
 8559TIP3   OH225619   7.053   3.824   1.150
 8559TIP3    H125620   7.132   3.878   1.152
 8559TIP3    H225621   7.016   3.834   1.238
 8560TIP3   OH225622   5.094   3.015   3.190
 8560TIP3    H125623   5.131   2.969   3.266
 8560TIP3    H225624   5.167   3.020   3.128
 8561TIP3   OH225625   7.957   3.209   5.414
 8561TIP3    H125626   7.958   3.236   5.506
 8561TIP3    H225627   7.886   3.144   5.409
 8562TIP3   OH225628   5.492   7.631   3.479
 8562TIP3    H125629   5.459   7.546   3.509
 8562TIP3    H225630   5.427   7.694   3.510
 8563TIP3   OH225631   6.993   4.299   3.952
 8563TIP3    H125632   6.964   4.210   3.972
 8563TIP3    H225633   7.063   4.316   4.015
 8564TIP3   OH225634   0.497   5.666   2.967
 8564TIP3    H125635   0.538   5.708   3.043
 8564TIP3    H225636   0.454   5.588   3.003
 8565TIP3   OH225637   3.827   0.668   0.653
 8565TIP3    H125638   3.799   0.759   0.646
 8565TIP3    H225639   3.777   0.623   0.585
 8566TIP3   OH225640   2.495   4.347   5.364
 8566TIP3    H125641   2.552   4.273   5.384
 8566TIP3    H225642   2.517   4.370   5.274
 8567TIP3   OH225643   0.577   6.551   1.805
 8567TIP3    H125644   0.673   6.547   1.805
 8567TIP3    H225645   0.558   6.633   1.759
 8568TIP3   OH225646   0.310   1.648   0.624
 8568TIP3    H125647   0.404   1.640   0.612
 8568TIP3    H225648   0.297   1.644   0.719
 8569TIP3   OH225649   1.115   0.231   6.406
 8569TIP3    H125650   1.143   0.166   6.341
 8569TIP3    H225651   1.171   0.306   6.390
 8570TIP3   OH225652   1.840   5.048   1.291
 8570TIP3    H125653   1.849   5.059   1.386
 8570TIP3    H225654   1.928   5.026   1.261
 8571TIP3   OH225655   6.347   2.134   2.678
 8571TIP3    H125656   6.261   2.170   2.696
 8571TIP3    H225657   6.381   2.187   2.606
 8572TIP3   OH225658   5.898   5.080   3.862
 8572TIP3    H125659   5.859   5.026   3.931
 8572TIP3    H225660   5.992   5.068   3.872
 8573TIP3   OH225661   3.007   3.576   6.294
 8573TIP3    H125662   2.966   3.562   6.379
 8573TIP3    H225663   3.032   3.488   6.265
 8574TIP3   OH225664   3.159   2.149   2.111
 8574TIP3    H125665   3.174   2.242   2.129
 8574TIP3    H225666   3.192   2.137   2.022
 8575TIP3   OH225667   4.813   4.518   1.783
 8575TIP3    H125668   4.880   4.512   1.851
 8575TIP3    H225669   4.730   4.517   1.831
 8576TIP3   OH225670   4.585   6.517   5.406
 8576TIP3    H125671   4.568   6.426   5.380
 8576TIP3    H225672   4.666   6.540   5.361
 8577TIP3   OH225673   0.692   2.762   5.074
 8577TIP3    H125674   0.713   2.846   5.034
 8577TIP3    H225675   0.652   2.784   5.158
 8578TIP3   OH225676   0.207   2.303   2.238
 8578TIP3    H125677   0.171   2.391   2.234
 8578TIP3    H225678   0.201   2.270   2.149
 8579TIP3   OH225679   5.171   6.395   4.826
 8579TIP3    H125680   5.088   6.377   4.782
 8579TIP3    H225681   5.194   6.311   4.867
 8580TIP3   OH225682   2.463   3.404   4.270
 8580TIP3    H125683   2.456   3.497   4.292
 8580TIP3    H225684   2.537   3.399   4.209
 8581TIP3   OH225685   6.195   4.353   1.315
 8581TIP3    H125686   6.207   4.437   1.359
 8581TIP3    H225687   6.156   4.296   1.382
 8582TIP3   OH225688   0.610   5.905   5.262
 8582TIP3    H125689   0.661   5.985   5.277
 8582TIP3    H225690   0.671   5.848   5.214
 8583TIP3   OH225691   3.483   1.781   0.526
 8583TIP3    H125692   3.391   1.776   0.549
 8583TIP3    H225693   3.489   1.734   0.443
 8584TIP3   OH225694   5.724   0.827   4.922
 8584TIP3    H125695   5.807   0.790   4.952
 8584TIP3    H225696   5.711   0.904   4.977
 8585TIP3   OH225697   8.115   6.654   5.383
 8585TIP3    H125698   8.057   6.582   5.358
 8585TIP3    H225699   8.066   6.701   5.450
 8586TIP3   OH225700   4.915   5.092   0.550
 8586TIP3    H125701   4.962   5.065   0.471
 8586TIP3    H225702   4.914   5.187   0.545
 8587TIP3   OH225703   4.485   1.206   4.999
 8587TIP3    H125704   4.537   1.138   4.958
 8587TIP3    H225705   4.488   1.280   4.938
 8588TIP3   OH225706   0.336   0.367   2.291
 8588TIP3    H125707   0.349   0.366   2.385
 8588TIP3    H225708   0.415   0.408   2.256
 8589TIP3   OH225709   6.721   0.746   5.082
 8589TIP3    H125710   6.713   0.816   5.146
 8589TIP3    H225711   6.744   0.669   5.133
 8590TIP3   OH225712   1.791   6.989   5.460
 8590TIP3    H125713   1.754   6.924   5.520
 8590TIP3    H225714   1.720   7.051   5.445
 8591TIP3   OH225715   8.147   0.098   0.879
 8591TIP3    H125716   8.197   0.109   0.799
 8591TIP3    H225717   8.201   0.140   0.947
 8592TIP3   OH225718   3.756   4.827   5.466
 8592TIP3    H125719   3.784   4.776   5.390
 8592TIP3    H225720   3.669   4.859   5.442
 8593TIP3   OH225721   5.829   5.627   4.326
 8593TIP3    H125722   5.759   5.678   4.286
 8593TIP3    H225723   5.881   5.692   4.374
 8594TIP3   OH225724   7.354   5.345   5.581
 8594TIP3    H125725   7.307   5.407   5.525
 8594TIP3    H225726   7.383   5.396   5.656
 8595TIP3   OH225727   7.332   4.745   2.528
 8595TIP3    H125728   7.410   4.801   2.529
 8595TIP3    H225729   7.312   4.730   2.621
 8596TIP3   OH225730   5.774   2.084   0.658
 8596TIP3    H125731   5.842   2.074   0.724
 8596TIP3    H225732   5.801   2.161   0.608
 8597TIP3   OH225733   4.164   6.933   3.033
 8597TIP3    H125734   4.099   7.000   3.014
 8597TIP3    H225735   4.169   6.931   3.129
 8598TIP3   OH225736   3.019   6.400   0.596
 8598TIP3    H125737   2.937   6.448   0.584
 8598TIP3    H225738   3.080   6.443   0.535
 8599TIP3   OH225739   4.224   7.736   6.257
 8599TIP3    H125740   4.188   7.681   6.327
 8599TIP3    H225741   4.196   7.693   6.176
 8600TIP3   OH225742   4.188   1.564   0.347
 8600TIP3    H125743   4.208   1.657   0.336
 8600TIP3    H225744   4.158   1.557   0.438
 8601TIP3   OH225745   0.261   6.656   3.844
 8601TIP3    H125746   0.224   6.728   3.792
 8601TIP3    H225747   0.214   6.661   3.927
 8602TIP3   OH225748   4.574   1.588   6.587
 8602TIP3    H125749   4.621   1.509   6.611
 8602TIP3    H225750   4.623   1.659   6.628
 8603TIP3   OH225751   4.469   7.669   4.369
 8603TIP3    H125752   4.460   7.756   4.330
 8603TIP3    H225753   4.543   7.678   4.429
 8604TIP3   OH225754   5.359   6.645   6.043
 8604TIP3    H125755   5.349   6.626   6.136
 8604TIP3    H225756   5.414   6.575   6.009
 8605TIP3   OH225757   0.050   4.123   5.026
 8605TIP3    H125758   0.011   4.132   5.113
 8605TIP3    H225759  -0.003   4.055   4.984
 8606TIP3   OH225760   5.768   4.881   0.318
 8606TIP3    H125761   5.697   4.820   0.298
 8606TIP3    H225762   5.734   4.966   0.291
 8607TIP3   OH225763   1.504   3.520   0.450
 8607TIP3    H125764   1.516   3.614   0.468
 8607TIP3    H225765   1.535   3.477   0.530
 8608TIP3   OH225766   7.527   3.234   2.974
 8608TIP3    H125767   7.588   3.168   3.008
 8608TIP3    H225768   7.562   3.259   2.889
 8609TIP3   OH225769   6.403   1.614   3.336
 8609TIP3    H125770   6.407   1.562   3.256
 8609TIP3    H225771   6.309   1.621   3.354
 8610TIP3   OH225772   1.738   1.996   3.122
 8610TIP3    H125773   1.708   1.938   3.052
 8610TIP3    H225774   1.658   2.026   3.165
 8611TIP3   OH225775   4.676   3.243   5.719
 8611TIP3    H125776   4.646   3.323   5.676
 8611TIP3    H225777   4.709   3.188   5.647
 8612TIP3   OH225778   2.332   5.757   3.572
 8612TIP3    H125779   2.385   5.828   3.608
 8612TIP3    H225780   2.390   5.682   3.571
 8613TIP3   OH225781   6.962   4.018   3.138
 8613TIP3    H125782   6.875   4.048   3.163
 8613TIP3    H225783   6.958   4.011   3.043
 8614TIP3   OH225784   2.458   3.800   0.292
 8614TIP3    H125785   2.476   3.754   0.374
 8614TIP3    H225786   2.414   3.881   0.319
 8615TIP3   OH225787   2.368   1.916   5.889
 8615TIP3    H125788   2.298   1.963   5.844
 8615TIP3    H225789   2.329   1.887   5.971
 8616TIP3   OH225790   3.019   6.706   1.422
 8616TIP3    H125791   3.026   6.682   1.330
 8616TIP3    H225792   3.030   6.624   1.470
 8617TIP3   OH225793   8.104   6.170   6.031
 8617TIP3    H125794   8.112   6.110   5.957
 8617TIP3    H225795   8.097   6.112   6.107
 8618TIP3   OH225796   5.484   2.336   5.073
 8618TIP3    H125797   5.413   2.383   5.029
 8618TIP3    H225798   5.556   2.399   5.078
 8619TIP3   OH225799   2.825   0.061   0.080
 8619TIP3    H125800   2.877  -0.019   0.070
 8619TIP3    H225801   2.750   0.049   0.021
 8620TIP3   OH225802   1.701   7.142   0.426
 8620TIP3    H125803   1.703   7.236   0.409
 8620TIP3    H225804   1.790   7.113   0.406
 8621TIP3   OH225805   5.259   0.087   6.761
 8621TIP3    H125806   5.325   0.024   6.731
 8621TIP3    H225807   5.178   0.059   6.720
 8622TIP3   OH225808   3.838   7.265   3.585
 8622TIP3    H125809   3.913   7.314   3.616
 8622TIP3    H225810   3.796   7.231   3.664
 8623TIP3   OH225811   3.940   2.798   3.783
 8623TIP3    H125812   3.903   2.710   3.787
 8623TIP3    H225813   3.874   2.854   3.823
 8624TIP3   OH225814   1.601   6.623   3.027
 8624TIP3    H125815   1.621   6.715   3.045
 8624TIP3    H225816   1.508   6.614   3.049
 8625TIP3   OH225817   5.290   1.236   6.470
 8625TIP3    H125818   5.296   1.204   6.380
 8625TIP3    H225819   5.343   1.316   6.470
 8626TIP3   OH225820   2.197   1.886   1.680
 8626TIP3    H125821   2.271   1.832   1.706
 8626TIP3    H225822   2.146   1.829   1.622
 8627TIP3   OH225823   5.829   0.311   6.147
 8627TIP3    H125824   5.843   0.403   6.168
 8627TIP3    H225825   5.887   0.263   6.206
 8628TIP3   OH225826   3.127   2.144   0.982
 8628TIP3    H125827   3.054   2.082   0.972
 8628TIP3    H225828   3.128   2.164   1.075
 8629TIP3   OH225829   1.529   3.017   1.055
 8629TIP3    H125830   1.590   3.075   1.100
 8629TIP3    H225831   1.528   3.049   0.964
 8630TIP3   OH225832   4.120   3.368   6.631
 8630TIP3    H125833   4.092   3.413   6.711
 8630TIP3    H225834   4.196   3.317   6.658
 8631TIP3   OH225835   4.034   5.324   2.608
 8631TIP3    H125836   3.988   5.241   2.594
 8631TIP3    H225837   3.982   5.369   2.675
 8632TIP3   OH225838   2.440   5.283   3.712
 8632TIP3    H125839   2.347   5.292   3.734
 8632TIP3    H225840   2.442   5.218   3.642
 8633TIP3   OH225841   2.459   1.465   5.935
 8633TIP3    H125842   2.466   1.461   6.031
 8633TIP3    H225843   2.546   1.441   5.904
 8634TIP3   OH225844   2.911   1.850   4.707
 8634TIP3    H125845   2.977   1.783   4.724
 8634TIP3    H225846   2.941   1.926   4.756
 8635TIP3   OH225847   5.691   2.023   1.327
 8635TIP3    H125848   5.642   2.104   1.344
 8635TIP3    H225849   5.727   1.998   1.412
 8636TIP3   OH225850   7.720   4.541   0.031
 8636TIP3    H125851   7.724   4.558  -0.063
 8636TIP3    H225852   7.630   4.512   0.047
 8637TIP3   OH225853   3.091   7.572   1.800
 8637TIP3    H125854   3.175   7.589   1.843
 8637TIP3    H225855   3.105   7.489   1.754
 8638TIP3   OH225856   6.272   1.806   3.108
 8638TIP3    H125857   6.248   1.714   3.107
 8638TIP3    H225858   6.366   1.806   3.092
 8639TIP3   OH225859   0.277   3.307   3.915
 8639TIP3    H125860   0.332   3.240   3.875
 8639TIP3    H225861   0.235   3.261   3.988
 8640TIP3   OH225862   5.095   6.831   6.042
 8640TIP3    H125863   5.013   6.781   6.042
 8640TIP3    H225864   5.141   6.800   6.120
 8641TIP3   OH225865   5.423   5.014   2.492
 8641TIP3    H125866   5.332   5.044   2.495
 8641TIP3    H225867   5.471   5.079   2.543
 8642TIP3   OH225868   6.419   5.923   1.670
 8642TIP3    H125869   6.370   5.841   1.664
 8642TIP3    H225870   6.485   5.916   1.601
 8643TIP3   OH225871   4.579   6.479   1.594
 8643TIP3    H125872   4.675   6.485   1.591
 8643TIP3    H225873   4.560   6.390   1.566
 8644TIP3   OH225874   8.015   4.493   1.073
 8644TIP3    H125875   7.983   4.403   1.084
 8644TIP3    H225876   7.961   4.545   1.133
 8645TIP3   OH225877   6.172   0.799   4.048
 8645TIP3    H125878   6.104   0.817   3.982
 8645TIP3    H225879   6.208   0.714   4.022
 8646TIP3   OH225880   7.154   7.757   6.106
 8646TIP3    H125881   7.144   7.679   6.051
 8646TIP3    H225882   7.134   7.830   6.048
 8647TIP3   OH225883   1.917   6.178   3.585
 8647TIP3    H125884   1.986   6.207   3.644
 8647TIP3    H225885   1.950   6.201   3.497
 8648TIP3   OH225886   2.065   7.398   0.461
 8648TIP3    H125887   2.143   7.366   0.508
 8648TIP3    H225888   2.025   7.319   0.425
 8649TIP3   OH225889   7.263   2.793   2.655
 8649TIP3    H125890   7.246   2.715   2.601
 8649TIP3    H225891   7.177   2.823   2.682
 8650TIP3   OH225892   6.384   1.615   0.256
 8650TIP3    H125893   6.398   1.709   0.251
 8650TIP3    H225894   6.470   1.577   0.237
 8651TIP3   OH225895   4.420   1.710   3.382
 8651TIP3    H125896   4.466   1.626   3.384
 8651TIP3    H225897   4.468   1.764   3.319
 8652TIP3   OH225898   5.935   2.776   6.223
 8652TIP3    H125899   5.869   2.772   6.154
 8652TIP3    H225900   5.887   2.804   6.301
 8653TIP3   OH225901   5.559   1.156   3.309
 8653TIP3    H125902   5.565   1.225   3.375
 8653TIP3    H225903   5.478   1.109   3.331
 8654TIP3   OH225904   5.730   4.442   2.021
 8654TIP3    H125905   5.656   4.475   1.969
 8654TIP3    H225906   5.803   4.501   1.999
 8655TIP3   OH225907   6.507   0.409   1.897
 8655TIP3    H125908   6.471   0.363   1.820
 8655TIP3    H225909   6.568   0.473   1.860
 8656TIP3   OH225910   8.203   7.638   5.005
 8656TIP3    H125911   8.173   7.567   4.948
 8656TIP3    H225912   8.298   7.629   5.006
 8657TIP3   OH225913   7.883   6.353   2.190
 8657TIP3    H125914   7.933   6.285   2.144
 8657TIP3    H225915   7.920   6.353   2.279
 8658TIP3   OH225916   7.693   0.058   1.559
 8658TIP3    H125917   7.663   0.148   1.561
 8658TIP3    H225918   7.775   0.058   1.608
 8659TIP3   OH225919   7.299   3.351   6.056
 8659TIP3    H125920   7.392   3.353   6.035
 8659TIP3    H225921   7.256   3.322   5.975
 8660TIP3   OH225922   3.801   3.705   0.158
 8660TIP3    H125923   3.736   3.776   0.153
 8660TIP3    H225924   3.748   3.625   0.162
 8661TIP3   OH225925   0.246   4.145   2.131
 8661TIP3    H125926   0.215   4.226   2.172
 8661TIP3    H225927   0.183   4.079   2.158
 8662TIP3   OH225928   7.524   6.551   5.215
 8662TIP3    H125929   7.531   6.607   5.292
 8662TIP3    H225930   7.446   6.498   5.231
 8663TIP3   OH225931   6.054   7.017   0.203
 8663TIP3    H125932   6.148   7.009   0.189
 8663TIP3    H225933   6.025   6.929   0.226
 8664TIP3   OH225934   3.373   1.103   3.643
 8664TIP3    H125935   3.440   1.105   3.575
 8664TIP3    H225936   3.423   1.101   3.725
 8665TIP3   OH225937   3.053   2.441   5.410
 8665TIP3    H125938   3.024   2.357   5.375
 8665TIP3    H225939   3.132   2.461   5.360
 8666TIP3   OH225940   4.891   3.361   4.465
 8666TIP3    H125941   4.932   3.276   4.484
 8666TIP3    H225942   4.888   3.365   4.369
 8667TIP3   OH225943   3.832   0.781   5.624
 8667TIP3    H125944   3.835   0.760   5.530
 8667TIP3    H225945   3.741   0.764   5.649
 8668TIP3   OH225946   7.644   0.289   4.062
 8668TIP3    H125947   7.653   0.202   4.025
 8668TIP3    H225948   7.703   0.289   4.138
 8669TIP3   OH225949   4.340   7.191   1.321
 8669TIP3    H125950   4.309   7.254   1.255
 8669TIP3    H225951   4.411   7.237   1.366
 8670TIP3   OH225952   8.273   4.400   3.834
 8670TIP3    H125953   8.238   4.489   3.824
 8670TIP3    H225954   8.364   4.413   3.859
 8671TIP3   OH225955   5.332   6.661   1.773
 8671TIP3    H125956   5.323   6.755   1.790
 8671TIP3    H225957   5.308   6.620   1.856
 8672TIP3   OH225958   4.621   0.740   6.263
 8672TIP3    H125959   4.595   0.665   6.315
 8672TIP3    H225960   4.542   0.794   6.255
 8673TIP3   OH225961   0.511   2.861   2.362
 8673TIP3    H125962   0.476   2.799   2.298
 8673TIP3    H225963   0.456   2.939   2.353
 8674TIP3   OH225964   2.051   3.372   4.911
 8674TIP3    H125965   2.044   3.418   4.995
 8674TIP3    H225966   2.144   3.348   4.905
 8675TIP3   OH225967   0.843   0.362   5.192
 8675TIP3    H125968   0.862   0.269   5.206
 8675TIP3    H225969   0.828   0.369   5.097
 8676TIP3   OH225970   2.866   3.722   4.138
 8676TIP3    H125971   2.927   3.778   4.187
 8676TIP3    H225972   2.785   3.772   4.135
 8677TIP3   OH225973   3.371   0.625   4.470
 8677TIP3    H125974   3.398   0.552   4.526
 8677TIP3    H225975   3.436   0.693   4.487
 8678TIP3   OH225976   6.726   2.623   4.607
 8678TIP3    H125977   6.808   2.600   4.651
 8678TIP3    H225978   6.669   2.548   4.621
 8679TIP3   OH225979   7.199   6.441   0.830
 8679TIP3    H125980   7.150   6.506   0.882
 8679TIP3    H225981   7.162   6.357   0.856
 8680TIP3   OH225982   0.556   4.535   6.566
 8680TIP3    H125983   0.611   4.613   6.551
 8680TIP3    H225984   0.616   4.462   6.551
 8681TIP3   OH225985   4.722   3.218   1.206
 8681TIP3    H125986   4.788   3.268   1.254
 8681TIP3    H225987   4.724   3.131   1.245
 8682TIP3   OH225988   7.259   0.313   5.872
 8682TIP3    H125989   7.270   0.389   5.815
 8682TIP3    H225990   7.301   0.241   5.825
 8683TIP3   OH225991   4.607   6.895   1.349
 8683TIP3    H125992   4.688   6.852   1.378
 8683TIP3    H225993   4.594   6.863   1.260
 8684TIP3   OH225994   5.875   7.140   4.453
 8684TIP3    H125995   5.847   7.215   4.400
 8684TIP3    H225996   5.953   7.107   4.408
 8685TIP3   OH225997   6.780   3.656   2.086
 8685TIP3    H125998   6.839   3.679   2.157
 8685TIP3    H225999   6.697   3.636   2.129
 8686TIP3   OH226000   4.920   4.811   2.076
 8686TIP3    H126001   4.937   4.871   2.149
 8686TIP3    H226002   4.835   4.773   2.097
 8687TIP3   OH226003   2.249   2.452   0.511
 8687TIP3    H126004   2.305   2.374   0.512
 8687TIP3    H226005   2.184   2.435   0.443
 8688TIP3   OH226006   3.585   7.604   1.270
 8688TIP3    H126007   3.615   7.694   1.261
 8688TIP3    H226008   3.493   7.606   1.241
 8689TIP3   OH226009   5.322   4.276   6.210
 8689TIP3    H126010   5.364   4.361   6.210
 8689TIP3    H226011   5.229   4.295   6.220
 8690TIP3   OH226012   2.662   4.383   2.815
 8690TIP3    H126013   2.587   4.357   2.868
 8690TIP3    H226014   2.726   4.415   2.879
 8691TIP3   OH226015   0.169   7.063   4.362
 8691TIP3    H126016   0.174   7.149   4.319
 8691TIP3    H226017   0.255   7.024   4.347
 8692TIP3   OH226018   1.557   6.521   3.950
 8692TIP3    H126019   1.468   6.551   3.930
 8692TIP3    H226020   1.553   6.426   3.940
 8693TIP3   OH226021   4.861   4.895   0.199
 8693TIP3    H126022   4.775   4.934   0.181
 8693TIP3    H226023   4.884   4.849   0.118
 8694TIP3   OH226024   2.338   1.182   3.980
 8694TIP3    H126025   2.349   1.095   4.019
 8694TIP3    H226026   2.421   1.227   3.998
 8695TIP3   OH226027   0.271   5.376   1.900
 8695TIP3    H126028   0.327   5.345   1.971
 8695TIP3    H226029   0.206   5.307   1.888
 8696TIP3   OH226030   2.638   7.428   6.092
 8696TIP3    H126031   2.701   7.484   6.046
 8696TIP3    H226032   2.558   7.436   6.041
 8697TIP3   OH226033   4.742   5.125   4.018
 8697TIP3    H126034   4.777   5.081   3.941
 8697TIP3    H226035   4.698   5.203   3.984
 8698TIP3   OH226036   5.327   1.220   5.208
 8698TIP3    H126037   5.243   1.181   5.187
 8698TIP3    H226038   5.305   1.301   5.253
 8699TIP3   OH226039   7.557   1.593   0.190
 8699TIP3    H126040   7.614   1.516   0.179
 8699TIP3    H226041   7.505   1.572   0.267
 8700TIP3   OH226042   1.207   3.549   3.012
 8700TIP3    H126043   1.294   3.586   3.026
 8700TIP3    H226044   1.152   3.625   2.990
 8701TIP3   OH226045   6.043   7.616   4.672
 8701TIP3    H126046   6.052   7.529   4.635
 8701TIP3    H226047   6.087   7.610   4.757
 8702TIP3   OH226048   0.784   6.065   1.633
 8702TIP3    H126049   0.835   6.027   1.561
 8702TIP3    H226050   0.850   6.101   1.692
 8703TIP3   OH226051   0.316   4.495   0.740
 8703TIP3    H126052   0.283   4.531   0.822
 8703TIP3    H226053   0.286   4.405   0.738
 8704TIP3   OH226054   6.597   6.430   4.555
 8704TIP3    H126055   6.611   6.522   4.532
 8704TIP3    H226056   6.502   6.418   4.551
 8705TIP3   OH226057   2.319   7.583   1.194
 8705TIP3    H126058   2.226   7.563   1.192
 8705TIP3    H226059   2.329   7.658   1.135
 8706TIP3   OH226060   3.139   6.484   3.384
 8706TIP3    H126061   3.148   6.575   3.355
 8706TIP3    H226062   3.220   6.466   3.432
 8707TIP3   OH226063   6.860   6.309   1.347
 8707TIP3    H126064   6.786   6.255   1.320
 8707TIP3    H226065   6.926   6.247   1.377
 8708TIP3   OH226066   5.310   7.545   0.540
 8708TIP3    H126067   5.318   7.451   0.551
 8708TIP3    H226068   5.391   7.581   0.578
 8709TIP3   OH226069   2.424   4.085   3.328
 8709TIP3    H126070   2.337   4.045   3.322
 8709TIP3    H226071   2.408   4.179   3.316
 8710TIP3   OH226072   5.960   3.710   5.613
 8710TIP3    H126073   5.931   3.630   5.569
 8710TIP3    H226074   5.970   3.774   5.542
 8711TIP3   OH226075   1.139   5.541   2.749
 8711TIP3    H126076   1.210   5.492   2.709
 8711TIP3    H226077   1.122   5.613   2.688
 8712TIP3   OH226078   1.296   1.884   6.427
 8712TIP3    H126079   1.280   1.975   6.451
 8712TIP3    H226080   1.347   1.848   6.499
 8713TIP3   OH226081   2.364   5.357   4.619
 8713TIP3    H126082   2.269   5.342   4.623
 8713TIP3    H226083   2.390   5.368   4.711
 8714TIP3   OH226084   3.773   1.391   3.220
 8714TIP3    H126085   3.836   1.357   3.283
 8714TIP3    H226086   3.704   1.325   3.217
 8715TIP3   OH226087   5.544   2.381   6.612
 8715TIP3    H126088   5.632   2.418   6.603
 8715TIP3    H226089   5.556   2.303   6.667
 8716TIP3   OH226090   2.034   5.239   4.952
 8716TIP3    H126091   2.073   5.246   5.040
 8716TIP3    H226092   1.967   5.171   4.961
 8717TIP3   OH226093   5.167   6.512   0.229
 8717TIP3    H126094   5.105   6.464   0.174
 8717TIP3    H226095   5.253   6.484   0.198
 8718TIP3   OH226096   8.062   0.381   1.199
 8718TIP3    H126097   8.104   0.340   1.124
 8718TIP3    H226098   8.000   0.444   1.160
 8719TIP3   OH226099   4.052   3.143   5.024
 8719TIP3    H126100   4.009   3.060   5.007
 8719TIP3    H226101   3.984   3.209   5.008
 8720TIP3   OH226102   2.469   0.527   5.114
 8720TIP3    H126103   2.555   0.550   5.149
 8720TIP3    H226104   2.484   0.445   5.067
 8721TIP3   OH226105   7.712   7.203   2.713
 8721TIP3    H126106   7.623   7.191   2.680
 8721TIP3    H226107   7.766   7.213   2.634
 8722TIP3   OH226108   0.601   4.633   0.301
 8722TIP3    H126109   0.672   4.697   0.302
 8722TIP3    H226110   0.522   4.686   0.311
 8723TIP3   OH226111   4.515   1.879   1.892
 8723TIP3    H126112   4.480   1.871   1.803
 8723TIP3    H226113   4.608   1.896   1.880
 8724TIP3   OH226114   8.146   6.651   5.096
 8724TIP3    H126115   8.088   6.585   5.135
 8724TIP3    H226116   8.180   6.700   5.171
 8725TIP3   OH226117   3.631   1.551   4.728
 8725TIP3    H126118   3.538   1.572   4.737
 8725TIP3    H226119   3.636   1.457   4.743
 8726TIP3   OH226120   0.813   3.099   3.441
 8726TIP3    H126121   0.780   3.010   3.446
 8726TIP3    H226122   0.860   3.103   3.358
 8727TIP3   OH226123   5.764   5.495   2.902
 8727TIP3    H126124   5.756   5.409   2.861
 8727TIP3    H226125   5.717   5.486   2.985
 8728TIP3   OH226126   6.671   5.950   5.019
 8728TIP3    H126127   6.595   5.928   4.966
 8728TIP3    H226128   6.742   5.960   4.955
 8729TIP3   OH226129   2.855   7.135   1.267
 8729TIP3    H126130   2.870   7.094   1.352
 8729TIP3    H226131   2.943   7.142   1.228
 8730TIP3   OH226132   3.817   2.866   1.881
 8730TIP3    H126133   3.898   2.911   1.906
 8730TIP3    H226134   3.762   2.934   1.842
 8731TIP3   OH226135   3.361   2.901   4.394
 8731TIP3    H126136   3.349   2.945   4.479
 8731TIP3    H226137   3.320   2.815   4.406
 8732TIP3   OH226138   5.848   7.753   5.305
 8732TIP3    H126139   5.805   7.762   5.220
 8732TIP3    H226140   5.776   7.745   5.367
 8733TIP3   OH226141   6.089   2.311   0.479
 8733TIP3    H126142   6.123   2.236   0.528
 8733TIP3    H226143   6.155   2.329   0.412
 8734TIP3   OH226144   5.929   6.087   0.214
 8734TIP3    H126145   5.980   6.129   0.283
 8734TIP3    H226146   5.843   6.072   0.254
 8735TIP3   OH226147   4.124   0.669   2.792
 8735TIP3    H126148   4.078   0.667   2.708
 8735TIP3    H226149   4.105   0.584   2.832
 8736TIP3   OH226150   8.160   7.353   0.832
 8736TIP3    H126151   8.244   7.350   0.878
 8736TIP3    H226152   8.115   7.429   0.868
 8737TIP3   OH226153   6.562   6.649   5.538
 8737TIP3    H126154   6.613   6.596   5.477
 8737TIP3    H226155   6.627   6.698   5.588
 8738TIP3   OH226156   5.721   1.586   2.027
 8738TIP3    H126157   5.776   1.632   1.964
 8738TIP3    H226158   5.742   1.493   2.014
 8739TIP3   OH226159   6.937   2.548   4.764
 8739TIP3    H126160   6.964   2.484   4.829
 8739TIP3    H226161   6.971   2.631   4.796
 8740TIP3   OH226162   0.474   2.570   4.601
 8740TIP3    H126163   0.415   2.577   4.676
 8740TIP3    H226164   0.557   2.607   4.631
 8741TIP3   OH226165   3.926   3.909   0.410
 8741TIP3    H126166   4.000   3.888   0.466
 8741TIP3    H226167   3.957   3.889   0.321
 8742TIP3   OH226168   3.141   0.062   3.097
 8742TIP3    H126169   3.108   0.148   3.123
 8742TIP3    H226170   3.062   0.014   3.071
 8743TIP3   OH226171   3.684   6.228   4.188
 8743TIP3    H126172   3.648   6.225   4.099
 8743TIP3    H226173   3.747   6.156   4.191
 8744TIP3   OH226174   2.853   5.572   0.645
 8744TIP3    H126175   2.922   5.566   0.711
 8744TIP3    H226176   2.833   5.482   0.622
 8745TIP3   OH226177   0.487   1.201   6.579
 8745TIP3    H126178   0.550   1.131   6.558
 8745TIP3    H226179   0.426   1.161   6.641
 8746TIP3   OH226180   2.062   1.971   2.893
 8746TIP3    H126181   1.991   1.969   2.828
 8746TIP3    H226182   2.105   2.056   2.879
 8747TIP3   OH226183   1.706   1.376   3.526
 8747TIP3    H126184   1.786   1.407   3.484
 8747TIP3    H226185   1.730   1.290   3.562
 8748TIP3   OH226186   1.910   3.487   0.233
 8748TIP3    H126187   1.821   3.460   0.208
 8748TIP3    H226188   1.967   3.442   0.170
 8749TIP3   OH226189   4.444   3.637   6.345
 8749TIP3    H126190   4.475   3.647   6.255
 8749TIP3    H226191   4.465   3.546   6.367
 8750TIP3   OH226192   4.441   2.428   0.495
 8750TIP3    H126193   4.457   2.491   0.564
 8750TIP3    H226194   4.484   2.348   0.524
 8751TIP3   OH226195   1.897   1.483   4.715
 8751TIP3    H126196   1.890   1.399   4.759
 8751TIP3    H226197   1.824   1.535   4.750
 8752TIP3   OH226198   4.072   2.912   0.023
 8752TIP3    H126199   4.013   2.936  -0.049
 8752TIP3    H226200   4.069   2.987   0.082
 8753TIP3   OH226201   0.700   6.909   2.000
 8753TIP3    H126202   0.762   6.970   2.040
 8753TIP3    H226203   0.687   6.942   1.911
 8754TIP3   OH226204   3.201   0.511   0.229
 8754TIP3    H126205   3.155   0.569   0.291
 8754TIP3    H226206   3.219   0.568   0.154
 8755TIP3   OH226207   7.684   2.844   1.105
 8755TIP3    H126208   7.750   2.913   1.103
 8755TIP3    H226209   7.716   2.782   1.171
 8756TIP3   OH226210   2.760   1.052   2.361
 8756TIP3    H126211   2.685   1.105   2.388
 8756TIP3    H226212   2.723   0.983   2.307
 8757TIP3   OH226213   3.890   3.112   3.779
 8757TIP3    H126214   3.860   3.147   3.696
 8757TIP3    H226215   3.819   3.056   3.810
 8758TIP3   OH226216   1.844   3.593   4.809
 8758TIP3    H126217   1.859   3.686   4.824
 8758TIP3    H226218   1.932   3.554   4.812
 8759TIP3   OH226219   7.658   1.976   2.578
 8759TIP3    H126220   7.725   1.971   2.646
 8759TIP3    H226221   7.694   2.037   2.513
 8760TIP3   OH226222   2.493   1.394   2.704
 8760TIP3    H126223   2.519   1.302   2.717
 8760TIP3    H226224   2.542   1.421   2.626
 8761TIP3   OH226225   0.644   0.313   3.908
 8761TIP3    H126226   0.583   0.325   3.836
 8761TIP3    H226227   0.642   0.396   3.955
 8762TIP3   OH226228   7.378   1.010   5.707
 8762TIP3    H126229   7.449   1.073   5.694
 8762TIP3    H226230   7.352   0.985   5.618
 8763TIP3   OH226231   2.172   5.939   4.366
 8763TIP3    H126232   2.155   5.942   4.460
 8763TIP3    H226233   2.158   6.028   4.336
 8764TIP3   OH226234   0.155   7.271   3.981
 8764TIP3    H126235   0.081   7.222   4.018
 8764TIP3    H226236   0.190   7.213   3.913
 8765TIP3   OH226237   4.451   1.257   3.814
 8765TIP3    H126238   4.420   1.345   3.835
 8765TIP3    H226239   4.372   1.205   3.801
 8766TIP3   OH226240   2.046   0.493   6.204
 8766TIP3    H126241   2.040   0.426   6.135
 8766TIP3    H226242   2.016   0.448   6.283
 8767TIP3   OH226243   2.220   6.714   1.749
 8767TIP3    H126244   2.234   6.642   1.811
 8767TIP3    H226245   2.130   6.702   1.718
 8768TIP3   OH226246   7.510   6.993   4.797
 8768TIP3    H126247   7.463   6.913   4.774
 8768TIP3    H226248   7.442   7.055   4.823
 8769TIP3   OH226249   5.223   5.835   3.974
 8769TIP3    H126250   5.164   5.911   3.974
 8769TIP3    H226251   5.225   5.806   4.065
 8770TIP3   OH226252   6.613   6.308   3.866
 8770TIP3    H126253   6.562   6.370   3.813
 8770TIP3    H226254   6.557   6.290   3.942
 8771TIP3   OH226255   0.184   1.310   2.133
 8771TIP3    H126256   0.115   1.354   2.084
 8771TIP3    H226257   0.247   1.379   2.154
 8772TIP3   OH226258   5.892   4.319   1.694
 8772TIP3    H126259   5.848   4.376   1.631
 8772TIP3    H226260   5.823   4.261   1.726
 8773TIP3   OH226261   0.674   0.016   5.058
 8773TIP3    H126262   0.641   0.024   5.147
 8773TIP3    H226263   0.705   0.104   5.036
 8774TIP3   OH226264   3.961   7.458   5.865
 8774TIP3    H126265   3.979   7.551   5.848
 8774TIP3    H226266   3.949   7.419   5.779
 8775TIP3   OH226267   3.283   1.845   0.969
 8775TIP3    H126268   3.294   1.922   0.913
 8775TIP3    H226269   3.255   1.776   0.910
 8776TIP3   OH226270   7.278   2.284   3.159
 8776TIP3    H126271   7.218   2.229   3.110
 8776TIP3    H226272   7.308   2.350   3.096
 8777TIP3   OH226273   2.349   4.781   4.559
 8777TIP3    H126274   2.273   4.788   4.617
 8777TIP3    H226275   2.311   4.772   4.471
 8778TIP3   OH226276   1.486   6.966   1.309
 8778TIP3    H126277   1.493   7.056   1.277
 8778TIP3    H226278   1.476   6.914   1.230
 8779TIP3   OH226279   4.580   6.187   2.503
 8779TIP3    H126280   4.572   6.119   2.571
 8779TIP3    H226281   4.621   6.142   2.429
 8780TIP3   OH226282   5.944   5.411   2.149
 8780TIP3    H126283   5.936   5.448   2.236
 8780TIP3    H226284   5.895   5.329   2.152
 8781TIP3   OH226285   1.861   4.265   2.081
 8781TIP3    H126286   1.891   4.334   2.139
 8781TIP3    H226287   1.832   4.311   2.002
 8782TIP3   OH226288   3.605   7.126   5.281
 8782TIP3    H126289   3.659   7.160   5.353
 8782TIP3    H226290   3.570   7.044   5.315
 8783TIP3   OH226291   6.080   7.699   2.912
 8783TIP3    H126292   5.988   7.721   2.898
 8783TIP3    H226293   6.123   7.719   2.829
 8784TIP3   OH226294   6.264   6.044   4.497
 8784TIP3    H126295   6.206   6.037   4.573
 8784TIP3    H226296   6.286   5.954   4.474
 8785TIP3   OH226297   4.420   4.695   5.658
 8785TIP3    H126298   4.420   4.698   5.563
 8785TIP3    H226299   4.487   4.759   5.684
 8786TIP3   OH226300   0.956   6.218   0.145
 8786TIP3    H126301   1.044   6.232   0.181
 8786TIP3    H226302   0.911   6.166   0.211
 8787TIP3   OH226303   4.580   2.638   1.681
 8787TIP3    H126304   4.558   2.601   1.766
 8787TIP3    H226305   4.670   2.610   1.664
 8788TIP3   OH226306   4.549   6.981   4.266
 8788TIP3    H126307   4.493   6.937   4.202
 8788TIP3    H226308   4.537   6.931   4.347
 8789TIP3   OH226309   5.298   7.410   5.776
 8789TIP3    H126310   5.299   7.466   5.699
 8789TIP3    H226311   5.219   7.356   5.765
 8790TIP3   OH226312   4.221   1.734   5.535
 8790TIP3    H126313   4.249   1.645   5.515
 8790TIP3    H226314   4.141   1.746   5.483
 8791TIP3   OH226315   3.399   6.550   4.353
 8791TIP3    H126316   3.454   6.614   4.309
 8791TIP3    H226317   3.354   6.503   4.282
 8792TIP3   OH226318   7.687   4.259   2.587
 8792TIP3    H126319   7.717   4.170   2.568
 8792TIP3    H226320   7.636   4.284   2.510
 8793TIP3   OH226321   2.121   3.147   1.448
 8793TIP3    H126322   2.102   3.059   1.480
 8793TIP3    H226323   2.122   3.138   1.353
 8794TIP3   OH226324   1.514   6.555   1.256
 8794TIP3    H126325   1.560   6.638   1.246
 8794TIP3    H226326   1.563   6.508   1.323
 8795TIP3   OH226327   5.591   2.126   4.848
 8795TIP3    H126328   5.599   2.044   4.897
 8795TIP3    H226329   5.576   2.193   4.915
 8796TIP3   OH226330   3.943   2.923   6.262
 8796TIP3    H126331   3.942   3.017   6.279
 8796TIP3    H226332   3.854   2.894   6.282
 8797TIP3   OH226333   4.231   6.063   2.453
 8797TIP3    H126334   4.223   5.968   2.462
 8797TIP3    H226335   4.218   6.096   2.542
 8798TIP3   OH226336   0.273   1.428   3.440
 8798TIP3    H126337   0.331   1.447   3.366
 8798TIP3    H226338   0.332   1.419   3.515
 8799TIP3   OH226339   0.791   4.777   0.579
 8799TIP3    H126340   0.800   4.775   0.484
 8799TIP3    H226341   0.754   4.864   0.598
 8800TIP3   OH226342   3.330   2.781   1.645
 8800TIP3    H126343   3.273   2.777   1.568
 8800TIP3    H226344   3.307   2.864   1.687
 8801TIP3   OH226345   2.601   5.454   4.443
 8801TIP3    H126346   2.655   5.387   4.485
 8801TIP3    H226347   2.512   5.421   4.450
 8802TIP3   OH226348   6.097   0.087   0.598
 8802TIP3    H126349   6.160   0.017   0.587
 8802TIP3    H226350   6.094   0.131   0.513
 8803TIP3   OH226351   3.321   2.053   0.782
 8803TIP3    H126352   3.254   2.052   0.713
 8803TIP3    H226353   3.290   2.120   0.844
 8804TIP3   OH226354   8.226   4.651   1.001
 8804TIP3    H126355   8.149   4.595   1.012
 8804TIP3    H226356   8.206   4.705   0.926
 8805TIP3   OH226357   5.140   3.904   4.805
 8805TIP3    H126358   5.094   3.911   4.889
 8805TIP3    H226359   5.159   3.811   4.796
 8806TIP3   OH226360   5.950   0.359   3.449
 8806TIP3    H126361   6.016   0.427   3.445
 8806TIP3    H226362   5.896   0.373   3.371
 8807TIP3   OH226363   5.690   1.079   2.797
 8807TIP3    H126364   5.622   1.024   2.836
 8807TIP3    H226365   5.694   1.156   2.853
 8808TIP3   OH226366   4.948   1.902   0.685
 8808TIP3    H126367   4.926   1.995   0.675
 8808TIP3    H226368   4.867   1.855   0.668
 8809TIP3   OH226369   1.981   2.282   5.769
 8809TIP3    H126370   1.895   2.248   5.794
 8809TIP3    H226371   2.010   2.330   5.846
 8810TIP3   OH226372   1.391   0.285   5.110
 8810TIP3    H126373   1.391   0.306   5.017
 8810TIP3    H226374   1.374   0.190   5.112
 8811TIP3   OH226375   1.831   6.036   1.171
 8811TIP3    H126376   1.815   6.119   1.126
 8811TIP3    H226377   1.870   5.980   1.103
 8812TIP3   OH226378   0.489   6.233   6.297
 8812TIP3    H126379   0.526   6.246   6.210
 8812TIP3    H226380   0.521   6.146   6.324
 8813TIP3   OH226381   2.390   3.671   2.716
 8813TIP3    H126382   2.308   3.706   2.752
 8813TIP3    H226383   2.441   3.749   2.694
 8814TIP3   OH226384   6.785   4.793   4.418
 8814TIP3    H126385   6.759   4.883   4.438
 8814TIP3    H226386   6.835   4.799   4.337
 8815TIP3   OH226387   6.818   5.661   4.481
 8815TIP3    H126388   6.894   5.712   4.452
 8815TIP3    H226389   6.856   5.580   4.516
 8816TIP3   OH226390   1.178   6.061   6.200
 8816TIP3    H126391   1.140   6.108   6.126
 8816TIP3    H226392   1.191   5.972   6.168
 8817TIP3   OH226393   4.832   6.366   4.107
 8817TIP3    H126394   4.751   6.408   4.135
 8817TIP3    H226395   4.848   6.298   4.173
 8818TIP3   OH226396   1.194   7.633   5.946
 8818TIP3    H126397   1.260   7.592   6.003
 8818TIP3    H226398   1.242   7.660   5.868
 8819TIP3   OH226399   5.838   1.093   5.365
 8819TIP3    H126400   5.810   1.117   5.453
 8819TIP3    H226401   5.930   1.069   5.375
 8820TIP3   OH226402   4.126   1.252   0.771
 8820TIP3    H126403   4.103   1.251   0.678
 8820TIP3    H226404   4.136   1.160   0.794
 8821TIP3   OH226405   6.546   7.478   6.365
 8821TIP3    H126406   6.543   7.518   6.452
 8821TIP3    H226407   6.485   7.530   6.313
 8822TIP3   OH226408   3.374   2.911   2.302
 8822TIP3    H126409   3.319   2.988   2.314
 8822TIP3    H226410   3.435   2.936   2.232
 8823TIP3   OH226411   6.333   1.687   1.870
 8823TIP3    H126412   6.380   1.764   1.902
 8823TIP3    H226413   6.367   1.614   1.923
 8824TIP3   OH226414   3.424   5.021   6.078
 8824TIP3    H126415   3.353   5.034   6.014
 8824TIP3    H226416   3.381   4.980   6.153
 8825TIP3   OH226417   0.513   5.868   4.673
 8825TIP3    H126418   0.422   5.874   4.699
 8825TIP3    H226419   0.562   5.902   4.748
 8826TIP3   OH226420   5.002   3.061   5.041
 8826TIP3    H126421   5.032   3.063   4.950
 8826TIP3    H226422   4.946   3.138   5.050
 8827TIP3   OH226423   6.236   2.090   4.093
 8827TIP3    H126424   6.153   2.061   4.130
 8827TIP3    H226425   6.246   2.038   4.013
 8828TIP3   OH226426   3.142   3.871   4.662
 8828TIP3    H126427   3.164   3.909   4.747
 8828TIP3    H226428   3.063   3.917   4.635
 8829TIP3   OH226429   5.832   4.824   1.226
 8829TIP3    H126430   5.837   4.730   1.205
 8829TIP3    H226431   5.851   4.868   1.144
 8830TIP3   OH226432   0.516   4.817   6.252
 8830TIP3    H126433   0.610   4.832   6.246
 8830TIP3    H226434   0.479   4.903   6.268
 8831TIP3   OH226435   7.556   2.342   5.381
 8831TIP3    H126436   7.612   2.275   5.418
 8831TIP3    H226437   7.470   2.327   5.420
 8832TIP3   OH226438   6.081   7.071   5.285
 8832TIP3    H126439   6.041   6.985   5.282
 8832TIP3    H226440   6.013   7.129   5.320
 8833TIP3   OH226441   5.685   4.769   4.680
 8833TIP3    H126442   5.711   4.847   4.631
 8833TIP3    H226443   5.766   4.720   4.693
 8834TIP3   OH226444   7.652   1.745   3.922
 8834TIP3    H126445   7.714   1.762   3.993
 8834TIP3    H226446   7.616   1.659   3.942
 8835TIP3   OH226447   7.572   1.749   2.909
 8835TIP3    H126448   7.509   1.778   2.843
 8835TIP3    H226449   7.536   1.781   2.992
 8836TIP3   OH226450   4.222   6.552   3.703
 8836TIP3    H126451   4.246   6.607   3.628
 8836TIP3    H226452   4.230   6.462   3.670
 8837TIP3   OH226453   3.842   2.617   1.022
 8837TIP3    H126454   3.889   2.698   1.042
 8837TIP3    H226455   3.786   2.602   1.098
 8838TIP3   OH226456   3.164   5.507   5.562
 8838TIP3    H126457   3.132   5.564   5.632
 8838TIP3    H226458   3.253   5.485   5.589
 8839TIP3   OH226459   4.468   4.325   4.329
 8839TIP3    H126460   4.421   4.359   4.405
 8839TIP3    H226461   4.403   4.321   4.259
 8840TIP3   OH226462   2.971   1.864   0.588
 8840TIP3    H126463   2.933   1.899   0.668
 8840TIP3    H226464   2.906   1.883   0.520
 8841TIP3   OH226465   0.108   6.608   1.544
 8841TIP3    H126466   0.153   6.638   1.623
 8841TIP3    H226467   0.035   6.669   1.533
 8842TIP3   OH226468   5.158   7.048   4.930
 8842TIP3    H126469   5.097   7.045   4.857
 8842TIP3    H226470   5.104   7.069   5.006
 8843TIP3   OH226471   0.471   2.274   6.330
 8843TIP3    H126472   0.551   2.221   6.321
 8843TIP3    H226473   0.467   2.296   6.423
 8844TIP3   OH226474   7.805   0.990   4.008
 8844TIP3    H126475   7.834   0.954   4.092
 8844TIP3    H226476   7.732   0.935   3.982
 8845TIP3   OH226477   5.111   2.473   6.627
 8845TIP3    H126478   5.061   2.530   6.569
 8845TIP3    H226479   5.045   2.417   6.670
 8846TIP3   OH226480   4.428   4.298   5.800
 8846TIP3    H126481   4.393   4.351   5.872
 8846TIP3    H226482   4.412   4.208   5.827
 8847TIP3   OH226483   3.448   6.424   0.341
 8847TIP3    H126484   3.501   6.374   0.278
 8847TIP3    H226485   3.474   6.388   0.426
 8848TIP3   OH226486   5.191   1.157   6.225
 8848TIP3    H126487   5.182   1.240   6.178
 8848TIP3    H226488   5.114   1.106   6.201
 8849TIP3   OH226489   1.680   2.206   1.850
 8849TIP3    H126490   1.766   2.181   1.816
 8849TIP3    H226491   1.617   2.162   1.793
 8850TIP3   OH226492   7.987   1.651   6.277
 8850TIP3    H126493   8.009   1.741   6.253
 8850TIP3    H226494   7.979   1.653   6.373
 8851TIP3   OH226495   0.882   5.121   6.461
 8851TIP3    H126496   0.799   5.095   6.500
 8851TIP3    H226497   0.929   5.165   6.531
 8852TIP3   OH226498   8.232   6.483   0.214
 8852TIP3    H126499   8.191   6.487   0.127
 8852TIP3    H226500   8.317   6.441   0.198
 8853TIP3   OH226501   5.109   0.495   4.916
 8853TIP3    H126502   5.178   0.555   4.888
 8853TIP3    H226503   5.155   0.417   4.947
 8854TIP3   OH226504   3.849   1.337   3.499
 8854TIP3    H126505   3.899   1.330   3.580
 8854TIP3    H226506   3.759   1.349   3.527
 8855TIP3   OH226507   5.123   1.671   2.445
 8855TIP3    H126508   5.213   1.672   2.478
 8855TIP3    H226509   5.119   1.594   2.389
 8856TIP3   OH226510   3.390   4.643   3.404
 8856TIP3    H126511   3.335   4.703   3.353
 8856TIP3    H226512   3.421   4.578   3.341
 8857TIP3   OH226513   3.356   2.643   0.888
 8857TIP3    H126514   3.367   2.605   0.975
 8857TIP3    H226515   3.410   2.722   0.890
 8858TIP3   OH226516   6.331   3.689   1.336
 8858TIP3    H126517   6.287   3.643   1.407
 8858TIP3    H226518   6.262   3.710   1.273
 8859TIP3   OH226519   2.627   7.760   0.505
 8859TIP3    H126520   2.686   7.759   0.430
 8859TIP3    H226521   2.635   7.849   0.540
 8860TIP3   OH226522   3.772   3.915   6.299
 8860TIP3    H126523   3.817   3.880   6.222
 8860TIP3    H226524   3.680   3.895   6.284
 8861TIP3   OH226525   3.931   3.971   4.811
 8861TIP3    H126526   3.893   3.911   4.875
 8861TIP3    H226527   4.024   3.949   4.810
 8862TIP3   OH226528   3.554   6.973   3.732
 8862TIP3    H126529   3.611   7.005   3.803
 8862TIP3    H226530   3.548   7.046   3.671
 8863TIP3   OH226531   0.485   6.226   5.815
 8863TIP3    H126532   0.515   6.307   5.856
 8863TIP3    H226533   0.548   6.210   5.745
 8864TIP3   OH226534   4.713   4.612   0.004
 8864TIP3    H126535   4.668   4.660   0.074
 8864TIP3    H226536   4.793   4.661  -0.011
 8865TIP3   OH226537   7.951   7.030   3.154
 8865TIP3    H126538   7.957   7.054   3.061
 8865TIP3    H226539   8.012   6.957   3.163
 8866TIP3   OH226540   7.652   4.785   4.895
 8866TIP3    H126541   7.577   4.838   4.868
 8866TIP3    H226542   7.725   4.819   4.842
 8867TIP3   OH226543   1.775   1.498   3.164
 8867TIP3    H126544   1.760   1.583   3.204
 8867TIP3    H226545   1.713   1.493   3.092
 8868TIP3   OH226546   7.994   5.177   1.395
 8868TIP3    H126547   8.016   5.258   1.348
 8868TIP3    H226548   7.933   5.206   1.463
 8869TIP3   OH226549   2.455   3.675   4.323
 8869TIP3    H126550   2.530   3.706   4.374
 8869TIP3    H226551   2.379   3.700   4.374
 8870TIP3   OH226552   4.381   4.528   0.881
 8870TIP3    H126553   4.288   4.503   0.882
 8870TIP3    H226554   4.380   4.624   0.882
 8871TIP3   OH226555   4.854   1.618   4.587
 8871TIP3    H126556   4.876   1.537   4.540
 8871TIP3    H226557   4.863   1.686   4.521
 8872TIP3   OH226558   7.774   4.963   1.810
 8872TIP3    H126559   7.689   4.955   1.853
 8872TIP3    H226560   7.812   4.876   1.815
 8873TIP3   OH226561   3.027   4.191   2.703
 8873TIP3    H126562   3.005   4.098   2.709
 8873TIP3    H226563   2.974   4.224   2.630
 8874TIP3   OH226564   1.902   1.472   5.337
 8874TIP3    H126565   1.989   1.490   5.300
 8874TIP3    H226566   1.917   1.404   5.402
 8875TIP3   OH226567   0.177   6.278   2.018
 8875TIP3    H126568   0.264   6.253   1.988
 8875TIP3    H226569   0.153   6.354   1.964
 8876TIP3   OH226570   2.079   2.996   6.625
 8876TIP3    H126571   1.989   3.006   6.656
 8876TIP3    H226572   2.114   2.923   6.677
 8877TIP3   OH226573   1.893   4.724   2.372
 8877TIP3    H126574   1.987   4.743   2.373
 8877TIP3    H226575   1.861   4.758   2.456
 8878TIP3   OH226576   6.740   0.838   1.164
 8878TIP3    H126577   6.744   0.749   1.198
 8878TIP3    H226578   6.747   0.894   1.242
 8879TIP3   OH226579   7.339   0.115   5.662
 8879TIP3    H126580   7.404   0.074   5.605
 8879TIP3    H226581   7.280   0.161   5.602
 8880TIP3   OH226582   8.080   1.111   0.666
 8880TIP3    H126583   8.167   1.071   0.674
 8880TIP3    H226584   8.030   1.074   0.739
 8881TIP3   OH226585   4.793   7.459   2.424
 8881TIP3    H126586   4.881   7.425   2.407
 8881TIP3    H226587   4.757   7.479   2.337
 8882TIP3   OH226588   4.622   1.253   2.467
 8882TIP3    H126589   4.630   1.158   2.469
 8882TIP3    H226590   4.712   1.285   2.473
 8883TIP3   OH226591   1.312   5.790   0.674
 8883TIP3    H126592   1.253   5.718   0.653
 8883TIP3    H226593   1.272   5.867   0.635
 8884TIP3   OH226594   2.866   7.231   5.226
 8884TIP3    H126595   2.873   7.317   5.184
 8884TIP3    H226596   2.832   7.250   5.314
 8885TIP3   OH226597   1.552   5.020   4.074
 8885TIP3    H126598   1.478   5.051   4.125
 8885TIP3    H226599   1.625   5.017   4.137
 8886TIP3   OH226600   3.065   6.214   3.123
 8886TIP3    H126601   3.154   6.207   3.159
 8886TIP3    H226602   3.018   6.139   3.160
 8887TIP3   OH226603   7.392   7.403   3.890
 8887TIP3    H126604   7.471   7.423   3.940
 8887TIP3    H226605   7.406   7.444   3.805
 8888TIP3   OH226606   0.269   1.544   1.080
 8888TIP3    H126607   0.344   1.573   1.132
 8888TIP3    H226608   0.218   1.624   1.065
 8889TIP3   OH226609   5.366   4.255   6.666
 8889TIP3    H126610   5.294   4.239   6.605
 8889TIP3    H226611   5.353   4.189   6.735
 8890TIP3   OH226612   7.996   2.231   5.643
 8890TIP3    H126613   8.082   2.192   5.658
 8890TIP3    H226614   7.972   2.270   5.727
 8891TIP3   OH226615   4.397   1.435   2.732
 8891TIP3    H126616   4.406   1.432   2.637
 8891TIP3    H226617   4.308   1.404   2.749
 8892TIP3   OH226618   6.276   0.097   3.160
 8892TIP3    H126619   6.240   0.094   3.249
 8892TIP3    H226620   6.283   0.190   3.140
 8893TIP3   OH226621   4.077   6.718   1.202
 8893TIP3    H126622   4.161   6.715   1.156
 8893TIP3    H226623   4.098   6.748   1.290
 8894TIP3   OH226624   4.983   6.782   5.266
 8894TIP3    H126625   4.923   6.842   5.223
 8894TIP3    H226626   4.960   6.786   5.359
 8895TIP3   OH226627   5.026   3.948   0.105
 8895TIP3    H126628   4.988   3.874   0.154
 8895TIP3    H226629   4.977   4.024   0.136
 8896TIP3   OH226630   7.173   1.163   1.977
 8896TIP3    H126631   7.163   1.208   2.061
 8896TIP3    H226632   7.218   1.081   1.998
 8897TIP3   OH226633   6.623   3.270   6.218
 8897TIP3    H126634   6.535   3.244   6.189
 8897TIP3    H226635   6.621   3.366   6.216
 8898TIP3   OH226636   1.767   6.120   2.109
 8898TIP3    H126637   1.759   6.205   2.152
 8898TIP3    H226638   1.860   6.114   2.086
 8899TIP3   OH226639   2.983   3.828   2.554
 8899TIP3    H126640   2.950   3.868   2.473
 8899TIP3    H226641   3.076   3.852   2.556
 8900TIP3   OH226642   3.212   4.773   5.404
 8900TIP3    H126643   3.242   4.683   5.385
 8900TIP3    H226644   3.291   4.826   5.395
 8901TIP3   OH226645   0.681   6.205   4.164
 8901TIP3    H126646   0.723   6.267   4.224
 8901TIP3    H226647   0.692   6.120   4.206
 8902TIP3   OH226648   1.154   2.686   3.726
 8902TIP3    H126649   1.086   2.699   3.661
 8902TIP3    H226650   1.166   2.591   3.730
 8903TIP3   OH226651   1.843   0.837   3.769
 8903TIP3    H126652   1.895   0.799   3.698
 8903TIP3    H226653   1.848   0.932   3.754
 8904TIP3   OH226654   1.332   5.889   2.709
 8904TIP3    H126655   1.339   5.909   2.615
 8904TIP3    H226656   1.251   5.839   2.717
 8905TIP3   OH226657   3.275   6.503   1.082
 8905TIP3    H126658   3.249   6.447   1.156
 8905TIP3    H226659   3.343   6.453   1.037
 8906TIP3   OH226660   3.840   5.294   0.470
 8906TIP3    H126661   3.904   5.326   0.533
 8906TIP3    H226662   3.864   5.336   0.387
 8907TIP3   OH226663   3.119   1.840   4.033
 8907TIP3    H126664   3.202   1.880   4.057
 8907TIP3    H226665   3.072   1.910   3.986
 8908TIP3   OH226666   1.665   6.290   1.197
 8908TIP3    H126667   1.603   6.217   1.192
 8908TIP3    H226668   1.670   6.322   1.107
 8909TIP3   OH226669   6.244   2.310   0.275
 8909TIP3    H126670   6.312   2.249   0.245
 8909TIP3    H226671   6.267   2.393   0.233
 8910TIP3   OH226672   2.026   6.773   5.966
 8910TIP3    H126673   1.984   6.775   6.052
 8910TIP3    H226674   2.055   6.682   5.956
 8911TIP3   OH226675   7.926   3.531   4.970
 8911TIP3    H126676   7.971   3.615   4.980
 8911TIP3    H226677   7.993   3.465   4.986
 8912TIP3   OH226678   7.739   0.960   5.412
 8912TIP3    H126679   7.754   0.926   5.324
 8912TIP3    H226680   7.749   0.884   5.469
 8913TIP3   OH226681   6.855   0.996   3.880
 8913TIP3    H126682   6.837   0.906   3.853
 8913TIP3    H226683   6.948   1.009   3.865
 8914TIP3   OH226684   8.131   5.838   3.598
 8914TIP3    H126685   8.043   5.803   3.582
 8914TIP3    H226686   8.128   5.926   3.561
 8915TIP3   OH226687   2.507   3.083   3.285
 8915TIP3    H126688   2.503   3.121   3.197
 8915TIP3    H226689   2.563   3.007   3.276
 8916TIP3   OH226690   4.593   4.948   0.073
 8916TIP3    H126691   4.544   5.006   0.131
 8916TIP3    H226692   4.527   4.891   0.034
 8917TIP3   OH226693   3.505   2.224   0.146
 8917TIP3    H126694   3.495   2.281   0.223
 8917TIP3    H226695   3.559   2.275   0.086
 8918TIP3   OH226696   6.211   6.393   6.025
 8918TIP3    H126697   6.268   6.335   5.975
 8918TIP3    H226698   6.144   6.421   5.962
 8919TIP3   OH226699   8.266   5.744   1.314
 8919TIP3    H126700   8.214   5.810   1.359
 8919TIP3    H226701   8.260   5.666   1.369
 8920TIP3   OH226702   1.829   2.230   5.249
 8920TIP3    H126703   1.905   2.187   5.289
 8920TIP3    H226704   1.754   2.181   5.281
 8921TIP3   OH226705   7.131   3.190   3.957
 8921TIP3    H126706   7.114   3.099   3.933
 8921TIP3    H226707   7.046   3.234   3.944
 8922TIP3   OH226708   5.384   7.004   4.235
 8922TIP3    H126709   5.308   7.059   4.213
 8922TIP3    H226710   5.451   7.065   4.264
 8923TIP3   OH226711   0.239   5.788   1.510
 8923TIP3    H126712   0.149   5.793   1.478
 8923TIP3    H226713   0.270   5.702   1.480
 8924TIP3   OH226714   2.845   6.904   1.907
 8924TIP3    H126715   2.809   6.815   1.903
 8924TIP3    H226716   2.892   6.914   1.825
 8925TIP3   OH226717   1.970   2.636   3.352
 8925TIP3    H126718   1.908   2.625   3.424
 8925TIP3    H226719   1.990   2.546   3.323
 8926TIP3   OH226720   0.038   6.693   0.818
 8926TIP3    H126721  -0.054   6.689   0.847
 8926TIP3    H226722   0.083   6.632   0.876
 8927TIP3   OH226723   4.698   4.858   0.536
 8927TIP3    H126724   4.711   4.937   0.590
 8927TIP3    H226725   4.677   4.789   0.599
 8928TIP3   OH226726   3.730   2.080   2.331
 8928TIP3    H126727   3.641   2.099   2.301
 8928TIP3    H226728   3.776   2.164   2.324
 8929TIP3   OH226729   5.291   2.696   2.170
 8929TIP3    H126730   5.231   2.771   2.176
 8929TIP3    H226731   5.236   2.620   2.190
 8930TIP3   OH226732   1.198   6.907   0.750
 8930TIP3    H126733   1.175   6.865   0.668
 8930TIP3    H226734   1.133   6.876   0.813
 8931TIP3   OH226735   4.094   2.613   4.284
 8931TIP3    H126736   4.043   2.686   4.249
 8931TIP3    H226737   4.126   2.566   4.207
 8932TIP3   OH226738   4.929   0.542   1.147
 8932TIP3    H126739   4.897   0.597   1.075
 8932TIP3    H226740   4.855   0.535   1.207
 8933TIP3   OH226741   5.904   4.989   4.771
 8933TIP3    H126742   5.950   5.067   4.804
 8933TIP3    H226743   5.813   5.003   4.796
 8934TIP3   OH226744   8.077   3.470   2.811
 8934TIP3    H126745   8.001   3.453   2.868
 8934TIP3    H226746   8.040   3.483   2.724
 8935TIP3   OH226747   0.628   5.334   0.783
 8935TIP3    H126748   0.673   5.326   0.867
 8935TIP3    H226749   0.558   5.397   0.800
 8936TIP3   OH226750   1.311   2.458   0.854
 8936TIP3    H126751   1.384   2.397   0.857
 8936TIP3    H226752   1.336   2.529   0.913
 8937TIP3   OH226753   7.251   6.116   5.257
 8937TIP3    H126754   7.156   6.112   5.265
 8937TIP3    H226755   7.280   6.026   5.270
 8938TIP3   OH226756   6.994   0.903   6.652
 8938TIP3    H126757   6.959   0.815   6.661
 8938TIP3    H226758   6.962   0.933   6.567
 8939TIP3   OH226759   7.643   2.303   1.212
 8939TIP3    H126760   7.657   2.396   1.230
 8939TIP3    H226761   7.564   2.280   1.262
 8940TIP3   OH226762   0.517   3.273   4.758
 8940TIP3    H126763   0.479   3.185   4.763
 8940TIP3    H226764   0.582   3.268   4.689
 8941TIP3   OH226765   3.660   0.986   6.036
 8941TIP3    H126766   3.640   1.063   6.090
 8941TIP3    H226767   3.663   1.020   5.946
 8942TIP3   OH226768   2.903   0.516   2.090
 8942TIP3    H126769   2.906   0.516   2.186
 8942TIP3    H226770   2.831   0.574   2.068
 8943TIP3   OH226771   1.376   6.316   6.448
 8943TIP3    H126772   1.372   6.281   6.537
 8943TIP3    H226773   1.313   6.264   6.398
 8944TIP3   OH226774   1.910   2.751   1.594
 8944TIP3    H126775   1.921   2.797   1.678
 8944TIP3    H226776   1.922   2.658   1.616
 8945TIP3   OH226777   0.145   7.581   6.272
 8945TIP3    H126778   0.153   7.552   6.363
 8945TIP3    H226779   0.135   7.676   6.278
 8946TIP3   OH226780   1.217   3.641   1.782
 8946TIP3    H126781   1.234   3.549   1.764
 8946TIP3    H226782   1.129   3.657   1.748
 8947TIP3   OH226783   7.223   4.019   1.489
 8947TIP3    H126784   7.158   4.085   1.464
 8947TIP3    H226785   7.216   4.014   1.584
 8948TIP3   OH226786   1.819   2.900   4.997
 8948TIP3    H126787   1.777   2.847   5.064
 8948TIP3    H226788   1.812   2.847   4.917
 8949TIP3   OH226789   5.755   1.964   2.666
 8949TIP3    H126790   5.765   1.909   2.589
 8949TIP3    H226791   5.691   1.918   2.721
 8950TIP3   OH226792   1.303   1.839   4.121
 8950TIP3    H126793   1.351   1.771   4.167
 8950TIP3    H226794   1.281   1.904   4.188
 8951TIP3   OH226795   0.183   1.643   3.248
 8951TIP3    H126796   0.141   1.639   3.334
 8951TIP3    H226797   0.236   1.563   3.245
 8952TIP3   OH226798   0.381   4.837   6.525
 8952TIP3    H126799   0.390   4.757   6.577
 8952TIP3    H226800   0.400   4.809   6.435
 8953TIP3   OH226801   7.949   2.735   3.156
 8953TIP3    H126802   8.009   2.680   3.206
 8953TIP3    H226803   7.936   2.688   3.074
 8954TIP3   OH226804   0.846   5.911   2.353
 8954TIP3    H126805   0.863   5.896   2.447
 8954TIP3    H226806   0.786   5.986   2.351
 8955TIP3   OH226807   2.022   4.355   3.063
 8955TIP3    H126808   1.947   4.303   3.094
 8955TIP3    H226809   2.057   4.395   3.143
 8956TIP3   OH226810   3.129   6.822   3.830
 8956TIP3    H126811   3.126   6.738   3.875
 8956TIP3    H226812   3.038   6.844   3.812
 8957TIP3   OH226813   1.634   6.992   5.754
 8957TIP3    H126814   1.630   6.995   5.850
 8957TIP3    H226815   1.681   6.911   5.734
 8958TIP3   OH226816   6.399   3.331   5.354
 8958TIP3    H126817   6.384   3.375   5.437
 8958TIP3    H226818   6.487   3.359   5.328
 8959TIP3   OH226819   5.542   3.827   0.361
 8959TIP3    H126820   5.494   3.845   0.442
 8959TIP3    H226821   5.573   3.737   0.371
 8960TIP3   OH226822   2.029   0.329   0.217
 8960TIP3    H126823   1.963   0.264   0.239
 8960TIP3    H226824   2.044   0.378   0.298
 8961TIP3   OH226825   3.438   5.480   0.188
 8961TIP3    H126826   3.513   5.492   0.130
 8961TIP3    H226827   3.368   5.448   0.131
 8962TIP3   OH226828   2.795   3.726   0.451
 8962TIP3    H126829   2.762   3.810   0.422
 8962TIP3    H226830   2.756   3.662   0.391
 8963TIP3   OH226831   7.624   2.809   4.206
 8963TIP3    H126832   7.698   2.862   4.178
 8963TIP3    H226833   7.663   2.730   4.243
 8964TIP3   OH226834   0.316   7.179   3.054
 8964TIP3    H126835   0.410   7.197   3.056
 8964TIP3    H226836   0.297   7.165   2.961
 8965TIP3   OH226837   4.176   0.449   1.592
 8965TIP3    H126838   4.254   0.427   1.643
 8965TIP3    H226839   4.115   0.377   1.610
 8966TIP3   OH226840   2.966   5.195   2.233
 8966TIP3    H126841   2.902   5.145   2.183
 8966TIP3    H226842   2.938   5.186   2.324
 8967TIP3   OH226843   0.887   1.683   1.671
 8967TIP3    H126844   0.941   1.710   1.745
 8967TIP3    H226845   0.900   1.588   1.665
 8968TIP3   OH226846   6.756   5.132   0.259
 8968TIP3    H126847   6.843   5.104   0.229
 8968TIP3    H226848   6.695   5.095   0.196
 8969TIP3   OH226849   8.129   3.624   4.737
 8969TIP3    H126850   8.065   3.584   4.679
 8969TIP3    H226851   8.077   3.660   4.809
 8970TIP3   OH226852   6.100   6.166   1.884
 8970TIP3    H126853   6.105   6.251   1.840
 8970TIP3    H226854   6.186   6.127   1.869
 8971TIP3   OH226855   6.149   6.345   3.813
 8971TIP3    H126856   6.084   6.381   3.751
 8971TIP3    H226857   6.105   6.269   3.852
 8972TIP3   OH226858   2.039   0.780   3.977
 8972TIP3    H126859   1.982   0.719   4.024
 8972TIP3    H226860   1.992   0.799   3.896
 8973TIP3   OH226861   6.440   2.899   3.856
 8973TIP3    H126862   6.520   2.901   3.803
 8973TIP3    H226863   6.427   2.807   3.877
 8974TIP3   OH226864   4.897   4.120   4.579
 8974TIP3    H126865   4.837   4.054   4.544
 8974TIP3    H226866   4.908   4.095   4.671
 8975TIP3   OH226867   6.464   3.063   2.393
 8975TIP3    H126868   6.496   3.071   2.303
 8975TIP3    H226869   6.408   3.140   2.404
 8976TIP3   OH226870   5.258   6.197   6.599
 8976TIP3    H126871   5.248   6.281   6.554
 8976TIP3    H226872   5.292   6.139   6.531
 8977TIP3   OH226873   1.620   2.994   2.978
 8977TIP3    H126874   1.581   3.067   3.025
 8977TIP3    H226875   1.585   2.916   3.021
 8978TIP3   OH226876   7.965   5.696   2.937
 8978TIP3    H126877   7.874   5.723   2.951
 8978TIP3    H226878   7.965   5.657   2.850
 8979TIP3   OH226879   7.201   1.813   3.772
 8979TIP3    H126880   7.265   1.881   3.790
 8979TIP3    H226881   7.222   1.743   3.834
 8980TIP3   OH226882   1.198   4.657   0.926
 8980TIP3    H126883   1.248   4.738   0.917
 8980TIP3    H226884   1.112   4.678   0.888
 8981TIP3   OH226885   4.543   1.451   1.314
 8981TIP3    H126886   4.475   1.509   1.280
 8981TIP3    H226887   4.615   1.459   1.251
 8982TIP3   OH226888   4.904   3.253   5.356
 8982TIP3    H126889   4.938   3.336   5.325
 8982TIP3    H226890   4.852   3.219   5.283
 8983TIP3   OH226891   4.696   4.990   2.552
 8983TIP3    H126892   4.705   4.917   2.490
 8983TIP3    H226893   4.621   4.966   2.606
 8984TIP3   OH226894   1.060   2.734   0.735
 8984TIP3    H126895   0.984   2.688   0.771
 8984TIP3    H226896   1.026   2.776   0.655
 8985TIP3   OH226897   0.671   5.248   3.581
 8985TIP3    H126898   0.623   5.329   3.601
 8985TIP3    H226899   0.628   5.181   3.635
 8986TIP3   OH226900   6.921   4.092   6.677
 8986TIP3    H126901   6.965   4.175   6.662
 8986TIP3    H226902   6.864   4.108   6.752
 8987TIP3   OH226903   4.151   3.759   5.908
 8987TIP3    H126904   4.104   3.690   5.956
 8987TIP3    H226905   4.083   3.801   5.856
 8988TIP3   OH226906   1.825   5.514   5.093
 8988TIP3    H126907   1.889   5.464   5.145
 8988TIP3    H226908   1.820   5.599   5.137
 8989TIP3   OH226909   0.733   0.036   0.362
 8989TIP3    H126910   0.765   0.115   0.318
 8989TIP3    H226911   0.643   0.026   0.331
 8990TIP3   OH226912   5.475   1.639   5.868
 8990TIP3    H126913   5.401   1.688   5.903
 8990TIP3    H226914   5.440   1.595   5.790
 8991TIP3   OH226915   5.954   4.590   1.625
 8991TIP3    H126916   5.864   4.581   1.592
 8991TIP3    H226917   6.009   4.556   1.554
 8992TIP3   OH226918   0.549   1.350   0.585
 8992TIP3    H126919   0.623   1.289   0.590
 8992TIP3    H226920   0.515   1.353   0.674
 8993TIP3   OH226921   3.286   0.444   4.931
 8993TIP3    H126922   3.236   0.412   5.006
 8993TIP3    H226923   3.248   0.399   4.855
 8994TIP3   OH226924   1.197   6.590   1.503
 8994TIP3    H126925   1.242   6.509   1.527
 8994TIP3    H226926   1.113   6.560   1.466
 8995TIP3   OH226927   6.305   7.381   4.718
 8995TIP3    H126928   6.229   7.369   4.661
 8995TIP3    H226929   6.270   7.425   4.795
 8996TIP3   OH226930   6.107   6.638   0.933
 8996TIP3    H126931   6.175   6.653   0.998
 8996TIP3    H226932   6.068   6.724   0.919
 8997TIP3   OH226933   1.899   0.334   0.730
 8997TIP3    H126934   1.890   0.248   0.771
 8997TIP3    H226935   1.977   0.328   0.676
 8998TIP3   OH226936   0.734   2.405   4.817
 8998TIP3    H126937   0.750   2.317   4.784
 8998TIP3    H226938   0.660   2.436   4.765
 8999TIP3   OH226939   8.086   2.815   5.478
 8999TIP3    H126940   8.089   2.735   5.530
 8999TIP3    H226941   8.011   2.803   5.420
 9000TIP3   OH226942   7.381   1.826   4.806
 9000TIP3    H126943   7.358   1.734   4.812
 9000TIP3    H226944   7.465   1.828   4.761
 9001TIP3   OH226945   5.965   2.284   5.172
 9001TIP3    H126946   6.041   2.341   5.184
 9001TIP3    H226947   5.891   2.344   5.164
 9002TIP3   OH226948   2.340   2.291   2.540
 9002TIP3    H126949   2.387   2.374   2.532
 9002TIP3    H226950   2.330   2.279   2.634
 9003TIP3   OH226951   0.420   5.857   5.696
 9003TIP3    H126952   0.393   5.886   5.609
 9003TIP3    H226953   0.499   5.805   5.681
 9004TIP3   OH226954   4.108   1.604   0.953
 9004TIP3    H126955   4.156   1.547   1.013
 9004TIP3    H226956   4.167   1.615   0.878
 9005TIP3   OH226957   0.260   2.224   1.361
 9005TIP3    H126958   0.347   2.263   1.350
 9005TIP3    H226959   0.216   2.239   1.278
 9006TIP3   OH226960   6.908   7.104   4.753
 9006TIP3    H126961   6.887   7.124   4.662
 9006TIP3    H226962   6.863   7.022   4.771
 9007TIP3   OH226963   5.641   5.843   0.170
 9007TIP3    H126964   5.673   5.921   0.216
 9007TIP3    H226965   5.652   5.772   0.233
 9008TIP3   OH226966   3.626   5.666   0.653
 9008TIP3    H126967   3.572   5.601   0.608
 9008TIP3    H226968   3.660   5.621   0.730
 9009TIP3   OH226969   5.993   2.897   3.779
 9009TIP3    H126970   5.950   2.828   3.728
 9009TIP3    H226971   5.925   2.928   3.839
 9010TIP3   OH226972   5.839   1.686   1.807
 9010TIP3    H126973   5.762   1.737   1.783
 9010TIP3    H226974   5.911   1.726   1.758
 9011TIP3   OH226975   4.349   2.243   0.965
 9011TIP3    H126976   4.311   2.331   0.962
 9011TIP3    H226977   4.296   2.196   1.029
 9012TIP3   OH226978   8.240   0.282   4.886
 9012TIP3    H126979   8.324   0.305   4.927
 9012TIP3    H226980   8.193   0.235   4.955
 9013TIP3   OH226981   4.271   5.354   2.763
 9013TIP3    H126982   4.220   5.296   2.706
 9013TIP3    H226983   4.228   5.439   2.756
 9014TIP3   OH226984   7.865   1.748   3.615
 9014TIP3    H126985   7.900   1.808   3.681
 9014TIP3    H226986   7.935   1.743   3.549
 9015TIP3   OH226987   7.882   0.041   5.175
 9015TIP3    H126988   7.974   0.015   5.162
 9015TIP3    H226989   7.883   0.091   5.256
 9016TIP3   OH226990   1.136   4.432   6.186
 9016TIP3    H126991   1.075   4.504   6.200
 9016TIP3    H226992   1.104   4.387   6.108
 9017TIP3   OH226993   6.275   6.819   2.130
 9017TIP3    H126994   6.282   6.790   2.221
 9017TIP3    H226995   6.363   6.810   2.094
 9018TIP3   OH226996   6.939   3.324   5.612
 9018TIP3    H126997   6.912   3.248   5.560
 9018TIP3    H226998   7.014   3.360   5.565
 9019TIP3   OH226999   2.628   6.225   0.710
 9019TIP3    H127000   2.536   6.228   0.737
 9019TIP3    H227001   2.654   6.316   0.701
 9020TIP3   OH227002   4.401   4.376   1.104
 9020TIP3    H127003   4.373   4.442   1.041
 9020TIP3    H227004   4.328   4.369   1.166
 9021TIP3   OH227005   6.910   4.177   4.345
 9021TIP3    H127006   7.000   4.185   4.313
 9021TIP3    H227007   6.896   4.258   4.395
 9022TIP3   OH227008   4.144   7.279   0.393
 9022TIP3    H127009   4.051   7.260   0.405
 9022TIP3    H227010   4.186   7.233   0.466
 9023TIP3   OH227011   6.689   1.622   3.678
 9023TIP3    H127012   6.783   1.640   3.689
 9023TIP3    H227013   6.685   1.561   3.604
 9024TIP3   OH227014   4.815   5.888   0.324
 9024TIP3    H127015   4.771   5.950   0.382
 9024TIP3    H227016   4.908   5.904   0.338
 9025TIP3   OH227017   3.338   4.004   5.476
 9025TIP3    H127018   3.252   3.973   5.448
 9025TIP3    H227019   3.328   4.099   5.483
 9026TIP3   OH227020   0.106   0.533   2.536
 9026TIP3    H127021   0.143   0.621   2.540
 9026TIP3    H227022   0.076   0.524   2.445
 9027TIP3   OH227023   6.543   1.889   5.899
 9027TIP3    H127024   6.505   1.948   5.835
 9027TIP3    H227025   6.633   1.875   5.869
 9028TIP3   OH227026   4.659   2.253   5.771
 9028TIP3    H127027   4.754   2.260   5.778
 9028TIP3    H227028   4.644   2.211   5.686
 9029TIP3   OH227029   4.484   6.145   6.095
 9029TIP3    H127030   4.400   6.144   6.140
 9029TIP3    H227031   4.500   6.053   6.072
 9030TIP3   OH227032   1.150   3.356   5.373
 9030TIP3    H127033   1.230   3.333   5.419
 9030TIP3    H227034   1.141   3.451   5.384
 9031TIP3   OH227035   1.876   4.211   4.849
 9031TIP3    H127036   1.782   4.234   4.846
 9031TIP3    H227037   1.901   4.203   4.757
 9032TIP3   OH227038   4.791   4.776   4.632
 9032TIP3    H127039   4.774   4.766   4.538
 9032TIP3    H227040   4.861   4.712   4.650
 9033TIP3   OH227041   4.214   1.286   1.061
 9033TIP3    H127042   4.309   1.286   1.049
 9033TIP3    H227043   4.179   1.278   0.972
 9034TIP3   OH227044   4.788   1.853   1.955
 9034TIP3    H127045   4.741   1.801   2.020
 9034TIP3    H227046   4.876   1.815   1.953
 9035TIP3   OH227047   2.318   0.300   6.226
 9035TIP3    H127048   2.272   0.244   6.288
 9035TIP3    H227049   2.297   0.389   6.255
 9036TIP3   OH227050   0.149   7.552   4.458
 9036TIP3    H127051   0.140   7.638   4.499
 9036TIP3    H227052   0.137   7.569   4.364
 9037TIP3   OH227053   1.900   1.520   2.780
 9037TIP3    H127054   1.847   1.539   2.703
 9037TIP3    H227055   1.949   1.601   2.796
 9038TIP3   OH227056   7.293   6.260   0.121
 9038TIP3    H127057   7.220   6.199   0.113
 9038TIP3    H227058   7.323   6.273   0.030
 9039TIP3   OH227059   4.415   2.754   3.991
 9039TIP3    H127060   4.381   2.840   4.018
 9039TIP3    H227061   4.345   2.693   4.014
 9040TIP3   OH227062   5.658   5.092   6.709
 9040TIP3    H127063   5.704   5.141   6.777
 9040TIP3    H227064   5.610   5.024   6.756
 9041TIP3   OH227065   0.972   7.389   3.626
 9041TIP3    H127066   0.916   7.461   3.596
 9041TIP3    H227067   1.026   7.368   3.550
 9042TIP3   OH227068   6.204   3.519   3.985
 9042TIP3    H127069   6.155   3.509   3.903
 9042TIP3    H227070   6.293   3.539   3.957
 9043TIP3   OH227071   6.557   3.259   4.460
 9043TIP3    H127072   6.511   3.339   4.435
 9043TIP3    H227073   6.640   3.263   4.413
 9044TIP3   OH227074   0.049   4.584   1.681
 9044TIP3    H127075  -0.008   4.516   1.643
 9044TIP3    H227076   0.138   4.555   1.662
 9045TIP3   OH227077   1.729   5.348   2.272
 9045TIP3    H127078   1.795   5.383   2.331
 9045TIP3    H227079   1.740   5.399   2.191
 9046TIP3   OH227080   2.837   6.187   1.242
 9046TIP3    H127081   2.856   6.279   1.228
 9046TIP3    H227082   2.883   6.164   1.322
 9047TIP3   OH227083   1.861   4.386   1.399
 9047TIP3    H127084   1.874   4.306   1.349
 9047TIP3    H227085   1.916   4.451   1.355
 9048TIP3   OH227086   8.003   5.935   0.142
 9048TIP3    H127087   7.929   5.888   0.103
 9048TIP3    H227088   7.996   6.024   0.107
 9049TIP3   OH227089   4.827   1.065   1.233
 9049TIP3    H127090   4.739   1.031   1.217
 9049TIP3    H227091   4.816   1.160   1.241
 9050TIP3   OH227092   7.944   4.324   6.148
 9050TIP3    H127093   7.984   4.407   6.173
 9050TIP3    H227094   7.966   4.264   6.219
 9051TIP3   OH227095   7.942   1.203   0.426
 9051TIP3    H127096   8.004   1.184   0.496
 9051TIP3    H227097   7.950   1.127   0.367
 9052TIP3   OH227098   5.396   0.218   6.031
 9052TIP3    H127099   5.402   0.276   6.107
 9052TIP3    H227100   5.382   0.131   6.068
 9053TIP3   OH227101   5.386   2.795   1.549
 9053TIP3    H127102   5.450   2.818   1.616
 9053TIP3    H227103   5.438   2.773   1.472
 9054TIP3   OH227104   1.562   7.389   1.713
 9054TIP3    H127105   1.610   7.306   1.714
 9054TIP3    H227106   1.587   7.430   1.630
 9055TIP3   OH227107   5.400   1.520   0.195
 9055TIP3    H127108   5.368   1.610   0.193
 9055TIP3    H227109   5.450   1.509   0.114
 9056TIP3   OH227110   3.485   5.527   6.320
 9056TIP3    H127111   3.477   5.439   6.283
 9056TIP3    H227112   3.567   5.525   6.369
 9057TIP3   OH227113   6.493   6.146   6.305
 9057TIP3    H127114   6.544   6.066   6.319
 9057TIP3    H227115   6.535   6.189   6.231
 9058TIP3   OH227116   5.495   5.254   4.577
 9058TIP3    H127117   5.504   5.272   4.670
 9058TIP3    H227118   5.560   5.311   4.535
 9059TIP3   OH227119   2.248   5.309   0.831
 9059TIP3    H127120   2.331   5.262   0.835
 9059TIP3    H227121   2.229   5.333   0.922
 9060TIP3   OH227122   6.626   4.185   3.865
 9060TIP3    H127123   6.694   4.119   3.879
 9060TIP3    H227124   6.642   4.250   3.933
 9061TIP3   OH227125   0.041   1.269   6.538
 9061TIP3    H127126  -0.004   1.332   6.595
 9061TIP3    H227127   0.013   1.293   6.450
 9062TIP3   OH227128   4.312   3.780   1.999
 9062TIP3    H127129   4.379   3.785   1.931
 9062TIP3    H227130   4.345   3.714   2.060
 9063TIP3   OH227131   2.324   4.556   5.021
 9063TIP3    H127132   2.387   4.619   5.056
 9063TIP3    H227133   2.340   4.556   4.926
 9064TIP3   OH227134   6.522   6.079   3.039
 9064TIP3    H127135   6.617   6.082   3.032
 9064TIP3    H227136   6.499   6.156   3.091
 9065TIP3   OH227137   2.421   7.546   2.982
 9065TIP3    H127138   2.429   7.494   3.062
 9065TIP3    H227139   2.435   7.636   3.011
 9066TIP3   OH227140   1.449   6.782   0.819
 9066TIP3    H127141   1.369   6.826   0.789
 9066TIP3    H227142   1.509   6.789   0.745
 9067TIP3   OH227143   3.473   4.053   4.432
 9067TIP3    H127144   3.501   4.106   4.507
 9067TIP3    H227145   3.489   3.962   4.459
 9068TIP3   OH227146   5.009   6.373   5.149
 9068TIP3    H127147   5.000   6.317   5.071
 9068TIP3    H227148   5.039   6.314   5.217
 9069TIP3   OH227149   3.868   3.441   3.669
 9069TIP3    H127150   3.873   3.499   3.593
 9069TIP3    H227151   3.856   3.353   3.632
 9070TIP3   OH227152   5.365   0.559   1.358
 9070TIP3    H127153   5.380   0.653   1.371
 9070TIP3    H227154   5.288   0.539   1.411
 9071TIP3   OH227155   7.086   3.461   3.688
 9071TIP3    H127156   7.108   3.548   3.720
 9071TIP3    H227157   6.994   3.468   3.659
 9072TIP3   OH227158   1.415   3.849   5.462
 9072TIP3    H127159   1.388   3.834   5.553
 9072TIP3    H227160   1.413   3.944   5.452
 9073TIP3   OH227161   7.018   1.843   2.432
 9073TIP3    H127162   6.973   1.821   2.351
 9073TIP3    H227163   6.966   1.801   2.501
 9074TIP3   OH227164   6.109   1.668   6.498
 9074TIP3    H127165   6.044   1.635   6.559
 9074TIP3    H227166   6.070   1.746   6.460
 9075TIP3   OH227167   7.916   2.841   3.688
 9075TIP3    H127168   7.885   2.843   3.779
 9075TIP3    H227169   7.851   2.789   3.642
 9076TIP3   OH227170   7.335   0.625   6.301
 9076TIP3    H127171   7.292   0.660   6.379
 9076TIP3    H227172   7.286   0.662   6.227
 9077TIP3   OH227173   4.160   3.144   5.479
 9077TIP3    H127174   4.202   3.102   5.403
 9077TIP3    H227175   4.071   3.107   5.480
 9078TIP3   OH227176   6.621   4.347   3.340
 9078TIP3    H127177   6.577   4.315   3.419
 9078TIP3    H227178   6.695   4.399   3.372
 9079TIP3   OH227179   0.393   6.041   5.023
 9079TIP3    H127180   0.455   5.985   4.976
 9079TIP3    H227181   0.442   6.121   5.041
 9080TIP3   OH227182   7.730   1.795   6.370
 9080TIP3    H127183   7.764   1.714   6.331
 9080TIP3    H227184   7.635   1.787   6.360
 9081TIP3   OH227185   7.853   5.479   5.183
 9081TIP3    H127186   7.811   5.565   5.191
 9081TIP3    H227187   7.780   5.417   5.178
 9082TIP3   OH227188   0.650   4.677   3.575
 9082TIP3    H127189   0.615   4.623   3.645
 9082TIP3    H227190   0.711   4.737   3.620
 9083TIP3   OH227191   7.553   5.674   0.926
 9083TIP3    H127192   7.566   5.689   1.020
 9083TIP3    H227193   7.589   5.753   0.884
 9084TIP3   OH227194   2.973   7.261   0.157
 9084TIP3    H127195   3.017   7.318   0.094
 9084TIP3    H227196   2.894   7.309   0.182
 9085TIP3   OH227197   4.229   0.085   4.339
 9085TIP3    H127198   4.315   0.078   4.298
 9085TIP3    H227199   4.205   0.177   4.329
 9086TIP3   OH227200   1.166   4.982   1.104
 9086TIP3    H127201   1.141   5.062   1.057
 9086TIP3    H227202   1.095   4.920   1.087
 9087TIP3   OH227203   0.915   6.810   5.570
 9087TIP3    H127204   0.871   6.895   5.563
 9087TIP3    H227205   0.913   6.775   5.481
 9088TIP3   OH227206   7.190   0.898   1.070
 9088TIP3    H127207   7.156   0.976   1.027
 9088TIP3    H227208   7.198   0.833   1.000
 9089TIP3   OH227209   5.421   5.930   6.149
 9089TIP3    H127210   5.438   5.987   6.074
 9089TIP3    H227211   5.392   5.848   6.110
 9090TIP3   OH227212   7.012   0.770   4.052
 9090TIP3    H127213   7.031   0.841   4.112
 9090TIP3    H227214   7.097   0.730   4.033
 9091TIP3   OH227215   1.852   5.544   3.112
 9091TIP3    H127216   1.886   5.594   3.187
 9091TIP3    H227217   1.910   5.468   3.106
 9092TIP3   OH227218   3.433   4.928   2.581
 9092TIP3    H127219   3.451   4.834   2.572
 9092TIP3    H227220   3.430   4.943   2.675
 9093TIP3   OH227221   0.607   3.966   6.141
 9093TIP3    H127222   0.647   3.951   6.227
 9093TIP3    H227223   0.625   3.886   6.092
 9094TIP3   OH227224   3.171   4.919   0.579
 9094TIP3    H127225   3.197   4.921   0.487
 9094TIP3    H227226   3.184   5.009   0.610
 9095TIP3   OH227227   6.421   4.263   0.417
 9095TIP3    H127228   6.471   4.298   0.491
 9095TIP3    H227229   6.329   4.275   0.441
 9096TIP3   OH227230   2.819   2.291   4.256
 9096TIP3    H127231   2.733   2.299   4.297
 9096TIP3    H227232   2.828   2.198   4.238
 9097TIP3   OH227233   0.307   1.403   0.854
 9097TIP3    H127234   0.400   1.398   0.873
 9097TIP3    H227235   0.271   1.459   0.923
 9098TIP3   OH227236   1.339   1.199   4.244
 9098TIP3    H127237   1.412   1.237   4.293
 9098TIP3    H227238   1.291   1.146   4.308
 9099TIP3   OH227239   2.117   1.339   6.405
 9099TIP3    H127240   2.159   1.424   6.403
 9099TIP3    H227241   2.079   1.329   6.317
 9100TIP3   OH227242   3.010   5.313   2.785
 9100TIP3    H127243   3.018   5.320   2.690
 9100TIP3    H227244   3.026   5.402   2.817
 9101TIP3   OH227245   1.598   0.580   0.502
 9101TIP3    H127246   1.618   0.492   0.470
 9101TIP3    H227247   1.557   0.566   0.588
 9102TIP3   OH227248   7.558   3.576   6.251
 9102TIP3    H127249   7.482   3.584   6.308
 9102TIP3    H227250   7.588   3.486   6.263
 9103TIP3   OH227251   6.444   7.108   1.632
 9103TIP3    H127252   6.378   7.153   1.685
 9103TIP3    H227253   6.426   7.137   1.543
 9104TIP3   OH227254   0.747   5.015   2.246
 9104TIP3    H127255   0.833   4.991   2.280
 9104TIP3    H227256   0.764   5.045   2.157
 9105TIP3   OH227257   5.798   5.924   3.944
 9105TIP3    H127258   5.723   5.877   3.909
 9105TIP3    H227259   5.874   5.883   3.902
 9106TIP3   OH227260   8.255   2.965   5.289
 9106TIP3    H127261   8.212   2.912   5.356
 9106TIP3    H227262   8.316   2.905   5.245
 9107TIP3   OH227263   3.212   4.091   3.237
 9107TIP3    H127264   3.184   4.034   3.166
 9107TIP3    H227265   3.298   4.124   3.210
 9108TIP3   OH227266   2.098   5.751   2.354
 9108TIP3    H127267   2.034   5.760   2.425
 9108TIP3    H227268   2.150   5.674   2.380
 9109TIP3   OH227269   5.524   7.440   1.409
 9109TIP3    H127270   5.617   7.420   1.395
 9109TIP3    H227271   5.491   7.463   1.323
 9110TIP3   OH227272   7.328   7.039   3.518
 9110TIP3    H127273   7.379   7.086   3.584
 9110TIP3    H227274   7.284   6.970   3.567
 9111TIP3   OH227275   2.317   6.287   5.887
 9111TIP3    H127276   2.264   6.209   5.906
 9111TIP3    H227277   2.364   6.264   5.807
 9112TIP3   OH227278   2.050   1.680   4.194
 9112TIP3    H127279   2.134   1.635   4.199
 9112TIP3    H227280   2.062   1.746   4.125
 9113TIP3   OH227281   8.004   1.293   6.468
 9113TIP3    H127282   7.909   1.299   6.456
 9113TIP3    H227283   8.019   1.200   6.488
 9114TIP3   OH227284   6.624   0.821   3.517
 9114TIP3    H127285   6.685   0.812   3.443
 9114TIP3    H227286   6.576   0.902   3.498
 9115TIP3   OH227287   4.713   3.518   3.017
 9115TIP3    H127288   4.744   3.513   3.108
 9115TIP3    H227289   4.622   3.488   3.021
 9116TIP3   OH227290   7.440  -0.030   4.527
 9116TIP3    H127291   7.511   0.020   4.488
 9116TIP3    H227292   7.392   0.034   4.579
 9117TIP3   OH227293   6.188   2.217   3.111
 9117TIP3    H127294   6.191   2.160   3.035
 9117TIP3    H227295   6.168   2.303   3.076
 9118TIP3   OH227296   1.944   2.833   1.883
 9118TIP3    H127297   2.002   2.761   1.910
 9118TIP3    H227298   1.856   2.800   1.900
 9119TIP3   OH227299   4.857   0.630   6.520
 9119TIP3    H127300   4.906   0.591   6.448
 9119TIP3    H227301   4.844   0.559   6.583
 9120TIP3   OH227302   6.617   4.618   4.572
 9120TIP3    H127303   6.697   4.568   4.591
 9120TIP3    H227304   6.649   4.698   4.529
 9121TIP3   OH227305   7.118   1.912   5.014
 9121TIP3    H127306   7.143   2.003   5.027
 9121TIP3    H227307   7.117   1.900   4.919
 9122TIP3   OH227308   0.543   6.094   0.115
 9122TIP3    H127309   0.501   6.097   0.028
 9122TIP3    H227310   0.476   6.057   0.172
 9123TIP3   OH227311   1.686   6.092   6.349
 9123TIP3    H127312   1.628   6.146   6.297
 9123TIP3    H227313   1.755   6.065   6.288
 9124TIP3   OH227314   4.396   3.514   0.777
 9124TIP3    H127315   4.449   3.591   0.755
 9124TIP3    H227316   4.448   3.439   0.747
 9125TIP3   OH227317   8.058   5.459   5.873
 9125TIP3    H127318   8.102   5.469   5.789
 9125TIP3    H227319   7.997   5.386   5.860
 9126TIP3   OH227320   6.663   6.687   6.552
 9126TIP3    H127321   6.583   6.641   6.527
 9126TIP3    H227322   6.716   6.621   6.596
 9127TIP3   OH227323   1.510   1.546   4.444
 9127TIP3    H127324   1.603   1.527   4.433
 9127TIP3    H227325   1.495   1.538   4.539
 9128TIP3   OH227326   0.913   4.390   2.867
 9128TIP3    H127327   0.923   4.482   2.844
 9128TIP3    H227328   0.970   4.377   2.943
 9129TIP3   OH227329   7.641   3.813   5.421
 9129TIP3    H127330   7.678   3.793   5.335
 9129TIP3    H227331   7.661   3.736   5.474
 9130TIP3   OH227332   7.899   4.193   3.003
 9130TIP3    H127333   7.900   4.288   3.019
 9130TIP3    H227334   7.813   4.176   2.966
 9131TIP3   OH227335   1.514   1.093   4.775
 9131TIP3    H127336   1.422   1.106   4.751
 9131TIP3    H227337   1.526   1.149   4.852
 9132TIP3   OH227338   2.829   1.586   6.753
 9132TIP3    H127339   2.852   1.505   6.708
 9132TIP3    H227340   2.897   1.597   6.820
 9133TIP3   OH227341   3.606   1.405   6.155
 9133TIP3    H127342   3.598   1.347   6.080
 9133TIP3    H227343   3.517   1.437   6.171
 9134TIP3   OH227344   7.426   5.326   4.392
 9134TIP3    H127345   7.516   5.343   4.365
 9134TIP3    H227346   7.433   5.309   4.486
 9135TIP3   OH227347   3.329   4.267   6.227
 9135TIP3    H127348   3.414   4.312   6.236
 9135TIP3    H227349   3.328   4.202   6.296
 9136TIP3   OH227350   0.587   7.601   4.862
 9136TIP3    H127351   0.540   7.673   4.905
 9136TIP3    H227352   0.549   7.522   4.901
 9137TIP3   OH227353   5.132   4.695   2.896
 9137TIP3    H127354   5.047   4.716   2.859
 9137TIP3    H227355   5.185   4.666   2.821
 9138TIP3   OH227356   1.546   4.951   4.769
 9138TIP3    H127357   1.607   4.910   4.709
 9138TIP3    H227358   1.573   5.043   4.772
 9139TIP3   OH227359   1.200   7.295   4.684
 9139TIP3    H127360   1.256   7.371   4.669
 9139TIP3    H227361   1.116   7.331   4.710
 9140TIP3   OH227362   0.221   6.653   3.095
 9140TIP3    H127363   0.197   6.570   3.136
 9140TIP3    H227364   0.242   6.629   3.004
 9141TIP3   OH227365   7.843   3.737   0.905
 9141TIP3    H127366   7.845   3.830   0.928
 9141TIP3    H227367   7.806   3.735   0.817
 9142TIP3   OH227368   5.725   2.255   2.628
 9142TIP3    H127369   5.727   2.167   2.666
 9142TIP3    H227370   5.662   2.249   2.556
 9143TIP3   OH227371   0.448   2.754   3.319
 9143TIP3    H127372   0.356   2.765   3.295
 9143TIP3    H227373   0.463   2.660   3.310
 9144TIP3   OH227374   1.545   2.454   1.911
 9144TIP3    H127375   1.584   2.379   1.865
 9144TIP3    H227376   1.464   2.419   1.949
 9145TIP3   OH227377   4.631   7.128   2.556
 9145TIP3    H127378   4.637   7.130   2.460
 9145TIP3    H227379   4.711   7.085   2.584
 9146TIP3   OH227380   0.450   2.716   2.586
 9146TIP3    H127381   0.506   2.740   2.511
 9146TIP3    H227382   0.399   2.794   2.604
 9147TIP3   OH227383   3.221   1.250   4.888
 9147TIP3    H127384   3.180   1.271   4.804
 9147TIP3    H227385   3.182   1.167   4.913
 9148TIP3   OH227386   5.189   3.055   5.293
 9148TIP3    H127387   5.157   2.991   5.356
 9148TIP3    H227388   5.131   3.047   5.217
 9149TIP3   OH227389   4.580   3.328   4.460
 9149TIP3    H127390   4.632   3.266   4.409
 9149TIP3    H227391   4.536   3.275   4.526
 9150TIP3   OH227392   0.444   0.453   5.526
 9150TIP3    H127393   0.395   0.384   5.481
 9150TIP3    H227394   0.526   0.460   5.476
 9151TIP3   OH227395   6.041   4.654   0.287
 9151TIP3    H127396   5.949   4.629   0.292
 9151TIP3    H227397   6.086   4.574   0.260
 9152TIP3   OH227398   8.149   4.070   3.966
 9152TIP3    H127399   8.105   4.024   4.038
 9152TIP3    H227400   8.233   4.097   4.004
 9153TIP3   OH227401   4.199   2.809   1.396
 9153TIP3    H127402   4.237   2.747   1.457
 9153TIP3    H227403   4.115   2.770   1.371
 9154TIP3   OH227404   5.304   4.657   2.646
 9154TIP3    H127405   5.379   4.703   2.684
 9154TIP3    H227406   5.327   4.565   2.653
 9155TIP3   OH227407   1.448   1.191   0.981
 9155TIP3    H127408   1.450   1.193   0.885
 9155TIP3    H227409   1.534   1.223   1.008
 9156TIP3   OH227410   6.875   6.140   1.634
 9156TIP3    H127411   6.875   6.045   1.642
 9156TIP3    H227412   6.786   6.166   1.658
 9157TIP3   OH227413   5.938   6.074   5.279
 9157TIP3    H127414   5.997   6.129   5.229
 9157TIP3    H227415   5.909   6.129   5.352
 9158TIP3   OH227416   6.462   0.677   5.327
 9158TIP3    H127417   6.486   0.608   5.265
 9158TIP3    H227418   6.380   0.648   5.366
 9159TIP3   OH227419   7.609   2.930   0.314
 9159TIP3    H127420   7.566   2.921   0.399
 9159TIP3    H227421   7.696   2.891   0.327
 9160TIP3   OH227422   2.615   2.815   3.669
 9160TIP3    H127423   2.693   2.861   3.701
 9160TIP3    H227424   2.601   2.745   3.732
 9161TIP3   OH227425   5.389   4.917   4.734
 9161TIP3    H127426   5.399   4.892   4.642
 9161TIP3    H227427   5.302   4.885   4.758
 9162TIP3   OH227428   4.869   7.365   5.958
 9162TIP3    H127429   4.959   7.362   5.990
 9162TIP3    H227430   4.833   7.447   5.991
 9163TIP3   OH227431   4.737   3.308   0.068
 9163TIP3    H127432   4.830   3.316   0.086
 9163TIP3    H227433   4.723   3.355  -0.013
 9164TIP3   OH227434   7.764   2.016   3.828
 9164TIP3    H127435   7.857   1.997   3.820
 9164TIP3    H227436   7.723   1.930   3.839
 9165TIP3   OH227437   6.101   6.413   1.712
 9165TIP3    H127438   6.042   6.478   1.674
 9165TIP3    H227439   6.170   6.464   1.753
 9166TIP3   OH227440   1.098   5.428   1.769
 9166TIP3    H127441   1.027   5.483   1.803
 9166TIP3    H227442   1.054   5.359   1.720
 9167TIP3   OH227443   6.959   4.771   4.199
 9167TIP3    H127444   7.019   4.839   4.230
 9167TIP3    H227445   6.915   4.811   4.124
 9168TIP3   OH227446   2.589   0.260   6.146
 9168TIP3    H127447   2.586   0.315   6.068
 9168TIP3    H227448   2.498   0.247   6.171
 9169TIP3   OH227449   6.362   7.829   3.751
 9169TIP3    H127450   6.347   7.833   3.656
 9169TIP3    H227451   6.308   7.756   3.781
 9170TIP3   OH227452   0.247   7.813   3.863
 9170TIP3    H127453   0.164   7.767   3.853
 9170TIP3    H227454   0.313   7.744   3.866
 9171TIP3   OH227455   3.267   1.696   0.193
 9171TIP3    H127456   3.187   1.710   0.244
 9171TIP3    H227457   3.241   1.632   0.126
 9172TIP3   OH227458   3.563   1.300   5.908
 9172TIP3    H127459   3.613   1.247   5.846
 9172TIP3    H227460   3.488   1.332   5.858
 9173TIP3   OH227461   6.399   0.851   1.720
 9173TIP3    H127462   6.381   0.763   1.688
 9173TIP3    H227463   6.325   0.903   1.688
 9174TIP3   OH227464   0.032   0.365   5.533
 9174TIP3    H127465   0.013   0.330   5.620
 9174TIP3    H227466   0.070   0.451   5.549
 9175TIP3   OH227467   4.096   3.736   5.243
 9175TIP3    H127468   4.001   3.731   5.243
 9175TIP3    H227469   4.122   3.704   5.157
 9176TIP3   OH227470   2.069   3.328   0.043
 9176TIP3    H127471   2.104   3.256   0.097
 9176TIP3    H227472   2.104   3.311  -0.044
 9177TIP3   OH227473   7.661   4.165   0.298
 9177TIP3    H127474   7.642   4.084   0.345
 9177TIP3    H227475   7.632   4.147   0.208
 9178TIP3   OH227476   6.467   1.024   0.730
 9178TIP3    H127477   6.530   0.969   0.778
 9178TIP3    H227478   6.504   1.112   0.734
 9179TIP3   OH227479   7.825   5.971   3.884
 9179TIP3    H127480   7.824   6.065   3.868
 9179TIP3    H227481   7.917   5.950   3.897
 9180TIP3   OH227482   2.979   2.678   2.229
 9180TIP3    H127483   3.063   2.672   2.274
 9180TIP3    H227484   2.989   2.754   2.170
 9181TIP3   OH227485   6.774   0.471   3.526
 9181TIP3    H127486   6.693   0.511   3.557
 9181TIP3    H227487   6.759   0.456   3.433
 9182TIP3   OH227488   3.042   1.203   5.666
 9182TIP3    H127489   2.969   1.160   5.620
 9182TIP3    H227490   3.047   1.289   5.626
 9183TIP3   OH227491   5.564   5.748   2.017
 9183TIP3    H127492   5.499   5.691   2.056
 9183TIP3    H227493   5.637   5.747   2.078
 9184TIP3   OH227494   7.788   7.675   6.419
 9184TIP3    H127495   7.778   7.588   6.380
 9184TIP3    H227496   7.757   7.666   6.509
 9185TIP3   OH227497   4.150   1.557   3.587
 9185TIP3    H127498   4.116   1.569   3.498
 9185TIP3    H227499   4.174   1.464   3.591
 9186TIP3   OH227500   1.365   7.228   1.256
 9186TIP3    H127501   1.399   7.269   1.176
 9186TIP3    H227502   1.437   7.236   1.319
 9187TIP3   OH227503   7.462   7.442   3.629
 9187TIP3    H127504   7.399   7.487   3.573
 9187TIP3    H227505   7.540   7.433   3.574
 9188TIP3   OH227506   5.258   4.508   0.520
 9188TIP3    H127507   5.237   4.601   0.530
 9188TIP3    H227508   5.191   4.463   0.571
 9189TIP3   OH227509   5.196   2.147   6.572
 9189TIP3    H127510   5.129   2.079   6.580
 9189TIP3    H227511   5.174   2.210   6.640
 9190TIP3   OH227512   3.314   5.801   5.207
 9190TIP3    H127513   3.266   5.721   5.227
 9190TIP3    H227514   3.403   5.784   5.240
 9191TIP3   OH227515   6.397   5.983   0.666
 9191TIP3    H127516   6.380   5.983   0.761
 9191TIP3    H227517   6.337   6.049   0.631
 9192TIP3   OH227518   1.137   3.912   4.636
 9192TIP3    H127519   1.178   3.873   4.559
 9192TIP3    H227520   1.195   3.984   4.660
 9193TIP3   OH227521   5.729   3.812   2.419
 9193TIP3    H127522   5.672   3.793   2.493
 9193TIP3    H227523   5.675   3.865   2.360
 9194TIP3   OH227524   5.157   3.176   0.338
 9194TIP3    H127525   5.244   3.189   0.374
 9194TIP3    H227526   5.099   3.171   0.414
 9195TIP3   OH227527   2.291   1.573   4.589
 9195TIP3    H127528   2.349   1.508   4.629
 9195TIP3    H227529   2.239   1.523   4.526
 9196TIP3   OH227530   3.135   2.892   0.996
 9196TIP3    H127531   3.042   2.894   1.017
 9196TIP3    H227532   3.145   2.816   0.938
 9197TIP3   OH227533   5.811   4.462   2.646
 9197TIP3    H127534   5.854   4.535   2.601
 9197TIP3    H227535   5.803   4.490   2.737
 9198TIP3   OH227536   1.455   7.483   5.247
 9198TIP3    H127537   1.455   7.504   5.153
 9198TIP3    H227538   1.521   7.541   5.284
 9199TIP3   OH227539   1.439   1.762   3.037
 9199TIP3    H127540   1.425   1.776   3.131
 9199TIP3    H227541   1.353   1.781   2.998
 9200TIP3   OH227542   3.457   6.112   0.012
 9200TIP3    H127543   3.416   6.031   0.042
 9200TIP3    H227544   3.520   6.085  -0.055
 9201TIP3   OH227545   2.557   7.021   3.369
 9201TIP3    H127546   2.559   7.086   3.440
 9201TIP3    H227547   2.513   7.066   3.297
 9202TIP3   OH227548   0.525   5.193   4.924
 9202TIP3    H127549   0.554   5.117   4.974
 9202TIP3    H227550   0.494   5.157   4.841
 9203TIP3   OH227551   5.417   7.663   6.434
 9203TIP3    H127552   5.344   7.673   6.373
 9203TIP3    H227553   5.431   7.751   6.470
 9204TIP3   OH227554   1.440   6.058   1.150
 9204TIP3    H127555   1.405   6.092   1.233
 9204TIP3    H227556   1.507   5.994   1.177
 9205TIP3   OH227557   3.715   2.083   5.008
 9205TIP3    H127558   3.770   2.010   4.980
 9205TIP3    H227559   3.651   2.093   4.937
 9206TIP3   OH227560   3.367   6.748   5.119
 9206TIP3    H127561   3.430   6.683   5.088
 9206TIP3    H227562   3.340   6.794   5.040
 9207TIP3   OH227563   0.272   3.880   3.143
 9207TIP3    H127564   0.244   3.909   3.056
 9207TIP3    H227565   0.198   3.900   3.200
 9208TIP3   OH227566   0.232   6.843   3.644
 9208TIP3    H127567   0.300   6.803   3.589
 9208TIP3    H227568   0.152   6.835   3.593
 9209TIP3   OH227569   4.560   5.533   5.891
 9209TIP3    H127570   4.481   5.583   5.868
 9209TIP3    H227571   4.526   5.459   5.942
 9210TIP3   OH227572   6.919   4.059   2.832
 9210TIP3    H127573   6.826   4.079   2.843
 9210TIP3    H227574   6.956   4.140   2.797
 9211TIP3   OH227575   5.705   7.623   2.722
 9211TIP3    H127576   5.741   7.706   2.691
 9211TIP3    H227577   5.756   7.602   2.800
 9212TIP3   OH227578   5.153   2.927   2.083
 9212TIP3    H127579   5.092   2.986   2.039
 9212TIP3    H227580   5.238   2.948   2.043
 9213TIP3   OH227581   6.348   3.295   0.296
 9213TIP3    H127582   6.305   3.339   0.223
 9213TIP3    H227583   6.438   3.329   0.295
 9214TIP3   OH227584   5.913   1.627   2.839
 9214TIP3    H127585   5.858   1.669   2.905
 9214TIP3    H227586   5.857   1.560   2.800
 9215TIP3   OH227587   2.930   4.580   5.787
 9215TIP3    H127588   2.891   4.499   5.820
 9215TIP3    H227589   2.901   4.647   5.848
 9216TIP3   OH227590   5.645   2.890   2.963
 9216TIP3    H127591   5.644   2.974   2.918
 9216TIP3    H227592   5.581   2.836   2.916
 9217TIP3   OH227593   3.485   7.091   6.341
 9217TIP3    H127594   3.515   7.081   6.251
 9217TIP3    H227595   3.501   7.184   6.362
 9218TIP3   OH227596   0.744   3.258   1.625
 9218TIP3    H127597   0.797   3.305   1.689
 9218TIP3    H227598   0.680   3.210   1.678
 9219TIP3   OH227599   0.881   5.574   0.871
 9219TIP3    H127600   0.800   5.603   0.829
 9219TIP3    H227601   0.867   5.481   0.888
 9220TIP3   OH227602   2.177   3.423   0.651
 9220TIP3    H127603   2.143   3.484   0.716
 9220TIP3    H227604   2.233   3.363   0.701
 9221TIP3   OH227605   1.466   1.248   0.144
 9221TIP3    H127606   1.507   1.296   0.216
 9221TIP3    H227607   1.400   1.194   0.187
 9222TIP3   OH227608   5.393   0.995   6.173
 9222TIP3    H127609   5.462   1.056   6.144
 9222TIP3    H227610   5.322   1.052   6.204
 9223TIP3   OH227611   0.879   2.938   4.659
 9223TIP3    H127612   0.910   3.014   4.610
 9223TIP3    H227613   0.959   2.890   4.681
 9224TIP3   OH227614   1.092   4.512   3.966
 9224TIP3    H127615   1.073   4.480   4.054
 9224TIP3    H227616   1.099   4.607   3.975
 9225TIP3   OH227617   7.543   3.239   0.916
 9225TIP3    H127618   7.633   3.225   0.947
 9225TIP3    H227619   7.488   3.209   0.987
 9226TIP3   OH227620   2.179   2.455   5.576
 9226TIP3    H127621   2.125   2.404   5.636
 9226TIP3    H227622   2.175   2.407   5.494
 9227TIP3   OH227623   0.687   3.001   1.882
 9227TIP3    H127624   0.744   2.938   1.925
 9227TIP3    H227625   0.637   3.041   1.954
 9228TIP3   OH227626   2.669   4.623   2.962
 9228TIP3    H127627   2.751   4.584   2.991
 9228TIP3    H227628   2.606   4.551   2.962
 9229TIP3   OH227629   7.235   2.911   1.399
 9229TIP3    H127630   7.270   2.991   1.440
 9229TIP3    H227631   7.145   2.905   1.432
 9230TIP3   OH227632   1.054   2.276   5.459
 9230TIP3    H127633   1.031   2.304   5.548
 9230TIP3    H227634   1.105   2.349   5.424
 9231TIP3   OH227635   7.919   3.664   6.022
 9231TIP3    H127636   7.880   3.713   5.949
 9231TIP3    H227637   7.859   3.679   6.095
 9232TIP3   OH227638   0.275   7.125   5.779
 9232TIP3    H127639   0.216   7.117   5.704
 9232TIP3    H227640   0.227   7.088   5.852
 9233TIP3   OH227641   7.212   4.027   1.762
 9233TIP3    H127642   7.142   4.069   1.812
 9233TIP3    H227643   7.285   4.021   1.824
 9234TIP3   OH227644   8.100   6.163   0.661
 9234TIP3    H127645   8.168   6.227   0.638
 9234TIP3    H227646   8.086   6.113   0.581
 9235TIP3   OH227647   6.927   6.930   1.570
 9235TIP3    H127648   6.861   6.901   1.632
 9235TIP3    H227649   6.964   7.009   1.609
 9236TIP3   OH227650   6.720   7.275   0.376
 9236TIP3    H127651   6.682   7.281   0.288
 9236TIP3    H227652   6.722   7.366   0.407
 9237TIP3   OH227653   0.860   6.189   6.447
 9237TIP3    H127654   0.855   6.106   6.398
 9237TIP3    H227655   0.803   6.249   6.399
 9238TIP3   OH227656   2.626   0.566   1.619
 9238TIP3    H127657   2.721   0.567   1.612
 9238TIP3    H227658   2.595   0.582   1.529
 9239TIP3   OH227659   0.926   5.379   0.236
 9239TIP3    H127660   0.923   5.316   0.163
 9239TIP3    H227661   0.932   5.464   0.194
 9240TIP3   OH227662   5.483   1.540   3.579
 9240TIP3    H127663   5.395   1.568   3.605
 9240TIP3    H227664   5.499   1.588   3.497
 9241TIP3   OH227665   1.954   0.839   2.718
 9241TIP3    H127666   1.980   0.930   2.737
 9241TIP3    H227667   1.917   0.808   2.800
 9242TIP3   OH227668   0.658   6.248   3.250
 9242TIP3    H127669   0.626   6.158   3.253
 9242TIP3    H227670   0.578   6.301   3.255
 9243TIP3   OH227671   1.213   7.674   0.555
 9243TIP3    H127672   1.146   7.719   0.606
 9243TIP3    H227673   1.296   7.708   0.589
 9244TIP3   OH227674   2.744   7.132   1.027
 9244TIP3    H127675   2.723   7.225   1.038
 9244TIP3    H227676   2.782   7.105   1.111
 9245TIP3   OH227677   6.491   4.785   6.692
 9245TIP3    H127678   6.536   4.736   6.761
 9245TIP3    H227679   6.482   4.721   6.621
 9246TIP3   OH227680   3.740   4.675   3.767
 9246TIP3    H127681   3.675   4.650   3.701
 9246TIP3    H227682   3.752   4.769   3.755
 9247TIP3   OH227683   7.638   2.110   0.332
 9247TIP3    H127684   7.599   2.148   0.411
 9247TIP3    H227685   7.592   2.027   0.320
 9248TIP3   OH227686   7.219   0.988   6.530
 9248TIP3    H127687   7.163   0.963   6.603
 9248TIP3    H227688   7.273   0.910   6.514
 9249TIP3   OH227689   4.803   7.681   4.902
 9249TIP3    H127690   4.786   7.615   4.835
 9249TIP3    H227691   4.752   7.652   4.977
 9250TIP3   OH227692   5.132   0.564   2.431
 9250TIP3    H127693   5.172   0.640   2.474
 9250TIP3    H227694   5.100   0.510   2.503
 9251TIP3   OH227695   6.717   5.033   5.490
 9251TIP3    H127696   6.747   5.063   5.576
 9251TIP3    H227697   6.633   5.076   5.477
 9252TIP3   OH227698   2.521   4.744   3.655
 9252TIP3    H127699   2.510   4.661   3.702
 9252TIP3    H227700   2.510   4.720   3.563
 9253TIP3   OH227701   3.214   0.671  -0.005
 9253TIP3    H127702   3.277   0.731  -0.046
 9253TIP3    H227703   3.129   0.712  -0.020
 9254TIP3   OH227704   5.406   6.800   3.301
 9254TIP3    H127705   5.470   6.831   3.237
 9254TIP3    H227706   5.438   6.713   3.327
 9255TIP3   OH227707   4.398   0.203   6.680
 9255TIP3    H127708   4.394   0.235   6.590
 9255TIP3    H227709   4.357   0.273   6.732
 9256TIP3   OH227710   3.928   0.347   1.672
 9256TIP3    H127711   3.885   0.431   1.659
 9256TIP3    H227712   3.859   0.290   1.705
 9257TIP3   OH227713   6.431   3.470   1.173
 9257TIP3    H127714   6.372   3.524   1.226
 9257TIP3    H227715   6.440   3.389   1.223
 9258TIP3   OH227716   5.467   4.529   6.220
 9258TIP3    H127717   5.440   4.564   6.304
 9258TIP3    H227718   5.464   4.604   6.160
 9259TIP3   OH227719   8.237   0.992   2.795
 9259TIP3    H127720   8.243   0.976   2.889
 9259TIP3    H227721   8.320   1.035   2.772
 9260TIP3   OH227722   4.303   4.742   5.138
 9260TIP3    H127723   4.278   4.814   5.080
 9260TIP3    H227724   4.221   4.695   5.153
 9261TIP3   OH227725   0.836   5.019   4.837
 9261TIP3    H127726   0.802   4.983   4.755
 9261TIP3    H227727   0.880   4.946   4.880
 9262TIP3   OH227728   3.936   5.329   6.299
 9262TIP3    H127729   3.976   5.244   6.318
 9262TIP3    H227730   3.942   5.338   6.204
 9263TIP3   OH227731   0.795   3.356   2.446
 9263TIP3    H127732   0.770   3.449   2.451
 9263TIP3    H227733   0.864   3.353   2.380
 9264TIP3   OH227734   0.126   7.161   1.342
 9264TIP3    H127735   0.194   7.228   1.354
 9264TIP3    H227736   0.058   7.205   1.292
 9265TIP3   OH227737   2.423   1.249   3.078
 9265TIP3    H127738   2.370   1.302   3.019
 9265TIP3    H227739   2.359   1.198   3.129
 9266TIP3   OH227740   1.560   5.362   6.561
 9266TIP3    H127741   1.596   5.326   6.642
 9266TIP3    H227742   1.583   5.455   6.564
 9267TIP3   OH227743   3.694   3.469   6.427
 9267TIP3    H127744   3.787   3.463   6.406
 9267TIP3    H227745   3.650   3.451   6.344
 9268TIP3   OH227746   4.254   5.757   6.381
 9268TIP3    H127747   4.218   5.833   6.426
 9268TIP3    H227748   4.291   5.702   6.451
 9269TIP3   OH227749   7.379   2.214   5.011
 9269TIP3    H127750   7.399   2.301   5.047
 9269TIP3    H227751   7.312   2.179   5.069
 9270TIP3   OH227752   4.667   2.333   4.130
 9270TIP3    H127753   4.761   2.343   4.114
 9270TIP3    H227754   4.628   2.412   4.091
 9271TIP3   OH227755   7.722   4.632   0.669
 9271TIP3    H127756   7.725   4.681   0.751
 9271TIP3    H227757   7.726   4.698   0.600
 9272TIP3   OH227758   2.289   1.681   2.622
 9272TIP3    H127759   2.326   1.757   2.668
 9272TIP3    H227760   2.344   1.671   2.544
 9273TIP3   OH227761   7.272   1.701   1.887
 9273TIP3    H127762   7.317   1.740   1.811
 9273TIP3    H227763   7.227   1.625   1.851
 9274TIP3   OH227764   7.183   4.880   4.286
 9274TIP3    H127765   7.161   4.969   4.314
 9274TIP3    H227766   7.272   4.886   4.252
 9275TIP3   OH227767   7.558   0.295   5.840
 9275TIP3    H127768   7.552   0.232   5.769
 9275TIP3    H227769   7.638   0.345   5.821
 9276TIP3   OH227770   2.269   2.879   1.619
 9276TIP3    H127771   2.310   2.955   1.576
 9276TIP3    H227772   2.175   2.899   1.618
 9277TIP3   OH227773   0.720   4.135   5.485
 9277TIP3    H127774   0.651   4.071   5.501
 9277TIP3    H227775   0.673   4.217   5.467
 9278TIP3   OH227776   6.914   1.689   4.979
 9278TIP3    H127777   6.918   1.780   5.007
 9278TIP3    H227778   6.868   1.692   4.895
 9279TIP3   OH227779   2.916   4.402   0.352
 9279TIP3    H127780   2.936   4.387   0.260
 9279TIP3    H227781   2.949   4.490   0.370
 9280TIP3   OH227782   4.997   7.638   4.034
 9280TIP3    H127783   5.019   7.703   4.100
 9280TIP3    H227784   5.081   7.598   4.010
 9281TIP3   OH227785   0.815   6.366   4.345
 9281TIP3    H127786   0.802   6.312   4.423
 9281TIP3    H227787   0.910   6.377   4.338
 9282TIP3   OH227788   0.565   3.343   5.759
 9282TIP3    H127789   0.508   3.349   5.682
 9282TIP3    H227790   0.524   3.400   5.824
 9283TIP3   OH227791   6.599   1.818   4.957
 9283TIP3    H127792   6.506   1.805   4.938
 9283TIP3    H227793   6.642   1.812   4.872
 9284TIP3   OH227794   3.816   7.000   1.969
 9284TIP3    H127795   3.897   7.050   1.966
 9284TIP3    H227796   3.759   7.049   2.028
 9285TIP3   OH227797   3.105   4.687   0.086
 9285TIP3    H127798   3.154   4.608   0.110
 9285TIP3    H227799   3.023   4.654   0.050
 9286TIP3   OH227800   6.979   7.772   4.629
 9286TIP3    H127801   7.027   7.721   4.693
 9286TIP3    H227802   7.009   7.740   4.544
 9287TIP3   OH227803   4.337   0.695   3.526
 9287TIP3    H127804   4.252   0.665   3.557
 9287TIP3    H227805   4.327   0.790   3.518
 9288TIP3   OH227806   2.618   4.648   0.473
 9288TIP3    H127807   2.633   4.737   0.441
 9288TIP3    H227808   2.700   4.623   0.515
 9289TIP3   OH227809   1.860   1.142   1.813
 9289TIP3    H127810   1.802   1.070   1.840
 9289TIP3    H227811   1.851   1.207   1.882
 9290TIP3   OH227812   3.917   0.887   6.046
 9290TIP3    H127813   3.899   0.793   6.046
 9290TIP3    H227814   3.831   0.928   6.039
 9291TIP3   OH227815   1.031   3.923   6.726
 9291TIP3    H127816   0.939   3.922   6.754
 9291TIP3    H227817   1.031   3.876   6.643
 9292TIP3   OH227818   8.190   0.804   4.088
 9292TIP3    H127819   8.250   0.872   4.058
 9292TIP3    H227820   8.240   0.722   4.078
 9293TIP3   OH227821   3.978   6.844   5.163
 9293TIP3    H127822   3.899   6.812   5.208
 9293TIP3    H227823   4.001   6.773   5.103
 9294TIP3   OH227824   5.769   2.701   1.257
 9294TIP3    H127825   5.751   2.633   1.192
 9294TIP3    H227826   5.690   2.755   1.257
 9295TIP3   OH227827   2.291   1.342   2.851
 9295TIP3    H127828   2.342   1.389   2.786
 9295TIP3    H227829   2.214   1.396   2.866
 9296TIP3   OH227830   5.296   5.748   1.453
 9296TIP3    H127831   5.219   5.692   1.444
 9296TIP3    H227832   5.288   5.811   1.381
 9297TIP3   OH227833   4.030   5.382   0.646
 9297TIP3    H127834   4.123   5.403   0.652
 9297TIP3    H227835   4.015   5.320   0.718
 9298TIP3   OH227836   6.543   7.647   6.577
 9298TIP3    H127837   6.471   7.706   6.597
 9298TIP3    H227838   6.620   7.691   6.613
 9299TIP3   OH227839   2.497   1.276   4.975
 9299TIP3    H127840   2.544   1.336   5.034
 9299TIP3    H227841   2.428   1.330   4.937
 9300TIP3   OH227842   0.221   5.745   5.066
 9300TIP3    H127843   0.178   5.670   5.024
 9300TIP3    H227844   0.314   5.733   5.046
 9301TIP3   OH227845   7.059   2.611   6.004
 9301TIP3    H127846   7.053   2.654   6.090
 9301TIP3    H227847   6.971   2.575   5.990
 9302TIP3   OH227848   1.956   7.479   0.894
 9302TIP3    H127849   1.914   7.396   0.915
 9302TIP3    H227850   1.943   7.489   0.800
 9303TIP3   OH227851   5.588   0.463   4.652
 9303TIP3    H127852   5.613   0.461   4.744
 9303TIP3    H227853   5.508   0.409   4.648
 9304TIP3   OH227854   5.043   1.312   6.564
 9304TIP3    H127855   5.121   1.276   6.522
 9304TIP3    H227856   5.039   1.269   6.649
 9305TIP3   OH227857   4.664   1.163   6.410
 9305TIP3    H127858   4.689   1.072   6.394
 9305TIP3    H227859   4.737   1.215   6.373
 9306TIP3   OH227860   3.531   5.504   2.410
 9306TIP3    H127861   3.581   5.546   2.340
 9306TIP3    H227862   3.482   5.435   2.366
 9307TIP3   OH227863   7.236   6.840   2.677
 9307TIP3    H127864   7.235   6.821   2.771
 9307TIP3    H227865   7.144   6.849   2.653
 9308TIP3   OH227866   1.440   6.688   3.379
 9308TIP3    H127867   1.519   6.700   3.431
 9308TIP3    H227868   1.454   6.607   3.332
 9309TIP3   OH227869   1.886   2.221   3.025
 9309TIP3    H127870   1.937   2.197   2.948
 9309TIP3    H227871   1.847   2.138   3.055
 9310TIP3   OH227872   6.489   2.658   3.360
 9310TIP3    H127873   6.491   2.565   3.382
 9310TIP3    H227874   6.562   2.669   3.300
 9311TIP3   OH227875   5.298   7.040   6.075
 9311TIP3    H127876   5.212   7.000   6.061
 9311TIP3    H227877   5.344   6.977   6.131
 9312TIP3   OH227878   1.761   1.990   4.405
 9312TIP3    H127879   1.799   1.908   4.438
 9312TIP3    H227880   1.836   2.041   4.376
 9313TIP3   OH227881   0.622   6.259   6.067
 9313TIP3    H127882   0.688   6.327   6.053
 9313TIP3    H227883   0.658   6.182   6.023
 9314TIP3   OH227884   7.868   6.784   5.165
 9314TIP3    H127885   7.834   6.845   5.101
 9314TIP3    H227886   7.946   6.747   5.124
 9315TIP3   OH227887   7.880   0.801   4.426
 9315TIP3    H127888   7.911   0.878   4.378
 9315TIP3    H227889   7.857   0.738   4.358
 9316TIP3   OH227890   4.392   6.595   0.156
 9316TIP3    H127891   4.472   6.641   0.180
 9316TIP3    H227892   4.417   6.542   0.080
 9317TIP3   OH227893   4.520   3.356   3.818
 9317TIP3    H127894   4.464   3.399   3.883
 9317TIP3    H227895   4.485   3.384   3.734
 9318TIP3   OH227896   7.700   4.253   1.729
 9318TIP3    H127897   7.757   4.201   1.673
 9318TIP3    H227898   7.643   4.300   1.668
 9319TIP3   OH227899   6.482   3.032   6.264
 9319TIP3    H127900   6.473   3.048   6.170
 9319TIP3    H227901   6.456   2.940   6.275
 9320TIP3   OH227902   7.863   1.003   3.067
 9320TIP3    H127903   7.888   0.998   2.974
 9320TIP3    H227904   7.783   0.950   3.073
 9321TIP3   OH227905   2.789   0.178   0.319
 9321TIP3    H127906   2.790   0.135   0.233
 9321TIP3    H227907   2.875   0.221   0.325
 9322TIP3   OH227908   3.084   6.407   5.076
 9322TIP3    H127909   3.048   6.495   5.064
 9322TIP3    H227910   3.114   6.381   4.989
 9323TIP3   OH227911   7.904   2.858   4.218
 9323TIP3    H127912   7.939   2.924   4.158
 9323TIP3    H227913   7.981   2.810   4.248
 9324TIP3   OH227914   3.004   5.847   0.174
 9324TIP3    H127915   3.003   5.878   0.084
 9324TIP3    H227916   3.052   5.914   0.223
 9325TIP3   OH227917   7.905   3.010   3.175
 9325TIP3    H127918   7.907   3.081   3.239
 9325TIP3    H227919   7.925   2.931   3.225
 9326TIP3   OH227920   7.358   3.921   5.170
 9326TIP3    H127921   7.398   3.918   5.083
 9326TIP3    H227922   7.312   4.005   5.173
 9327TIP3   OH227923   5.738   0.829   1.212
 9327TIP3    H127924   5.687   0.825   1.132
 9327TIP3    H227925   5.717   0.749   1.259
 9328TIP3   OH227926   3.809   0.664   3.127
 9328TIP3    H127927   3.788   0.756   3.111
 9328TIP3    H227928   3.724   0.620   3.128
 9329TIP3   OH227929   7.819   1.686   4.714
 9329TIP3    H127930   7.809   1.598   4.676
 9329TIP3    H227931   7.760   1.741   4.663
 9330TIP3   OH227932   6.227   4.409   6.716
 9330TIP3    H127933   6.192   4.489   6.676
 9330TIP3    H227934   6.271   4.440   6.795
 9331TIP3   OH227935   4.645   1.603   4.805
 9331TIP3    H127936   4.688   1.595   4.890
 9331TIP3    H227937   4.717   1.607   4.742
 9332TIP3   OH227938   0.442   7.186   3.953
 9332TIP3    H127939   0.370   7.219   4.007
 9332TIP3    H227940   0.399   7.138   3.882
 9333TIP3   OH227941   1.581   2.074   6.665
 9333TIP3    H127942   1.524   1.999   6.646
 9333TIP3    H227943   1.666   2.034   6.683
 9334TIP3   OH227944   1.676   6.208   0.544
 9334TIP3    H127945   1.708   6.123   0.575
 9334TIP3    H227946   1.581   6.198   0.541
 9335TIP3   OH227947   3.826   2.802   4.622
 9335TIP3    H127948   3.821   2.877   4.563
 9335TIP3    H227949   3.904   2.818   4.675
 9336TIP3   OH227950   5.511   4.131   6.028
 9336TIP3    H127951   5.443   4.194   6.054
 9336TIP3    H227952   5.591   4.184   6.021
 9337TIP3   OH227953   6.297   4.917   0.815
 9337TIP3    H127954   6.212   4.901   0.774
 9337TIP3    H227955   6.291   4.875   0.900
 9338TIP3   OH227956   1.312   4.128   4.647
 9338TIP3    H127957   1.393   4.078   4.661
 9338TIP3    H227958   1.317   4.156   4.556
 9339TIP3   OH227959   0.036   5.520   1.495
 9339TIP3    H127960   0.062   5.437   1.535
 9339TIP3    H227961  -0.060   5.521   1.503
 9340TIP3   OH227962   6.562   0.335   5.491
 9340TIP3    H127963   6.656   0.320   5.493
 9340TIP3    H227964   6.536   0.339   5.583
 9341TIP3   OH227965   5.072   0.567   3.383
 9341TIP3    H127966   5.130   0.627   3.336
 9341TIP3    H227967   5.129   0.495   3.410
 9342TIP3   OH227968   7.555   1.228   0.593
 9342TIP3    H127969   7.493   1.164   0.557
 9342TIP3    H227970   7.585   1.189   0.675
 9343TIP3   OH227971   3.321   7.044   5.216
 9343TIP3    H127972   3.381   7.042   5.290
 9343TIP3    H227973   3.309   6.952   5.192
 9344TIP3   OH227974   1.529   5.790   0.117
 9344TIP3    H127975   1.618   5.820   0.134
 9344TIP3    H227976   1.476   5.869   0.116
 9345TIP3   OH227977   1.423   5.950   6.714
 9345TIP3    H127978   1.435   5.932   6.621
 9345TIP3    H227979   1.447   6.043   6.724
 9346TIP3   OH227980   4.328   3.342   5.612
 9346TIP3    H127981   4.246   3.298   5.587
 9346TIP3    H227982   4.393   3.308   5.551
 9347TIP3   OH227983   0.444   2.547   2.893
 9347TIP3    H127984   0.497   2.596   2.831
 9347TIP3    H227985   0.386   2.494   2.839
 9348TIP3   OH227986   1.714   0.014   3.638
 9348TIP3    H127987   1.727   0.108   3.627
 9348TIP3    H227988   1.787  -0.027   3.591
 9349TIP3   OH227989   0.711   1.876   0.510
 9349TIP3    H127990   0.787   1.845   0.559
 9349TIP3    H227991   0.656   1.799   0.498
 9350TIP3   OH227992   6.396   6.239   2.404
 9350TIP3    H127993   6.413   6.145   2.398
 9350TIP3    H227994   6.395   6.257   2.498
 9351TIP3   OH227995   2.329   7.403   3.222
 9351TIP3    H127996   2.339   7.408   3.317
 9351TIP3    H227997   2.295   7.489   3.196
 9352TIP3   OH227998   3.397   6.220   5.003
 9352TIP3    H127999   3.455   6.264   5.065
 9352TIP3    H228000   3.333   6.175   5.058
 9353TIP3   OH228001   6.193   7.062   0.780
 9353TIP3    H128002   6.242   7.001   0.835
 9353TIP3    H228003   6.126   7.098   0.838
 9354TIP3   OH228004   4.569   4.651   0.667
 9354TIP3    H128005   4.577   4.565   0.625
 9354TIP3    H228006   4.475   4.662   0.681
 9355TIP3   OH228007   7.009   7.343   3.246
 9355TIP3    H128008   6.979   7.418   3.297
 9355TIP3    H228009   7.034   7.380   3.162
 9356TIP3   OH228010   1.389   4.685   3.434
 9356TIP3    H128011   1.366   4.611   3.490
 9356TIP3    H228012   1.405   4.646   3.348
 9357TIP3   OH228013   2.154   5.068   2.617
 9357TIP3    H128014   2.208   5.068   2.696
 9357TIP3    H228015   2.178   5.149   2.571
 9358TIP3   OH228016   7.964   4.362   1.871
 9358TIP3    H128017   7.931   4.280   1.908
 9358TIP3    H228018   7.994   4.411   1.948
 9359TIP3   OH228019   3.023   4.991   6.107
 9359TIP3    H128020   3.094   4.993   6.043
 9359TIP3    H228021   3.051   5.052   6.176
 9360TIP3   OH228022   3.065   3.343   2.039
 9360TIP3    H128023   2.996   3.358   1.974
 9360TIP3    H228024   3.106   3.428   2.051
 9361TIP3   OH228025   4.993   0.981   0.641
 9361TIP3    H128026   4.992   1.054   0.579
 9361TIP3    H228027   4.916   0.929   0.617
 9362TIP3   OH228028   5.609   3.064   0.401
 9362TIP3    H128029   5.643   3.095   0.317
 9362TIP3    H228030   5.575   2.977   0.383
 9363TIP3   OH228031   3.585   6.122   6.587
 9363TIP3    H128032   3.600   6.059   6.517
 9363TIP3    H228033   3.491   6.116   6.604
 9364TIP3   OH228034   1.916   4.487   2.243
 9364TIP3    H128035   1.905   4.563   2.299
 9364TIP3    H228036   1.905   4.412   2.301
 9365TIP3   OH228037   6.147   4.754   2.681
 9365TIP3    H128038   6.205   4.688   2.719
 9365TIP3    H228039   6.126   4.813   2.754
 9366TIP3   OH228040   2.170   4.492   1.064
 9366TIP3    H128041   2.119   4.572   1.051
 9366TIP3    H228042   2.166   4.447   0.980
 9367TIP3   OH228043   5.672   3.655   3.602
 9367TIP3    H128044   5.625   3.736   3.623
 9367TIP3    H228045   5.758   3.683   3.572
 9368TIP3   OH228046   3.540   1.353   0.444
 9368TIP3    H128047   3.547   1.340   0.349
 9368TIP3    H228048   3.563   1.445   0.457
 9369TIP3   OH228049   7.767   0.653   0.307
 9369TIP3    H128050   7.839   0.669   0.369
 9369TIP3    H228051   7.771   0.726   0.246
 9370TIP3   OH228052   2.575   4.700   5.111
 9370TIP3    H128053   2.630   4.727   5.038
 9370TIP3    H228054   2.581   4.771   5.174
 9371TIP3   OH228055   1.739   1.625   6.515
 9371TIP3    H128056   1.796   1.700   6.532
 9371TIP3    H228057   1.774   1.555   6.570
 9372TIP3   OH228058   7.995   2.609   5.779
 9372TIP3    H128059   7.993   2.539   5.845
 9372TIP3    H228060   8.033   2.568   5.701
 9373TIP3   OH228061   2.164   7.127   3.892
 9373TIP3    H128062   2.237   7.166   3.844
 9373TIP3    H228063   2.206   7.082   3.966
 9374TIP3   OH228064   0.461   4.070   5.930
 9374TIP3    H128065   0.504   4.066   6.015
 9374TIP3    H228066   0.446   4.164   5.915
 9375TIP3   OH228067   6.042   6.746   2.332
 9375TIP3    H128068   6.108   6.677   2.330
 9375TIP3    H228069   5.972   6.712   2.387
 9376TIP3   OH228070   4.885   6.367   6.683
 9376TIP3    H128071   4.807   6.320   6.653
 9376TIP3    H228072   4.944   6.365   6.607
 9377TIP3   OH228073   4.034   5.837   0.539
 9377TIP3    H128074   4.072   5.895   0.473
 9377TIP3    H228075   3.987   5.770   0.488
 9378TIP3   OH228076   2.578   5.156   3.443
 9378TIP3    H128077   2.652   5.193   3.490
 9378TIP3    H228078   2.605   5.154   3.352
 9379TIP3   OH228079   0.125   4.637   3.815
 9379TIP3    H128080   0.179   4.670   3.887
 9379TIP3    H228081   0.188   4.612   3.748
 9380TIP3   OH228082   4.075   4.873   2.256
 9380TIP3    H128083   4.117   4.959   2.267
 9380TIP3    H228084   3.983   4.893   2.238
 9381TIP3   OH228085   8.218   5.707   6.318
 9381TIP3    H128086   8.188   5.646   6.251
 9381TIP3    H228087   8.309   5.680   6.336
 9382TIP3   OH228088   7.153   3.406   5.000
 9382TIP3    H128089   7.072   3.375   4.960
 9382TIP3    H228090   7.161   3.497   4.970
 9383TIP3   OH228091   1.914   2.422   4.844
 9383TIP3    H128092   1.921   2.394   4.935
 9383TIP3    H228093   1.866   2.351   4.801
 9384TIP3   OH228094   4.198   2.205   4.995
 9384TIP3    H128095   4.286   2.171   5.012
 9384TIP3    H228096   4.145   2.128   4.977
 9385TIP3   OH228097   7.187   0.120   4.294
 9385TIP3    H128098   7.115   0.181   4.311
 9385TIP3    H228099   7.232   0.157   4.218
 9386TIP3   OH228100   6.014   0.936   2.949
 9386TIP3    H128101   6.069   0.954   3.025
 9386TIP3    H228102   5.929   0.975   2.971
 9387TIP3   OH228103   0.491   3.351   4.269
 9387TIP3    H128104   0.480   3.370   4.176
 9387TIP3    H228105   0.439   3.272   4.284
 9388TIP3   OH228106   0.842   5.598   5.460
 9388TIP3    H128107   0.907   5.532   5.435
 9388TIP3    H228108   0.762   5.572   5.415
 9389TIP3   OH228109   1.686   5.703   6.498
 9389TIP3    H128110   1.697   5.619   6.453
 9389TIP3    H228111   1.763   5.754   6.474
 9390TIP3   OH228112   4.023   0.576   3.307
 9390TIP3    H128113   3.971   0.580   3.227
 9390TIP3    H228114   4.089   0.645   3.296
 9391TIP3   OH228115   0.712   2.840   3.425
 9391TIP3    H128116   0.702   2.796   3.509
 9391TIP3    H228117   0.636   2.812   3.375
 9392TIP3   OH228118   5.242   0.215   4.099
 9392TIP3    H128119   5.184   0.152   4.142
 9392TIP3    H228120   5.321   0.216   4.152
 9393TIP3   OH228121   0.092   6.790   6.172
 9393TIP3    H128122   0.025   6.733   6.132
 9393TIP3    H228123   0.085   6.872   6.124
 9394TIP3   OH228124   0.510   2.095   4.602
 9394TIP3    H128125   0.482   2.008   4.572
 9394TIP3    H228126   0.428   2.142   4.619
 9395TIP3   OH228127   7.241   5.843   3.564
 9395TIP3    H128128   7.205   5.901   3.496
 9395TIP3    H228129   7.176   5.845   3.634
 9396TIP3   OH228130   7.452   2.385   1.523
 9396TIP3    H128131   7.427   2.477   1.517
 9396TIP3    H228132   7.538   2.386   1.565
 9397TIP3   OH228133   4.093   6.903   2.112
 9397TIP3    H128134   4.106   6.954   2.193
 9397TIP3    H228135   4.043   6.961   2.055
 9398TIP3   OH228136   4.264   6.269   3.555
 9398TIP3    H128137   4.257   6.267   3.460
 9398TIP3    H228138   4.176   6.251   3.587
 9399TIP3   OH228139   5.759   3.526   5.768
 9399TIP3    H128140   5.727   3.589   5.703
 9399TIP3    H228141   5.773   3.579   5.847
 9400TIP3   OH228142   1.112   7.400   1.194
 9400TIP3    H128143   1.191   7.369   1.239
 9400TIP3    H228144   1.093   7.485   1.234
 9401TIP3   OH228145   2.430   7.816   2.299
 9401TIP3    H128146   2.415   7.797   2.206
 9401TIP3    H228147   2.521   7.788   2.315
 9402TIP3   OH228148   7.185   0.628   4.631
 9402TIP3    H128149   7.149   0.606   4.545
 9402TIP3    H228150   7.269   0.582   4.634
 9403TIP3   OH228151   4.272   4.062   2.898
 9403TIP3    H128152   4.227   4.013   2.829
 9403TIP3    H228153   4.325   4.126   2.851
 9404TIP3   OH228154   6.234   2.612   3.640
 9404TIP3    H128155   6.204   2.540   3.694
 9404TIP3    H228156   6.223   2.581   3.550
 9405TIP3   OH228157   7.478   3.939   3.227
 9405TIP3    H128158   7.544   3.904   3.167
 9405TIP3    H228159   7.506   4.029   3.244
 9406TIP3   OH228160   3.984   4.467   6.471
 9406TIP3    H128161   4.052   4.404   6.496
 9406TIP3    H228162   3.981   4.528   6.545
 9407TIP3   OH228163   3.167   1.614   2.798
 9407TIP3    H128164   3.254   1.651   2.816
 9407TIP3    H228165   3.166   1.600   2.704
 9408TIP3   OH228166   3.726   0.188   1.480
 9408TIP3    H128167   3.712   0.173   1.573
 9408TIP3    H228168   3.796   0.128   1.456
 9409TIP3   OH228169   6.799   3.280   4.321
 9409TIP3    H128170   6.870   3.264   4.258
 9409TIP3    H228171   6.721   3.289   4.267
 9410TIP3   OH228172   3.435   4.376   4.531
 9410TIP3    H128173   3.510   4.389   4.588
 9410TIP3    H228174   3.473   4.365   4.444
 9411TIP3   OH228175   7.519   5.339   0.108
 9411TIP3    H128176   7.502   5.272   0.174
 9411TIP3    H228177   7.490   5.299   0.026
 9412TIP3   OH228178   6.592   0.394   4.668
 9412TIP3    H128179   6.542   0.314   4.650
 9412TIP3    H228180   6.668   0.387   4.610
 9413TIP3   OH228181   0.700   2.361   1.866
 9413TIP3    H128182   0.703   2.352   1.961
 9413TIP3    H228183   0.717   2.273   1.833
 9414TIP3   OH228184   3.906   5.109   2.545
 9414TIP3    H128185   3.887   5.152   2.461
 9414TIP3    H228186   3.863   5.024   2.539
 9415TIP3   OH228187   6.945   5.875   1.521
 9415TIP3    H128188   7.025   5.924   1.503
 9415TIP3    H228189   6.893   5.884   1.441
 9416TIP3   OH228190   0.957   5.331   6.299
 9416TIP3    H128191   0.948   5.259   6.361
 9416TIP3    H228192   1.051   5.342   6.288
 9417TIP3   OH228193   2.049   0.148   3.603
 9417TIP3    H128194   2.032   0.064   3.562
 9417TIP3    H228195   1.963   0.182   3.626
 9418TIP3   OH228196   7.622   7.029   3.453
 9418TIP3    H128197   7.545   7.069   3.494
 9418TIP3    H228198   7.587   6.984   3.376
 9419TIP3   OH228199   4.334   7.067   6.320
 9419TIP3    H128200   4.320   7.162   6.316
 9419TIP3    H228201   4.256   7.034   6.365
 9420TIP3   OH228202   6.913   2.087   1.483
 9420TIP3    H128203   6.829   2.111   1.522
 9420TIP3    H228204   6.912   2.127   1.396
 9421TIP3   OH228205   6.355   2.606   3.932
 9421TIP3    H128206   6.400   2.526   3.905
 9421TIP3    H228207   6.310   2.581   4.013
 9422TIP3   OH228208   5.798   2.947   0.577
 9422TIP3    H128209   5.752   2.881   0.524
 9422TIP3    H228210   5.737   3.020   0.583
 9423TIP3   OH228211   1.802   4.450   3.780
 9423TIP3    H128212   1.795   4.451   3.876
 9423TIP3    H228213   1.711   4.453   3.750
 9424TIP3   OH228214   8.306   3.470   2.329
 9424TIP3    H128215   8.263   3.385   2.313
 9424TIP3    H228216   8.251   3.533   2.283
 9425TIP3   OH228217   7.595   7.125   2.991
 9425TIP3    H128218   7.509   7.149   2.956
 9425TIP3    H228219   7.657   7.165   2.930
 9426TIP3   OH228220   1.490   7.738   3.860
 9426TIP3    H128221   1.484   7.646   3.885
 9426TIP3    H228222   1.424   7.748   3.790
 9427TIP3   OH228223   0.406   3.708   3.343
 9427TIP3    H128224   0.459   3.644   3.295
 9427TIP3    H228225   0.357   3.754   3.275
 9428TIP3   OH228226   0.882   1.966   3.432
 9428TIP3    H128227   0.787   1.973   3.435
 9428TIP3    H228228   0.901   1.884   3.478
 9429TIP3   OH228229   0.553   3.706   5.626
 9429TIP3    H128230   0.518   3.684   5.712
 9429TIP3    H228231   0.521   3.638   5.568
 9430TIP3   OH228232   3.492   0.530   1.021
 9430TIP3    H128233   3.537   0.615   1.023
 9430TIP3    H228234   3.532   0.484   0.947
 9431TIP3   OH228235   1.848   1.553   1.606
 9431TIP3    H128236   1.905   1.479   1.585
 9431TIP3    H228237   1.775   1.545   1.545
 9432TIP3   OH228238   3.014   4.696   6.674
 9432TIP3    H128239   2.939   4.658   6.720
 9432TIP3    H228240   2.977   4.739   6.597
 9433TIP3   OH228241   2.594   7.348   6.694
 9433TIP3    H128242   2.651   7.289   6.645
 9433TIP3    H228243   2.595   7.315   6.784
 9434TIP3   OH228244   1.686   0.333   0.963
 9434TIP3    H128245   1.779   0.309   0.970
 9434TIP3    H228246   1.657   0.343   1.054
 9435TIP3   OH228247   3.809   4.323   6.186
 9435TIP3    H128248   3.896   4.308   6.149
 9435TIP3    H228249   3.811   4.414   6.215
 9436TIP3   OH228250   1.468   4.279   0.405
 9436TIP3    H128251   1.528   4.250   0.335
 9436TIP3    H228252   1.483   4.373   0.412
 9437TIP3   OH228253   0.263   7.223   0.845
 9437TIP3    H128254   0.264   7.193   0.754
 9437TIP3    H228255   0.190   7.175   0.885
 9438TIP3   OH228256   3.590   0.675   5.744
 9438TIP3    H128257   3.549   0.718   5.819
 9438TIP3    H228258   3.603   0.585   5.773
 9439TIP3   OH228259   4.698   4.411   5.646
 9439TIP3    H128260   4.700   4.490   5.592
 9439TIP3    H228261   4.609   4.377   5.635
 9440TIP3   OH228262   1.922   6.500   0.469
 9440TIP3    H128263   1.997   6.472   0.417
 9440TIP3    H228264   1.851   6.508   0.406
 9441TIP3   OH228265   4.048   7.293   1.101
 9441TIP3    H128266   4.056   7.223   1.037
 9441TIP3    H228267   4.137   7.324   1.116
 9442TIP3   OH228268   1.742   3.752   6.007
 9442TIP3    H128269   1.824   3.801   6.000
 9442TIP3    H228270   1.697   3.790   6.083
 9443TIP3   OH228271   3.070   5.742   4.968
 9443TIP3    H128272   3.036   5.818   4.919
 9443TIP3    H228273   3.158   5.728   4.933
 9444TIP3   OH228274   4.222   1.091   5.361
 9444TIP3    H128275   4.173   1.137   5.293
 9444TIP3    H228276   4.249   1.160   5.421
 9445TIP3   OH228277   2.995   4.797   5.054
 9445TIP3    H128278   3.084   4.784   5.022
 9445TIP3    H228279   2.997   4.882   5.098
 9446TIP3   OH228280   4.374   6.064   5.530
 9446TIP3    H128281   4.364   6.087   5.622
 9446TIP3    H228282   4.438   5.993   5.529
 9447TIP3   OH228283   2.171   0.365   4.787
 9447TIP3    H128284   2.169   0.445   4.840
 9447TIP3    H228285   2.196   0.296   4.848
 9448TIP3   OH228286   4.862   1.364   4.465
 9448TIP3    H128287   4.779   1.379   4.420
 9448TIP3    H228288   4.926   1.351   4.395
 9449TIP3   OH228289   8.056   3.780   0.219
 9449TIP3    H128290   8.099   3.776   0.134
 9449TIP3    H228291   8.106   3.844   0.269
 9450TIP3   OH228292   0.957   4.592   6.686
 9450TIP3    H128293   0.934   4.610   6.777
 9450TIP3    H228294   0.880   4.619   6.635
 9451TIP3   OH228295   1.766   4.144   1.149
 9451TIP3    H128296   1.694   4.114   1.094
 9451TIP3    H228297   1.749   4.238   1.161
 9452TIP3   OH228298   0.338   5.936   2.457
 9452TIP3    H128299   0.243   5.945   2.454
 9452TIP3    H228300   0.353   5.858   2.511
 9453TIP3   OH228301   0.280   2.276   1.808
 9453TIP3    H128302   0.343   2.309   1.872
 9453TIP3    H228303   0.200   2.326   1.825
 9454TIP3   OH228304   5.417   3.087   3.077
 9454TIP3    H128305   5.462   3.072   2.994
 9454TIP3    H228306   5.423   3.182   3.090
 9455TIP3   OH228307   2.180   1.057   1.130
 9455TIP3    H128308   2.103   1.003   1.144
 9455TIP3    H228309   2.254   0.998   1.145
 9456TIP3   OH228310   7.280   4.184   5.106
 9456TIP3    H128311   7.369   4.215   5.088
 9456TIP3    H228312   7.223   4.252   5.072
 9457TIP3   OH228313   4.621   7.054   5.371
 9457TIP3    H128314   4.572   7.018   5.297
 9457TIP3    H228315   4.592   7.002   5.446
 9458TIP3   OH228316   3.505   4.618   5.402
 9458TIP3    H128317   3.423   4.575   5.378
 9458TIP3    H228318   3.545   4.642   5.318
 9459TIP3   OH228319   1.864   7.374   2.821
 9459TIP3    H128320   1.902   7.300   2.774
 9459TIP3    H228321   1.825   7.429   2.753
 9460TIP3   OH228322   8.153   4.836   1.954
 9460TIP3    H128323   8.244   4.805   1.962
 9460TIP3    H228324   8.151   4.884   1.871
 9461TIP3   OH228325   7.850   4.911   2.370
 9461TIP3    H128326   7.905   4.842   2.407
 9461TIP3    H228327   7.776   4.865   2.332
 9462TIP3   OH228328   5.339   3.766   4.390
 9462TIP3    H128329   5.414   3.799   4.341
 9462TIP3    H228330   5.376   3.702   4.451
 9463TIP3   OH228331   4.960   1.444   3.995
 9463TIP3    H128332   4.989   1.372   3.939
 9463TIP3    H228333   4.865   1.434   4.001
 9464TIP3   OH228334   6.839   5.778   0.943
 9464TIP3    H128335   6.928   5.792   0.975
 9464TIP3    H228336   6.795   5.861   0.957
 9465TIP3   OH228337   6.025   0.588   0.865
 9465TIP3    H128338   5.930   0.600   0.867
 9465TIP3    H228339   6.051   0.619   0.778
 9466TIP3   OH228340   4.914   0.625   5.951
 9466TIP3    H128341   4.995   0.574   5.945
 9466TIP3    H228342   4.855   0.582   5.889
 9467TIP3   OH228343   0.128   6.358   3.121
 9467TIP3    H128344   0.094   6.330   3.037
 9467TIP3    H228345   0.056   6.407   3.161
 9468TIP3   OH228346   7.304   0.141   4.687
 9468TIP3    H128347   7.268   0.224   4.720
 9468TIP3    H228348   7.241   0.075   4.714
 9469TIP3   OH228349   1.554   3.422   3.135
 9469TIP3    H128350   1.538   3.342   3.186
 9469TIP3    H228351   1.541   3.395   3.044
 9470TIP3   OH228352   4.898   1.200   2.450
 9470TIP3    H128353   4.877   1.151   2.371
 9470TIP3    H228354   4.970   1.257   2.425
 9471TIP3   OH228355   7.849   1.051   6.043
 9471TIP3    H128356   7.778   1.084   6.098
 9471TIP3    H228357   7.852   1.110   5.968
 9472TIP3   OH228358   3.660   5.632   2.898
 9472TIP3    H128359   3.586   5.579   2.870
 9472TIP3    H228360   3.696   5.584   2.973
 9473TIP3   OH228361   2.322   2.249   6.049
 9473TIP3    H128362   2.369   2.208   5.977
 9473TIP3    H228363   2.254   2.302   6.007
 9474TIP3   OH228364   7.907   6.341   1.436
 9474TIP3    H128365   7.942   6.390   1.362
 9474TIP3    H228366   7.978   6.281   1.461
 9475TIP3   OH228367   7.894   4.122   1.578
 9475TIP3    H128368   7.934   4.058   1.519
 9475TIP3    H228369   7.936   4.205   1.555
 9476TIP3   OH228370   4.726   3.664   0.023
 9476TIP3    H128371   4.665   3.672  -0.051
 9476TIP3    H228372   4.671   3.641   0.098
 9477TIP3   OH228373   2.195   2.418   5.312
 9477TIP3    H128374   2.221   2.326   5.303
 9477TIP3    H228375   2.266   2.467   5.271
 9478TIP3   OH228376   7.593   7.703   6.167
 9478TIP3    H128377   7.684   7.720   6.141
 9478TIP3    H228378   7.557   7.652   6.094
 9479TIP3   OH228379   2.858   5.913   5.623
 9479TIP3    H128380   2.898   5.999   5.611
 9479TIP3    H228381   2.890   5.884   5.708
 9480TIP3   OH228382   6.607   5.403   2.779
 9480TIP3    H128383   6.608   5.499   2.773
 9480TIP3    H228384   6.699   5.378   2.770
 9481TIP3   OH228385   0.360   5.959   5.431
 9481TIP3    H128386   0.403   6.045   5.428
 9481TIP3    H228387   0.360   5.929   5.340
 9482TIP3   OH228388   4.888   4.170   4.184
 9482TIP3    H128389   4.978   4.157   4.156
 9482TIP3    H228390   4.844   4.208   4.108
 9483TIP3   OH228391   1.265   0.257   5.831
 9483TIP3    H128392   1.319   0.221   5.760
 9483TIP3    H228393   1.265   0.351   5.817
 9484TIP3   OH228394   1.414   4.228   6.615
 9484TIP3    H128395   1.328   4.269   6.602
 9484TIP3    H228396   1.396   4.134   6.617
 9485TIP3   OH228397   2.070   0.148   1.622
 9485TIP3    H128398   2.126   0.129   1.547
 9485TIP3    H228399   2.054   0.063   1.663
 9486TIP3   OH228400   3.061   3.516   4.882
 9486TIP3    H128401   3.014   3.461   4.819
 9486TIP3    H228402   3.152   3.486   4.876
 9487TIP3   OH228403   7.903   7.086   1.411
 9487TIP3    H128404   7.831   7.035   1.448
 9487TIP3    H228405   7.981   7.052   1.454
 9488TIP3   OH228406   2.499   4.953   4.086
 9488TIP3    H128407   2.474   5.039   4.052
 9488TIP3    H228408   2.573   4.927   4.032
 9489TIP3   OH228409   0.968   2.785   0.488
 9489TIP3    H128410   0.999   2.726   0.419
 9489TIP3    H228411   0.875   2.765   0.498
 9490TIP3   OH228412   0.989   1.331   5.615
 9490TIP3    H128413   1.016   1.281   5.692
 9490TIP3    H228414   1.057   1.312   5.550
 9491TIP3   OH228415   1.266   6.602   3.971
 9491TIP3    H128416   1.264   6.550   3.891
 9491TIP3    H228417   1.179   6.641   3.976
 9492TIP3   OH228418   7.593   5.360   0.391
 9492TIP3    H128419   7.592   5.317   0.476
 9492TIP3    H228420   7.541   5.440   0.403
 9493TIP3   OH228421   2.256   5.543   2.469
 9493TIP3    H128422   2.293   5.539   2.557
 9493TIP3    H228423   2.191   5.473   2.468
 9494TIP3   OH228424   1.799   3.221   0.408
 9494TIP3    H128425   1.853   3.154   0.450
 9494TIP3    H228426   1.810   3.299   0.462
 9495TIP3   OH228427   6.574   7.041   3.322
 9495TIP3    H128428   6.643   6.986   3.286
 9495TIP3    H228429   6.619   7.100   3.383
 9496TIP3   OH228430   0.836   1.803   5.238
 9496TIP3    H128431   0.761   1.862   5.229
 9496TIP3    H228432   0.840   1.784   5.331
 9497TIP3   OH228433   4.358   6.360   2.189
 9497TIP3    H128434   4.338   6.426   2.123
 9497TIP3    H228435   4.315   6.281   2.157
 9498TIP3   OH228436   0.531   1.219   4.297
 9498TIP3    H128437   0.546   1.135   4.254
 9498TIP3    H228438   0.545   1.285   4.229
 9499TIP3   OH228439   2.148   5.144   1.866
 9499TIP3    H128440   2.235   5.176   1.889
 9499TIP3    H228441   2.151   5.051   1.887
 9500TIP3   OH228442   8.209   2.233   2.471
 9500TIP3    H128443   8.202   2.256   2.564
 9500TIP3    H228444   8.281   2.170   2.467
 9501TIP3   OH228445   3.699   6.849   3.426
 9501TIP3    H128446   3.706   6.823   3.334
 9501TIP3    H228447   3.609   6.880   3.436
 9502TIP3   OH228448   5.279   3.056   3.436
 9502TIP3    H128449   5.224   2.987   3.475
 9502TIP3    H228450   5.350   3.009   3.393
 9503TIP3   OH228451   1.806   4.858   6.569
 9503TIP3    H128452   1.842   4.831   6.653
 9503TIP3    H228453   1.745   4.929   6.590
 9504TIP3   OH228454   2.648   6.810   2.974
 9504TIP3    H128455   2.650   6.830   2.881
 9504TIP3    H228456   2.631   6.895   3.017
 9505TIP3   OH228457   2.144   3.408   0.366
 9505TIP3    H128458   2.149   3.434   0.458
 9505TIP3    H228459   2.056   3.435   0.339
 9506TIP3   OH228460   6.078   2.724   6.473
 9506TIP3    H128461   6.076   2.728   6.378
 9506TIP3    H228462   6.097   2.632   6.492
 9507TIP3   OH228463   3.455   6.331   1.378
 9507TIP3    H128464   3.397   6.282   1.436
 9507TIP3    H228465   3.407   6.411   1.357
 9508TIP3   OH228466   5.428   5.007   5.746
 9508TIP3    H128467   5.429   5.085   5.690
 9508TIP3    H228468   5.365   4.948   5.704
 9509TIP3   OH228469   0.055   0.897   4.829
 9509TIP3    H128470  -0.011   0.830   4.845
 9509TIP3    H228471   0.074   0.889   4.735
 9510TIP3   OH228472   0.929   5.653   1.132
 9510TIP3    H128473   0.907   5.746   1.135
 9510TIP3    H228474   0.919   5.628   1.040
 9511TIP3   OH228475   8.116   6.999   1.555
 9511TIP3    H128476   8.071   7.026   1.635
 9511TIP3    H228477   8.206   7.029   1.567
 9512TIP3   OH228478   1.541   4.708   5.080
 9512TIP3    H128479   1.632   4.731   5.062
 9512TIP3    H228480   1.544   4.615   5.102
 9513TIP3   OH228481   3.141   7.367   4.959
 9513TIP3    H128482   3.188   7.377   5.041
 9513TIP3    H228483   3.167   7.281   4.926
 9514TIP3   OH228484   3.949   2.149   0.454
 9514TIP3    H128485   3.951   2.211   0.527
 9514TIP3    H228486   3.860   2.155   0.420
 9515TIP3   OH228487   0.656   7.276   1.924
 9515TIP3    H128488   0.665   7.263   1.829
 9515TIP3    H228489   0.624   7.365   1.933
 9516TIP3   OH228490   0.596   1.172   5.345
 9516TIP3    H128491   0.510   1.191   5.381
 9516TIP3    H228492   0.583   1.097   5.287
 9517TIP3   OH228493   5.484   1.947   6.227
 9517TIP3    H128494   5.561   1.956   6.171
 9517TIP3    H228495   5.481   1.854   6.249
 9518TIP3   OH228496   7.730   5.853   5.546
 9518TIP3    H128497   7.673   5.782   5.519
 9518TIP3    H228498   7.685   5.895   5.619
 9519TIP3   OH228499   3.011   7.514   5.766
 9519TIP3    H128500   3.022   7.486   5.857
 9519TIP3    H228501   2.916   7.522   5.755
 9520TIP3   OH228502   0.840   0.895   6.282
 9520TIP3    H128503   0.783   0.961   6.244
 9520TIP3    H228504   0.803   0.812   6.253
 9521TIP3   OH228505   5.641   6.817   2.825
 9521TIP3    H128506   5.717   6.805   2.768
 9521TIP3    H228507   5.627   6.912   2.827
 9522TIP3   OH228508   0.288   6.546   4.688
 9522TIP3    H128509   0.340   6.556   4.608
 9522TIP3    H228510   0.287   6.634   4.727
 9523TIP3   OH228511   1.214   3.868   2.255
 9523TIP3    H128512   1.215   3.961   2.231
 9523TIP3    H228513   1.277   3.828   2.194
 9524TIP3   OH228514   1.376   5.245   6.408
 9524TIP3    H128515   1.446   5.260   6.472
 9524TIP3    H228516   1.308   5.198   6.457
 9525TIP3   OH228517   4.624   5.052   2.958
 9525TIP3    H128518   4.549   5.111   2.955
 9525TIP3    H228519   4.593   4.978   3.011
 9526TIP3   OH228520   4.796   5.288   2.924
 9526TIP3    H128521   4.752   5.205   2.937
 9526TIP3    H228522   4.753   5.327   2.848
 9527TIP3   OH228523   6.280   4.169   6.601
 9527TIP3    H128524   6.277   4.116   6.681
 9527TIP3    H228525   6.250   4.256   6.629
 9528TIP3   OH228526   4.243   7.173   1.856
 9528TIP3    H128527   4.332   7.199   1.879
 9528TIP3    H228528   4.240   7.175   1.761
 9529TIP3   OH228529   3.204   2.458   3.956
 9529TIP3    H128530   3.215   2.386   4.018
 9529TIP3    H228531   3.109   2.472   3.952
 9530TIP3   OH228532   2.019   3.137   4.594
 9530TIP3    H128533   1.937   3.132   4.545
 9530TIP3    H228534   1.995   3.113   4.683
 9531TIP3   OH228535   0.022   6.893   6.411
 9531TIP3    H128536   0.019   6.972   6.356
 9531TIP3    H228537   0.021   6.820   6.349
 9532TIP3   OH228538   7.897   1.057   4.300
 9532TIP3    H128539   7.887   1.144   4.261
 9532TIP3    H228540   7.812   1.039   4.340
 9533TIP3   OH228541   5.067   4.130   3.186
 9533TIP3    H128542   5.087   4.043   3.219
 9533TIP3    H228543   4.971   4.136   3.188
 9534TIP3   OH228544   3.389   1.985   2.781
 9534TIP3    H128545   3.398   1.892   2.801
 9534TIP3    H228546   3.423   1.994   2.692
 9535TIP3   OH228547   4.868   3.463   6.343
 9535TIP3    H128548   4.804   3.407   6.386
 9535TIP3    H228549   4.940   3.470   6.405
 9536TIP3   OH228550   0.502   4.496   3.752
 9536TIP3    H128551   0.504   4.503   3.847
 9536TIP3    H228552   0.461   4.412   3.734
 9537TIP3   OH228553   3.043  -0.004   1.507
 9537TIP3    H128554   3.117   0.039   1.465
 9537TIP3    H228555   2.986  -0.031   1.434
 9538TIP3   OH228556   6.638   1.594   0.174
 9538TIP3    H128557   6.663   1.503   0.188
 9538TIP3    H228558   6.715   1.645   0.201
 9539TIP3   OH228559   4.834   2.605   1.440
 9539TIP3    H128560   4.769   2.674   1.440
 9539TIP3    H228561   4.894   2.628   1.511
 9540TIP3   OH228562   8.110   6.358   1.205
 9540TIP3    H128563   8.196   6.339   1.243
 9540TIP3    H228564   8.116   6.327   1.114
 9541TIP3   OH228565   3.820   7.700   4.116
 9541TIP3    H128566   3.864   7.780   4.146
 9541TIP3    H228567   3.760   7.677   4.188
 9542TIP3   OH228568   7.765   7.381   1.992
 9542TIP3    H128569   7.732   7.469   2.011
 9542TIP3    H228570   7.860   7.390   1.995
 9543TIP3   OH228571   4.795   6.968   3.507
 9543TIP3    H128572   4.794   7.030   3.580
 9543TIP3    H228573   4.831   7.018   3.434
 9544TIP3   OH228574   4.218   6.368   1.009
 9544TIP3    H128575   4.139   6.412   0.978
 9544TIP3    H228576   4.241   6.413   1.090
 9545TIP3   OH228577   7.200   6.762   5.340
 9545TIP3    H128578   7.123   6.811   5.370
 9545TIP3    H228579   7.197   6.681   5.391
 9546TIP3   OH228580   3.761   6.109   1.793
 9546TIP3    H128581   3.795   6.137   1.878
 9546TIP3    H228582   3.832   6.129   1.731
 9547TIP3   OH228583   4.573   1.707   0.304
 9547TIP3    H128584   4.531   1.647   0.242
 9547TIP3    H228585   4.580   1.656   0.385
 9548TIP3   OH228586   0.153   6.349   4.462
 9548TIP3    H128587   0.171   6.316   4.550
 9548TIP3    H228588   0.073   6.304   4.435
 9549TIP3   OH228589   1.059   3.471   5.693
 9549TIP3    H128590   0.988   3.526   5.659
 9549TIP3    H228591   1.021   3.383   5.697
 9550TIP3   OH228592   1.756   3.560   6.464
 9550TIP3    H128593   1.834   3.602   6.499
 9550TIP3    H228594   1.690   3.573   6.533
 9551TIP3   OH228595   0.685   0.363   5.696
 9551TIP3    H128596   0.740   0.441   5.692
 9551TIP3    H228597   0.739   0.293   5.661
 9552TIP3   OH228598   1.924   5.575   5.766
 9552TIP3    H128599   1.964   5.634   5.703
 9552TIP3    H228600   1.920   5.491   5.720
 9553TIP3   OH228601   4.232   1.310   3.540
 9553TIP3    H128602   4.315   1.354   3.521
 9553TIP3    H228603   4.255   1.219   3.555
 9554TIP3   OH228604   2.998   4.632   4.468
 9554TIP3    H128605   3.091   4.610   4.465
 9554TIP3    H228606   2.954   4.556   4.430
 9555TIP3   OH228607   4.954   5.218   0.826
 9555TIP3    H128608   4.905   5.265   0.893
 9555TIP3    H228609   4.903   5.138   0.809
 9556TIP3   OH228610   8.220   1.729   5.817
 9556TIP3    H128611   8.308   1.763   5.832
 9556TIP3    H228612   8.165   1.807   5.811
 9557TIP3   OH228613   1.908   6.087   2.448
 9557TIP3    H128614   1.895   6.174   2.485
 9557TIP3    H228615   1.998   6.086   2.417
 9558TIP3   OH228616   7.826   6.938   6.490
 9558TIP3    H128617   7.832   6.945   6.585
 9558TIP3    H228618   7.742   6.895   6.475
 9559TIP3   OH228619   6.002   4.458   1.898
 9559TIP3    H128620   5.960   4.440   1.814
 9559TIP3    H228621   5.991   4.377   1.948
 9560TIP3   OH228622  -0.005   6.314   1.557
 9560TIP3    H128623   0.053   6.270   1.619
 9560TIP3    H228624   0.029   6.403   1.553
 9561TIP3   OH228625   6.311   6.288   2.150
 9561TIP3    H128626   6.337   6.280   2.242
 9561TIP3    H228627   6.298   6.198   2.121
 9562TIP3   OH228628   7.454   0.847   6.419
 9562TIP3    H128629   7.476   0.761   6.455
 9562TIP3    H228630   7.456   0.835   6.324
 9563TIP3   OH228631   7.123   3.086   5.349
 9563TIP3    H128632   7.155   3.059   5.435
 9563TIP3    H228633   7.202   3.109   5.300
 9564TIP3   OH228634   0.046   5.455   6.720
 9564TIP3    H128635   0.122   5.491   6.766
 9564TIP3    H228636   0.078   5.439   6.631
 9565TIP3   OH228637   1.919   4.164   4.365
 9565TIP3    H128638   1.994   4.109   4.387
 9565TIP3    H228639   1.958   4.244   4.329
 9566TIP3   OH228640   6.282   5.702   4.726
 9566TIP3    H128641   6.216   5.639   4.695
 9566TIP3    H228642   6.354   5.694   4.664
 9567TIP3   OH228643   5.080   4.732   2.514
 9567TIP3    H128644   5.155   4.735   2.572
 9567TIP3    H228645   5.094   4.655   2.460
 9568TIP3   OH228646   1.424   0.605   3.652
 9568TIP3    H128647   1.422   0.509   3.657
 9568TIP3    H228648   1.386   0.634   3.734
 9569TIP3   OH228649   6.292   0.566   0.879
 9569TIP3    H128650   6.270   0.484   0.835
 9569TIP3    H228651   6.209   0.614   0.884
 9570TIP3   OH228652   7.249   0.448   3.861
 9570TIP3    H128653   7.258   0.373   3.919
 9570TIP3    H228654   7.159   0.442   3.828
 9571TIP3   OH228655   0.873   5.928   1.406
 9571TIP3    H128656   0.809   5.856   1.410
 9571TIP3    H228657   0.942   5.894   1.348
 9572TIP3   OH228658   1.959   4.357   4.109
 9572TIP3    H128659   1.890   4.422   4.096
 9572TIP3    H228660   1.917   4.273   4.090
 9573TIP3   OH228661   5.106   4.253   4.746
 9573TIP3    H128662   5.115   4.157   4.746
 9573TIP3    H228663   5.177   4.282   4.804
 9574TIP3   OH228664   7.550   2.119   0.024
 9574TIP3    H128665   7.557   2.089  -0.066
 9574TIP3    H228666   7.578   2.045   0.077
 9575TIP3   OH228667   1.001   6.383   3.266
 9575TIP3    H128668   1.009   6.475   3.292
 9575TIP3    H228669   1.015   6.383   3.172
 9576TIP3   OH228670   5.488   0.223   2.396
 9576TIP3    H128671   5.456   0.133   2.399
 9576TIP3    H228672   5.577   0.216   2.362
 9577TIP3   OH228673   0.414   6.158   6.760
 9577TIP3    H128674   0.344   6.222   6.748
 9577TIP3    H228675   0.391   6.085   6.702
 9578TIP3   OH228676   7.681   0.547   0.648
 9578TIP3    H128677   7.764   0.595   0.654
 9578TIP3    H228678   7.706   0.459   0.622
 9579TIP3   OH228679   5.480   1.701   2.069
 9579TIP3    H128680   5.429   1.683   1.990
 9579TIP3    H228681   5.570   1.677   2.046
 9580TIP3   OH228682   4.651   2.583   5.425
 9580TIP3    H128683   4.725   2.563   5.367
 9580TIP3    H228684   4.604   2.500   5.432
 9581TIP3   OH228685   0.217   6.775   0.644
 9581TIP3    H128686   0.181   6.707   0.701
 9581TIP3    H228687   0.161   6.851   0.661
 9582TIP3   OH228688   1.497   4.772   1.514
 9582TIP3    H128689   1.450   4.768   1.431
 9582TIP3    H228690   1.516   4.865   1.526
 9583TIP3   OH228691   1.368   6.271   6.765
 9583TIP3    H128692   1.338   6.354   6.803
 9583TIP3    H228693   1.461   6.268   6.783
 9584TIP3   OH228694   4.179   5.080   6.104
 9584TIP3    H128695   4.177   5.176   6.105
 9584TIP3    H228696   4.090   5.054   6.128
 9585TIP3   OH228697   6.931   0.964   2.260
 9585TIP3    H128698   6.959   0.995   2.346
 9585TIP3    H228699   6.845   0.926   2.275
 9586TIP3   OH228700   2.347   1.428   1.182
 9586TIP3    H128701   2.354   1.429   1.087
 9586TIP3    H228702   2.280   1.493   1.202
 9587TIP3   OH228703   4.722   3.385   0.613
 9587TIP3    H128704   4.743   3.450   0.681
 9587TIP3    H228705   4.647   3.337   0.649
 9588TIP3   OH228706   2.527   3.922   4.815
 9588TIP3    H128707   2.613   3.957   4.841
 9588TIP3    H228708   2.503   3.863   4.886
 9589TIP3   OH228709   2.848   3.518   3.978
 9589TIP3    H128710   2.863   3.582   3.908
 9589TIP3    H228711   2.858   3.569   4.058
 9590TIP3   OH228712   1.349   3.098   4.785
 9590TIP3    H128713   1.402   3.077   4.862
 9590TIP3    H228714   1.259   3.089   4.815
 9591TIP3   OH228715   0.983   3.683   3.984
 9591TIP3    H128716   1.064   3.644   4.019
 9591TIP3    H228717   0.977   3.768   4.027
 9592TIP3   OH228718   7.252   6.550   5.504
 9592TIP3    H128719   7.256   6.487   5.577
 9592TIP3    H228720   7.293   6.503   5.431
 9593TIP3   OH228721   3.272   5.834   4.483
 9593TIP3    H128722   3.187   5.871   4.458
 9593TIP3    H228723   3.326   5.911   4.501
 9594TIP3   OH228724   2.488   0.571   6.215
 9594TIP3    H128725   2.533   0.513   6.154
 9594TIP3    H228726   2.448   0.638   6.159
 9595TIP3   OH228727   6.836   6.583   2.689
 9595TIP3    H128728   6.828   6.674   2.719
 9595TIP3    H228729   6.806   6.531   2.764
 9596TIP3   OH228730   5.761   5.922   1.102
 9596TIP3    H128731   5.810   5.935   1.183
 9596TIP3    H228732   5.784   5.833   1.073
 9597TIP3   OH228733   1.308   0.553   4.718
 9597TIP3    H128734   1.237   0.517   4.770
 9597TIP3    H228735   1.383   0.556   4.778
 9598TIP3   OH228736   3.211   0.330   3.966
 9598TIP3    H128737   3.220   0.411   3.916
 9598TIP3    H228738   3.291   0.324   4.018
 9599TIP3   OH228739   4.387   6.367   2.462
 9599TIP3    H128740   4.450   6.299   2.486
 9599TIP3    H228741   4.385   6.365   2.366
 9600TIP3   OH228742   7.435   0.512   4.661
 9600TIP3    H128743   7.466   0.423   4.679
 9600TIP3    H228744   7.458   0.528   4.570
 9601TIP3   OH228745   0.280   2.641   3.083
 9601TIP3    H128746   0.335   2.592   3.021
 9601TIP3    H228747   0.290   2.594   3.166
 9602TIP3   OH228748   2.392   6.190   5.547
 9602TIP3    H128749   2.398   6.219   5.456
 9602TIP3    H228750   2.366   6.098   5.542
 9603TIP3   OH228751   1.000   7.400   0.498
 9603TIP3    H128752   1.090   7.418   0.525
 9603TIP3    H228753   0.946   7.434   0.568
 9604TIP3   OH228754   7.312   7.038   5.018
 9604TIP3    H128755   7.381   6.984   5.057
 9604TIP3    H228756   7.258   7.066   5.092
 9605TIP3   OH228757   4.657   3.894   6.567
 9605TIP3    H128758   4.604   3.931   6.498
 9605TIP3    H228759   4.741   3.875   6.526
 9606TIP3   OH228760   1.199   0.059   0.793
 9606TIP3    H128761   1.276   0.076   0.848
 9606TIP3    H228762   1.193  -0.036   0.789
 9607TIP3   OH228763   2.300   4.461   1.292
 9607TIP3    H128764   2.269   4.468   1.201
 9607TIP3    H228765   2.294   4.550   1.326
 9608TIP3   OH228766   0.110   0.754   6.528
 9608TIP3    H128767   0.070   0.726   6.446
 9608TIP3    H228768   0.176   0.687   6.545
 9609TIP3   OH228769   3.954   2.300   4.305
 9609TIP3    H128770   3.911   2.362   4.365
 9609TIP3    H228771   4.043   2.333   4.297
 9610TIP3   OH228772   5.792   2.502   5.194
 9610TIP3    H128773   5.743   2.511   5.112
 9610TIP3    H228774   5.822   2.591   5.213
 9611TIP3   OH228775   6.218   7.391   0.130
 9611TIP3    H128776   6.147   7.330   0.115
 9611TIP3    H228777   6.194   7.470   0.082
 9612TIP3   OH228778   3.977   0.951   3.800
 9612TIP3    H128779   3.923   0.873   3.808
 9612TIP3    H228780   3.935   1.002   3.731
 9613TIP3   OH228781   5.686   5.474   4.486
 9613TIP3    H128782   5.685   5.540   4.556
 9613TIP3    H228783   5.740   5.514   4.417
 9614TIP3   OH228784   2.009   5.024   5.511
 9614TIP3    H128785   1.994   5.041   5.604
 9614TIP3    H228786   1.967   5.098   5.467
 9615TIP3   OH228787   1.459   0.807   5.190
 9615TIP3    H128788   1.422   0.801   5.102
 9615TIP3    H228789   1.527   0.740   5.191
 9616TIP3   OH228790   6.893   4.593   0.065
 9616TIP3    H128791   6.884   4.660   0.132
 9616TIP3    H228792   6.842   4.519   0.097
 9617TIP3   OH228793   6.633   1.426   2.428
 9617TIP3    H128794   6.623   1.510   2.473
 9617TIP3    H228795   6.711   1.387   2.466
 9618TIP3   OH228796   0.781   3.628   2.137
 9618TIP3    H128797   0.776   3.697   2.071
 9618TIP3    H228798   0.690   3.605   2.154
 9619TIP3   OH228799   1.752   3.008   5.829
 9619TIP3    H128800   1.748   2.933   5.888
 9619TIP3    H228801   1.700   2.982   5.753
 9620TIP3   OH228802   5.931   1.844   3.559
 9620TIP3    H128803   5.995   1.791   3.512
 9620TIP3    H228804   5.982   1.889   3.626
 9621TIP3   OH228805   3.892   2.563   0.401
 9621TIP3    H128806   3.825   2.501   0.431
 9621TIP3    H228807   3.853   2.649   0.418
 9622TIP3   OH228808   4.600   3.668   2.806
 9622TIP3    H128809   4.662   3.605   2.843
 9622TIP3    H228810   4.624   3.752   2.847
 9623TIP3   OH228811   1.252   4.062   1.413
 9623TIP3    H128812   1.285   4.151   1.401
 9623TIP3    H228813   1.286   4.013   1.338
 9624TIP3   OH228814   4.499   4.720   4.085
 9624TIP3    H128815   4.492   4.629   4.054
 9624TIP3    H228816   4.590   4.744   4.067
 9625TIP3   OH228817   3.780   5.943   3.955
 9625TIP3    H128818   3.770   5.878   4.025
 9625TIP3    H228819   3.776   5.892   3.874
 9626TIP3   OH228820   6.098   3.940   2.899
 9626TIP3    H128821   6.161   3.971   2.964
 9626TIP3    H228822   6.066   4.020   2.856
 9627TIP3   OH228823   6.961   2.592   5.073
 9627TIP3    H128824   6.944   2.680   5.106
 9627TIP3    H228825   7.043   2.566   5.115
 9628TIP3   OH228826   1.327   4.920   6.141
 9628TIP3    H128827   1.394   4.910   6.074
 9628TIP3    H228828   1.248   4.945   6.093
 9629TIP3   OH228829   7.630   1.569   1.844
 9629TIP3    H128830   7.587   1.629   1.783
 9629TIP3    H228831   7.577   1.490   1.842
 9630TIP3   OH228832   7.169   7.734   0.800
 9630TIP3    H128833   7.134   7.790   0.869
 9630TIP3    H228834   7.143   7.646   0.826
 9631TIP3   OH228835   0.997   7.069   6.714
 9631TIP3    H128836   0.988   7.007   6.642
 9631TIP3    H228837   1.090   7.071   6.734
 9632TIP3   OH228838   6.063   6.441   4.418
 9632TIP3    H128839   6.159   6.436   4.411
 9632TIP3    H228840   6.040   6.525   4.379
 9633TIP3   OH228841   2.353   3.705   3.188
 9633TIP3    H128842   2.379   3.647   3.260
 9633TIP3    H228843   2.273   3.666   3.153
 9634TIP3   OH228844   8.217   0.250   0.158
 9634TIP3    H128845   8.259   0.224   0.076
 9634TIP3    H228846   8.169   0.330   0.137
 9635TIP3   OH228847   2.813   0.205   4.926
 9635TIP3    H128848   2.825   0.278   4.986
 9635TIP3    H228849   2.867   0.227   4.850
 9636TIP3   OH228850   0.435   1.791   5.050
 9636TIP3    H128851   0.396   1.784   5.137
 9636TIP3    H228852   0.376   1.742   4.993
 9637TIP3   OH228853   3.047   3.441   3.209
 9637TIP3    H128854   2.962   3.427   3.252
 9637TIP3    H228855   3.096   3.361   3.228
 9638TIP3   OH228856   1.513   7.500   0.236
 9638TIP3    H128857   1.491   7.426   0.179
 9638TIP3    H228858   1.569   7.555   0.182
 9639TIP3   OH228859   3.644   3.572   5.110
 9639TIP3    H128860   3.599   3.611   5.035
 9639TIP3    H228861   3.578   3.568   5.178
 9640TIP3   OH228862   6.793   3.674   4.249
 9640TIP3    H128863   6.826   3.619   4.320
 9640TIP3    H228864   6.857   3.745   4.242
 9641TIP3   OH228865   2.879   6.021   5.042
 9641TIP3    H128866   2.915   6.088   5.100
 9641TIP3    H228867   2.840   5.957   5.101
 9642TIP3   OH228868   3.785   1.450   5.175
 9642TIP3    H128869   3.855   1.458   5.109
 9642TIP3    H228870   3.752   1.361   5.164
 9643TIP3   OH228871   6.136   6.088   1.121
 9643TIP3    H128872   6.126   6.180   1.097
 9643TIP3    H228873   6.069   6.072   1.187
 9644TIP3   OH228874   2.038   4.879   1.978
 9644TIP3    H128875   2.042   4.789   2.011
 9644TIP3    H228876   1.966   4.878   1.915
 9645TIP3   OH228877   2.932   1.580   0.773
 9645TIP3    H128878   2.922   1.523   0.850
 9645TIP3    H228879   3.026   1.584   0.758
 9646TIP3   OH228880   4.077   6.606   4.682
 9646TIP3    H128881   4.046   6.537   4.740
 9646TIP3    H228882   4.003   6.667   4.676
 9647TIP3   OH228883   6.999   1.450   5.486
 9647TIP3    H128884   7.000   1.470   5.580
 9647TIP3    H228885   6.906   1.451   5.462
 9648TIP3   OH228886   3.956   0.268   5.557
 9648TIP3    H128887   3.950   0.333   5.627
 9648TIP3    H228888   3.893   0.297   5.492
 9649TIP3   OH228889   8.077   2.473   5.550
 9649TIP3    H128890   8.108   2.389   5.583
 9649TIP3    H228891   8.058   2.458   5.457
 9650TIP3   OH228892   1.871   3.175   3.256
 9650TIP3    H128893   1.789   3.164   3.303
 9650TIP3    H228894   1.939   3.166   3.323
 9651TIP3   OH228895   1.873   2.185   6.349
 9651TIP3    H128896   1.942   2.139   6.396
 9651TIP3    H228897   1.866   2.140   6.265
 9652TIP3   OH228898   0.079   2.934   4.858
 9652TIP3    H128899   0.032   2.850   4.861
 9652TIP3    H228900   0.155   2.920   4.914
 9653TIP3   OH228901   4.590   4.528   6.257
 9653TIP3    H128902   4.630   4.472   6.324
 9653TIP3    H228903   4.653   4.528   6.185
 9654TIP3   OH228904   2.084   3.028   5.074
 9654TIP3    H128905   2.143   3.063   5.140
 9654TIP3    H228906   2.051   2.946   5.111
 9655TIP3   OH228907   0.266   6.005   3.102
 9655TIP3    H128908   0.179   6.039   3.123
 9655TIP3    H228909   0.270   5.921   3.147
 9656TIP3   OH228910   1.746   2.257   1.189
 9656TIP3    H128911   1.713   2.347   1.193
 9656TIP3    H228912   1.684   2.211   1.133
 9657TIP3   OH228913   5.709   1.501   0.270
 9657TIP3    H128914   5.621   1.500   0.233
 9657TIP3    H228915   5.719   1.590   0.306
 9658TIP3   OH228916   6.519   2.360   4.010
 9658TIP3    H128917   6.598   2.415   4.010
 9658TIP3    H228918   6.508   2.335   3.918
 9659TIP3   OH228919   2.105   5.953   5.633
 9659TIP3    H128920   2.098   6.004   5.714
 9659TIP3    H228921   2.198   5.933   5.625
 9660TIP3   OH228922   0.913   0.732   1.371
 9660TIP3    H128923   0.830   0.705   1.409
 9660TIP3    H228924   0.972   0.741   1.446
 9661TIP3   OH228925   8.245   4.454   0.666
 9661TIP3    H128926   8.183   4.447   0.594
 9661TIP3    H228927   8.232   4.542   0.701
 9662TIP3   OH228928   6.932   7.332   4.906
 9662TIP3    H128929   6.932   7.245   4.866
 9662TIP3    H228930   7.009   7.333   4.962
 9663TIP3   OH228931   0.536   4.140   5.161
 9663TIP3    H128932   0.598   4.172   5.096
 9663TIP3    H228933   0.450   4.147   5.119
 9664TIP3   OH228934   3.003   1.137   1.133
 9664TIP3    H128935   3.004   1.042   1.136
 9664TIP3    H228936   3.068   1.160   1.067
 9665TIP3   OH228937   3.239   0.168   1.409
 9665TIP3    H128938   3.290   0.249   1.404
 9665TIP3    H228939   3.297   0.101   1.371
 9666TIP3   OH228940   3.520   6.920   5.411
 9666TIP3    H128941   3.602   6.907   5.459
 9666TIP3    H228942   3.452   6.886   5.470
 9667TIP3   OH228943   6.134   2.400   1.546
 9667TIP3    H128944   6.052   2.378   1.500
 9667TIP3    H228945   6.188   2.443   1.479
 9668TIP3   OH228946   7.685   0.629   6.261
 9668TIP3    H128947   7.690   0.699   6.196
 9668TIP3    H228948   7.712   0.672   6.343
 9669TIP3   OH228949   2.516   2.870   5.375
 9669TIP3    H128950   2.529   2.942   5.437
 9669TIP3    H228951   2.448   2.816   5.415
 9670TIP3   OH228952   7.627   3.379   4.007
 9670TIP3    H128953   7.645   3.338   3.922
 9670TIP3    H228954   7.568   3.452   3.986
 9671TIP3   OH228955   5.132   3.301   3.444
 9671TIP3    H128956   5.191   3.225   3.443
 9671TIP3    H228957   5.169   3.361   3.380
 9672TIP3   OH228958   0.485   2.223   2.339
 9672TIP3    H128959   0.395   2.246   2.316
 9672TIP3    H228960   0.509   2.286   2.407
 9673TIP3   OH228961   6.704   2.393   1.414
 9673TIP3    H128962   6.631   2.373   1.472
 9673TIP3    H228963   6.718   2.312   1.364
 9674TIP3   OH228964   4.524   7.345   2.207
 9674TIP3    H128965   4.591   7.412   2.218
 9674TIP3    H228966   4.478   7.343   2.291
 9675TIP3   OH228967   8.058   7.305   4.277
 9675TIP3    H128968   8.087   7.242   4.342
 9675TIP3    H228969   7.963   7.295   4.274
 9676TIP3   OH228970   0.826   1.552   4.012
 9676TIP3    H128971   0.910   1.538   3.968
 9676TIP3    H228972   0.836   1.635   4.059
 9677TIP3   OH228973   8.177   4.765   0.732
 9677TIP3    H128974   8.091   4.795   0.761
 9677TIP3    H228975   8.171   4.763   0.637
 9678TIP3   OH228976   7.098   2.130   5.387
 9678TIP3    H128977   7.154   2.189   5.437
 9678TIP3    H228978   7.070   2.064   5.450
 9679TIP3   OH228979   1.959   1.993   3.584
 9679TIP3    H128980   1.996   1.924   3.528
 9679TIP3    H228981   1.866   1.972   3.590
 9680TIP3   OH228982   2.069   7.491   5.216
 9680TIP3    H128983   2.073   7.518   5.125
 9680TIP3    H228984   2.042   7.399   5.212
 9681TIP3   OH228985   3.407   0.064   4.615
 9681TIP3    H128986   3.477   0.124   4.640
 9681TIP3    H228987   3.383   0.019   4.696
 9682TIP3   OH228988   7.126   1.420   3.201
 9682TIP3    H128989   7.152   1.501   3.157
 9682TIP3    H228990   7.104   1.446   3.290
 9683TIP3   OH228991   8.250   5.039   0.565
 9683TIP3    H128992   8.158   5.011   0.564
 9683TIP3    H228993   8.258   5.098   0.490
 9684TIP3   OH228994   6.954   2.850   5.202
 9684TIP3    H128995   7.033   2.894   5.169
 9684TIP3    H228996   6.962   2.854   5.297
 9685TIP3   OH228997   0.057   5.183   5.149
 9685TIP3    H128998   0.017   5.191   5.063
 9685TIP3    H228999   0.107   5.264   5.159
 9686TIP3   OH229000   7.422   1.815   3.132
 9686TIP3    H129001   7.500   1.799   3.185
 9686TIP3    H229002   7.426   1.909   3.112
 9687TIP3   OH229003   0.095   7.389   4.707
 9687TIP3    H129004   0.120   7.297   4.700
 9687TIP3    H229005   0.111   7.425   4.620
 9688TIP3   OH229006   0.399   0.128   3.577
 9688TIP3    H129007   0.420   0.136   3.484
 9688TIP3    H229008   0.347   0.048   3.583
 9689TIP3   OH229009   4.114   1.170   4.275
 9689TIP3    H129010   4.063   1.089   4.277
 9689TIP3    H229011   4.088   1.212   4.193
 9690TIP3   OH229012   0.146   5.311   4.822
 9690TIP3    H129013   0.215   5.377   4.822
 9690TIP3    H229014   0.181   5.240   4.768
 9691TIP3   OH229015   2.874   1.513   3.618
 9691TIP3    H129016   2.836   1.514   3.705
 9691TIP3    H229017   2.807   1.471   3.563
 9692TIP3   OH229018   5.148   3.915   5.337
 9692TIP3    H129019   5.244   3.908   5.342
 9692TIP3    H229020   5.131   4.009   5.333
 9693TIP3   OH229021   2.943   5.352   3.290
 9693TIP3    H129022   2.898   5.411   3.229
 9693TIP3    H229023   2.900   5.267   3.277
 9694TIP3   OH229024   4.435   5.023   3.680
 9694TIP3    H129025   4.383   4.982   3.611
 9694TIP3    H229026   4.442   5.115   3.653
 9695TIP3   OH229027   4.849   7.216   0.808
 9695TIP3    H129028   4.925   7.253   0.764
 9695TIP3    H229029   4.858   7.122   0.796
 9696TIP3   OH229030   2.010   7.170   5.511
 9696TIP3    H129031   1.982   7.262   5.508
 9696TIP3    H229032   1.932   7.121   5.486
 9697TIP3   OH229033   0.656   1.459   3.586
 9697TIP3    H129034   0.666   1.550   3.560
 9697TIP3    H229035   0.562   1.444   3.587
 9698TIP3   OH229036   3.632   4.123   6.045
 9698TIP3    H129037   3.671   4.182   6.109
 9698TIP3    H229038   3.705   4.070   6.013
 9699TIP3   OH229039   5.352   1.136   2.786
 9699TIP3    H129040   5.311   1.050   2.795
 9699TIP3    H229041   5.280   1.195   2.763
 9700TIP3   OH229042   0.582   6.362   2.110
 9700TIP3    H129043   0.597   6.455   2.093
 9700TIP3    H229044   0.562   6.325   2.024
 9701TIP3   OH229045   4.602   1.703   3.629
 9701TIP3    H129046   4.507   1.701   3.621
 9701TIP3    H229047   4.634   1.696   3.539
 9702TIP3   OH229048   8.200   1.108   5.818
 9702TIP3    H129049   8.252   1.055   5.757
 9702TIP3    H229050   8.235   1.196   5.809
 9703TIP3   OH229051   0.651   6.463   0.313
 9703TIP3    H129052   0.686   6.551   0.323
 9703TIP3    H229053   0.723   6.405   0.337
 9704TIP3   OH229054   4.445   3.890   5.606
 9704TIP3    H129055   4.515   3.841   5.563
 9704TIP3    H229056   4.423   3.959   5.544
 9705TIP3   OH229057   5.691   5.750   2.811
 9705TIP3    H129058   5.613   5.766   2.863
 9705TIP3    H229059   5.716   5.660   2.831
 9706TIP3   OH229060   1.177   6.599   3.349
 9706TIP3    H129061   1.133   6.616   3.432
 9706TIP3    H229062   1.267   6.629   3.363
 9707TIP3   OH229063   5.508   0.382   1.768
 9707TIP3    H129064   5.503   0.419   1.856
 9707TIP3    H229065   5.531   0.456   1.712
 9708TIP3   OH229066   2.753   3.120   1.321
 9708TIP3    H129067   2.708   3.036   1.334
 9708TIP3    H229068   2.683   3.185   1.328
 9709TIP3   OH229069   0.389   3.029   4.080
 9709TIP3    H129070   0.440   2.979   4.143
 9709TIP3    H229071   0.450   3.046   4.008
 9710TIP3   OH229072   3.287   2.946   5.139
 9710TIP3    H129073   3.332   2.891   5.203
 9710TIP3    H229074   3.205   2.899   5.121
 9711TIP3   OH229075   7.076   0.998   2.938
 9711TIP3    H129076   6.987   1.025   2.914
 9711TIP3    H229077   7.065   0.912   2.979
 9712TIP3   OH229078   0.262   0.374   0.210
 9712TIP3    H129079   0.257   0.299   0.269
 9712TIP3    H229080   0.244   0.450   0.265
 9713TIP3   OH229081   4.464   0.499   0.782
 9713TIP3    H129082   4.368   0.495   0.778
 9713TIP3    H229083   4.486   0.584   0.744
 9714TIP3   OH229084   1.751   2.698   2.638
 9714TIP3    H129085   1.816   2.637   2.673
 9714TIP3    H229086   1.798   2.782   2.632
 9715TIP3   OH229087   4.090   0.464   4.683
 9715TIP3    H129088   4.060   0.510   4.605
 9715TIP3    H229089   4.185   0.462   4.675
 9716TIP3   OH229090   7.999   0.426   0.360
 9716TIP3    H129091   7.964   0.458   0.277
 9716TIP3    H229092   8.084   0.468   0.369
 9717TIP3   OH229093   2.064   6.573   4.824
 9717TIP3    H129094   2.008   6.650   4.826
 9717TIP3    H229095   2.054   6.538   4.735
 9718TIP3   OH229096   0.815   2.137   1.719
 9718TIP3    H129097   0.795   2.060   1.665
 9718TIP3    H229098   0.909   2.149   1.710
 9719TIP3   OH229099   1.075   3.504   1.462
 9719TIP3    H129100   1.001   3.467   1.413
 9719TIP3    H229101   1.140   3.526   1.394
 9720TIP3   OH229102   8.269   2.022   4.756
 9720TIP3    H129103   8.187   1.995   4.715
 9720TIP3    H229104   8.302   1.943   4.799
 9721TIP3   OH229105   2.870   2.524   6.029
 9721TIP3    H129106   2.933   2.483   5.970
 9721TIP3    H229107   2.785   2.491   6.000
 9722TIP3   OH229108   7.190   5.308   4.016
 9722TIP3    H129109   7.193   5.401   4.035
 9722TIP3    H229110   7.276   5.288   3.977
 9723TIP3   OH229111   6.273   2.186   6.413
 9723TIP3    H129112   6.320   2.190   6.497
 9723TIP3    H229113   6.192   2.140   6.433
 9724TIP3   OH229114   2.170   4.279   4.726
 9724TIP3    H129115   2.258   4.288   4.762
 9724TIP3    H229116   2.157   4.184   4.717
 9725TIP3   OH229117   2.521   0.686   0.924
 9725TIP3    H129118   2.570   0.749   0.871
 9725TIP3    H229119   2.588   0.634   0.968
 9726TIP3   OH229120   4.478   6.404   0.939
 9726TIP3    H129121   4.391   6.366   0.951
 9726TIP3    H229122   4.534   6.329   0.917
 9727TIP3   OH229123   2.030   0.685   1.730
 9727TIP3    H129124   2.084   0.648   1.660
 9727TIP3    H229125   1.955   0.724   1.685
 9728TIP3   OH229126   7.836   4.812   3.662
 9728TIP3    H129127   7.762   4.823   3.722
 9728TIP3    H229128   7.806   4.850   3.580
 9729TIP3   OH229129   4.077   3.148   2.246
 9729TIP3    H129130   4.102   3.180   2.333
 9729TIP3    H229131   4.156   3.158   2.193
 9730TIP3   OH229132   1.476   2.759   1.421
 9730TIP3    H129133   1.385   2.760   1.390
 9730TIP3    H229134   1.468   2.753   1.516
 9731TIP3   OH229135   1.571   4.701   5.994
 9731TIP3    H129136   1.585   4.617   6.039
 9731TIP3    H229137   1.516   4.679   5.919
 9732TIP3   OH229138   6.430   6.680   0.130
 9732TIP3    H129139   6.509   6.662   0.079
 9732TIP3    H229140   6.421   6.604   0.188
 9733TIP3   OH229141   4.363   6.346   6.427
 9733TIP3    H129142   4.364   6.356   6.522
 9733TIP3    H229143   4.366   6.436   6.394
 9734TIP3   OH229144   3.204   4.922   6.764
 9734TIP3    H129145   3.274   4.906   6.701
 9734TIP3    H229146   3.144   4.848   6.753
 9735TIP3   OH229147   0.572   0.536   0.461
 9735TIP3    H129148   0.521   0.585   0.525
 9735TIP3    H229149   0.537   0.447   0.466
 9736TIP3   OH229150   7.755   5.465   5.591
 9736TIP3    H129151   7.786   5.417   5.668
 9736TIP3    H229152   7.709   5.541   5.627
 9737TIP3   OH229153   3.932   0.708   4.165
 9737TIP3    H129154   3.995   0.731   4.098
 9737TIP3    H229155   3.847   0.712   4.121
 9738TIP3   OH229156   6.841   1.290   3.547
 9738TIP3    H129157   6.840   1.213   3.490
 9738TIP3    H229158   6.926   1.286   3.592
 9739TIP3   OH229159   5.247   2.559   0.286
 9739TIP3    H129160   5.225   2.652   0.281
 9739TIP3    H229161   5.289   2.541   0.201
 9740TIP3   OH229162   3.686   7.719   0.261
 9740TIP3    H129163   3.764   7.724   0.316
 9740TIP3    H229164   3.665   7.809   0.240
 9741TIP3   OH229165   1.006   6.687   3.998
 9741TIP3    H129166   0.962   6.643   4.071
 9741TIP3    H229167   0.935   6.727   3.948
 9742TIP3   OH229168   7.895   0.228   1.988
 9742TIP3    H129169   7.835   0.221   1.914
 9742TIP3    H229170   7.891   0.143   2.031
 9743TIP3   OH229171   2.224   1.073   2.748
 9743TIP3    H129172   2.131   1.084   2.727
 9743TIP3    H229173   2.258   1.161   2.759
 9744TIP3   OH229174   4.615   1.299   2.834
 9744TIP3    H129175   4.536   1.333   2.792
 9744TIP3    H229176   4.598   1.308   2.928
 9745TIP3   OH229177   0.607   1.633   4.616
 9745TIP3    H129178   0.694   1.619   4.654
 9745TIP3    H229179   0.582   1.547   4.583
 9746TIP3   OH229180   1.042   2.805   4.823
 9746TIP3    H129181   0.978   2.840   4.885
 9746TIP3    H229182   1.064   2.719   4.857
 9747TIP3   OH229183   0.615   1.056   0.897
 9747TIP3    H129184   0.675   0.992   0.860
 9747TIP3    H229185   0.532   1.041   0.852
 9748TIP3   OH229186   0.771   0.947   5.544
 9748TIP3    H129187   0.818   1.012   5.492
 9748TIP3    H229188   0.741   0.883   5.480
 9749TIP3   OH229189   5.062   0.019   3.691
 9749TIP3    H129190   5.005  -0.051   3.724
 9749TIP3    H229191   5.014   0.099   3.710
 9750TIP3   OH229192   0.783   2.719   3.130
 9750TIP3    H129193   0.726   2.796   3.132
 9750TIP3    H229194   0.722   2.645   3.130
 9751TIP3   OH229195   7.544   7.209   4.259
 9751TIP3    H129196   7.512   7.160   4.335
 9751TIP3    H229197   7.466   7.226   4.207
 9752TIP3   OH229198   3.375   4.069   4.173
 9752TIP3    H129199   3.405   4.066   4.263
 9752TIP3    H229200   3.437   4.015   4.124
 9753TIP3   OH229201   2.415   7.519   0.120
 9753TIP3    H129202   2.389   7.427   0.128
 9753TIP3    H229203   2.494   7.517   0.066
 9754TIP3   OH229204   2.112   4.838   5.904
 9754TIP3    H129205   2.050   4.771   5.874
 9754TIP3    H229206   2.062   4.920   5.901
 9755TIP3   OH229207   2.759   3.171   6.244
 9755TIP3    H129208   2.810   3.148   6.321
 9755TIP3    H229209   2.702   3.242   6.273
 9756TIP3   OH229210   1.450   2.813   3.103
 9756TIP3    H129211   1.364   2.772   3.099
 9756TIP3    H229212   1.507   2.746   3.142
 9757TIP3   OH229213   6.053   5.051   3.150
 9757TIP3    H129214   6.040   5.121   3.214
 9757TIP3    H229215   6.140   5.016   3.169
 9758TIP3   OH229216   5.912   1.504   5.354
 9758TIP3    H129217   5.936   1.425   5.305
 9758TIP3    H229218   5.821   1.519   5.332
 9759TIP3   OH229219   3.654   4.541   4.967
 9759TIP3    H129220   3.742   4.542   4.929
 9759TIP3    H229221   3.603   4.600   4.912
 9760TIP3   OH229222   8.151   0.559   3.006
 9760TIP3    H129223   8.108   0.476   3.027
 9760TIP3    H229224   8.201   0.580   3.085
 9761TIP3   OH229225   5.568   6.471   5.986
 9761TIP3    H129226   5.559   6.443   5.894
 9761TIP3    H229227   5.659   6.501   5.993
 9762TIP3   OH229228   2.681   0.063   1.177
 9762TIP3    H129229   2.635   0.101   1.252
 9762TIP3    H229230   2.611   0.024   1.124
 9763TIP3   OH229231   5.413   0.401   0.391
 9763TIP3    H129232   5.466   0.479   0.410
 9763TIP3    H229233   5.419   0.392   0.296
 9764TIP3   OH229234   4.694   0.697   4.319
 9764TIP3    H129235   4.750   0.622   4.340
 9764TIP3    H229236   4.668   0.683   4.229
 9765TIP3   OH229237   0.072   6.735   6.641
 9765TIP3    H129238   0.166   6.716   6.638
 9765TIP3    H229239   0.052   6.769   6.553
 9766TIP3   OH229240   6.880   2.265   2.319
 9766TIP3    H129241   6.815   2.277   2.249
 9766TIP3    H229242   6.929   2.187   2.293
 9767TIP3   OH229243   6.577   3.262   1.373
 9767TIP3    H129244   6.607   3.184   1.419
 9767TIP3    H229245   6.571   3.330   1.440
 9768TIP3   OH229246   3.873   2.293   5.014
 9768TIP3    H129247   3.880   2.307   4.920
 9768TIP3    H229248   3.812   2.219   5.023
 9769TIP3   OH229249   3.835   7.556   1.893
 9769TIP3    H129250   3.865   7.637   1.932
 9769TIP3    H229251   3.905   7.531   1.832
 9770TIP3   OH229252   6.444   1.785   4.468
 9770TIP3    H129253   6.463   1.699   4.505
 9770TIP3    H229254   6.530   1.826   4.458
 9771TIP3   OH229255   3.986   5.531   5.178
 9771TIP3    H129256   4.064   5.476   5.186
 9771TIP3    H229257   4.021   5.619   5.160
 9772TIP3   OH229258   2.267   4.916   5.674
 9772TIP3    H129259   2.334   4.973   5.711
 9772TIP3    H229260   2.224   4.877   5.751
 9773TIP3   OH229261   5.514   1.560   1.478
 9773TIP3    H129262   5.496   1.521   1.563
 9773TIP3    H229263   5.487   1.493   1.415
 9774TIP3   OH229264   3.331   3.351   6.037
 9774TIP3    H129265   3.261   3.287   6.052
 9774TIP3    H229266   3.295   3.411   5.971
 9775TIP3   OH229267   1.773   5.692   1.047
 9775TIP3    H129268   1.726   5.660   1.125
 9775TIP3    H229269   1.839   5.625   1.030
 9776TIP3   OH229270   7.309   7.472   3.368
 9776TIP3    H129271   7.217   7.481   3.393
 9776TIP3    H229272   7.319   7.380   3.344
 9777TIP3   OH229273   0.691   0.785   3.659
 9777TIP3    H129274   0.750   0.728   3.708
 9777TIP3    H229275   0.724   0.874   3.675
 9778TIP3   OH229276   1.022   1.273   3.784
 9778TIP3    H129277   0.939   1.273   3.832
 9778TIP3    H229278   1.089   1.273   3.853
 9779TIP3   OH229279   0.662   4.238   6.739
 9779TIP3    H129280   0.603   4.181   6.690
 9779TIP3    H229281   0.721   4.274   6.673
 9780TIP3   OH229282   2.728   4.859   3.284
 9780TIP3    H129283   2.668   4.908   3.227
 9780TIP3    H229284   2.674   4.788   3.319
 9781TIP3   OH229285   7.513   4.525   4.325
 9781TIP3    H129286   7.604   4.499   4.335
 9781TIP3    H229287   7.464   4.443   4.326
 9782TIP3   OH229288   0.527   6.480   4.522
 9782TIP3    H129289   0.586   6.449   4.591
 9782TIP3    H229290   0.583   6.493   4.446
 9783TIP3   OH229291   5.569   3.048   1.509
 9783TIP3    H129292   5.532   3.034   1.596
 9783TIP3    H229293   5.515   3.117   1.471
 9784TIP3   OH229294   0.280   3.135   2.074
 9784TIP3    H129295   0.373   3.140   2.051
 9784TIP3    H229296   0.264   3.212   2.129
 9785TIP3   OH229297   3.529   3.147   3.484
 9785TIP3    H129298   3.517   3.056   3.457
 9785TIP3    H229299   3.442   3.176   3.510
 9786TIP3   OH229300   0.982   4.857   6.386
 9786TIP3    H129301   0.964   4.945   6.420
 9786TIP3    H229302   1.076   4.846   6.396
 9787TIP3   OH229303   1.874   1.546   1.223
 9787TIP3    H129304   1.790   1.536   1.267
 9787TIP3    H229305   1.896   1.458   1.193
 9788TIP3   OH229306   2.277   2.234   0.048
 9788TIP3    H129307   2.288   2.325   0.076
 9788TIP3    H229308   2.358   2.213   0.001
 9789TIP3   OH229309   0.458   2.084   2.878
 9789TIP3    H129310   0.413   2.003   2.854
 9789TIP3    H229311   0.387   2.145   2.901
 9790TIP3   OH229312   1.552   6.572   4.795
 9790TIP3    H129313   1.636   6.554   4.754
 9790TIP3    H229314   1.553   6.666   4.812
 9791TIP3   OH229315   8.137   0.538   6.679
 9791TIP3    H129316   8.120   0.632   6.669
 9791TIP3    H229317   8.079   0.510   6.749
 9792TIP3   OH229318   4.778   2.924   3.522
 9792TIP3    H129319   4.812   2.839   3.548
 9792TIP3    H229320   4.782   2.923   3.426
 9793TIP3   OH229321   3.568   2.636   1.682
 9793TIP3    H129322   3.572   2.643   1.777
 9793TIP3    H229323   3.485   2.676   1.657
 9794TIP3   OH229324   5.562   7.215   4.316
 9794TIP3    H129325   5.569   7.301   4.275
 9794TIP3    H229326   5.642   7.170   4.290
 9795TIP3   OH229327   0.364   5.503   3.735
 9795TIP3    H129328   0.459   5.509   3.745
 9795TIP3    H229329   0.337   5.437   3.800
 9796TIP3   OH229330   2.858   7.423   1.830
 9796TIP3    H129331   2.948   7.457   1.825
 9796TIP3    H229332   2.816   7.454   1.749
 9797TIP3   OH229333   8.065   5.994   4.851
 9797TIP3    H129334   8.092   6.072   4.899
 9797TIP3    H229335   7.986   5.964   4.895
 9798TIP3   OH229336   1.341   4.467   1.818
 9798TIP3    H129337   1.338   4.373   1.832
 9798TIP3    H229338   1.249   4.492   1.805
 9799TIP3   OH229339   5.050   7.244   1.464
 9799TIP3    H129340   5.082   7.279   1.381
 9799TIP3    H229341   5.126   7.247   1.522
 9800TIP3   OH229342   0.658   2.935   3.921
 9800TIP3    H129343   0.744   2.893   3.914
 9800TIP3    H229344   0.596   2.867   3.893
 9801TIP3   OH229345   5.694   6.615   1.081
 9801TIP3    H129346   5.626   6.587   1.142
 9801TIP3    H229347   5.765   6.646   1.136
 9802TIP3   OH229348   2.929   5.670   5.208
 9802TIP3    H129349   2.956   5.726   5.136
 9802TIP3    H229350   2.863   5.721   5.255
 9803TIP3   OH229351   5.920   2.117   2.846
 9803TIP3    H129352   5.988   2.051   2.856
 9803TIP3    H229353   5.857   2.078   2.786
 9804TIP3   OH229354   7.454   7.567   5.043
 9804TIP3    H129355   7.399   7.625   5.096
 9804TIP3    H229356   7.472   7.493   5.100
 9805TIP3   OH229357   0.635   1.961   5.181
 9805TIP3    H129358   0.571   1.920   5.123
 9805TIP3    H229359   0.688   2.016   5.123
 9806TIP3   OH229360   1.899   0.782   2.978
 9806TIP3    H129361   1.938   0.694   2.980
 9806TIP3    H229362   1.804   0.766   2.975
 9807TIP3   OH229363   4.738   1.353   5.159
 9807TIP3    H129364   4.761   1.438   5.120
 9807TIP3    H229365   4.679   1.313   5.095
 9808TIP3   OH229366   1.519   7.672   2.271
 9808TIP3    H129367   1.585   7.608   2.242
 9808TIP3    H229368   1.442   7.654   2.217
 9809TIP3   OH229369   4.915   2.917   2.982
 9809TIP3    H129370   4.967   2.851   2.936
 9809TIP3    H229371   4.976   2.959   3.042
 9810TIP3   OH229372   1.163   1.501   2.974
 9810TIP3    H129373   1.169   1.495   2.879
 9810TIP3    H229374   1.211   1.425   3.007
 9811TIP3   OH229375   3.474   6.712   2.333
 9811TIP3    H129376   3.416   6.787   2.318
 9811TIP3    H229377   3.417   6.636   2.327
 9812TIP3   OH229378   5.499   4.440   4.134
 9812TIP3    H129379   5.505   4.533   4.153
 9812TIP3    H229380   5.485   4.435   4.040
 9813TIP3   OH229381   7.973   1.007   5.682
 9813TIP3    H129382   7.900   1.050   5.726
 9813TIP3    H229383   8.049   1.027   5.737
 9814TIP3   OH229384   0.486   0.474   1.025
 9814TIP3    H129385   0.550   0.496   1.094
 9814TIP3    H229386   0.504   0.382   1.004
 9815TIP3   OH229387   7.893   7.577   5.358
 9815TIP3    H129388   7.954   7.650   5.351
 9815TIP3    H229389   7.917   7.519   5.287
 9816TIP3   OH229390   3.043   2.181   5.301
 9816TIP3    H129391   3.113   2.117   5.310
 9816TIP3    H229392   2.964   2.129   5.287
 9817TIP3   OH229393   6.311   6.976   3.280
 9817TIP3    H129394   6.294   6.934   3.196
 9817TIP3    H229395   6.402   7.005   3.274
 9818TIP3   OH229396   3.498   1.584   5.120
 9818TIP3    H129397   3.497   1.490   5.142
 9818TIP3    H229398   3.579   1.597   5.072
 9819TIP3   OH229399   4.483   5.575   0.976
 9819TIP3    H129400   4.416   5.622   0.926
 9819TIP3    H229401   4.438   5.548   1.056
 9820TIP3   OH229402   4.601   7.413   2.622
 9820TIP3    H129403   4.612   7.320   2.641
 9820TIP3    H229404   4.658   7.430   2.548
 9821TIP3   OH229405   5.614   2.984   2.468
 9821TIP3    H129406   5.644   2.894   2.460
 9821TIP3    H229407   5.610   3.016   2.378
 9822TIP3   OH229408   7.028   6.866   3.911
 9822TIP3    H129409   7.063   6.929   3.974
 9822TIP3    H229410   7.064   6.782   3.938
 9823TIP3   OH229411   3.823   7.598   1.045
 9823TIP3    H129412   3.741   7.549   1.041
 9823TIP3    H229413   3.802   7.677   1.094
 9824TIP3   OH229414   6.886   3.296   5.868
 9824TIP3    H129415   6.871   3.385   5.900
 9824TIP3    H229416   6.904   3.307   5.775
 9825TIP3   OH229417   5.502   3.051   3.869
 9825TIP3    H129418   5.477   3.140   3.844
 9825TIP3    H229419   5.419   3.003   3.872
 9826TIP3   OH229420   7.884   4.805   1.523
 9826TIP3    H129421   7.813   4.742   1.530
 9826TIP3    H229422   7.848   4.877   1.472
 9827TIP3   OH229423   2.171   5.133   6.756
 9827TIP3    H129424   2.161   5.080   6.835
 9827TIP3    H229425   2.240   5.089   6.707
 9828TIP3   OH229426   1.666   2.827   3.533
 9828TIP3    H129427   1.739   2.820   3.595
 9828TIP3    H229428   1.590   2.796   3.582
 9829TIP3   OH229429   6.303   4.771   6.239
 9829TIP3    H129430   6.385   4.725   6.255
 9829TIP3    H229431   6.323   4.829   6.166
 9830TIP3   OH229432   3.952   6.093   6.430
 9830TIP3    H129433   3.947   6.011   6.381
 9830TIP3    H229434   3.866   6.102   6.472
 9831TIP3   OH229435   4.301   5.230   0.882
 9831TIP3    H129436   4.232   5.197   0.939
 9831TIP3    H229437   4.340   5.152   0.843
 9832TIP3   OH229438   0.946   4.810   4.054
 9832TIP3    H129439   1.014   4.783   4.116
 9832TIP3    H229440   0.991   4.869   3.994
 9833TIP3   OH229441   4.868   1.025   5.046
 9833TIP3    H129442   4.948   1.068   5.077
 9833TIP3    H229443   4.899   0.964   4.979
 9834TIP3   OH229444   2.500   2.255   3.322
 9834TIP3    H129445   2.428   2.192   3.310
 9834TIP3    H229446   2.566   2.228   3.258
 9835TIP3   OH229447   7.750   5.508   3.112
 9835TIP3    H129448   7.705   5.581   3.155
 9835TIP3    H229449   7.736   5.434   3.171
 9836TIP3   OH229450   3.894   7.506   1.519
 9836TIP3    H129451   3.938   7.590   1.534
 9836TIP3    H229452   3.807   7.531   1.488
 9837TIP3   OH229453   0.280   0.604   5.210
 9837TIP3    H129454   0.356   0.585   5.156
 9837TIP3    H229455   0.209   0.552   5.170
 9838TIP3   OH229456   1.453   7.364   3.514
 9838TIP3    H129457   1.425   7.307   3.585
 9838TIP3    H229458   1.438   7.312   3.435
 9839TIP3   OH229459   6.676   4.845   2.136
 9839TIP3    H129460   6.708   4.875   2.051
 9839TIP3    H229461   6.755   4.834   2.189
 9840TIP3   OH229462   3.080   7.337   4.422
 9840TIP3    H129463   2.985   7.338   4.427
 9840TIP3    H229464   3.109   7.377   4.504
 9841TIP3   OH229465   7.050   2.200   1.840
 9841TIP3    H129466   7.068   2.164   1.753
 9841TIP3    H229467   7.099   2.143   1.899
 9842TIP3   OH229468   0.629   3.749   0.321
 9842TIP3    H129469   0.550   3.735   0.270
 9842TIP3    H229470   0.680   3.812   0.270
 9843TIP3   OH229471   7.067   5.911   5.010
 9843TIP3    H129472   7.150   5.896   5.054
 9843TIP3    H229473   7.009   5.842   5.043
 9844TIP3   OH229474   6.147   7.493   3.106
 9844TIP3    H129475   6.110   7.567   3.058
 9844TIP3    H229476   6.226   7.528   3.147
 9845TIP3   OH229477   6.156   2.038   6.621
 9845TIP3    H129478   6.150   2.052   6.716
 9845TIP3    H229479   6.066   2.019   6.595
 9846TIP3   OH229480   3.541   0.254   6.253
 9846TIP3    H129481   3.564   0.173   6.298
 9846TIP3    H229482   3.473   0.293   6.309
 9847TIP3   OH229483   4.960   2.666   5.779
 9847TIP3    H129484   4.925   2.646   5.692
 9847TIP3    H229485   4.955   2.761   5.785
 9848TIP3   OH229486   2.071   0.718   3.653
 9848TIP3    H129487   2.058   0.657   3.581
 9848TIP3    H229488   2.134   0.675   3.711
 9849TIP3   OH229489   5.499   4.145   1.758
 9849TIP3    H129490   5.532   4.079   1.698
 9849TIP3    H229491   5.555   4.221   1.743
 9850TIP3   OH229492   6.547   0.670   5.958
 9850TIP3    H129493   6.533   0.582   5.992
 9850TIP3    H229494   6.630   0.665   5.911
 9851TIP3   OH229495   4.175   2.582   6.550
 9851TIP3    H129496   4.212   2.520   6.487
 9851TIP3    H229497   4.091   2.607   6.512
 9852TIP3   OH229498   3.375   0.912   5.204
 9852TIP3    H129499   3.371   0.857   5.126
 9852TIP3    H229500   3.466   0.944   5.206
 9853TIP3   OH229501   2.934   5.297   1.067
 9853TIP3    H129502   2.848   5.304   1.027
 9853TIP3    H229503   2.947   5.203   1.081
 9854TIP3   OH229504   5.623   5.905   4.526
 9854TIP3    H129505   5.551   5.864   4.573
 9854TIP3    H229506   5.632   5.855   4.446
 9855TIP3   OH229507   2.171   5.492   4.907
 9855TIP3    H129508   2.098   5.430   4.900
 9855TIP3    H229509   2.143   5.568   4.856
 9856TIP3   OH229510   5.282   1.409   1.742
 9856TIP3    H129511   5.367   1.388   1.781
 9856TIP3    H229512   5.280   1.360   1.660
 9857TIP3   OH229513   5.596   1.857   1.781
 9857TIP3    H129514   5.539   1.922   1.823
 9857TIP3    H229515   5.541   1.814   1.717
 9858TIP3   OH229516   5.191   4.376   1.607
 9858TIP3    H129517   5.225   4.462   1.580
 9858TIP3    H229518   5.146   4.342   1.530
 9859TIP3   OH229519   6.232   7.287   1.103
 9859TIP3    H129520   6.241   7.196   1.131
 9859TIP3    H229521   6.176   7.282   1.025
 9860TIP3   OH229522   3.576   4.949   3.806
 9860TIP3    H129523   3.665   4.983   3.815
 9860TIP3    H229524   3.545   4.940   3.896
 9861TIP3   OH229525   5.276   3.848   2.392
 9861TIP3    H129526   5.284   3.916   2.459
 9861TIP3    H229527   5.281   3.765   2.441
 9862TIP3   OH229528   3.377   1.487   4.753
 9862TIP3    H129529   3.292   1.443   4.760
 9862TIP3    H229530   3.441   1.416   4.751
 9863TIP3   OH229531   1.187   2.651   4.193
 9863TIP3    H129532   1.179   2.635   4.098
 9863TIP3    H229533   1.097   2.657   4.224
 9864TIP3   OH229534   0.802   0.322   1.083
 9864TIP3    H129535   0.857   0.244   1.090
 9864TIP3    H229536   0.793   0.338   0.989
 9865TIP3   OH229537   0.014   1.417   1.523
 9865TIP3    H129538   0.061   1.438   1.604
 9865TIP3    H229539   0.010   1.322   1.521
 9866TIP3   OH229540   4.343   1.982   6.509
 9866TIP3    H129541   4.338   1.920   6.437
 9866TIP3    H229542   4.258   1.975   6.553
 9867TIP3   OH229543   7.876   1.363   2.374
 9867TIP3    H129544   7.964   1.380   2.341
 9867TIP3    H229545   7.873   1.269   2.389
 9868TIP3   OH229546   2.881   4.456   3.018
 9868TIP3    H129547   2.904   4.414   3.100
 9868TIP3    H229548   2.955   4.438   2.960
 9869TIP3   OH229549   6.277   6.695   1.529
 9869TIP3    H129550   6.194   6.717   1.572
 9869TIP3    H229551   6.250   6.655   1.446
 9870TIP3   OH229552   7.834   4.501   6.509
 9870TIP3    H129553   7.765   4.517   6.445
 9870TIP3    H229554   7.805   4.423   6.556
 9871TIP3   OH229555   7.922   0.874   4.789
 9871TIP3    H129556   7.921   0.797   4.846
 9871TIP3    H229557   7.970   0.940   4.838
 9872TIP3   OH229558   4.426   5.008   4.234
 9872TIP3    H129559   4.499   4.973   4.286
 9872TIP3    H229560   4.416   4.944   4.163
 9873TIP3   OH229561   7.649   1.985   5.558
 9873TIP3    H129562   7.635   1.939   5.641
 9873TIP3    H229563   7.561   1.990   5.520
 9874TIP3   OH229564   6.091   4.537   4.479
 9874TIP3    H129565   6.068   4.507   4.391
 9874TIP3    H229566   6.113   4.457   4.527
 9875TIP3   OH229567   5.250   0.966   5.772
 9875TIP3    H129568   5.236   0.886   5.823
 9875TIP3    H229569   5.343   0.985   5.782
 9876TIP3   OH229570   5.579   2.791   5.219
 9876TIP3    H129571   5.650   2.807   5.156
 9876TIP3    H229572   5.625   2.776   5.302
 9877TIP3   OH229573   5.535   4.165   1.071
 9877TIP3    H129574   5.594   4.092   1.053
 9877TIP3    H229575   5.452   4.125   1.093
 9878TIP3   OH229576   8.122   5.802   6.635
 9878TIP3    H129577   8.152   5.716   6.664
 9878TIP3    H229578   8.129   5.799   6.540
 9879TIP3   OH229579   4.098   2.400   0.312
 9879TIP3    H129580   4.064   2.311   0.302
 9879TIP3    H229581   4.024   2.450   0.348
 9880TIP3   OH229582   2.641   5.560   0.386
 9880TIP3    H129583   2.618   5.606   0.467
 9880TIP3    H229584   2.736   5.550   0.390
 9881TIP3   OH229585   6.715   4.250   1.237
 9881TIP3    H129586   6.754   4.192   1.302
 9881TIP3    H229587   6.737   4.338   1.268
 9882TIP3   OH229588   1.938   3.446   5.758
 9882TIP3    H129589   1.957   3.354   5.775
 9882TIP3    H229590   2.022   3.490   5.767
 9883TIP3   OH229591   1.394   6.386   1.574
 9883TIP3    H129592   1.485   6.408   1.551
 9883TIP3    H229593   1.378   6.434   1.655
 9884TIP3   OH229594   6.885   6.623   3.692
 9884TIP3    H129595   6.797   6.637   3.727
 9884TIP3    H229596   6.897   6.693   3.628
 9885TIP3   OH229597   5.354   4.045   5.616
 9885TIP3    H129598   5.436   4.037   5.664
 9885TIP3    H229599   5.381   4.051   5.524
 9886TIP3   OH229600   0.484   4.143   2.980
 9886TIP3    H129601   0.460   4.055   2.951
 9886TIP3    H229602   0.537   4.178   2.908
 9887TIP3   OH229603   4.062   0.056   0.886
 9887TIP3    H129604   4.051   0.017   0.973
 9887TIP3    H229605   3.977   0.047   0.844
 9888TIP3   OH229606   6.934   0.469   6.245
 9888TIP3    H129607   7.002   0.458   6.311
 9888TIP3    H229608   6.890   0.383   6.241
 9889TIP3   OH229609   5.688   0.216   2.173
 9889TIP3    H129610   5.594   0.229   2.185
 9889TIP3    H229611   5.696   0.188   2.082
 9890TIP3   OH229612   2.481   3.876   3.655
 9890TIP3    H129613   2.551   3.913   3.708
 9890TIP3    H229614   2.507   3.893   3.564
 9891TIP3   OH229615   0.512   3.958   3.584
 9891TIP3    H129616   0.604   3.968   3.561
 9891TIP3    H229617   0.465   3.977   3.502
 9892TIP3   OH229618   6.815   6.300   4.663
 9892TIP3    H129619   6.784   6.283   4.752
 9892TIP3    H229620   6.739   6.335   4.617
 9893TIP3   OH229621   5.481   3.388   5.421
 9893TIP3    H129622   5.473   3.423   5.510
 9893TIP3    H229623   5.538   3.311   5.430
 9894TIP3   OH229624   7.981   7.643   4.152
 9894TIP3    H129625   7.890   7.661   4.179
 9894TIP3    H229626   8.033   7.662   4.230
 9895TIP3   OH229627   3.190   1.437   6.376
 9895TIP3    H129628   3.207   1.449   6.283
 9895TIP3    H229629   3.277   1.420   6.414
 9896TIP3   OH229630   2.110   0.271   5.659
 9896TIP3    H129631   2.161   0.224   5.725
 9896TIP3    H229632   2.127   0.223   5.578
 9897TIP3   OH229633   4.661   4.453   3.363
 9897TIP3    H129634   4.740   4.442   3.311
 9897TIP3    H229635   4.671   4.391   3.435
 9898TIP3   OH229636   6.452   2.577   2.100
 9898TIP3    H129637   6.531   2.624   2.073
 9898TIP3    H229638   6.410   2.634   2.163
 9899TIP3   OH229639   5.313   4.854   1.108
 9899TIP3    H129640   5.336   4.811   1.026
 9899TIP3    H229641   5.220   4.836   1.120
 9900TIP3   OH229642   6.834   1.752   3.117
 9900TIP3    H129643   6.807   1.818   3.053
 9900TIP3    H229644   6.873   1.682   3.065
 9901TIP3   OH229645   4.371   1.611   0.084
 9901TIP3    H129646   4.289   1.625   0.036
 9901TIP3    H229647   4.376   1.517   0.099
 9902TIP3   OH229648   1.417   6.092   0.440
 9902TIP3    H129649   1.353   6.056   0.502
 9902TIP3    H229650   1.467   6.016   0.410
 9903TIP3   OH229651   3.287   4.799   5.712
 9903TIP3    H129652   3.254   4.775   5.625
 9903TIP3    H229653   3.383   4.794   5.704
 9904TIP3   OH229654   3.506   2.987   4.793
 9904TIP3    H129655   3.446   3.027   4.730
 9904TIP3    H229656   3.589   2.979   4.745
 9905TIP3   OH229657   1.812   6.792   0.792
 9905TIP3    H129658   1.907   6.783   0.783
 9905TIP3    H229659   1.789   6.734   0.865
 9906TIP3   OH229660   4.338   7.546   3.826
 9906TIP3    H129661   4.430   7.534   3.805
 9906TIP3    H229662   4.332   7.634   3.863
 9907TIP3   OH229663   4.143   5.946   3.736
 9907TIP3    H129664   4.151   6.027   3.787
 9907TIP3    H229665   4.152   5.876   3.801
 9908TIP3   OH229666   6.171   3.874   1.993
 9908TIP3    H129667   6.096   3.849   2.048
 9908TIP3    H229668   6.243   3.881   2.055
 9909TIP3   OH229669   2.915   6.543   2.563
 9909TIP3    H129670   2.823   6.525   2.547
 9909TIP3    H229671   2.962   6.477   2.512
 9910TIP3   OH229672   5.386   6.299   5.823
 9910TIP3    H129673   5.304   6.333   5.860
 9910TIP3    H229674   5.419   6.369   5.768
 9911TIP3   OH229675   4.980   2.710   6.038
 9911TIP3    H129676   4.948   2.664   5.960
 9911TIP3    H229677   5.067   2.742   6.012
 9912TIP3   OH229678   7.615   0.908   1.605
 9912TIP3    H129679   7.630   1.000   1.629
 9912TIP3    H229680   7.601   0.910   1.511
 9913TIP3   OH229681   3.063   1.894   6.462
 9913TIP3    H129682   3.135   1.912   6.401
 9913TIP3    H229683   3.106   1.886   6.548
 9914TIP3   OH229684   4.064   2.336   5.210
 9914TIP3    H129685   4.142   2.315   5.158
 9914TIP3    H229686   3.991   2.327   5.149
 9915TIP3   OH229687   6.479   0.125   0.541
 9915TIP3    H129688   6.395   0.163   0.517
 9915TIP3    H229689   6.460   0.070   0.617
 9916TIP3   OH229690   0.717   2.153   4.978
 9916TIP3    H129691   0.748   2.235   4.939
 9916TIP3    H229692   0.624   2.167   4.995
 9917TIP3   OH229693   3.645   7.773   5.822
 9917TIP3    H129694   3.562   7.781   5.776
 9917TIP3    H229695   3.623   7.722   5.901
 9918TIP3   OH229696   6.118   3.429   6.504
 9918TIP3    H129697   6.142   3.387   6.421
 9918TIP3    H229698   6.201   3.449   6.546
 9919TIP3   OH229699   6.465   6.084   0.175
 9919TIP3    H129700   6.378   6.122   0.165
 9919TIP3    H229701   6.451   5.990   0.174
 9920TIP3   OH229702   4.098   1.948   5.336
 9920TIP3    H129703   4.190   1.922   5.327
 9920TIP3    H229704   4.048   1.872   5.307
 9921TIP3   OH229705   4.949   3.351   5.706
 9921TIP3    H129706   4.874   3.294   5.721
 9921TIP3    H229707   4.934   3.387   5.618
 9922TIP3   OH229708   4.414   1.875   5.868
 9922TIP3    H129709   4.416   1.780   5.857
 9922TIP3    H229710   4.336   1.891   5.923
 9923TIP3   OH229711   1.407   6.587   1.824
 9923TIP3    H129712   1.366   6.670   1.847
 9923TIP3    H229713   1.494   6.611   1.792
 9924TIP3   OH229714   6.929   1.085   1.116
 9924TIP3    H129715   6.892   1.123   1.037
 9924TIP3    H229716   6.936   0.991   1.097
 9925TIP3   OH229717   1.226   3.419   4.763
 9925TIP3    H129718   1.180   3.496   4.797
 9925TIP3    H229719   1.309   3.418   4.810
 9926TIP3   OH229720   6.968   6.954   2.618
 9926TIP3    H129721   6.984   7.001   2.699
 9926TIP3    H229722   6.903   7.006   2.571
 9927TIP3   OH229723   4.377   7.201   3.971
 9927TIP3    H129724   4.325   7.281   3.978
 9927TIP3    H229725   4.326   7.144   3.913
 9928TIP3   OH229726   4.871   2.566   0.143
 9928TIP3    H129727   4.853   2.483   0.187
 9928TIP3    H229728   4.847   2.551   0.052
 9929TIP3   OH229729   1.134   5.638   5.121
 9929TIP3    H129730   1.212   5.631   5.177
 9929TIP3    H229731   1.078   5.701   5.166
 9930TIP3   OH229732   1.522   3.275   6.005
 9930TIP3    H129733   1.500   3.312   6.091
 9930TIP3    H229734   1.617   3.285   5.999
 9931TIP3   OH229735   0.372   0.451   4.475
 9931TIP3    H129736   0.379   0.521   4.540
 9931TIP3    H229737   0.349   0.496   4.393
 9932TIP3   OH229738   7.042   3.823   5.322
 9932TIP3    H129739   7.018   3.762   5.252
 9932TIP3    H229740   7.047   3.908   5.279
 9933TIP3   OH229741   3.254   3.555   5.866
 9933TIP3    H129742   3.277   3.515   5.782
 9933TIP3    H229743   3.297   3.640   5.865
 9934TIP3   OH229744   5.243   4.778   0.496
 9934TIP3    H129745   5.153   4.797   0.469
 9934TIP3    H229746   5.292   4.857   0.471
 9935TIP3   OH229747   7.880   5.412   2.137
 9935TIP3    H129748   7.974   5.413   2.115
 9935TIP3    H229749   7.863   5.322   2.165
 9936TIP3   OH229750   3.708   0.879   3.597
 9936TIP3    H129751   3.662   0.952   3.556
 9936TIP3    H229752   3.707   0.900   3.691
 9937TIP3   OH229753   1.350   7.630   6.546
 9937TIP3    H129754   1.323   7.563   6.484
 9937TIP3    H229755   1.335   7.591   6.632
 9938TIP3   OH229756   1.887   6.897   3.951
 9938TIP3    H129757   1.867   6.809   3.983
 9938TIP3    H229758   1.942   6.883   3.874
 9939TIP3   OH229759   1.420   3.486   4.951
 9939TIP3    H129760   1.411   3.452   5.040
 9939TIP3    H229761   1.424   3.581   4.962
 9940TIP3   OH229762   0.787   3.800   0.783
 9940TIP3    H129763   0.803   3.891   0.755
 9940TIP3    H229764   0.725   3.808   0.855
 9941TIP3   OH229765   8.049   5.290   2.976
 9941TIP3    H129766   8.010   5.279   3.063
 9941TIP3    H229767   8.135   5.329   2.993
 9942TIP3   OH229768   4.041   0.397   2.829
 9942TIP3    H129769   3.988   0.356   2.898
 9942TIP3    H229770   4.036   0.336   2.755
 9943TIP3   OH229771   4.507   0.715   0.592
 9943TIP3    H129772   4.562   0.792   0.607
 9943TIP3    H229773   4.530   0.685   0.504
 9944TIP3   OH229774   0.419   3.718   5.116
 9944TIP3    H129775   0.435   3.730   5.210
 9944TIP3    H229776   0.367   3.638   5.111
 9945TIP3   OH229777   2.249   4.221   6.630
 9945TIP3    H129778   2.177   4.245   6.572
 9945TIP3    H229779   2.300   4.301   6.640
 9946TIP3   OH229780   7.790   2.496   1.841
 9946TIP3    H129781   7.841   2.574   1.861
 9946TIP3    H229782   7.792   2.490   1.745
 9947TIP3   OH229783   7.125   3.445   0.609
 9947TIP3    H129784   7.072   3.520   0.637
 9947TIP3    H229785   7.140   3.395   0.689
 9948TIP3   OH229786   2.989   0.792   3.573
 9948TIP3    H129787   3.066   0.762   3.621
 9948TIP3    H229788   2.937   0.838   3.638
 9949TIP3   OH229789   6.024   3.292   6.743
 9949TIP3    H129790   6.094   3.256   6.689
 9949TIP3    H229791   6.061   3.372   6.780
 9950TIP3   OH229792   3.628   7.163   1.282
 9950TIP3    H129793   3.699   7.172   1.218
 9950TIP3    H229794   3.621   7.069   1.297
 9951TIP3   OH229795   4.498   6.243   5.378
 9951TIP3    H129796   4.427   6.276   5.322
 9951TIP3    H229797   4.453   6.193   5.446
 9952TIP3   OH229798   3.680   3.190   3.100
 9952TIP3    H129799   3.682   3.222   3.009
 9952TIP3    H229800   3.597   3.143   3.106
 9953TIP3   OH229801   5.629   4.093   3.935
 9953TIP3    H129802   5.551   4.087   3.879
 9953TIP3    H229803   5.657   4.002   3.946
 9954TIP3   OH229804   7.194   6.546   1.985
 9954TIP3    H129805   7.239   6.591   2.057
 9954TIP3    H229806   7.149   6.616   1.938
 9955TIP3   OH229807   4.330   2.232   6.166
 9955TIP3    H129808   4.254   2.175   6.155
 9955TIP3    H229809   4.389   2.208   6.095
 9956TIP3   OH229810   2.923   1.435   2.436
 9956TIP3    H129811   3.013   1.465   2.433
 9956TIP3    H229812   2.920   1.360   2.376
 9957TIP3   OH229813   5.772   0.594   2.550
 9957TIP3    H129814   5.772   0.501   2.570
 9957TIP3    H229815   5.864   0.620   2.557
 9958TIP3   OH229816   4.727   7.562   4.260
 9958TIP3    H129817   4.638   7.591   4.281
 9958TIP3    H229818   4.766   7.543   4.345
 9959TIP3   OH229819   5.583   3.865   1.913
 9959TIP3    H129820   5.562   3.894   2.002
 9959TIP3    H229821   5.673   3.833   1.919
 9960TIP3   OH229822   3.970   0.732   4.730
 9960TIP3    H129823   4.033   0.687   4.674
 9960TIP3    H229824   3.962   0.819   4.691
 9961TIP3   OH229825   3.911   5.748   3.434
 9961TIP3    H129826   3.880   5.698   3.510
 9961TIP3    H229827   3.998   5.779   3.459
 9962TIP3   OH229828   5.962   4.365   2.254
 9962TIP3    H129829   5.936   4.388   2.343
 9962TIP3    H229830   5.905   4.417   2.198
 9963TIP3   OH229831   6.642   3.611   2.543
 9963TIP3    H129832   6.646   3.631   2.637
 9963TIP3    H229833   6.709   3.544   2.531
 9964TIP3   OH229834   6.163   0.335   4.490
 9964TIP3    H129835   6.199   0.323   4.402
 9964TIP3    H229836   6.102   0.262   4.502
 9965TIP3   OH229837   6.230   7.350   2.004
 9965TIP3    H129838   6.280   7.401   2.069
 9965TIP3    H229839   6.248   7.259   2.027
 9966TIP3   OH229840   6.532   3.989   1.739
 9966TIP3    H129841   6.542   4.023   1.650
 9966TIP3    H229842   6.439   4.000   1.759
 9967TIP3   OH229843   6.928   1.664   6.734
 9967TIP3    H129844   6.973   1.735   6.779
 9967TIP3    H229845   6.835   1.680   6.752
 9968TIP3   OH229846   2.356   7.346   1.074
 9968TIP3    H129847   2.356   7.435   1.110
 9968TIP3    H229848   2.351   7.358   0.980
 9969TIP3   OH229849   2.171   4.223   5.326
 9969TIP3    H129850   2.197   4.313   5.348
 9969TIP3    H229851   2.116   4.233   5.248
 9970TIP3   OH229852   4.432   7.279   3.271
 9970TIP3    H129853   4.342   7.284   3.304
 9970TIP3    H229854   4.430   7.207   3.208
 9971TIP3   OH229855   2.242   4.800   0.979
 9971TIP3    H129856   2.302   4.729   1.002
 9971TIP3    H229857   2.282   4.840   0.902
 9972TIP3   OH229858   4.664   7.527   1.462
 9972TIP3    H129859   4.733   7.477   1.506
 9972TIP3    H229860   4.652   7.483   1.378
 9973TIP3   OH229861   6.816   2.159   3.977
 9973TIP3    H129862   6.870   2.165   4.055
 9973TIP3    H229863   6.741   2.106   4.003
 9974TIP3   OH229864   4.490   0.640   0.078
 9974TIP3    H129865   4.550   0.651   0.004
 9974TIP3    H229866   4.409   0.609   0.039
 9975TIP3   OH229867   6.258   5.766   6.679
 9975TIP3    H129868   6.293   5.753   6.768
 9975TIP3    H229869   6.336   5.768   6.623
 9976TIP3   OH229870   6.042   2.756   3.443
 9976TIP3    H129871   6.097   2.702   3.385
 9976TIP3    H229872   6.102   2.820   3.480
 9977TIP3   OH229873   4.675   1.623   2.947
 9977TIP3    H129874   4.609   1.680   2.908
 9977TIP3    H229875   4.737   1.606   2.876
 9978TIP3   OH229876   2.954   3.919   3.931
 9978TIP3    H129877   2.905   3.851   3.978
 9978TIP3    H229878   3.045   3.904   3.956
 9979TIP3   OH229879   6.997   5.346   4.373
 9979TIP3    H129880   7.037   5.267   4.338
 9979TIP3    H229881   7.071   5.401   4.400
 9980TIP3   OH229882   6.223   3.478   4.926
 9980TIP3    H129883   6.158   3.511   4.988
 9980TIP3    H229884   6.188   3.394   4.896
 9981TIP3   OH229885   3.177   3.530   1.825
 9981TIP3    H129886   3.266   3.563   1.812
 9981TIP3    H229887   3.133   3.597   1.878
 9982TIP3   OH229888   7.788   4.492   4.367
 9982TIP3    H129889   7.796   4.583   4.395
 9982TIP3    H229890   7.865   4.477   4.312
 9983TIP3   OH229891   7.139   5.298   6.319
 9983TIP3    H129892   7.111   5.297   6.410
 9983TIP3    H229893   7.229   5.267   6.320
 9984TIP3   OH229894   0.178   2.284   5.883
 9984TIP3    H129895   0.135   2.333   5.953
 9984TIP3    H229896   0.271   2.304   5.894
 9985TIP3   OH229897   6.260   5.857   5.466
 9985TIP3    H129898   6.288   5.921   5.401
 9985TIP3    H229899   6.270   5.772   5.423
 9986TIP3   OH229900   5.503   3.537   4.441
 9986TIP3    H129901   5.574   3.547   4.378
 9986TIP3    H229902   5.469   3.449   4.425
 9987TIP3   OH229903   4.164   2.419   0.831
 9987TIP3    H129904   4.150   2.501   0.879
 9987TIP3    H229905   4.153   2.443   0.739
 9988TIP3   OH229906   3.910   2.404   5.986
 9988TIP3    H129907   3.823   2.435   5.962
 9988TIP3    H229908   3.943   2.361   5.907
 9989TIP3   OH229909   2.538   5.703   6.234
 9989TIP3    H129910   2.535   5.789   6.275
 9989TIP3    H229911   2.625   5.699   6.194
 9990TIP3   OH229912   0.727   6.699   4.390
 9990TIP3    H129913   0.788   6.632   4.421
 9990TIP3    H229914   0.763   6.728   4.307
 9991TIP3   OH229915   2.088   4.011   4.503
 9991TIP3    H129916   2.029   3.942   4.534
 9991TIP3    H229917   2.161   4.010   4.565
 9992TIP3   OH229918   4.490   3.150   5.873
 9992TIP3    H129919   4.546   3.199   5.813
 9992TIP3    H229920   4.473   3.067   5.829
 9993TIP3   OH229921   5.095   4.140   5.666
 9993TIP3    H129922   5.080   4.111   5.756
 9993TIP3    H229923   5.187   4.123   5.650
 9994TIP3   OH229924   6.437   2.222   6.653
 9994TIP3    H129925   6.500   2.278   6.607
 9994TIP3    H229926   6.446   2.247   6.745
 9995TIP3   OH229927   3.856   2.131   5.267
 9995TIP3    H129928   3.940   2.085   5.267
 9995TIP3    H229929   3.802   2.082   5.206
 9996TIP3   OH229930   1.510   4.971   1.227
 9996TIP3    H129931   1.447   4.903   1.252
 9996TIP3    H229932   1.491   5.044   1.287
 9997TIP3   OH229933  -0.025   1.914   5.117
 9997TIP3    H129934   0.065   1.912   5.152
 9997TIP3    H229935  -0.019   1.870   5.033
 9998TIP3   OH229936   0.510   5.965   6.220
 9998TIP3    H129937   0.603   5.944   6.220
 9998TIP3    H229938   0.488   5.978   6.127
 9999TIP3   OH229939   6.349   1.181   5.022
 9999TIP3    H129940   6.259   1.149   5.016
 9999TIP3    H229941   6.345   1.270   4.989
10000TIP3   OH229942   4.148   5.902   6.191
10000TIP3    H129943   4.198   5.837   6.240
10000TIP3    H229944   4.174   5.986   6.230
10001TIP3   OH229945   0.031   6.372   0.701
10001TIP3    H129946   0.059   6.423   0.777
10001TIP3    H229947   0.090   6.399   0.630
10002TIP3   OH229948   4.754   3.251   6.477
10002TIP3    H129949   4.781   3.227   6.566
10002TIP3    H229950   4.713   3.171   6.442
10003TIP3   OH229951   2.872   0.896   2.025
10003TIP3    H129952   2.814   0.822   2.011
10003TIP3    H229953   2.951   0.858   2.064
10004TIP3   OH229954   7.113   4.837   6.107
10004TIP3    H129955   7.034   4.793   6.139
10004TIP3    H229956   7.183   4.775   6.125
10005TIP3   OH229957   7.250   6.063   3.986
10005TIP3    H129958   7.217   5.999   3.924
10005TIP3    H229959   7.259   6.144   3.936
10006TIP3   OH229960   7.505   4.378   1.416
10006TIP3    H129961   7.419   4.421   1.405
10006TIP3    H229962   7.493   4.318   1.489
10007TIP3   OH229963   4.275   2.544   2.273
10007TIP3    H129964   4.293   2.459   2.231
10007TIP3    H229965   4.265   2.605   2.200
10008TIP3   OH229966   2.842   0.320   5.739
10008TIP3    H129967   2.907   0.323   5.810
10008TIP3    H229968   2.880   0.260   5.675
10009TIP3   OH229969   1.172   7.180   1.476
10009TIP3    H129970   1.111   7.111   1.451
10009TIP3    H229971   1.190   7.227   1.394
10010TIP3   OH229972   2.921   3.966   5.979
10010TIP3    H129973   2.907   3.885   6.027
10010TIP3    H229974   2.854   4.026   6.013
10011TIP3   OH229975   1.147   0.698   2.974
10011TIP3    H129976   1.098   0.619   2.948
10011TIP3    H229977   1.101   0.729   3.052
10012TIP3   OH229978   6.274   6.879   5.539
10012TIP3    H129979   6.350   6.841   5.494
10012TIP3    H229980   6.299   6.879   5.631
10013TIP3   OH229981   7.194   2.394   2.687
10013TIP3    H129982   7.191   2.469   2.627
10013TIP3    H229983   7.110   2.350   2.674
10014TIP3   OH229984   6.106   1.094   3.996
10014TIP3    H129985   6.188   1.133   3.966
10014TIP3    H229986   6.064   1.062   3.915
10015TIP3   OH229987   5.997   7.435   2.615
10015TIP3    H129988   5.938   7.510   2.602
10015TIP3    H229989   6.049   7.459   2.692
10016TIP3   OH229990   6.940   6.275   4.127
10016TIP3    H129991   6.984   6.349   4.169
10016TIP3    H229992   6.862   6.260   4.179
10017TIP3   OH229993   2.931   3.690   0.821
10017TIP3    H129994   2.852   3.669   0.871
10017TIP3    H229995   2.945   3.614   0.765
10018TIP3   OH229996   0.418   4.728   6.008
10018TIP3    H129997   0.446   4.785   6.080
10018TIP3    H229998   0.326   4.749   5.995
10019TIP3   OH229999   5.780   7.063   1.693
10019TIP3    H130000   5.831   6.984   1.710
10019TIP3    H230001   5.765   7.061   1.598
10020TIP3   OH230002   1.968   7.145   5.021
10020TIP3    H130003   2.046   7.200   5.027
10020TIP3    H230004   1.895   7.204   5.041
10021TIP3   OH230005   2.077   3.852   1.814
10021TIP3    H130006   2.099   3.942   1.788
10021TIP3    H230007   2.042   3.812   1.734
10022TIP3   OH230008   1.758   1.565   6.244
10022TIP3    H130009   1.762   1.470   6.232
10022TIP3    H230010   1.767   1.577   6.339
10023TIP3   OH230011   3.387   6.585   2.673
10023TIP3    H130012   3.320   6.605   2.738
10023TIP3    H230013   3.362   6.636   2.596
10024TIP3   OH230014   6.350   7.167   3.687
10024TIP3    H130015   6.259   7.173   3.717
10024TIP3    H230016   6.353   7.086   3.636
10025TIP3   OH230017   1.025   0.913   1.026
10025TIP3    H130018   0.991   0.826   1.004
10025TIP3    H230019   1.108   0.919   0.978
10026TIP3   OH230020   7.812   6.769   3.640
10026TIP3    H130021   7.779   6.859   3.649
10026TIP3    H230022   7.905   6.780   3.620
10027TIP3   OH230023   5.941   2.502   6.162
10027TIP3    H130024   5.853   2.465   6.164
10027TIP3    H230025   5.927   2.597   6.168
10028TIP3   OH230026   0.086   3.767   5.893
10028TIP3    H130027   0.130   3.714   5.960
10028TIP3    H230028   0.020   3.817   5.941
10029TIP3   OH230029   0.412   7.696   6.408
10029TIP3    H130030   0.459   7.620   6.373
10029TIP3    H230031   0.388   7.748   6.331
10030TIP3   OH230032   5.521   7.661   3.983
10030TIP3    H130033   5.583   7.718   4.029
10030TIP3    H230034   5.544   7.572   4.013
10031TIP3   OH230035   0.217   1.868   1.093
10031TIP3    H130036   0.163   1.906   1.163
10031TIP3    H230037   0.296   1.840   1.137
10032TIP3   OH230038   6.884   1.285   6.497
10032TIP3    H130039   6.881   1.357   6.434
10032TIP3    H230040   6.977   1.276   6.517
10033TIP3   OH230041   1.502   7.081   5.999
10033TIP3    H130042   1.586   7.126   5.997
10033TIP3    H230043   1.445   7.135   5.944
10034TIP3   OH230044   8.088   6.192   2.064
10034TIP3    H130045   8.156   6.124   2.067
10034TIP3    H230046   8.117   6.251   1.995
10035TIP3   OH230047   4.370   5.293   1.450
10035TIP3    H130048   4.284   5.260   1.425
10035TIP3    H230049   4.371   5.288   1.545
10036TIP3   OH230050   5.478   2.026   6.489
10036TIP3    H130051   5.481   2.021   6.394
10036TIP3    H230052   5.391   2.061   6.509
10037TIP3   OH230053   7.601   7.097   1.073
10037TIP3    H130054   7.511   7.105   1.043
10037TIP3    H230055   7.602   7.140   1.158
10038TIP3   OH230056   4.226   1.152   2.784
10038TIP3    H130057   4.201   1.206   2.709
10038TIP3    H230058   4.294   1.094   2.751
10039TIP3   OH230059   2.890   5.447   3.980
10039TIP3    H130060   2.873   5.410   4.067
10039TIP3    H230061   2.845   5.388   3.920
10040TIP3   OH230062   5.091   3.894   4.370
10040TIP3    H130063   5.010   3.846   4.386
10040TIP3    H230064   5.160   3.832   4.392
10041TIP3   OH230065   2.495   3.580   4.923
10041TIP3    H130066   2.429   3.607   4.860
10041TIP3    H230067   2.577   3.613   4.888
10042TIP3   OH230068   5.106   2.615   3.242
10042TIP3    H130069   5.171   2.667   3.195
10042TIP3    H230070   5.141   2.527   3.242
10043TIP3   OH230071   2.427   1.138   6.699
10043TIP3    H130072   2.367   1.130   6.624
10043TIP3    H230073   2.402   1.065   6.756
10044TIP3   OH230074   4.817   6.441   6.004
10044TIP3    H130075   4.723   6.425   6.017
10044TIP3    H230076   4.826   6.535   6.012
10045TIP3   OH230077   1.362   2.800   2.787
10045TIP3    H130078   1.458   2.803   2.783
10045TIP3    H230079   1.336   2.747   2.712
10046TIP3   OH230080   6.253   3.851   5.254
10046TIP3    H130081   6.280   3.923   5.197
10046TIP3    H230082   6.158   3.859   5.259
10047TIP3   OH230083   1.945   7.500   4.282
10047TIP3    H130084   2.027   7.466   4.317
10047TIP3    H230085   1.879   7.477   4.348
10048TIP3   OH230086   0.732   0.833   2.712
10048TIP3    H130087   0.702   0.800   2.628
10048TIP3    H230088   0.727   0.758   2.772
10049TIP3   OH230089   5.781   3.797   4.804
10049TIP3    H130090   5.830   3.871   4.839
10049TIP3    H230091   5.718   3.837   4.743
10050TIP3   OH230092   2.150   5.295   1.103
10050TIP3    H130093   2.082   5.230   1.123
10050TIP3    H230094   2.166   5.340   1.186
10051TIP3   OH230095   6.956   5.475   4.912
10051TIP3    H130096   7.009   5.543   4.872
10051TIP3    H230097   6.878   5.520   4.944
10052TIP3   OH230098   1.061   2.175   3.160
10052TIP3    H130099   1.053   2.088   3.121
10052TIP3    H230100   1.078   2.233   3.087
10053TIP3   OH230101   7.903   2.981   1.169
10053TIP3    H130102   7.940   3.007   1.253
10053TIP3    H230103   7.979   2.970   1.111
10054TIP3   OH230104   4.146   6.213   0.563
10054TIP3    H130105   4.071   6.176   0.609
10054TIP3    H230106   4.124   6.305   0.548
10055TIP3   OH230107   6.407   1.311   5.779
10055TIP3    H130108   6.385   1.235   5.834
10055TIP3    H230109   6.323   1.354   5.763
10056TIP3   OH230110   2.537   4.637   2.629
10056TIP3    H130111   2.510   4.715   2.580
10056TIP3    H230112   2.632   4.637   2.623
10057TIP3   OH230113   4.557   6.403   6.123
10057TIP3    H130114   4.477   6.444   6.092
10057TIP3    H230115   4.541   6.309   6.113
10058TIP3   OH230116   2.925   7.056   4.215
10058TIP3    H130117   2.919   7.075   4.309
10058TIP3    H230118   2.844   7.092   4.178
10059TIP3   OH230119   5.030   6.029   3.900
10059TIP3    H130120   5.015   6.007   3.808
10059TIP3    H230121   5.041   6.124   3.901
10060TIP3   OH230122   3.516   7.083   6.059
10060TIP3    H130123   3.571   7.153   6.092
10060TIP3    H230124   3.528   7.084   5.964
10061TIP3   OH230125   5.883   4.091   5.798
10061TIP3    H130126   5.944   4.097   5.725
10061TIP3    H230127   5.876   4.181   5.831
10062TIP3   OH230128   0.108   4.375   2.220
10062TIP3    H130129   0.130   4.374   2.313
10062TIP3    H230130   0.095   4.467   2.199
10063TIP3   OH230131   2.103   1.997   6.432
10063TIP3    H130132   2.096   1.978   6.338
10063TIP3    H230133   2.197   2.000   6.449
10064TIP3   OH230134   4.929   3.872   2.757
10064TIP3    H130135   5.022   3.886   2.771
10064TIP3    H230136   4.891   3.867   2.845
10065TIP3   OH230137   1.063   6.333   0.670
10065TIP3    H130138   0.982   6.351   0.718
10065TIP3    H230139   1.128   6.389   0.712
10066TIP3   OH230140   1.063   2.079   6.415
10066TIP3    H130141   1.078   2.173   6.412
10066TIP3    H230142   1.053   2.053   6.324
10067TIP3   OH230143   3.258   6.073   3.304
10067TIP3    H130144   3.239   6.102   3.393
10067TIP3    H230145   3.349   6.099   3.289
10068TIP3   OH230146   2.383   4.352   2.955
10068TIP3    H130147   2.334   4.278   2.918
10068TIP3    H230148   2.326   4.428   2.941
10069TIP3   OH230149   5.070   7.589   6.573
10069TIP3    H130150   5.121   7.520   6.617
10069TIP3    H230151   4.984   7.586   6.615
10070TIP3   OH230152   6.363   4.201   2.621
10070TIP3    H130153   6.425   4.195   2.693
10070TIP3    H230154   6.321   4.115   2.618
10071TIP3   OH230155   3.595   7.358  -0.023
10071TIP3    H130156   3.624   7.379   0.066
10071TIP3    H230157   3.504   7.329  -0.012
10072TIP3   OH230158   7.653   0.519   1.175
10072TIP3    H130159   7.598   0.579   1.124
10072TIP3    H230160   7.741   0.529   1.138
10073TIP3   OH230161   4.329   5.502   1.805
10073TIP3    H130162   4.389   5.554   1.858
10073TIP3    H230163   4.347   5.529   1.715
10074TIP3   OH230164   4.220   1.919   3.375
10074TIP3    H130165   4.275   1.846   3.404
10074TIP3    H230166   4.132   1.882   3.373
10075TIP3   OH230167   8.239   6.986   4.798
10075TIP3    H130168   8.158   7.000   4.750
10075TIP3    H230169   8.306   7.030   4.746
10076TIP3   OH230170   7.447   6.103   1.127
10076TIP3    H130171   7.498   6.098   1.046
10076TIP3    H230172   7.422   6.195   1.134
10077TIP3   OH230173   3.015   6.617   0.785
10077TIP3    H130174   3.030   6.523   0.775
10077TIP3    H230175   2.946   6.624   0.851
10078TIP3   OH230176   1.288   6.796   2.630
10078TIP3    H130177   1.309   6.851   2.555
10078TIP3    H230178   1.220   6.738   2.599
10079TIP3   OH230179   1.217   3.536   4.042
10079TIP3    H130180   1.260   3.554   3.959
10079TIP3    H230181   1.220   3.441   4.052
10080TIP3   OH230182   7.385   7.779   5.893
10080TIP3    H130183   7.319   7.834   5.852
10080TIP3    H230184   7.340   7.697   5.912
10081TIP3   OH230185   7.874   3.648   5.688
10081TIP3    H130186   7.926   3.661   5.609
10081TIP3    H230187   7.795   3.603   5.658
10082TIP3   OH230188   3.179   4.880   1.840
10082TIP3    H130189   3.232   4.802   1.821
10082TIP3    H230190   3.212   4.946   1.779
10083TIP3   OH230191   0.987   7.190   4.108
10083TIP3    H130192   0.904   7.201   4.061
10083TIP3    H230193   1.027   7.113   4.068
10084TIP3   OH230194   4.863   4.670   6.163
10084TIP3    H130195   4.858   4.682   6.068
10084TIP3    H230196   4.939   4.722   6.189
10085TIP3   OH230197   3.586   3.152   5.261
10085TIP3    H130198   3.558   3.205   5.335
10085TIP3    H230199   3.543   3.192   5.185
10086TIP3   OH230200   1.389   2.917   1.726
10086TIP3    H130201   1.306   2.884   1.762
10086TIP3    H230202   1.454   2.851   1.749
10087TIP3   OH230203   4.807   6.576   5.247
10087TIP3    H130204   4.865   6.521   5.195
10087TIP3    H230205   4.853   6.659   5.254
10088TIP3   OH230206   5.382   4.727   6.042
10088TIP3    H130207   5.398   4.820   6.026
10088TIP3    H230208   5.402   4.685   5.958
10089TIP3   OH230209   4.371   2.385   2.093
10089TIP3    H130210   4.466   2.393   2.079
10089TIP3    H230211   4.346   2.309   2.041
10090TIP3   OH230212   3.102   3.409   0.029
10090TIP3    H130213   3.007   3.421   0.035
10090TIP3    H230214   3.136   3.498   0.017
10091TIP3   OH230215   5.450   6.623   4.645
10091TIP3    H130216   5.385   6.650   4.709
10091TIP3    H230217   5.449   6.693   4.579
10092TIP3   OH230218   5.263   4.763   0.816
10092TIP3    H130219   5.246   4.694   0.880
10092TIP3    H230220   5.176   4.786   0.783
10093TIP3   OH230221   1.491   1.449   6.512
10093TIP3    H130222   1.550   1.393   6.561
10093TIP3    H230223   1.547   1.490   6.446
10094TIP3   OH230224   4.274   6.651   0.411
10094TIP3    H130225   4.296   6.645   0.318
10094TIP3    H230226   4.192   6.700   0.413
10095TIP3   OH230227   2.292   2.888   0.634
10095TIP3    H130228   2.227   2.944   0.592
10095TIP3    H230229   2.363   2.948   0.658
10096TIP3   OH230230   0.868   5.303   4.807
10096TIP3    H130231   0.848   5.360   4.733
10096TIP3    H230232   0.825   5.220   4.785
10097TIP3   OH230233   4.662   1.766   0.850
10097TIP3    H130234   4.669   1.744   0.943
10097TIP3    H230235   4.613   1.849   0.849
10098TIP3   OH230236   1.905   5.479   5.421
10098TIP3    H130237   1.868   5.555   5.376
10098TIP3    H230238   1.958   5.516   5.491
10099TIP3   OH230239   2.804   4.264   6.332
10099TIP3    H130240   2.880   4.206   6.336
10099TIP3    H230241   2.841   4.351   6.318
10100TIP3   OH230242   2.131   3.657   2.479
10100TIP3    H130243   2.213   3.640   2.432
10100TIP3    H230244   2.109   3.574   2.520
10101TIP3   OH230245   3.710   5.436   6.435
10101TIP3    H130246   3.781   5.448   6.372
10101TIP3    H230247   3.751   5.449   6.521
10102TIP3   OH230248   2.199   7.166   3.353
10102TIP3    H130249   2.234   7.183   3.441
10102TIP3    H230250   2.149   7.245   3.332
10103TIP3   OH230251   5.357   5.836   5.654
10103TIP3    H130252   5.405   5.900   5.602
10103TIP3    H230253   5.302   5.789   5.591
10104TIP3   OH230254   2.176   7.133   4.610
10104TIP3    H130255   2.251   7.131   4.550
10104TIP3    H230256   2.173   7.044   4.646
10105TIP3   OH230257   3.654   5.523   4.919
10105TIP3    H130258   3.743   5.500   4.894
10105TIP3    H230259   3.599   5.467   4.864
10106TIP3   OH230260   0.224   6.580   0.433
10106TIP3    H130261   0.211   6.626   0.516
10106TIP3    H230262   0.253   6.492   0.458
10107TIP3   OH230263   3.491   1.109   1.018
10107TIP3    H130264   3.508   1.201   1.036
10107TIP3    H230265   3.572   1.065   1.042
10108TIP3   OH230266   1.268   2.467   5.421
10108TIP3    H130267   1.266   2.539   5.483
10108TIP3    H230268   1.309   2.503   5.342
10109TIP3   OH230269   7.825   1.788   4.137
10109TIP3    H130270   7.789   1.877   4.136
10109TIP3    H230271   7.916   1.799   4.162
10110TIP3   OH230272   7.985   3.033   6.056
10110TIP3    H130273   7.921   2.963   6.068
10110TIP3    H230274   7.964   3.070   5.970
10111TIP3   OH230275   7.221   1.028   3.666
10111TIP3    H130276   7.187   1.035   3.755
10111TIP3    H230277   7.150   0.989   3.616
10112TIP3   OH230278   2.243   1.554   1.675
10112TIP3    H130279   2.188   1.563   1.753
10112TIP3    H230280   2.191   1.594   1.605
10113TIP3   OH230281   4.148   1.107   0.295
10113TIP3    H130282   4.100   1.104   0.378
10113TIP3    H230283   4.080   1.124   0.229
10114TIP3   OH230284   5.861   5.952   6.547
10114TIP3    H130285   5.914   5.923   6.473
10114TIP3    H230286   5.924   5.994   6.606
10115TIP3   OH230287   7.046   6.777   5.093
10115TIP3    H130288   7.024   6.718   5.021
10115TIP3    H230289   7.132   6.748   5.123
10116TIP3   OH230290   7.349   3.730   5.365
10116TIP3    H130291   7.414   3.675   5.321
10116TIP3    H230292   7.340   3.807   5.308
10117TIP3   OH230293   1.958   6.710   3.184
10117TIP3    H130294   1.898   6.649   3.139
10117TIP3    H230295   1.901   6.782   3.212
10118TIP3   OH230296   3.913   1.212   4.497
10118TIP3    H130297   3.836   1.208   4.440
10118TIP3    H230298   3.987   1.215   4.436
10119TIP3   OH230299   2.062   1.978   1.914
10119TIP3    H130300   2.011   1.912   1.867
10119TIP3    H230301   2.127   2.009   1.851
10120TIP3   OH230302   2.889   2.722   6.253
10120TIP3    H130303   2.908   2.647   6.311
10120TIP3    H230304   2.907   2.690   6.165
10121TIP3   OH230305   2.555   4.578   0.180
10121TIP3    H130306   2.574   4.599   0.272
10121TIP3    H230307   2.515   4.491   0.183
10122TIP3   OH230308   2.981   3.174   3.512
10122TIP3    H130309   2.989   3.199   3.420
10122TIP3    H230310   3.063   3.204   3.552
10123TIP3   OH230311   6.041   2.123   5.377
10123TIP3    H130312   5.980   2.049   5.378
10123TIP3    H230313   6.036   2.158   5.288
10124TIP3   OH230314   3.222   5.417   5.891
10124TIP3    H130315   3.243   5.370   5.811
10124TIP3    H230316   3.286   5.488   5.895
10125TIP3   OH230317   5.336   2.753   6.387
10125TIP3    H130318   5.276   2.684   6.360
10125TIP3    H230319   5.408   2.749   6.324
10126TIP3   OH230320   7.092   3.002   6.079
10126TIP3    H130321   7.087   3.082   6.131
10126TIP3    H230322   7.102   3.032   5.988
10127TIP3   OH230323   7.313   4.740   2.868
10127TIP3    H130324   7.308   4.835   2.853
10127TIP3    H230325   7.393   4.728   2.919
10128TIP3   OH230326   1.036   1.709   0.309
10128TIP3    H130327   1.100   1.779   0.292
10128TIP3    H230328   0.990   1.737   0.388
10129TIP3   OH230329   5.305   0.251   3.597
10129TIP3    H130330   5.321   0.203   3.678
10129TIP3    H230331   5.388   0.243   3.548
10130TIP3   OH230332   3.296   6.271   5.548
10130TIP3    H130333   3.276   6.362   5.524
10130TIP3    H230334   3.292   6.223   5.465
10131TIP3   OH230335   4.688   4.094   6.270
10131TIP3    H130336   4.721   4.061   6.187
10131TIP3    H230337   4.623   4.030   6.298
10132TIP3   OH230338   7.972   4.885   0.871
10132TIP3    H130339   7.890   4.929   0.896
10132TIP3    H230340   8.041   4.938   0.911
10133TIP3   OH230341   6.562   3.366   3.651
10133TIP3    H130342   6.517   3.310   3.588
10133TIP3    H230343   6.518   3.450   3.644
10134TIP3   OH230344   4.324   1.326   0.323
10134TIP3    H130345   4.270   1.400   0.351
10134TIP3    H230346   4.266   1.251   0.329
10135TIP3   OH230347   6.133   6.237   5.180
10135TIP3    H130348   6.199   6.260   5.246
10135TIP3    H230349   6.165   6.278   5.099
10136TIP3   OH230350   1.120   7.364   3.390
10136TIP3    H130351   1.174   7.439   3.367
10136TIP3    H230352   1.182   7.290   3.392
10137TIP3   OH230353   1.874   4.171   5.919
10137TIP3    H130354   1.783   4.193   5.900
10137TIP3    H230355   1.869   4.086   5.963
10138TIP3   OH230356   4.354   7.419   0.237
10138TIP3    H130357   4.364   7.456   0.324
10138TIP3    H230358   4.260   7.424   0.219
10139TIP3   OH230359   7.752   7.254   0.490
10139TIP3    H130360   7.753   7.237   0.396
10139TIP3    H230361   7.664   7.229   0.517
10140TIP3   OH230362   1.982   1.076   2.999
10140TIP3    H130363   1.965   0.987   2.970
10140TIP3    H230364   2.039   1.113   2.932
10141TIP3   OH230365   3.299   7.609   4.311
10141TIP3    H130366   3.219   7.595   4.360
10141TIP3    H230367   3.296   7.700   4.285
10142TIP3   OH230368   5.606   5.070   0.573
10142TIP3    H130369   5.622   5.164   0.588
10142TIP3    H230370   5.675   5.027   0.623
10143TIP3   OH230371   0.838   5.681   5.918
10143TIP3    H130372   0.905   5.643   5.975
10143TIP3    H230373   0.780   5.608   5.897
10144TIP3   OH230374   7.654   4.395   2.282
10144TIP3    H130375   7.657   4.473   2.337
10144TIP3    H230376   7.744   4.381   2.254
10145TIP3   OH230377   8.257   6.414   4.157
10145TIP3    H130378   8.188   6.352   4.136
10145TIP3    H230379   8.335   6.379   4.115
10146TIP3   OH230380   6.019   3.846   0.477
10146TIP3    H130381   6.084   3.787   0.516
10146TIP3    H230382   6.046   3.933   0.506
10147TIP3   OH230383   7.101   3.457   2.264
10147TIP3    H130384   7.123   3.370   2.297
10147TIP3    H230385   7.175   3.480   2.208
10148TIP3   OH230386   6.047   0.260   6.315
10148TIP3    H130387   6.121   0.278   6.374
10148TIP3    H230388   6.046   0.165   6.308
10149TIP3   OH230389   0.288   2.060   4.909
10149TIP3    H130390   0.298   1.979   4.861
10149TIP3    H230391   0.368   2.067   4.962
10150TIP3   OH230392   3.434   2.776   5.337
10150TIP3    H130393   3.495   2.794   5.408
10150TIP3    H230394   3.481   2.802   5.258
10151TIP3   OH230395   7.148   5.529   1.621
10151TIP3    H130396   7.129   5.460   1.557
10151TIP3    H230397   7.234   5.506   1.655
10152TIP3   OH230398   4.184   5.130   3.965
10152TIP3    H130399   4.113   5.100   4.021
10152TIP3    H230400   4.238   5.052   3.949
10153TIP3   OH230401   6.855   3.588   5.926
10153TIP3    H130402   6.947   3.613   5.935
10153TIP3    H230403   6.821   3.648   5.858
10154TIP3   OH230404   1.293   3.520   2.142
10154TIP3    H130405   1.233   3.538   2.214
10154TIP3    H230406   1.343   3.600   2.131
10155TIP3   OH230407   5.851   7.280   5.746
10155TIP3    H130408   5.943   7.270   5.769
10155TIP3    H230409   5.829   7.369   5.774
10156TIP3   OH230410   2.779   1.190   3.670
10156TIP3    H130411   2.754   1.241   3.593
10156TIP3    H230412   2.834   1.249   3.721
10157TIP3   OH230413   5.202   2.866   5.985
10157TIP3    H130414   5.271   2.882   5.921
10157TIP3    H230415   5.192   2.949   6.031
10158TIP3   OH230416   0.831   1.119   6.751
10158TIP3    H130417   0.862   1.189   6.692
10158TIP3    H230418   0.757   1.159   6.797
10159TIP3   OH230419   5.933   1.895   2.394
10159TIP3    H130420   5.966   1.981   2.418
10159TIP3    H230421   5.998   1.859   2.334
10160TIP3   OH230422   7.459   0.322   2.514
10160TIP3    H130423   7.430   0.284   2.597
10160TIP3    H230424   7.409   0.403   2.505
10161TIP3   OH230425   8.031   3.184   2.211
10161TIP3    H130426   8.063   3.235   2.136
10161TIP3    H230427   7.952   3.141   2.179
10162TIP3   OH230428   2.327   6.662   1.466
10162TIP3    H130429   2.401   6.718   1.443
10162TIP3    H230430   2.342   6.637   1.557
10163TIP3   OH230431   2.506   4.592   1.468
10163TIP3    H130432   2.501   4.642   1.386
10163TIP3    H230433   2.442   4.522   1.456
10164TIP3   OH230434   2.665   2.115   6.686
10164TIP3    H130435   2.745   2.070   6.658
10164TIP3    H230436   2.640   2.072   6.767
10165TIP3   OH230437   2.276   4.682   2.267
10165TIP3    H130438   2.207   4.667   2.203
10165TIP3    H230439   2.230   4.708   2.347
10166TIP3   OH230440   1.933   2.501   4.303
10166TIP3    H130441   1.854   2.460   4.267
10166TIP3    H230442   1.908   2.528   4.391
10167TIP3   OH230443   3.449   0.973   2.416
10167TIP3    H130444   3.494   1.028   2.352
10167TIP3    H230445   3.494   0.991   2.499
10168TIP3   OH230446   3.630   0.437   5.895
10168TIP3    H130447   3.650   0.476   5.980
10168TIP3    H230448   3.572   0.364   5.915
10169TIP3   OH230449   6.978   5.905   2.611
10169TIP3    H130450   7.074   5.914   2.617
10169TIP3    H230451   6.959   5.911   2.517
10170TIP3   OH230452   7.509   2.836   5.633
10170TIP3    H130453   7.424   2.799   5.609
10170TIP3    H230454   7.567   2.760   5.636
10171TIP3   OH230455   3.948   5.309   6.003
10171TIP3    H130456   3.928   5.255   5.927
10171TIP3    H230457   4.021   5.364   5.975
10172TIP3   OH230458   1.717   3.300   1.865
10172TIP3    H130459   1.680   3.366   1.923
10172TIP3    H230460   1.642   3.266   1.815
10173TIP3   OH230461   0.791   0.108   5.585
10173TIP3    H130462   0.734   0.045   5.628
10173TIP3    H230463   0.871   0.108   5.638
10174TIP3   OH230464   8.033   0.967   0.927
10174TIP3    H130465   7.983   0.911   0.869
10174TIP3    H230466   8.057   0.911   1.001
10175TIP3   OH230467   4.169   2.674   3.410
10175TIP3    H130468   4.184   2.757   3.365
10175TIP3    H230469   4.170   2.697   3.503
10176TIP3   OH230470  -0.012   5.760   2.364
10176TIP3    H130471   0.026   5.690   2.418
10176TIP3    H230472   0.034   5.839   2.393
10177TIP3   OH230473   7.712   2.052   1.587
10177TIP3    H130474   7.795   2.008   1.602
10177TIP3    H230475   7.679   2.073   1.674
10178TIP3   OH230476   3.993   3.181   4.027
10178TIP3    H130477   3.956   3.143   3.948
10178TIP3    H230478   4.043   3.256   3.996
10179TIP3   OH230479   2.406   1.166   1.493
10179TIP3    H130480   2.397   1.188   1.586
10179TIP3    H230481   2.320   1.184   1.455
10180TIP3   OH230482   5.788   5.988   2.923
10180TIP3    H130483   5.702   6.022   2.949
10180TIP3    H230484   5.768   5.923   2.856
10181TIP3   OH230485   6.802   2.738   3.007
10181TIP3    H130486   6.711   2.708   3.002
10181TIP3    H230487   6.840   2.712   2.922
10182TIP3   OH230488   0.579   2.003   3.997
10182TIP3    H130489   0.512   1.936   3.988
10182TIP3    H230490   0.531   2.083   4.017
10183TIP3   OH230491   4.637   1.925   4.867
10183TIP3    H130492   4.590   1.958   4.790
10183TIP3    H230493   4.720   1.892   4.832
10184TIP3   OH230494   8.172   0.072   0.535
10184TIP3    H130495   8.220   0.148   0.502
10184TIP3    H230496   8.118   0.044   0.461
10185TIP3   OH230497   4.830   0.905   2.275
10185TIP3    H130498   4.872   0.819   2.265
10185TIP3    H230499   4.740   0.884   2.300
10186TIP3   OH230500   4.040   2.827   5.070
10186TIP3    H130501   4.056   2.738   5.102
10186TIP3    H230502   3.945   2.833   5.058
10187TIP3   OH230503   7.560   7.694   1.749
10187TIP3    H130504   7.625   7.683   1.818
10187TIP3    H230505   7.536   7.604   1.723
10188TIP3   OH230506   2.058   4.096   3.390
10188TIP3    H130507   2.072   4.060   3.302
10188TIP3    H230508   2.044   4.020   3.445
10189TIP3   OH230509   2.635   3.599   0.652
10189TIP3    H130510   2.700   3.640   0.595
10189TIP3    H230511   2.649   3.641   0.737
10190TIP3   OH230512   3.319   3.097   4.603
10190TIP3    H130513   3.298   3.176   4.553
10190TIP3    H230514   3.235   3.066   4.637
10191TIP3   OH230515   1.865   7.141   6.688
10191TIP3    H130516   1.918   7.215   6.657
10191TIP3    H230517   1.897   7.066   6.638
10192TIP3   OH230518   5.141   1.121   4.061
10192TIP3    H130519   5.232   1.100   4.078
10192TIP3    H230520   5.105   1.147   4.146
10193TIP3   OH230521   0.287   2.554   4.815
10193TIP3    H130522   0.211   2.610   4.827
10193TIP3    H230523   0.269   2.476   4.868
10194TIP3   OH230524   6.609   3.490   1.555
10194TIP3    H130525   6.623   3.553   1.483
10194TIP3    H230526   6.673   3.516   1.621
10195TIP3   OH230527   6.105   1.375   0.528
10195TIP3    H130528   6.118   1.292   0.574
10195TIP3    H230529   6.010   1.383   0.519
10196TIP3   OH230530   0.300   4.288   2.812
10196TIP3    H130531   0.295   4.370   2.860
10196TIP3    H230532   0.359   4.233   2.863
10197TIP3   OH230533   4.841   1.453   0.313
10197TIP3    H130534   4.752   1.441   0.347
10197TIP3    H230535   4.871   1.535   0.353
10198TIP3   OH230536   5.635   2.931   6.082
10198TIP3    H130537   5.582   2.987   6.026
10198TIP3    H230538   5.687   2.879   6.020
10199TIP3   OH230539   7.785   2.070   4.113
10199TIP3    H130540   7.745   2.064   4.026
10199TIP3    H230541   7.772   2.161   4.139
10200TIP3   OH230542   7.481   5.691   2.949
10200TIP3    H130543   7.457   5.739   3.028
10200TIP3    H230544   7.496   5.601   2.979
10201TIP3   OH230545   3.797   2.849   0.163
10201TIP3    H130546   3.763   2.927   0.119
10201TIP3    H230547   3.775   2.777   0.103
10202TIP3   OH230548   1.374   3.970   5.730
10202TIP3    H130549   1.316   4.045   5.739
10202TIP3    H230550   1.372   3.927   5.816
10203TIP3   OH230551   7.544   5.375   2.496
10203TIP3    H130552   7.636   5.369   2.469
10203TIP3    H230553   7.541   5.450   2.555
10204TIP3   OH230554   8.221   2.679   5.193
10204TIP3    H130555   8.281   2.636   5.254
10204TIP3    H230556   8.135   2.642   5.215
10205TIP3   OH230557   0.644   6.193   3.909
10205TIP3    H130558   0.659   6.198   4.003
10205TIP3    H230559   0.677   6.277   3.875
10206TIP3   OH230560   3.057   3.016   0.365
10206TIP3    H130561   3.144   2.984   0.341
10206TIP3    H230562   3.000   2.984   0.296
10207TIP3   OH230563   1.485   0.885   3.651
10207TIP3    H130564   1.464   0.792   3.654
10207TIP3    H230565   1.409   0.925   3.609
10208TIP3   OH230566   3.936   7.497   2.450
10208TIP3    H130567   3.921   7.564   2.383
10208TIP3    H230568   3.983   7.543   2.520
10209TIP3   OH230569   3.740   5.082   0.599
10209TIP3    H130570   3.770   5.145   0.533
10209TIP3    H230571   3.670   5.128   0.646
10210TIP3   OH230572   8.113   4.513   4.969
10210TIP3    H130573   8.190   4.477   4.925
10210TIP3    H230574   8.134   4.606   4.980
10211TIP3   OH230575   1.484   2.636   4.933
10211TIP3    H130576   1.534   2.686   4.868
10211TIP3    H230577   1.469   2.551   4.891
10212TIP3   OH230578   4.785   5.365   1.997
10212TIP3    H130579   4.775   5.301   1.926
10212TIP3    H230580   4.855   5.329   2.052
10213TIP3   OH230581   1.116   1.544   1.552
10213TIP3    H130582   1.122   1.503   1.466
10213TIP3    H230583   1.067   1.482   1.605
10214TIP3   OH230584   1.506   3.759   6.691
10214TIP3    H130585   1.550   3.812   6.624
10214TIP3    H230586   1.570   3.753   6.762
10215TIP3   OH230587   5.798   1.379   0.497
10215TIP3    H130588   5.782   1.426   0.415
10215TIP3    H230589   5.721   1.400   0.551
10216TIP3   OH230590   7.839   7.674   2.520
10216TIP3    H130591   7.912   7.627   2.561
10216TIP3    H230592   7.809   7.616   2.450
10217TIP3   OH230593   4.048   1.025   5.849
10217TIP3    H130594   4.091   0.950   5.810
10217TIP3    H230595   4.003   0.991   5.926
10218TIP3   OH230596   4.020   1.465   4.958
10218TIP3    H130597   4.013   1.415   4.877
10218TIP3    H230598   4.100   1.433   4.999
10219TIP3   OH230599   0.742   0.453   2.488
10219TIP3    H130600   0.833   0.470   2.461
10219TIP3    H230601   0.706   0.399   2.418
10220TIP3   OH230602   6.787   5.843   2.075
10220TIP3    H130603   6.803   5.830   1.982
10220TIP3    H230604   6.693   5.860   2.081
10221TIP3   OH230605   6.817   7.587   2.434
10221TIP3    H130606   6.786   7.659   2.379
10221TIP3    H230607   6.888   7.546   2.383
10222TIP3   OH230608   2.477   0.660   0.411
10222TIP3    H130609   2.418   0.735   0.407
10222TIP3    H230610   2.511   0.651   0.322
10223TIP3   OH230611   3.119   6.066   0.299
10223TIP3    H130612   3.065   6.049   0.376
10223TIP3    H230613   3.200   6.104   0.335
10224TIP3   OH230614   4.817   2.074   3.822
10224TIP3    H130615   4.899   2.080   3.872
10224TIP3    H230616   4.760   2.018   3.875
10225TIP3   OH230617   7.394   6.456   4.253
10225TIP3    H130618   7.408   6.493   4.340
10225TIP3    H230619   7.481   6.429   4.225
10226TIP3   OH230620   7.087   5.252   5.290
10226TIP3    H130621   7.137   5.331   5.308
10226TIP3    H230622   7.042   5.232   5.372
10227TIP3   OH230623   0.356   4.555   5.683
10227TIP3    H130624   0.318   4.615   5.747
10227TIP3    H230625   0.434   4.601   5.651
10228TIP3   OH230626   4.913   4.751   2.746
10228TIP3    H130627   4.821   4.744   2.723
10228TIP3    H230628   4.958   4.764   2.663
10229TIP3   OH230629   4.127   4.400   2.481
10229TIP3    H130630   4.192   4.348   2.432
10229TIP3    H230631   4.121   4.482   2.432
10230TIP3   OH230632   3.145   4.508   1.686
10230TIP3    H130633   3.083   4.507   1.613
10230TIP3    H230634   3.204   4.435   1.668
10231TIP3   OH230635   4.068   2.626   5.833
10231TIP3    H130636   4.030   2.680   5.903
10231TIP3    H230637   4.028   2.540   5.844
10232TIP3   OH230638   0.115   6.475   0.980
10232TIP3    H130639   0.177   6.404   0.966
10232TIP3    H230640   0.141   6.514   1.064
10233TIP3   OH230641   5.843   4.353   4.718
10233TIP3    H130642   5.763   4.301   4.719
10233TIP3    H230643   5.914   4.289   4.718
10234TIP3   OH230644   5.823   3.048   5.182
10234TIP3    H130645   5.784   3.085   5.261
10234TIP3    H230646   5.899   3.103   5.165
10235TIP3   OH230647   1.926   4.367   0.880
10235TIP3    H130648   1.838   4.365   0.842
10235TIP3    H230649   1.954   4.459   0.871
10236TIP3   OH230650   7.916   7.410   3.999
10236TIP3    H130651   7.873   7.358   4.067
10236TIP3    H230652   7.918   7.499   4.034
10237TIP3   OH230653   0.633   1.893   5.440
10237TIP3    H130654   0.631   1.931   5.353
10237TIP3    H230655   0.701   1.942   5.486
10238TIP3   OH230656   1.230   2.728   1.283
10238TIP3    H130657   1.172   2.805   1.281
10238TIP3    H230658   1.247   2.709   1.191
10239TIP3   OH230659   7.804   0.534   1.604
10239TIP3    H130660   7.834   0.443   1.599
10239TIP3    H230661   7.814   0.558   1.696
10240TIP3   OH230662   7.925   5.462   4.815
10240TIP3    H130663   7.934   5.550   4.851
10240TIP3    H230664   7.962   5.468   4.727
10241TIP3   OH230665   0.986   7.794   3.681
10241TIP3    H130666   0.985   7.749   3.765
10241TIP3    H230667   1.053   7.861   3.690
10242TIP3   OH230668   2.535   0.035   2.388
10242TIP3    H130669   2.451   0.008   2.425
10242TIP3    H230670   2.586   0.065   2.464
10243TIP3   OH230671   4.816   0.977   0.914
10243TIP3    H130672   4.744   1.038   0.927
10243TIP3    H230673   4.869   1.017   0.845
10244TIP3   OH230674   5.877   0.506   4.032
10244TIP3    H130675   5.861   0.413   4.011
10244TIP3    H230676   5.792   0.539   4.060
10245TIP3   OH230677   1.957   3.344   3.969
10245TIP3    H130678   1.944   3.322   3.877
10245TIP3    H230679   2.035   3.296   3.995
10246TIP3   OH230680   4.725   5.693   3.230
10246TIP3    H130681   4.668   5.647   3.168
10246TIP3    H230682   4.787   5.741   3.175
10247TIP3   OH230683   5.840   2.112   1.926
10247TIP3    H130684   5.775   2.102   1.856
10247TIP3    H230685   5.866   2.204   1.921
10248TIP3   OH230686   5.385   2.699   4.622
10248TIP3    H130687   5.402   2.633   4.555
10248TIP3    H230688   5.313   2.664   4.673
10249TIP3   OH230689   1.228   0.079   4.732
10249TIP3    H130690   1.202   0.164   4.696
10249TIP3    H230691   1.302   0.052   4.678
10250TIP3   OH230692   1.089   7.463   4.112
10250TIP3    H130693   1.154   7.448   4.181
10250TIP3    H230694   1.061   7.375   4.086
10251TIP3   OH230695   6.506   3.957   6.498
10251TIP3    H130696   6.521   3.925   6.409
10251TIP3    H230697   6.413   3.980   6.500
10252TIP3   OH230698   1.766   2.195   4.942
10252TIP3    H130699   1.701   2.129   4.917
10252TIP3    H230700   1.751   2.208   5.036
10253TIP3   OH230701   1.337   1.102   0.347
10253TIP3    H130702   1.318   1.124   0.438
10253TIP3    H230703   1.288   1.022   0.331
10254TIP3   OH230704   2.957   0.810   0.026
10254TIP3    H130705   2.895   0.880   0.006
10254TIP3    H230706   2.908   0.729   0.011
10255TIP3   OH230707   2.016   4.684   0.896
10255TIP3    H130708   2.086   4.746   0.919
10255TIP3    H230709   1.935   4.736   0.904
10256TIP3   OH230710   0.619   1.033   6.235
10256TIP3    H130711   0.569   1.020   6.154
10256TIP3    H230712   0.585   0.967   6.295
10257TIP3   OH230713   2.097   5.467   2.117
10257TIP3    H130714   2.013   5.440   2.081
10257TIP3    H230715   2.116   5.551   2.074
10258TIP3   OH230716   5.086   6.630   0.789
10258TIP3    H130717   5.087   6.659   0.880
10258TIP3    H230718   5.147   6.556   0.787
10259TIP3   OH230719   0.748   4.851   2.976
10259TIP3    H130720   0.836   4.865   3.010
10259TIP3    H230721   0.757   4.866   2.881
10260TIP3   OH230722   4.757   5.667   4.179
10260TIP3    H130723   4.759   5.708   4.092
10260TIP3    H230724   4.667   5.680   4.210
10261TIP3   OH230725   6.320   2.112   1.874
10261TIP3    H130726   6.235   2.067   1.873
10261TIP3    H230727   6.299   2.205   1.880
10262TIP3   OH230728   6.782   0.453   2.318
10262TIP3    H130729   6.859   0.503   2.291
10262TIP3    H230730   6.810   0.361   2.311
10263TIP3   OH230731   7.158   5.431   0.999
10263TIP3    H130732   7.174   5.488   1.074
10263TIP3    H230733   7.063   5.428   0.991
10264TIP3   OH230734   0.300   4.570   4.498
10264TIP3    H130735   0.262   4.639   4.552
10264TIP3    H230736   0.341   4.616   4.425
10265TIP3   OH230737   5.284   7.276   3.983
10265TIP3    H130738   5.237   7.249   3.904
10265TIP3    H230739   5.246   7.224   4.053
10266TIP3   OH230740   7.783   0.827   3.442
10266TIP3    H130741   7.846   0.899   3.434
10266TIP3    H230742   7.798   0.793   3.531
10267TIP3   OH230743   5.714   5.041   1.969
10267TIP3    H130744   5.619   5.051   1.976
10267TIP3    H230745   5.740   5.106   1.903
10268TIP3   OH230746   7.546   1.541   6.565
10268TIP3    H130747   7.539   1.628   6.604
10268TIP3    H230748   7.456   1.508   6.562
10269TIP3   OH230749   7.773   1.380   4.315
10269TIP3    H130750   7.866   1.368   4.333
10269TIP3    H230751   7.766   1.378   4.220
10270TIP3   OH230752   3.326   4.706   2.396
10270TIP3    H130753   3.259   4.644   2.368
10270TIP3    H230754   3.293   4.742   2.478
10271TIP3   OH230755   0.406   5.493   0.801
10271TIP3    H130756   0.371   5.421   0.853
10271TIP3    H230757   0.329   5.535   0.763
10272TIP3   OH230758   1.674   4.813   3.895
10272TIP3    H130759   1.631   4.887   3.938
10272TIP3    H230760   1.603   4.755   3.868
10273TIP3   OH230761   0.715   2.027   2.201
10273TIP3    H130762   0.681   2.056   2.286
10273TIP3    H230763   0.779   1.959   2.223
10274TIP3   OH230764   8.150   0.544   2.709
10274TIP3    H130765   8.141   0.535   2.804
10274TIP3    H230766   8.241   0.568   2.695
10275TIP3   OH230767   0.139   3.799   3.761
10275TIP3    H130768   0.120   3.709   3.786
10275TIP3    H230769   0.160   3.793   3.667
10276TIP3   OH230770   5.351   4.049   5.124
10276TIP3    H130771   5.383   4.014   5.040
10276TIP3    H230772   5.313   4.133   5.101
10277TIP3   OH230773   2.221   2.959   6.159
10277TIP3    H130774   2.262   2.904   6.225
10277TIP3    H230775   2.127   2.952   6.175
10278TIP3   OH230776   2.525   7.539   0.383
10278TIP3    H130777   2.569   7.607   0.434
10278TIP3    H230778   2.478   7.587   0.315
10279TIP3   OH230779   3.734   3.077   0.039
10279TIP3    H130780   3.808   3.096   0.096
10279TIP3    H230781   3.720   3.157  -0.011
10280TIP3   OH230782   4.100   5.708   5.785
10280TIP3    H130783   4.031   5.643   5.773
10280TIP3    H230784   4.079   5.778   5.723
10281TIP3   OH230785   2.735   7.684   2.696
10281TIP3    H130786   2.641   7.677   2.684
10281TIP3    H230787   2.753   7.778   2.701
10282TIP3   OH230788   1.222   0.774   6.296
10282TIP3    H130789   1.185   0.817   6.219
10282TIP3    H230790   1.160   0.792   6.366
10283TIP3   OH230791   5.774   1.337   4.447
10283TIP3    H130792   5.757   1.426   4.478
10283TIP3    H230793   5.693   1.290   4.466
10284TIP3   OH230794   6.817   1.647   0.845
10284TIP3    H130795   6.853   1.723   0.891
10284TIP3    H230796   6.755   1.608   0.908
10285TIP3   OH230797   7.705   1.414   6.064
10285TIP3    H130798   7.796   1.440   6.078
10285TIP3    H230799   7.695   1.335   6.118
10286TIP3   OH230800   6.616   2.402   5.257
10286TIP3    H130801   6.671   2.447   5.193
10286TIP3    H230802   6.610   2.462   5.331
10287TIP3   OH230803   0.480   6.183   2.442
10287TIP3    H130804   0.436   6.102   2.465
10287TIP3    H230805   0.411   6.249   2.442
10288TIP3   OH230806   3.218   5.172   6.665
10288TIP3    H130807   3.207   5.088   6.709
10288TIP3    H230808   3.132   5.214   6.669
10289TIP3   OH230809   5.051   7.290   5.751
10289TIP3    H130810   5.037   7.203   5.789
10289TIP3    H230811   4.967   7.334   5.763
10290TIP3   OH230812   0.389   2.939   1.043
10290TIP3    H130813   0.330   2.993   0.991
10290TIP3    H230814   0.441   2.891   0.980
10291TIP3   OH230815   2.396   1.648   0.758
10291TIP3    H130816   2.381   1.739   0.784
10291TIP3    H230817   2.435   1.654   0.671
10292TIP3   OH230818   6.374   0.760   2.628
10292TIP3    H130819   6.431   0.726   2.697
10292TIP3    H230820   6.287   0.763   2.667
10293TIP3   OH230821   0.260   7.735   4.211
10293TIP3    H130822   0.286   7.761   4.299
10293TIP3    H230823   0.315   7.787   4.153
10294TIP3   OH230824   8.214   3.263   4.605
10294TIP3    H130825   8.144   3.321   4.634
10294TIP3    H230826   8.258   3.312   4.535
10295TIP3   OH230827   2.005   7.496   6.334
10295TIP3    H130828   1.942   7.475   6.265
10295TIP3    H230829   2.040   7.412   6.362
10296TIP3   OH230830   3.483   2.726   5.906
10296TIP3    H130831   3.445   2.790   5.846
10296TIP3    H230832   3.407   2.684   5.948
10297TIP3   OH230833   5.558   3.521   1.925
10297TIP3    H130834   5.622   3.457   1.891
10297TIP3    H230835   5.611   3.582   1.976
10298TIP3   OH230836   3.154   3.228   4.199
10298TIP3    H130837   3.147   3.159   4.133
10298TIP3    H230838   3.150   3.182   4.283
10299TIP3   OH230839   4.660   5.446   1.428
10299TIP3    H130840   4.729   5.431   1.493
10299TIP3    H230841   4.689   5.397   1.351
10300TIP3   OH230842   1.396   2.383   4.827
10300TIP3    H130843   1.308   2.367   4.793
10300TIP3    H230844   1.434   2.295   4.838
10301TIP3   OH230845   3.403   6.860   5.653
10301TIP3    H130846   3.318   6.863   5.696
10301TIP3    H230847   3.434   6.771   5.669
10302TIP3   OH230848   7.923   1.032   2.787
10302TIP3    H130849   7.991   1.066   2.730
10302TIP3    H230850   7.841   1.064   2.749
10303TIP3   OH230851   2.391   7.809   4.377
10303TIP3    H130852   2.336   7.745   4.421
10303TIP3    H230853   2.473   7.764   4.361
10304TIP3   OH230854   2.157   3.729   3.972
10304TIP3    H130855   2.226   3.727   3.906
10304TIP3    H230856   2.177   3.654   4.029
10305TIP3   OH230857   3.375   6.884   2.584
10305TIP3    H130858   3.299   6.913   2.634
10305TIP3    H230859   3.409   6.964   2.543
10306TIP3   OH230860   0.315   6.484   1.889
10306TIP3    H130861   0.302   6.557   1.949
10306TIP3    H230862   0.393   6.507   1.839
10307TIP3   OH230863   5.083   3.889   0.467
10307TIP3    H130864   5.022   3.868   0.537
10307TIP3    H230865   5.035   3.952   0.412
10308TIP3   OH230866   7.638   5.724   5.229
10308TIP3    H130867   7.563   5.711   5.287
10308TIP3    H230868   7.608   5.693   5.143
10309TIP3   OH230869   6.805   5.591   3.300
10309TIP3    H130870   6.839   5.520   3.246
10309TIP3    H230871   6.877   5.654   3.306
10310TIP3   OH230872   6.371   0.066   6.287
10310TIP3    H130873   6.449   0.012   6.296
10310TIP3    H230874   6.310   0.011   6.238
10311TIP3   OH230875   1.444   7.529   4.971
10311TIP3    H130876   1.354   7.556   4.954
10311TIP3    H230877   1.491   7.611   4.985
10312TIP3   OH230878   3.763   7.611   3.549
10312TIP3    H130879   3.748   7.533   3.495
10312TIP3    H230880   3.801   7.675   3.488
10313TIP3   OH230881   2.643   7.470   2.449
10313TIP3    H130882   2.572   7.407   2.453
10313TIP3    H230883   2.723   7.417   2.450
10314TIP3   OH230884   4.135   7.301   3.604
10314TIP3    H130885   4.126   7.302   3.509
10314TIP3    H230886   4.227   7.277   3.619
10315TIP3   OH230887   1.647   0.131   3.005
10315TIP3    H130888   1.556   0.131   2.976
10315TIP3    H230889   1.652   0.202   3.069
10316TIP3   OH230890   1.288   3.560   3.767
10316TIP3    H130891   1.256   3.636   3.718
10316TIP3    H230892   1.266   3.485   3.713
10317TIP3   OH230893   4.535   2.456   2.408
10317TIP3    H130894   4.457   2.404   2.423
10317TIP3    H230895   4.502   2.545   2.392
10318TIP3   OH230896   2.712   0.348   4.062
10318TIP3    H130897   2.786   0.357   4.002
10318TIP3    H230898   2.657   0.423   4.044
10319TIP3   OH230899   7.642   5.021   0.341
10319TIP3    H130900   7.686   5.106   0.351
10319TIP3    H230901   7.549   5.042   0.335
10320TIP3   OH230902   1.806   7.510   4.724
10320TIP3    H130903   1.803   7.454   4.801
10320TIP3    H230904   1.877   7.474   4.671
10321TIP3   OH230905   5.385   7.162   5.520
10321TIP3    H130906   5.402   7.183   5.612
10321TIP3    H230907   5.464   7.115   5.491
10322TIP3   OH230908   4.445   3.065   4.142
10322TIP3    H130909   4.521   3.101   4.097
10322TIP3    H230910   4.399   3.141   4.178
10323TIP3   OH230911   2.115   7.225   2.178
10323TIP3    H130912   2.175   7.300   2.177
10323TIP3    H230913   2.111   7.197   2.087
10324TIP3   OH230914   7.182   1.852   6.514
10324TIP3    H130915   7.189   1.884   6.424
10324TIP3    H230916   7.136   1.923   6.560
10325TIP3   OH230917   2.735   2.503   0.204
10325TIP3    H130918   2.689   2.551   0.273
10325TIP3    H230919   2.678   2.428   0.186
10326TIP3   OH230920   0.896   3.037   1.721
10326TIP3    H130921   0.814   3.029   1.769
10326TIP3    H230922   0.873   3.085   1.641
10327TIP3   OH230923   2.974   7.592   2.824
10327TIP3    H130924   2.995   7.535   2.750
10327TIP3    H230925   2.888   7.629   2.801
10328TIP3   OH230926   7.854   4.007   5.059
10328TIP3    H130927   7.861   4.081   4.998
10328TIP3    H230928   7.791   3.948   5.018
10329TIP3   OH230929   6.647   1.479   4.853
10329TIP3    H130930   6.655   1.513   4.764
10329TIP3    H230931   6.712   1.528   4.904
10330TIP3   OH230932   7.546   0.278   4.762
10330TIP3    H130933   7.506   0.197   4.730
10330TIP3    H230934   7.528   0.278   4.856
10331TIP3   OH230935   3.280   4.360   2.017
10331TIP3    H130936   3.335   4.438   2.019
10331TIP3    H230937   3.288   4.321   2.104
10332TIP3   OH230938   4.633   2.377   3.359
10332TIP3    H130939   4.578   2.308   3.397
10332TIP3    H230940   4.628   2.449   3.422
10333TIP3   OH230941   6.999   5.838   0.597
10333TIP3    H130942   7.004   5.869   0.506
10333TIP3    H230943   7.088   5.808   0.616
10334TIP3   OH230944   0.627   4.037   4.855
10334TIP3    H130945   0.578   3.958   4.832
10334TIP3    H230946   0.716   4.007   4.870
10335TIP3   OH230947   1.576   5.366   0.964
10335TIP3    H130948   1.497   5.372   1.017
10335TIP3    H230949   1.558   5.421   0.888
10336TIP3   OH230950   4.430   2.822   3.422
10336TIP3    H130951   4.375   2.839   3.346
10336TIP3    H230952   4.380   2.857   3.496
10337TIP3   OH230953   8.033   1.637   2.322
10337TIP3    H130954   7.946   1.599   2.335
10337TIP3    H230955   8.017   1.731   2.321
10338TIP3   OH230956   4.717   6.265   0.262
10338TIP3    H130957   4.744   6.254   0.171
10338TIP3    H230958   4.624   6.287   0.258
10339TIP3   OH230959   7.186   5.176   4.267
10339TIP3    H130960   7.193   5.224   4.184
10339TIP3    H230961   7.257   5.212   4.321
10340TIP3   OH230962   1.683   2.556   2.361
10340TIP3    H130963   1.588   2.566   2.355
10340TIP3    H230964   1.706   2.597   2.445
10341TIP3   OH230965   7.103   2.979   4.578
10341TIP3    H130966   7.157   2.994   4.501
10341TIP3    H230967   7.138   3.039   4.644
10342TIP3   OH230968   3.634   1.302   0.158
10342TIP3    H130969   3.599   1.219   0.127
10342TIP3    H230970   3.608   1.365   0.090
10343TIP3   OH230971   4.033   7.659   2.223
10343TIP3    H130972   4.014   7.692   2.135
10343TIP3    H230973   4.129   7.664   2.230
10344TIP3   OH230974   1.764   1.333   2.007
10344TIP3    H130975   1.792   1.422   2.028
10344TIP3    H230976   1.704   1.310   2.078
10345TIP3   OH230977   1.789   2.188   3.773
10345TIP3    H130978   1.810   2.134   3.697
10345TIP3    H230979   1.871   2.234   3.792
10346TIP3   OH230980   5.948   2.002   0.852
10346TIP3    H130981   6.025   2.034   0.898
10346TIP3    H230982   5.952   1.907   0.860
10347TIP3   OH230983   4.416   3.473   2.802
10347TIP3    H130984   4.480   3.544   2.795
10347TIP3    H230985   4.430   3.437   2.890
10348TIP3   OH230986   0.928   5.837   0.709
10348TIP3    H130987   1.005   5.894   0.709
10348TIP3    H230988   0.926   5.800   0.798
10349TIP3   OH230989   1.335   2.520   3.364
10349TIP3    H130990   1.358   2.612   3.354
10349TIP3    H230991   1.239   2.518   3.356
10350TIP3   OH230992   1.642   5.107   2.570
10350TIP3    H130993   1.662   5.150   2.653
10350TIP3    H230994   1.727   5.089   2.531
10351TIP3   OH230995   3.487   1.708   3.123
10351TIP3    H130996   3.465   1.786   3.172
10351TIP3    H230997   3.566   1.675   3.166
10352TIP3   OH230998   5.813   4.613   4.047
10352TIP3    H130999   5.773   4.550   3.988
10352TIP3    H231000   5.739   4.653   4.093
10353TIP3   OH231001   3.399   4.284   4.904
10353TIP3    H131002   3.417   4.375   4.881
10353TIP3    H231003   3.303   4.278   4.904
10354TIP3   OH231004   2.838   3.643   4.467
10354TIP3    H131005   2.916   3.658   4.414
10354TIP3    H231006   2.792   3.727   4.465
10355TIP3   OH231007   3.860   7.452   6.347
10355TIP3    H131008   3.876   7.384   6.281
10355TIP3    H231009   3.947   7.475   6.380
10356TIP3   OH231010   8.132   6.275   0.920
10356TIP3    H131011   8.185   6.198   0.941
10356TIP3    H231012   8.104   6.262   0.830
10357TIP3   OH231013   1.614   1.468   5.372
10357TIP3    H131014   1.649   1.522   5.443
10357TIP3    H231015   1.681   1.474   5.303
10358TIP3   OH231016   1.141   7.355   5.390
10358TIP3    H131017   1.129   7.280   5.448
10358TIP3    H231018   1.205   7.324   5.325
10359TIP3   OH231019   0.429   5.482   0.325
10359TIP3    H131020   0.386   5.563   0.352
10359TIP3    H231021   0.384   5.413   0.373
10360TIP3   OH231022   6.156   1.473   4.324
10360TIP3    H131023   6.215   1.450   4.252
10360TIP3    H231024   6.164   1.568   4.332
10361TIP3   OH231025   7.994   4.906   5.183
10361TIP3    H131026   8.041   4.846   5.126
10361TIP3    H231027   8.031   4.891   5.270
10362TIP3   OH231028   7.006   3.137   0.127
10362TIP3    H131029   7.044   3.158   0.042
10362TIP3    H231030   7.051   3.195   0.189
10363TIP3   OH231031   6.363   2.043   5.389
10363TIP3    H131032   6.335   1.990   5.315
10363TIP3    H231033   6.330   1.997   5.466
10364TIP3   OH231034   7.087   3.396   3.373
10364TIP3    H131035   7.094   3.394   3.469
10364TIP3    H231036   6.994   3.414   3.356
10365TIP3   OH231037   7.495   5.882   4.700
10365TIP3    H131038   7.494   5.962   4.648
10365TIP3    H231039   7.586   5.853   4.699
10366TIP3   OH231040   6.761   7.484   5.213
10366TIP3    H131041   6.723   7.533   5.285
10366TIP3    H231042   6.832   7.434   5.252
10367TIP3   OH231043   4.171   7.624   3.599
10367TIP3    H131044   4.210   7.553   3.651
10367TIP3    H231045   4.140   7.580   3.520
10368TIP3   OH231046   5.814   5.312   1.200
10368TIP3    H131047   5.788   5.233   1.247
10368TIP3    H231048   5.826   5.378   1.268
10369TIP3   OH231049   2.435   7.716   2.627
10369TIP3    H131050   2.431   7.728   2.533
10369TIP3    H231051   2.413   7.623   2.640
10370TIP3   OH231052   1.505   5.637   2.185
10370TIP3    H131053   1.570   5.639   2.114
10370TIP3    H231054   1.556   5.654   2.264
10371TIP3   OH231055   7.053   0.519   5.748
10371TIP3    H131056   7.017   0.494   5.834
10371TIP3    H231057   7.083   0.609   5.760
10372TIP3   OH231058   0.770   0.713   0.045
10372TIP3    H131059   0.691   0.766   0.038
10372TIP3    H231060   0.748   0.644   0.108
10373TIP3   OH231061   2.509   5.425   1.762
10373TIP3    H131062   2.501   5.330   1.752
10373TIP3    H231063   2.588   5.437   1.814
10374TIP3   OH231064   0.732   3.231   3.814
10374TIP3    H131065   0.716   3.324   3.831
10374TIP3    H231066   0.792   3.231   3.740
10375TIP3   OH231067   0.471   3.863   2.928
10375TIP3    H131068   0.422   3.831   2.852
10375TIP3    H231069   0.413   3.848   3.003
10376TIP3   OH231070   7.840   3.420   2.922
10376TIP3    H131071   7.768   3.454   2.975
10376TIP3    H231072   7.807   3.337   2.887
10377TIP3   OH231073   4.379   1.536   6.390
10377TIP3    H131074   4.443   1.570   6.453
10377TIP3    H231075   4.318   1.608   6.376
10378TIP3   OH231076   5.871   0.062   2.758
10378TIP3    H131077   5.944   0.001   2.746
10378TIP3    H231078   5.795   0.005   2.767
10379TIP3   OH231079   3.473   6.319   2.725
10379TIP3    H131080   3.417   6.387   2.689
10379TIP3    H231081   3.554   6.364   2.749
10380TIP3   OH231082   7.766   0.952   0.553
10380TIP3    H131083   7.860   0.940   0.570
10380TIP3    H231084   7.736   1.011   0.622
10381TIP3   OH231085   7.016   5.027   0.295
10381TIP3    H131086   7.005   4.940   0.257
10381TIP3    H231087   7.072   5.012   0.372
10382TIP3   OH231088   3.542   3.136   4.299
10382TIP3    H131089   3.477   3.074   4.266
10382TIP3    H231090   3.572   3.183   4.221
10383TIP3   OH231091   6.155   3.830   2.352
10383TIP3    H131092   6.135   3.894   2.420
10383TIP3    H231093   6.250   3.830   2.346
10384TIP3   OH231094   4.882   4.925   1.832
10384TIP3    H131095   4.810   4.873   1.797
10384TIP3    H231096   4.895   4.892   1.921
10385TIP3   OH231097   3.202   5.799   3.353
10385TIP3    H131098   3.215   5.889   3.323
10385TIP3    H231099   3.284   5.777   3.397
10386TIP3   OH231100   0.407   2.450   0.171
10386TIP3    H131101   0.317   2.442   0.139
10386TIP3    H231102   0.422   2.545   0.176
10387TIP3   OH231103   2.708   6.392   1.965
10387TIP3    H131104   2.779   6.397   2.029
10387TIP3    H231105   2.696   6.298   1.951
10388TIP3   OH231106   3.850   2.264   0.068
10388TIP3    H131107   3.800   2.338   0.103
10388TIP3    H231108   3.884   2.295  -0.016
10389TIP3   OH231109   0.904   6.382   2.111
10389TIP3    H131110   0.923   6.311   2.171
10389TIP3    H231111   0.879   6.456   2.167
10390TIP3   OH231112   8.029   0.361   3.142
10390TIP3    H131113   8.059   0.282   3.186
10390TIP3    H231114   7.934   0.352   3.137
10391TIP3   OH231115   0.277   3.057   1.299
10391TIP3    H131116   0.353   3.063   1.241
10391TIP3    H231117   0.203   3.083   1.244
10392TIP3   OH231118   1.542   5.679   5.999
10392TIP3    H131119   1.502   5.747   5.945
10392TIP3    H231120   1.634   5.680   5.976
10393TIP3   OH231121   3.645   5.940   3.358
10393TIP3    H131122   3.599   5.898   3.285
10393TIP3    H231123   3.654   6.032   3.331
10394TIP3   OH231124   0.160   3.989   1.023
10394TIP3    H131125   0.165   3.919   0.958
10394TIP3    H231126   0.074   4.028   1.009
10395TIP3   OH231127   5.225   6.695   3.646
10395TIP3    H131128   5.320   6.683   3.645
10395TIP3    H231129   5.198   6.685   3.555
10396TIP3   OH231130   5.178   1.786   1.600
10396TIP3    H131131   5.114   1.750   1.539
10396TIP3    H231132   5.232   1.844   1.547
10397TIP3   OH231133   1.041   2.840   0.993
10397TIP3    H131134   1.077   2.823   0.906
10397TIP3    H231135   1.009   2.755   1.023
10398TIP3   OH231136   7.433   6.338   3.540
10398TIP3    H131137   7.357   6.306   3.492
10398TIP3    H231138   7.480   6.394   3.478
10399TIP3   OH231139   5.391   3.303   1.505
10399TIP3    H131140   5.381   3.391   1.541
10399TIP3    H231141   5.469   3.309   1.450
10400TIP3   OH231142   5.219   5.893   1.688
10400TIP3    H131143   5.234   5.850   1.772
10400TIP3    H231144   5.262   5.837   1.624
10401TIP3   OH231145   2.314   2.001   2.137
10401TIP3    H131146   2.282   1.937   2.073
10401TIP3    H231147   2.395   1.963   2.169
10402TIP3   OH231148   2.304   6.336   2.490
10402TIP3    H131149   2.267   6.337   2.578
10402TIP3    H231150   2.317   6.429   2.469
10403TIP3   OH231151   2.212   0.384   4.506
10403TIP3    H131152   2.215   0.385   4.602
10403TIP3    H231153   2.180   0.296   4.484
10404TIP3   OH231154   5.312   4.583   4.838
10404TIP3    H131155   5.364   4.650   4.882
10404TIP3    H231156   5.355   4.501   4.860
10405TIP3   OH231157   3.708   6.411   3.312
10405TIP3    H131158   3.786   6.382   3.360
10405TIP3    H231159   3.741   6.468   3.243
10406TIP3   OH231160   4.958   5.716   0.586
10406TIP3    H131161   4.876   5.666   0.578
10406TIP3    H231162   4.932   5.798   0.628
10407TIP3   OH231163   3.398   4.205   1.799
10407TIP3    H131164   3.344   4.142   1.751
10407TIP3    H231165   3.343   4.233   1.872
10408TIP3   OH231166   6.821   1.950   2.890
10408TIP3    H131167   6.821   2.041   2.861
10408TIP3    H231168   6.908   1.918   2.869
10409TIP3   OH231169   5.262   0.098   0.871
10409TIP3    H131170   5.233   0.162   0.806
10409TIP3    H231171   5.184   0.045   0.889
10410TIP3   OH231172   0.039   0.611   2.299
10410TIP3    H131173   0.018   0.612   2.206
10410TIP3    H231174   0.023   0.701   2.329
10411TIP3   OH231175   5.716   2.135   5.887
10411TIP3    H131176   5.621   2.127   5.878
10411TIP3    H231177   5.750   2.127   5.798
10412TIP3   OH231178   1.723   5.478   4.275
10412TIP3    H131179   1.767   5.438   4.349
10412TIP3    H231180   1.785   5.544   4.243
10413TIP3   OH231181   0.085   0.962   5.675
10413TIP3    H131182   0.121   0.965   5.586
10413TIP3    H231183   0.032   0.882   5.677
10414TIP3   OH231184   4.096   1.187   1.506
10414TIP3    H131185   4.185   1.220   1.491
10414TIP3    H231186   4.073   1.144   1.424
10415TIP3   OH231187   4.642   4.962   5.311
10415TIP3    H131188   4.699   4.907   5.364
10415TIP3    H231189   4.555   4.948   5.348
10416TIP3   OH231190   3.473   4.557   1.396
10416TIP3    H131191   3.390   4.603   1.408
10416TIP3    H231192   3.487   4.558   1.301
10417TIP3   OH231193   6.475   7.451   0.226
10417TIP3    H131194   6.468   7.544   0.203
10417TIP3    H231195   6.387   7.417   0.215
10418TIP3   OH231196   0.239   6.967   0.384
10418TIP3    H131197   0.163   6.947   0.439
10418TIP3    H231198   0.215   6.933   0.297
10419TIP3   OH231199   1.492   4.287   3.447
10419TIP3    H131200   1.539   4.308   3.366
10419TIP3    H231201   1.472   4.194   3.440
10420TIP3   OH231202   7.362   5.234   0.567
10420TIP3    H131203   7.329   5.246   0.478
10420TIP3    H231204   7.385   5.141   0.571
10421TIP3   OH231205   6.140   1.715   1.447
10421TIP3    H131206   6.108   1.781   1.386
10421TIP3    H231207   6.231   1.739   1.462
10422TIP3   OH231208   0.344   6.612   5.102
10422TIP3    H131209   0.273   6.666   5.136
10422TIP3    H231210   0.405   6.674   5.063
10423TIP3   OH231211   1.440   1.706   0.242
10423TIP3    H131212   1.509   1.642   0.231
10423TIP3    H231213   1.398   1.682   0.324
10424TIP3   OH231214   4.634   0.960   3.286
10424TIP3    H131215   4.657   0.893   3.351
10424TIP3    H231216   4.580   0.914   3.222
10425TIP3   OH231217   8.297   6.765   3.490
10425TIP3    H131218   8.282   6.825   3.417
10425TIP3    H231219   8.216   6.770   3.541
10426TIP3   OH231220   6.060   2.212   2.238
10426TIP3    H131221   6.030   2.179   2.323
10426TIP3    H231222   6.097   2.136   2.195
10427TIP3   OH231223   1.673   3.143   2.749
10427TIP3    H131224   1.647   3.085   2.820
10427TIP3    H231225   1.708   3.084   2.682
10428TIP3   OH231226   6.885   0.580   0.554
10428TIP3    H131227   6.827   0.504   0.551
10428TIP3    H231228   6.894   0.608   0.463
10429TIP3   OH231229   5.184   5.778   2.341
10429TIP3    H131230   5.191   5.785   2.436
10429TIP3    H231231   5.136   5.856   2.315
10430TIP3   OH231232   7.752   2.109   6.649
10430TIP3    H131233   7.684   2.054   6.687
10430TIP3    H231234   7.708   2.158   6.580
10431TIP3   OH231235   6.667   1.653   5.627
10431TIP3    H131236   6.584   1.697   5.643
10431TIP3    H231237   6.699   1.629   5.714
10432TIP3   OH231238   1.551   3.496   3.751
10432TIP3    H131239   1.576   3.572   3.699
10432TIP3    H231240   1.461   3.513   3.777
10433TIP3   OH231241   6.488   3.507   6.359
10433TIP3    H131242   6.465   3.555   6.438
10433TIP3    H231243   6.414   3.521   6.300
10434TIP3   OH231244   0.629   5.409   1.054
10434TIP3    H131245   0.573   5.334   1.075
10434TIP3    H231246   0.715   5.385   1.088
10435TIP3   OH231247   4.100   6.488   3.408
10435TIP3    H131248   4.016   6.444   3.403
10435TIP3    H231249   4.079   6.578   3.433
10436TIP3   OH231250   2.631   5.022   4.488
10436TIP3    H131251   2.581   5.064   4.417
10436TIP3    H231252   2.654   4.936   4.453
10437TIP3   OH231253   0.135   3.682   6.546
10437TIP3    H131254   0.207   3.736   6.515
10437TIP3    H231255   0.066   3.695   6.481
10438TIP3   OH231256   4.966   1.003   4.430
10438TIP3    H131257   4.887   0.995   4.376
10438TIP3    H231258   5.000   0.913   4.436
10439TIP3   OH231259   0.741   6.716   2.700
10439TIP3    H131260   0.733   6.808   2.728
10439TIP3    H231261   0.801   6.719   2.626
10440TIP3   OH231262   3.537   6.715   4.552
10440TIP3    H131263   3.500   6.662   4.623
10440TIP3    H231264   3.488   6.688   4.474
10441TIP3   OH231265   4.066   6.596   5.918
10441TIP3    H131266   4.079   6.617   6.010
10441TIP3    H231267   4.106   6.669   5.871
10442TIP3   OH231268   0.407   3.976   4.237
10442TIP3    H131269   0.355   3.949   4.312
10442TIP3    H231270   0.470   3.905   4.225
10443TIP3   OH231271   0.394   3.219   6.201
10443TIP3    H131272   0.485   3.225   6.171
10443TIP3    H231273   0.391   3.136   6.248
10444TIP3   OH231274   1.541   2.613   0.763
10444TIP3    H131275   1.555   2.534   0.710
10444TIP3    H231276   1.588   2.595   0.844
10445TIP3   OH231277   7.143   2.954   3.803
10445TIP3    H131278   7.186   3.005   3.735
10445TIP3    H231279   7.164   2.863   3.783
10446TIP3   OH231280   0.725   3.691   6.010
10446TIP3    H131281   0.795   3.743   6.050
10446TIP3    H231282   0.709   3.732   5.926
10447TIP3   OH231283   7.037   1.599   2.632
10447TIP3    H131284   7.104   1.570   2.570
10447TIP3    H231285   6.957   1.553   2.604
10448TIP3   OH231286   5.777   7.684   1.854
10448TIP3    H131287   5.731   7.740   1.916
10448TIP3    H231288   5.709   7.626   1.819
10449TIP3   OH231289   2.662   6.084   1.943
10449TIP3    H131290   2.757   6.070   1.939
10449TIP3    H231291   2.625   6.017   1.886
10450TIP3   OH231292   4.829   6.991   5.148
10450TIP3    H131293   4.882   7.058   5.105
10450TIP3    H231294   4.788   7.037   5.221
10451TIP3   OH231295   0.832   3.651   1.153
10451TIP3    H131296   0.853   3.599   1.075
10451TIP3    H231297   0.749   3.615   1.184
10452TIP3   OH231298   2.546   3.281   1.292
10452TIP3    H131299   2.510   3.277   1.203
10452TIP3    H231300   2.491   3.345   1.337
10453TIP3   OH231301   3.629   3.646   5.413
10453TIP3    H131302   3.554   3.589   5.396
10453TIP3    H231303   3.653   3.628   5.504
10454TIP3   OH231304   3.514   4.699   4.784
10454TIP3    H131305   3.508   4.743   4.700
10454TIP3    H231306   3.439   4.731   4.834
10455TIP3   OH231307   6.455   4.400   0.172
10455TIP3    H131308   6.422   4.490   0.177
10455TIP3    H231309   6.448   4.367   0.261
10456TIP3   OH231310   1.540   6.297   6.219
10456TIP3    H131311   1.488   6.300   6.299
10456TIP3    H231312   1.597   6.373   6.224
10457TIP3   OH231313   0.494   3.624   6.726
10457TIP3    H131314   0.414   3.577   6.704
10457TIP3    H231315   0.546   3.561   6.776
10458TIP3   OH231316   0.723   2.668   0.480
10458TIP3    H131317   0.681   2.605   0.422
10458TIP3    H231318   0.656   2.690   0.545
10459TIP3   OH231319   7.937   1.684   6.565
10459TIP3    H131320   7.865   1.648   6.618
10459TIP3    H231321   7.947   1.774   6.597
10460TIP3   OH231322   0.526   7.776   1.719
10460TIP3    H131323   0.582   7.745   1.648
10460TIP3    H231324   0.443   7.798   1.676
10461TIP3   OH231325   3.737   1.009   1.088
10461TIP3    H131326   3.819   0.971   1.059
10461TIP3    H231327   3.762   1.072   1.156
10462TIP3   OH231328   4.859   1.690   4.291
10462TIP3    H131329   4.941   1.668   4.247
10462TIP3    H231330   4.798   1.621   4.263
10463TIP3   OH231331   1.129   3.633   5.914
10463TIP3    H131332   1.092   3.570   5.852
10463TIP3    H231333   1.081   3.714   5.898
10464TIP3   OH231334   5.331   7.757   1.129
10464TIP3    H131335   5.340   7.837   1.077
10464TIP3    H231336   5.296   7.693   1.068
10465TIP3   OH231337   6.660   5.113   2.661
10465TIP3    H131338   6.629   5.171   2.591
10465TIP3    H231339   6.729   5.060   2.620
10466TIP3   OH231340   6.601   4.285   6.573
10466TIP3    H131341   6.574   4.208   6.623
10466TIP3    H231342   6.662   4.250   6.508
10467TIP3   OH231343   0.411   5.811   2.011
10467TIP3    H131344   0.455   5.799   1.926
10467TIP3    H231345   0.328   5.764   2.002
10468TIP3   OH231346   3.396   0.107   3.564
10468TIP3    H131347   3.362   0.139   3.648
10468TIP3    H231348   3.322   0.113   3.504
10469TIP3   OH231349   1.729   4.893   1.932
10469TIP3    H131350   1.715   4.836   2.008
10469TIP3    H231351   1.733   4.981   1.968
10470TIP3   OH231352   4.687   4.511   1.249
10470TIP3    H131353   4.759   4.491   1.189
10470TIP3    H231354   4.640   4.428   1.260
10471TIP3   OH231355   4.264   4.372   0.076
10471TIP3    H131356   4.265   4.452   0.025
10471TIP3    H231357   4.177   4.336   0.062
10472TIP3   OH231358   3.713   6.317   5.380
10472TIP3    H131359   3.747   6.246   5.436
10472TIP3    H231360   3.693   6.388   5.441
10473TIP3   OH231361   8.132   5.462   4.401
10473TIP3    H131362   8.115   5.555   4.416
10473TIP3    H231363   8.219   5.459   4.360
10474TIP3   OH231364   5.782   0.269   1.232
10474TIP3    H131365   5.796   0.204   1.302
10474TIP3    H231366   5.836   0.343   1.259
10475TIP3   OH231367   4.743   1.186   0.256
10475TIP3    H131368   4.779   1.275   0.260
10475TIP3    H231369   4.674   1.185   0.322
10476TIP3   OH231370   3.114   7.601   3.948
10476TIP3    H131371   3.131   7.534   3.882
10476TIP3    H231372   3.132   7.558   4.032
10477TIP3   OH231373   5.039   5.172   4.853
10477TIP3    H131374   5.076   5.256   4.881
10477TIP3    H231375   5.075   5.108   4.915
10478TIP3   OH231376   7.937   6.169   5.294
10478TIP3    H131377   8.029   6.163   5.270
10478TIP3    H231378   7.916   6.085   5.334
10479TIP3   OH231379   7.755   6.582   6.032
10479TIP3    H131380   7.686   6.516   6.038
10479TIP3    H231381   7.767   6.612   6.122
10480TIP3   OH231382   3.234   4.451   0.148
10480TIP3    H131383   3.237   4.362   0.113
10480TIP3    H231384   3.323   4.467   0.180
10481TIP3   OH231385   7.880   1.204   1.046
10481TIP3    H131386   7.937   1.131   1.020
10481TIP3    H231387   7.848   1.180   1.133
10482TIP3   OH231388   3.266   2.357   5.049
10482TIP3    H131389   3.273   2.398   5.135
10482TIP3    H231390   3.299   2.268   5.063
10483TIP3   OH231391   7.426   4.440   2.629
10483TIP3    H131392   7.444   4.468   2.718
10483TIP3    H231393   7.421   4.345   2.633
10484TIP3   OH231394   8.118   0.379   3.524
10484TIP3    H131395   8.108   0.317   3.596
10484TIP3    H231396   8.039   0.434   3.530
10485TIP3   OH231397   7.694   1.362   6.734
10485TIP3    H131398   7.661   1.275   6.757
10485TIP3    H231399   7.621   1.404   6.690
10486TIP3   OH231400   0.032   3.458   4.453
10486TIP3    H131401   0.066   3.515   4.522
10486TIP3    H231402  -0.049   3.499   4.425
10487TIP3   OH231403   0.598   2.751   5.717
10487TIP3    H131404   0.570   2.842   5.717
10487TIP3    H231405   0.687   2.753   5.753
10488TIP3   OH231406   4.635   5.631   3.815
10488TIP3    H131407   4.584   5.697   3.861
10488TIP3    H231408   4.726   5.650   3.839
10489TIP3   OH231409   2.650   2.853   0.515
10489TIP3    H131410   2.718   2.883   0.575
10489TIP3    H231411   2.569   2.890   0.550
10490TIP3   OH231412   8.067   1.336   3.996
10490TIP3    H131413   8.040   1.268   3.934
10490TIP3    H231414   8.048   1.418   3.950
10491TIP3   OH231415   7.111   6.073   1.264
10491TIP3    H131416   7.093   6.166   1.247
10491TIP3    H231417   7.156   6.073   1.348
10492TIP3   OH231418   7.278   7.315   1.124
10492TIP3    H131419   7.309   7.381   1.062
10492TIP3    H231420   7.232   7.251   1.070
10493TIP3   OH231421   2.214   6.523   2.856
10493TIP3    H131422   2.267   6.448   2.828
10493TIP3    H231423   2.251   6.549   2.940
10494TIP3   OH231424   0.163   5.139   6.445
10494TIP3    H131425   0.114   5.220   6.435
10494TIP3    H231426   0.180   5.133   6.539
10495TIP3   OH231427   5.689   0.604   1.374
10495TIP3    H131428   5.677   0.563   1.460
10495TIP3    H231429   5.750   0.546   1.329
10496TIP3   OH231430   2.584   3.355   3.808
10496TIP3    H131431   2.504   3.370   3.757
10496TIP3    H231432   2.553   3.325   3.893
10497TIP3   OH231433   5.546   3.688   1.069
10497TIP3    H131434   5.615   3.663   1.130
10497TIP3    H231435   5.465   3.668   1.116
10498TIP3   OH231436   0.293   1.678   5.297
10498TIP3    H131437   0.198   1.673   5.289
10498TIP3    H231438   0.311   1.651   5.387
10499TIP3   OH231439   0.592   6.913   2.443
10499TIP3    H131440   0.663   6.976   2.426
10499TIP3    H231441   0.598   6.850   2.372
10500TIP3   OH231442   6.236   1.424   1.683
10500TIP3    H131443   6.264   1.491   1.745
10500TIP3    H231444   6.317   1.393   1.643
10501TIP3   OH231445   2.490   2.112   6.226
10501TIP3    H131446   2.551   2.080   6.160
10501TIP3    H231447   2.413   2.139   6.176
10502TIP3   OH231448   2.901   1.212   4.757
10502TIP3    H131449   2.905   1.285   4.818
10502TIP3    H231450   2.900   1.134   4.812
10503TIP3   OH231451   7.143   5.215   1.587
10503TIP3    H131452   7.053   5.181   1.586
10503TIP3    H231453   7.170   5.215   1.495
10504TIP3   OH231454   1.044   6.193   1.318
10504TIP3    H131455   1.136   6.206   1.339
10504TIP3    H231456   1.031   6.098   1.321
10505TIP3   OH231457   0.630   1.865   2.575
10505TIP3    H131458   0.595   1.777   2.586
10505TIP3    H231459   0.564   1.911   2.523
10506TIP3   OH231460   0.579   4.231   0.228
10506TIP3    H131461   0.524   4.292   0.277
10506TIP3    H231462   0.668   4.251   0.255
10507TIP3   OH231463   6.863   4.493   0.952
10507TIP3    H131464   6.777   4.451   0.946
10507TIP3    H231465   6.879   4.527   0.864
10508TIP3   OH231466   3.629   2.014   1.626
10508TIP3    H131467   3.628   1.919   1.619
10508TIP3    H231468   3.574   2.045   1.554
10509TIP3   OH231469   1.531   4.407   4.110
10509TIP3    H131470   1.511   4.313   4.108
10509TIP3    H231471   1.541   4.427   4.203
10510TIP3   OH231472   3.778   4.060   4.442
10510TIP3    H131473   3.771   3.965   4.449
10510TIP3    H231474   3.733   4.094   4.519
10511TIP3   OH231475   4.863   4.694   4.366
10511TIP3    H131476   4.824   4.614   4.331
10511TIP3    H231477   4.955   4.671   4.383
10512TIP3   OH231478   1.582   5.984   5.346
10512TIP3    H131479   1.560   5.891   5.347
10512TIP3    H231480   1.673   5.987   5.317
10513TIP3   OH231481   3.774   1.046   5.217
10513TIP3    H131482   3.844   1.062   5.153
10513TIP3    H231483   3.820   1.021   5.297
10514TIP3   OH231484   3.021   3.060   1.865
10514TIP3    H131485   3.071   3.140   1.884
10514TIP3    H231486   2.968   3.083   1.788
10515TIP3   OH231487   7.276   4.676   1.172
10515TIP3    H131488   7.181   4.668   1.177
10515TIP3    H231489   7.292   4.764   1.137
10516TIP3   OH231490   7.922   0.219   2.859
10516TIP3    H131491   7.856   0.169   2.811
10516TIP3    H231492   7.877   0.252   2.936
10517TIP3   OH231493   1.955   2.079   0.856
10517TIP3    H131494   1.928   1.991   0.828
10517TIP3    H231495   2.038   2.094   0.812
10518TIP3   OH231496   0.124   4.944   5.298
10518TIP3    H131497   0.074   4.941   5.380
10518TIP3    H231498   0.076   5.006   5.243
10519TIP3   OH231499   5.926   7.287   1.747
10519TIP3    H131500   5.887   7.325   1.826
10519TIP3    H231501   5.870   7.212   1.727
10520TIP3   OH231502   3.958   1.815   0.672
10520TIP3    H131503   3.890   1.828   0.607
10520TIP3    H231504   3.960   1.897   0.722
10521TIP3   OH231505   5.089   5.059   1.425
10521TIP3    H131506   5.110   4.973   1.388
10521TIP3    H231507   5.169   5.110   1.414
10522TIP3   OH231508   2.151   0.656   5.650
10522TIP3    H131509   2.088   0.723   5.623
10522TIP3    H231510   2.163   0.601   5.572
10523TIP3   OH231511   8.071   6.384   5.585
10523TIP3    H131512   8.098   6.298   5.555
10523TIP3    H231513   8.026   6.423   5.510
10524TIP3   OH231514   0.439   3.532   0.135
10524TIP3    H131515   0.506   3.574   0.080
10524TIP3    H231516   0.360   3.583   0.118
10525TIP3   OH231517   0.051   2.335   4.737
10525TIP3    H131518  -0.003   2.261   4.764
10525TIP3    H231519   0.099   2.360   4.816
10526TIP3   OH231520   0.680   1.327   1.155
10526TIP3    H131521   0.756   1.270   1.171
10526TIP3    H231522   0.611   1.290   1.209
10527TIP3   OH231523   5.338   7.435   2.318
10527TIP3    H131524   5.433   7.432   2.311
10527TIP3    H231525   5.321   7.495   2.391
10528TIP3   OH231526   3.309   3.247   3.863
10528TIP3    H131527   3.398   3.276   3.840
10528TIP3    H231528   3.263   3.327   3.888
10529TIP3   OH231529   6.993   3.269   4.568
10529TIP3    H131530   6.964   3.204   4.504
10529TIP3    H231531   7.044   3.220   4.632
10530TIP3   OH231532   3.985   0.904   2.537
10530TIP3    H131533   3.939   0.836   2.587
10530TIP3    H231534   4.077   0.890   2.557
10531TIP3   OH231535   0.712   2.711   6.232
10531TIP3    H131536   0.716   2.804   6.254
10531TIP3    H231537   0.627   2.700   6.189
10532TIP3   OH231538   2.647   4.330   1.993
10532TIP3    H131539   2.676   4.318   1.903
10532TIP3    H231540   2.558   4.365   1.985
10533TIP3   OH231541   0.856   1.705   4.937
10533TIP3    H131542   0.865   1.738   5.026
10533TIP3    H231543   0.771   1.661   4.936
10534TIP3   OH231544   2.452   3.519   1.663
10534TIP3    H131545   2.394   3.462   1.614
10534TIP3    H231546   2.395   3.590   1.694
10535TIP3   OH231547   5.126   3.809   5.660
10535TIP3    H131548   5.184   3.743   5.698
10535TIP3    H231549   5.183   3.885   5.643
10536TIP3   OH231550   2.584   0.791   3.980
10536TIP3    H131551   2.594   0.863   4.042
10536TIP3    H231552   2.547   0.832   3.901
10537TIP3   OH231553   6.638   5.776   4.694
10537TIP3    H131554   6.675   5.713   4.631
10537TIP3    H231555   6.713   5.830   4.720
10538TIP3   OH231556   0.247   1.036   1.317
10538TIP3    H131557   0.167   1.055   1.267
10538TIP3    H231558   0.273   0.949   1.288
10539TIP3   OH231559   6.841   5.710   5.827
10539TIP3    H131560   6.759   5.663   5.837
10539TIP3    H231561   6.904   5.643   5.799
10540TIP3   OH231562   0.125   6.073   4.616
10540TIP3    H131563   0.101   6.033   4.532
10540TIP3    H231564   0.203   6.025   4.644
10541TIP3   OH231565   6.001   3.155   1.868
10541TIP3    H131566   6.086   3.166   1.910
10541TIP3    H231567   5.984   3.239   1.824
10542TIP3   OH231568   0.393   6.506   3.445
10542TIP3    H131569   0.429   6.594   3.450
10542TIP3    H231570   0.298   6.518   3.445
10543TIP3   OH231571   2.280   4.214   3.819
10543TIP3    H131572   2.251   4.300   3.849
10543TIP3    H231573   2.363   4.230   3.774
10544TIP3   OH231574   4.217   0.558   4.118
10544TIP3    H131575   4.220   0.652   4.134
10544TIP3    H231576   4.145   0.546   4.056
10545TIP3   OH231577   3.370   4.640   1.807
10545TIP3    H131578   3.289   4.621   1.760
10545TIP3    H231579   3.360   4.595   1.891
10546TIP3   OH231580   4.938   7.634   3.593
10546TIP3    H131581   4.959   7.719   3.631
10546TIP3    H231582   4.953   7.572   3.664
10547TIP3   OH231583   7.019   1.268   2.736
10547TIP3    H131584   7.099   1.270   2.788
10547TIP3    H231585   6.948   1.262   2.800
10548TIP3   OH231586   4.875   0.861   3.582
10548TIP3    H131587   4.894   0.775   3.619
10548TIP3    H231588   4.779   0.864   3.576
10549TIP3   OH231589   0.520   7.233   5.830
10549TIP3    H131590   0.431   7.200   5.827
10549TIP3    H231591   0.568   7.168   5.881
10550TIP3   OH231592   0.240   7.337   2.422
10550TIP3    H131593   0.328   7.365   2.447
10550TIP3    H231594   0.230   7.251   2.463
10551TIP3   OH231595   6.514   1.215   3.517
10551TIP3    H131596   6.554   1.217   3.604
10551TIP3    H231597   6.437   1.271   3.525
10552TIP3   OH231598   4.324   6.143   4.998
10552TIP3    H131599   4.365   6.166   4.914
10552TIP3    H231600   4.330   6.223   5.050
10553TIP3   OH231601   7.612   0.256   0.381
10553TIP3    H131602   7.649   0.227   0.297
10553TIP3    H231603   7.566   0.337   0.359
10554TIP3   OH231604   6.534   5.573   2.180
10554TIP3    H131605   6.627   5.589   2.162
10554TIP3    H231606   6.533   5.546   2.272
10555TIP3   OH231607   7.846   0.434   5.558
10555TIP3    H131608   7.770   0.386   5.525
10555TIP3    H231609   7.829   0.442   5.652
10556TIP3   OH231610   6.568   2.090   0.452
10556TIP3    H131611   6.533   2.002   0.437
10556TIP3    H231612   6.541   2.140   0.375
10557TIP3   OH231613   3.668   3.777   1.901
10557TIP3    H131614   3.727   3.738   1.966
10557TIP3    H231615   3.589   3.800   1.951
10558TIP3   OH231616   5.807   4.120   0.789
10558TIP3    H131617   5.819   4.170   0.870
10558TIP3    H231618   5.738   4.057   0.810
10559TIP3   OH231619   0.308   0.239   4.644
10559TIP3    H131620   0.370   0.292   4.594
10559TIP3    H231621   0.240   0.215   4.580
10560TIP3   OH231622   0.450   5.412   6.068
10560TIP3    H131623   0.478   5.470   5.998
10560TIP3    H231624   0.508   5.336   6.062
10561TIP3   OH231625   4.701   7.304   5.329
10561TIP3    H131626   4.682   7.213   5.351
10561TIP3    H231627   4.661   7.354   5.400
10562TIP3   OH231628   3.010   4.044   4.980
10562TIP3    H131629   3.047   4.124   4.942
10562TIP3    H231630   2.950   4.075   5.048
10563TIP3   OH231631   7.407   1.620   4.510
10563TIP3    H131632   7.320   1.617   4.550
10563TIP3    H231633   7.423   1.530   4.481
10564TIP3   OH231634   5.867   2.733   6.671
10564TIP3    H131635   5.906   2.723   6.758
10564TIP3    H231636   5.939   2.766   6.616
10565TIP3   OH231637   7.312   7.583   0.185
10565TIP3    H131638   7.322   7.606   0.093
10565TIP3    H231639   7.244   7.642   0.217
10566TIP3   OH231640   5.417   4.060   3.383
10566TIP3    H131641   5.340   4.034   3.432
10566TIP3    H231642   5.426   4.154   3.400
10567TIP3   OH231643   5.709   7.760   5.013
10567TIP3    H131644   5.756   7.794   4.936
10567TIP3    H231645   5.687   7.670   4.990
10568TIP3   OH231646   6.281   1.862   6.079
10568TIP3    H131647   6.347   1.830   6.017
10568TIP3    H231648   6.276   1.794   6.146
10569TIP3   OH231649   3.958   2.668   1.303
10569TIP3    H131650   3.922   2.635   1.385
10569TIP3    H231651   3.911   2.750   1.287
10570TIP3   OH231652   1.919   7.233   4.094
10570TIP3    H131653   1.899   7.322   4.125
10570TIP3    H231654   1.992   7.245   4.034
10571TIP3   OH231655   2.352   4.477   5.838
10571TIP3    H131656   2.365   4.547   5.774
10571TIP3    H231657   2.260   4.451   5.826
10572TIP3   OH231658   2.808   0.196   2.180
10572TIP3    H131659   2.884   0.221   2.232
10572TIP3    H231660   2.823   0.237   2.095
10573TIP3   OH231661   0.299   7.568   1.193
10573TIP3    H131662   0.242   7.592   1.120
10573TIP3    H231663   0.284   7.636   1.259
10574TIP3   OH231664   1.259   4.163   5.470
10574TIP3    H131665   1.217   4.239   5.431
10574TIP3    H231666   1.352   4.182   5.468
10575TIP3   OH231667   6.708   2.102   0.971
10575TIP3    H131668   6.763   2.024   0.970
10575TIP3    H231669   6.741   2.156   0.899
10576TIP3   OH231670   7.254   3.777   6.047
10576TIP3    H131671   7.194   3.845   6.019
10576TIP3    H231672   7.333   3.824   6.075
10577TIP3   OH231673   4.601   7.210   6.111
10577TIP3    H131674   4.601   7.143   6.043
10577TIP3    H231675   4.611   7.162   6.193
10578TIP3   OH231676   0.267   1.130   0.521
10578TIP3    H131677   0.180   1.099   0.495
10578TIP3    H231678   0.271   1.220   0.489
10579TIP3   OH231679   7.917   3.846   2.270
10579TIP3    H131680   7.832   3.815   2.301
10579TIP3    H231681   7.899   3.931   2.229
10580TIP3   OH231682   2.354   2.983   4.110
10580TIP3    H131683   2.311   2.902   4.083
10580TIP3    H231684   2.412   2.957   4.181
10581TIP3   OH231685   6.525   4.865   3.684
10581TIP3    H131686   6.501   4.785   3.637
10581TIP3    H231687   6.581   4.835   3.756
10582TIP3   OH231688   6.715   3.092   2.464
10582TIP3    H131689   6.743   3.122   2.377
10582TIP3    H231690   6.626   3.062   2.450
10583TIP3   OH231691   7.853   7.815   6.140
10583TIP3    H131692   7.899   7.775   6.066
10583TIP3    H231693   7.920   7.823   6.208
10584TIP3   OH231694   8.112   3.598   3.947
10584TIP3    H131695   8.023   3.632   3.946
10584TIP3    H231696   8.145   3.614   3.859
10585TIP3   OH231697   2.475   0.297   4.999
10585TIP3    H131698   2.379   0.294   5.003
10585TIP3    H231699   2.501   0.208   4.975
10586TIP3   OH231700   6.579   0.266   1.387
10586TIP3    H131701   6.553   0.264   1.479
10586TIP3    H231702   6.507   0.311   1.343
10587TIP3   OH231703   6.308   0.058   1.953
10587TIP3    H131704   6.284   0.137   2.002
10587TIP3    H231705   6.399   0.042   1.976
10588TIP3   OH231706   2.709   3.976   0.367
10588TIP3    H131707   2.614   3.988   0.375
10588TIP3    H231708   2.743   4.064   0.352
10589TIP3   OH231709   7.450   7.509   0.582
10589TIP3    H131710   7.543   7.531   0.578
10589TIP3    H231711   7.425   7.497   0.490
10590TIP3   OH231712   1.758   1.609   2.108
10590TIP3    H131713   1.816   1.684   2.123
10590TIP3    H231714   1.699   1.637   2.039
10591TIP3   OH231715   0.204   4.773   5.037
10591TIP3    H131716   0.278   4.809   4.989
10591TIP3    H231717   0.241   4.746   5.121
10592TIP3   OH231718   6.976   5.727   2.334
10592TIP3    H131719   6.882   5.747   2.327
10592TIP3    H231720   7.019   5.800   2.289
10593TIP3   OH231721   2.054   0.936   6.436
10593TIP3    H131722   1.991   0.888   6.490
10593TIP3    H231723   2.112   0.868   6.401
10594TIP3   OH231724   5.572   4.700   5.515
10594TIP3    H131725   5.507   4.630   5.523
10594TIP3    H231726   5.589   4.727   5.606
10595TIP3   OH231727   7.524   4.081   0.827
10595TIP3    H131728   7.526   4.145   0.755
10595TIP3    H231729   7.603   4.098   0.877
10596TIP3   OH231730   4.971   1.556   2.112
10596TIP3    H131731   4.989   1.640   2.069
10596TIP3    H231732   4.997   1.490   2.048
10597TIP3   OH231733   5.950   2.756   5.512
10597TIP3    H131734   5.961   2.667   5.545
10597TIP3    H231735   5.978   2.812   5.584
10598TIP3   OH231736   7.726   1.026   2.117
10598TIP3    H131737   7.635   1.043   2.094
10598TIP3    H231738   7.735   1.056   2.207
10599TIP3   OH231739   5.689   3.833   3.955
10599TIP3    H131740   5.616   3.779   3.924
10599TIP3    H231741   5.765   3.799   3.908
10600TIP3   OH231742   6.418   0.984   4.099
10600TIP3    H131743   6.394   0.901   4.059
10600TIP3    H231744   6.443   0.961   4.188
10601TIP3   OH231745   4.632   1.904   1.536
10601TIP3    H131746   4.686   1.937   1.464
10601TIP3    H231747   4.666   1.816   1.553
10602TIP3   OH231748   2.318   0.870   0.429
10602TIP3    H131749   2.242   0.878   0.487
10602TIP3    H231750   2.285   0.895   0.342
10603TIP3   OH231751   5.476   2.616   3.206
10603TIP3    H131752   5.420   2.614   3.128
10603TIP3    H231753   5.463   2.703   3.243
10604TIP3   OH231754   3.072   4.054   5.357
10604TIP3    H131755   3.058   4.091   5.444
10604TIP3    H231756   3.096   4.129   5.302
10605TIP3   OH231757   2.959   2.301   0.755
10605TIP3    H131758   2.890   2.292   0.821
10605TIP3    H231759   3.034   2.256   0.794
10606TIP3   OH231760   6.223   7.793   0.679
10606TIP3    H131761   6.229   7.797   0.584
10606TIP3    H231762   6.182   7.876   0.704
10607TIP3   OH231763   0.314   6.416   5.302
10607TIP3    H131764   0.347   6.484   5.244
10607TIP3    H231765   0.221   6.408   5.279
10608TIP3   OH231766   7.807   2.268   1.999
10608TIP3    H131767   7.887   2.246   1.951
10608TIP3    H231768   7.774   2.348   1.957
10609TIP3   OH231769   5.582   0.565   2.346
10609TIP3    H131770   5.641   0.528   2.281
10609TIP3    H231771   5.633   0.565   2.427
10610TIP3   OH231772   6.966   6.765   4.701
10610TIP3    H131773   7.011   6.706   4.761
10610TIP3    H231774   6.908   6.816   4.757
10611TIP3   OH231775   4.234   2.554   4.020
10611TIP3    H131776   4.318   2.533   3.980
10611TIP3    H231777   4.177   2.480   3.997
10612TIP3   OH231778   2.508   4.968   3.137
10612TIP3    H131779   2.428   5.019   3.119
10612TIP3    H231780   2.480   4.877   3.130
10613TIP3   OH231781   6.952   6.872   1.117
10613TIP3    H131782   6.861   6.873   1.085
10613TIP3    H231783   6.991   6.795   1.076
10614TIP3   OH231784   7.493   0.045   3.957
10614TIP3    H131785   7.434   0.056   3.883
10614TIP3    H231786   7.497  -0.049   3.972
10615TIP3   OH231787   8.185   6.654   6.058
10615TIP3    H131788   8.130   6.588   6.099
10615TIP3    H231789   8.125   6.724   6.034
10616TIP3   OH231790   1.680   7.764   1.426
10616TIP3    H131791   1.727   7.768   1.509
10616TIP3    H231792   1.641   7.676   1.425
10617TIP3   OH231793   2.866   1.611   4.241
10617TIP3    H131794   2.896   1.678   4.302
10617TIP3    H231795   2.771   1.611   4.250
10618TIP3   OH231796   3.162   1.303   4.612
10618TIP3    H131797   3.121   1.221   4.584
10618TIP3    H231798   3.208   1.335   4.534
10619TIP3   OH231799   0.358   0.530   4.198
10619TIP3    H131800   0.282   0.584   4.178
10619TIP3    H231801   0.423   0.591   4.232
10620TIP3   OH231802   2.997   4.350   2.041
10620TIP3    H131803   3.022   4.356   2.133
10620TIP3    H231804   3.075   4.314   1.998
10621TIP3   OH231805   2.993   5.030   5.212
10621TIP3    H131806   3.064   5.091   5.233
10621TIP3    H231807   2.994   4.967   5.285
10622TIP3   OH231808   2.962   6.205   1.737
10622TIP3    H131809   3.019   6.155   1.795
10622TIP3    H231810   2.982   6.296   1.756
10623TIP3   OH231811   0.171   5.080   3.278
10623TIP3    H131812   0.086   5.078   3.322
10623TIP3    H231813   0.235   5.064   3.348
10624TIP3   OH231814   7.384   6.464   4.603
10624TIP3    H131815   7.296   6.433   4.581
10624TIP3    H231816   7.380   6.559   4.592
10625TIP3   OH231817   2.517   3.852   6.036
10625TIP3    H131818   2.512   3.822   6.127
10625TIP3    H231819   2.559   3.779   5.989
10626TIP3   OH231820   7.807   2.507   6.105
10626TIP3    H131821   7.753   2.505   6.184
10626TIP3    H231822   7.824   2.600   6.089
10627TIP3   OH231823   0.273   5.905   4.794
10627TIP3    H131824   0.205   5.839   4.784
10627TIP3    H231825   0.254   5.946   4.879
10628TIP3   OH231826   6.671   1.210   3.767
10628TIP3    H131827   6.681   1.265   3.845
10628TIP3    H231828   6.731   1.249   3.703
10629TIP3   OH231829   3.379   6.863   1.635
10629TIP3    H131830   3.332   6.827   1.710
10629TIP3    H231831   3.462   6.816   1.635
10630TIP3   OH231832   0.255   2.079   6.672
10630TIP3    H131833   0.201   2.090   6.593
10630TIP3    H231834   0.264   2.167   6.708
10631TIP3   OH231835   0.842   7.299   4.383
10631TIP3    H131836   0.808   7.295   4.294
10631TIP3    H231837   0.937   7.296   4.373
10632TIP3   OH231838   7.995   2.503   5.297
10632TIP3    H131839   7.967   2.485   5.207
10632TIP3    H231840   7.914   2.526   5.343
10633TIP3   OH231841   0.351   3.565   2.942
10633TIP3    H131842   0.425   3.517   2.978
10633TIP3    H231843   0.274   3.514   2.968
10634TIP3   OH231844   6.265   6.053   5.678
10634TIP3    H131845   6.242   6.142   5.648
10634TIP3    H231846   6.275   6.003   5.597
10635TIP3   OH231847   0.333   6.350   4.871
10635TIP3    H131848   0.317   6.418   4.806
10635TIP3    H231849   0.353   6.398   4.952
10636TIP3   OH231850   8.258   2.815   2.398
10636TIP3    H131851   8.178   2.786   2.443
10636TIP3    H231852   8.226   2.852   2.315
10637TIP3   OH231853   7.616   4.581   5.608
10637TIP3    H131854   7.545   4.638   5.636
10637TIP3    H231855   7.584   4.492   5.627
10638TIP3   OH231856   7.336   5.977   6.557
10638TIP3    H131857   7.429   5.983   6.577
10638TIP3    H231858   7.328   5.902   6.498
10639TIP3   OH231859   1.418   4.706   6.801
10639TIP3    H131860   1.378   4.647   6.738
10639TIP3    H231861   1.419   4.791   6.757
10640TIP3   OH231862   5.131   2.619   5.095
10640TIP3    H131863   5.212   2.656   5.059
10640TIP3    H231864   5.130   2.529   5.063
10641TIP3   OH231865   2.675   7.748   2.401
10641TIP3    H131866   2.769   7.737   2.385
10641TIP3    H231867   2.644   7.659   2.422
10642TIP3   OH231868   6.167   5.112   3.845
10642TIP3    H131869   6.158   5.189   3.788
10642TIP3    H231870   6.200   5.043   3.787
10643TIP3   OH231871   3.241   3.675   0.045
10643TIP3    H131872   3.165   3.681  -0.012
10643TIP3    H231873   3.309   3.725   0.000
10644TIP3   OH231874   5.840   0.500   3.710
10644TIP3    H131875   5.793   0.423   3.679
10644TIP3    H231876   5.794   0.574   3.670
10645TIP3   OH231877   7.641   3.037   3.145
10645TIP3    H131878   7.602   3.082   3.220
10645TIP3    H231879   7.736   3.041   3.162
10646TIP3   OH231880   0.428   2.388   6.598
10646TIP3    H131881   0.434   2.480   6.623
10646TIP3    H231882   0.338   2.378   6.566
10647TIP3   OH231883   2.982   5.787   4.345
10647TIP3    H131884   2.966   5.856   4.410
10647TIP3    H231885   2.910   5.725   4.357
10648TIP3   OH231886   3.315   4.143   1.158
10648TIP3    H131887   3.289   4.144   1.066
10648TIP3    H231888   3.308   4.051   1.184
10649TIP3   OH231889   2.611   3.397   6.257
10649TIP3    H131890   2.535   3.387   6.315
10649TIP3    H231891   2.644   3.484   6.275
10650TIP3   OH231892   7.016   3.055   1.862
10650TIP3    H131893   6.946   3.108   1.898
10650TIP3    H231894   7.091   3.070   1.921
10651TIP3   OH231895   7.639   1.759   3.278
10651TIP3    H131896   7.708   1.694   3.271
10651TIP3    H231897   7.677   1.830   3.331
10652TIP3   OH231898   5.377   3.208   4.485
10652TIP3    H131899   5.467   3.195   4.513
10652TIP3    H231900   5.331   3.128   4.513
10653TIP3   OH231901   0.811   7.225   1.464
10653TIP3    H131902   0.835   7.295   1.403
10653TIP3    H231903   0.820   7.145   1.413
10654TIP3   OH231904   2.809   1.780   6.544
10654TIP3    H131905   2.810   1.727   6.624
10654TIP3    H231906   2.882   1.841   6.556
10655TIP3   OH231907   7.687   7.676   3.498
10655TIP3    H131908   7.777   7.700   3.519
10655TIP3    H231909   7.691   7.584   3.474
10656TIP3   OH231910   3.453   4.322   3.763
10656TIP3    H131911   3.514   4.254   3.790
10656TIP3    H231912   3.475   4.397   3.818
10657TIP3   OH231913   5.580   2.661   3.669
10657TIP3    H131914   5.669   2.678   3.638
10657TIP3    H231915   5.579   2.568   3.691
10658TIP3   OH231916   2.651   0.551   0.582
10658TIP3    H131917   2.679   0.606   0.655
10658TIP3    H231918   2.603   0.610   0.525
10659TIP3   OH231919   4.818   6.601   6.360
10659TIP3    H131920   4.809   6.631   6.269
10659TIP3    H231921   4.795   6.508   6.357
10660TIP3   OH231922   1.072   7.590   2.666
10660TIP3    H131923   1.012   7.516   2.661
10660TIP3    H231924   1.157   7.553   2.640
10661TIP3   OH231925   0.990   3.476   2.209
10661TIP3    H131926   0.935   3.541   2.165
10661TIP3    H231927   1.045   3.527   2.269
10662TIP3   OH231928   7.962   3.018   2.701
10662TIP3    H131929   7.968   2.935   2.749
10662TIP3    H231930   7.968   3.086   2.768
10663TIP3   OH231931   1.476   7.751   0.619
10663TIP3    H131932   1.535   7.740   0.545
10663TIP3    H231933   1.468   7.664   0.657
10664TIP3   OH231934   3.898   1.344   2.318
10664TIP3    H131935   3.886   1.280   2.388
10664TIP3    H231936   3.904   1.291   2.238
10665TIP3   OH231937   4.630   5.172   6.554
10665TIP3    H131938   4.566   5.126   6.607
10665TIP3    H231939   4.706   5.114   6.553
10666TIP3   OH231940   8.059   7.321   5.529
10666TIP3    H131941   8.103   7.236   5.537
10666TIP3    H231942   7.973   7.300   5.494
10667TIP3   OH231943   4.217   4.881   4.397
10667TIP3    H131944   4.290   4.939   4.377
10667TIP3    H231945   4.215   4.818   4.325
10668TIP3   OH231946   0.253   0.772   2.536
10668TIP3    H131947   0.270   0.865   2.543
10668TIP3    H231948   0.318   0.731   2.592
10669TIP3   OH231949   7.577   4.417   2.979
10669TIP3    H131950   7.602   4.324   2.972
10669TIP3    H231951   7.482   4.415   2.989
10670TIP3   OH231952   1.071   0.780   4.731
10670TIP3    H131953   1.033   0.863   4.759
10670TIP3    H231954   1.161   0.801   4.707
10671TIP3   OH231955   3.856   0.223   4.525
10671TIP3    H131956   3.778   0.276   4.542
10671TIP3    H231957   3.929   0.284   4.535
10672TIP3   OH231958   6.083   4.605   3.863
10672TIP3    H131959   6.027   4.671   3.823
10672TIP3    H231960   6.022   4.541   3.900
10673TIP3   OH231961   5.136   0.039   1.670
10673TIP3    H131962   5.151   0.133   1.685
10673TIP3    H231963   5.179   0.021   1.586
10674TIP3   OH231964   3.289   1.253   5.794
10674TIP3    H131965   3.194   1.250   5.781
10674TIP3    H231966   3.311   1.346   5.789
10675TIP3   OH231967   6.848   2.229   2.929
10675TIP3    H131968   6.828   2.275   2.848
10675TIP3    H231969   6.850   2.297   2.996
10676TIP3   OH231970   2.571   2.567   0.432
10676TIP3    H131971   2.482   2.569   0.397
10676TIP3    H231972   2.575   2.640   0.494
10677TIP3   OH231973   8.218   2.865   1.882
10677TIP3    H131974   8.253   2.952   1.859
10677TIP3    H231975   8.254   2.807   1.815
10678TIP3   OH231976   6.162   6.701   5.139
10678TIP3    H131977   6.257   6.712   5.143
10678TIP3    H231978   6.139   6.659   5.222
10679TIP3   OH231979   5.636   1.943   3.724
10679TIP3    H131980   5.609   1.914   3.637
10679TIP3    H231981   5.715   1.995   3.708
10680TIP3   OH231982   0.044   6.210   1.302
10680TIP3    H131983   0.014   6.234   1.389
10680TIP3    H231984   0.139   6.219   1.306
10681TIP3   OH231985   5.147   1.320   2.733
10681TIP3    H131986   5.158   1.297   2.641
10681TIP3    H231987   5.059   1.292   2.755
10682TIP3   OH231988   7.695   5.380   4.358
10682TIP3    H131989   7.776   5.331   4.343
10682TIP3    H231990   7.723   5.458   4.406
10683TIP3   OH231991   5.150   1.643   0.580
10683TIP3    H131992   5.060   1.656   0.550
10683TIP3    H231993   5.145   1.653   0.675
10684TIP3   OH231994   7.275   6.215   2.166
10684TIP3    H131995   7.271   6.296   2.216
10684TIP3    H231996   7.218   6.230   2.091
10685TIP3   OH231997   2.642   5.713   4.295
10685TIP3    H131998   2.661   5.688   4.204
10685TIP3    H231999   2.650   5.632   4.345
10686TIP3   OH232000   3.882   6.930   1.201
10686TIP3    H132001   3.805   6.898   1.248
10686TIP3    H232002   3.952   6.870   1.226
10687TIP3   OH232003   7.400   3.810   2.497
10687TIP3    H132004   7.458   3.734   2.495
10687TIP3    H232005   7.323   3.780   2.546
10688TIP3   OH232006   3.596   2.187   2.649
10688TIP3    H132007   3.674   2.133   2.662
10688TIP3    H232008   3.541   2.136   2.590
10689TIP3   OH232009   3.153   5.164   6.280
10689TIP3    H132010   3.173   5.257   6.268
10689TIP3    H232011   3.229   5.129   6.327
10690TIP3   OH232012   5.748   4.464   5.270
10690TIP3    H132013   5.761   4.478   5.364
10690TIP3    H232014   5.755   4.552   5.231
10691TIP3   OH232015   2.866   6.386   0.938
10691TIP3    H132016   2.931   6.317   0.946
10691TIP3    H232017   2.873   6.436   1.019
10692TIP3   OH232018   3.980   3.087   4.298
10692TIP3    H132019   4.049   3.126   4.353
10692TIP3    H232020   3.962   3.154   4.232
10693TIP3   OH232021   5.476   3.655   3.879
10693TIP3    H132022   5.491   3.561   3.869
10693TIP3    H232023   5.383   3.663   3.899
10694TIP3   OH232024   2.185   0.577   2.931
10694TIP3    H132025   2.212   0.493   2.893
10694TIP3    H232026   2.105   0.557   2.979
10695TIP3   OH232027   1.239   1.061   4.471
10695TIP3    H132028   1.161   1.113   4.489
10695TIP3    H232029   1.242   0.996   4.542
10696TIP3   OH232030   3.696   3.745   2.660
10696TIP3    H132031   3.650   3.756   2.577
10696TIP3    H232032   3.627   3.743   2.726
10697TIP3   OH232033   2.203   2.677   6.214
10697TIP3    H132034   2.261   2.699   6.142
10697TIP3    H232035   2.198   2.582   6.213
10698TIP3   OH232036   6.842   1.001   5.460
10698TIP3    H132037   6.762   0.989   5.409
10698TIP3    H232038   6.815   0.988   5.551
10699TIP3   OH232039   0.496   4.928   1.479
10699TIP3    H132040   0.529   5.003   1.431
10699TIP3    H232041   0.573   4.888   1.518
10700TIP3   OH232042   7.097   6.561   0.472
10700TIP3    H132043   7.174   6.533   0.521
10700TIP3    H232044   7.129   6.579   0.384
10701TIP3   OH232045   2.171   5.336   3.782
10701TIP3    H132046   2.157   5.426   3.755
10701TIP3    H232047   2.085   5.295   3.773
10702TIP3   OH232048   1.683   4.100   4.254
10702TIP3    H132049   1.766   4.103   4.303
10702TIP3    H232050   1.705   4.139   4.169
10703TIP3   OH232051   7.066   5.869   1.108
10703TIP3    H132052   7.077   5.943   1.167
10703TIP3    H232053   7.126   5.886   1.036
10704TIP3   OH232054   6.265   2.387   1.793
10704TIP3    H132055   6.196   2.372   1.729
10704TIP3    H232056   6.308   2.467   1.763
10705TIP3   OH232057   7.303   3.197   1.891
10705TIP3    H132058   7.367   3.128   1.906
10705TIP3    H232059   7.239   3.186   1.961
10706TIP3   OH232060   3.051   7.421   0.960
10706TIP3    H132061   3.035   7.413   1.054
10706TIP3    H232062   3.069   7.514   0.946
10707TIP3   OH232063   0.353   5.978   2.847
10707TIP3    H132064   0.290   5.914   2.812
10707TIP3    H232065   0.346   5.968   2.942
10708TIP3   OH232066   2.379   4.345   3.376
10708TIP3    H132067   2.309   4.347   3.440
10708TIP3    H232068   2.458   4.370   3.425
10709TIP3   OH232069   8.105   1.711   4.646
10709TIP3    H132070   8.095   1.694   4.552
10709TIP3    H232071   8.021   1.685   4.684
10710TIP3   OH232072   1.572   1.177   1.562
10710TIP3    H132073   1.481   1.198   1.539
10710TIP3    H232074   1.605   1.256   1.603
10711TIP3   OH232075   2.018   0.781   4.813
10711TIP3    H132076   2.101   0.817   4.844
10711TIP3    H232077   2.031   0.768   4.719
10712TIP3   OH232078   4.287   2.463   5.831
10712TIP3    H132079   4.203   2.506   5.823
10712TIP3    H232080   4.284   2.390   5.768
10713TIP3   OH232081   4.587   5.222   5.521
10713TIP3    H132082   4.678   5.213   5.493
10713TIP3    H232083   4.538   5.231   5.439
10714TIP3   OH232084   4.150   5.756   2.294
10714TIP3    H132085   4.189   5.747   2.382
10714TIP3    H232086   4.060   5.726   2.305
10715TIP3   OH232087   2.677   5.885   0.287
10715TIP3    H132088   2.684   5.929   0.371
10715TIP3    H232089   2.761   5.902   0.244
10716TIP3   OH232090   7.293   1.825   2.480
10716TIP3    H132091   7.308   1.751   2.422
10716TIP3    H232092   7.197   1.834   2.484
10717TIP3   OH232093   7.159   6.765   4.270
10717TIP3    H132094   7.201   6.787   4.187
10717TIP3    H232095   7.090   6.830   4.280
10718TIP3   OH232096   0.706   0.457   3.239
10718TIP3    H132097   0.732   0.546   3.214
10718TIP3    H232098   0.778   0.425   3.293
10719TIP3   OH232099   4.899   4.529   6.526
10719TIP3    H132100   4.817   4.559   6.565
10719TIP3    H232101   4.875   4.450   6.478
10720TIP3   OH232102   7.503   6.184   1.716
10720TIP3    H132103   7.437   6.224   1.659
10720TIP3    H232104   7.582   6.181   1.663
10721TIP3   OH232105   7.055   3.533   4.043
10721TIP3    H132106   7.027   3.548   4.133
10721TIP3    H232107   7.001   3.459   4.014
10722TIP3   OH232108   1.150   1.344   6.535
10722TIP3    H132109   1.154   1.268   6.477
10722TIP3    H232110   1.173   1.418   6.479
10723TIP3   OH232111   1.904   1.909   2.685
10723TIP3    H132112   1.948   1.948   2.609
10723TIP3    H232113   1.895   1.816   2.663
10724TIP3   OH232114   6.460   4.598   4.038
10724TIP3    H132115   6.405   4.651   3.980
10724TIP3    H232116   6.456   4.642   4.122
10725TIP3   OH232117   6.509   2.385   0.929
10725TIP3    H132118   6.494   2.313   0.867
10725TIP3    H232119   6.460   2.458   0.893
10726TIP3   OH232120   5.214   5.690   4.203
10726TIP3    H132121   5.224   5.699   4.298
10726TIP3    H232122   5.250   5.604   4.184
10727TIP3   OH232123   4.033   4.965   5.844
10727TIP3    H132124   3.972   4.921   5.903
10727TIP3    H232125   4.051   4.900   5.775
10728TIP3   OH232126   1.969   3.046   2.417
10728TIP3    H132127   1.892   3.055   2.362
10728TIP3    H232128   2.043   3.057   2.357
10729TIP3   OH232129   5.985   4.649   3.281
10729TIP3    H132130   5.915   4.712   3.296
10729TIP3    H232131   5.974   4.583   3.350
10730TIP3   OH232132   0.036   1.569   3.483
10730TIP3    H132133   0.032   1.565   3.578
10730TIP3    H232134   0.101   1.502   3.459
10731TIP3   OH232135   7.848   0.297   0.559
10731TIP3    H132136   7.809   0.244   0.489
10731TIP3    H232137   7.909   0.355   0.513
10732TIP3   OH232138   4.851   1.329   1.262
10732TIP3    H132139   4.920   1.392   1.240
10732TIP3    H232140   4.839   1.338   1.357
10733TIP3   OH232141   4.237   0.468   2.583
10733TIP3    H132142   4.262   0.377   2.596
10733TIP3    H232143   4.172   0.466   2.513
10734TIP3   OH232144   0.286   3.413   5.885
10734TIP3    H132145   0.211   3.363   5.854
10734TIP3    H232146   0.300   3.380   5.974
10735TIP3   OH232147   7.911   5.852   0.654
10735TIP3    H132148   7.859   5.931   0.637
10735TIP3    H232149   7.994   5.885   0.690
10736TIP3   OH232150   7.348   7.832   6.303
10736TIP3    H132151   7.272   7.815   6.248
10736TIP3    H232152   7.405   7.756   6.289
10737TIP3   OH232153   7.188   6.248   3.395
10737TIP3    H132154   7.136   6.305   3.451
10737TIP3    H232155   7.167   6.277   3.306
10738TIP3   OH232156   0.923   1.377   1.674
10738TIP3    H132157   0.956   1.375   1.763
10738TIP3    H232158   0.833   1.346   1.681
10739TIP3   OH232159   1.019   7.146   2.391
10739TIP3    H132160   1.086   7.187   2.337
10739TIP3    H232161   1.055   7.060   2.412
10740TIP3   OH232162   4.907   7.117   2.603
10740TIP3    H132163   4.998   7.114   2.633
10740TIP3    H232164   4.912   7.101   2.509
10741TIP3   OH232165   3.579   6.027   0.868
10741TIP3    H132166   3.667   5.990   0.880
10741TIP3    H232167   3.595   6.111   0.824
10742TIP3   OH232168   2.479   5.969   0.745
10742TIP3    H132169   2.477   5.940   0.836
10742TIP3    H232170   2.541   6.042   0.744
10743TIP3   OH232171   0.672   1.557   1.493
10743TIP3    H132172   0.676   1.573   1.587
10743TIP3    H232173   0.727   1.479   1.480
10744TIP3   OH232174   2.460   1.634   6.466
10744TIP3    H132175   2.417   1.713   6.497
10744TIP3    H232176   2.526   1.666   6.404
10745TIP3   OH232177   6.177   3.303   3.179
10745TIP3    H132178   6.257   3.302   3.232
10745TIP3    H232179   6.207   3.286   3.090
10746TIP3   OH232180   6.241   1.320   3.503
10746TIP3    H132181   6.284   1.386   3.556
10746TIP3    H232182   6.147   1.339   3.513
10747TIP3   OH232183   1.027   2.418   4.718
10747TIP3    H132184   1.041   2.464   4.801
10747TIP3    H232185   0.934   2.395   4.719
10748TIP3   OH232186   2.177   6.028   5.904
10748TIP3    H132187   2.240   6.011   5.975
10748TIP3    H232188   2.100   6.063   5.948
10749TIP3   OH232189   5.263   6.346   2.637
10749TIP3    H132190   5.206   6.368   2.710
10749TIP3    H232191   5.229   6.396   2.563
10750TIP3   OH232192   7.552   0.565   0.891
10750TIP3    H132193   7.575   0.598   0.804
10750TIP3    H232194   7.599   0.482   0.899
10751TIP3   OH232195   2.686   6.638   6.268
10751TIP3    H132196   2.715   6.701   6.335
10751TIP3    H232197   2.639   6.691   6.204
10752TIP3   OH232198   3.994   1.779   4.307
10752TIP3    H132199   4.005   1.866   4.269
10752TIP3    H232200   3.997   1.793   4.401
10753TIP3   OH232201   5.841   6.407   1.821
10753TIP3    H132202   5.800   6.491   1.801
10753TIP3    H232203   5.934   6.420   1.803
10754TIP3   OH232204   6.361   6.651   4.176
10754TIP3    H132205   6.345   6.612   4.091
10754TIP3    H232206   6.367   6.577   4.236
10755TIP3   OH232207   7.662   2.543   4.586
10755TIP3    H132208   7.643   2.508   4.673
10755TIP3    H232209   7.576   2.549   4.544
10756TIP3   OH232210   2.422   6.594   4.407
10756TIP3    H132211   2.474   6.661   4.364
10756TIP3    H232212   2.482   6.553   4.469
10757TIP3   OH232213   4.531   3.411   6.496
10757TIP3    H132214   4.591   3.342   6.525
10757TIP3    H232215   4.459   3.364   6.454
10758TIP3   OH232216   7.667   6.234   5.561
10758TIP3    H132217   7.620   6.186   5.493
10758TIP3    H232218   7.753   6.193   5.565
10759TIP3   OH232219   1.440   6.796   1.098
10759TIP3    H132220   1.370   6.736   1.123
10759TIP3    H232221   1.433   6.803   1.003
10760TIP3   OH232222   1.464   3.810   2.473
10760TIP3    H132223   1.389   3.799   2.415
10760TIP3    H232224   1.501   3.722   2.482
10761TIP3   OH232225   0.425   2.279   4.118
10761TIP3    H132226   0.423   2.196   4.164
10761TIP3    H232227   0.334   2.310   4.120
10762TIP3   OH232228   3.467   3.825   6.741
10762TIP3    H132229   3.446   3.760   6.673
10762TIP3    H232230   3.405   3.806   6.812
10763TIP3   OH232231   4.247   7.165   0.152
10763TIP3    H132232   4.226   7.208   0.235
10763TIP3    H232233   4.226   7.073   0.166
10764TIP3   OH232234   2.393   4.735   0.039
10764TIP3    H132235   2.443   4.685   0.104
10764TIP3    H232236   2.447   4.733  -0.040
10765TIP3   OH232237   3.469   1.941   2.065
10765TIP3    H132238   3.381   1.973   2.045
10765TIP3    H232239   3.490   1.884   1.991
10766TIP3   OH232240   2.560   0.940   1.500
10766TIP3    H132241   2.503   1.017   1.494
10766TIP3    H232242   2.505   0.868   1.469
10767TIP3   OH232243   4.609   7.773   2.524
10767TIP3    H132244   4.632   7.730   2.606
10767TIP3    H232245   4.555   7.709   2.477
10768TIP3   OH232246   5.066   5.191   5.564
10768TIP3    H132247   4.983   5.186   5.516
10768TIP3    H232248   5.074   5.282   5.590
10769TIP3   OH232249   3.119   5.150   0.109
10769TIP3    H132250   3.037   5.193   0.133
10769TIP3    H232251   3.092   5.072   0.061
10770TIP3   OH232252   1.369   0.682   3.942
10770TIP3    H132253   1.403   0.672   4.030
10770TIP3    H232254   1.323   0.766   3.944
10771TIP3   OH232255   4.513   2.783   4.689
10771TIP3    H132256   4.567   2.709   4.662
10771TIP3    H232257   4.538   2.854   4.629
10772TIP3   OH232258   2.846   3.478   0.019
10772TIP3    H132259   2.816   3.514  -0.065
10772TIP3    H232260   2.766   3.462   0.068
10773TIP3   OH232261   7.658   2.329   0.948
10773TIP3    H132262   7.681   2.264   0.882
10773TIP3    H232263   7.640   2.278   1.027
10774TIP3   OH232264   4.677   6.599   3.123
10774TIP3    H132265   4.768   6.573   3.135
10774TIP3    H232266   4.659   6.659   3.195
10775TIP3   OH232267   7.503   0.291   6.461
10775TIP3    H132268   7.466   0.204   6.448
10775TIP3    H232269   7.507   0.329   6.373
10776TIP3   OH232270   2.800   2.729   4.046
10776TIP3    H132271   2.886   2.713   4.006
10776TIP3    H232272   2.803   2.684   4.130
10777TIP3   OH232273   2.927   5.147   1.756
10777TIP3    H132274   2.952   5.088   1.827
10777TIP3    H232275   2.915   5.232   1.798
10778TIP3   OH232276   7.862   0.799   1.587
10778TIP3    H132277   7.855   0.705   1.571
10778TIP3    H232278   7.772   0.831   1.582
10779TIP3   OH232279   4.460   3.537   5.831
10779TIP3    H132280   4.432   3.466   5.774
10779TIP3    H232281   4.398   3.536   5.904
10780TIP3   OH232282   2.858   2.000   4.239
10780TIP3    H132283   2.918   1.930   4.214
10780TIP3    H232284   2.833   1.981   4.329
10781TIP3   OH232285   1.124   3.770   5.593
10781TIP3    H132286   1.029   3.761   5.604
10781TIP3    H232287   1.140   3.740   5.504
10782TIP3   OH232288   6.656   4.464   5.891
10782TIP3    H132289   6.704   4.467   5.808
10782TIP3    H232290   6.691   4.386   5.935
10783TIP3   OH232291   3.436   1.943   6.428
10783TIP3    H132292   3.521   1.914   6.461
10783TIP3    H232293   3.393   1.862   6.399
10784TIP3   OH232294   3.597   5.393   5.862
10784TIP3    H132295   3.639   5.464   5.911
10784TIP3    H232296   3.629   5.313   5.903
10785TIP3   OH232297   6.275   2.919   1.736
10785TIP3    H132298   6.264   2.864   1.814
10785TIP3    H232299   6.221   2.877   1.669
10786TIP3   OH232300   6.837   5.909   0.069
10786TIP3    H132301   6.827   5.949   0.155
10786TIP3    H232302   6.904   5.842   0.082
10787TIP3   OH232303   1.820   1.099   4.429
10787TIP3    H132304   1.803   1.030   4.493
10787TIP3    H232305   1.853   1.052   4.352
10788TIP3   OH232306   7.289   4.067   3.039
10788TIP3    H132307   7.332   3.983   3.053
10788TIP3    H232308   7.309   4.118   3.117
10789TIP3   OH232309   2.931   5.198   4.198
10789TIP3    H132310   2.865   5.266   4.218
10789TIP3    H232311   2.892   5.148   4.126
10790TIP3   OH232312   0.263   4.487   1.416
10790TIP3    H132313   0.323   4.539   1.469
10790TIP3    H232314   0.309   4.404   1.403
10791TIP3   OH232315   3.013   0.951   3.858
10791TIP3    H132316   3.058   1.009   3.796
10791TIP3    H232317   2.924   0.944   3.823
10792TIP3   OH232318   7.532   0.006   3.188
10792TIP3    H132319   7.474   0.064   3.237
10792TIP3    H232320   7.542   0.048   3.103
10793TIP3   OH232321   0.185   3.241   1.068
10793TIP3    H132322   0.193   3.201   0.981
10793TIP3    H232323   0.263   3.296   1.076
10794TIP3   OH232324   6.904   4.635   2.584
10794TIP3    H132325   6.843   4.635   2.658
10794TIP3    H232326   6.989   4.614   2.623
10795TIP3   OH232327   4.323   6.597   2.060
10795TIP3    H132328   4.355   6.667   2.117
10795TIP3    H232329   4.263   6.641   2.000
10796TIP3   OH232330   8.127   0.516   4.487
10796TIP3    H132331   8.082   0.479   4.562
10796TIP3    H232332   8.131   0.610   4.505
10797TIP3   OH232333   3.339   5.595   3.003
10797TIP3    H132334   3.340   5.565   3.094
10797TIP3    H232335   3.391   5.530   2.955
10798TIP3   OH232336   3.903   5.063   4.009
10798TIP3    H132337   3.849   5.132   4.047
10798TIP3    H232338   3.904   4.993   4.075
10799TIP3   OH232339   2.270   6.410   1.007
10799TIP3    H132340   2.174   6.414   1.013
10799TIP3    H232341   2.299   6.496   1.038
10800TIP3   OH232342   7.332   7.160   0.895
10800TIP3    H132343   7.295   7.079   0.861
10800TIP3    H232344   7.286   7.229   0.846
10801TIP3   OH232345   5.631   6.510   4.307
10801TIP3    H132346   5.560   6.453   4.277
10801TIP3    H232347   5.666   6.466   4.384
10802TIP3   OH232348   3.897   6.875   3.618
10802TIP3    H132349   3.804   6.869   3.595
10802TIP3    H232350   3.910   6.807   3.684
10803TIP3   OH232351   5.208   1.695   5.990
10803TIP3    H132352   5.192   1.694   5.895
10803TIP3    H232353   5.121   1.690   6.029
10804TIP3   OH232354   4.778   5.234   1.036
10804TIP3    H132355   4.685   5.215   1.050
10804TIP3    H232356   4.809   5.268   1.120
10805TIP3   OH232357   5.130   3.465   5.162
10805TIP3    H132358   5.208   3.425   5.123
10805TIP3    H232359   5.157   3.487   5.251
10806TIP3   OH232360   1.625   1.922   4.800
10806TIP3    H132361   1.578   1.955   4.723
10806TIP3    H232362   1.559   1.871   4.848
10807TIP3   OH232363   4.833   3.500   0.350
10807TIP3    H132364   4.752   3.509   0.299
10807TIP3    H232365   4.802   3.479   0.438
10808TIP3   OH232366   6.062   5.480   4.307
10808TIP3    H132367   6.078   5.428   4.229
10808TIP3    H232368   5.970   5.505   4.302
10809TIP3   OH232369   2.275   2.240   3.547
10809TIP3    H132370   2.341   2.272   3.486
10809TIP3    H232371   2.321   2.175   3.601
10810TIP3   OH232372   1.908   3.916   3.698
10810TIP3    H132373   1.935   3.825   3.707
10810TIP3    H232374   1.989   3.963   3.678
10811TIP3   OH232375   4.834   5.651   2.921
10811TIP3    H132376   4.800   5.573   2.965
10811TIP3    H232377   4.768   5.718   2.936
10812TIP3   OH232378   7.019   1.206   0.210
10812TIP3    H132379   7.078   1.147   0.162
10812TIP3    H232380   7.077   1.266   0.255
10813TIP3   OH232381   4.659   6.175   2.194
10813TIP3    H132382   4.600   6.106   2.226
10813TIP3    H232383   4.711   6.132   2.126
10814TIP3   OH232384   3.174   3.475   3.916
10814TIP3    H132385   3.153   3.462   4.009
10814TIP3    H232386   3.205   3.565   3.910
10815TIP3   OH232387   3.578   6.534   3.532
10815TIP3    H132388   3.632   6.502   3.459
10815TIP3    H232389   3.546   6.455   3.575
10816TIP3   OH232390   8.306   6.923   0.538
10816TIP3    H132391   8.264   6.860   0.480
10816TIP3    H232392   8.234   6.970   0.580
10817TIP3   OH232393   7.191   7.177   3.790
10817TIP3    H132394   7.187   7.250   3.728
10817TIP3    H232395   7.136   7.204   3.863
10818TIP3   OH232396   7.794   0.445   4.440
10818TIP3    H132397   7.764   0.519   4.493
10818TIP3    H232398   7.828   0.382   4.504
10819TIP3   OH232399   2.296   2.212   6.705
10819TIP3    H132400   2.354   2.155   6.654
10819TIP3    H232401   2.237   2.250   6.640
10820TIP3   OH232402   4.901   2.873   2.604
10820TIP3    H132403   4.863   2.929   2.537
10820TIP3    H232404   4.872   2.911   2.687
10821TIP3   OH232405   5.089   5.366   1.189
10821TIP3    H132406   5.137   5.330   1.115
10821TIP3    H232407   5.151   5.364   1.261
10822TIP3   OH232408   5.019   0.980   6.604
10822TIP3    H132409   5.045   1.071   6.590
10822TIP3    H232410   4.962   0.984   6.681
10823TIP3   OH232411   1.726   1.280   4.599
10823TIP3    H132412   1.759   1.223   4.530
10823TIP3    H232413   1.781   1.358   4.595
10824TIP3   OH232414   7.165   6.417   6.628
10824TIP3    H132415   7.185   6.458   6.544
10824TIP3    H232416   7.155   6.490   6.689
10825TIP3   OH232417   3.533   5.059   5.198
10825TIP3    H132418   3.475   5.091   5.129
10825TIP3    H232419   3.617   5.102   5.181
10826TIP3   OH232420   5.752   2.653   0.505
10826TIP3    H132421   5.671   2.693   0.474
10826TIP3    H232422   5.724   2.584   0.565
10827TIP3   OH232423   6.244   0.892   4.511
10827TIP3    H132424   6.256   0.833   4.585
10827TIP3    H232425   6.201   0.838   4.445
10828TIP3   OH232426   5.580   4.081   4.397
10828TIP3    H132427   5.574   4.167   4.439
10828TIP3    H232428   5.521   4.087   4.322
10829TIP3   OH232429   2.300   4.872   4.282
10829TIP3    H132430   2.219   4.873   4.231
10829TIP3    H232431   2.365   4.913   4.225
10830TIP3   OH232432   6.668   4.376   4.087
10830TIP3    H132433   6.753   4.399   4.125
10830TIP3    H232434   6.617   4.456   4.095
10831TIP3   OH232435   7.622   4.554   6.355
10831TIP3    H132436   7.625   4.630   6.296
10831TIP3    H232437   7.532   4.521   6.348
10832TIP3   OH232438   6.868   3.959   0.353
10832TIP3    H132439   6.926   4.031   0.330
10832TIP3    H232440   6.831   3.931   0.269
10833TIP3   OH232441   2.510   0.596   2.201
10833TIP3    H132442   2.526   0.581   2.294
10833TIP3    H232443   2.428   0.646   2.199
10834TIP3   OH232444   5.266   0.529   3.125
10834TIP3    H132445   5.243   0.470   3.197
10834TIP3    H232446   5.182   0.548   3.083
10835TIP3   OH232447   3.468   0.818   0.561
10835TIP3    H132448   3.435   0.814   0.651
10835TIP3    H232449   3.517   0.736   0.550
10836TIP3   OH232450   1.697   7.074   3.982
10836TIP3    H132451   1.762   7.005   3.990
10836TIP3    H232452   1.740   7.152   4.019
10837TIP3   OH232453   4.096   6.342   4.830
10837TIP3    H132454   4.187   6.362   4.804
10837TIP3    H232455   4.105   6.289   4.909
10838TIP3   OH232456   0.688   3.260   1.017
10838TIP3    H132457   0.777   3.260   1.051
10838TIP3    H232458   0.674   3.348   0.984
10839TIP3   OH232459   5.980   3.269   0.061
10839TIP3    H132460   6.055   3.327   0.048
10839TIP3    H232461   5.988   3.238   0.151
10840TIP3   OH232462   1.238   3.327   6.523
10840TIP3    H132463   1.267   3.413   6.492
10840TIP3    H232464   1.251   3.331   6.618
10841TIP3   OH232465   2.467   7.730   3.975
10841TIP3    H132466   2.372   7.739   3.982
10841TIP3    H232467   2.499   7.820   3.963
10842TIP3   OH232468   6.194   2.664   4.696
10842TIP3    H132469   6.142   2.619   4.763
10842TIP3    H232470   6.135   2.673   4.622
10843TIP3   OH232471   0.520   0.228   0.346
10843TIP3    H132472   0.433   0.195   0.367
10843TIP3    H232473   0.506   0.281   0.267
10844TIP3   OH232474   0.432   6.146   3.714
10844TIP3    H132475   0.348   6.191   3.722
10844TIP3    H232476   0.474   6.156   3.799
10845TIP3   OH232477   4.717   0.411   4.563
10845TIP3    H132478   4.786   0.432   4.500
10845TIP3    H232479   4.644   0.379   4.508
10846TIP3   OH232480   4.711   3.768   0.630
10846TIP3    H132481   4.684   3.781   0.539
10846TIP3    H232482   4.634   3.728   0.672
10847TIP3   OH232483   4.588   1.405   0.399
10847TIP3    H132484   4.509   1.352   0.384
10847TIP3    H232485   4.583   1.428   0.492
10848TIP3   OH232486   4.377   4.403   4.575
10848TIP3    H132487   4.304   4.453   4.610
10848TIP3    H232488   4.370   4.318   4.617
10849TIP3   OH232489   3.100   7.630   6.651
10849TIP3    H132490   3.050   7.705   6.684
10849TIP3    H232491   3.051   7.554   6.682
10850TIP3   OH232492   6.873   4.051   3.945
10850TIP3    H132493   6.826   4.057   4.028
10850TIP3    H232494   6.857   3.962   3.914
10851TIP3   OH232495   5.161   7.792   3.526
10851TIP3    H132496   5.176   7.794   3.621
10851TIP3    H232497   5.136   7.702   3.507
10852TIP3   OH232498   0.722   4.669   1.845
10852TIP3    H132499   0.732   4.574   1.841
10852TIP3    H232500   0.662   4.683   1.918
10853TIP3   OH232501   2.651   4.141   2.672
10853TIP3    H132502   2.631   4.190   2.592
10853TIP3    H232503   2.670   4.209   2.737
10854TIP3   OH232504   5.615   4.777   1.478
10854TIP3    H132505   5.680   4.836   1.515
10854TIP3    H232506   5.598   4.812   1.390
10855TIP3   OH232507   3.616   5.251   0.925
10855TIP3    H132508   3.572   5.166   0.925
10855TIP3    H232509   3.552   5.312   0.890
10856TIP3   OH232510   5.979   6.095   2.346
10856TIP3    H132511   5.893   6.069   2.378
10856TIP3    H232512   5.978   6.072   2.253
10857TIP3   OH232513   0.877   0.818   6.010
10857TIP3    H132514   0.916   0.890   6.059
10857TIP3    H232515   0.927   0.816   5.928
10858TIP3   OH232516   4.729   6.844   6.458
10858TIP3    H132517   4.785   6.893   6.520
10858TIP3    H232518   4.777   6.763   6.442
10859TIP3   OH232519   2.707   3.385   5.055
10859TIP3    H132520   2.634   3.324   5.069
10859TIP3    H232521   2.684   3.430   4.974
10860TIP3   OH232522   4.275   2.414   1.760
10860TIP3    H132523   4.196   2.442   1.806
10860TIP3    H232524   4.292   2.325   1.793
10861TIP3   OH232525   6.326   1.582   6.727
10861TIP3    H132526   6.317   1.676   6.742
10861TIP3    H232527   6.401   1.574   6.668
10862TIP3   OH232528   5.620   5.452   3.126
10862TIP3    H132529   5.636   5.477   3.217
10862TIP3    H232530   5.530   5.420   3.126
10863TIP3   OH232531   3.364   0.177   6.690
10863TIP3    H132532   3.389   0.196   6.780
10863TIP3    H232533   3.283   0.126   6.698
10864TIP3   OH232534   1.526   0.195   2.126
10864TIP3    H132535   1.592   0.155   2.069
10864TIP3    H232536   1.483   0.260   2.070
10865TIP3   OH232537   3.155   2.045   5.663
10865TIP3    H132538   3.194   2.024   5.578
10865TIP3    H232539   3.227   2.036   5.725
10866TIP3   OH232540   2.574   3.164   4.369
10866TIP3    H132541   2.558   3.255   4.345
10866TIP3    H232542   2.488   3.129   4.390
10867TIP3   OH232543   2.080   3.362   4.432
10867TIP3    H132544   2.160   3.392   4.476
10867TIP3    H232545   2.055   3.283   4.479
10868TIP3   OH232546   5.781   6.972   0.138
10868TIP3    H132547   5.757   6.984   0.046
10868TIP3    H232548   5.876   6.966   0.138
10869TIP3   OH232549   0.735   2.220   1.161
10869TIP3    H132550   0.813   2.169   1.141
10869TIP3    H232551   0.663   2.166   1.127
10870TIP3   OH232552   7.423   1.770   6.678
10870TIP3    H132553   7.338   1.812   6.666
10870TIP3    H232554   7.483   1.841   6.699
10871TIP3   OH232555   7.981   3.116   1.404
10871TIP3    H132556   8.009   3.131   1.495
10871TIP3    H232557   7.985   3.202   1.363
10872TIP3   OH232558   2.006   2.253   3.524
10872TIP3    H132559   1.975   2.166   3.550
10872TIP3    H232560   2.100   2.241   3.507
10873TIP3   OH232561   4.594   0.049   2.342
10873TIP3    H132562   4.643  -0.033   2.339
10873TIP3    H232563   4.545   0.044   2.424
10874TIP3   OH232564   3.600   6.706   3.759
10874TIP3    H132565   3.559   6.792   3.749
10874TIP3    H232566   3.583   6.662   3.676
10875TIP3   OH232567   3.831   0.273   3.615
10875TIP3    H132568   3.876   0.357   3.621
10875TIP3    H232569   3.898   0.212   3.586
10876TIP3   OH232570   6.397   7.712   5.773
10876TIP3    H132571   6.302   7.713   5.784
10876TIP3    H232572   6.420   7.619   5.768
10877TIP3   OH232573   2.765   4.186   0.132
10877TIP3    H132574   2.675   4.192   0.165
10877TIP3    H232575   2.798   4.276   0.135
10878TIP3   OH232576   6.835   5.903   3.581
10878TIP3    H132577   6.794   5.932   3.499
10878TIP3    H232578   6.782   5.942   3.650
10879TIP3   OH232579   6.901   6.559   6.381
10879TIP3    H132580   6.841   6.614   6.331
10879TIP3    H232581   6.966   6.530   6.317
10880TIP3   OH232582   4.061   1.975   6.570
10880TIP3    H132583   4.056   2.003   6.661
10880TIP3    H232584   4.050   2.056   6.520
10881TIP3   OH232585   6.016   0.963   3.471
10881TIP3    H132586   6.023   0.877   3.514
10881TIP3    H232587   6.042   1.026   3.538
10882TIP3   OH232588   6.287   0.172   2.563
10882TIP3    H132589   6.298   0.080   2.539
10882TIP3    H232590   6.377   0.205   2.569
10883TIP3   OH232591   4.707   1.375   1.496
10883TIP3    H132592   4.680   1.285   1.516
10883TIP3    H232593   4.652   1.401   1.422
10884TIP3   OH232594   1.478   2.064   3.235
10884TIP3    H132595   1.457   2.101   3.149
10884TIP3    H232596   1.406   2.003   3.253
10885TIP3   OH232597   3.990   6.745   0.850
10885TIP3    H132598   3.993   6.667   0.905
10885TIP3    H232599   3.935   6.719   0.776
10886TIP3   OH232600   4.746   5.855   5.076
10886TIP3    H132601   4.711   5.883   4.992
10886TIP3    H232602   4.712   5.918   5.139
10887TIP3   OH232603   2.015   7.011   5.758
10887TIP3    H132604   1.971   7.026   5.674
10887TIP3    H232605   2.002   6.917   5.774
10888TIP3   OH232606   0.718   5.365   5.130
10888TIP3    H132607   0.812   5.371   5.114
10888TIP3    H232608   0.682   5.331   5.048
10889TIP3   OH232609   0.407   2.593   1.809
10889TIP3    H132610   0.376   2.675   1.847
10889TIP3    H232611   0.354   2.581   1.730
10890TIP3   OH232612   3.248   5.750   1.924
10890TIP3    H132613   3.192   5.793   1.858
10890TIP3    H232614   3.337   5.762   1.891
10891TIP3   OH232615   3.542   6.361   5.178
10891TIP3    H132616   3.575   6.440   5.136
10891TIP3    H232617   3.587   6.357   5.262
10892TIP3   OH232618   1.965   3.178   5.895
10892TIP3    H132619   1.885   3.145   5.853
10892TIP3    H232620   1.968   3.132   5.979
10893TIP3   OH232621   3.657   1.770   4.176
10893TIP3    H132622   3.638   1.859   4.145
10893TIP3    H232623   3.692   1.726   4.099
10894TIP3   OH232624   3.177   4.491   5.819
10894TIP3    H132625   3.096   4.534   5.792
10894TIP3    H232626   3.162   4.468   5.911
10895TIP3   OH232627   7.108   0.014   5.351
10895TIP3    H132628   7.081   0.041   5.263
10895TIP3    H232629   7.100   0.093   5.404
10896TIP3   OH232630   2.951   7.373   0.710
10896TIP3    H132631   2.948   7.278   0.707
10896TIP3    H232632   2.989   7.394   0.795
10897TIP3   OH232633   0.913   3.607   2.678
10897TIP3    H132634   0.940   3.519   2.653
10897TIP3    H232635   0.872   3.643   2.599
10898TIP3   OH232636   2.511   0.527   4.074
10898TIP3    H132637   2.420   0.518   4.045
10898TIP3    H232638   2.531   0.620   4.063
10899TIP3   OH232639   7.936   5.846   1.186
10899TIP3    H132640   7.917   5.926   1.138
10899TIP3    H232641   8.000   5.872   1.252
10900TIP3   OH232642   4.937   0.770   1.993
10900TIP3    H132643   4.986   0.852   1.984
10900TIP3    H232644   4.977   0.726   2.068
10901TIP3   OH232645   1.137   1.465   2.711
10901TIP3    H132646   1.168   1.386   2.668
10901TIP3    H232647   1.145   1.534   2.645
10902TIP3   OH232648   1.678   0.275   6.667
10902TIP3    H132649   1.766   0.311   6.674
10902TIP3    H232650   1.623   0.333   6.719
10903TIP3   OH232651   6.391   7.130   5.726
10903TIP3    H132652   6.332   7.087   5.788
10903TIP3    H232653   6.339   7.138   5.646
10904TIP3   OH232654   4.879   2.761   0.340
10904TIP3    H132655   4.873   2.697   0.269
10904TIP3    H232656   4.874   2.846   0.297
10905TIP3   OH232657   2.622   1.548   3.267
10905TIP3    H132658   2.631   1.507   3.181
10905TIP3    H232659   2.675   1.628   3.261
10906TIP3   OH232660   1.702   1.580   5.084
10906TIP3    H132661   1.795   1.585   5.061
10906TIP3    H232662   1.666   1.513   5.026
10907TIP3   OH232663   4.178   5.359   4.495
10907TIP3    H132664   4.173   5.319   4.409
10907TIP3    H232665   4.102   5.418   4.499
10908TIP3   OH232666   2.667   1.259   5.880
10908TIP3    H132667   2.581   1.240   5.843
10908TIP3    H232668   2.729   1.224   5.816
10909TIP3   OH232669   3.904   7.113   6.511
10909TIP3    H132670   3.900   7.072   6.598
10909TIP3    H232671   3.890   7.041   6.450
10910TIP3   OH232672   6.427   4.624   3.669
10910TIP3    H132673   6.399   4.586   3.585
10910TIP3    H232674   6.490   4.562   3.704
10911TIP3   OH232675   0.307   4.332   5.845
10911TIP3    H132676   0.344   4.369   5.765
10911TIP3    H232677   0.223   4.377   5.856
10912TIP3   OH232678   4.801   5.063   4.389
10912TIP3    H132679   4.891   5.084   4.412
10912TIP3    H232680   4.805   4.976   4.350
10913TIP3   OH232681   5.013   1.234   0.469
10913TIP3    H132682   5.076   1.306   0.468
10913TIP3    H232683   4.966   1.242   0.386
10914TIP3   OH232684   5.581   7.092   2.772
10914TIP3    H132685   5.622   7.147   2.705
10914TIP3    H232686   5.565   7.151   2.846
10915TIP3   OH232687   0.931   6.868   6.420
10915TIP3    H132688   0.840   6.838   6.433
10915TIP3    H232689   0.924   6.939   6.356
10916TIP3   OH232690   7.701   1.409   2.113
10916TIP3    H132691   7.643   1.432   2.185
10916TIP3    H232692   7.764   1.481   2.109
10917TIP3   OH232693   2.421   3.491   0.851
10917TIP3    H132694   2.479   3.545   0.904
10917TIP3    H232695   2.337   3.537   0.854
10918TIP3   OH232696   7.423   6.270   6.545
10918TIP3    H132697   7.333   6.279   6.576
10918TIP3    H232698   7.425   6.184   6.502
10919TIP3   OH232699   5.800   3.318   2.049
10919TIP3    H132700   5.859   3.243   2.039
10919TIP3    H232701   5.806   3.365   1.966
10920TIP3   OH232702   5.478   7.295   3.576
10920TIP3    H132703   5.554   7.301   3.634
10920TIP3    H232704   5.502   7.228   3.511
10921TIP3   OH232705   6.883   1.478   1.182
10921TIP3    H132706   6.857   1.566   1.209
10921TIP3    H232707   6.970   1.490   1.143
10922TIP3   OH232708   4.118   3.852   0.657
10922TIP3    H132709   4.196   3.887   0.699
10922TIP3    H232710   4.069   3.811   0.728
10923TIP3   OH232711   7.715   1.167   2.666
10923TIP3    H132712   7.629   1.132   2.687
10923TIP3    H232713   7.721   1.247   2.719
10924TIP3   OH232714   1.122   3.222   0.601
10924TIP3    H132715   1.074   3.141   0.620
10924TIP3    H232716   1.111   3.236   0.508
10925TIP3   OH232717   5.097   0.294   4.685
10925TIP3    H132718   5.079   0.357   4.755
10925TIP3    H232719   5.075   0.209   4.723
10926TIP3   OH232720   0.291   6.866   0.999
10926TIP3    H132721   0.266   6.842   1.088
10926TIP3    H232722   0.332   6.787   0.964
10927TIP3   OH232723   5.205   6.742   5.534
10927TIP3    H132724   5.206   6.657   5.491
10927TIP3    H232725   5.122   6.743   5.583
10928TIP3   OH232726   6.908   6.198   6.086
10928TIP3    H132727   6.978   6.247   6.042
10928TIP3    H232728   6.930   6.106   6.072
10929TIP3   OH232729   4.974   4.436   3.187
10929TIP3    H132730   5.007   4.352   3.217
10929TIP3    H232731   4.964   4.426   3.092
10930TIP3   OH232732   6.008   2.383   1.152
10930TIP3    H132733   6.032   2.396   1.061
10930TIP3    H232734   6.084   2.340   1.191
10931TIP3   OH232735   3.991   0.921   5.413
10931TIP3    H132736   4.032   0.860   5.474
10931TIP3    H232737   4.056   0.990   5.400
10932TIP3   OH232738   3.623   3.294   2.856
10932TIP3    H132739   3.559   3.300   2.785
10932TIP3    H232740   3.674   3.374   2.849
10933TIP3   OH232741   2.611   2.056   0.259
10933TIP3    H132742   2.641   1.992   0.324
10933TIP3    H232743   2.619   2.011   0.175
10934TIP3   OH232744   6.734   1.714   4.400
10934TIP3    H132745   6.785   1.657   4.458
10934TIP3    H232746   6.799   1.759   4.347
10935TIP3   OH232747   7.579   5.999   6.637
10935TIP3    H132748   7.612   6.084   6.607
10935TIP3    H232749   7.635   5.976   6.711
10936TIP3   OH232750   5.643   2.526   2.251
10936TIP3    H132751   5.706   2.456   2.237
10936TIP3    H232752   5.645   2.577   2.170
10937TIP3   OH232753   0.638   3.744   4.074
10937TIP3    H132754   0.693   3.668   4.094
10937TIP3    H232755   0.558   3.730   4.125
10938TIP3   OH232756   0.443   5.139   0.741
10938TIP3    H132757   0.508   5.210   0.731
10938TIP3    H232758   0.410   5.149   0.831
10939TIP3   OH232759   3.257   3.119   2.096
10939TIP3    H132760   3.342   3.142   2.059
10939TIP3    H232761   3.216   3.203   2.116
10940TIP3   OH232762   6.020   4.065   3.313
10940TIP3    H132763   5.949   4.001   3.313
10940TIP3    H232764   6.035   4.083   3.406
10941TIP3   OH232765   7.488   6.538   0.028
10941TIP3    H132766   7.437   6.572   0.101
10941TIP3    H232767   7.445   6.574  -0.050
10942TIP3   OH232768   4.363   1.221   2.335
10942TIP3    H132769   4.445   1.237   2.380
10942TIP3    H232770   4.315   1.304   2.340
10943TIP3   OH232771   2.706   5.643   4.000
10943TIP3    H132772   2.789   5.598   3.981
10943TIP3    H232773   2.642   5.600   3.944
10944TIP3   OH232774   6.826   1.838   6.170
10944TIP3    H132775   6.741   1.881   6.168
10944TIP3    H232776   6.856   1.847   6.260
10945TIP3   OH232777   3.973   3.631   3.921
10945TIP3    H132778   3.901   3.656   3.863
10945TIP3    H232779   3.984   3.705   3.980
10946TIP3   OH232780   4.539   5.849   3.954
10946TIP3    H132781   4.525   5.857   4.049
10946TIP3    H232782   4.500   5.928   3.918
10947TIP3   OH232783   4.293   2.478   2.832
10947TIP3    H132784   4.242   2.523   2.765
10947TIP3    H232785   4.247   2.497   2.914
10948TIP3   OH232786   6.582   2.644   1.049
10948TIP3    H132787   6.581   2.550   1.071
10948TIP3    H232788   6.658   2.654   0.992
10949TIP3   OH232789   7.805   0.312   6.470
10949TIP3    H132790   7.808   0.217   6.479
10949TIP3    H232791   7.711   0.332   6.462
10950TIP3   OH232792   5.509   4.290   0.371
10950TIP3    H132793   5.539   4.308   0.460
10950TIP3    H232794   5.432   4.345   0.360
10951TIP3   OH232795   8.001   3.937   4.182
10951TIP3    H132796   8.082   3.929   4.232
10951TIP3    H232797   7.958   3.852   4.192
10952TIP3   OH232798   5.923   6.983   0.491
10952TIP3    H132799   5.973   6.917   0.538
10952TIP3    H232800   5.919   6.951   0.401
10953TIP3   OH232801   7.226   6.376   3.123
10953TIP3    H132802   7.285   6.410   3.056
10953TIP3    H232803   7.145   6.356   3.077
10954TIP3   OH232804   4.329   4.419   0.330
10954TIP3    H132805   4.313   4.513   0.322
10954TIP3    H232806   4.310   4.384   0.242
10955TIP3   OH232807   0.468   6.221   5.387
10955TIP3    H132808   0.556   6.228   5.349
10955TIP3    H232809   0.418   6.290   5.343
10956TIP3   OH232810   3.001   1.873   5.903
10956TIP3    H132811   3.084   1.914   5.927
10956TIP3    H232812   2.956   1.859   5.986
10957TIP3   OH232813   4.400   6.634   6.390
10957TIP3    H132814   4.449   6.647   6.309
10957TIP3    H232815   4.325   6.693   6.383
10958TIP3   OH232816   6.972   0.582   2.139
10958TIP3    H132817   6.918   0.658   2.117
10958TIP3    H232818   7.037   0.578   2.069
10959TIP3   OH232819   8.197   3.366   3.040
10959TIP3    H132820   8.289   3.387   3.025
10959TIP3    H232821   8.149   3.438   2.999
10960TIP3   OH232822   1.357   1.355   3.119
10960TIP3    H132823   1.414   1.304   3.176
10960TIP3    H232824   1.416   1.405   3.062
10961TIP3   OH232825   1.856   5.394   1.006
10961TIP3    H132826   1.772   5.352   0.987
10961TIP3    H232827   1.863   5.393   1.102
10962TIP3   OH232828   7.777   3.052   2.485
10962TIP3    H132829   7.787   3.144   2.461
10962TIP3    H232830   7.812   3.045   2.573
10963TIP3   OH232831   6.126   5.047   6.608
10963TIP3    H132832   6.046   5.094   6.627
10963TIP3    H232833   6.100   4.978   6.547
10964TIP3   OH232834   6.126   0.815   2.716
10964TIP3    H132835   6.041   0.845   2.684
10964TIP3    H232836   6.128   0.843   2.807
10965TIP3   OH232837   0.433   4.644   3.252
10965TIP3    H132838   0.453   4.571   3.312
10965TIP3    H232839   0.517   4.664   3.210
10966TIP3   OH232840   7.534   7.578   1.397
10966TIP3    H132841   7.549   7.606   1.307
10966TIP3    H232842   7.440   7.559   1.400
10967TIP3   OH232843   1.098   5.099   1.898
10967TIP3    H132844   1.032   5.139   1.954
10967TIP3    H232845   1.112   5.012   1.936
10968TIP3   OH232846   0.001   4.235   3.605
10968TIP3    H132847   0.006   4.147   3.642
10968TIP3    H232848  -0.006   4.293   3.680
10969TIP3   OH232849   3.225   3.295   0.670
10969TIP3    H132850   3.167   3.358   0.626
10969TIP3    H232851   3.178   3.271   0.750
10970TIP3   OH232852   0.393   0.213   6.222
10970TIP3    H132853   0.458   0.174   6.281
10970TIP3    H232854   0.443   0.237   6.144
10971TIP3   OH232855   3.619   0.744   0.899
10971TIP3    H132856   3.645   0.809   0.833
10971TIP3    H232857   3.699   0.697   0.919
10972TIP3   OH232858   5.985   6.359   2.479
10972TIP3    H132859   6.006   6.282   2.426
10972TIP3    H232860   5.967   6.325   2.566
10973TIP3   OH232861   6.939   0.475   4.702
10973TIP3    H132862   6.940   0.555   4.650
10973TIP3    H232863   6.889   0.412   4.649
10974TIP3   OH232864   1.998   6.872   2.046
10974TIP3    H132865   1.977   6.927   1.971
10974TIP3    H232866   1.957   6.916   2.120
10975TIP3   OH232867   4.239   6.683   6.660
10975TIP3    H132868   4.330   6.681   6.628
10975TIP3    H232869   4.239   6.751   6.728
10976TIP3   OH232870   5.801   6.400   4.073
10976TIP3    H132871   5.766   6.320   4.033
10976TIP3    H232872   5.725   6.441   4.115
10977TIP3   OH232873   3.959   2.903   5.559
10977TIP3    H132874   3.947   2.935   5.649
10977TIP3    H232875   4.021   2.831   5.569
10978TIP3   OH232876   5.941   1.182   6.645
10978TIP3    H132877   5.938   1.271   6.610
10978TIP3    H232878   5.849   1.155   6.649
10979TIP3   OH232879   5.356   5.248   2.282
10979TIP3    H132880   5.287   5.251   2.348
10979TIP3    H232881   5.317   5.199   2.209
10980TIP3   OH232882   2.192   6.975   4.903
10980TIP3    H132883   2.129   6.903   4.910
10980TIP3    H232884   2.142   7.053   4.929
10981TIP3   OH232885   3.161   0.334   3.475
10981TIP3    H132886   3.073   0.371   3.464
10981TIP3    H232887   3.162   0.303   3.566
10982TIP3   OH232888   2.366   2.612   1.502
10982TIP3    H132889   2.355   2.643   1.412
10982TIP3    H232890   2.344   2.687   1.557
10983TIP3   OH232891   5.920   7.524   5.459
10983TIP3    H132892   5.880   7.571   5.532
10983TIP3    H232893   5.897   7.576   5.382
10984TIP3   OH232894   8.077   2.409   0.422
10984TIP3    H132895   8.115   2.321   0.422
10984TIP3    H232896   8.001   2.403   0.363
10985TIP3   OH232897   4.289   3.694   4.128
10985TIP3    H132898   4.254   3.669   4.214
10985TIP3    H232899   4.319   3.784   4.140
10986TIP3   OH232900   4.555   2.672   2.037
10986TIP3    H132901   4.613   2.600   2.063
10986TIP3    H232902   4.609   2.751   2.048
10987TIP3   OH232903   2.207   7.708   5.388
10987TIP3    H132904   2.191   7.801   5.403
10987TIP3    H232905   2.146   7.684   5.319
10988TIP3   OH232906   3.074   4.536   4.765
10988TIP3    H132907   3.095   4.629   4.761
10988TIP3    H232908   3.140   4.494   4.710
10989TIP3   OH232909   2.590   2.271   1.292
10989TIP3    H132910   2.590   2.329   1.368
10989TIP3    H232911   2.550   2.190   1.324
10990TIP3   OH232912   2.693   0.831   0.731
10990TIP3    H132913   2.776   0.808   0.689
10990TIP3    H232914   2.669   0.915   0.692
10991TIP3   OH232915   7.086   0.867   0.242
10991TIP3    H132916   7.032   0.933   0.286
10991TIP3    H232917   7.034   0.840   0.167
10992TIP3   OH232918   0.753   0.895   4.345
10992TIP3    H132919   0.847   0.907   4.334
10992TIP3    H232920   0.713   0.936   4.269
10993TIP3   OH232921   4.250   4.572   4.234
10993TIP3    H132922   4.239   4.480   4.210
10993TIP3    H232923   4.271   4.570   4.327
10994TIP3   OH232924   2.095   6.503   0.688
10994TIP3    H132925   2.037   6.491   0.612
10994TIP3    H232926   2.127   6.415   0.708
10995TIP3   OH232927   7.557   1.969   0.859
10995TIP3    H132928   7.616   1.927   0.922
10995TIP3    H232929   7.615   2.006   0.793
10996TIP3   OH232930   1.298   7.312   6.567
10996TIP3    H132931   1.348   7.263   6.632
10996TIP3    H232932   1.249   7.245   6.519
10997TIP3   OH232933   7.362   3.745   1.947
10997TIP3    H132934   7.367   3.743   1.851
10997TIP3    H232935   7.388   3.834   1.971
10998TIP3   OH232936   6.901   4.362   5.138
10998TIP3    H132937   6.905   4.443   5.188
10998TIP3    H232938   6.844   4.305   5.189
10999TIP3   OH232939   3.852   1.259   4.121
10999TIP3    H132940   3.771   1.217   4.150
10999TIP3    H232941   3.865   1.332   4.182
11000TIP3   OH232942   3.621   1.256   4.724
11000TIP3    H132943   3.595   1.192   4.791
11000TIP3    H232944   3.562   1.238   4.650
11001TIP3   OH232945   4.510   3.030   2.590
11001TIP3    H132946   4.478   2.985   2.512
11001TIP3    H232947   4.473   2.981   2.663
11002TIP3   OH232948   0.108   3.923   2.249
11002TIP3    H132949   0.169   3.906   2.321
11002TIP3    H232950   0.031   3.961   2.291
11003TIP3   OH232951   0.588   5.055   5.973
11003TIP3    H132952   0.661   5.071   6.033
11003TIP3    H232953   0.629   5.045   5.888
11004TIP3   OH232954   3.245   3.718   6.167
11004TIP3    H132955   3.191   3.646   6.200
11004TIP3    H232956   3.329   3.676   6.145
11005TIP3   OH232957   8.164   6.581   2.844
11005TIP3    H132958   8.180   6.531   2.924
11005TIP3    H232959   8.074   6.614   2.854
11006TIP3   OH232960   6.886   7.585   0.599
11006TIP3    H132961   6.823   7.574   0.671
11006TIP3    H232962   6.832   7.601   0.522
11007TIP3   OH232963   2.907   7.695   3.803
11007TIP3    H132964   2.899   7.785   3.834
11007TIP3    H232965   2.979   7.658   3.853
11008TIP3   OH232966   3.934   0.740   0.097
11008TIP3    H132967   3.907   0.786   0.176
11008TIP3    H232968   3.913   0.648   0.115
11009TIP3   OH232969   4.850   6.467   1.529
11009TIP3    H132970   4.886   6.506   1.449
11009TIP3    H232971   4.914   6.402   1.555
11010TIP3   OH232972   0.494   7.785   5.433
11010TIP3    H132973   0.537   7.749   5.510
11010TIP3    H232974   0.548   7.861   5.409
11011TIP3   OH232975   5.923   3.336   3.081
11011TIP3    H132976   6.015   3.349   3.104
11011TIP3    H232977   5.917   3.245   3.054
11012TIP3   OH232978   6.898   4.601   5.286
11012TIP3    H132979   6.983   4.645   5.277
11012TIP3    H232980   6.847   4.659   5.343
11013TIP3   OH232981   1.607   0.483   4.761
11013TIP3    H132982   1.693   0.522   4.774
11013TIP3    H232983   1.571   0.531   4.686
11014TIP3   OH232984   3.115   4.113   1.442
11014TIP3    H132985   3.155   4.066   1.515
11014TIP3    H232986   3.167   4.194   1.436
11015TIP3   OH232987   2.083   2.211   2.069
11015TIP3    H132988   2.048   2.124   2.049
11015TIP3    H232989   2.092   2.213   2.164
11016TIP3   OH232990   3.254   5.127   5.047
11016TIP3    H132991   3.239   5.061   4.980
11016TIP3    H232992   3.252   5.078   5.129
11017TIP3   OH232993   2.085   1.935   4.495
11017TIP3    H132994   2.067   1.945   4.402
11017TIP3    H232995   2.018   1.873   4.526
11018TIP3   OH232996   1.621   6.219   6.718
11018TIP3    H132997   1.677   6.258   6.650
11018TIP3    H232998   1.682   6.179   6.780
11019TIP3   OH232999   7.709   6.956   5.619
11019TIP3    H133000   7.675   6.878   5.575
11019TIP3    H233001   7.751   7.006   5.550
11020TIP3   OH233002   1.445   3.309   2.259
11020TIP3    H133003   1.381   3.363   2.213
11020TIP3    H233004   1.462   3.356   2.341
11021TIP3   OH233005   3.219   6.401   4.162
11021TIP3    H133006   3.240   6.338   4.094
11021TIP3    H233007   3.144   6.363   4.208
11022TIP3   OH233008   6.979   6.866   5.473
11022TIP3    H133009   6.932   6.932   5.422
11022TIP3    H233010   6.929   6.860   5.555
11023TIP3   OH233011   6.344   0.712   3.422
11023TIP3    H133012   6.330   0.802   3.451
11023TIP3    H233013   6.371   0.721   3.330
11024TIP3   OH233014   7.348   3.183   0.274
11024TIP3    H133015   7.257   3.214   0.274
11024TIP3    H233016   7.344   3.098   0.229
11025TIP3   OH233017   7.842   0.036   4.205
11025TIP3    H133018   7.922  -0.001   4.243
11025TIP3    H233019   7.868   0.123   4.175
11026TIP3   OH233020   8.150   7.711   3.451
11026TIP3    H133021   8.146   7.744   3.361
11026TIP3    H233022   8.059   7.706   3.479
11027TIP3   OH233023   2.387   2.912   5.681
11027TIP3    H133024   2.439   2.921   5.760
11027TIP3    H233025   2.310   2.968   5.696
11028TIP3   OH233026   2.199   1.043   3.171
11028TIP3    H133027   2.124   1.064   3.116
11028TIP3    H233028   2.167   0.976   3.232
11029TIP3   OH233029   5.607   5.777   3.828
11029TIP3    H133030   5.609   5.805   3.737
11029TIP3    H233031   5.513   5.766   3.848
11030TIP3   OH233032   8.044   2.395   5.957
11030TIP3    H133033   7.965   2.382   6.010
11030TIP3    H233034   8.098   2.319   5.975
11031TIP3   OH233035   0.290   2.841   5.013
11031TIP3    H133036   0.286   2.755   5.056
11031TIP3    H233037   0.299   2.903   5.084
11032TIP3   OH233038   1.548   5.132   0.826
11032TIP3    H133039   1.614   5.082   0.874
11032TIP3    H233040   1.538   5.213   0.876
11033TIP3   OH233041   2.649   5.352   1.016
11033TIP3    H133042   2.600   5.432   0.996
11033TIP3    H233043   2.661   5.309   0.931
11034TIP3   OH233044   5.903   1.753   4.591
11034TIP3    H133045   5.907   1.803   4.509
11034TIP3    H233046   5.860   1.812   4.653
11035TIP3   OH233047   4.241   2.883   3.240
11035TIP3    H133048   4.228   2.976   3.221
11035TIP3    H233049   4.208   2.839   3.161
11036TIP3   OH233050   6.940   2.543   6.446
11036TIP3    H133051   6.941   2.631   6.483
11036TIP3    H233052   6.900   2.555   6.359
11037TIP3   OH233053   0.813   5.439   1.289
11037TIP3    H133054   0.827   5.518   1.237
11037TIP3    H233055   0.899   5.417   1.323
11038TIP3   OH233056   0.171   7.784   5.093
11038TIP3    H133057   0.130   7.860   5.052
11038TIP3    H233058   0.210   7.736   5.021
11039TIP3   OH233059   4.355   2.799   6.521
11039TIP3    H133060   4.281   2.739   6.532
11039TIP3    H233061   4.318   2.886   6.529
11040TIP3   OH233062   7.405   6.007   1.366
11040TIP3    H133063   7.398   6.051   1.281
11040TIP3    H233064   7.499   6.003   1.383
11041TIP3   OH233065   1.676   3.729   5.703
11041TIP3    H133066   1.584   3.714   5.683
11041TIP3    H233067   1.680   3.738   5.798
11042TIP3   OH233068   5.080   4.413   4.218
11042TIP3    H133069   5.106   4.491   4.268
11042TIP3    H233070   5.087   4.341   4.281
11043TIP3   OH233071   6.975   2.299   4.571
11043TIP3    H133072   6.949   2.235   4.638
11043TIP3    H233073   6.954   2.384   4.610
11044TIP3   OH233074   3.512   7.094   0.733
11044TIP3    H133075   3.507   7.012   0.684
11044TIP3    H233076   3.451   7.083   0.806
11045TIP3   OH233077   2.576   1.561   4.292
11045TIP3    H133078   2.519   1.494   4.328
11045TIP3    H233079   2.520   1.611   4.232
11046TIP3   OH233080   2.939   0.858   1.151
11046TIP3    H133081   2.949   0.783   1.092
11046TIP3    H233082   2.852   0.846   1.190
11047TIP3   OH233083   5.998   2.449   3.523
11047TIP3    H133084   6.049   2.432   3.444
11047TIP3    H233085   6.027   2.384   3.586
11048TIP3   OH233086   0.787   2.219   0.268
11048TIP3    H133087   0.719   2.159   0.237
11048TIP3    H233088   0.854   2.162   0.305
11049TIP3   OH233089   2.183   4.023   1.233
11049TIP3    H133090   2.207   3.950   1.176
11049TIP3    H233091   2.105   4.060   1.191
11050TIP3   OH233092   1.650   7.702   5.621
11050TIP3    H133093   1.744   7.720   5.617
11050TIP3    H233094   1.632   7.656   5.539
11051TIP3   OH233095   5.067   2.210   3.556
11051TIP3    H133096   5.092   2.209   3.463
11051TIP3    H233097   4.985   2.260   3.558
11052TIP3   OH233098   6.685   3.054   1.497
11052TIP3    H133099   6.638   2.987   1.547
11052TIP3    H233100   6.751   3.006   1.447
11053TIP3   OH233101   6.587   4.258   5.655
11053TIP3    H133102   6.605   4.348   5.627
11053TIP3    H233103   6.673   4.220   5.672
11054TIP3   OH233104   7.960   1.819   0.500
11054TIP3    H133105   7.967   1.724   0.513
11054TIP3    H233106   7.986   1.833   0.409
11055TIP3   OH233107   7.697   1.095   0.795
11055TIP3    H133108   7.645   1.024   0.831
11055TIP3    H233109   7.716   1.151   0.870
11056TIP3   OH233110   6.528   1.468   6.260
11056TIP3    H133111   6.506   1.551   6.217
11056TIP3    H233112   6.623   1.469   6.267
11057TIP3   OH233113   1.415   1.201   6.357
11057TIP3    H133114   1.508   1.181   6.373
11057TIP3    H233115   1.392   1.262   6.427
11058TIP3   OH233116   6.207   6.438   6.302
11058TIP3    H133117   6.229   6.345   6.315
11058TIP3    H233118   6.199   6.448   6.208
11059TIP3   OH233119   4.832   1.508   2.547
11059TIP3    H133120   4.776   1.583   2.567
11059TIP3    H233121   4.862   1.476   2.632
11060TIP3   OH233122   6.907   0.033   3.878
11060TIP3    H133123   6.902   0.106   3.816
11060TIP3    H233124   6.842  -0.030   3.847
11061TIP3   OH233125   4.951   2.802   0.064
11061TIP3    H133126   5.005   2.789  -0.014
11061TIP3    H233127   4.915   2.715   0.083
11062TIP3   OH233128   0.480   2.592   5.504
11062TIP3    H133129   0.386   2.606   5.515
11062TIP3    H233130   0.518   2.626   5.585
11063TIP3   OH233131   6.323   4.588   1.534
11063TIP3    H133132   6.376   4.651   1.584
11063TIP3    H233133   6.261   4.553   1.598
11064TIP3   OH233134   1.861   3.826   5.539
11064TIP3    H133135   1.904   3.898   5.585
11064TIP3    H233136   1.808   3.783   5.606
11065TIP3   OH233137   2.364   2.225   4.171
11065TIP3    H133138   2.384   2.262   4.085
11065TIP3    H233139   2.304   2.288   4.211
11066TIP3   OH233140   7.689   5.910   0.852
11066TIP3    H133141   7.642   5.973   0.907
11066TIP3    H233142   7.738   5.964   0.790
11067TIP3   OH233143   5.154   5.423   4.942
11067TIP3    H133144   5.194   5.403   5.026
11067TIP3    H233145   5.225   5.462   4.890
11068TIP3   OH233146   2.328   1.302   1.723
11068TIP3    H133147   2.273   1.263   1.791
11068TIP3    H233148   2.281   1.382   1.698
11069TIP3   OH233149   4.471   5.433   0.304
11069TIP3    H133150   4.443   5.485   0.380
11069TIP3    H233151   4.414   5.463   0.233
11070TIP3   OH233152   6.853   7.158   3.889
11070TIP3    H133153   6.899   7.238   3.914
11070TIP3    H233154   6.866   7.098   3.962
11071TIP3   OH233155   3.184   0.207   3.719
11071TIP3    H133156   3.181   0.242   3.808
11071TIP3    H233157   3.138   0.123   3.723
11072TIP3   OH233158   4.414   6.212   0.051
11072TIP3    H133159   4.389   6.127   0.016
11072TIP3    H233160   4.402   6.202   0.146
11073TIP3   OH233161   5.389   0.435   2.653
11073TIP3    H133162   5.351   0.347   2.643
11073TIP3    H233163   5.324   0.494   2.615
11074TIP3   OH233164   5.204   4.153   1.807
11074TIP3    H133165   5.300   4.151   1.815
11074TIP3    H233166   5.188   4.199   1.725
11075TIP3   OH233167   5.447   6.367   2.304
11075TIP3    H133168   5.385   6.372   2.231
11075TIP3    H233169   5.461   6.457   2.330
11076TIP3   OH233170   5.678   4.005   6.558
11076TIP3    H133171   5.645   4.081   6.606
11076TIP3    H233172   5.636   4.010   6.472
11077TIP3   OH233173   1.656   0.246   0.053
11077TIP3    H133174   1.634   0.337   0.072
11077TIP3    H233175   1.572   0.200   0.058
11078TIP3   OH233176   2.895   4.194   2.461
11078TIP3    H133177   2.912   4.111   2.416
11078TIP3    H233178   2.801   4.206   2.455
11079TIP3   OH233179   7.983   4.454   4.189
11079TIP3    H133180   8.071   4.418   4.202
11079TIP3    H233181   7.926   4.378   4.188
11080TIP3   OH233182   5.637   6.657   4.032
11080TIP3    H133183   5.571   6.724   4.049
11080TIP3    H233184   5.692   6.657   4.111
11081TIP3   OH233185   3.863   6.570   5.563
11081TIP3    H133186   3.955   6.593   5.565
11081TIP3    H233187   3.854   6.501   5.629
11082TIP3   OH233188   1.646   6.022   3.199
11082TIP3    H133189   1.651   6.023   3.103
11082TIP3    H233190   1.712   6.086   3.227
11083TIP3   OH233191   2.409   6.266   5.271
11083TIP3    H133192   2.383   6.218   5.192
11083TIP3    H233193   2.370   6.353   5.259
11084TIP3   OH233194   2.096   0.451   3.860
11084TIP3    H133195   2.144   0.461   3.778
11084TIP3    H233196   2.122   0.365   3.894
11085TIP3   OH233197   3.804   0.948   4.618
11085TIP3    H133198   3.748   0.971   4.692
11085TIP3    H233199   3.796   1.021   4.557
11086TIP3   OH233200   0.835   4.772   0.287
11086TIP3    H133201   0.922   4.742   0.260
11086TIP3    H233202   0.845   4.867   0.296
11087TIP3   OH233203   0.603   0.368   1.305
11087TIP3    H133204   0.568   0.290   1.349
11087TIP3    H233205   0.670   0.334   1.246
11088TIP3   OH233206   4.845   7.209   4.807
11088TIP3    H133207   4.908   7.146   4.772
11088TIP3    H233208   4.771   7.203   4.748
11089TIP3   OH233209   6.639   3.927   3.035
11089TIP3    H133210   6.675   4.003   3.081
11089TIP3    H233211   6.578   3.888   3.098
11090TIP3   OH233212   1.967   6.290   4.906
11090TIP3    H133213   1.953   6.201   4.939
11090TIP3    H233214   2.059   6.291   4.879
11091TIP3   OH233215   0.163   2.802   3.376
11091TIP3    H133216   0.151   2.885   3.422
11091TIP3    H233217   0.108   2.740   3.424
11092TIP3   OH233218   4.673   7.657   3.575
11092TIP3    H133219   4.769   7.653   3.577
11092TIP3    H233220   4.646   7.587   3.635
11093TIP3   OH233221   4.785   1.035   4.651
11093TIP3    H133222   4.808   0.949   4.687
11093TIP3    H233223   4.857   1.057   4.592
11094TIP3   OH233224   1.568   3.766   0.525
11094TIP3    H133225   1.650   3.766   0.573
11094TIP3    H233226   1.575   3.842   0.466
11095TIP3   OH233227   3.542   5.372   3.485
11095TIP3    H133228   3.533   5.284   3.524
11095TIP3    H233229   3.633   5.395   3.500
11096TIP3   OH233230   1.508   1.384   6.099
11096TIP3    H133231   1.547   1.324   6.162
11096TIP3    H233232   1.414   1.364   6.102
11097TIP3   OH233233   3.604   7.611   3.817
11097TIP3    H133234   3.632   7.702   3.806
11097TIP3    H233235   3.596   7.600   3.912
11098TIP3   OH233236   6.906   6.567   1.163
11098TIP3    H133237   6.876   6.633   1.226
11098TIP3    H233238   6.902   6.484   1.211
11099TIP3   OH233239   5.550   3.855   0.713
11099TIP3    H133240   5.477   3.896   0.667
11099TIP3    H233241   5.519   3.847   0.804
11100TIP3   OH233242   5.195   6.992   3.895
11100TIP3    H133243   5.101   6.995   3.882
11100TIP3    H233244   5.229   7.065   3.843
11101TIP3   OH233245   7.388   0.239   0.116
11101TIP3    H133246   7.340   0.225   0.197
11101TIP3    H233247   7.476   0.266   0.143
11102TIP3   OH233248   1.319   1.621   1.002
11102TIP3    H133249   1.287   1.537   0.969
11102TIP3    H233250   1.377   1.653   0.933
11103TIP3   OH233251   7.267   6.881   0.843
11103TIP3    H133252   7.228   6.825   0.776
11103TIP3    H233253   7.362   6.875   0.827
11104TIP3   OH233254   2.087   3.132   5.570
11104TIP3    H133255   2.026   3.194   5.530
11104TIP3    H233256   2.032   3.063   5.605
11105TIP3   OH233257   3.299   1.169   6.129
11105TIP3    H133258   3.204   1.160   6.119
11105TIP3    H233259   3.335   1.127   6.051
11106TIP3   OH233260   5.777   7.007   2.085
11106TIP3    H133261   5.746   6.923   2.049
11106TIP3    H233262   5.704   7.067   2.073
11107TIP3   OH233263   4.213   2.328   1.452
11107TIP3    H133264   4.283   2.391   1.439
11107TIP3    H233265   4.134   2.382   1.465
11108TIP3   OH233266   3.412   2.398   0.734
11108TIP3    H133267   3.389   2.474   0.786
11108TIP3    H233268   3.488   2.360   0.779
11109TIP3   OH233269   0.610   3.162   1.405
11109TIP3    H133270   0.591   3.082   1.453
11109TIP3    H233271   0.659   3.217   1.466
11110TIP3   OH233272   4.076   6.442   2.915
11110TIP3    H133273   4.097   6.535   2.912
11110TIP3    H233274   4.116   6.407   2.835
11111TIP3   OH233275   4.436   7.688   0.550
11111TIP3    H133276   4.391   7.720   0.628
11111TIP3    H233277   4.502   7.756   0.531
11112TIP3   OH233278   6.013   1.427   4.616
11112TIP3    H133279   5.998   1.372   4.693
11112TIP3    H233280   5.956   1.503   4.630
11113TIP3   OH233281   2.084   6.555   4.079
11113TIP3    H133282   2.162   6.523   4.123
11113TIP3    H233283   2.106   6.552   3.986
11114TIP3   OH233284   1.671   2.957   5.410
11114TIP3    H133285   1.593   2.990   5.366
11114TIP3    H233286   1.638   2.918   5.491
11115TIP3   OH233287   5.020   0.013   1.082
11115TIP3    H133288   4.926   0.028   1.096
11115TIP3    H233289   5.060   0.099   1.095
11116TIP3   OH233290   0.814   3.777   3.369
11116TIP3    H133291   0.763   3.851   3.403
11116TIP3    H233292   0.767   3.700   3.399
11117TIP3   OH233293   4.992   5.846   4.222
11117TIP3    H133294   5.079   5.821   4.252
11117TIP3    H233295   4.962   5.772   4.170
11118TIP3   OH233296   0.641   4.190   3.237
11118TIP3    H133297   0.599   4.197   3.151
11118TIP3    H233298   0.570   4.163   3.296
11119TIP3   OH233299   7.844   3.688   1.316
11119TIP3    H133300   7.838   3.642   1.400
11119TIP3    H233301   7.913   3.643   1.268
11120TIP3   OH233302   3.230   0.816   2.565
11120TIP3    H133303   3.138   0.798   2.544
11120TIP3    H233304   3.253   0.891   2.510
11121TIP3   OH233305   4.687   5.136   2.199
11121TIP3    H133306   4.645   5.073   2.140
11121TIP3    H233307   4.778   5.109   2.202
11122TIP3   OH233308   5.555   3.423   6.315
11122TIP3    H133309   5.516   3.395   6.232
11122TIP3    H233310   5.647   3.397   6.309
11123TIP3   OH233311   4.672   0.282   1.250
11123TIP3    H133312   4.587   0.296   1.293
11123TIP3    H233313   4.736   0.319   1.311
11124TIP3   OH233314   6.201   7.022   6.487
11124TIP3    H133315   6.297   7.026   6.494
11124TIP3    H233316   6.173   7.112   6.501
11125TIP3   OH233317   2.863   3.073   3.048
11125TIP3    H133318   2.884   2.983   3.073
11125TIP3    H233319   2.947   3.112   3.024
11126TIP3   OH233320   6.491   0.465   6.561
11126TIP3    H133321   6.482   0.560   6.567
11126TIP3    H233322   6.572   0.446   6.608
11127TIP3   OH233323   6.763   6.870   4.849
11127TIP3    H133324   6.691   6.827   4.802
11127TIP3    H233325   6.723   6.900   4.931
11128TIP3   OH233326   3.431   1.408   2.281
11128TIP3    H133327   3.474   1.324   2.265
11128TIP3    H233328   3.497   1.473   2.260
11129TIP3   OH233329   4.773   2.179   1.823
11129TIP3    H133330   4.841   2.134   1.772
11129TIP3    H233331   4.798   2.163   1.914
11130TIP3   OH233332   5.546   7.756   1.535
11130TIP3    H133333   5.513   7.782   1.621
11130TIP3    H233334   5.468   7.738   1.483
11131TIP3   OH233335   3.858   0.422   5.040
11131TIP3    H133336   3.812   0.486   4.986
11131TIP3    H233337   3.915   0.375   4.980
11132TIP3   OH233338   2.883   5.928   0.950
11132TIP3    H133339   2.888   5.911   0.855
11132TIP3    H233340   2.831   6.008   0.957
11133TIP3   OH233341   1.137   7.239   0.287
11133TIP3    H133342   1.188   7.216   0.365
11133TIP3    H233343   1.068   7.297   0.320
11134TIP3   OH233344   6.798   1.475   4.558
11134TIP3    H133345   6.865   1.444   4.619
11134TIP3    H233346   6.789   1.404   4.494
11135TIP3   OH233347  -0.001   1.675   3.004
11135TIP3    H133348   0.080   1.639   2.969
11135TIP3    H233349  -0.016   1.626   3.085
11136TIP3   OH233350   0.928   0.425   5.846
11136TIP3    H133351   0.953   0.445   5.936
11136TIP3    H233352   0.945   0.331   5.837
11137TIP3   OH233353   4.397   1.264   6.345
11137TIP3    H133354   4.406   1.354   6.375
11137TIP3    H233355   4.480   1.222   6.370
11138TIP3   OH233356   3.747   7.760   2.274
11138TIP3    H133357   3.740   7.841   2.225
11138TIP3    H233358   3.840   7.735   2.268
11139TIP3   OH233359   6.546   6.733   4.747
11139TIP3    H133360   6.461   6.709   4.783
11139TIP3    H233361   6.537   6.719   4.652
11140TIP3   OH233362   1.988   1.562   0.028
11140TIP3    H133363   2.047   1.632   0.054
11140TIP3    H233364   2.041   1.483   0.031
11141TIP3   OH233365   3.873   4.929   3.787
11141TIP3    H133366   3.927   4.854   3.813
11141TIP3    H233367   3.883   4.992   3.858
11142TIP3   OH233368   1.295   5.994   1.578
11142TIP3    H133369   1.219   5.971   1.631
11142TIP3    H233370   1.313   5.916   1.526
11143TIP3   OH233371   1.270   6.774   5.249
11143TIP3    H133372   1.295   6.702   5.191
11143TIP3    H233373   1.260   6.732   5.335
11144TIP3   OH233374   5.023   4.527   0.243
11144TIP3    H133375   4.937   4.501   0.275
11144TIP3    H233376   5.039   4.613   0.283
11145TIP3   OH233377   6.620   7.119   3.724
11145TIP3    H133378   6.528   7.117   3.750
11145TIP3    H233379   6.668   7.140   3.804
11146TIP3   OH233380   7.042   4.698   1.387
11146TIP3    H133381   7.011   4.679   1.299
11146TIP3    H233382   7.037   4.793   1.394
11147TIP3   OH233383   0.190   0.188   5.136
11147TIP3    H133384   0.256   0.224   5.076
11147TIP3    H233385   0.164   0.105   5.096
11148TIP3   OH233386   1.800   2.628   5.078
11148TIP3    H133387   1.799   2.587   4.991
11148TIP3    H233388   1.881   2.595   5.118
11149TIP3   OH233389   7.485   0.818   0.021
11149TIP3    H133390   7.446   0.830   0.107
11149TIP3    H233391   7.438   0.744  -0.017
11150TIP3   OH233392   7.056   4.344   5.830
11150TIP3    H133393   7.096   4.263   5.798
11150TIP3    H233394   7.099   4.413   5.778
11151TIP3   OH233395   2.722   0.670   4.980
11151TIP3    H133396   2.678   0.692   5.062
11151TIP3    H233397   2.797   0.616   5.007
11152TIP3   OH233398   2.804   6.697   0.980
11152TIP3    H133399   2.732   6.657   1.029
11152TIP3    H233400   2.869   6.718   1.047
11153TIP3   OH233401   6.390   7.595   5.410
11153TIP3    H133402   6.363   7.513   5.368
11153TIP3    H233403   6.317   7.655   5.396
11154TIP3   OH233404   6.592   5.212   0.668
11154TIP3    H133405   6.524   5.226   0.603
11154TIP3    H233406   6.649   5.288   0.661
11155TIP3   OH233407   5.124   6.877   6.342
11155TIP3    H133408   5.168   6.943   6.395
11155TIP3    H233409   5.065   6.928   6.286
11156TIP3   OH233410   3.623   6.887   1.275
11156TIP3    H133411   3.587   6.911   1.190
11156TIP3    H233412   3.549   6.850   1.323
11157TIP3   OH233413   7.368   5.138   2.565
11157TIP3    H133414   7.417   5.216   2.540
11157TIP3    H233415   7.354   5.091   2.483
11158TIP3   OH233416   2.796   2.364   4.615
11158TIP3    H133417   2.724   2.421   4.586
11158TIP3    H233418   2.770   2.276   4.588
11159TIP3   OH233419   0.578   6.953   3.774
11159TIP3    H133420   0.512   7.004   3.726
11159TIP3    H233421   0.584   6.870   3.727
11160TIP3   OH233422   5.756   5.847   2.231
11160TIP3    H133423   5.690   5.885   2.289
11160TIP3    H233424   5.805   5.787   2.287
11161TIP3   OH233425   7.227   1.355   5.970
11161TIP3    H133426   7.132   1.362   5.980
11161TIP3    H233427   7.252   1.286   6.032
11162TIP3   OH233428   3.260   7.663   4.666
11162TIP3    H133429   3.178   7.627   4.702
11162TIP3    H233430   3.315   7.586   4.651
11163TIP3   OH233431   4.417   6.925   2.271
11163TIP3    H133432   4.455   6.839   2.252
11163TIP3    H233433   4.348   6.908   2.335
11164TIP3   OH233434   2.249   4.001   4.768
11164TIP3    H133435   2.203   3.948   4.832
11164TIP3    H233436   2.342   3.986   4.786
11165TIP3   OH233437   7.255   3.734   4.622
11165TIP3    H133438   7.184   3.670   4.624
11165TIP3    H233439   7.321   3.699   4.683
11166TIP3   OH233440   3.157   5.343   3.762
11166TIP3    H133441   3.210   5.312   3.836
11166TIP3    H233442   3.208   5.415   3.724
11167TIP3   OH233443   7.331   2.223   0.752
11167TIP3    H133444   7.281   2.294   0.713
11167TIP3    H233445   7.344   2.250   0.843
11168TIP3   OH233446   1.119   4.310   3.067
11168TIP3    H133447   1.066   4.318   3.146
11168TIP3    H233448   1.181   4.239   3.087
11169TIP3   OH233449   7.613   0.912   3.735
11169TIP3    H133450   7.595   1.005   3.727
11169TIP3    H233451   7.706   0.908   3.759
11170TIP3   OH233452   0.216   0.604   1.560
11170TIP3    H133453   0.275   0.593   1.486
11170TIP3    H233454   0.141   0.652   1.525
11171TIP3   OH233455   3.726   7.757   5.393
11171TIP3    H133456   3.783   7.822   5.352
11171TIP3    H233457   3.704   7.696   5.322
11172TIP3   OH233458   6.976   2.603   0.147
11172TIP3    H133459   7.051   2.663   0.153
11172TIP3    H233460   6.979   2.554   0.229
11173TIP3   OH233461   0.013   6.021   2.064
11173TIP3    H133462   0.067   5.998   2.139
11173TIP3    H233463   0.055   6.098   2.026
11174TIP3   OH233464   6.164   7.232   5.022
11174TIP3    H133465   6.253   7.230   4.985
11174TIP3    H233466   6.147   7.141   5.046
11175TIP3   OH233467   2.495   0.413   2.014
11175TIP3    H133468   2.509   0.339   2.073
11175TIP3    H233469   2.502   0.490   2.070
11176TIP3   OH233470   1.187   3.388   3.577
11176TIP3    H133471   1.226   3.302   3.561
11176TIP3    H233472   1.173   3.425   3.490
11177TIP3   OH233473   2.203   6.571   2.584
11177TIP3    H133474   2.261   6.647   2.580
11177TIP3    H233475   2.183   6.561   2.677
11178TIP3   OH233476   1.214   4.386   4.862
11178TIP3    H133477   1.210   4.464   4.806
11178TIP3    H233478   1.255   4.319   4.807
11179TIP3   OH233479   5.568   3.530   3.369
11179TIP3    H133480   5.639   3.547   3.431
11179TIP3    H233481   5.530   3.616   3.351
11180TIP3   OH233482   7.730   3.405   6.574
11180TIP3    H133483   7.747   3.314   6.599
11180TIP3    H233484   7.817   3.441   6.555
11181TIP3   OH233485   6.239   0.421   3.749
11181TIP3    H133486   6.205   0.402   3.662
11181TIP3    H233487   6.262   0.335   3.785
11182TIP3   OH233488   6.235   0.274   5.735
11182TIP3    H133489   6.211   0.220   5.810
11182TIP3    H233490   6.258   0.211   5.667
11183TIP3   OH233491   7.762   4.990   3.467
11183TIP3    H133492   7.784   4.918   3.408
11183TIP3    H233493   7.757   5.067   3.410
11184TIP3   OH233494   4.514   5.335   0.583
11184TIP3    H133495   4.516   5.240   0.600
11184TIP3    H233496   4.487   5.343   0.492
11185TIP3   OH233497   8.195   6.201   6.430
11185TIP3    H133498   8.219   6.287   6.395
11185TIP3    H233499   8.120   6.219   6.486
11186TIP3   OH233500   4.818   5.938   0.694
11186TIP3    H133501   4.824   5.984   0.778
11186TIP3    H233502   4.797   6.007   0.631
11187TIP3   OH233503   2.982   2.869   3.296
11187TIP3    H133504   2.909   2.842   3.353
11187TIP3    H233505   3.053   2.890   3.357
11188TIP3   OH233506   3.974   7.283   4.446
11188TIP3    H133507   4.062   7.297   4.480
11188TIP3    H233508   3.987   7.273   4.351
11189TIP3   OH233509   6.900   7.079   6.567
11189TIP3    H133510   6.978   7.133   6.577
11189TIP3    H233511   6.828   7.134   6.599
11190TIP3   OH233512   2.287   4.302   0.887
11190TIP3    H133513   2.364   4.309   0.944
11190TIP3    H233514   2.310   4.355   0.810
11191TIP3   OH233515   3.063   7.099   5.038
11191TIP3    H133516   3.156   7.121   5.045
11191TIP3    H233517   3.022   7.141   5.114
11192TIP3   OH233518   4.269   3.584   6.765
11192TIP3    H133519   4.238   3.582   6.675
11192TIP3    H233520   4.362   3.606   6.758
11193TIP3   OH233521   3.285   7.030   6.647
11193TIP3    H133522   3.380   7.037   6.644
11193TIP3    H233523   3.262   7.054   6.737
11194TIP3   OH233524   5.668   0.129   5.711
11194TIP3    H133525   5.698   0.086   5.630
11194TIP3    H233526   5.587   0.174   5.686
11195TIP3   OH233527   1.645   0.061   1.454
11195TIP3    H133528   1.586   0.135   1.439
11195TIP3    H233529   1.587  -0.012   1.477
11196TIP3   OH233530   5.652   0.528   1.967
11196TIP3    H133531   5.736   0.482   1.968
11196TIP3    H233532   5.675   0.620   1.983
11197TIP3   OH233533   5.046   0.669   5.587
11197TIP3    H133534   5.044   0.574   5.579
11197TIP3    H233535   4.954   0.695   5.588
11198TIP3   OH233536   6.398   3.855   5.990
11198TIP3    H133537   6.353   3.906   5.923
11198TIP3    H233538   6.488   3.888   5.989
11199TIP3   OH233539   2.320   5.901   5.478
11199TIP3    H133540   2.411   5.875   5.467
11199TIP3    H233541   2.278   5.876   5.396
11200TIP3   OH233542   6.679   7.214   1.253
11200TIP3    H133543   6.760   7.165   1.267
11200TIP3    H233544   6.686   7.246   1.163
11201TIP3   OH233545   4.606   6.350   6.653
11201TIP3    H133546   4.579   6.440   6.636
11201TIP3    H233547   4.603   6.342   6.749
11202TIP3   OH233548   1.636   1.753   1.443
11202TIP3    H133549   1.615   1.816   1.374
11202TIP3    H233550   1.693   1.801   1.503
11203TIP3   OH233551   8.242   1.558   5.579
11203TIP3    H133552   8.233   1.623   5.649
11203TIP3    H233553   8.174   1.493   5.598
11204TIP3   OH233554   2.115   6.497   1.488
11204TIP3    H133555   2.175   6.571   1.482
11204TIP3    H233556   2.046   6.517   1.424
11205TIP3   OH233557   1.818   2.978   2.624
11205TIP3    H133558   1.864   2.956   2.705
11205TIP3    H233559   1.888   3.001   2.563
11206TIP3   OH233560   4.400   7.446   1.464
11206TIP3    H133561   4.430   7.390   1.536
11206TIP3    H233562   4.469   7.511   1.453
11207TIP3   OH233563   6.372   4.646   4.683
11207TIP3    H133564   6.449   4.646   4.626
11207TIP3    H233565   6.356   4.554   4.702
11208TIP3   OH233566   1.497   5.819   0.434
11208TIP3    H133567   1.488   5.747   0.497
11208TIP3    H233568   1.586   5.810   0.400
11209TIP3   OH233569   0.822   3.289   5.795
11209TIP3    H133570   0.742   3.317   5.751
11209TIP3    H233571   0.832   3.350   5.869
11210TIP3   OH233572   7.597   7.529   5.378
11210TIP3    H133573   7.688   7.525   5.407
11210TIP3    H233574   7.579   7.442   5.342
11211TIP3   OH233575   0.782   3.451   4.764
11211TIP3    H133576   0.820   3.395   4.832
11211TIP3    H233577   0.754   3.390   4.696
11212TIP3   OH233578   1.540   6.015   3.751
11212TIP3    H133579   1.557   6.056   3.665
11212TIP3    H233580   1.553   5.922   3.736
11213TIP3   OH233581   4.816   6.802   1.937
11213TIP3    H133582   4.844   6.722   1.893
11213TIP3    H233583   4.721   6.793   1.945
11214TIP3   OH233584   6.954   4.226   0.281
11214TIP3    H133585   6.985   4.182   0.202
11214TIP3    H233586   6.898   4.296   0.250
11215TIP3   OH233587   1.386   2.435   1.658
11215TIP3    H133588   1.367   2.405   1.746
11215TIP3    H233589   1.301   2.467   1.625
11216TIP3   OH233590   7.789   0.721   2.427
11216TIP3    H133591   7.864   0.725   2.486
11216TIP3    H233592   7.823   0.753   2.344
11217TIP3   OH233593   3.813   4.286   6.774
11217TIP3    H133594   3.904   4.286   6.743
11217TIP3    H233595   3.763   4.323   6.702
11218TIP3   OH233596   7.004   4.705   1.106
11218TIP3    H133597   6.928   4.762   1.119
11218TIP3    H233598   6.976   4.642   1.040
11219TIP3   OH233599   6.630   2.984   2.706
11219TIP3    H133600   6.651   3.016   2.618
11219TIP3    H233601   6.626   2.889   2.696
11220TIP3   OH233602   1.133   7.776   2.856
11220TIP3    H133603   1.065   7.837   2.884
11220TIP3    H233604   1.103   7.743   2.772
11221TIP3   OH233605   2.960   5.923   2.431
11221TIP3    H133606   3.000   5.846   2.472
11221TIP3    H233607   3.013   5.997   2.462
11222TIP3   OH233608   3.559   2.455   2.934
11222TIP3    H133609   3.574   2.517   3.006
11222TIP3    H233610   3.515   2.381   2.976
11223TIP3   OH233611   0.075   3.549   0.326
11223TIP3    H133612   0.095   3.524   0.417
11223TIP3    H233613   0.033   3.472   0.289
11224TIP3   OH233614   1.810   0.167   0.328
11224TIP3    H133615   1.794   0.137   0.238
11224TIP3    H233616   1.843   0.089   0.374
11225TIP3   OH233617   7.869   7.354   2.942
11225TIP3    H133618   7.869   7.269   2.899
11225TIP3    H233619   7.950   7.355   2.992
11226TIP3   OH233620   0.234   4.773   1.415
11226TIP3    H133621   0.251   4.706   1.348
11226TIP3    H233622   0.255   4.729   1.498
11227TIP3   OH233623   6.147   4.460   5.531
11227TIP3    H133624   6.204   4.536   5.544
11227TIP3    H233625   6.202   4.396   5.486
11228TIP3   OH233626   2.590   3.037   1.914
11228TIP3    H133627   2.661   3.082   1.960
11228TIP3    H233628   2.570   3.093   1.840
11229TIP3   OH233629   4.922   3.071   1.989
11229TIP3    H133630   4.835   3.033   1.982
11229TIP3    H233631   4.944   3.097   1.899
11230TIP3   OH233632   4.848   6.743   3.671
11230TIP3    H133633   4.836   6.805   3.599
11230TIP3    H233634   4.860   6.798   3.748
11231TIP3   OH233635   1.402   1.682   0.500
11231TIP3    H133636   1.332   1.689   0.565
11231TIP3    H233637   1.469   1.743   0.531
11232TIP3   OH233638   5.767   2.376   4.754
11232TIP3    H133639   5.762   2.283   4.780
11232TIP3    H233640   5.689   2.390   4.701
11233TIP3   OH233641   7.866   5.819   1.574
11233TIP3    H133642   7.959   5.814   1.594
11233TIP3    H233643   7.839   5.729   1.558
11234TIP3   OH233644   6.672   7.108   5.822
11234TIP3    H133645   6.594   7.067   5.858
11234TIP3    H233646   6.638   7.177   5.764
11235TIP3   OH233647   3.358   4.101   5.968
11235TIP3    H133648   3.444   4.109   6.009
11235TIP3    H233649   3.309   4.177   5.999
11236TIP3   OH233650   6.911   5.597   3.851
11236TIP3    H133651   6.925   5.604   3.756
11236TIP3    H233652   6.976   5.656   3.889
11237TIP3   OH233653   1.375   3.279   5.574
11237TIP3    H133654   1.360   3.366   5.611
11237TIP3    H233655   1.454   3.248   5.618
11238TIP3   OH233656   8.129   4.593   6.034
11238TIP3    H133657   8.054   4.608   5.977
11238TIP3    H233658   8.091   4.580   6.121
11239TIP3   OH233659   0.911   3.958   1.056
11239TIP3    H133660   0.952   3.873   1.070
11239TIP3    H233661   0.819   3.939   1.039
11240TIP3   OH233662   7.756   4.905   4.606
11240TIP3    H133663   7.787   4.995   4.595
11240TIP3    H233664   7.662   4.914   4.625
11241TIP3   OH233665   4.847   1.927   6.533
11241TIP3    H133666   4.836   1.999   6.471
11241TIP3    H233667   4.812   1.851   6.488
11242TIP3   OH233668   5.942   1.527   5.827
11242TIP3    H133669   5.858   1.497   5.860
11242TIP3    H233670   5.929   1.619   5.807
11243TIP3   OH233671   3.178   7.093   3.706
11243TIP3    H133672   3.273   7.090   3.714
11243TIP3    H233673   3.148   7.013   3.749
11244TIP3   OH233674   0.112   4.750   1.887
11244TIP3    H133675   0.081   4.696   1.815
11244TIP3    H233676   0.184   4.701   1.926
11245TIP3   OH233677   0.933   1.786   0.646
11245TIP3    H133678   0.945   1.866   0.698
11245TIP3    H233679   0.921   1.717   0.711
11246TIP3   OH233680   5.027   6.824   5.757
11246TIP3    H133681   4.967   6.753   5.779
11246TIP3    H233682   5.070   6.845   5.840
11247TIP3   OH233683   5.591   0.642   0.309
11247TIP3    H133684   5.521   0.706   0.325
11247TIP3    H233685   5.591   0.631   0.213
11248TIP3   OH233686   4.389   5.581   6.565
11248TIP3    H133687   4.454   5.529   6.517
11248TIP3    H233688   4.434   5.607   6.645
11249TIP3   OH233689   8.021   2.315   0.988
11249TIP3    H133690   7.936   2.359   0.976
11249TIP3    H233691   8.001   2.222   0.982
11250TIP3   OH233692   0.286   6.231   2.829
11250TIP3    H133693   0.318   6.146   2.860
11250TIP3    H233694   0.201   6.212   2.791
11251TIP3   OH233695   1.356   3.028   2.546
11251TIP3    H133696   1.296   3.103   2.551
11251TIP3    H233697   1.383   3.014   2.637
11252TIP3   OH233698   7.196   6.993   1.306
11252TIP3    H133699   7.230   6.995   1.216
11252TIP3    H233700   7.147   7.075   1.315
11253TIP3   OH233701   4.276   2.775   2.848
11253TIP3    H133702   4.200   2.757   2.903
11253TIP3    H233703   4.342   2.712   2.877
11254TIP3   OH233704   3.184   2.159   2.722
11254TIP3    H133705   3.259   2.109   2.756
11254TIP3    H233706   3.161   2.116   2.640
11255TIP3   OH233707   1.265   7.730   1.739
11255TIP3    H133708   1.322   7.656   1.760
11255TIP3    H233709   1.323   7.807   1.743
11256TIP3   OH233710   8.184   2.872   6.480
11256TIP3    H133711   8.247   2.935   6.446
11256TIP3    H233712   8.236   2.793   6.498
11257TIP3   OH233713   5.102   6.657   2.794
11257TIP3    H133714   5.154   6.607   2.857
11257TIP3    H233715   5.108   6.747   2.825
11258TIP3   OH233716   2.080   1.332   4.110
11258TIP3    H133717   2.074   1.249   4.063
11258TIP3    H233718   2.047   1.397   4.047
11259TIP3   OH233719   4.540   0.614   5.459
11259TIP3    H133720   4.479   0.613   5.385
11259TIP3    H233721   4.539   0.524   5.492
11260TIP3   OH233722   3.627   3.306   4.876
11260TIP3    H133723   3.609   3.266   4.790
11260TIP3    H233724   3.555   3.275   4.931
11261TIP3   OH233725   1.295   3.459   0.730
11261TIP3    H133726   1.299   3.548   0.696
11261TIP3    H233727   1.228   3.416   0.676
11262TIP3   OH233728   1.079   1.152   3.500
11262TIP3    H133729   1.099   1.204   3.579
11262TIP3    H233730   1.114   1.204   3.428
11263TIP3   OH233731   4.129   7.518   5.599
11263TIP3    H133732   4.049   7.546   5.553
11263TIP3    H233733   4.139   7.426   5.575
11264TIP3   OH233734   0.654   0.868   2.271
11264TIP3    H133735   0.739   0.827   2.254
11264TIP3    H233736   0.609   0.808   2.331
11265TIP3   OH233737   3.038   7.453   6.081
11265TIP3    H133738   2.993   7.384   6.131
11265TIP3    H233739   3.120   7.467   6.128
11266TIP3   OH233740   1.896   0.078   2.400
11266TIP3    H133741   1.858  -0.007   2.425
11266TIP3    H233742   1.970   0.089   2.460
11267TIP3   OH233743   0.448   2.742   6.254
11267TIP3    H133744   0.422   2.650   6.252
11267TIP3    H233745   0.437   2.772   6.164
11268TIP3   OH233746   5.211   3.490   0.231
11268TIP3    H133747   5.292   3.442   0.211
11268TIP3    H233748   5.202   3.485   0.326
11269TIP3   OH233749   7.498   5.417   0.887
11269TIP3    H133750   7.445   5.446   0.812
11269TIP3    H233751   7.524   5.499   0.930
11270TIP3   OH233752   2.040   7.317   1.351
11270TIP3    H133753   1.996   7.235   1.371
11270TIP3    H233754   2.130   7.304   1.380
11271TIP3   OH233755   4.313   4.543   6.269
11271TIP3    H133756   4.408   4.545   6.258
11271TIP3    H233757   4.299   4.486   6.345
11272TIP3   OH233758   6.596   3.947   6.738
11272TIP3    H133759   6.551   3.929   6.656
11272TIP3    H233760   6.568   3.877   6.797
11273TIP3   OH233761   2.205   7.468   4.371
11273TIP3    H133762   2.268   7.519   4.319
11273TIP3    H233763   2.204   7.382   4.329
11274TIP3   OH233764   4.329   3.882   5.143
11274TIP3    H133765   4.373   3.798   5.126
11274TIP3    H233766   4.253   3.858   5.196
11275TIP3   OH233767   1.689   4.655   5.703
11275TIP3    H133768   1.705   4.640   5.610
11275TIP3    H233769   1.665   4.569   5.737
11276TIP3   OH233770   6.200   0.049   4.677
11276TIP3    H133771   6.132  -0.015   4.658
11276TIP3    H233772   6.155   0.122   4.719
11277TIP3   OH233773   8.202   1.450   2.682
11277TIP3    H133774   8.268   1.416   2.742
11277TIP3    H233775   8.168   1.373   2.637
11278TIP3   OH233776   7.011   0.955   3.504
11278TIP3    H133777   6.948   1.013   3.461
11278TIP3    H233778   6.965   0.871   3.511
11279TIP3   OH233779   4.675   1.534   0.658
11279TIP3    H133780   4.685   1.628   0.670
11279TIP3    H233781   4.608   1.509   0.721
11280TIP3   OH233782   4.477   1.499   2.486
11280TIP3    H133783   4.561   1.454   2.470
11280TIP3    H233784   4.501   1.577   2.535
11281TIP3   OH233785   5.413   5.840   0.409
11281TIP3    H133786   5.455   5.913   0.365
11281TIP3    H233787   5.320   5.847   0.385
11282TIP3   OH233788   7.776   0.880   1.243
11282TIP3    H133789   7.740   0.853   1.159
11282TIP3    H233790   7.864   0.844   1.244
11283TIP3   OH233791   0.966   7.414   4.755
11283TIP3    H133792   0.918   7.467   4.692
11283TIP3    H233793   0.969   7.468   4.834
11284TIP3   OH233794   7.127   2.207   1.578
11284TIP3    H133795   7.046   2.162   1.554
11284TIP3    H233796   7.119   2.294   1.538
11285TIP3   OH233797   3.803   0.929   1.701
11285TIP3    H133798   3.792   0.902   1.610
11285TIP3    H233799   3.897   0.938   1.713
11286TIP3   OH233800   2.487   3.113   0.628
11286TIP3    H133801   2.561   3.172   0.646
11286TIP3    H233802   2.465   3.130   0.536
11287TIP3   OH233803   2.311   1.601   4.184
11287TIP3    H133804   2.320   1.590   4.089
11287TIP3    H233805   2.307   1.511   4.218
11288TIP3   OH233806   0.148   0.249   6.344
11288TIP3    H133807   0.170   0.275   6.434
11288TIP3    H233808   0.233   0.238   6.302
11289TIP3   OH233809   0.902   0.899   2.436
11289TIP3    H133810   0.815   0.939   2.439
11289TIP3    H233811   0.940   0.930   2.355
11290TIP3   OH233812   0.271   7.752   2.367
11290TIP3    H133813   0.286   7.819   2.300
11290TIP3    H233814   0.271   7.801   2.449
11291TIP3   OH233815   0.516   5.739   2.319
11291TIP3    H133816   0.449   5.685   2.277
11291TIP3    H233817   0.472   5.822   2.338
11292TIP3   OH233818   3.692   6.403   1.210
11292TIP3    H133819   3.670   6.379   1.301
11292TIP3    H233820   3.616   6.374   1.159
11293TIP3   OH233821   2.556   5.455   6.765
11293TIP3    H133822   2.467   5.420   6.754
11293TIP3    H233823   2.613   5.378   6.756
11294TIP3   OH233824   3.349   7.641   3.707
11294TIP3    H133825   3.414   7.632   3.777
11294TIP3    H233826   3.371   7.572   3.644
11295TIP3   OH233827   5.765   5.581   5.549
11295TIP3    H133828   5.808   5.542   5.624
11295TIP3    H233829   5.674   5.550   5.554
11296TIP3   OH233830   1.833   5.172   3.214
11296TIP3    H133831   1.892   5.238   3.179
11296TIP3    H233832   1.750   5.189   3.169
11297TIP3   OH233833   4.765   4.034   5.188
11297TIP3    H133834   4.670   4.029   5.175
11297TIP3    H233835   4.775   4.062   5.279
11298TIP3   OH233836   2.103   2.424   1.904
11298TIP3    H133837   2.097   2.357   1.973
11298TIP3    H233838   2.053   2.498   1.938
11299TIP3   OH233839   8.201   1.499   5.009
11299TIP3    H133840   8.261   1.459   4.947
11299TIP3    H233841   8.185   1.432   5.075
11300TIP3   OH233842   6.694   1.390   2.972
11300TIP3    H133843   6.722   1.355   3.057
11300TIP3    H233844   6.669   1.314   2.921
11301TIP3   OH233845   4.060   3.743   0.913
11301TIP3    H133846   3.967   3.762   0.919
11301TIP3    H233847   4.098   3.785   0.991
11302TIP3   OH233848   2.146   7.240   6.362
11302TIP3    H133849   2.217   7.189   6.401
11302TIP3    H233850   2.111   7.184   6.293
11303TIP3   OH233851   1.178   2.978   5.719
11303TIP3    H133852   1.252   2.996   5.777
11303TIP3    H233853   1.198   2.894   5.679
11304TIP3   OH233854   6.243   2.999   3.343
11304TIP3    H133855   6.265   2.980   3.434
11304TIP3    H233856   6.176   3.067   3.348
11305TIP3   OH233857   0.492   1.187   1.318
11305TIP3    H133858   0.408   1.150   1.292
11305TIP3    H233859   0.516   1.139   1.396
11306TIP3   OH233860   3.262   5.870   3.041
11306TIP3    H133861   3.305   5.784   3.046
11306TIP3    H233862   3.251   5.886   2.948
11307TIP3   OH233863   7.562   5.808   1.174
11307TIP3    H133864   7.638   5.844   1.220
11307TIP3    H233865   7.511   5.885   1.147
11308TIP3   OH233866   3.019   5.823   1.169
11308TIP3    H133867   2.941   5.840   1.115
11308TIP3    H233868   2.984   5.794   1.253
11309TIP3   OH233869   1.096   0.781   1.570
11309TIP3    H133870   1.161   0.777   1.641
11309TIP3    H233871   1.133   0.844   1.508
11310TIP3   OH233872   5.668   1.613   4.290
11310TIP3    H133873   5.606   1.649   4.228
11310TIP3    H233874   5.735   1.570   4.236
11311TIP3   OH233875   4.083   0.266   6.341
11311TIP3    H133876   4.086   0.213   6.421
11311TIP3    H233877   4.057   0.205   6.272
11312TIP3   OH233878   6.064   3.079   2.782
11312TIP3    H133879   6.033   3.037   2.701
11312TIP3    H233880   6.157   3.056   2.787
11313TIP3   OH233881   6.616   3.907   4.588
11313TIP3    H133882   6.567   3.966   4.530
11313TIP3    H233883   6.560   3.898   4.665
11314TIP3   OH233884   2.620   6.506   5.634
11314TIP3    H133885   2.665   6.425   5.654
11314TIP3    H233886   2.609   6.505   5.539
11315TIP3   OH233887   6.807   4.222   5.829
11315TIP3    H133888   6.886   4.275   5.816
11315TIP3    H233889   6.836   4.132   5.817
11316TIP3   OH233890   6.433   4.008   2.192
11316TIP3    H133891   6.438   3.954   2.271
11316TIP3    H233892   6.415   4.097   2.225
11317TIP3   OH233893   3.310   3.772   1.560
11317TIP3    H133894   3.351   3.694   1.597
11317TIP3    H233895   3.257   3.739   1.488
11318TIP3   OH233896   7.883   6.817   2.006
11318TIP3    H133897   7.975   6.793   1.997
11318TIP3    H233898   7.853   6.770   2.084
11319TIP3   OH233899   8.270   4.839   1.533
11319TIP3    H133900   8.294   4.808   1.446
11319TIP3    H233901   8.252   4.759   1.583
11320TIP3   OH233902   7.722   5.643   6.517
11320TIP3    H133903   7.632   5.617   6.537
11320TIP3    H233904   7.769   5.634   6.600
11321TIP3   OH233905   0.059   2.656   6.573
11321TIP3    H133906   0.002   2.611   6.636
11321TIP3    H233907   0.146   2.619   6.588
11322TIP3   OH233908   2.380   7.673   4.815
11322TIP3    H133909   2.344   7.592   4.853
11322TIP3    H233910   2.418   7.646   4.732
11323TIP3   OH233911   2.985   2.093   4.815
11323TIP3    H133912   2.915   2.113   4.752
11323TIP3    H233913   2.976   2.159   4.883
11324TIP3   OH233914   7.027   4.067   5.190
11324TIP3    H133915   6.953   4.080   5.131
11324TIP3    H233916   7.102   4.103   5.142
11325TIP3   OH233917   5.355   5.216   4.300
11325TIP3    H133918   5.362   5.202   4.395
11325TIP3    H233919   5.444   5.202   4.268
11326TIP3   OH233920   6.991   2.446   3.687
11326TIP3    H133921   6.916   2.504   3.672
11326TIP3    H233922   6.986   2.424   3.780
11327TIP3   OH233923   2.757   0.327   3.680
11327TIP3    H133924   2.714   0.245   3.656
11327TIP3    H233925   2.824   0.300   3.744
11328TIP3   OH233926   0.050   1.987   3.476
11328TIP3    H133927  -0.028   2.041   3.488
11328TIP3    H233928   0.035   1.941   3.393
11329TIP3   OH233929   1.564   6.402   0.056
11329TIP3    H133930   1.530   6.491   0.042
11329TIP3    H233931   1.569   6.394   0.151
11330TIP3   OH233932   3.687   0.815   5.142
11330TIP3    H133933   3.711   0.903   5.169
11330TIP3    H233934   3.738   0.799   5.063
11331TIP3   OH233935   5.289   0.996   1.611
11331TIP3    H133936   5.264   0.999   1.703
11331TIP3    H233937   5.210   1.021   1.564
11332TIP3   OH233938   7.674   6.806   5.371
11332TIP3    H133939   7.731   6.786   5.297
11332TIP3    H233940   7.667   6.724   5.419
11333TIP3   OH233941   5.471   1.935   5.698
11333TIP3    H133942   5.455   2.003   5.763
11333TIP3    H233943   5.404   1.869   5.716
11334TIP3   OH233944   5.164   3.528   4.450
11334TIP3    H133945   5.153   3.452   4.392
11334TIP3    H233946   5.223   3.586   4.402
11335TIP3   OH233947   5.345   1.250   1.089
11335TIP3    H133948   5.273   1.196   1.058
11335TIP3    H233949   5.409   1.187   1.124
11336TIP3   OH233950   5.075   7.200   3.515
11336TIP3    H133951   5.060   7.250   3.435
11336TIP3    H233952   5.054   7.109   3.491
11337TIP3   OH233953   3.245   5.644   1.521
11337TIP3    H133954   3.188   5.718   1.502
11337TIP3    H233955   3.188   5.579   1.563
11338TIP3   OH233956   5.380   7.389   5.317
11338TIP3    H133957   5.363   7.341   5.398
11338TIP3    H233958   5.470   7.366   5.294
11339TIP3   OH233959   4.306   6.714   4.510
11339TIP3    H133960   4.264   6.744   4.590
11339TIP3    H233961   4.235   6.713   4.445
11340TIP3   OH233962   0.929   6.659   0.646
11340TIP3    H133963   0.901   6.746   0.617
11340TIP3    H233964   0.861   6.600   0.614
11341TIP3   OH233965   0.358   0.434   3.849
11341TIP3    H133966   0.324   0.522   3.858
11341TIP3    H233967   0.344   0.394   3.935
11342TIP3   OH233968   4.342   6.139   5.786
11342TIP3    H133969   4.290   6.076   5.836
11342TIP3    H233970   4.324   6.223   5.829
11343TIP3   OH233971   5.823   2.199   4.374
11343TIP3    H133972   5.741   2.164   4.409
11343TIP3    H233973   5.883   2.124   4.374
11344TIP3   OH233974   7.613   3.318   1.955
11344TIP3    H133975   7.568   3.247   1.909
11344TIP3    H233976   7.623   3.386   1.889
11345TIP3   OH233977   7.840   4.077   2.169
11345TIP3    H133978   7.770   4.129   2.129
11345TIP3    H233979   7.876   4.134   2.236
11346TIP3   OH233980   5.059   2.580   3.811
11346TIP3    H133981   5.124   2.632   3.857
11346TIP3    H233982   5.110   2.514   3.764
11347TIP3   OH233983   1.375   2.669   1.058
11347TIP3    H133984   1.401   2.728   0.987
11347TIP3    H233985   1.451   2.612   1.071
11348TIP3   OH233986   8.027   5.805   0.937
11348TIP3    H133987   7.955   5.808   1.001
11348TIP3    H233988   7.990   5.757   0.863
11349TIP3   OH233989   3.929   6.148   2.007
11349TIP3    H133990   3.982   6.227   2.019
11349TIP3    H233991   3.910   6.118   2.095
11350TIP3   OH233992   6.844   3.019   6.693
11350TIP3    H133993   6.900   3.047   6.620
11350TIP3    H233994   6.809   2.934   6.664
11351TIP3   OH233995   4.326   0.129   3.022
11351TIP3    H133996   4.343   0.202   2.961
11351TIP3    H233997   4.305   0.172   3.105
11352TIP3   OH233998   2.788   3.987   4.794
11352TIP3    H133999   2.870   4.022   4.828
11352TIP3    H234000   2.767   4.043   4.719
11353TIP3   OH234001   1.763   2.097   6.098
11353TIP3    H134002   1.704   2.038   6.144
11353TIP3    H234003   1.705   2.152   6.045
11354TIP3   OH234004   0.986   2.126   1.151
11354TIP3    H134005   1.006   2.052   1.092
11354TIP3    H234006   1.067   2.139   1.201
11355TIP3   OH234007   1.697   3.640   3.192
11355TIP3    H134008   1.642   3.563   3.181
11355TIP3    H234009   1.786   3.606   3.201
11356TIP3   OH234010   1.207   3.910   3.527
11356TIP3    H134011   1.170   3.823   3.539
11356TIP3    H234012   1.229   3.939   3.616
11357TIP3   OH234013   0.152   4.183   3.366
11357TIP3    H134014   0.095   4.213   3.437
11357TIP3    H234015   0.137   4.089   3.361
11358TIP3   OH234016   6.274   0.748   5.908
11358TIP3    H134017   6.355   0.697   5.912
11358TIP3    H234018   6.290   0.823   5.965
11359TIP3   OH234019   6.565   1.880   2.863
11359TIP3    H134020   6.656   1.906   2.850
11359TIP3    H234021   6.570   1.787   2.884
11360TIP3   OH234022   0.004   0.034   3.774
11360TIP3    H134023   0.013  -0.037   3.838
11360TIP3    H234024   0.088   0.079   3.776
11361TIP3   OH234025   2.714   6.824   2.672
11361TIP3    H134026   2.793   6.828   2.618
11361TIP3    H234027   2.697   6.915   2.697
11362TIP3   OH234028   1.990   1.594   2.460
11362TIP3    H134029   2.051   1.650   2.412
11362TIP3    H234030   1.903   1.627   2.435
11363TIP3   OH234031   7.532   5.010   1.915
11363TIP3    H134032   7.451   4.959   1.905
11363TIP3    H234033   7.537   5.062   1.835
11364TIP3   OH234034   6.012   3.881   4.231
11364TIP3    H134035   5.988   3.897   4.139
11364TIP3    H234036   5.968   3.952   4.279
11365TIP3   OH234037   2.665   7.280   1.961
11365TIP3    H134038   2.622   7.344   2.018
11365TIP3    H234039   2.733   7.331   1.916
11366TIP3   OH234040   3.492   6.111   1.174
11366TIP3    H134041   3.472   6.194   1.218
11366TIP3    H234042   3.581   6.123   1.141
11367TIP3   OH234043   1.411   1.457   1.532
11367TIP3    H134044   1.400   1.368   1.498
11367TIP3    H234045   1.352   1.510   1.478
11368TIP3   OH234046   7.118   1.111   2.458
11368TIP3    H134047   7.151   1.028   2.491
11368TIP3    H234048   7.091   1.159   2.536
11369TIP3   OH234049   0.607   3.793   4.563
11369TIP3    H134050   0.557   3.864   4.524
11369TIP3    H234051   0.590   3.801   4.657
11370TIP3   OH234052   7.568   1.169   1.685
11370TIP3    H134053   7.589   1.217   1.605
11370TIP3    H234054   7.543   1.237   1.748
11371TIP3   OH234055   0.754   4.368   4.339
11371TIP3    H134056   0.767   4.302   4.407
11371TIP3    H234057   0.659   4.379   4.334
11372TIP3   OH234058   5.278   7.264   2.101
11372TIP3    H134059   5.347   7.329   2.113
11372TIP3    H234060   5.237   7.257   2.187
11373TIP3   OH234061   1.237   2.640   3.008
11373TIP3    H134062   1.246   2.695   2.931
11373TIP3    H234063   1.148   2.658   3.040
11374TIP3   OH234064   3.890   3.572   3.022
11374TIP3    H134065   3.968   3.528   3.056
11374TIP3    H234066   3.819   3.544   3.079
11375TIP3   OH234067   5.882   2.765   5.241
11375TIP3    H134068   5.888   2.851   5.199
11375TIP3    H234069   5.929   2.775   5.324
11376TIP3   OH234070   8.226   6.820   0.076
11376TIP3    H134071   8.289   6.789   0.141
11376TIP3    H234072   8.248   6.913   0.063
11377TIP3   OH234073   4.567   2.100   2.903
11377TIP3    H134074   4.595   2.078   2.992
11377TIP3    H234075   4.510   2.176   2.914
11378TIP3   OH234076   6.424   2.114   2.930
11378TIP3    H134077   6.476   2.035   2.918
11378TIP3    H234078   6.395   2.138   2.842
11379TIP3   OH234079   7.249   5.460   0.711
11379TIP3    H134080   7.185   5.438   0.778
11379TIP3    H234081   7.266   5.377   0.666
11380TIP3   OH234082   3.837   6.321   1.622
11380TIP3    H134083   3.847   6.370   1.704
11380TIP3    H234084   3.846   6.387   1.554
11381TIP3   OH234085   8.253   1.623   2.499
11381TIP3    H134086   8.227   1.554   2.560
11381TIP3    H234087   8.181   1.629   2.437
11382TIP3   OH234088   6.424   5.201   3.365
11382TIP3    H134089   6.506   5.248   3.377
11382TIP3    H234090   6.398   5.173   3.453
11383TIP3   OH234091   4.637   2.241   0.489
11383TIP3    H134092   4.647   2.154   0.450
11383TIP3    H234093   4.669   2.301   0.422
11384TIP3   OH234094   0.035   4.371   4.681
11384TIP3    H134095   0.043   4.383   4.586
11384TIP3    H234096   0.039   4.460   4.716
11385TIP3   OH234097   6.221   3.607   0.369
11385TIP3    H134098   6.289   3.672   0.388
11385TIP3    H234099   6.232   3.589   0.276
11386TIP3   OH234100   2.809   5.368   5.915
11386TIP3    H134101   2.803   5.423   5.836
11386TIP3    H234102   2.723   5.325   5.921
11387TIP3   OH234103   2.689   2.118   4.015
11387TIP3    H134104   2.662   2.048   4.074
11387TIP3    H234105   2.673   2.198   4.065
11388TIP3   OH234106   4.917   1.468   3.515
11388TIP3    H134107   4.984   1.453   3.448
11388TIP3    H234108   4.864   1.387   3.513
11389TIP3   OH234109   1.737   7.283   5.109
11389TIP3    H134110   1.696   7.266   5.194
11389TIP3    H234111   1.707   7.371   5.085
11390TIP3   OH234112   8.040   6.879   4.605
11390TIP3    H134113   8.025   6.788   4.579
11390TIP3    H234114   7.959   6.905   4.648
11391TIP3   OH234115   3.804   1.496   4.276
11391TIP3    H134116   3.874   1.535   4.224
11391TIP3    H234117   3.834   1.503   4.366
11392TIP3   OH234118   6.354   5.473   3.084
11392TIP3    H134119   6.260   5.485   3.069
11392TIP3    H234120   6.391   5.561   3.075
11393TIP3   OH234121   0.693   5.029   5.698
11393TIP3    H134122   0.610   5.020   5.652
11393TIP3    H234123   0.741   5.096   5.649
11394TIP3   OH234124   3.584   4.847   2.350
11394TIP3    H134125   3.593   4.752   2.338
11394TIP3    H234126   3.492   4.860   2.374
11395TIP3   OH234127   4.938   0.951   3.268
11395TIP3    H134128   4.884   0.976   3.343
11395TIP3    H234129   4.971   1.034   3.234
11396TIP3   OH234130   0.567   6.036   3.492
11396TIP3    H134131   0.481   6.031   3.449
11396TIP3    H234132   0.560   6.112   3.551
11397TIP3   OH234133   1.961   6.914   6.553
11397TIP3    H134134   2.034   6.853   6.540
11397TIP3    H234135   1.894   6.863   6.599
11398TIP3   OH234136   7.193   4.127   3.711
11398TIP3    H134137   7.216   4.071   3.637
11398TIP3    H234138   7.222   4.079   3.788
11399TIP3   OH234139   1.961   3.797   2.289
11399TIP3    H134140   2.025   3.801   2.218
11399TIP3    H234141   2.003   3.743   2.356
11400TIP3   OH234142   3.316   4.841   4.079
11400TIP3    H134143   3.315   4.766   4.138
11400TIP3    H234144   3.291   4.804   3.994
11401TIP3   OH234145   2.769   2.715   4.666
11401TIP3    H134146   2.840   2.757   4.618
11401TIP3    H234147   2.813   2.662   4.732
11402TIP3   OH234148   0.078   3.515   2.615
11402TIP3    H134149   0.069   3.496   2.522
11402TIP3    H234150   0.105   3.432   2.655
11403TIP3   OH234151   1.495   2.184   0.871
11403TIP3    H134152   1.505   2.212   0.780
11403TIP3    H234153   1.566   2.121   0.885
11404TIP3   OH234154   2.223   5.865   2.655
11404TIP3    H134155   2.269   5.822   2.583
11404TIP3    H234156   2.285   5.932   2.686
11405TIP3   OH234157   1.921   0.440   4.284
11405TIP3    H134158   1.999   0.491   4.307
11405TIP3    H234159   1.880   0.489   4.213
11406TIP3   OH234160   5.216   5.060   2.090
11406TIP3    H134161   5.204   4.966   2.101
11406TIP3    H234162   5.296   5.068   2.038
11407TIP3   OH234163   8.090   0.537   0.117
11407TIP3    H134164   8.035   0.545   0.039
11407TIP3    H234165   8.176   0.570   0.089
11408TIP3   OH234166   1.451   3.103   6.457
11408TIP3    H134167   1.366   3.131   6.425
11408TIP3    H234168   1.514   3.144   6.398
11409TIP3   OH234169   1.061   1.876   2.624
11409TIP3    H134170   1.122   1.945   2.650
11409TIP3    H234171   1.079   1.804   2.683
11410TIP3   OH234172   5.657   6.066   4.253
11410TIP3    H134173   5.646   6.110   4.337
11410TIP3    H234174   5.748   6.038   4.253
11411TIP3   OH234175   6.330   3.850   0.074
11411TIP3    H134176   6.239   3.832   0.049
11411TIP3    H234177   6.324   3.928   0.130
11412TIP3   OH234178   4.134   3.490   0.889
11412TIP3    H134179   4.106   3.581   0.897
11412TIP3    H234180   4.221   3.495   0.849
11413TIP3   OH234181   4.051   1.948   3.098
11413TIP3    H134182   4.094   1.929   3.182
11413TIP3    H234183   3.989   1.875   3.086
11414TIP3   OH234184   1.600   4.514   4.353
11414TIP3    H134185   1.562   4.599   4.378
11414TIP3    H234186   1.669   4.499   4.417
11415TIP3   OH234187   7.521   7.053   0.407
11415TIP3    H134188   7.612   7.026   0.409
11415TIP3    H234189   7.505   7.080   0.317
11416TIP3   OH234190   1.681   1.203   5.491
11416TIP3    H134191   1.638   1.272   5.542
11416TIP3    H234192   1.610   1.160   5.444
11417TIP3   OH234193   1.559   6.455   2.802
11417TIP3    H134194   1.625   6.485   2.863
11417TIP3    H234195   1.488   6.519   2.810
11418TIP3   OH234196   7.524   1.953   3.573
11418TIP3    H134197   7.613   1.974   3.547
11418TIP3    H234198   7.471   2.024   3.535
11419TIP3   OH234199   7.475   0.318   1.594
11419TIP3    H134200   7.445   0.385   1.655
11419TIP3    H234201   7.413   0.324   1.521
11420TIP3   OH234202   6.782   3.512   6.362
11420TIP3    H134203   6.691   3.532   6.342
11420TIP3    H234204   6.779   3.473   6.450
11421TIP3   OH234205   4.808   1.505   5.700
11421TIP3    H134206   4.797   1.546   5.786
11421TIP3    H234207   4.719   1.486   5.671
11422TIP3   OH234208   0.670   1.789   4.360
11422TIP3    H134209   0.632   1.770   4.446
11422TIP3    H234210   0.642   1.716   4.304
11423TIP3   OH234211   3.871   6.035   0.247
11423TIP3    H134212   3.848   5.961   0.191
11423TIP3    H234213   3.945   6.076   0.203
11424TIP3   OH234214   2.222   0.105   5.400
11424TIP3    H134215   2.233   0.080   5.309
11424TIP3    H234216   2.306   0.140   5.427
11425TIP3   OH234217   0.488   1.261   0.233
11425TIP3    H134218   0.406   1.307   0.249
11425TIP3    H234219   0.470   1.204   0.159
11426TIP3   OH234220   7.752   2.578   0.811
11426TIP3    H134221   7.803   2.511   0.767
11426TIP3    H234222   7.693   2.530   0.869
11427TIP3   OH234223   7.394   1.590   0.437
11427TIP3    H134224   7.425   1.643   0.510
11427TIP3    H234225   7.322   1.640   0.400
11428TIP3   OH234226   7.521   3.015   2.401
11428TIP3    H134227   7.614   3.022   2.424
11428TIP3    H234228   7.476   3.005   2.485
11429TIP3   OH234229   5.658   5.582   4.744
11429TIP3    H134230   5.707   5.659   4.774
11429TIP3    H234231   5.691   5.510   4.798
11430TIP3   OH234232   5.167   7.511   3.381
11430TIP3    H134233   5.205   7.432   3.344
11430TIP3    H234234   5.195   7.581   3.322
11431TIP3   OH234235   8.013   5.413   4.011
11431TIP3    H134236   8.010   5.401   3.916
11431TIP3    H234237   8.071   5.489   4.024
11432TIP3   OH234238   4.917   3.147   5.986
11432TIP3    H134239   4.922   3.140   6.082
11432TIP3    H234240   4.857   3.220   5.971
11433TIP3   OH234241   2.770   5.664   0.947
11433TIP3    H134242   2.692   5.622   0.911
11433TIP3    H234243   2.787   5.738   0.889
11434TIP3   OH234244   6.836   6.494   6.670
11434TIP3    H134245   6.932   6.492   6.669
11434TIP3    H234246   6.810   6.426   6.607
11435TIP3   OH234247   4.564   5.871   6.048
11435TIP3    H134248   4.604   5.827   6.123
11435TIP3    H234249   4.475   5.837   6.045
11436TIP3   OH234250   6.518   2.817   2.310
11436TIP3    H134251   6.482   2.905   2.301
11436TIP3    H234252   6.448   2.766   2.351
11437TIP3   OH234253   2.706   4.343   1.726
11437TIP3    H134254   2.752   4.290   1.661
11437TIP3    H234255   2.719   4.434   1.696
11438TIP3   OH234256   4.006   3.423   2.593
11438TIP3    H134257   4.065   3.490   2.627
11438TIP3    H234258   3.933   3.421   2.655
11439TIP3   OH234259   0.486   6.120   1.037
11439TIP3    H134260   0.537   6.102   1.116
11439TIP3    H234261   0.403   6.155   1.070
11440TIP3   OH234262   1.679   0.522   3.401
11440TIP3    H134263   1.643   0.462   3.466
11440TIP3    H234264   1.604   0.576   3.373
11441TIP3   OH234265   6.540   5.812   6.587
11441TIP3    H134266   6.592   5.740   6.551
11441TIP3    H234267   6.525   5.871   6.514
11442TIP3   OH234268   5.541   6.157   1.370
11442TIP3    H134269   5.550   6.065   1.395
11442TIP3    H234270   5.566   6.205   1.449
11443TIP3   OH234271   2.804   2.038   5.229
11443TIP3    H134272   2.817   1.965   5.169
11443TIP3    H234273   2.722   2.018   5.274
11444TIP3   OH234274   3.240   4.028   0.037
11444TIP3    H134275   3.156   4.009   0.079
11444TIP3    H234276   3.285   4.086   0.099
11445TIP3   OH234277   6.595   1.672   4.161
11445TIP3    H134278   6.529   1.603   4.173
11445TIP3    H234279   6.635   1.682   4.247
11446TIP3   OH234280   1.257   4.645   5.414
11446TIP3    H134281   1.193   4.624   5.482
11446TIP3    H234282   1.280   4.560   5.376
11447TIP3   OH234283   3.639   1.598   2.214
11447TIP3    H134284   3.670   1.672   2.161
11447TIP3    H234285   3.718   1.559   2.251
11448TIP3   OH234286   0.631   2.954   3.055
11448TIP3    H134287   0.558   3.010   3.083
11448TIP3    H234288   0.622   2.948   2.960
11449TIP3   OH234289   4.727   1.934   2.425
11449TIP3    H134290   4.665   2.003   2.451
11449TIP3    H234291   4.805   1.982   2.396
11450TIP3   OH234292   3.870   4.695   1.777
11450TIP3    H134293   3.789   4.653   1.750
11450TIP3    H234294   3.863   4.785   1.745
11451TIP3   OH234295   3.165   4.294   0.444
11451TIP3    H134296   3.120   4.228   0.497
11451TIP3    H234297   3.096   4.330   0.388
11452TIP3   OH234298   5.975   3.313   6.135
11452TIP3    H134299   5.949   3.267   6.055
11452TIP3    H234300   6.063   3.279   6.154
11453TIP3   OH234301   3.966   2.983   5.833
11453TIP3    H134302   4.037   2.940   5.882
11453TIP3    H234303   3.899   2.999   5.898
11454TIP3   OH234304   0.252   0.748   1.968
11454TIP3    H134305   0.234   0.655   1.984
11454TIP3    H234306   0.286   0.781   2.052
11455TIP3   OH234307   4.336   5.845   1.194
11455TIP3    H134308   4.393   5.880   1.125
11455TIP3    H234309   4.373   5.760   1.214
11456TIP3   OH234310   4.552   0.146   6.305
11456TIP3    H134311   4.525   0.058   6.333
11456TIP3    H234312   4.567   0.194   6.386
11457TIP3   OH234313   1.335   3.059   4.213
11457TIP3    H134314   1.399   3.031   4.278
11457TIP3    H234315   1.356   3.009   4.135
11458TIP3   OH234316   7.073   7.082   4.110
11458TIP3    H134317   7.164   7.101   4.134
11458TIP3    H234318   7.021   7.129   4.175
11459TIP3   OH234319   5.386   2.804   2.796
11459TIP3    H134320   5.417   2.741   2.731
11459TIP3    H234321   5.308   2.842   2.756
11460TIP3   OH234322   4.706   2.051   3.142
11460TIP3    H134323   4.739   2.065   3.231
11460TIP3    H234324   4.782   2.068   3.086
11461TIP3   OH234325   6.056   7.629   0.166
11461TIP3    H134326   5.968   7.628   0.128
11461TIP3    H234327   6.062   7.546   0.213
11462TIP3   OH234328   0.908   1.947   4.333
11462TIP3    H134329   0.824   1.902   4.346
11462TIP3    H234330   0.907   1.973   4.241
11463TIP3   OH234331   3.878   2.915   1.225
11463TIP3    H134332   3.911   2.885   1.141
11463TIP3    H234333   3.893   3.009   1.226
11464TIP3   OH234334   2.727   3.113   2.643
11464TIP3    H134335   2.808   3.161   2.632
11464TIP3    H234336   2.663   3.159   2.588
11465TIP3   OH234337   2.920   7.291   6.278
11465TIP3    H134338   2.856   7.231   6.242
11465TIP3    H234339   2.992   7.235   6.307
11466TIP3   OH234340   6.373   1.460   3.102
11466TIP3    H134341   6.382   1.450   3.007
11466TIP3    H234342   6.337   1.376   3.131
11467TIP3   OH234343   0.400   2.985   6.362
11467TIP3    H134344   0.431   2.910   6.311
11467TIP3    H234345   0.435   2.969   6.450
11468TIP3   OH234346   5.964   2.734   2.867
11468TIP3    H134347   5.891   2.724   2.928
11468TIP3    H234348   5.923   2.765   2.786
11469TIP3   OH234349   1.682   1.003   6.125
11469TIP3    H134350   1.681   0.915   6.163
11469TIP3    H234351   1.699   1.061   6.199
11470TIP3   OH234352   4.171   4.818   6.225
11470TIP3    H134353   4.154   4.909   6.248
11470TIP3    H234354   4.226   4.785   6.296
11471TIP3   OH234355   1.494   1.752   0.823
11471TIP3    H134356   1.413   1.783   0.782
11471TIP3    H234357   1.559   1.819   0.800
11472TIP3   OH234358   3.276   7.139   4.822
11472TIP3    H134359   3.266   7.052   4.862
11472TIP3    H234360   3.336   7.125   4.748
11473TIP3   OH234361   2.420   3.077   1.515
11473TIP3    H134362   2.449   3.164   1.486
11473TIP3    H234363   2.479   3.016   1.470
11474TIP3   OH234364   4.464   5.310   4.566
11474TIP3    H134365   4.372   5.323   4.544
11474TIP3    H234366   4.504   5.280   4.484
11475TIP3   OH234367   2.819   1.311   1.249
11475TIP3    H134368   2.876   1.235   1.237
11475TIP3    H234369   2.731   1.277   1.237
11476TIP3   OH234370   2.099   4.336   5.839
11476TIP3    H134371   2.048   4.257   5.861
11476TIP3    H234372   2.036   4.394   5.797
11477TIP3   OH234373   3.175   7.097   2.292
11477TIP3    H134374   3.198   7.184   2.261
11477TIP3    H234375   3.257   7.048   2.289
11478TIP3   OH234376   7.044   5.375   2.277
11478TIP3    H134377   7.071   5.324   2.201
11478TIP3    H234378   7.029   5.310   2.345
11479TIP3   OH234379   0.466   3.284   1.206
11479TIP3    H134380   0.503   3.222   1.269
11479TIP3    H234381   0.524   3.279   1.130
11480TIP3   OH234382   2.697   6.926   5.803
11480TIP3    H134383   2.724   7.016   5.818
11480TIP3    H234384   2.723   6.907   5.713
11481TIP3   OH234385   7.678   7.410   3.438
11481TIP3    H134386   7.634   7.361   3.368
11481TIP3    H234387   7.764   7.368   3.446
11482TIP3   OH234388   5.271   2.662   3.016
11482TIP3    H134389   5.236   2.592   2.960
11482TIP3    H234390   5.283   2.736   2.957
11483TIP3   OH234391   2.759   6.318   5.825
11483TIP3    H134392   2.690   6.256   5.849
11483TIP3    H234393   2.765   6.378   5.899
11484TIP3   OH234394   1.860   0.332   3.396
11484TIP3    H134395   1.788   0.382   3.360
11484TIP3    H234396   1.898   0.286   3.321
11485TIP3   OH234397   6.595   2.665   2.661
11485TIP3    H134398   6.688   2.642   2.670
11485TIP3    H234399   6.568   2.623   2.580
11486TIP3   OH234400   3.718   4.463   6.552
11486TIP3    H134401   3.737   4.538   6.609
11486TIP3    H234402   3.797   4.452   6.499
11487TIP3   OH234403   4.826   3.031   3.827
11487TIP3    H134404   4.740   3.001   3.797
11487TIP3    H234405   4.885   3.011   3.755
11488TIP3   OH234406   6.765   4.686   3.900
11488TIP3    H134407   6.742   4.612   3.844
11488TIP3    H234408   6.700   4.683   3.970
11489TIP3   OH234409   7.263   6.650   3.824
11489TIP3    H134410   7.201   6.602   3.879
11489TIP3    H234411   7.330   6.586   3.801
11490TIP3   OH234412   7.381   4.315   5.339
11490TIP3    H134413   7.331   4.272   5.270
11490TIP3    H234414   7.423   4.244   5.387
11491TIP3   OH234415   7.183   1.933   6.269
11491TIP3    H134416   7.182   1.871   6.196
11491TIP3    H234417   7.105   1.986   6.257
11492TIP3   OH234418   7.168   0.030   0.773
11492TIP3    H134419   7.143   0.108   0.724
11492TIP3    H234420   7.085  -0.001   0.811
11493TIP3   OH234421   3.206   0.125   4.873
11493TIP3    H134422   3.138   0.184   4.905
11493TIP3    H234423   3.272   0.126   4.942
11494TIP3   OH234424   1.939   6.423   0.123
11494TIP3    H134425   1.868   6.363   0.146
11494TIP3    H234426   1.920   6.450   0.033
11495TIP3   OH234427   3.227   4.701   2.665
11495TIP3    H134428   3.235   4.765   2.735
11495TIP3    H234429   3.274   4.624   2.697
11496TIP3   OH234430   0.991   2.363   2.429
11496TIP3    H134431   1.036   2.281   2.407
11496TIP3    H234432   0.951   2.345   2.514
11497TIP3   OH234433   6.313   4.795   4.919
11497TIP3    H134434   6.255   4.756   4.984
11497TIP3    H234435   6.320   4.730   4.849
11498TIP3   OH234436   4.241   1.325   5.092
11498TIP3    H134437   4.310   1.287   5.038
11498TIP3    H234438   4.267   1.416   5.104
11499TIP3   OH234439   5.076   2.109   3.270
11499TIP3    H134440   5.066   2.084   3.178
11499TIP3    H234441   4.989   2.097   3.308
11500TIP3   OH234442   7.567   4.537   5.251
11500TIP3    H134443   7.560   4.575   5.338
11500TIP3    H234444   7.505   4.464   5.252
11501TIP3   OH234445   6.319   1.464   0.730
11501TIP3    H134446   6.232   1.455   0.689
11501TIP3    H234447   6.341   1.556   0.720
11502TIP3   OH234448   1.779   4.961   0.140
11502TIP3    H134449   1.708   4.922   0.192
11502TIP3    H234450   1.735   5.025   0.084
11503TIP3   OH234451   4.378   5.214   1.756
11503TIP3    H134452   4.457   5.257   1.787
11503TIP3    H234453   4.307   5.259   1.802
11504TIP3   OH234454   4.019   0.222   3.043
11504TIP3    H134455   4.083   0.282   3.082
11504TIP3    H234456   3.979   0.178   3.119
11505TIP3   OH234457   1.692   3.120   3.461
11505TIP3    H134458   1.642   3.159   3.533
11505TIP3    H234459   1.751   3.058   3.504
11506TIP3   OH234460   7.007   5.318   0.150
11506TIP3    H134461   7.061   5.386   0.110
11506TIP3    H234462   6.995   5.253   0.081
11507TIP3   OH234463   3.664   3.054   1.773
11507TIP3    H134464   3.606   3.032   1.700
11507TIP3    H234465   3.673   3.149   1.769
11508TIP3   OH234466   4.188   1.514   2.047
11508TIP3    H134467   4.269   1.538   2.001
11508TIP3    H234468   4.157   1.597   2.083
11509TIP3   OH234469   3.927   1.111   4.990
11509TIP3    H134470   3.969   1.159   5.061
11509TIP3    H234471   3.936   1.168   4.914
11510TIP3   OH234472   4.169   3.891   3.092
11510TIP3    H134473   4.185   3.948   3.167
11510TIP3    H234474   4.218   3.932   3.020
11511TIP3   OH234475   3.762   2.536   0.773
11511TIP3    H134476   3.729   2.620   0.743
11511TIP3    H234477   3.803   2.554   0.857
11512TIP3   OH234478   6.010   2.376   4.461
11512TIP3    H134479   6.070   2.304   4.480
11512TIP3    H234480   5.932   2.334   4.426
11513TIP3   OH234481   4.767   1.244   3.534
11513TIP3    H134482   4.826   1.204   3.598
11513TIP3    H234483   4.789   1.201   3.451
11514TIP3   OH234484   4.661   5.266   3.200
11514TIP3    H134485   4.690   5.261   3.109
11514TIP3    H234486   4.687   5.182   3.238
11515TIP3   OH234487   5.099   1.550   4.209
11515TIP3    H134488   5.188   1.519   4.225
11515TIP3    H234489   5.068   1.498   4.135
11516TIP3   OH234490   0.511   3.782   4.821
11516TIP3    H134491   0.505   3.747   4.909
11516TIP3    H234492   0.426   3.764   4.781
11517TIP3   OH234493   1.467   7.546   0.810
11517TIP3    H134494   1.548   7.577   0.849
11517TIP3    H234495   1.482   7.452   0.797
11518TIP3   OH234496   0.568   0.232   0.612
11518TIP3    H134497   0.474   0.236   0.625
11518TIP3    H234498   0.580   0.219   0.518
11519TIP3   OH234499   8.261   2.642   6.318
11519TIP3    H134500   8.239   2.734   6.305
11519TIP3    H234501   8.310   2.641   6.401
11520TIP3   OH234502   3.883   6.709   2.931
11520TIP3    H134503   3.979   6.708   2.926
11520TIP3    H234504   3.855   6.720   2.840
11521TIP3   OH234505   7.681   2.224   2.865
11521TIP3    H134506   7.597   2.222   2.819
11521TIP3    H234507   7.689   2.315   2.895
11522TIP3   OH234508   3.444   0.346   4.062
11522TIP3    H134509   3.474   0.260   4.092
11522TIP3    H234510   3.524   0.389   4.031
11523TIP3   OH234511   7.264   7.165   4.780
11523TIP3    H134512   7.192   7.137   4.723
11523TIP3    H234513   7.229   7.161   4.868
11524TIP3   OH234514   4.187   3.178   0.428
11524TIP3    H134515   4.213   3.164   0.519
11524TIP3    H234516   4.249   3.125   0.377
11525TIP3   OH234517   1.946   6.358   5.696
11525TIP3    H134518   1.991   6.388   5.616
11525TIP3    H234519   1.882   6.294   5.665
11526TIP3   OH234520   2.966   2.224   5.622
11526TIP3    H134521   3.040   2.166   5.639
11526TIP3    H234522   2.973   2.245   5.529
11527TIP3   OH234523   4.534   6.194   3.603
11527TIP3    H134524   4.542   6.199   3.698
11527TIP3    H234525   4.442   6.213   3.585
11528TIP3   OH234526   2.341   5.731   4.286
11528TIP3    H134527   2.427   5.722   4.327
11528TIP3    H234528   2.306   5.813   4.322
11529TIP3   OH234529   6.540   3.436   5.724
11529TIP3    H134530   6.522   3.464   5.814
11529TIP3    H234531   6.498   3.501   5.669
11530TIP3   OH234532   2.318   4.911   1.996
11530TIP3    H134533   2.227   4.885   2.014
11530TIP3    H234534   2.355   4.839   1.947
11531TIP3   OH234535   4.916   3.366   4.752
11531TIP3    H134536   5.001   3.337   4.720
11531TIP3    H234537   4.862   3.372   4.674
11532TIP3   OH234538   7.746   7.113   0.828
11532TIP3    H134539   7.739   7.208   0.836
11532TIP3    H234540   7.710   7.080   0.911
11533TIP3   OH234541   1.132   7.041   3.620
11533TIP3    H134542   1.194   7.107   3.590
11533TIP3    H234543   1.182   6.990   3.684
11534TIP3   OH234544   1.908   6.724   0.276
11534TIP3    H134545   1.863   6.643   0.252
11534TIP3    H234546   1.845   6.793   0.254
11535TIP3   OH234547   8.238   5.661   1.059
11535TIP3    H134548   8.258   5.711   1.138
11535TIP3    H234549   8.177   5.716   1.010
11536TIP3   OH234550   4.296   6.081   3.074
11536TIP3    H134551   4.338   6.137   3.008
11536TIP3    H234552   4.317   5.992   3.047
11537TIP3   OH234553   7.535   1.832   5.777
11537TIP3    H134554   7.611   1.780   5.805
11537TIP3    H234555   7.462   1.771   5.778
11538TIP3   OH234556   7.141   3.824   5.585
11538TIP3    H134557   7.107   3.824   5.496
11538TIP3    H234558   7.236   3.819   5.575
11539TIP3   OH234559   5.051   6.059   1.371
11539TIP3    H134560   5.113   5.997   1.333
11539TIP3    H234561   5.068   6.141   1.326
11540TIP3   OH234562   1.559   3.539   4.606
11540TIP3    H134563   1.483   3.594   4.626
11540TIP3    H234564   1.575   3.554   4.512
11541TIP3   OH234565   3.542   5.807   3.121
11541TIP3    H134566   3.573   5.757   3.045
11541TIP3    H234567   3.531   5.896   3.087
11542TIP3   OH234568   3.885   3.529   3.427
11542TIP3    H134569   3.948   3.483   3.372
11542TIP3    H234570   3.810   3.545   3.371
11543TIP3   OH234571   3.565   1.455   4.419
11543TIP3    H134572   3.582   1.512   4.494
11543TIP3    H234573   3.641   1.465   4.363
11544TIP3   OH234574   7.160   1.530   1.111
11544TIP3    H134575   7.224   1.465   1.140
11544TIP3    H234576   7.185   1.610   1.158
11545TIP3   OH234577   4.842   7.481   6.680
11545TIP3    H134578   4.747   7.488   6.675
11545TIP3    H234579   4.858   7.401   6.731
11546TIP3   OH234580   7.304   5.003   2.803
11546TIP3    H134581   7.321   5.059   2.727
11546TIP3    H234582   7.352   5.045   2.875
11547TIP3   OH234583   1.674   1.101   3.670
11547TIP3    H134584   1.614   1.032   3.641
11547TIP3    H234585   1.643   1.124   3.757
11548TIP3   OH234586   5.060   7.509   2.250
11548TIP3    H134587   5.144   7.464   2.249
11548TIP3    H234588   5.083   7.602   2.256
11549TIP3   OH234589   7.147   2.201   3.645
11549TIP3    H134590   7.139   2.256   3.723
11549TIP3    H234591   7.076   2.138   3.652
11550TIP3   OH234592   8.179   1.411   6.732
11550TIP3    H134593   8.201   1.502   6.712
11550TIP3    H234594   8.118   1.416   6.805
11551TIP3   OH234595   7.055   6.302   2.368
11551TIP3    H134596   7.145   6.302   2.400
11551TIP3    H234597   7.048   6.381   2.314
11552TIP3   OH234598   1.748   6.823   2.628
11552TIP3    H134599   1.828   6.823   2.680
11552TIP3    H234600   1.686   6.875   2.678
11553TIP3   OH234601   5.961   3.828   2.569
11553TIP3    H134602   5.900   3.823   2.494
11553TIP3    H234603   5.904   3.826   2.646
11554TIP3   OH234604   3.152   3.632   2.099
11554TIP3    H134605   3.146   3.563   2.165
11554TIP3    H234606   3.150   3.714   2.149
11555TIP3   OH234607   4.638   0.976   4.924
11555TIP3    H134608   4.666   0.939   4.841
11555TIP3    H234609   4.719   0.989   4.973
11556TIP3   OH234610   4.070   4.189   6.074
11556TIP3    H134611   4.054   4.263   6.016
11556TIP3    H234612   4.016   4.119   6.038
11557TIP3   OH234613   5.720   6.676   2.153
11557TIP3    H134614   5.736   6.586   2.184
11557TIP3    H234615   5.799   6.724   2.178
11558TIP3   OH234616   2.476   5.662   5.072
11558TIP3    H134617   2.468   5.744   5.120
11558TIP3    H234618   2.489   5.596   5.140
11559TIP3   OH234619   5.579   2.148   3.364
11559TIP3    H134620   5.637   2.074   3.383
11559TIP3    H234621   5.621   2.223   3.406
11560TIP3   OH234622   4.835   5.975   0.963
11560TIP3    H134623   4.833   5.884   0.991
11560TIP3    H234624   4.926   6.001   0.976
11561TIP3   OH234625   1.287   4.509   3.212
11561TIP3    H134626   1.235   4.435   3.181
11561TIP3    H234627   1.378   4.482   3.201
11562TIP3   OH234628   4.979   6.181   5.695
11562TIP3    H134629   5.064   6.214   5.664
11562TIP3    H234630   4.914   6.236   5.652
11563TIP3   OH234631   3.575   4.940   2.059
11563TIP3    H134632   3.583   4.934   1.964
11563TIP3    H234633   3.482   4.957   2.074
11564TIP3   OH234634   3.667   2.280   1.757
11564TIP3    H134635   3.653   2.188   1.737
11564TIP3    H234636   3.665   2.323   1.672
11565TIP3   OH234637   4.335   6.494   6.019
11565TIP3    H134638   4.258   6.496   6.075
11565TIP3    H234639   4.359   6.587   6.009
11566TIP3   OH234640   6.799   1.731   1.248
11566TIP3    H134641   6.789   1.717   1.342
11566TIP3    H234642   6.712   1.758   1.218
11567TIP3   OH234643   2.197   1.553   0.272
11567TIP3    H134644   2.112   1.514   0.295
11567TIP3    H234645   2.178   1.646   0.263
11568TIP3   OH234646   2.019   4.354   6.504
11568TIP3    H134647   2.049   4.406   6.430
11568TIP3    H234648   1.934   4.391   6.528
11569TIP3   OH234649   0.605   2.994   6.089
11569TIP3    H134650   0.642   2.978   6.176
11569TIP3    H234651   0.638   3.080   6.065
11570TIP3   OH234652   6.870   0.189   6.222
11570TIP3    H134653   6.921   0.113   6.252
11570TIP3    H234654   6.908   0.211   6.137
11571TIP3   OH234655   0.387   7.739   4.552
11571TIP3    H134656   0.455   7.804   4.569
11571TIP3    H234657   0.305   7.785   4.570
11572TIP3   OH234658   0.787   4.000   3.549
11572TIP3    H134659   0.860   4.060   3.534
11572TIP3    H234660   0.808   3.956   3.631
11573TIP3   OH234661   3.053   2.767   6.597
11573TIP3    H134662   3.041   2.687   6.546
11573TIP3    H234663   3.001   2.753   6.676
11574TIP3   OH234664   3.489   2.931   0.120
11574TIP3    H134665   3.568   2.979   0.095
11574TIP3    H234666   3.425   2.952   0.052
11575TIP3   OH234667   6.823   3.442   0.431
11575TIP3    H134668   6.880   3.516   0.411
11575TIP3    H234669   6.839   3.423   0.523
11576TIP3   OH234670   1.853   7.572   6.629
11576TIP3    H134671   1.761   7.582   6.606
11576TIP3    H234672   1.874   7.482   6.604
11577TIP3   OH234673   3.858   4.306   3.492
11577TIP3    H134674   3.779   4.257   3.470
11577TIP3    H234675   3.862   4.303   3.588
11578TIP3   OH234676   4.165   3.630   5.006
11578TIP3    H134677   4.102   3.653   4.938
11578TIP3    H234678   4.210   3.552   4.972
11579TIP3   OH234679   0.073   0.616   4.331
11579TIP3    H134680  -0.003   0.569   4.366
11579TIP3    H234681   0.059   0.616   4.236
11580TIP3   OH234682   3.383   1.764   6.205
11580TIP3    H134683   3.297   1.734   6.177
11580TIP3    H234684   3.402   1.713   6.283
11581TIP3   OH234685   0.853   6.082   3.443
11581TIP3    H134686   0.777   6.024   3.435
11581TIP3    H234687   0.926   6.024   3.462
11582TIP3   OH234688   6.054   6.974   1.467
11582TIP3    H134689   6.015   6.892   1.496
11582TIP3    H234690   6.010   6.994   1.385
11583TIP3   OH234691   1.416   4.006   0.682
11583TIP3    H134692   1.449   3.933   0.630
11583TIP3    H234693   1.451   3.989   0.770
11584TIP3   OH234694   5.311   5.773   4.448
11584TIP3    H134695   5.266   5.695   4.480
11584TIP3    H234696   5.318   5.831   4.524
11585TIP3   OH234697   7.627   2.620   2.544
11585TIP3    H134698   7.634   2.678   2.468
11585TIP3    H234699   7.593   2.538   2.509
11586TIP3   OH234700   4.936   2.597   2.021
11586TIP3    H134701   4.857   2.581   2.072
11586TIP3    H234702   5.006   2.601   2.086
11587TIP3   OH234703   7.114   6.585   5.951
11587TIP3    H134704   7.152   6.520   5.892
11587TIP3    H234705   7.020   6.567   5.949
11588TIP3   OH234706   3.637   5.897   6.769
11588TIP3    H134707   3.606   5.833   6.706
11588TIP3    H234708   3.602   5.981   6.737
11589TIP3   OH234709   7.589   5.348   6.366
11589TIP3    H134710   7.537   5.428   6.369
11589TIP3    H234711   7.671   5.374   6.324
11590TIP3   OH234712   3.515   7.413   4.286
11590TIP3    H134713   3.592   7.457   4.323
11590TIP3    H234714   3.440   7.457   4.326
11591TIP3   OH234715   8.082   1.998   4.077
11591TIP3    H134716   8.146   2.062   4.047
11591TIP3    H234717   8.016   2.050   4.124
11592TIP3   OH234718   1.278   6.990   2.412
11592TIP3    H134719   1.288   7.071   2.462
11592TIP3    H234720   1.337   7.000   2.338
11593TIP3   OH234721   8.165   0.487   0.813
11593TIP3    H134722   8.191   0.553   0.750
11593TIP3    H234723   8.070   0.499   0.823
11594TIP3   OH234724   2.549   3.294   2.509
11594TIP3    H134725   2.479   3.317   2.570
11594TIP3    H234726   2.565   3.374   2.459
11595TIP3   OH234727   3.187   4.212   0.791
11595TIP3    H134728   3.109   4.263   0.768
11595TIP3    H234729   3.157   4.121   0.793
11596TIP3   OH234730   6.106   1.093   5.475
11596TIP3    H134731   6.093   1.139   5.558
11596TIP3    H234732   6.200   1.076   5.472
11597TIP3   OH234733   1.954   1.094   3.716
11597TIP3    H134734   1.858   1.100   3.711
11597TIP3    H234735   1.975   1.115   3.807
11598TIP3   OH234736   4.430   0.985   1.363
11598TIP3    H134737   4.436   0.970   1.458
11598TIP3    H234738   4.372   0.915   1.332
11599TIP3   OH234739   5.364   1.457   1.261
11599TIP3    H134740   5.406   1.530   1.215
11599TIP3    H234741   5.349   1.392   1.192
11600TIP3   OH234742   3.859   6.321   0.935
11600TIP3    H134743   3.920   6.343   0.864
11600TIP3    H234744   3.876   6.387   1.002
11601TIP3   OH234745   7.329   6.617   1.366
11601TIP3    H134746   7.289   6.564   1.434
11601TIP3    H234747   7.291   6.704   1.378
11602TIP3   OH234748   4.840   3.388   1.849
11602TIP3    H134749   4.932   3.363   1.841
11602TIP3    H234750   4.840   3.463   1.907
11603TIP3   OH234751   5.007   0.084   3.397
11603TIP3    H134752   5.000   0.154   3.462
11603TIP3    H234753   5.020   0.005   3.448
11604TIP3   OH234754   4.985   2.966   4.278
11604TIP3    H134755   4.976   2.915   4.197
11604TIP3    H234756   5.075   2.998   4.276
11605TIP3   OH234757   5.784   4.630   3.499
11605TIP3    H134758   5.820   4.573   3.567
11605TIP3    H234759   5.740   4.571   3.438
11606TIP3   OH234760   8.157   0.309   1.698
11606TIP3    H134761   8.241   0.353   1.711
11606TIP3    H234762   8.170   0.222   1.736
11607TIP3   OH234763   6.786   5.161   6.690
11607TIP3    H134764   6.766   5.111   6.769
11607TIP3    H234765   6.845   5.231   6.719
11608TIP3   OH234766   5.214   6.854   0.646
11608TIP3    H134767   5.175   6.874   0.561
11608TIP3    H234768   5.152   6.794   0.687
11609TIP3   OH234769   4.353   0.346   5.348
11609TIP3    H134770   4.269   0.306   5.331
11609TIP3    H234771   4.346   0.434   5.310
11610TIP3   OH234772   4.424   3.487   0.459
11610TIP3    H134773   4.354   3.428   0.486
11610TIP3    H234774   4.494   3.471   0.522
11611TIP3   OH234775   2.421   7.504   1.453
11611TIP3    H134776   2.437   7.411   1.441
11611TIP3    H234777   2.391   7.535   1.368
11612TIP3   OH234778   6.777   5.008   5.187
11612TIP3    H134779   6.803   5.091   5.147
11612TIP3    H234780   6.787   5.023   5.281
11613TIP3   OH234781   5.813   6.273   3.191
11613TIP3    H134782   5.819   6.363   3.160
11613TIP3    H234783   5.850   6.220   3.120
11614TIP3   OH234784   6.606   5.059   1.554
11614TIP3    H134785   6.581   5.005   1.480
11614TIP3    H234786   6.586   5.006   1.631
11615TIP3   OH234787   0.987   1.665   6.466
11615TIP3    H134788   1.078   1.638   6.455
11615TIP3    H234789   0.935   1.591   6.435
11616TIP3   OH234790   6.609   0.899   5.614
11616TIP3    H134791   6.546   0.828   5.599
11616TIP3    H234792   6.576   0.972   5.562
11617TIP3   OH234793   1.213   4.064   6.115
11617TIP3    H134794   1.208   4.042   6.208
11617TIP3    H234795   1.243   3.983   6.073
11618TIP3   OH234796   6.556   6.739   3.165
11618TIP3    H134797   6.516   6.818   3.129
11618TIP3    H234798   6.649   6.761   3.175
11619TIP3   OH234799   3.218   6.143   1.876
11619TIP3    H134800   3.166   6.166   1.954
11619TIP3    H234801   3.293   6.094   1.911
11620TIP3   OH234802   1.272   0.365   2.972
11620TIP3    H134803   1.338   0.411   3.025
11620TIP3    H234804   1.321   0.295   2.929
11621TIP3   OH234805   7.469   1.733   6.356
11621TIP3    H134806   7.386   1.751   6.400
11621TIP3    H234807   7.499   1.651   6.395
11622TIP3   OH234808   6.371   3.225   5.814
11622TIP3    H134809   6.287   3.266   5.794
11622TIP3    H234810   6.436   3.289   5.784
11623TIP3   OH234811   1.119   0.252   5.364
11623TIP3    H134812   1.033   0.210   5.355
11623TIP3    H234813   1.105   0.322   5.428
11624TIP3   OH234814   7.095   5.794   4.470
11624TIP3    H134815   7.057   5.837   4.547
11624TIP3    H234816   7.186   5.777   4.495
11625TIP3   OH234817   5.781   0.063   4.711
11625TIP3    H134818   5.800  -0.007   4.649
11625TIP3    H234819   5.737   0.018   4.784
11626TIP3   OH234820   0.807   1.060   3.894
11626TIP3    H134821   0.879   1.018   3.847
11626TIP3    H234822   0.753   1.099   3.825
11627TIP3   OH234823   1.485   1.195   4.480
11627TIP3    H134824   1.406   1.145   4.503
11627TIP3    H234825   1.524   1.219   4.564
11628TIP3   OH234826   8.218   0.121   5.357
11628TIP3    H134827   8.252   0.180   5.424
11628TIP3    H234828   8.155   0.066   5.403
11629TIP3   OH234829   2.642   2.764   2.758
11629TIP3    H134830   2.645   2.857   2.734
11629TIP3    H234831   2.552   2.748   2.783
11630TIP3   OH234832   2.893   6.421   3.900
11630TIP3    H134833   2.979   6.451   3.870
11630TIP3    H234834   2.911   6.341   3.949
11631TIP3   OH234835   1.567   3.366   4.049
11631TIP3    H134836   1.615   3.400   3.973
11631TIP3    H234837   1.565   3.271   4.035
11632TIP3   OH234838   7.743   4.370   5.082
11632TIP3    H134839   7.778   4.334   5.001
11632TIP3    H234840   7.651   4.387   5.064
11633TIP3   OH234841   1.893   6.561   1.346
11633TIP3    H134842   1.818   6.515   1.383
11633TIP3    H234843   1.859   6.648   1.324
11634TIP3   OH234844   5.883   2.564   0.275
11634TIP3    H134845   5.975   2.577   0.296
11634TIP3    H234846   5.836   2.602   0.350
11635TIP3   OH234847   1.614   5.683   3.830
11635TIP3    H134848   1.620   5.601   3.879
11635TIP3    H234849   1.522   5.690   3.806
11636TIP3   OH234850   0.903   0.979   3.643
11636TIP3    H134851   0.927   1.067   3.614
11636TIP3    H234852   0.904   0.926   3.563
11637TIP3   OH234853   0.637   5.653   0.755
11637TIP3    H134854   0.659   5.592   0.685
11637TIP3    H234855   0.551   5.625   0.785
11638TIP3   OH234856   5.754   5.887   6.234
11638TIP3    H134857   5.798   5.808   6.264
11638TIP3    H234858   5.685   5.855   6.176
11639TIP3   OH234859   7.289   1.351   4.072
11639TIP3    H134860   7.300   1.394   4.157
11639TIP3    H234861   7.197   1.322   4.072
11640TIP3   OH234862   3.532   4.278   1.238
11640TIP3    H134863   3.466   4.215   1.212
11640TIP3    H234864   3.601   4.271   1.172
11641TIP3   OH234865   6.736   7.459   5.839
11641TIP3    H134866   6.742   7.552   5.861
11641TIP3    H234867   6.656   7.430   5.883
11642TIP3   OH234868   3.811   7.714   6.361
11642TIP3    H134869   3.893   7.722   6.408
11642TIP3    H234870   3.803   7.621   6.342
11643TIP3   OH234871   7.296   2.155   0.101
11643TIP3    H134872   7.380   2.146   0.055
11643TIP3    H234873   7.250   2.074   0.083
11644TIP3   OH234874   1.361   6.815   4.096
11644TIP3    H134875   1.343   6.733   4.051
11644TIP3    H234876   1.434   6.854   4.047
11645TIP3   OH234877   6.897   6.067   4.558
11645TIP3    H134878   6.913   6.078   4.464
11645TIP3    H234879   6.866   6.152   4.587
11646TIP3   OH234880   4.515   0.643   1.735
11646TIP3    H134881   4.578   0.677   1.800
11646TIP3    H234882   4.502   0.551   1.761
11647TIP3   OH234883   6.169   1.049   6.394
11647TIP3    H134884   6.118   1.127   6.417
11647TIP3    H234885   6.118   0.975   6.426
11648TIP3   OH234886   5.084   1.796   3.061
11648TIP3    H134887   5.171   1.769   3.030
11648TIP3    H234888   5.072   1.884   3.026
11649TIP3   OH234889   2.027   6.239   6.290
11649TIP3    H134890   1.976   6.320   6.287
11649TIP3    H234891   2.118   6.267   6.292
11650TIP3   OH234892   7.018   5.831   4.038
11650TIP3    H134893   6.987   5.871   3.957
11650TIP3    H234894   7.107   5.801   4.017
11651TIP3   OH234895   3.591   1.116   3.470
11651TIP3    H134896   3.587   1.204   3.507
11651TIP3    H234897   3.587   1.130   3.375
11652TIP3   OH234898   7.396   4.283   4.288
11652TIP3    H134899   7.347   4.216   4.336
11652TIP3    H234900   7.342   4.302   4.211
11653TIP3   OH234901   2.409   3.601   2.368
11653TIP3    H134902   2.384   3.670   2.307
11653TIP3    H234903   2.483   3.558   2.326
11654TIP3   OH234904   1.595   0.492   4.386
11654TIP3    H134905   1.607   0.403   4.418
11654TIP3    H234906   1.649   0.546   4.444
11655TIP3   OH234907   6.348  -0.025   4.324
11655TIP3    H134908   6.361  -0.049   4.416
11655TIP3    H234909   6.403   0.052   4.311
11656TIP3   OH234910   5.995   6.936   4.048
11656TIP3    H134911   6.007   6.863   3.988
11656TIP3    H234912   5.912   6.975   4.022
11657TIP3   OH234913   3.017   6.116   6.123
11657TIP3    H134914   3.072   6.166   6.063
11657TIP3    H234915   2.951   6.075   6.067
11658TIP3   OH234916   6.333   5.720   5.919
11658TIP3    H134917   6.349   5.812   5.896
11658TIP3    H234918   6.254   5.697   5.870
11659TIP3   OH234919   0.850   0.829   1.917
11659TIP3    H134920   0.804   0.911   1.933
11659TIP3    H234921   0.782   0.762   1.919
11660TIP3   OH234922   2.406   3.515   5.222
11660TIP3    H134923   2.431   3.501   5.313
11660TIP3    H234924   2.476   3.569   5.186
11661TIP3   OH234925   7.119   5.926   6.376
11661TIP3    H134926   7.163   5.953   6.456
11661TIP3    H234927   7.114   6.005   6.322
11662TIP3   OH234928   2.863   3.219   0.991
11662TIP3    H134929   2.833   3.144   1.042
11662TIP3    H234930   2.827   3.295   1.036
11663TIP3   OH234931   1.166   0.917   1.326
11663TIP3    H134932   1.119   0.903   1.244
11663TIP3    H234933   1.243   0.968   1.302
11664TIP3   OH234934   2.198   2.093   5.789
11664TIP3    H134935   2.176   2.125   5.702
11664TIP3    H234936   2.113   2.085   5.834
11665TIP3   OH234937   6.321   1.671   5.721
11665TIP3    H134938   6.396   1.613   5.731
11665TIP3    H234939   6.247   1.622   5.756
11666TIP3   OH234940   5.321   5.359   0.192
11666TIP3    H134941   5.261   5.401   0.131
11666TIP3    H234942   5.337   5.425   0.260
11667TIP3   OH234943   3.840   3.452   4.189
11667TIP3    H134944   3.825   3.394   4.114
11667TIP3    H234945   3.826   3.540   4.154
11668TIP3   OH234946   2.129   7.328   2.621
11668TIP3    H134947   2.088   7.414   2.628
11668TIP3    H234948   2.200   7.330   2.685
11669TIP3   OH234949   5.706   7.527   6.141
11669TIP3    H134950   5.619   7.556   6.117
11669TIP3    H234951   5.727   7.576   6.220
11670TIP3   OH234952   1.483   2.011   1.168
11670TIP3    H134953   1.399   1.999   1.123
11670TIP3    H234954   1.460   2.025   1.260
11671TIP3   OH234955   2.815   7.139   3.360
11671TIP3    H134956   2.864   7.137   3.278
11671TIP3    H234957   2.732   7.095   3.339
11672TIP3   OH234958   0.548   2.875   4.275
11672TIP3    H134959   0.499   2.799   4.308
11672TIP3    H234960   0.634   2.840   4.251
11673TIP3   OH234961   2.219   1.425   5.813
11673TIP3    H134962   2.182   1.339   5.831
11673TIP3    H234963   2.310   1.419   5.843
11674TIP3   OH234964   1.720   1.870   6.243
11674TIP3    H134965   1.649   1.850   6.304
11674TIP3    H234966   1.760   1.785   6.224
11675TIP3   OH234967   1.299   7.592   2.098
11675TIP3    H134968   1.276   7.577   2.006
11675TIP3    H234969   1.242   7.533   2.147
11676TIP3   OH234970   3.676   4.109   0.829
11676TIP3    H134971   3.730   4.035   0.800
11676TIP3    H234972   3.612   4.120   0.759
11677TIP3   OH234973   3.978   5.546   2.808
11677TIP3    H134974   3.887   5.566   2.831
11677TIP3    H234975   4.004   5.478   2.870
11678TIP3   OH234976   4.744   2.224   2.723
11678TIP3    H134977   4.720   2.317   2.718
11678TIP3    H234978   4.661   2.179   2.742
11679TIP3   OH234979   4.562   5.107   6.194
11679TIP3    H134980   4.516   5.026   6.173
11679TIP3    H234981   4.509   5.147   6.263
11680TIP3   OH234982   3.561   1.133   5.462
11680TIP3    H134983   3.480   1.168   5.500
11680TIP3    H234984   3.551   1.038   5.465
11681TIP3   OH234985   4.474   6.121   3.284
11681TIP3    H134986   4.413   6.135   3.211
11681TIP3    H234987   4.452   6.034   3.317
11682TIP3   OH234988   2.196   0.708   6.385
11682TIP3    H134989   2.289   0.715   6.409
11682TIP3    H234990   2.184   0.617   6.361
11683TIP3   OH234991   4.911   5.783   5.330
11683TIP3    H134992   4.862   5.773   5.248
11683TIP3    H234993   4.950   5.697   5.345
11684TIP3   OH234994   6.765   0.871   0.634
11684TIP3    H134995   6.682   0.860   0.586
11684TIP3    H234996   6.791   0.782   0.657
11685TIP3   OH234997   3.508   3.712   5.783
11685TIP3    H134998   3.532   3.793   5.738
11685TIP3    H234999   3.528   3.728   5.875
11686TIP3   OH235000   8.043   4.430   0.481
11686TIP3    H135001   8.065   4.366   0.412
11686TIP3    H235002   7.947   4.433   0.480
11687TIP3   OH235003   7.987   4.286   0.850
11687TIP3    H135004   8.015   4.377   0.843
11687TIP3    H235005   8.031   4.241   0.778
11688TIP3   OH235006   7.354   4.788   0.062
11688TIP3    H135007   7.332   4.698   0.085
11688TIP3    H235008   7.348   4.791  -0.033
11689TIP3   OH235009   0.054   4.814   2.869
11689TIP3    H135010   0.140   4.787   2.837
11689TIP3    H235011  -0.008   4.774   2.807
11690TIP3   OH235012   3.837   5.541   3.653
11690TIP3    H135013   3.768   5.494   3.699
11690TIP3    H235014   3.867   5.480   3.585
11691TIP3   OH235015   6.103   5.505   3.386
11691TIP3    H135016   6.191   5.519   3.421
11691TIP3    H235017   6.092   5.573   3.320
11692TIP3   OH235018   1.211   7.421   3.794
11692TIP3    H135019   1.206   7.351   3.860
11692TIP3    H235020   1.127   7.418   3.749
11693TIP3   OH235021   1.098   0.586   6.593
11693TIP3    H135022   1.136   0.634   6.666
11693TIP3    H235023   1.058   0.653   6.537
11694TIP3   OH235024   8.012   7.206   0.394
11694TIP3    H135025   7.929   7.205   0.442
11694TIP3    H235026   8.005   7.131   0.334
11695TIP3   OH235027   4.057   6.134   1.604
11695TIP3    H135028   4.010   6.218   1.609
11695TIP3    H235029   4.003   6.080   1.547
11696TIP3   OH235030   6.649   0.358   4.077
11696TIP3    H135031   6.564   0.380   4.115
11696TIP3    H235032   6.698   0.440   4.079
11697TIP3   OH235033   0.569   3.691   2.553
11697TIP3    H135034   0.631   3.656   2.489
11697TIP3    H235035   0.599   3.780   2.570
11698TIP3   OH235036   6.219   6.467   5.379
11698TIP3    H135037   6.141   6.522   5.382
11698TIP3    H235038   6.199   6.394   5.437
11699TIP3   OH235039   2.822   7.479   0.490
11699TIP3    H135040   2.841   7.572   0.478
11699TIP3    H235041   2.887   7.449   0.553
11700TIP3   OH235042   3.791   4.944   1.620
11700TIP3    H135043   3.802   5.039   1.614
11700TIP3    H235044   3.755   4.919   1.535
11701TIP3   OH235045   4.460   6.297   0.302
11701TIP3    H135046   4.471   6.392   0.313
11701TIP3    H235047   4.454   6.263   0.391
11702TIP3   OH235048   3.362   0.269   2.866
11702TIP3    H135049   3.313   0.339   2.824
11702TIP3    H235050   3.362   0.198   2.801
11703TIP3   OH235051   2.218   3.171   5.797
11703TIP3    H135052   2.142   3.157   5.853
11703TIP3    H235053   2.182   3.202   5.714
11704TIP3   OH235054   4.097   4.859   3.068
11704TIP3    H135055   4.022   4.835   3.013
11704TIP3    H235056   4.121   4.778   3.112
11705TIP3   OH235057   7.720   5.119   2.655
11705TIP3    H135058   7.721   5.161   2.569
11705TIP3    H235059   7.759   5.184   2.713
11706TIP3   OH235060   2.310   0.922   4.116
11706TIP3    H135061   2.349   0.882   4.193
11706TIP3    H235062   2.265   0.850   4.071
11707TIP3   OH235063   4.243   4.277   5.592
11707TIP3    H135064   4.209   4.193   5.561
11707TIP3    H235065   4.310   4.254   5.656
11708TIP3   OH235066   4.971   7.228   3.935
11708TIP3    H135067   4.883   7.231   3.898
11708TIP3    H235068   4.960   7.255   4.026
11709TIP3   OH235069   3.551   4.824   6.346
11709TIP3    H135070   3.581   4.913   6.329
11709TIP3    H235071   3.469   4.816   6.296
11710TIP3   OH235072   4.463   0.343   5.626
11710TIP3    H135073   4.470   0.311   5.536
11710TIP3    H235074   4.439   0.266   5.677
11711TIP3   OH235075   6.468   1.711   1.234
11711TIP3    H135076   6.415   1.785   1.204
11711TIP3    H235077   6.514   1.680   1.155
11712TIP3   OH235078   3.581   7.498   5.701
11712TIP3    H135079   3.499   7.546   5.713
11712TIP3    H235080   3.557   7.421   5.651
11713TIP3   OH235081   1.402   0.122   2.903
11713TIP3    H135082   1.372   0.108   2.813
11713TIP3    H235083   1.404   0.034   2.941
11714TIP3   OH235084   3.777   3.072   6.010
11714TIP3    H135085   3.717   3.115   5.947
11714TIP3    H235086   3.771   3.126   6.089
11715TIP3   OH235087   2.751   5.621   2.932
11715TIP3    H135088   2.801   5.621   2.850
11715TIP3    H235089   2.698   5.700   2.928
11716TIP3   OH235090   4.103   2.451   3.288
11716TIP3    H135091   4.164   2.381   3.311
11716TIP3    H235092   4.128   2.524   3.344
11717TIP3   OH235093   2.478   7.071   1.419
11717TIP3    H135094   2.514   7.148   1.375
11717TIP3    H235095   2.488   7.000   1.355
11718TIP3   OH235096   6.271   6.814   6.331
11718TIP3    H135097   6.329   6.772   6.395
11718TIP3    H235098   6.234   6.889   6.378
11719TIP3   OH235099   0.902   0.594   1.135
11719TIP3    H135100   0.915   0.646   1.214
11719TIP3    H235101   0.900   0.503   1.166
11720TIP3   OH235102   2.740   6.672   4.063
11720TIP3    H135103   2.800   6.616   4.112
11720TIP3    H235104   2.797   6.726   4.008
11721TIP3   OH235105   7.448   6.562   1.698
11721TIP3    H135106   7.524   6.619   1.708
11721TIP3    H235107   7.373   6.616   1.724
11722TIP3   OH235108   4.205   5.432   4.794
11722TIP3    H135109   4.177   5.410   4.705
11722TIP3    H235110   4.278   5.493   4.781
11723TIP3   OH235111   1.143   7.250   0.947
11723TIP3    H135112   1.086   7.234   1.022
11723TIP3    H235113   1.165   7.343   0.952
11724TIP3   OH235114   6.075   0.471   2.314
11724TIP3    H135115   5.999   0.414   2.305
11724TIP3    H235116   6.111   0.448   2.400
11725TIP3   OH235117   7.672   6.241   3.728
11725TIP3    H135118   7.605   6.309   3.727
11725TIP3    H235119   7.644   6.179   3.795
11726TIP3   OH235120   3.068   0.661   1.942
11726TIP3    H135121   3.019   0.609   2.005
11726TIP3    H235122   3.001   0.701   1.887
11727TIP3   OH235123   0.475   3.097   6.735
11727TIP3    H135124   0.521   3.080   6.817
11727TIP3    H235125   0.537   3.073   6.667
11728TIP3   OH235126   3.420   5.066   0.942
11728TIP3    H135127   3.354   5.111   0.888
11728TIP3    H235128   3.378   4.985   0.970
11729TIP3   OH235129   7.005   6.301   2.981
11729TIP3    H135130   7.008   6.206   2.990
11729TIP3    H235131   6.912   6.323   2.982
11730TIP3   OH235132   2.624   4.262   2.413
11730TIP3    H135133   2.562   4.335   2.420
11730TIP3    H235134   2.683   4.289   2.343
11731TIP3   OH235135   3.022   0.493   2.957
11731TIP3    H135136   2.963   0.560   2.990
11731TIP3    H235137   3.105   0.540   2.941
11732TIP3   OH235138   4.706   1.635   5.928
11732TIP3    H135139   4.621   1.630   5.971
11732TIP3    H235140   4.714   1.725   5.898
11733TIP3   OH235141   1.178   2.089   3.715
11733TIP3    H135142   1.169   2.000   3.748
11733TIP3    H235143   1.262   2.120   3.750
11734TIP3   OH235144   6.628   3.979   6.044
11734TIP3    H135145   6.673   3.938   6.117
11734TIP3    H235146   6.623   4.072   6.068
11735TIP3   OH235147   1.622   4.315   4.900
11735TIP3    H135148   1.585   4.389   4.851
11735TIP3    H235149   1.662   4.355   4.977
11736TIP3   OH235150   0.037   3.494   1.873
11736TIP3    H135151   0.042   3.401   1.894
11736TIP3    H235152   0.114   3.511   1.819
11737TIP3   OH235153   3.064   6.742   0.052
11737TIP3    H135154   3.089   6.833   0.037
11737TIP3    H235155   3.034   6.740   0.143
11738TIP3   OH235156   4.721   6.818   4.646
11738TIP3    H135157   4.665   6.757   4.695
11738TIP3    H235158   4.661   6.860   4.584
11739TIP3   OH235159   3.974   0.434   0.739
11739TIP3    H135160   4.010   0.424   0.651
11739TIP3    H235161   3.944   0.525   0.742
11740TIP3   OH235162   7.901   7.024   2.807
11740TIP3    H135163   7.823   7.071   2.777
11740TIP3    H235164   7.974   7.067   2.762
11741TIP3   OH235165   7.308   3.729   3.297
11741TIP3    H135166   7.385   3.672   3.292
11741TIP3    H235167   7.337   3.810   3.255
11742TIP3   OH235168   0.749   4.017   1.360
11742TIP3    H135169   0.817   3.959   1.395
11742TIP3    H235170   0.671   3.961   1.353
11743TIP3   OH235171   3.402   0.159   5.051
11743TIP3    H135172   3.475   0.215   5.077
11743TIP3    H235173   3.423   0.074   5.090
11744TIP3   OH235174   1.873   6.578   5.306
11744TIP3    H135175   1.891   6.570   5.213
11744TIP3    H235176   1.923   6.507   5.346
11745TIP3   OH235177   4.932   1.931   3.575
11745TIP3    H135178   4.907   1.839   3.582
11745TIP3    H235179   4.897   1.971   3.654
11746TIP3   OH235180   6.477   6.203   4.783
11746TIP3    H135181   6.439   6.115   4.781
11746TIP3    H235182   6.571   6.188   4.789
11747TIP3   OH235183   7.094   2.325   6.383
11747TIP3    H135184   7.031   2.393   6.409
11747TIP3    H235185   7.141   2.304   6.463
11748TIP3   OH235186   5.762   3.246   3.795
11748TIP3    H135187   5.789   3.196   3.718
11748TIP3    H235188   5.844   3.285   3.827
11749TIP3   OH235189   0.956   1.994   0.282
11749TIP3    H135190   1.050   1.979   0.290
11749TIP3    H235191   0.939   1.992   0.187
11750TIP3   OH235192   7.678   3.179   3.806
11750TIP3    H135193   7.774   3.176   3.807
11750TIP3    H235194   7.651   3.087   3.803
11751TIP3   OH235195   1.069   2.109   2.276
11751TIP3    H135196   0.979   2.078   2.290
11751TIP3    H235197   1.117   2.032   2.245
11752TIP3   OH235198   5.662   3.660   5.180
11752TIP3    H135199   5.742   3.664   5.129
11752TIP3    H235200   5.598   3.620   5.121
11753TIP3   OH235201   3.593   5.906   5.526
11753TIP3    H135202   3.630   5.818   5.528
11753TIP3    H235203   3.498   5.892   5.522
11754TIP3   OH235204   2.030   6.967   2.438
11754TIP3    H135205   2.044   7.061   2.450
11754TIP3    H235206   1.953   6.961   2.382
11755TIP3   OH235207   1.782   6.446   4.724
11755TIP3    H135208   1.845   6.403   4.782
11755TIP3    H235209   1.827   6.452   4.640
11756TIP3   OH235210   8.023   6.159   2.650
11756TIP3    H135211   7.990   6.245   2.673
11756TIP3    H235212   8.112   6.156   2.685
11757TIP3   OH235213   4.587   7.071   1.829
11757TIP3    H135214   4.674   7.097   1.856
11757TIP3    H235215   4.602   7.007   1.759
11758TIP3   OH235216   3.610   0.586   2.687
11758TIP3    H135217   3.612   0.597   2.592
11758TIP3    H235218   3.569   0.666   2.720
11759TIP3   OH235219   4.414   5.311   3.651
11759TIP3    H135220   4.449   5.351   3.729
11759TIP3    H235221   4.460   5.352   3.578
11760TIP3   OH235222   7.418   3.856   5.591
11760TIP3    H135223   7.414   3.813   5.506
11760TIP3    H235224   7.459   3.941   5.573
11761TIP3   OH235225   1.128   4.023   0.593
11761TIP3    H135226   1.135   3.966   0.669
11761TIP3    H235227   1.088   3.968   0.526
11762TIP3   OH235228   6.456   5.738   0.323
11762TIP3    H135229   6.448   5.769   0.233
11762TIP3    H235230   6.523   5.670   0.319
11763TIP3   OH235231   4.960   5.647   4.579
11763TIP3    H135232   4.921   5.734   4.570
11763TIP3    H235233   4.896   5.588   4.540
11764TIP3   OH235234   6.940   3.709   2.309
11764TIP3    H135235   6.956   3.620   2.342
11764TIP3    H235236   7.027   3.750   2.308
11765TIP3   OH235237   4.159   0.520   0.222
11765TIP3    H135238   4.170   0.596   0.165
11765TIP3    H235239   4.247   0.504   0.258
11766TIP3   OH235240   1.121   7.004   5.820
11766TIP3    H135241   1.075   7.052   5.889
11766TIP3    H235242   1.095   6.912   5.834
11767TIP3   OH235243   5.888   7.479   2.940
11767TIP3    H135244   5.848   7.392   2.947
11767TIP3    H235245   5.980   7.461   2.918
11768TIP3   OH235246   5.602   5.783   4.263
11768TIP3    H135247   5.535   5.743   4.207
11768TIP3    H235248   5.593   5.877   4.247
11769TIP3   OH235249   2.609   7.155   0.109
11769TIP3    H135250   2.653   7.215   0.169
11769TIP3    H235251   2.663   7.076   0.110
11770TIP3   OH235252   1.677   4.936   5.523
11770TIP3    H135253   1.768   4.911   5.534
11770TIP3    H235254   1.627   4.866   5.565
11771TIP3   OH235255   0.166   5.014   3.844
11771TIP3    H135256   0.080   4.977   3.825
11771TIP3    H235257   0.197   4.963   3.919
11772TIP3   OH235258   7.662   6.830   0.051
11772TIP3    H135259   7.573   6.809   0.079
11772TIP3    H235260   7.716   6.813   0.128
11773TIP3   OH235261   4.235   5.347   6.107
11773TIP3    H135262   4.321   5.384   6.089
11773TIP3    H235263   4.174   5.418   6.087
11774TIP3   OH235264   7.579   0.607   5.152
11774TIP3    H135265   7.626   0.531   5.186
11774TIP3    H235266   7.646   0.674   5.139
11775TIP3   OH235267   2.981   1.451   5.565
11775TIP3    H135268   2.948   1.518   5.504
11775TIP3    H235269   2.904   1.422   5.613
11776TIP3   OH235270   4.736   6.552   1.060
11776TIP3    H135271   4.722   6.465   1.096
11776TIP3    H235272   4.703   6.546   0.970
11777TIP3   OH235273   3.758   4.684   6.704
11777TIP3    H135274   3.671   4.672   6.743
11777TIP3    H235275   3.796   4.758   6.751
11778TIP3   OH235276   8.031   4.539   6.280
11778TIP3    H135277   8.114   4.523   6.324
11778TIP3    H235278   7.984   4.599   6.338
11779TIP3   OH235279   3.343   1.764   5.251
11779TIP3    H135280   3.329   1.814   5.171
11779TIP3    H235281   3.402   1.693   5.225
11780TIP3   OH235282   4.227   3.178   0.697
11780TIP3    H135283   4.257   3.246   0.758
11780TIP3    H235284   4.248   3.096   0.742
11781TIP3   OH235285   3.391   3.342   0.229
11781TIP3    H135286   3.435   3.275   0.281
11781TIP3    H235287   3.328   3.381   0.290
11782TIP3   OH235288   4.562   4.746   3.311
11782TIP3    H135289   4.625   4.674   3.308
11782TIP3    H235290   4.479   4.705   3.286
11783TIP3   OH235291   6.771   6.018   0.694
11783TIP3    H135292   6.721   5.964   0.632
11783TIP3    H235293   6.824   6.075   0.638
11784TIP3   OH235294   1.289   6.862   1.820
11784TIP3    H135295   1.307   6.928   1.752
11784TIP3    H235296   1.211   6.816   1.789
11785TIP3   OH235297   6.968   3.725   0.456
11785TIP3    H135298   6.935   3.815   0.460
11785TIP3    H235299   6.953   3.691   0.544
11786TIP3   OH235300   0.053   7.002   5.958
11786TIP3    H135301  -0.039   7.000   5.985
11786TIP3    H235302   0.066   6.921   5.909
11787TIP3   OH235303   6.433   4.755   0.495
11787TIP3    H135304   6.472   4.699   0.561
11787TIP3    H235305   6.501   4.820   0.475
11788TIP3   OH235306   4.684   7.542   3.163
11788TIP3    H135307   4.739   7.497   3.228
11788TIP3    H235308   4.692   7.635   3.185
11789TIP3   OH235309   7.783   4.793   4.037
11789TIP3    H135310   7.757   4.809   3.947
11789TIP3    H235311   7.723   4.725   4.068
11790TIP3   OH235312   6.547   1.194   5.585
11790TIP3    H135313   6.597   1.276   5.581
11790TIP3    H235314   6.478   1.212   5.649
11791TIP3   OH235315   0.878   3.355   0.685
11791TIP3    H135316   0.930   3.278   0.662
11791TIP3    H235317   0.832   3.379   0.605
11792TIP3   OH235318   2.617   2.624   5.790
11792TIP3    H135319   2.538   2.589   5.748
11792TIP3    H235320   2.679   2.550   5.788
11793TIP3   OH235321   2.350   6.941   6.633
11793TIP3    H135322   2.281   6.998   6.666
11793TIP3    H235323   2.304   6.863   6.602
11794TIP3   OH235324   5.173   2.912   1.202
11794TIP3    H135325   5.234   2.913   1.127
11794TIP3    H235326   5.176   3.002   1.236
11795TIP3   OH235327   7.429   4.767   0.354
11795TIP3    H135328   7.505   4.709   0.362
11795TIP3    H235329   7.411   4.770   0.260
11796TIP3   OH235330   3.255   7.151   6.032
11796TIP3    H135331   3.238   7.152   5.938
11796TIP3    H235332   3.329   7.090   6.042
11797TIP3   OH235333   5.602   7.027   5.026
11797TIP3    H135334   5.555   6.983   4.955
11797TIP3    H235335   5.581   7.120   5.014
11798TIP3   OH235336   1.136   4.784   4.642
11798TIP3    H135337   1.166   4.872   4.621
11798TIP3    H235338   1.127   4.784   4.738
11799TIP3   OH235339   6.732   2.479   5.010
11799TIP3    H135340   6.677   2.548   4.973
11799TIP3    H235341   6.817   2.521   5.025
11800TIP3   OH235342   7.475   3.609   5.780
11800TIP3    H135343   7.527   3.644   5.853
11800TIP3    H235344   7.466   3.683   5.720
11801TIP3   OH235345   4.505   4.058   3.709
11801TIP3    H135346   4.428   4.008   3.738
11801TIP3    H235347   4.576   3.994   3.708
11802TIP3   OH235348   5.089   7.391   2.530
11802TIP3    H135349   5.043   7.471   2.555
11802TIP3    H235350   5.059   7.325   2.594
11803TIP3   OH235351   5.486   2.896   3.279
11803TIP3    H135352   5.566   2.905   3.329
11803TIP3    H235353   5.502   2.945   3.199
11804TIP3   OH235354   2.626   1.273   0.957
11804TIP3    H135355   2.588   1.248   1.041
11804TIP3    H235356   2.646   1.366   0.967
11805TIP3   OH235357   3.839   2.425   3.506
11805TIP3    H135358   3.792   2.503   3.478
11805TIP3    H235359   3.795   2.353   3.460
11806TIP3   OH235360   5.962   3.788   2.174
11806TIP3    H135361   6.037   3.782   2.233
11806TIP3    H235362   5.913   3.707   2.190
11807TIP3   OH235363   7.441   2.988   4.201
11807TIP3    H135364   7.500   2.914   4.203
11807TIP3    H235365   7.354   2.949   4.192
11808TIP3   OH235366   7.651   4.901   0.074
11808TIP3    H135367   7.672   4.954   0.151
11808TIP3    H235368   7.562   4.868   0.091
11809TIP3   OH235369   3.229   2.062   1.880
11809TIP3    H135370   3.243   2.104   1.796
11809TIP3    H235371   3.203   1.972   1.858
11810TIP3   OH235372   2.647   5.654   4.637
11810TIP3    H135373   2.704   5.584   4.667
11810TIP3    H235374   2.580   5.609   4.585
11811TIP3   OH235375   8.188   6.014   1.014
11811TIP3    H135376   8.152   6.012   1.103
11811TIP3    H235377   8.144   5.942   0.969
11812TIP3   OH235378   6.050   2.807   0.997
11812TIP3    H135379   5.960   2.776   0.984
11812TIP3    H235380   6.103   2.754   0.938
11813TIP3   OH235381   3.137   5.039   3.215
11813TIP3    H135382   3.112   5.078   3.131
11813TIP3    H235383   3.055   5.032   3.263
11814TIP3   OH235384   2.528   4.439   3.171
11814TIP3    H135385   2.477   4.430   3.251
11814TIP3    H235386   2.480   4.387   3.106
11815TIP3   OH235387   0.109   5.080   3.011
11815TIP3    H135388   0.157   5.076   3.094
11815TIP3    H235389   0.051   5.004   3.013
11816TIP3   OH235390   6.416   4.734   3.348
11816TIP3    H135391   6.352   4.684   3.298
11816TIP3    H235392   6.501   4.705   3.314
11817TIP3   OH235393   2.712   7.461   3.930
11817TIP3    H135394   2.734   7.423   3.845
11817TIP3    H235395   2.744   7.551   3.925
11818TIP3   OH235396   1.184   0.491   4.014
11818TIP3    H135397   1.228   0.419   4.059
11818TIP3    H235398   1.254   0.541   3.974
11819TIP3   OH235399   0.992   1.133   1.406
11819TIP3    H135400   0.912   1.090   1.435
11819TIP3    H235401   1.052   1.060   1.386
11820TIP3   OH235402   8.284   4.834   4.082
11820TIP3    H135403   8.238   4.774   4.023
11820TIP3    H235404   8.367   4.790   4.102
11821TIP3   OH235405   5.712   1.445   5.562
11821TIP3    H135406   5.745   1.430   5.473
11821TIP3    H235407   5.686   1.537   5.563
11822TIP3   OH235408   7.656   1.482   5.798
11822TIP3    H135409   7.698   1.567   5.787
11822TIP3    H235410   7.664   1.462   5.891
11823TIP3   OH235411   6.393   1.466   2.777
11823TIP3    H135412   6.488   1.477   2.781
11823TIP3    H235413   6.378   1.415   2.697
11824TIP3   OH235414   8.066   4.168   0.632
11824TIP3    H135415   8.000   4.099   0.620
11824TIP3    H235416   8.059   4.222   0.554
11825TIP3   OH235417   0.792   3.785   4.310
11825TIP3    H135418   0.733   3.790   4.235
11825TIP3    H235419   0.822   3.875   4.323
11826TIP3   OH235420   2.830   3.812   6.585
11826TIP3    H135421   2.759   3.822   6.648
11826TIP3    H235422   2.804   3.866   6.510
11827TIP3   OH235423   6.349   0.895   5.155
11827TIP3    H135424   6.340   0.804   5.182
11827TIP3    H235425   6.424   0.895   5.096
11828TIP3   OH235426   2.442   7.161   5.281
11828TIP3    H135427   2.510   7.161   5.214
11828TIP3    H235428   2.473   7.100   5.348
11829TIP3   OH235429   0.315   1.377   0.438
11829TIP3    H135430   0.299   1.471   0.429
11829TIP3    H235431   0.403   1.371   0.476
11830TIP3   OH235432   3.344   7.454   1.624
11830TIP3    H135433   3.400   7.447   1.702
11830TIP3    H235434   3.384   7.394   1.561
11831TIP3   OH235435   7.009   4.574   3.821
11831TIP3    H135436   7.025   4.485   3.850
11831TIP3    H235437   6.967   4.616   3.895
11832TIP3   OH235438   2.133   4.292   0.613
11832TIP3    H135439   2.120   4.370   0.666
11832TIP3    H235440   2.223   4.301   0.579
11833TIP3   OH235441   3.587   2.035   0.815
11833TIP3    H135442   3.606   2.123   0.848
11833TIP3    H235443   3.492   2.028   0.820
11834TIP3   OH235444   1.987   6.752   1.088
11834TIP3    H135445   2.041   6.722   1.014
11834TIP3    H235446   2.049   6.793   1.148
11835TIP3   OH235447   0.563   2.374   1.592
11835TIP3    H135448   0.584   2.392   1.684
11835TIP3    H235449   0.546   2.460   1.554
11836TIP3   OH235450   0.813   7.415   1.247
11836TIP3    H135451   0.727   7.440   1.214
11836TIP3    H235452   0.875   7.465   1.193
11837TIP3   OH235453   2.567   5.290   6.475
11837TIP3    H135454   2.541   5.220   6.415
11837TIP3    H235455   2.499   5.357   6.463
11838TIP3   OH235456   6.371   6.903   1.801
11838TIP3    H135457   6.284   6.944   1.801
11838TIP3    H235458   6.415   6.939   1.724
11839TIP3   OH235459   4.894   5.615   3.678
11839TIP3    H135460   4.850   5.665   3.609
11839TIP3    H235461   4.982   5.600   3.644
11840TIP3   OH235462   0.893   7.657   4.241
11840TIP3    H135463   0.945   7.599   4.186
11840TIP3    H235464   0.943   7.665   4.322
11841TIP3   OH235465   5.962   6.587   5.339
11841TIP3    H135466   5.939   6.509   5.288
11841TIP3    H235467   5.880   6.614   5.381
11842TIP3   OH235468   0.124   4.120   4.080
11842TIP3    H135469   0.120   4.042   4.135
11842TIP3    H235470   0.203   4.108   4.028
11843TIP3   OH235471   1.052   7.621   0.102
11843TIP3    H135472   1.063   7.559   0.030
11843TIP3    H235473   1.114   7.590   0.169
11844TIP3   OH235474   3.348   1.325   3.973
11844TIP3    H135475   3.365   1.235   3.947
11844TIP3    H235476   3.427   1.373   3.949
11845TIP3   OH235477   2.675   3.299   0.693
11845TIP3    H135478   2.658   3.390   0.718
11845TIP3    H235479   2.728   3.264   0.764
11846TIP3   OH235480   5.927   2.625   4.930
11846TIP3    H135481   5.961   2.554   4.875
11846TIP3    H235482   5.832   2.615   4.925
11847TIP3   OH235483   0.810   0.585   0.631
11847TIP3    H135484   0.876   0.519   0.650
11847TIP3    H235485   0.735   0.535   0.598
11848TIP3   OH235486   6.682   4.728   3.197
11848TIP3    H135487   6.731   4.662   3.246
11848TIP3    H235488   6.738   4.806   3.199
11849TIP3   OH235489   6.051   4.859   0.692
11849TIP3    H135490   5.963   4.896   0.698
11849TIP3    H235491   6.070   4.857   0.598
11850TIP3   OH235492   1.189   1.530   4.372
11850TIP3    H135493   1.269   1.516   4.321
11850TIP3    H235494   1.134   1.586   4.317
11851TIP3   OH235495   3.120   7.569   0.582
11851TIP3    H135496   3.120   7.648   0.636
11851TIP3    H235497   3.083   7.501   0.637
11852TIP3   OH235498   2.978   1.292   3.179
11852TIP3    H135499   3.014   1.319   3.094
11852TIP3    H235500   2.955   1.374   3.222
11853TIP3   OH235501   2.988   0.593   3.374
11853TIP3    H135502   3.082   0.598   3.357
11853TIP3    H235503   2.970   0.667   3.432
11854TIP3   OH235504   1.511   3.828   3.098
11854TIP3    H135505   1.460   3.791   3.026
11854TIP3    H235506   1.561   3.755   3.133
11855TIP3   OH235507   6.962   5.687   1.723
11855TIP3    H135508   7.020   5.636   1.667
11855TIP3    H235509   6.972   5.777   1.691
11856TIP3   OH235510   3.404   1.627   6.467
11856TIP3    H135511   3.497   1.649   6.470
11856TIP3    H235512   3.402   1.532   6.479
11857TIP3   OH235513   2.560   1.892   4.460
11857TIP3    H135514   2.482   1.870   4.511
11857TIP3    H235515   2.625   1.918   4.526
11858TIP3   OH235516   1.576   5.039   1.551
11858TIP3    H135517   1.661   5.048   1.507
11858TIP3    H235518   1.568   5.118   1.604
11859TIP3   OH235519   4.439   6.407   5.795
11859TIP3    H135520   4.378   6.434   5.726
11859TIP3    H235521   4.405   6.449   5.874
11860TIP3   OH235522   5.321   0.580   0.868
11860TIP3    H135523   5.272   0.615   0.942
11860TIP3    H235524   5.386   0.522   0.907
11861TIP3   OH235525   3.059   1.293   3.894
11861TIP3    H135526   3.077   1.220   3.836
11861TIP3    H235527   3.138   1.346   3.891
11862TIP3   OH235528   5.100   5.032   2.836
11862TIP3    H135529   5.079   4.986   2.755
11862TIP3    H235530   5.195   5.023   2.844
11863TIP3   OH235531   4.844   3.825   0.261
11863TIP3    H135532   4.757   3.803   0.229
11863TIP3    H235533   4.886   3.740   0.274
11864TIP3   OH235534   0.896   1.631   0.105
11864TIP3    H135535   0.819   1.582   0.133
11864TIP3    H235536   0.950   1.637   0.184
11865TIP3   OH235537   0.556   6.274   1.828
11865TIP3    H135538   0.533   6.366   1.820
11865TIP3    H235539   0.576   6.245   1.739
11866TIP3   OH235540   0.938   3.602   3.152
11866TIP3    H135541   0.950   3.642   3.066
11866TIP3    H235542   0.945   3.675   3.214
11867TIP3   OH235543   6.146   4.615   3.571
11867TIP3    H135544   6.122   4.705   3.593
11867TIP3    H235545   6.158   4.572   3.656
11868TIP3   OH235546   8.052   0.371   4.713
11868TIP3    H135547   8.132   0.355   4.763
11868TIP3    H235548   7.981   0.357   4.775
11869TIP3   OH235549   7.894   0.074   0.772
11869TIP3    H135550   7.977   0.089   0.818
11869TIP3    H235551   7.899   0.132   0.695
11870TIP3   OH235552   4.173   6.687   2.910
11870TIP3    H135553   4.266   6.669   2.916
11870TIP3    H235554   4.161   6.768   2.959
11871TIP3   OH235555   0.711   4.422   0.916
11871TIP3    H135556   0.626   4.410   0.958
11871TIP3    H235557   0.690   4.441   0.824
11872TIP3   OH235558   1.076   5.542   3.977
11872TIP3    H135559   1.098   5.611   3.914
11872TIP3    H235560   1.111   5.462   3.939
11873TIP3   OH235561   3.925   2.469   3.096
11873TIP3    H135562   3.959   2.434   3.014
11873TIP3    H235563   3.987   2.439   3.163
11874TIP3   OH235564   3.908   3.858   3.010
11874TIP3    H135565   3.891   3.764   3.015
11874TIP3    H235566   4.004   3.864   3.003
11875TIP3   OH235567   2.583   7.737   1.814
11875TIP3    H135568   2.608   7.657   1.768
11875TIP3    H235569   2.527   7.784   1.752
11876TIP3   OH235570   6.081   3.318   4.724
11876TIP3    H135571   6.015   3.385   4.746
11876TIP3    H235572   6.134   3.359   4.656
11877TIP3   OH235573   3.634   6.220   0.237
11877TIP3    H135574   3.575   6.178   0.174
11877TIP3    H235575   3.707   6.159   0.245
11878TIP3   OH235576   6.197   7.084   4.548
11878TIP3    H135577   6.237   7.000   4.573
11878TIP3    H235578   6.161   7.067   4.461
11879TIP3   OH235579   5.459   6.348   0.435
11879TIP3    H135580   5.382   6.393   0.400
11879TIP3    H235581   5.455   6.363   0.530
11880TIP3   OH235582   1.262   2.464   0.037
11880TIP3    H135583   1.170   2.437   0.045
11880TIP3    H235584   1.288   2.487   0.126
11881TIP3   OH235585   0.957   4.206   0.155
11881TIP3    H135586   0.994   4.228   0.069
11881TIP3    H235587   0.914   4.286   0.184
11882TIP3   OH235588   2.488   1.094   5.746
11882TIP3    H135589   2.508   1.001   5.757
11882TIP3    H235590   2.406   1.107   5.792
11883TIP3   OH235591   1.714   7.775   4.251
11883TIP3    H135592   1.736   7.726   4.330
11883TIP3    H235593   1.659   7.716   4.200
11884TIP3   OH235594   1.730   1.924   1.051
11884TIP3    H135595   1.648   1.930   1.099
11884TIP3    H235596   1.705   1.894   0.964
11885TIP3   OH235597   2.525   3.742   0.041
11885TIP3    H135598   2.495   3.656   0.011
11885TIP3    H235599   2.486   3.752   0.128
11886TIP3   OH235600   8.181   2.270   0.725
11886TIP3    H135601   8.097   2.289   0.768
11886TIP3    H235602   8.171   2.181   0.691
11887TIP3   OH235603   1.084   2.174   3.481
11887TIP3    H135604   1.108   2.139   3.567
11887TIP3    H235605   1.055   2.098   3.431
11888TIP3   OH235606   3.557   2.676   3.598
11888TIP3    H135607   3.603   2.692   3.681
11888TIP3    H235608   3.524   2.586   3.607
11889TIP3   OH235609   5.742   5.346   1.916
11889TIP3    H135610   5.765   5.374   2.004
11889TIP3    H235611   5.816   5.374   1.862
11890TIP3   OH235612   3.201   5.685   0.037
11890TIP3    H135613   3.148   5.725   0.107
11890TIP3    H235614   3.186   5.591   0.047
11891TIP3   OH235615   8.271   3.034   3.319
11891TIP3    H135616   8.218   2.998   3.390
11891TIP3    H235617   8.309   2.957   3.276
11892TIP3   OH235618   1.803   6.584   5.036
11892TIP3    H135619   1.727   6.597   4.979
11892TIP3    H235620   1.864   6.532   4.984
11893TIP3   OH235621   3.604   2.337   4.142
11893TIP3    H135622   3.612   2.353   4.236
11893TIP3    H235623   3.688   2.365   4.106
11894TIP3   OH235624   6.626   2.027   3.504
11894TIP3    H135625   6.686   2.101   3.511
11894TIP3    H235626   6.642   1.991   3.417
11895TIP3   OH235627   2.739   0.325   4.515
11895TIP3    H135628   2.757   0.376   4.436
11895TIP3    H235629   2.665   0.371   4.556
11896TIP3   OH235630   6.171   6.976   5.851
11896TIP3    H135631   6.137   6.921   5.780
11896TIP3    H235632   6.201   6.913   5.917
11897TIP3   OH235633   4.545   4.816   5.023
11897TIP3    H135634   4.473   4.775   5.072
11897TIP3    H235635   4.571   4.750   4.959
11898TIP3   OH235636   1.765   4.541   1.603
11898TIP3    H135637   1.672   4.558   1.612
11898TIP3    H235638   1.778   4.530   1.509
11899TIP3   OH235639   6.388   5.694   3.431
11899TIP3    H135640   6.445   5.621   3.405
11899TIP3    H235641   6.376   5.744   3.351
11900TIP3   OH235642   4.788   2.340   4.854
11900TIP3    H135643   4.877   2.345   4.888
11900TIP3    H235644   4.782   2.252   4.816
11901TIP3   OH235645   7.426   1.510   2.902
11901TIP3    H135646   7.440   1.530   2.994
11901TIP3    H235647   7.482   1.572   2.855
11902TIP3   OH235648   6.684   3.109   4.944
11902TIP3    H135649   6.631   3.143   4.871
11902TIP3    H235650   6.632   3.129   5.022
11903TIP3   OH235651   7.980   2.483   6.355
11903TIP3    H135652   8.029   2.564   6.361
11903TIP3    H235653   7.888   2.509   6.368
11904TIP3   OH235654   4.040   5.897   5.608
11904TIP3    H135655   3.992   5.978   5.628
11904TIP3    H235656   4.059   5.903   5.515
11905TIP3   OH235657   2.353   0.572   5.828
11905TIP3    H135658   2.287   0.596   5.764
11905TIP3    H235659   2.345   0.477   5.836
11906TIP3   OH235660   4.861   2.976   1.234
11906TIP3    H135661   4.882   2.906   1.173
11906TIP3    H235662   4.925   2.966   1.304
11907TIP3   OH235663   0.936   1.168   3.214
11907TIP3    H135664   0.883   1.236   3.255
11907TIP3    H235665   1.026   1.199   3.222
11908TIP3   OH235666   0.685   6.883   6.307
11908TIP3    H135667   0.602   6.844   6.336
11908TIP3    H235668   0.659   6.960   6.257
11909TIP3   OH235669   8.212   7.764   6.466
11909TIP3    H135670   8.185   7.851   6.494
11909TIP3    H235671   8.177   7.705   6.533
11910TIP3   OH235672   7.606   2.328   6.058
11910TIP3    H135673   7.693   2.368   6.061
11910TIP3    H235674   7.545   2.401   6.062
11911TIP3   OH235675   7.181   0.794   5.495
11911TIP3    H135676   7.269   0.785   5.457
11911TIP3    H235677   7.126   0.819   5.421
11912TIP3   OH235678   0.762   6.439   3.782
11912TIP3    H135679   0.690   6.484   3.738
11912TIP3    H235680   0.829   6.430   3.715
11913TIP3   OH235681   6.934   3.192   2.943
11913TIP3    H135682   6.960   3.284   2.948
11913TIP3    H235683   6.840   3.194   2.929
11914TIP3   OH235684   5.482   5.355   1.815
11914TIP3    H135685   5.572   5.349   1.783
11914TIP3    H235686   5.482   5.432   1.871
11915TIP3   OH235687   1.478   0.636   4.199
11915TIP3    H135688   1.511   0.564   4.253
11915TIP3    H235689   1.494   0.714   4.251
11916TIP3   OH235690   3.775   5.817   3.702
11916TIP3    H135691   3.744   5.730   3.676
11916TIP3    H235692   3.871   5.809   3.703
11917TIP3   OH235693   7.652   2.562   5.690
11917TIP3    H135694   7.659   2.602   5.777
11917TIP3    H235695   7.568   2.516   5.692
11918TIP3   OH235696   3.711   1.934   3.846
11918TIP3    H135697   3.715   1.974   3.759
11918TIP3    H235698   3.644   1.984   3.892
11919TIP3   OH235699   3.392   3.661   4.175
11919TIP3    H135700   3.317   3.602   4.173
11919TIP3    H235701   3.398   3.689   4.266
11920TIP3   OH235702   7.462   2.563   4.408
11920TIP3    H135703   7.470   2.559   4.313
11920TIP3    H235704   7.396   2.498   4.430
11921TIP3   OH235705   2.362   4.554   4.730
11921TIP3    H135706   2.374   4.630   4.674
11921TIP3    H235707   2.334   4.484   4.671
11922TIP3   OH235708   1.435   6.092   6.091
11922TIP3    H135709   1.349   6.086   6.132
11922TIP3    H235710   1.466   6.181   6.112
11923TIP3   OH235711   0.583   4.573   3.997
11923TIP3    H135712   0.638   4.644   3.963
11923TIP3    H235713   0.499   4.615   4.016
11924TIP3   OH235714   5.838   5.625   2.403
11924TIP3    H135715   5.747   5.640   2.427
11924TIP3    H235716   5.868   5.555   2.461
11925TIP3   OH235717   0.237   0.631   0.326
11925TIP3    H135718   0.278   0.643   0.412
11925TIP3    H235719   0.254   0.712   0.279
11926TIP3   OH235720   1.820   2.463   3.504
11926TIP3    H135721   1.739   2.422   3.473
11926TIP3    H235722   1.885   2.393   3.503
11927TIP3   OH235723   7.469   4.834   0.826
11927TIP3    H135724   7.436   4.891   0.895
11927TIP3    H235725   7.548   4.878   0.794
11928TIP3   OH235726   4.886   5.330   2.407
11928TIP3    H135727   4.791   5.324   2.416
11928TIP3    H235728   4.904   5.424   2.404
11929TIP3   OH235729   6.191   6.026   4.197
11929TIP3    H135730   6.101   6.056   4.188
11929TIP3    H235731   6.215   6.045   4.287
11930TIP3   OH235732   4.903   1.531   0.077
11930TIP3    H135733   4.871   1.483   0.153
11930TIP3    H235734   4.920   1.463   0.011
11931TIP3   OH235735   5.012   0.403   2.681
11931TIP3    H135736   4.932   0.444   2.713
11931TIP3    H235737   5.056   0.371   2.760
11932TIP3   OH235738   7.172   6.010   5.801
11932TIP3    H135739   7.160   5.918   5.778
11932TIP3    H235740   7.253   6.011   5.852
11933TIP3   OH235741   1.890   5.882   3.491
11933TIP3    H135742   1.881   5.973   3.520
11933TIP3    H235743   1.882   5.831   3.572
11934TIP3   OH235744   2.741   2.524   3.683
11934TIP3    H135745   2.693   2.513   3.601
11934TIP3    H235746   2.680   2.570   3.741
11935TIP3   OH235747   0.833   2.845   2.360
11935TIP3    H135748   0.742   2.817   2.352
11935TIP3    H235749   0.849   2.844   2.455
11936TIP3   OH235750   8.160   4.165   2.068
11936TIP3    H135751   8.156   4.139   2.160
11936TIP3    H235752   8.205   4.249   2.068
11937TIP3   OH235753   1.455   2.004   2.037
11937TIP3    H135754   1.535   2.049   2.009
11937TIP3    H235755   1.386   2.040   1.981
11938TIP3   OH235756   1.671   4.307   0.180
11938TIP3    H135757   1.587   4.278   0.146
11938TIP3    H235758   1.730   4.303   0.104
11939TIP3   OH235759   5.007   0.658   1.729
11939TIP3    H135760   4.966   0.723   1.785
11939TIP3    H235761   4.964   0.576   1.752
11940TIP3   OH235762   5.813   3.351   6.347
11940TIP3    H135763   5.774   3.264   6.357
11940TIP3    H235764   5.870   3.342   6.270
11941TIP3   OH235765   2.016   5.786   2.971
11941TIP3    H135766   2.055   5.729   3.037
11941TIP3    H235767   2.082   5.852   2.954
11942TIP3   OH235768   4.368   7.382   0.710
11942TIP3    H135769   4.432   7.332   0.659
11942TIP3    H235770   4.417   7.412   0.786
11943TIP3   OH235771   0.919   2.752   2.893
11943TIP3    H135772   0.895   2.735   2.984
11943TIP3    H235773   0.970   2.833   2.897
11944TIP3   OH235774   1.049   3.557   0.537
11944TIP3    H135775   0.959   3.572   0.568
11944TIP3    H235776   1.047   3.468   0.503
11945TIP3   OH235777   1.050   2.964   1.313
11945TIP3    H135778   0.984   2.905   1.350
11945TIP3    H235779   1.093   3.003   1.389
11946TIP3   OH235780   4.479   6.003   2.307
11946TIP3    H135781   4.420   5.968   2.241
11946TIP3    H235782   4.422   6.041   2.373
11947TIP3   OH235783   0.780   1.822   4.077
11947TIP3    H135784   0.790   1.897   4.020
11947TIP3    H235785   0.711   1.847   4.139
11948TIP3   OH235786   1.274   5.347   2.511
11948TIP3    H135787   1.255   5.262   2.549
11948TIP3    H235788   1.355   5.375   2.554
11949TIP3   OH235789   5.527   3.437   2.712
11949TIP3    H135790   5.607   3.480   2.743
11949TIP3    H235791   5.554   3.393   2.631
11950TIP3   OH235792   7.691   2.941   1.453
11950TIP3    H135793   7.602   2.947   1.417
11950TIP3    H235794   7.735   3.020   1.422
11951TIP3   OH235795   7.127   0.732   3.735
11951TIP3    H135796   7.123   0.720   3.640
11951TIP3    H235797   7.090   0.651   3.771
11952TIP3   OH235798   1.929   6.562   1.680
11952TIP3    H135799   1.991   6.531   1.614
11952TIP3    H235800   1.933   6.498   1.750
11953TIP3   OH235801   5.712   4.303   5.968
11953TIP3    H135802   5.684   4.339   6.052
11953TIP3    H235803   5.802   4.333   5.958
11954TIP3   OH235804   0.769   2.761   5.489
11954TIP3    H135805   0.689   2.710   5.500
11954TIP3    H235806   0.826   2.732   5.560
11955TIP3   OH235807   6.321   0.334   6.012
11955TIP3    H135808   6.269   0.259   5.983
11955TIP3    H235809   6.368   0.302   6.090
11956TIP3   OH235810   4.666   6.792   0.103
11956TIP3    H135811   4.687   6.879   0.136
11956TIP3    H235812   4.752   6.752   0.084
11957TIP3   OH235813   2.903   7.615   3.543
11957TIP3    H135814   2.935   7.631   3.632
11957TIP3    H235815   2.823   7.563   3.556
11958TIP3   OH235816   3.431   1.923   3.497
11958TIP3    H135817   3.498   1.856   3.483
11958TIP3    H235818   3.358   1.875   3.536
11959TIP3   OH235819   5.556   6.951   0.659
11959TIP3    H135820   5.560   6.863   0.696
11959TIP3    H235821   5.468   6.982   0.679
11960TIP3   OH235822   4.110   2.332   3.958
11960TIP3    H135823   4.102   2.250   3.909
11960TIP3    H235824   4.157   2.307   4.038
11961TIP3   OH235825   1.403   0.248   1.428
11961TIP3    H135826   1.308   0.237   1.440
11961TIP3    H235827   1.431   0.301   1.503
11962TIP3   OH235828   7.206   2.574   2.486
11962TIP3    H135829   7.256   2.598   2.407
11962TIP3    H235830   7.120   2.549   2.453
11963TIP3   OH235831   2.940   4.846   5.400
11963TIP3    H135832   3.033   4.832   5.416
11963TIP3    H235833   2.896   4.778   5.451
11964TIP3   OH235834   2.636   2.029   3.561
11964TIP3    H135835   2.692   2.060   3.490
11964TIP3    H235836   2.668   2.074   3.639
11965TIP3   OH235837   6.116   7.766   5.722
11965TIP3    H135838   6.063   7.836   5.684
11965TIP3    H235839   6.068   7.686   5.699
11966TIP3   OH235840   0.020   1.376   1.860
11966TIP3    H135841  -0.074   1.364   1.851
11966TIP3    H235842   0.054   1.289   1.882
11967TIP3   OH235843   1.696   7.666   6.289
11967TIP3    H135844   1.690   7.655   6.384
11967TIP3    H235845   1.704   7.577   6.256
11968TIP3   OH235846   2.537   0.169   4.399
11968TIP3    H135847   2.496   0.247   4.437
11968TIP3    H235848   2.631   0.190   4.399
11969TIP3   OH235849   3.655   5.119   5.919
11969TIP3    H135850   3.595   5.089   5.988
11969TIP3    H235851   3.604   5.110   5.838
11970TIP3   OH235852   0.041   5.354   3.984
11970TIP3    H135853   0.083   5.379   4.066
11970TIP3    H235854  -0.029   5.294   4.011
11971TIP3   OH235855   4.678   1.308   6.110
11971TIP3    H135856   4.643   1.219   6.118
11971TIP3    H235857   4.762   1.305   6.156
11972TIP3   OH235858   4.050   1.487   5.356
11972TIP3    H135859   4.139   1.474   5.389
11972TIP3    H235860   3.994   1.463   5.430
11973TIP3   OH235861   1.949   5.310   4.058
11973TIP3    H135862   1.936   5.318   3.964
11973TIP3    H235863   1.939   5.399   4.092
11974TIP3   OH235864   5.075   5.031   6.351
11974TIP3    H135865   5.144   5.040   6.285
11974TIP3    H235866   4.994   5.053   6.305
11975TIP3   OH235867   3.403   5.405   4.211
11975TIP3    H135868   3.335   5.447   4.263
11975TIP3    H235869   3.448   5.346   4.272
11976TIP3   OH235870   7.823   5.993   4.514
11976TIP3    H135871   7.813   5.976   4.420
11976TIP3    H235872   7.787   6.081   4.526
11977TIP3   OH235873   3.457   6.088   2.145
11977TIP3    H135874   3.492   6.100   2.056
11977TIP3    H235875   3.464   5.993   2.160
11978TIP3   OH235876   0.503   2.126   0.770
11978TIP3    H135877   0.515   2.094   0.681
11978TIP3    H235878   0.489   2.220   0.761
11979TIP3   OH235879   0.446   0.657   2.686
11979TIP3    H135880   0.524   0.610   2.715
11979TIP3    H235881   0.393   0.667   2.765
11980TIP3   OH235882   0.579   3.251   5.324
11980TIP3    H135883   0.627   3.309   5.265
11980TIP3    H235884   0.647   3.202   5.370
11981TIP3   OH235885   1.141   4.755   1.637
11981TIP3    H135886   1.135   4.691   1.708
11981TIP3    H235887   1.205   4.820   1.668
11982TIP3   OH235888   8.192   1.596   0.479
11982TIP3    H135889   8.103   1.610   0.448
11982TIP3    H235890   8.217   1.511   0.442
11983TIP3   OH235891   3.945   0.958   4.284
11983TIP3    H135892   3.891   0.911   4.219
11983TIP3    H235893   3.989   0.888   4.332
11984TIP3   OH235894   7.911   4.688   1.958
11984TIP3    H135895   7.998   4.728   1.960
11984TIP3    H235896   7.917   4.621   1.889
11985TIP3   OH235897   2.330   3.718   2.131
11985TIP3    H135898   2.235   3.710   2.115
11985TIP3    H235899   2.365   3.752   2.048
11986TIP3   OH235900   1.058   0.594   4.537
11986TIP3    H135901   1.085   0.622   4.450
11986TIP3    H235902   1.104   0.653   4.597
11987TIP3   OH235903   1.488   3.166   3.241
11987TIP3    H135904   1.545   3.142   3.314
11987TIP3    H235905   1.400   3.144   3.273
11988TIP3   OH235906   0.357   7.126   5.273
11988TIP3    H135907   0.272   7.135   5.230
11988TIP3    H235908   0.364   7.032   5.294
11989TIP3   OH235909   7.901   3.114   3.459
11989TIP3    H135910   7.892   3.141   3.550
11989TIP3    H235911   7.990   3.139   3.435
11990TIP3   OH235912   7.576   3.926   0.501
11990TIP3    H135913   7.488   3.899   0.525
11990TIP3    H235914   7.604   3.860   0.437
11991TIP3   OH235915   4.415   7.706   3.309
11991TIP3    H135916   4.452   7.670   3.389
11991TIP3    H235917   4.341   7.649   3.288
11992TIP3   OH235918   2.788   2.138   2.687
11992TIP3    H135919   2.841   2.110   2.761
11992TIP3    H235920   2.726   2.201   2.724
11993TIP3   OH235921   7.812   3.023   2.130
11993TIP3    H135922   7.740   3.086   2.128
11993TIP3    H235923   7.795   2.969   2.207
11994TIP3   OH235924   7.653   3.338   1.398
11994TIP3    H135925   7.606   3.300   1.324
11994TIP3    H235926   7.586   3.387   1.446
11995TIP3   OH235927   5.386   0.746   2.364
11995TIP3    H135928   5.448   0.677   2.341
11995TIP3    H235929   5.376   0.739   2.459
11996TIP3   OH235930   8.021   3.217   6.256
11996TIP3    H135931   7.936   3.206   6.297
11996TIP3    H235932   8.026   3.146   6.192
11997TIP3   OH235933   4.522   6.939   5.962
11997TIP3    H135934   4.537   7.009   5.900
11997TIP3    H235935   4.607   6.895   5.970
11998TIP3   OH235936   2.306   6.882   5.879
11998TIP3    H135937   2.217   6.848   5.890
11998TIP3    H235938   2.346   6.825   5.813
11999TIP3   OH235939   5.422   6.859   6.252
11999TIP3    H135940   5.442   6.879   6.343
11999TIP3    H235941   5.368   6.781   6.255
12000TIP3   OH235942   6.636   0.162   4.966
12000TIP3    H135943   6.635   0.206   4.881
12000TIP3    H235944   6.550   0.119   4.971
12001TIP3   OH235945   1.336   4.863   5.251
12001TIP3    H135946   1.392   4.846   5.175
12001TIP3    H235947   1.321   4.777   5.290
12002TIP3   OH235948   3.605   1.542   1.338
12002TIP3    H135949   3.586   1.491   1.260
12002TIP3    H235950   3.700   1.548   1.340
12003TIP3   OH235951   7.417   7.712   3.443
12003TIP3    H135952   7.512   7.712   3.451
12003TIP3    H235953   7.397   7.630   3.398
12004TIP3   OH235954   1.961   4.070   0.553
12004TIP3    H135955   2.017   4.147   0.561
12004TIP3    H235956   1.872   4.105   0.562
12005TIP3   OH235957   3.615   3.300   6.740
12005TIP3    H135958   3.524   3.328   6.754
12005TIP3    H235959   3.614   3.261   6.652
12006TIP3   OH235960   6.557   5.939   2.178
12006TIP3    H135961   6.586   5.994   2.251
12006TIP3    H235962   6.470   5.908   2.204
12007TIP3   OH235963   1.682   0.134   5.316
12007TIP3    H135964   1.765   0.124   5.363
12007TIP3    H235965   1.689   0.074   5.243
12008TIP3   OH235966   6.276   3.255   4.090
12008TIP3    H135967   6.264   3.228   4.181
12008TIP3    H235968   6.235   3.341   4.085
12009TIP3   OH235969   6.983   2.818   4.801
12009TIP3    H135970   7.037   2.818   4.721
12009TIP3    H235971   6.976   2.911   4.824
12010TIP3   OH235972   2.560   2.893   1.375
12010TIP3    H135973   2.563   2.813   1.428
12010TIP3    H235974   2.497   2.874   1.306
12011TIP3   OH235975   6.803   3.509   4.493
12011TIP3    H135976   6.713   3.538   4.477
12011TIP3    H235977   6.810   3.425   4.448
12012TIP3   OH235978   2.633   5.979   4.326
12012TIP3    H135979   2.642   5.885   4.313
12012TIP3    H235980   2.675   5.997   4.410
12013TIP3   OH235981   0.050   5.379   6.426
12013TIP3    H135982   0.128   5.409   6.379
12013TIP3    H235983  -0.020   5.379   6.361
12014TIP3   OH235984   0.788   3.589   3.580
12014TIP3    H135985   0.779   3.518   3.517
12014TIP3    H235986   0.863   3.565   3.633
12015TIP3   OH235987   0.049   1.061   6.719
12015TIP3    H135988   0.060   1.121   6.645
12015TIP3    H235989  -0.027   1.094   6.767
12016TIP3   OH235990   1.033   3.933   3.308
12016TIP3    H135991   1.038   4.009   3.366
12016TIP3    H235992   0.957   3.885   3.339
12017TIP3   OH235993   0.069   1.161   4.671
12017TIP3    H135994   0.125   1.203   4.605
12017TIP3    H235995   0.125   1.094   4.711
12018TIP3   OH235996   4.274   0.118   2.400
12018TIP3    H135997   4.209   0.176   2.359
12018TIP3    H235998   4.305   0.063   2.329
12019TIP3   OH235999   6.075   6.878   6.675
12019TIP3    H136000   5.992   6.922   6.691
12019TIP3    H236001   6.121   6.933   6.612
12020TIP3   OH236002   3.682   5.427   2.615
12020TIP3    H136003   3.618   5.447   2.547
12020TIP3    H236004   3.653   5.344   2.652
12021TIP3   OH236005   6.892   3.628   0.042
12021TIP3    H136006   6.856   3.543   0.068
12021TIP3    H236007   6.972   3.637   0.093
12022TIP3   OH236008   1.096   1.888   6.621
12022TIP3    H136009   1.147   1.830   6.565
12022TIP3    H236010   1.098   1.973   6.576
12023TIP3   OH236011   0.885   5.313   0.957
12023TIP3    H136012   0.976   5.317   0.983
12023TIP3    H236013   0.874   5.224   0.923
12024TIP3   OH236014   5.776   5.825   4.821
12024TIP3    H136015   5.812   5.893   4.765
12024TIP3    H236016   5.701   5.866   4.864
12025TIP3   OH236017   1.172   5.156   4.881
12025TIP3    H136018   1.140   5.069   4.906
12025TIP3    H236019   1.182   5.152   4.786
12026TIP3   OH236020   6.524   0.536   4.900
12026TIP3    H136021   6.534   0.487   4.819
12026TIP3    H236022   6.566   0.620   4.882
12027TIP3   OH236023   5.285   5.723   1.908
12027TIP3    H136024   5.381   5.718   1.903
12027TIP3    H236025   5.262   5.667   1.982
12028TIP3   OH236026   2.645   5.919   3.597
12028TIP3    H136027   2.679   5.851   3.656
12028TIP3    H236028   2.629   5.873   3.515
12029TIP3   OH236029   6.528   6.705   4.451
12029TIP3    H136030   6.530   6.797   4.425
12029TIP3    H236031   6.593   6.663   4.396
12030TIP3   OH236032   5.384   5.994   3.814
12030TIP3    H136033   5.325   5.957   3.879
12030TIP3    H236034   5.420   6.072   3.856
12031TIP3   OH236035   5.219   4.359   2.620
12031TIP3    H136036   5.138   4.332   2.663
12031TIP3    H236037   5.215   4.318   2.533
12032TIP3   OH236038   2.693   3.585   0.924
12032TIP3    H136039   2.641   3.664   0.939
12032TIP3    H236040   2.686   3.536   1.006
12033TIP3   OH236041   0.446   7.285   6.193
12033TIP3    H136042   0.359   7.262   6.161
12033TIP3    H236043   0.431   7.360   6.252
12034TIP3   OH236044   6.001   1.480   1.562
12034TIP3    H136045   6.026   1.515   1.476
12034TIP3    H236046   6.082   1.441   1.597
12035TIP3   OH236047   2.577   0.796   5.239
12035TIP3    H136048   2.617   0.792   5.325
12035TIP3    H236049   2.603   0.882   5.205
12036TIP3   OH236050   8.107   0.288   5.161
12036TIP3    H136051   8.021   0.287   5.203
12036TIP3    H236052   8.156   0.220   5.206
12037TIP3   OH236053   5.024   3.860   2.283
12037TIP3    H136054   5.100   3.900   2.324
12037TIP3    H236055   5.034   3.880   2.190
12038TIP3   OH236056   7.653   0.829   6.044
12038TIP3    H136057   7.615   0.800   5.962
12038TIP3    H236058   7.722   0.890   6.019
12039TIP3   OH236059   5.223   2.167   2.673
12039TIP3    H136060   5.241   2.081   2.635
12039TIP3    H236061   5.140   2.156   2.719
12040TIP3   OH236062   5.361   3.986   0.900
12040TIP3    H136063   5.320   3.969   0.984
12040TIP3    H236064   5.337   3.911   0.846
12041TIP3   OH236065   1.149   4.611   2.355
12041TIP3    H136066   1.212   4.677   2.329
12041TIP3    H236067   1.183   4.575   2.437
12042TIP3   OH236068   8.169   1.340   3.381
12042TIP3    H136069   8.207   1.414   3.428
12042TIP3    H236070   8.112   1.298   3.445
12043TIP3   OH236071   5.406   7.773   5.093
12043TIP3    H136072   5.463   7.771   5.170
12043TIP3    H236073   5.371   7.684   5.086
12044TIP3   OH236074   7.581   2.370   0.131
12044TIP3    H136075   7.563   2.288   0.085
12044TIP3    H236076   7.516   2.432   0.097
12045TIP3   OH236077   0.378   6.096   1.948
12045TIP3    H136078   0.398   6.012   1.989
12045TIP3    H236079   0.459   6.121   1.903
12046TIP3   OH236080   7.834   2.256   3.461
12046TIP3    H136081   7.794   2.244   3.547
12046TIP3    H236082   7.851   2.350   3.455
12047TIP3   OH236083   1.111   0.201   1.440
12047TIP3    H136084   1.085   0.189   1.531
12047TIP3    H236085   1.069   0.283   1.414
12048TIP3   OH236086   7.420   0.112   6.097
12048TIP3    H136087   7.389   0.021   6.096
12048TIP3    H236088   7.467   0.120   6.180
12049TIP3   OH236089   7.944   6.630   5.849
12049TIP3    H136090   7.876   6.609   5.913
12049TIP3    H236091   7.989   6.547   5.834
12050TIP3   OH236092   0.373   6.738   4.223
12050TIP3    H136093   0.309   6.736   4.152
12050TIP3    H236094   0.371   6.650   4.261
12051TIP3   OH236095   2.975   4.405   0.791
12051TIP3    H136096   2.935   4.473   0.735
12051TIP3    H236097   2.916   4.398   0.866
12052TIP3   OH236098   1.982   0.831   5.511
12052TIP3    H136099   1.886   0.831   5.511
12052TIP3    H236100   2.006   0.915   5.551
12053TIP3   OH236101   5.612   3.551   4.715
12053TIP3    H136102   5.670   3.625   4.698
12053TIP3    H236103   5.557   3.545   4.637
12054TIP3   OH236104   7.869   6.000   6.305
12054TIP3    H136105   7.787   5.986   6.259
12054TIP3    H236106   7.906   5.912   6.315
12055TIP3   OH236107   7.588   1.798   4.608
12055TIP3    H136108   7.611   1.837   4.523
12055TIP3    H236109   7.522   1.732   4.587
12056TIP3   OH236110   7.546   5.350   2.829
12056TIP3    H136111   7.636   5.325   2.850
12056TIP3    H236112   7.555   5.430   2.776
12057TIP3   OH236113   6.384   7.463   5.664
12057TIP3    H136114   6.367   7.528   5.596
12057TIP3    H236115   6.386   7.380   5.618
12058TIP3   OH236116   6.404   2.595   1.612
12058TIP3    H136117   6.407   2.511   1.566
12058TIP3    H236118   6.434   2.659   1.548
12059TIP3   OH236119   1.519   5.026   6.285
12059TIP3    H136120   1.576   4.950   6.272
12059TIP3    H236121   1.434   4.999   6.250
12060TIP3   OH236122   4.915   4.303   6.026
12060TIP3    H136123   4.833   4.253   6.029
12060TIP3    H236124   4.979   4.241   5.990
12061TIP3   OH236125   7.834   2.820   2.333
12061TIP3    H136126   7.921   2.794   2.363
12061TIP3    H236127   7.807   2.887   2.395
12062TIP3   OH236128   0.223   0.589   3.092
12062TIP3    H136129   0.153   0.645   3.125
12062TIP3    H236130   0.219   0.600   2.997
12063TIP3   OH236131   7.350   4.972   5.879
12063TIP3    H136132   7.276   5.006   5.930
12063TIP3    H236133   7.386   5.050   5.837
12064TIP3   OH236134   0.950   2.495   0.415
12064TIP3    H136135   0.932   2.452   0.499
12064TIP3    H236136   0.870   2.546   0.397
12065TIP3   OH236137   0.709   2.410   6.193
12065TIP3    H136138   0.623   2.376   6.218
12065TIP3    H236139   0.694   2.504   6.181
12066TIP3   OH236140   7.894   0.068   6.543
12066TIP3    H136141   7.983   0.095   6.565
12066TIP3    H236142   7.895  -0.027   6.552
12067TIP3   OH236143   5.297   6.900   2.586
12067TIP3    H136144   5.273   6.823   2.535
12067TIP3    H236145   5.388   6.919   2.561
12068TIP3   OH236146   1.439   5.546   3.004
12068TIP3    H136147   1.466   5.635   3.024
12068TIP3    H236148   1.364   5.530   3.062
12069TIP3   OH236149   7.613   0.275   5.525
12069TIP3    H136150   7.605   0.180   5.536
12069TIP3    H236151   7.597   0.290   5.431
12070TIP3   OH236152   2.337   0.474   1.064
12070TIP3    H136153   2.334   0.569   1.053
12070TIP3    H236154   2.308   0.460   1.155
12071TIP3   OH236155   0.521   5.145   2.320
12071TIP3    H136156   0.503   5.067   2.372
12071TIP3    H236157   0.616   5.146   2.309
12072TIP3   OH236158   1.748   7.141   0.724
12072TIP3    H136159   1.842   7.127   0.728
12072TIP3    H236160   1.730   7.154   0.631
12073TIP3   OH236161   6.128   1.425   1.299
12073TIP3    H136162   6.166   1.513   1.300
12073TIP3    H236163   6.203   1.366   1.309
12074TIP3   OH236164   1.115   6.030   2.533
12074TIP3    H136165   1.175   6.095   2.495
12074TIP3    H236166   1.152   5.946   2.507
12075TIP3   OH236167   1.456   4.892   2.753
12075TIP3    H136168   1.397   4.968   2.744
12075TIP3    H236169   1.528   4.925   2.806
12076TIP3   OH236170   4.708   1.404   1.837
12076TIP3    H136171   4.782   1.414   1.777
12076TIP3    H236172   4.688   1.492   1.867
12077TIP3   OH236173   6.846   4.666   4.915
12077TIP3    H136174   6.892   4.694   4.836
12077TIP3    H236175   6.891   4.710   4.987
12078TIP3   OH236176   5.804   3.511   0.811
12078TIP3    H136177   5.851   3.507   0.894
12078TIP3    H236178   5.828   3.596   0.774
12079TIP3   OH236179   1.169   3.294   2.554
12079TIP3    H136180   1.121   3.321   2.476
12079TIP3    H236181   1.198   3.376   2.594
12080TIP3   OH236182   2.583   5.734   3.366
12080TIP3    H136183   2.634   5.717   3.287
12080TIP3    H236184   2.543   5.650   3.388
12081TIP3   OH236185   5.535   7.126   2.036
12081TIP3    H136186   5.460   7.095   2.088
12081TIP3    H236187   5.518   7.219   2.023
12082TIP3   OH236188   1.012   5.919   4.642
12082TIP3    H136189   1.084   5.871   4.601
12082TIP3    H236190   1.044   5.938   4.730
12083TIP3   OH236191   5.587   5.734   5.992
12083TIP3    H136192   5.608   5.769   5.905
12083TIP3    H236193   5.491   5.737   5.996
12084TIP3   OH236194   0.520   7.519   5.276
12084TIP3    H136195   0.528   7.600   5.328
12084TIP3    H236196   0.479   7.457   5.336
12085TIP3   OH236197   7.991   2.000   4.662
12085TIP3    H136198   7.974   1.998   4.568
12085TIP3    H236199   7.943   1.925   4.697
12086TIP3   OH236200   1.678   1.370   1.744
12086TIP3    H136201   1.735   1.446   1.749
12086TIP3    H236202   1.698   1.319   1.823
12087TIP3   OH236203   3.428   1.711   2.844
12087TIP3    H136204   3.502   1.675   2.795
12087TIP3    H236205   3.459   1.712   2.935
12088TIP3   OH236206   4.186   5.212   4.271
12088TIP3    H136207   4.271   5.193   4.230
12088TIP3    H236208   4.167   5.135   4.323
12089TIP3   OH236209   3.954   1.376   2.024
12089TIP3    H136210   3.917   1.442   1.967
12089TIP3    H236211   4.033   1.416   2.061
12090TIP3   OH236212   4.286   2.986   4.431
12090TIP3    H136213   4.335   2.906   4.413
12090TIP3    H236214   4.305   3.044   4.357
12091TIP3   OH236215   1.190   1.786   2.916
12091TIP3    H136216   1.126   1.849   2.951
12091TIP3    H236217   1.154   1.700   2.939
12092TIP3   OH236218   7.778   7.531   5.014
12092TIP3    H136219   7.802   7.533   4.921
12092TIP3    H236220   7.683   7.539   5.014
12093TIP3   OH236221   4.572   4.022   2.475
12093TIP3    H136222   4.654   3.979   2.500
12093TIP3    H236223   4.524   3.954   2.426
12094TIP3   OH236224   5.982   0.912   1.277
12094TIP3    H136225   5.890   0.902   1.252
12094TIP3    H236226   6.013   0.985   1.224
12095TIP3   OH236227   2.165   5.534   4.256
12095TIP3    H136228   2.237   5.597   4.264
12095TIP3    H236229   2.086   5.589   4.257
12096TIP3   OH236230   1.905   2.758   0.820
12096TIP3    H136231   1.937   2.760   0.730
12096TIP3    H236232   1.963   2.818   0.867
12097TIP3   OH236233   3.750   4.609   3.344
12097TIP3    H136234   3.692   4.651   3.407
12097TIP3    H236235   3.834   4.603   3.389
12098TIP3   OH236236   6.332   1.301   2.553
12098TIP3    H136237   6.379   1.236   2.500
12098TIP3    H236238   6.246   1.262   2.568
12099TIP3   OH236239   3.169   0.078   3.386
12099TIP3    H136240   3.164   0.174   3.379
12099TIP3    H236241   3.091   0.053   3.435
12100TIP3   OH236242   0.835   3.481   4.102
12100TIP3    H136243   0.892   3.555   4.081
12100TIP3    H236244   0.783   3.467   4.022
12101TIP3   OH236245   0.904   1.350   6.126
12101TIP3    H136246   0.944   1.423   6.080
12101TIP3    H236247   0.928   1.273   6.074
12102TIP3   OH236248   6.229   2.767   2.943
12102TIP3    H136249   6.135   2.776   2.930
12102TIP3    H236250   6.242   2.786   3.036
12103TIP3   OH236251   0.317   1.387   6.453
12103TIP3    H136252   0.368   1.323   6.503
12103TIP3    H236253   0.228   1.353   6.454
12104TIP3   OH236254   3.317   5.199   2.521
12104TIP3    H136255   3.267   5.136   2.468
12104TIP3    H236256   3.395   5.151   2.548
12105TIP3   OH236257   7.362   4.344   0.191
12105TIP3    H136258   7.353   4.250   0.177
12105TIP3    H236259   7.394   4.352   0.281
12106TIP3   OH236260   4.267   1.760   4.099
12106TIP3    H136261   4.284   1.695   4.032
12106TIP3    H236262   4.181   1.796   4.076
12107TIP3   OH236263   2.010   3.531   6.116
12107TIP3    H136264   2.090   3.531   6.063
12107TIP3    H236265   2.012   3.448   6.164
12108TIP3   OH236266   6.592   3.840   0.785
12108TIP3    H136267   6.628   3.790   0.858
12108TIP3    H236268   6.560   3.921   0.824
12109TIP3   OH236269   4.340   2.924   2.414
12109TIP3    H136270   4.318   2.886   2.328
12109TIP3    H236271   4.256   2.929   2.460
12110TIP3   OH236272   3.115   5.700   2.544
12110TIP3    H136273   3.211   5.690   2.548
12110TIP3    H236274   3.091   5.658   2.462
12111TIP3   OH236275   3.741   4.823   0.134
12111TIP3    H136276   3.653   4.817   0.172
12111TIP3    H236277   3.735   4.894   0.070
12112TIP3   OH236278   5.612   3.574   0.515
12112TIP3    H136279   5.667   3.612   0.584
12112TIP3    H236280   5.674   3.554   0.444
12113TIP3   OH236281   5.385   2.309   1.954
12113TIP3    H136282   5.405   2.226   1.998
12113TIP3    H236283   5.462   2.364   1.970
12114TIP3   OH236284   8.197   6.191   4.389
12114TIP3    H136285   8.148   6.122   4.434
12114TIP3    H236286   8.211   6.157   4.301
12115TIP3   OH236287   0.300   1.887   3.197
12115TIP3    H136288   0.332   1.946   3.265
12115TIP3    H236289   0.257   1.817   3.245
12116TIP3   OH236290   0.604   2.240   3.061
12116TIP3    H136291   0.670   2.187   3.105
12116TIP3    H236292   0.582   2.189   2.983
12117TIP3   OH236293   7.729   2.637   0.509
12117TIP3    H136294   7.645   2.644   0.555
12117TIP3    H236295   7.777   2.570   0.557
12118TIP3   OH236296   6.812   3.576   1.266
12118TIP3    H136297   6.859   3.585   1.349
12118TIP3    H236298   6.726   3.612   1.283
12119TIP3   OH236299   0.987   3.714   2.929
12119TIP3    H136300   0.908   3.768   2.923
12119TIP3    H236301   0.986   3.661   2.850
12120TIP3   OH236302   0.347   6.861   5.404
12120TIP3    H136303   0.438   6.876   5.380
12120TIP3    H236304   0.352   6.820   5.491
12121TIP3   OH236305   6.999   4.382   3.450
12121TIP3    H136306   7.038   4.319   3.390
12121TIP3    H236307   6.995   4.337   3.534
12122TIP3   OH236308   6.873   5.098   1.630
12122TIP3    H136309   6.851   5.103   1.723
12122TIP3    H236310   6.790   5.079   1.587
12123TIP3   OH236311   0.138   5.305   2.289
12123TIP3    H136312   0.160   5.267   2.204
12123TIP3    H236313   0.046   5.285   2.301
12124TIP3   OH236314   6.217   5.619   1.366
12124TIP3    H136315   6.203   5.694   1.308
12124TIP3    H236316   6.313   5.612   1.372
12125TIP3   OH236317   0.118   6.248   3.620
12125TIP3    H136318   0.160   6.300   3.688
12125TIP3    H236319   0.181   6.246   3.548
12126TIP3   OH236320   7.162   7.323   6.063
12126TIP3    H136321   7.222   7.372   6.120
12126TIP3    H236322   7.216   7.296   5.989
12127TIP3   OH236323   4.191   4.820   4.096
12127TIP3    H136324   4.204   4.808   4.002
12127TIP3    H236325   4.216   4.737   4.135
12128TIP3   OH236326   6.535   0.561   3.565
12128TIP3    H136327   6.480   0.628   3.524
12128TIP3    H236328   6.508   0.561   3.657
12129TIP3   OH236329   5.550   6.550   2.925
12129TIP3    H136330   5.574   6.632   2.881
12129TIP3    H236331   5.603   6.483   2.882
12130TIP3   OH236332   2.430   2.253   0.481
12130TIP3    H136333   2.494   2.209   0.537
12130TIP3    H236334   2.430   2.201   0.400
12131TIP3   OH236335   4.645   4.560   2.895
12131TIP3    H136336   4.582   4.532   2.961
12131TIP3    H236337   4.700   4.625   2.939
12132TIP3   OH236338   5.539   5.196   1.114
12132TIP3    H136339   5.460   5.203   1.060
12132TIP3    H236340   5.539   5.276   1.166
12133TIP3   OH236341   1.450   0.878   4.327
12133TIP3    H136342   1.392   0.928   4.270
12133TIP3    H236343   1.412   0.888   4.415
12134TIP3   OH236344   7.478   3.309   3.439
12134TIP3    H136345   7.534   3.231   3.444
12134TIP3    H236346   7.409   3.285   3.377
12135TIP3   OH236347   7.073   2.089   2.539
12135TIP3    H136348   7.001   2.146   2.564
12135TIP3    H236349   7.032   2.020   2.486
12136TIP3   OH236350   2.408   6.933   4.750
12136TIP3    H136351   2.345   6.951   4.821
12136TIP3    H236352   2.356   6.889   4.683
12137TIP3   OH236353   7.088   3.967   2.275
12137TIP3    H136354   7.080   4.037   2.340
12137TIP3    H236355   7.181   3.966   2.252
12138TIP3   OH236356   0.132   6.540   3.401
12138TIP3    H136357   0.053   6.496   3.370
12138TIP3    H236358   0.101   6.604   3.465
12139TIP3   OH236359   4.342   5.153   3.292
12139TIP3    H136360   4.407   5.204   3.339
12139TIP3    H236361   4.354   5.177   3.200
12140TIP3   OH236362   0.462   2.690   0.920
12140TIP3    H136363   0.457   2.686   0.825
12140TIP3    H236364   0.428   2.606   0.950
12141TIP3   OH236365   4.669   3.188   4.017
12141TIP3    H136366   4.628   3.257   3.964
12141TIP3    H236367   4.714   3.133   3.953
12142TIP3   OH236368   2.755   0.350   5.380
12142TIP3    H136369   2.726   0.367   5.470
12142TIP3    H236370   2.679   0.311   5.337
12143TIP3   OH236371   0.729   5.080   2.575
12143TIP3    H136372   0.808   5.027   2.587
12143TIP3    H236373   0.701   5.103   2.664
12144TIP3   OH236374   3.548   2.059   4.375
12144TIP3    H136375   3.633   2.071   4.419
12144TIP3    H236376   3.511   1.981   4.416
12145TIP3   OH236377   4.836   2.106   3.397
12145TIP3    H136378   4.878   2.052   3.464
12145TIP3    H236379   4.804   2.183   3.444
12146TIP3   OH236380   7.809   4.051   3.856
12146TIP3    H136381   7.820   4.011   3.770
12146TIP3    H236382   7.871   4.125   3.856
12147TIP3   OH236383   0.111   3.996   5.369
12147TIP3    H136384   0.098   3.912   5.413
12147TIP3    H236385   0.179   3.977   5.303
12148TIP3   OH236386   6.754   1.884   5.485
12148TIP3    H136387   6.740   1.865   5.392
12148TIP3    H236388   6.747   1.799   5.528
12149TIP3   OH236389   7.141   0.185   2.124
12149TIP3    H136390   7.104   0.230   2.048
12149TIP3    H236391   7.144   0.093   2.098
12150TIP3   OH236392   5.770   7.502   5.887
12150TIP3    H136393   5.801   7.546   5.966
12150TIP3    H236394   5.674   7.503   5.896
12151TIP3   OH236395   6.686   4.478   3.682
12151TIP3    H136396   6.773   4.440   3.691
12151TIP3    H236397   6.629   4.402   3.667
12152TIP3   OH236398   7.582   2.648   5.933
12152TIP3    H136399   7.493   2.659   5.899
12152TIP3    H236400   7.579   2.687   6.021
12153TIP3   OH236401   7.044   5.086   4.656
12153TIP3    H136402   7.120   5.066   4.602
12153TIP3    H236403   7.077   5.085   4.746
12154TIP3   OH236404   7.199   1.436   3.478
12154TIP3    H136405   7.289   1.424   3.446
12154TIP3    H236406   7.190   1.531   3.488
12155TIP3   OH236407   5.988   4.175   2.026
12155TIP3    H136408   5.988   4.232   2.103
12155TIP3    H236409   6.080   4.150   2.015
12156TIP3   OH236410   2.920   5.679   6.317
12156TIP3    H136411   2.916   5.606   6.379
12156TIP3    H236412   2.948   5.754   6.370
12157TIP3   OH236413   1.017   1.892   5.834
12157TIP3    H136414   0.991   1.886   5.742
12157TIP3    H236415   1.112   1.904   5.831
12158TIP3   OH236416   7.168   2.450   3.471
12158TIP3    H136417   7.117   2.434   3.391
12158TIP3    H236418   7.111   2.422   3.542
12159TIP3   OH236419   3.987   0.420   1.989
12159TIP3    H136420   4.037   0.338   1.980
12159TIP3    H236421   4.037   0.484   1.939
12160TIP3   OH236422   2.182   1.577   5.320
12160TIP3    H136423   2.232   1.512   5.270
12160TIP3    H236424   2.240   1.653   5.324
12161TIP3   OH236425   6.917   4.726   6.284
12161TIP3    H136426   6.938   4.703   6.375
12161TIP3    H236427   6.851   4.796   6.292
12162TIP3   OH236428   3.619   7.398   1.450
12162TIP3    H136429   3.598   7.457   1.378
12162TIP3    H236430   3.649   7.318   1.408
12163TIP3   OH236431   0.818   0.254   2.791
12163TIP3    H136432   0.876   0.204   2.734
12163TIP3    H236433   0.865   0.261   2.874
12164TIP3   OH236434   5.868   4.157   3.642
12164TIP3    H136435   5.897   4.235   3.594
12164TIP3    H236436   5.800   4.119   3.586
12165TIP3   OH236437   1.228   1.003   2.427
12165TIP3    H136438   1.165   0.952   2.375
12165TIP3    H236439   1.302   0.943   2.440
12166TIP3   OH236440   7.035   5.985   2.047
12166TIP3    H136441   6.964   5.921   2.051
12166TIP3    H236442   7.112   5.938   2.081
12167TIP3   OH236443   3.380   6.843   1.954
12167TIP3    H136444   3.411   6.752   1.957
12167TIP3    H236445   3.455   6.892   1.920
12168TIP3   OH236446   7.260   6.277   5.593
12168TIP3    H136447   7.318   6.215   5.549
12168TIP3    H236448   7.187   6.288   5.532
12169TIP3   OH236449   6.804   1.002   0.199
12169TIP3    H136450   6.844   1.076   0.153
12169TIP3    H236451   6.790   1.034   0.288
12170TIP3   OH236452   7.988   1.162   5.412
12170TIP3    H136453   7.934   1.086   5.431
12170TIP3    H236454   8.078   1.133   5.427
12171TIP3   OH236455   4.471   7.111   3.047
12171TIP3    H136456   4.562   7.124   3.021
12171TIP3    H236457   4.424   7.097   2.965
12172TIP3   OH236458   2.466   5.214   3.982
12172TIP3    H136459   2.419   5.286   4.024
12172TIP3    H236460   2.461   5.233   3.888
12173TIP3   OH236461   2.077   0.417   0.969
12173TIP3    H136462   2.050   0.456   0.886
12173TIP3    H236463   2.173   0.424   0.970
12174TIP3   OH236464   8.057   2.372   1.457
12174TIP3    H136465   8.102   2.298   1.497
12174TIP3    H236466   7.987   2.333   1.405
12175TIP3   OH236467   6.341   7.092   5.239
12175TIP3    H136468   6.340   7.044   5.156
12175TIP3    H236469   6.249   7.097   5.265
12176TIP3   OH236470   3.497   5.253   0.646
12176TIP3    H136471   3.479   5.331   0.698
12176TIP3    H236472   3.529   5.287   0.563
12177TIP3   OH236473   2.227   2.782   3.311
12177TIP3    H136474   2.139   2.745   3.318
12177TIP3    H236475   2.258   2.785   3.402
12178TIP3   OH236476   7.354   5.690   0.258
12178TIP3    H136477   7.423   5.666   0.320
12178TIP3    H236478   7.286   5.624   0.269
12179TIP3   OH236479   4.104   2.003   3.795
12179TIP3    H136480   4.191   1.964   3.795
12179TIP3    H236481   4.051   1.943   3.849
12180TIP3   OH236482   0.572   5.274   3.169
12180TIP3    H136483   0.571   5.179   3.177
12180TIP3    H236484   0.542   5.306   3.254
12181TIP3   OH236485   1.114   0.928   6.090
12181TIP3    H136486   1.051   0.999   6.084
12181TIP3    H236487   1.200   0.971   6.081
12182TIP3   OH236488   8.024   4.313   1.410
12182TIP3    H136489   7.981   4.292   1.327
12182TIP3    H236490   8.105   4.357   1.386
12183TIP3   OH236491   6.049   4.593   1.337
12183TIP3    H136492   6.009   4.510   1.309
12183TIP3    H236493   6.038   4.651   1.262
12184TIP3   OH236494   6.653   2.327   2.707
12184TIP3    H136495   6.606   2.397   2.752
12184TIP3    H236496   6.603   2.311   2.627
12185TIP3   OH236497   6.742   6.645   1.751
12185TIP3    H136498   6.718   6.592   1.675
12185TIP3    H236499   6.752   6.581   1.822
12186TIP3   OH236500   1.208   3.054  -0.030
12186TIP3    H136501   1.259   3.100   0.036
12186TIP3    H236502   1.188   2.970   0.010
12187TIP3   OH236503   4.147   5.942   4.096
12187TIP3    H136504   4.168   5.867   4.041
12187TIP3    H236505   4.191   6.016   4.054
12188TIP3   OH236506   7.460   7.243   2.626
12188TIP3    H136507   7.454   7.335   2.654
12188TIP3    H236508   7.408   7.195   2.690
12189TIP3   OH236509   7.644   2.950   2.873
12189TIP3    H136510   7.609   2.865   2.845
12189TIP3    H236511   7.628   2.952   2.967
12190TIP3   OH236512   0.217   1.484   2.954
12190TIP3    H136513   0.208   1.392   2.978
12190TIP3    H236514   0.309   1.493   2.930
12191TIP3   OH236515   8.029   1.844   2.948
12191TIP3    H136516   8.098   1.909   2.955
12191TIP3    H236517   7.974   1.860   3.025
12192TIP3   OH236518   5.623   6.835   3.123
12192TIP3    H136519   5.639   6.752   3.168
12192TIP3    H236520   5.644   6.817   3.031
12193TIP3   OH236521   3.414   3.464   5.667
12193TIP3    H136522   3.468   3.534   5.704
12193TIP3    H236523   3.360   3.507   5.602
12194TIP3   OH236524   3.308   2.677   3.850
12194TIP3    H136525   3.356   2.605   3.891
12194TIP3    H236526   3.251   2.634   3.786
12195TIP3   OH236527   3.703   0.143   2.972
12195TIP3    H136528   3.665   0.229   2.954
12195TIP3    H236529   3.766   0.158   3.042
12196TIP3   OH236530   1.422   4.500   1.539
12196TIP3    H136531   1.408   4.509   1.633
12196TIP3    H236532   1.467   4.582   1.513
12197TIP3   OH236533   5.700   1.108   0.445
12197TIP3    H136534   5.717   1.197   0.476
12197TIP3    H236535   5.606   1.095   0.461
12198TIP3   OH236536   4.721   5.168   3.655
12198TIP3    H136537   4.803   5.141   3.697
12198TIP3    H236538   4.658   5.099   3.677
12199TIP3   OH236539   0.624   5.208   1.405
12199TIP3    H136540   0.580   5.230   1.488
12199TIP3    H236541   0.636   5.292   1.362
12200TIP3   OH236542   5.205   4.309   0.274
12200TIP3    H136543   5.130   4.340   0.223
12200TIP3    H236544   5.217   4.376   0.341
12201TIP3   OH236545   5.280   3.501   1.646
12201TIP3    H136546   5.350   3.565   1.637
12201TIP3    H236547   5.203   3.553   1.671
12202TIP3   OH236548   0.350   6.762   2.495
12202TIP3    H136549   0.400   6.836   2.462
12202TIP3    H236550   0.405   6.685   2.478
12203TIP3   OH236551   4.563   4.798   4.359
12203TIP3    H136552   4.532   4.739   4.290
12203TIP3    H236553   4.654   4.772   4.374
12204TIP3   OH236554   2.065   7.336   6.600
12204TIP3    H136555   2.084   7.315   6.508
12204TIP3    H236556   2.142   7.383   6.631
12205TIP3   OH236557   6.143   1.139   4.444
12205TIP3    H136558   6.202   1.089   4.501
12205TIP3    H236559   6.118   1.077   4.375
12206TIP3   OH236560   6.590   2.277   4.883
12206TIP3    H136561   6.616   2.326   4.961
12206TIP3    H236562   6.503   2.242   4.903
12207TIP3   OH236563   0.447   1.248   3.129
12207TIP3    H136564   0.393   1.242   3.050
12207TIP3    H236565   0.533   1.218   3.101
12208TIP3   OH236566   2.751   7.155   3.989
12208TIP3    H136567   2.732   7.248   4.001
12208TIP3    H236568   2.693   7.127   3.918
12209TIP3   OH236569   0.291   5.231   3.510
12209TIP3    H136570   0.196   5.242   3.509
12209TIP3    H236571   0.321   5.284   3.584
12210TIP3   OH236572   2.159   0.088   0.907
12210TIP3    H136573   2.215   0.160   0.877
12210TIP3    H236574   2.141   0.109   0.999
12211TIP3   OH236575   2.989   1.190   2.355
12211TIP3    H136576   2.997   1.203   2.449
12211TIP3    H236577   2.919   1.125   2.346
12212TIP3   OH236578   5.599   7.670   5.404
12212TIP3    H136579   5.579   7.637   5.492
12212TIP3    H236580   5.551   7.753   5.398
12213TIP3   OH236581   4.386   1.338   5.718
12213TIP3    H136582   4.469   1.295   5.740
12213TIP3    H236583   4.332   1.327   5.796
12214TIP3   OH236584   3.139   0.943   3.389
12214TIP3    H136585   3.107   0.895   3.466
12214TIP3    H236586   3.065   0.943   3.329
12215TIP3   OH236587   6.979   7.703   4.113
12215TIP3    H136588   6.892   7.714   4.075
12215TIP3    H236589   7.036   7.758   4.059
12216TIP3   OH236590   0.837   6.170   1.040
12216TIP3    H136591   0.924   6.207   1.054
12216TIP3    H236592   0.802   6.220   0.965
12217TIP3   OH236593   6.143   6.443   4.987
12217TIP3    H136594   6.116   6.512   5.048
12217TIP3    H236595   6.216   6.481   4.938
12218TIP3   OH236596   5.390   3.458   2.313
12218TIP3    H136597   5.300   3.431   2.333
12218TIP3    H236598   5.426   3.385   2.263
12219TIP3   OH236599   0.888   0.942   0.274
12219TIP3    H136600   0.947   0.868   0.288
12219TIP3    H236601   0.800   0.904   0.284
12220TIP3   OH236602   5.807   6.434   0.927
12220TIP3    H136603   5.758   6.420   0.846
12220TIP3    H236604   5.771   6.516   0.962
12221TIP3   OH236605   1.581   0.590   1.487
12221TIP3    H136606   1.662   0.593   1.435
12221TIP3    H236607   1.593   0.516   1.546
12222TIP3   OH236608   1.908   4.238   2.375
12222TIP3    H136609   1.962   4.188   2.436
12222TIP3    H236610   1.841   4.176   2.347
12223TIP3   OH236611   3.911   1.775   2.714
12223TIP3    H136612   3.856   1.705   2.678
12223TIP3    H236613   3.899   1.848   2.655
12224TIP3   OH236614   0.084   1.066   3.659
12224TIP3    H136615   0.090   1.157   3.687
12224TIP3    H236616   0.093   1.070   3.564
12225TIP3   OH236617   0.899   2.445   3.099
12225TIP3    H136618   0.805   2.466   3.096
12225TIP3    H236619   0.917   2.433   3.192
12226TIP3   OH236620   5.731   6.420  -0.014
12226TIP3    H136621   5.744   6.476   0.063
12226TIP3    H236622   5.816   6.378  -0.028
12227TIP3   OH236623   7.561   7.607   4.059
12227TIP3    H136624   7.577   7.663   3.983
12227TIP3    H236625   7.633   7.625   4.119
12228TIP3   OH236626   2.996   4.134   5.624
12228TIP3    H136627   2.904   4.131   5.651
12228TIP3    H236628   3.040   4.069   5.678
12229TIP3   OH236629   5.413   4.951   5.069
12229TIP3    H136630   5.454   4.871   5.035
12229TIP3    H236631   5.372   4.924   5.151
12230TIP3   OH236632   8.271   5.921   0.166
12230TIP3    H136633   8.177   5.929   0.151
12230TIP3    H236634   8.279   5.911   0.261
12231TIP3   OH236635   7.773   4.679   6.731
12231TIP3    H136636   7.765   4.613   6.662
12231TIP3    H236637   7.729   4.756   6.696
12232TIP3   OH236638   4.758   0.003   4.967
12232TIP3    H136639   4.709   0.055   4.903
12232TIP3    H236640   4.780   0.064   5.037
12233TIP3   OH236641   3.454   3.434   1.369
12233TIP3    H136642   3.529   3.379   1.391
12233TIP3    H236643   3.436   3.482   1.450
12234TIP3   OH236644   3.004   6.261   4.252
12234TIP3    H136645   2.928   6.242   4.308
12234TIP3    H236646   2.991   6.206   4.175
12235TIP3   OH236647   7.691   3.193   2.788
12235TIP3    H136648   7.650   3.223   2.708
12235TIP3    H236649   7.674   3.098   2.790
12236TIP3   OH236650   6.821   4.562   3.355
12236TIP3    H136651   6.843   4.615   3.431
12236TIP3    H236652   6.890   4.495   3.352
12237TIP3   OH236653   2.570   0.453   4.691
12237TIP3    H136654   2.524   0.427   4.771
12237TIP3    H236655   2.552   0.547   4.682
12238TIP3   OH236656   2.955   0.889   5.680
12238TIP3    H136657   2.905   0.808   5.692
12238TIP3    H236658   2.889   0.957   5.665
12239TIP3   OH236659   5.303   1.348  -0.011
12239TIP3    H136660   5.353   1.276   0.028
12239TIP3    H236661   5.282   1.405   0.064
12240TIP3   OH236662   7.706   1.024   4.747
12240TIP3    H136663   7.653   0.946   4.760
12240TIP3    H236664   7.797   0.994   4.756
12241TIP3   OH236665   4.177   5.952   5.917
12241TIP3    H136666   4.137   5.884   5.863
12241TIP3    H236667   4.156   5.927   6.007
12242TIP3   OH236668   7.778   2.198   5.478
12242TIP3    H136669   7.832   2.229   5.550
12242TIP3    H236670   7.738   2.117   5.511
12243TIP3   OH236671   0.745   0.144   4.566
12243TIP3    H136672   0.837   0.125   4.548
12243TIP3    H236673   0.698   0.068   4.532
12244TIP3   OH236674   0.008   5.274   5.836
12244TIP3    H136675   0.062   5.342   5.877
12244TIP3    H236676   0.043   5.265   5.747
12245TIP3   OH236677   0.175   5.893   5.853
12245TIP3    H136678   0.230   5.868   5.779
12245TIP3    H236679   0.205   5.839   5.926
12246TIP3   OH236680   7.844   1.472   1.054
12246TIP3    H136681   7.915   1.534   1.069
12246TIP3    H236682   7.885   1.386   1.057
12247TIP3   OH236683   4.052   6.039   2.255
12247TIP3    H136684   4.091   6.085   2.330
12247TIP3    H236685   4.059   5.946   2.278
12248TIP3   OH236686   7.531   5.098   3.825
12248TIP3    H136687   7.534   5.140   3.911
12248TIP3    H236688   7.618   5.112   3.788
12249TIP3   OH236689   6.446   7.723   0.129
12249TIP3    H136690   6.427   7.786   0.199
12249TIP3    H236691   6.365   7.721   0.077
12250TIP3   OH236692   5.137   0.659   3.743
12250TIP3    H136693   5.082   0.585   3.768
12250TIP3    H236694   5.099   0.734   3.787
12251TIP3   OH236695   7.578   6.831   4.401
12251TIP3    H136696   7.634   6.875   4.336
12251TIP3    H236697   7.640   6.793   4.463
12252TIP3   OH236698   3.282   7.781   0.109
12252TIP3    H136699   3.261   7.701   0.060
12252TIP3    H236700   3.249   7.764   0.197
12253TIP3   OH236701   7.835   1.382   4.906
12253TIP3    H136702   7.836   1.418   4.818
12253TIP3    H236703   7.755   1.330   4.910
12254TIP3   OH236704   0.902   2.703   5.708
12254TIP3    H136705   0.938   2.767   5.770
12254TIP3    H236706   0.872   2.630   5.763
12255TIP3   OH236707   0.799   6.878   3.928
12255TIP3    H136708   0.746   6.915   3.858
12255TIP3    H236709   0.799   6.945   3.996
12256TIP3   OH236710   6.128   7.566   1.827
12256TIP3    H136711   6.143   7.506   1.900
12256TIP3    H236712   6.035   7.555   1.806
12257TIP3   OH236713   7.952   3.052   0.321
12257TIP3    H136714   8.039   3.087   0.301
12257TIP3    H236715   7.960   3.017   0.410
12258TIP3   OH236716   3.447   4.694   0.025
12258TIP3    H136717   3.475   4.627   0.088
12258TIP3    H236718   3.445   4.775   0.076
12259TIP3   OH236719   4.866   5.890   1.983
12259TIP3    H136720   4.875   5.825   1.913
12259TIP3    H236721   4.773   5.913   1.982
12260TIP3   OH236722   5.214   1.722   3.747
12260TIP3    H136723   5.125   1.713   3.779
12260TIP3    H236724   5.204   1.756   3.658
12261TIP3   OH236725   0.172   3.267   4.294
12261TIP3    H136726   0.197   3.336   4.232
12261TIP3    H236727   0.130   3.313   4.366
12262TIP3   OH236728   0.930   7.554   1.019
12262TIP3    H136729   1.010   7.508   0.994
12262TIP3    H236730   0.954   7.646   1.017
12263TIP3   OH236731   4.968   2.412   2.612
12263TIP3    H136732   4.879   2.422   2.646
12263TIP3    H236733   4.964   2.332   2.559
12264TIP3   OH236734   7.936   2.661   1.132
12264TIP3    H136735   7.946   2.753   1.155
12264TIP3    H236736   7.923   2.661   1.037
12265TIP3   OH236737   6.527   3.125   5.192
12265TIP3    H136738   6.504   3.101   5.282
12265TIP3    H236739   6.469   3.198   5.171
12266TIP3   OH236740   2.041   2.128   0.151
12266TIP3    H136741   1.985   2.093   0.081
12266TIP3    H236742   2.121   2.154   0.105
12267TIP3   OH236743   0.162   1.475   6.091
12267TIP3    H136744   0.216   1.552   6.070
12267TIP3    H236745   0.222   1.401   6.081
12268TIP3   OH236746   3.083   0.502   2.530
12268TIP3    H136747   3.162   0.501   2.584
12268TIP3    H236748   3.014   0.530   2.591
12269TIP3   OH236749   0.182   4.333   0.182
12269TIP3    H136750   0.164   4.377   0.265
12269TIP3    H236751   0.128   4.378   0.118
12270TIP3   OH236752   7.341   2.150   6.007
12270TIP3    H136753   7.389   2.220   6.052
12270TIP3    H236754   7.249   2.173   6.020
12271TIP3   OH236755   2.611   4.064   5.284
12271TIP3    H136756   2.573   4.047   5.370
12271TIP3    H236757   2.536   4.064   5.224
12272TIP3   OH236758   3.167   1.095   3.077
12272TIP3    H136759   3.111   1.167   3.106
12272TIP3    H236760   3.118   1.053   3.006
12273TIP3   OH236761   3.806   5.192   1.465
12273TIP3    H136762   3.890   5.158   1.435
12273TIP3    H236763   3.756   5.207   1.385
12274TIP3   OH236764   7.919   7.422   6.338
12274TIP3    H136765   8.010   7.447   6.324
12274TIP3    H236766   7.909   7.341   6.287
12275TIP3   OH236767   5.418   3.224   4.832
12275TIP3    H136768   5.389   3.223   4.923
12275TIP3    H236769   5.510   3.251   4.837
12276TIP3   OH236770   3.667   6.125   4.728
12276TIP3    H136771   3.648   6.212   4.762
12276TIP3    H236772   3.759   6.129   4.700
12277TIP3   OH236773   6.296   0.697   4.703
12277TIP3    H136774   6.315   0.605   4.682
12277TIP3    H236775   6.260   0.693   4.792
12278TIP3   OH236776   6.533   1.541   4.567
12278TIP3    H136777   6.471   1.469   4.564
12278TIP3    H236778   6.619   1.501   4.550
12279TIP3   OH236779   2.688   6.527   5.164
12279TIP3    H136780   2.691   6.432   5.156
12279TIP3    H236781   2.658   6.558   5.078
12280TIP3   OH236782   0.345   6.448   2.276
12280TIP3    H136783   0.302   6.524   2.237
12280TIP3    H236784   0.407   6.419   2.208
12281TIP3   OH236785   0.760   3.402   6.398
12281TIP3    H136786   0.831   3.338   6.398
12281TIP3    H236787   0.789   3.470   6.459
12282TIP3   OH236788   3.141   1.229   3.428
12282TIP3    H136789   3.172   1.138   3.427
12282TIP3    H236790   3.095   1.239   3.344
12283TIP3   OH236791   6.374   3.785   0.558
12283TIP3    H136792   6.442   3.746   0.612
12283TIP3    H236793   6.420   3.848   0.502
12284TIP3   OH236794   3.906   6.748   6.505
12284TIP3    H136795   3.816   6.762   6.534
12284TIP3    H236796   3.921   6.655   6.519
12285TIP3   OH236797   0.109   5.104   0.777
12285TIP3    H136798   0.128   5.014   0.803
12285TIP3    H236799   0.059   5.095   0.696
12286TIP3   OH236800   6.844   5.920   4.795
12286TIP3    H136801   6.852   5.974   4.717
12286TIP3    H236802   6.933   5.911   4.828
12287TIP3   OH236803   1.986   7.373   3.321
12287TIP3    H136804   1.955   7.402   3.235
12287TIP3    H236805   1.991   7.454   3.373
12288TIP3   OH236806   1.823   1.577   4.295
12288TIP3    H136807   1.889   1.642   4.271
12288TIP3    H236808   1.775   1.561   4.213
12289TIP3   OH236809   3.236   0.038   0.220
12289TIP3    H136810   3.187   0.044   0.138
12289TIP3    H236811   3.168   0.028   0.287
12290TIP3   OH236812   0.968   6.826   2.339
12290TIP3    H136813   0.994   6.850   2.428
12290TIP3    H236814   0.918   6.745   2.349
12291TIP3   OH236815   0.648   2.040   6.116
12291TIP3    H136816   0.615   1.955   6.087
12291TIP3    H236817   0.630   2.042   6.210
12292TIP3   OH236818   1.438   6.973   5.198
12292TIP3    H136819   1.356   6.924   5.204
12292TIP3    H236820   1.464   6.964   5.106
12293TIP3   OH236821   1.977   2.371   3.232
12293TIP3    H136822   1.973   2.318   3.311
12293TIP3    H236823   1.996   2.308   3.162
12294TIP3   OH236824   1.768   4.441   4.571
12294TIP3    H136825   1.768   4.345   4.571
12294TIP3    H236826   1.699   4.465   4.633
12295TIP3   OH236827   2.977   7.443   1.206
12295TIP3    H136828   2.889   7.410   1.188
12295TIP3    H236829   2.964   7.512   1.271
12296TIP3   OH236830   7.088   3.273   0.375
12296TIP3    H136831   7.005   3.234   0.403
12296TIP3    H236832   7.109   3.337   0.442
12297TIP3   OH236833   0.734   4.430   1.289
12297TIP3    H136834   0.790   4.361   1.253
12297TIP3    H236835   0.657   4.384   1.321
12298TIP3   OH236836   1.085   5.386   2.061
12298TIP3    H136837   1.155   5.410   2.121
12298TIP3    H236838   1.126   5.387   1.974
12299TIP3   OH236839   3.301   4.793   6.265
12299TIP3    H136840   3.285   4.730   6.336
12299TIP3    H236841   3.213   4.814   6.232
12300TIP3   OH236842   7.238   1.109   0.055
12300TIP3    H136843   7.311   1.092   0.114
12300TIP3    H236844   7.257   1.195   0.017
12301TIP3   OH236845   2.171   2.406   6.266
12301TIP3    H136846   2.220   2.335   6.223
12301TIP3    H236847   2.128   2.363   6.340
12302TIP3   OH236848   7.870   3.692   4.187
12302TIP3    H136849   7.794   3.637   4.209
12302TIP3    H236850   7.884   3.678   4.094
12303TIP3   OH236851   5.714   6.200   3.882
12303TIP3    H136852   5.757   6.129   3.835
12303TIP3    H236853   5.646   6.157   3.935
12304TIP3   OH236854   2.991   4.520   1.459
12304TIP3    H136855   2.978   4.583   1.388
12304TIP3    H236856   2.962   4.437   1.422
12305TIP3   OH236857   0.967   4.352   5.987
12305TIP3    H136858   0.979   4.265   6.027
12305TIP3    H236859   0.883   4.346   5.942
12306TIP3   OH236860   7.071   3.417   2.893
12306TIP3    H136861   7.138   3.431   2.959
12306TIP3    H236862   7.054   3.504   2.858
12307TIP3   OH236863   2.884   2.898   0.186
12307TIP3    H136864   2.794   2.876   0.211
12307TIP3    H236865   2.919   2.818   0.147
12308TIP3   OH236866   6.002   3.224   5.036
12308TIP3    H136867   5.950   3.276   4.975
12308TIP3    H236868   6.037   3.288   5.099
12309TIP3   OH236869   0.886   3.600   5.278
12309TIP3    H136870   0.822   3.545   5.231
12309TIP3    H236871   0.851   3.689   5.270
12310TIP3   OH236872   0.904   4.839   2.422
12310TIP3    H136873   0.897   4.755   2.377
12310TIP3    H236874   0.975   4.885   2.376
12311TIP3   OH236875   3.909   0.467   0.150
12311TIP3    H136876   3.886   0.375   0.164
12311TIP3    H236877   4.000   0.473   0.178
12312TIP3   OH236878   3.183   6.243   4.463
12312TIP3    H136879   3.127   6.260   4.386
12312TIP3    H236880   3.142   6.292   4.534
12313TIP3   OH236881   0.659   1.524   6.476
12313TIP3    H136882   0.748   1.489   6.479
12313TIP3    H236883   0.621   1.487   6.396
12314TIP3   OH236884   0.333   3.741   2.722
12314TIP3    H136885   0.318   3.665   2.778
12314TIP3    H236886   0.392   3.709   2.653
12315TIP3   OH236887   1.054   5.319   5.716
12315TIP3    H136888   0.971   5.327   5.669
12315TIP3    H236889   1.089   5.234   5.689
12316TIP3   OH236890   1.390   0.673   2.674
12316TIP3    H136891   1.318   0.609   2.676
12316TIP3    H236892   1.469   0.620   2.662
12317TIP3   OH236893   1.996   5.906   0.030
12317TIP3    H136894   1.931   5.931   0.096
12317TIP3    H236895   2.062   5.857   0.079
12318TIP3   OH236896   5.371   4.829   4.464
12318TIP3    H136897   5.363   4.749   4.411
12318TIP3    H236898   5.443   4.877   4.424
12319TIP3   OH236899   1.598   4.447   2.205
12319TIP3    H136900   1.591   4.364   2.253
12319TIP3    H236901   1.692   4.462   2.197
12320TIP3   OH236902   0.257   5.093   4.698
12320TIP3    H136903   0.222   5.152   4.632
12320TIP3    H236904   0.349   5.083   4.674
12321TIP3   OH236905   6.920   3.290   1.442
12321TIP3    H136906   6.870   3.308   1.362
12321TIP3    H236907   6.949   3.377   1.472
12322TIP3   OH236908   7.027   2.147   0.547
12322TIP3    H136909   7.095   2.156   0.481
12322TIP3    H236910   6.953   2.197   0.512
12323TIP3   OH236911   6.137   7.030   1.731
12323TIP3    H136912   6.067   6.979   1.772
12323TIP3    H236913   6.121   7.023   1.637
12324TIP3   OH236914   2.015   3.426   2.613
12324TIP3    H136915   2.034   3.379   2.532
12324TIP3    H236916   2.070   3.382   2.679
12325TIP3   OH236917   7.918   5.572   2.661
12325TIP3    H136918   7.916   5.651   2.607
12325TIP3    H236919   8.004   5.534   2.645
12326TIP3   OH236920   5.530   7.201   0.020
12326TIP3    H136921   5.467   7.256  -0.026
12326TIP3    H236922   5.483   7.120   0.039
12327TIP3   OH236923   0.505   7.490   5.867
12327TIP3    H136924   0.508   7.400   5.836
12327TIP3    H236925   0.464   7.484   5.953
12328TIP3   OH236926   1.823   2.324   0.809
12328TIP3    H136927   1.905   2.372   0.794
12328TIP3    H236928   1.850   2.232   0.814
12329TIP3   OH236929   5.692   2.763   4.716
12329TIP3    H136930   5.607   2.729   4.688
12329TIP3    H236931   5.753   2.729   4.652
12330TIP3   OH236932   1.028   5.070   3.988
12330TIP3    H136933   1.077   5.050   3.908
12330TIP3    H236934   0.997   5.159   3.975
12331TIP3   OH236935   0.318   1.838   3.882
12331TIP3    H136936   0.275   1.880   3.956
12331TIP3    H236937   0.252   1.777   3.847
12332TIP3   OH236938   4.255   7.583   4.974
12332TIP3    H136939   4.231   7.650   5.038
12332TIP3    H236940   4.223   7.501   5.012
12333TIP3   OH236941   1.749   7.406   1.172
12333TIP3    H136942   1.821   7.343   1.175
12333TIP3    H236943   1.675   7.358   1.136
12334TIP3   OH236944   3.271   4.163   4.626
12334TIP3    H136945   3.322   4.241   4.606
12334TIP3    H236946   3.334   4.103   4.666
12335TIP3   OH236947   3.817   4.152   0.463
12335TIP3    H136948   3.875   4.220   0.431
12335TIP3    H236949   3.869   4.072   0.459
12336TIP3   OH236950   7.249   5.482   5.337
12336TIP3    H136951   7.284   5.571   5.346
12336TIP3    H236952   7.291   5.448   5.258
12337TIP3   OH236953   2.372   0.004   0.694
12337TIP3    H136954   2.385  -0.088   0.717
12337TIP3    H236955   2.335   0.044   0.772
12338TIP3   OH236956   7.918   7.175   6.226
12338TIP3    H136957   7.889   7.111   6.291
12338TIP3    H236958   7.890   7.138   6.142
12339TIP3   OH236959   4.771   7.571   2.897
12339TIP3    H136960   4.694   7.616   2.863
12339TIP3    H236961   4.739   7.524   2.974
12340TIP3   OH236962   5.088   2.275   5.325
12340TIP3    H136963   5.076   2.297   5.417
12340TIP3    H236964   5.146   2.342   5.291
12341TIP3   OH236965   0.923   0.644   5.455
12341TIP3    H136966   0.890   0.659   5.544
12341TIP3    H236967   0.924   0.731   5.415
12342TIP3   OH236968   4.411   0.221   1.090
12342TIP3    H136969   4.466   0.157   1.135
12342TIP3    H236970   4.443   0.306   1.121
12343TIP3   OH236971   4.408   0.855   2.326
12343TIP3    H136972   4.404   0.934   2.271
12343TIP3    H236973   4.474   0.800   2.284
12344TIP3   OH236974   5.955   5.142   5.060
12344TIP3    H136975   5.861   5.131   5.078
12344TIP3    H236976   5.972   5.234   5.079
12345TIP3   OH236977   1.493   6.248   3.925
12345TIP3    H136978   1.565   6.185   3.920
12345TIP3    H236979   1.437   6.228   3.850
12346TIP3   OH236980   2.456   7.098   1.026
12346TIP3    H136981   2.370   7.058   1.041
12346TIP3    H236982   2.453   7.181   1.073
12347TIP3   OH236983   2.889   0.687   4.354
12347TIP3    H136984   2.959   0.678   4.419
12347TIP3    H236985   2.890   0.780   4.331
12348TIP3   OH236986   8.249   4.493   3.460
12348TIP3    H136987   8.246   4.404   3.495
12348TIP3    H236988   8.329   4.530   3.495
12349TIP3   OH236989   0.408   7.520   3.248
12349TIP3    H136990   0.319   7.546   3.270
12349TIP3    H236991   0.404   7.491   3.157
12350TIP3   OH236992   5.918   5.877   0.623
12350TIP3    H136993   5.915   5.792   0.667
12350TIP3    H236994   5.888   5.939   0.690
12351TIP3   OH236995   4.023   1.848   4.024
12351TIP3    H136996   4.002   1.908   4.096
12351TIP3    H236997   3.948   1.789   4.020
12352TIP3   OH236998   2.082   4.438   1.612
12352TIP3    H136999   2.006   4.433   1.555
12352TIP3    H237000   2.145   4.377   1.574
12353TIP3   OH237001   4.019   0.480   3.949
12353TIP3    H137002   4.063   0.399   3.923
12353TIP3    H237003   3.926   0.458   3.946
12354TIP3   OH237004   2.790   0.616   0.315
12354TIP3    H137005   2.759   0.701   0.347
12354TIP3    H237006   2.791   0.560   0.393
12355TIP3   OH237007   1.592   6.771   3.593
12355TIP3    H137008   1.579   6.777   3.688
12355TIP3    H237009   1.600   6.862   3.564
12356TIP3   OH237010   2.732   7.344   4.436
12356TIP3    H137011   2.684   7.373   4.514
12356TIP3    H237012   2.735   7.422   4.380
12357TIP3   OH237013   0.900   4.845   2.690
12357TIP3    H137014   0.941   4.929   2.714
12357TIP3    H237015   0.892   4.850   2.595
12358TIP3   OH237016   2.640   4.638   4.585
12358TIP3    H137017   2.591   4.687   4.650
12358TIP3    H237018   2.684   4.569   4.634
12359TIP3   OH237019   4.488   2.451   6.213
12359TIP3    H137020   4.438   2.369   6.221
12359TIP3    H237021   4.483   2.473   6.120
12360TIP3   OH237022   6.770   4.403   4.894
12360TIP3    H137023   6.794   4.494   4.877
12360TIP3    H237024   6.798   4.387   4.984
12361TIP3   OH237025   3.893   5.214   0.818
12361TIP3    H137026   3.810   5.218   0.866
12361TIP3    H237027   3.919   5.122   0.824
12362TIP3   OH237028   7.446   2.427   3.456
12362TIP3    H137029   7.351   2.437   3.459
12362TIP3    H237030   7.461   2.333   3.459
12363TIP3   OH237031   5.809   0.703   0.044
12363TIP3    H137032   5.849   0.622   0.013
12363TIP3    H237033   5.715   0.691   0.027
12364TIP3   OH237034   1.969   0.598   5.867
12364TIP3    H137035   2.042   0.628   5.813
12364TIP3    H237036   1.892   0.604   5.809
12365TIP3   OH237037   0.993   3.260   6.385
12365TIP3    H137038   1.082   3.264   6.419
12365TIP3    H237039   0.996   3.195   6.316
12366TIP3   OH237040   6.835   6.565   5.983
12366TIP3    H137041   6.833   6.637   6.047
12366TIP3    H237042   6.755   6.516   6.001
12367TIP3   OH237043   6.246   5.482   0.062
12367TIP3    H137044   6.238   5.577   0.067
12367TIP3    H237045   6.331   5.464   0.103
12368TIP3   OH237046   0.874   6.920   1.597
12368TIP3    H137047   0.893   7.002   1.644
12368TIP3    H237048   0.920   6.929   1.513
12369TIP3   OH237049   3.452   1.352   6.421
12369TIP3    H137050   3.441   1.258   6.413
12369TIP3    H237051   3.540   1.363   6.458
12370TIP3   OH237052   3.818   0.975   3.059
12370TIP3    H137053   3.907   0.963   3.026
12370TIP3    H237054   3.767   1.000   2.982
12371TIP3   OH237055   1.118   2.721   6.164
12371TIP3    H137056   1.101   2.742   6.073
12371TIP3    H237057   1.140   2.628   6.163
12372TIP3   OH237058   2.447   0.226   2.207
12372TIP3    H137059   2.487   0.156   2.260
12372TIP3    H237060   2.361   0.191   2.183
12373TIP3   OH237061   2.943   5.798   3.469
12373TIP3    H137062   3.028   5.762   3.444
12373TIP3    H237063   2.904   5.731   3.525
12374TIP3   OH237064   3.604   6.929   1.799
12374TIP3    H137065   3.639   6.876   1.727
12374TIP3    H237066   3.682   6.959   1.846
12375TIP3   OH237067   1.718   5.810   6.760
12375TIP3    H137068   1.723   5.791   6.666
12375TIP3    H237069   1.691   5.727   6.799
12376TIP3   OH237070   7.632   3.608   0.134
12376TIP3    H137071   7.570   3.535   0.146
12376TIP3    H237072   7.706   3.569   0.088
12377TIP3   OH237073   2.493   5.711   0.601
12377TIP3    H137074   2.401   5.686   0.607
12377TIP3    H237075   2.496   5.802   0.631
12378TIP3   OH237076   0.503   4.358   6.030
12378TIP3    H137077   0.434   4.335   5.967
12378TIP3    H237078   0.457   4.409   6.097
12379TIP3   OH237079   2.026   2.558   6.651
12379TIP3    H137080   2.043   2.593   6.564
12379TIP3    H237081   1.930   2.560   6.659
12380TIP3   OH237082   3.033   4.336   3.212
12380TIP3    H137083   3.069   4.365   3.296
12380TIP3    H237084   3.066   4.246   3.201
12381TIP3   OH237085   0.916   1.065   0.641
12381TIP3    H137086   0.907   1.038   0.549
12381TIP3    H237087   0.841   1.026   0.685
12382TIP3   OH237088   3.579   6.708   2.844
12382TIP3    H137089   3.553   6.660   2.923
12382TIP3    H237090   3.506   6.695   2.784
12383TIP3   OH237091   5.876   0.913   2.619
12383TIP3    H137092   5.818   0.965   2.675
12383TIP3    H237093   5.834   0.916   2.533
12384TIP3   OH237094   6.198   7.777   1.185
12384TIP3    H137095   6.105   7.766   1.209
12384TIP3    H237096   6.235   7.689   1.194
12385TIP3   OH237097   6.824   5.554   2.168
12385TIP3    H137098   6.882   5.551   2.244
12385TIP3    H237099   6.785   5.641   2.171
12386TIP3   OH237100   5.569   5.785   1.245
12386TIP3    H137101   5.600   5.864   1.200
12386TIP3    H237102   5.641   5.723   1.236
12387TIP3   OH237103   1.062   1.882   5.146
12387TIP3    H137104   1.050   1.957   5.088
12387TIP3    H237105   0.974   1.861   5.176
12388TIP3   OH237106   7.685   1.044   0.255
12388TIP3    H137107   7.711   0.966   0.207
12388TIP3    H237108   7.707   1.025   0.346
12389TIP3   OH237109   5.629   0.217   4.457
12389TIP3    H137110   5.641   0.295   4.511
12389TIP3    H237111   5.629   0.144   4.520
12390TIP3   OH237112   1.592   4.506   1.927
12390TIP3    H137113   1.590   4.524   2.021
12390TIP3    H237114   1.499   4.497   1.904
12391TIP3   OH237115   5.816   0.311   2.645
12391TIP3    H137116   5.805   0.224   2.683
12391TIP3    H237117   5.827   0.294   2.551
12392TIP3   OH237118   8.266   0.316   0.447
12392TIP3    H137119   8.274   0.303   0.352
12392TIP3    H237120   8.246   0.409   0.457
12393TIP3   OH237121   3.731   4.295   2.082
12393TIP3    H137122   3.744   4.206   2.050
12393TIP3    H237123   3.801   4.346   2.042
12394TIP3   OH237124   5.606   6.406   1.975
12394TIP3    H137125   5.695   6.407   1.939
12394TIP3    H237126   5.599   6.321   2.017
12395TIP3   OH237127   7.086   3.818   3.966
12395TIP3    H137128   7.043   3.733   3.980
12395TIP3    H237129   7.151   3.824   4.036
12396TIP3   OH237130   0.576   0.430   3.006
12396TIP3    H137131   0.646   0.426   3.071
12396TIP3    H237132   0.495   0.427   3.057
12397TIP3   OH237133   0.049   2.692   2.092
12397TIP3    H137134   0.015   2.757   2.030
12397TIP3    H237135  -0.026   2.671   2.148
12398TIP3   OH237136   8.115   0.067   1.368
12398TIP3    H137137   8.043   0.117   1.405
12398TIP3    H237138   8.083   0.040   1.282
12399TIP3   OH237139   2.622   6.803   2.366
12399TIP3    H137140   2.703   6.842   2.334
12399TIP3    H237141   2.649   6.731   2.422
12400TIP3   OH237142   2.315   7.478   6.276
12400TIP3    H137143   2.301   7.386   6.253
12400TIP3    H237144   2.229   7.510   6.302
12401TIP3   OH237145   3.511   5.661   1.498
12401TIP3    H137146   3.523   5.727   1.430
12401TIP3    H237147   3.417   5.644   1.499
12402TIP3   OH237148   4.702   4.111   5.449
12402TIP3    H137149   4.763   4.182   5.470
12402TIP3    H237150   4.705   4.053   5.524
12403TIP3   OH237151   5.491   5.580   1.559
12403TIP3    H137152   5.419   5.643   1.564
12403TIP3    H237153   5.539   5.594   1.641
12404TIP3   OH237154   2.743   2.637   0.917
12404TIP3    H137155   2.652   2.645   0.945
12404TIP3    H237156   2.738   2.594   0.832
12405TIP3   OH237157   3.449   2.415   3.561
12405TIP3    H137158   3.364   2.403   3.604
12405TIP3    H237159   3.504   2.345   3.596
12406TIP3   OH237160   8.027   1.617   5.328
12406TIP3    H137161   7.968   1.579   5.394
12406TIP3    H237162   7.997   1.580   5.245
12407TIP3   OH237163   1.426   0.560   0.746
12407TIP3    H137164   1.344   0.511   0.756
12407TIP3    H237165   1.416   0.634   0.806
12408TIP3   OH237166   3.770   0.588   3.485
12408TIP3    H137167   3.775   0.681   3.507
12408TIP3    H237168   3.847   0.573   3.430
12409TIP3   OH237169   2.087   6.974   4.142
12409TIP3    H137170   2.092   6.896   4.197
12409TIP3    H237171   2.016   6.956   4.081
12410TIP3   OH237172   7.670   6.842   1.103
12410TIP3    H137173   7.621   6.829   1.184
12410TIP3    H237174   7.665   6.937   1.087
12411TIP3   OH237175   1.387   4.186   5.130
12411TIP3    H137176   1.332   4.114   5.161
12411TIP3    H237177   1.415   4.159   5.043
12412TIP3   OH237178   4.750   3.602   1.134
12412TIP3    H137179   4.718   3.546   1.204
12412TIP3    H237180   4.731   3.691   1.163
12413TIP3   OH237181   6.088   5.023   1.049
12413TIP3    H137182   6.030   5.030   0.973
12413TIP3    H237183   6.092   5.112   1.084
12414TIP3   OH237184   4.285   4.697   0.613
12414TIP3    H137185   4.209   4.753   0.632
12414TIP3    H237186   4.300   4.707   0.519
12415TIP3   OH237187   3.607   0.558   0.531
12415TIP3    H137188   3.599   0.507   0.612
12415TIP3    H237189   3.544   0.518   0.472
12416TIP3   OH237190   0.208   2.972   4.355
12416TIP3    H137191   0.192   2.964   4.449
12416TIP3    H237192   0.193   3.064   4.335
12417TIP3   OH237193   4.243   3.668   5.645
12417TIP3    H137194   4.321   3.635   5.690
12417TIP3    H237195   4.182   3.690   5.715
12418TIP3   OH237196   5.519   1.832   1.500
12418TIP3    H137197   5.533   1.739   1.483
12418TIP3    H237198   5.518   1.872   1.413
12419TIP3   OH237199   4.768   4.324   6.378
12419TIP3    H137200   4.724   4.321   6.463
12419TIP3    H237201   4.744   4.241   6.336
12420TIP3   OH237202   5.012   7.267   1.110
12420TIP3    H137203   4.926   7.308   1.106
12420TIP3    H237204   5.060   7.317   1.176
12421TIP3   OH237205   7.948   2.217   3.151
12421TIP3    H137206   7.918   2.293   3.101
12421TIP3    H237207   7.965   2.251   3.239
12422TIP3   OH237208   4.066   3.815   0.175
12422TIP3    H137209   4.114   3.795   0.094
12422TIP3    H237210   3.984   3.765   0.167
12423TIP3   OH237211   3.536   3.663   2.850
12423TIP3    H137212   3.475   3.592   2.828
12423TIP3    H237213   3.548   3.655   2.945
12424TIP3   OH237214   0.532   6.887   1.198
12424TIP3    H137215   0.542   6.809   1.252
12424TIP3    H237216   0.449   6.926   1.226
12425TIP3   OH237217   6.976   1.677   3.357
12425TIP3    H137218   6.962   1.761   3.401
12425TIP3    H237219   6.942   1.690   3.269
12426TIP3   OH237220   0.874   0.840   3.390
12426TIP3    H137221   0.847   0.757   3.429
12426TIP3    H237222   0.923   0.816   3.312
12427TIP3   OH237223   0.093   7.385   0.970
12427TIP3    H137224   0.102   7.480   0.972
12427TIP3    H237225   0.160   7.356   0.908
12428TIP3   OH237226   4.131   5.682   1.063
12428TIP3    H137227   4.202   5.741   1.089
12428TIP3    H237228   4.106   5.712   0.975
12429TIP3   OH237229   4.275   7.709   2.703
12429TIP3    H137230   4.181   7.697   2.715
12429TIP3    H237231   4.313   7.622   2.718
12430TIP3   OH237232   2.464   1.047   1.944
12430TIP3    H137233   2.384   1.067   1.992
12430TIP3    H237234   2.442   0.974   1.887
12431TIP3   OH237235   3.275   0.716   1.642
12431TIP3    H137236   3.253   0.790   1.585
12431TIP3    H237237   3.329   0.755   1.711
12432TIP3   OH237238   6.620   4.030   2.464
12432TIP3    H137239   6.706   3.990   2.470
12432TIP3    H237240   6.562   3.971   2.513
12433TIP3   OH237241   5.050   7.620   0.821
12433TIP3    H137242   5.082   7.708   0.803
12433TIP3    H237243   5.064   7.609   0.915
12434TIP3   OH237244   4.741   5.607   6.537
12434TIP3    H137245   4.683   5.569   6.471
12434TIP3    H237246   4.707   5.576   6.620
12435TIP3   OH237247   6.743   3.063   6.383
12435TIP3    H137248   6.742   3.159   6.380
12435TIP3    H237249   6.654   3.037   6.360
12436TIP3   OH237250   3.654   1.507   5.419
12436TIP3    H137251   3.694   1.504   5.332
12436TIP3    H237252   3.576   1.453   5.411
12437TIP3   OH237253   2.203   6.468   4.344
12437TIP3    H137254   2.210   6.382   4.384
12437TIP3    H237255   2.273   6.519   4.385
12438TIP3   OH237256   2.754   3.423   1.165
12438TIP3    H137257   2.687   3.404   1.231
12438TIP3    H237258   2.835   3.433   1.216
12439TIP3   OH237259   2.721   2.058   1.665
12439TIP3    H137260   2.668   2.016   1.598
12439TIP3    H237261   2.697   2.151   1.659
12440TIP3   OH237262   5.240   7.848   5.486
12440TIP3    H137263   5.233   7.822   5.578
12440TIP3    H237264   5.205   7.773   5.438
12441TIP3   OH237265   0.424   5.705   3.493
12441TIP3    H137266   0.376   5.741   3.418
12441TIP3    H237267   0.405   5.767   3.564
12442TIP3   OH237268   3.442   5.887   0.681
12442TIP3    H137269   3.511   5.821   0.673
12442TIP3    H237270   3.454   5.923   0.769
12443TIP3   OH237271   4.178   0.343   4.282
12443TIP3    H137272   4.191   0.415   4.220
12443TIP3    H237273   4.087   0.315   4.268
12444TIP3   OH237274   6.201   3.652   3.070
12444TIP3    H137275   6.156   3.640   3.154
12444TIP3    H237276   6.148   3.604   3.007
12445TIP3   OH237277   6.468   7.755   6.063
12445TIP3    H137278   6.374   7.741   6.048
12445TIP3    H237279   6.509   7.734   5.980
12446TIP3   OH237280   6.182   4.314   5.244
12446TIP3    H137281   6.235   4.383   5.203
12446TIP3    H237282   6.218   4.305   5.332
12447TIP3   OH237283   6.359   5.246   2.440
12447TIP3    H137284   6.302   5.306   2.489
12447TIP3    H237285   6.446   5.283   2.450
12448TIP3   OH237286   4.180   1.542   1.537
12448TIP3    H137287   4.220   1.481   1.599
12448TIP3    H237288   4.145   1.486   1.468
12449TIP3   OH237289   1.573   7.076   6.641
12449TIP3    H137290   1.520   7.091   6.563
12449TIP3    H237291   1.658   7.050   6.607
12450TIP3   OH237292   6.646   3.197   2.889
12450TIP3    H137293   6.602   3.175   2.971
12450TIP3    H237294   6.621   3.126   2.829
12451TIP3   OH237295   2.364   4.903   0.761
12451TIP3    H137296   2.316   4.956   0.697
12451TIP3    H237297   2.386   4.822   0.713
12452TIP3   OH237298   4.727   7.273   3.430
12452TIP3    H137299   4.776   7.350   3.399
12452TIP3    H237300   4.711   7.221   3.351
12453TIP3   OH237301   8.141   5.362   2.035
12453TIP3    H137302   8.183   5.287   2.077
12453TIP3    H237303   8.185   5.438   2.073
12454TIP3   OH237304   3.541   3.763   4.652
12454TIP3    H137305   3.546   3.680   4.699
12454TIP3    H237306   3.627   3.773   4.612
12455TIP3   OH237307   1.553   5.230   4.344
12455TIP3    H137308   1.611   5.289   4.392
12455TIP3    H237309   1.607   5.154   4.323
12456TIP3   OH237310   2.182   2.273   3.030
12456TIP3    H137311   2.251   2.264   3.096
12456TIP3    H237312   2.152   2.364   3.040
12457TIP3   OH237313   8.085   1.046   0.056
12457TIP3    H137314   8.028   1.114   0.019
12457TIP3    H237315   8.152   1.094   0.104
12458TIP3   OH237316   4.015   0.518   2.430
12458TIP3    H137317   3.960   0.440   2.419
12458TIP3    H237318   3.975   0.566   2.503
12459TIP3   OH237319   7.355   0.478   1.792
12459TIP3    H137320   7.311   0.563   1.786
12459TIP3    H237321   7.392   0.476   1.880
12460TIP3   OH237322   8.117   0.807   6.604
12460TIP3    H137323   8.213   0.800   6.606
12460TIP3    H237324   8.100   0.888   6.555
12461TIP3   OH237325   6.339   2.501   6.727
12461TIP3    H137326   6.354   2.439   6.797
12461TIP3    H237327   6.421   2.502   6.678
12462TIP3   OH237328   2.576   3.833   4.547
12462TIP3    H137329   2.606   3.903   4.489
12462TIP3    H237330   2.554   3.878   4.628
12463TIP3   OH237331   1.866   0.816   1.549
12463TIP3    H137332   1.927   0.883   1.581
12463TIP3    H237333   1.786   0.865   1.529
12464TIP3   OH237334   0.606   2.005   1.943
12464TIP3    H137335   0.677   2.054   1.901
12464TIP3    H237336   0.624   2.014   2.037
12465TIP3   OH237337   4.639   1.317   6.653
12465TIP3    H137338   4.633   1.262   6.575
12465TIP3    H237339   4.554   1.306   6.696
12466TIP3   OH237340   5.034   3.907   3.378
12466TIP3    H137341   5.118   3.900   3.424
12466TIP3    H237342   4.973   3.856   3.431
12467TIP3   OH237343   6.468   4.929   3.034
12467TIP3    H137344   6.534   4.995   3.052
12467TIP3    H237345   6.442   4.896   3.120
12468TIP3   OH237346   1.049   6.758   4.725
12468TIP3    H137347   1.059   6.757   4.630
12468TIP3    H237348   1.094   6.837   4.754
12469TIP3   OH237349   6.700   6.141   1.190
12469TIP3    H137350   6.745   6.149   1.106
12469TIP3    H237351   6.607   6.143   1.168
12470TIP3   OH237352   7.463   2.681   3.892
12470TIP3    H137353   7.531   2.685   3.960
12470TIP3    H237354   7.403   2.612   3.923
12471TIP3   OH237355   7.453   4.862   6.320
12471TIP3    H137356   7.468   4.932   6.256
12471TIP3    H237357   7.409   4.793   6.271
12472TIP3   OH237358   7.063   1.712   5.361
12472TIP3    H137359   7.124   1.696   5.289
12472TIP3    H237360   7.027   1.625   5.381
12473TIP3   OH237361   3.607   4.588   1.663
12473TIP3    H137362   3.530   4.559   1.712
12473TIP3    H237363   3.579   4.588   1.572
12474TIP3   OH237364   4.222   5.941   4.365
12474TIP3    H137365   4.209   5.960   4.272
12474TIP3    H237366   4.219   5.845   4.370
12475TIP3   OH237367   0.863   5.933   6.308
12475TIP3    H137368   0.894   5.847   6.338
12475TIP3    H237369   0.845   5.921   6.215
12476TIP3   OH237370   1.158   1.744   5.662
12476TIP3    H137371   1.234   1.701   5.622
12476TIP3    H237372   1.098   1.672   5.681
12477TIP3   OH237373   4.084   2.020   4.481
12477TIP3    H137374   4.167   2.031   4.433
12477TIP3    H237375   4.104   2.049   4.570
12478TIP3   OH237376   5.697   2.049   0.257
12478TIP3    H137377   5.660   2.021   0.173
12478TIP3    H237378   5.705   2.144   0.250
12479TIP3   OH237379   0.461   1.413   2.345
12479TIP3    H137380   0.463   1.466   2.424
12479TIP3    H237381   0.398   1.457   2.288
12480TIP3   OH237382   4.303   1.592   3.118
12480TIP3    H137383   4.249   1.554   3.188
12480TIP3    H237384   4.297   1.686   3.132
12481TIP3   OH237385   8.038   7.782   0.460
12481TIP3    H137386   8.007   7.818   0.543
12481TIP3    H237387   7.984   7.705   0.446
12482TIP3   OH237388   2.190   2.781   5.256
12482TIP3    H137389   2.099   2.798   5.280
12482TIP3    H237390   2.214   2.702   5.305
12483TIP3   OH237391   2.076   5.990   5.354
12483TIP3    H137392   2.078   6.004   5.449
12483TIP3    H237393   2.108   6.072   5.317
12484TIP3   OH237394   7.256   4.512   2.389
12484TIP3    H137395   7.260   4.605   2.409
12484TIP3    H237396   7.300   4.469   2.463
12485TIP3   OH237397   8.028   1.344   0.198
12485TIP3    H137398   8.010   1.308   0.284
12485TIP3    H237399   8.123   1.332   0.187
12486TIP3   OH237400   2.817   0.232   3.012
12486TIP3    H137401   2.747   0.261   3.070
12486TIP3    H237402   2.831   0.305   2.952
12487TIP3   OH237403   5.813   4.953   4.525
12487TIP3    H137404   5.891   4.936   4.473
12487TIP3    H237405   5.846   4.995   4.605
12488TIP3   OH237406   0.791   1.786   3.072
12488TIP3    H137407   0.827   1.781   2.983
12488TIP3    H237408   0.782   1.695   3.100
12489TIP3   OH237409   8.000   1.306   5.105
12489TIP3    H137410   7.943   1.351   5.042
12489TIP3    H237411   7.943   1.291   5.181
12490TIP3   OH237412   5.334   3.799   2.129
12490TIP3    H137413   5.317   3.825   2.220
12490TIP3    H237414   5.390   3.722   2.137
12491TIP3   OH237415   8.132   2.498   6.685
12491TIP3    H137416   8.089   2.414   6.665
12491TIP3    H237417   8.063   2.563   6.676
12492TIP3   OH237418   1.923   3.714   6.617
12492TIP3    H137419   1.935   3.718   6.712
12492TIP3    H237420   1.949   3.801   6.586
12493TIP3   OH237421   4.180   0.712   1.552
12493TIP3    H137422   4.198   0.619   1.542
12493TIP3    H237423   4.090   0.716   1.584
12494TIP3   OH237424   1.404   6.980   4.590
12494TIP3    H137425   1.325   6.972   4.643
12494TIP3    H237426   1.388   7.056   4.535
12495TIP3   OH237427   5.476   7.750   5.825
12495TIP3    H137428   5.438   7.740   5.912
12495TIP3    H237429   5.402   7.775   5.769
12496TIP3   OH237430   1.069   0.057   3.351
12496TIP3    H137431   1.067  -0.038   3.340
12496TIP3    H237432   1.130   0.088   3.283
12497TIP3   OH237433   0.234   4.514   3.545
12497TIP3    H137434   0.315   4.518   3.494
12497TIP3    H237435   0.229   4.423   3.574
12498TIP3   OH237436   6.217   4.986   4.669
12498TIP3    H137437   6.218   4.937   4.750
12498TIP3    H237438   6.309   5.000   4.647
12499TIP3   OH237439   7.810   5.626   0.787
12499TIP3    H137440   7.819   5.677   0.707
12499TIP3    H237441   7.720   5.641   0.816
12500TIP3   OH237442   6.198   7.455   2.825
12500TIP3    H137443   6.278   7.471   2.775
12500TIP3    H237444   6.229   7.412   2.905
12501TIP3   OH237445   0.074   1.080   1.924
12501TIP3    H137446   0.163   1.094   1.958
12501TIP3    H237447   0.080   0.996   1.877
12502TIP3   OH237448   3.531   5.233   2.727
12502TIP3    H137449   3.579   5.198   2.802
12502TIP3    H237450   3.440   5.215   2.746
12503TIP3   OH237451   3.639   1.677   2.675
12503TIP3    H137452   3.623   1.750   2.615
12503TIP3    H237453   3.657   1.603   2.618
12504TIP3   OH237454   1.843   3.337   2.846
12504TIP3    H137455   1.783   3.269   2.816
12504TIP3    H237456   1.888   3.366   2.766
12505TIP3   OH237457   0.076   6.524   5.796
12505TIP3    H137458  -0.002   6.485   5.836
12505TIP3    H237459   0.137   6.451   5.787
12506TIP3   OH237460   2.396   0.294   5.781
12506TIP3    H137461   2.455   0.219   5.784
12506TIP3    H237462   2.327   0.274   5.844
12507TIP3   OH237463   6.427   4.293   5.957
12507TIP3    H137464   6.468   4.240   5.888
12507TIP3    H237465   6.487   4.288   6.030
12508TIP3   OH237466   2.368   0.469   5.384
12508TIP3    H137467   2.330   0.555   5.403
12508TIP3    H237468   2.400   0.477   5.295
12509TIP3   OH237469   2.412   4.038   0.791
12509TIP3    H137470   2.427   4.121   0.745
12509TIP3    H237471   2.335   4.054   0.845
12510TIP3   OH237472   6.676   5.559   5.508
12510TIP3    H137473   6.741   5.617   5.468
12510TIP3    H237474   6.598   5.568   5.454
12511TIP3   OH237475   4.973   6.188   3.157
12511TIP3    H137476   5.024   6.131   3.099
12511TIP3    H237477   4.975   6.274   3.115
12512TIP3   OH237478   1.734   5.973   0.657
12512TIP3    H137479   1.664   5.942   0.713
12512TIP3    H237480   1.813   5.930   0.690
12513TIP3   OH237481   3.514   3.007   1.535
12513TIP3    H137482   3.570   3.005   1.458
12513TIP3    H237483   3.425   2.997   1.500
12514TIP3   OH237484   6.528   7.623   1.058
12514TIP3    H137485   6.557   7.624   1.149
12514TIP3    H237486   6.516   7.530   1.038
12515TIP3   OH237487   1.490   3.059   2.144
12515TIP3    H137488   1.483   3.009   2.225
12515TIP3    H237489   1.455   3.146   2.166
12516TIP3   OH237490   1.106   1.206   2.564
12516TIP3    H137491   1.153   1.133   2.523
12516TIP3    H237492   1.021   1.170   2.586
12517TIP3   OH237493   0.028   5.791   5.287
12517TIP3    H137494   0.019   5.710   5.337
12517TIP3    H237495   0.085   5.768   5.213
12518TIP3   OH237496   0.170   3.013   2.358
12518TIP3    H137497   0.096   3.051   2.311
12518TIP3    H237498   0.144   2.923   2.376
12519TIP3   OH237499   4.398   1.622   5.850
12519TIP3    H137500   4.418   1.586   5.936
12519TIP3    H237501   4.424   1.552   5.789
12520TIP3   OH237502   5.370   1.736   5.255
12520TIP3    H137503   5.279   1.707   5.261
12520TIP3    H237504   5.372   1.790   5.176
12521TIP3   OH237505   0.559   4.334   5.358
12521TIP3    H137506   0.483   4.369   5.313
12521TIP3    H237507   0.606   4.284   5.292
12522TIP3   OH237508   8.237   7.502   0.093
12522TIP3    H137509   8.316   7.542   0.057
12522TIP3    H237510   8.269   7.433   0.151
12523TIP3   OH237511   5.497   6.078   5.915
12523TIP3    H137512   5.436   6.147   5.886
12523TIP3    H237513   5.464   5.998   5.874
12524TIP3   OH237514   7.219   4.403   4.109
12524TIP3    H137515   7.280   4.387   4.037
12524TIP3    H237516   7.219   4.498   4.121
12525TIP3   OH237517   6.215   5.420   3.770
12525TIP3    H137518   6.155   5.407   3.697
12525TIP3    H237519   6.302   5.414   3.730
12526TIP3   OH237520   6.976   0.281   5.993
12526TIP3    H137521   6.949   0.293   5.902
12526TIP3    H237522   7.072   0.284   5.990
12527TIP3   OH237523   5.721   1.427   2.799
12527TIP3    H137524   5.675   1.446   2.717
12527TIP3    H237525   5.657   1.377   2.851
12528TIP3   OH237526   5.114   7.588   1.087
12528TIP3    H137527   5.032   7.636   1.099
12528TIP3    H237528   5.143   7.567   1.176
12529TIP3   OH237529   4.153   6.865   3.305
12529TIP3    H137530   4.069   6.831   3.337
12529TIP3    H237531   4.179   6.928   3.372
12530TIP3   OH237532   2.276   4.998   5.415
12530TIP3    H137533   2.299   4.980   5.506
12530TIP3    H237534   2.180   4.991   5.413
12531TIP3   OH237535   1.993   5.081   2.208
12531TIP3    H137536   1.996   5.010   2.144
12531TIP3    H237537   1.914   5.131   2.184
12532TIP3   OH237538   1.021   1.897   4.572
12532TIP3    H137539   0.987   1.937   4.491
12532TIP3    H237540   1.005   1.963   4.639
12533TIP3   OH237541   2.502   3.105   3.901
12533TIP3    H137542   2.438   3.102   3.972
12533TIP3    H237543   2.581   3.066   3.937
12534TIP3   OH237544   8.208   6.775   1.398
12534TIP3    H137545   8.129   6.723   1.384
12534TIP3    H237546   8.179   6.847   1.454
12535TIP3   OH237547   2.980   2.269   3.476
12535TIP3    H137548   3.034   2.235   3.405
12535TIP3    H237549   2.965   2.193   3.533
12536TIP3   OH237550   1.745   6.066   4.091
12536TIP3    H137551   1.773   6.097   4.177
12536TIP3    H237552   1.760   6.140   4.032
12537TIP3   OH237553   4.661   3.709   5.502
12537TIP3    H137554   4.745   3.745   5.473
12537TIP3    H237555   4.658   3.729   5.596
12538TIP3   OH237556   6.657   6.537   3.451
12538TIP3    H137557   6.750   6.553   3.435
12538TIP3    H237558   6.632   6.605   3.513
12539TIP3   OH237559   3.658   5.114   2.927
12539TIP3    H137560   3.752   5.115   2.908
12539TIP3    H237561   3.653   5.107   3.022
12540TIP3   OH237562   5.585   1.072   4.312
12540TIP3    H137563   5.587   1.093   4.406
12540TIP3    H237564   5.608   0.979   4.308
12541TIP3   OH237565   2.596   3.382   3.132
12541TIP3    H137566   2.604   3.471   3.098
12541TIP3    H237567   2.529   3.341   3.077
12542TIP3   OH237568   3.313   0.608   5.412
12542TIP3    H137569   3.339   0.541   5.476
12542TIP3    H237570   3.217   0.608   5.415
12543TIP3   OH237571   3.116   6.689   4.783
12543TIP3    H137572   3.116   6.663   4.691
12543TIP3    H237573   3.050   6.633   4.824
12544TIP3   OH237574   5.010   1.296   1.536
12544TIP3    H137575   4.976   1.378   1.573
12544TIP3    H237576   5.104   1.311   1.525
12545TIP3   OH237577   1.174   6.453   2.238
12545TIP3    H137578   1.262   6.429   2.211
12545TIP3    H237579   1.168   6.547   2.218
12546TIP3   OH237580   6.822   0.909   6.048
12546TIP3    H137581   6.799   0.854   6.123
12546TIP3    H237582   6.764   0.985   6.054
12547TIP3   OH237583   2.369   6.271   4.532
12547TIP3    H137584   2.437   6.216   4.571
12547TIP3    H237585   2.291   6.253   4.585
12548TIP3   OH237586   5.484   3.684   0.072
12548TIP3    H137587   5.471   3.652  -0.017
12548TIP3    H237588   5.471   3.607   0.128
12549TIP3   OH237589   2.000   4.014   2.989
12549TIP3    H137590   1.927   3.954   2.972
12549TIP3    H237591   1.962   4.084   3.041
12550TIP3   OH237592   3.091   0.686   4.538
12550TIP3    H137593   3.151   0.638   4.481
12550TIP3    H237594   3.112   0.655   4.626
12551TIP3   OH237595   3.907   1.166   2.565
12551TIP3    H137596   3.952   1.094   2.520
12551TIP3    H237597   3.975   1.205   2.621
12552TIP3   OH237598   5.811   7.006   2.463
12552TIP3    H137599   5.853   7.007   2.377
12552TIP3    H237600   5.822   7.095   2.495
12553TIP3   OH237601   4.382   5.106   6.660
12553TIP3    H137602   4.363   5.109   6.754
12553TIP3    H237603   4.359   5.017   6.633
12554TIP3   OH237604   7.409   0.528   4.945
12554TIP3    H137605   7.482   0.562   4.996
12554TIP3    H237606   7.434   0.544   4.854
12555TIP3   OH237607   4.825   1.636   5.386
12555TIP3    H137608   4.759   1.684   5.334
12555TIP3    H237609   4.774   1.594   5.455
12556TIP3   OH237610   5.245   7.249   1.683
12556TIP3    H137611   5.328   7.203   1.669
12556TIP3    H237612   5.209   7.210   1.762
12557TIP3   OH237613   2.920   1.864   1.448
12557TIP3    H137614   2.828   1.867   1.421
12557TIP3    H237615   2.948   1.956   1.448
12558TIP3   OH237616   3.216   4.817   3.832
12558TIP3    H137617   3.255   4.885   3.776
12558TIP3    H237618   3.185   4.750   3.772
12559TIP3   OH237619   3.243   2.547   1.752
12559TIP3    H137620   3.285   2.557   1.837
12559TIP3    H237621   3.269   2.625   1.703
12560TIP3   OH237622   0.629   6.009   2.846
12560TIP3    H137623   0.670   5.979   2.928
12560TIP3    H237624   0.536   5.998   2.861
12561TIP3   OH237625   7.831   0.408   2.372
12561TIP3    H137626   7.778   0.466   2.426
12561TIP3    H237627   7.921   0.424   2.401
12562TIP3   OH237628   6.536   2.701   3.000
12562TIP3    H137629   6.521   2.613   3.035
12562TIP3    H237630   6.449   2.739   2.992
12563TIP3   OH237631   1.963   5.393   2.638
12563TIP3    H137632   1.987   5.479   2.673
12563TIP3    H237633   1.964   5.404   2.543
12564TIP3   OH237634   3.796   5.566   1.528
12564TIP3    H137635   3.794   5.505   1.602
12564TIP3    H237636   3.714   5.548   1.481
12565TIP3   OH237637   6.295   0.934   3.770
12565TIP3    H137638   6.389   0.917   3.774
12565TIP3    H237639   6.269   0.950   3.860
12566TIP3   OH237640   4.165   6.430   5.614
12566TIP3    H137641   4.150   6.343   5.577
12566TIP3    H237642   4.118   6.429   5.697
12567TIP3   OH237643   0.800   5.052   3.459
12567TIP3    H137644   0.764   5.136   3.488
12567TIP3    H237645   0.729   5.013   3.408
12568TIP3   OH237646   2.687   2.889   5.748
12568TIP3    H137647   2.642   2.805   5.745
12568TIP3    H237648   2.780   2.866   5.740
12569TIP3   OH237649   5.044   6.444   4.246
12569TIP3    H137650   4.970   6.437   4.187
12569TIP3    H237651   5.118   6.469   4.189
12570TIP3   OH237652   6.492   7.342   1.057
12570TIP3    H137653   6.508   7.276   1.123
12570TIP3    H237654   6.397   7.342   1.045
12571TIP3   OH237655   5.912   2.955   2.608
12571TIP3    H137656   5.870   2.987   2.528
12571TIP3    H237657   5.859   2.880   2.635
12572TIP3   OH237658   3.563   4.741   3.568
12572TIP3    H137659   3.505   4.694   3.509
12572TIP3    H237660   3.510   4.813   3.603
12573TIP3   OH237661   1.166   3.615   2.377
12573TIP3    H137662   1.147   3.709   2.373
12573TIP3    H237663   1.230   3.607   2.448
12574TIP3   OH237664   3.495   5.914   6.093
12574TIP3    H137665   3.490   5.820   6.075
12574TIP3    H237666   3.487   5.955   6.007
12575TIP3   OH237667   3.422   0.666   4.193
12575TIP3    H137668   3.382   0.635   4.274
12575TIP3    H237669   3.514   0.679   4.216
12576TIP3   OH237670   7.877   2.731   1.439
12576TIP3    H137671   7.811   2.800   1.441
12576TIP3    H237672   7.960   2.777   1.424
12577TIP3   OH237673   2.788   1.375   1.675
12577TIP3    H137674   2.727   1.320   1.724
12577TIP3    H237675   2.736   1.450   1.647
12578TIP3   OH237676   3.445   7.316   5.555
12578TIP3    H137677   3.352   7.322   5.579
12578TIP3    H237678   3.464   7.222   5.560
12579TIP3   OH237679   3.846   3.705   4.973
12579TIP3    H137680   3.892   3.662   4.901
12579TIP3    H237681   3.781   3.640   5.002
12580TIP3   OH237682   2.875   2.997   5.176
12580TIP3    H137683   2.830   2.913   5.179
12580TIP3    H237684   2.811   3.060   5.210
12581TIP3   OH237685   3.315   3.493   2.751
12581TIP3    H137686   3.313   3.403   2.719
12581TIP3    H237687   3.288   3.487   2.843
12582TIP3   OH237688   5.714   4.380   6.255
12582TIP3    H137689   5.779   4.418   6.314
12582TIP3    H237690   5.647   4.447   6.246
12583TIP3   OH237691  -0.015   6.058   5.754
12583TIP3    H137692   0.022   6.105   5.680
12583TIP3    H237693   0.061   6.023   5.801
12584TIP3   OH237694   4.507   2.149   1.622
12584TIP3    H137695   4.507   2.159   1.717
12584TIP3    H237696   4.558   2.070   1.605
12585TIP3   OH237697   2.798   1.600   5.395
12585TIP3    H137698   2.706   1.611   5.372
12585TIP3    H237699   2.846   1.642   5.324
12586TIP3   OH237700   4.256   1.735   6.103
12586TIP3    H137701   4.348   1.734   6.127
12586TIP3    H237702   4.248   1.666   6.037
12587TIP3   OH237703   6.439   5.755   3.012
12587TIP3    H137704   6.470   5.747   2.921
12587TIP3    H237705   6.518   5.774   3.062
12588TIP3   OH237706   3.530   7.069   5.763
12588TIP3    H137707   3.462   7.136   5.758
12588TIP3    H237708   3.491   6.992   5.722
12589TIP3   OH237709   8.250   0.702   1.448
12589TIP3    H137710   8.231   0.784   1.402
12589TIP3    H237711   8.202   0.635   1.399
12590TIP3   OH237712   7.248   5.555   6.260
12590TIP3    H137713   7.175   5.498   6.281
12590TIP3    H237714   7.292   5.570   6.344
12591TIP3   OH237715   5.496   6.815   2.056
12591TIP3    H137716   5.485   6.881   2.124
12591TIP3    H237717   5.560   6.753   2.092
12592TIP3   OH237718   7.849   4.947   5.862
12592TIP3    H137719   7.860   5.036   5.829
12592TIP3    H237720   7.754   4.930   5.855
12593TIP3   OH237721   6.339   3.855   3.224
12593TIP3    H137722   6.299   3.786   3.170
12593TIP3    H237723   6.302   3.936   3.190
12594TIP3   OH237724   1.300   3.976   1.162
12594TIP3    H137725   1.257   3.893   1.143
12594TIP3    H237726   1.268   4.036   1.094
12595TIP3   OH237727   6.355   4.515   0.856
12595TIP3    H137728   6.300   4.565   0.796
12595TIP3    H237729   6.301   4.502   0.934
12596TIP3   OH237730   7.846   7.139   3.372
12596TIP3    H137731   7.855   7.103   3.284
12596TIP3    H237732   7.763   7.104   3.404
12597TIP3   OH237733   2.931   2.130   6.552
12597TIP3    H137734   2.877   2.165   6.481
12597TIP3    H237735   2.966   2.047   6.517
12598TIP3   OH237736   0.015   1.314   6.254
12598TIP3    H137737   0.047   1.389   6.204
12598TIP3    H237738  -0.021   1.255   6.189
12599TIP3   OH237739   0.594   7.336   4.209
12599TIP3    H137740   0.503   7.329   4.182
12599TIP3    H237741   0.596   7.412   4.267
12600TIP3   OH237742   8.005   6.579   3.392
12600TIP3    H137743   7.935   6.645   3.393
12600TIP3    H237744   8.000   6.538   3.478
12601TIP3   OH237745   7.781   1.469   5.538
12601TIP3    H137746   7.720   1.470   5.612
12601TIP3    H237747   7.854   1.416   5.568
12602TIP3   OH237748   5.573   6.941   1.322
12602TIP3    H137749   5.483   6.955   1.351
12602TIP3    H237750   5.611   6.885   1.391
12603TIP3   OH237751   0.479   3.266   3.590
12603TIP3    H137752   0.462   3.191   3.533
12603TIP3    H237753   0.550   3.313   3.546
12604TIP3   OH237754   7.388   2.259   1.987
12604TIP3    H137755   7.437   2.319   1.931
12604TIP3    H237756   7.346   2.198   1.926
12605TIP3   OH237757   3.088   4.375   2.322
12605TIP3    H137758   3.067   4.333   2.405
12605TIP3    H237759   3.074   4.469   2.338
12606TIP3   OH237760   6.140   4.687   2.018
12606TIP3    H137761   6.113   4.607   1.972
12606TIP3    H237762   6.217   4.660   2.069
12607TIP3   OH237763   6.551   6.770   1.911
12607TIP3    H137764   6.484   6.825   1.871
12607TIP3    H237765   6.545   6.687   1.863
12608TIP3   OH237766   6.233   4.027   1.728
12608TIP3    H137767   6.231   4.085   1.804
12608TIP3    H237768   6.170   3.958   1.750
12609TIP3   OH237769   5.870   1.266   3.011
12609TIP3    H137770   5.833   1.341   2.965
12609TIP3    H237771   5.957   1.255   2.973
12610TIP3   OH237772   5.398   1.967   5.428
12610TIP3    H137773   5.414   1.873   5.414
12610TIP3    H237774   5.426   1.982   5.519
12611TIP3   OH237775   3.445   5.708   3.493
12611TIP3    H137776   3.409   5.628   3.531
12611TIP3    H237777   3.515   5.678   3.436
12612TIP3   OH237778   1.809   1.952   6.735
12612TIP3    H137779   1.853   1.926   6.816
12612TIP3    H237780   1.831   1.883   6.672
12613TIP3   OH237781   5.349   4.950   2.805
12613TIP3    H137782   5.400   4.876   2.838
12613TIP3    H237783   5.405   4.990   2.738
12614TIP3   OH237784   5.065   1.725   0.846
12614TIP3    H137785   5.145   1.759   0.886
12614TIP3    H237786   5.028   1.800   0.799
12615TIP3   OH237787   4.995   5.742   6.582
12615TIP3    H137788   4.962   5.823   6.541
12615TIP3    H237789   4.917   5.688   6.595
12616TIP3   OH237790   5.111   4.084   5.951
12616TIP3    H137791   5.100   4.069   6.044
12616TIP3    H237792   5.202   4.058   5.933
12617TIP3   OH237793   2.681   2.122   4.938
12617TIP3    H137794   2.734   2.090   5.011
12617TIP3    H237795   2.677   2.048   4.877
12618TIP3   OH237796   4.065   4.552   1.904
12618TIP3    H137797   4.011   4.602   1.843
12618TIP3    H237798   4.042   4.461   1.888
12619TIP3   OH237799   5.261   4.263   2.362
12619TIP3    H137800   5.206   4.258   2.284
12619TIP3    H237801   5.320   4.187   2.354
12620TIP3   OH237802   5.096   7.183   1.928
12620TIP3    H137803   5.159   7.223   1.989
12620TIP3    H237804   5.087   7.093   1.958
12621TIP3   OH237805   7.220   3.192   4.723
12621TIP3    H137806   7.297   3.153   4.764
12621TIP3    H237807   7.255   3.263   4.669
12622TIP3   OH237808   1.340   4.223   5.944
12622TIP3    H137809   1.285   4.188   6.014
12622TIP3    H237810   1.282   4.228   5.868
12623TIP3   OH237811   6.225   1.861   0.219
12623TIP3    H137812   6.184   1.908   0.291
12623TIP3    H237813   6.196   1.907   0.140
12624TIP3   OH237814   2.652   5.911   2.458
12624TIP3    H137815   2.747   5.916   2.465
12624TIP3    H237816   2.621   5.997   2.486
12625TIP3   OH237817   3.888   4.025   3.896
12625TIP3    H137818   3.935   3.995   3.818
12625TIP3    H237819   3.897   3.954   3.959
12626TIP3   OH237820   6.610   6.272   6.564
12626TIP3    H137821   6.535   6.215   6.546
12626TIP3    H237822   6.658   6.276   6.482
12627TIP3   OH237823   2.490   3.133   4.737
12627TIP3    H137824   2.548   3.058   4.744
12627TIP3    H237825   2.532   3.190   4.672
12628TIP3   OH237826   5.858   4.936   2.419
12628TIP3    H137827   5.833   4.865   2.479
12628TIP3    H237828   5.859   4.895   2.333
12629TIP3   OH237829   6.086   5.511   4.623
12629TIP3    H137830   6.124   5.441   4.569
12629TIP3    H237831   6.044   5.570   4.560
12630TIP3   OH237832   0.936   2.399   1.256
12630TIP3    H137833   0.897   2.312   1.245
12630TIP3    H237834   1.019   2.383   1.301
12631TIP3   OH237835   0.143   3.614   2.107
12631TIP3    H137836   0.066   3.656   2.146
12631TIP3    H237837   0.113   3.583   2.022
12632TIP3   OH237838   6.987   7.191   0.514
12632TIP3    H137839   6.906   7.217   0.470
12632TIP3    H237840   7.043   7.269   0.509
12633TIP3   OH237841   7.376   2.092   6.355
12633TIP3    H137842   7.295   2.058   6.317
12633TIP3    H237843   7.446   2.053   6.303
12634TIP3   OH237844   2.545   2.282   5.303
12634TIP3    H137845   2.455   2.279   5.270
12634TIP3    H237846   2.558   2.196   5.344
12635TIP3   OH237847   5.366   5.882   4.708
12635TIP3    H137848   5.416   5.895   4.788
12635TIP3    H237849   5.345   5.970   4.678
12636TIP3   OH237850   1.339   5.756   0.972
12636TIP3    H137851   1.296   5.787   0.892
12636TIP3    H237852   1.270   5.710   1.020
12637TIP3   OH237853   8.244   1.108   1.613
12637TIP3    H137854   8.308   1.063   1.669
12637TIP3    H237855   8.260   1.073   1.526
12638TIP3   OH237856   3.775   6.406   1.886
12638TIP3    H137857   3.684   6.433   1.874
12638TIP3    H237858   3.777   6.370   1.975
12639TIP3   OH237859   0.377   5.297   2.492
12639TIP3    H137860   0.409   5.246   2.418
12639TIP3    H237861   0.445   5.287   2.559
12640TIP3   OH237862   5.297   0.614   4.754
12640TIP3    H137863   5.316   0.684   4.691
12640TIP3    H237864   5.285   0.536   4.701
12641TIP3   OH237865   8.171   1.234   1.291
12641TIP3    H137866   8.213   1.182   1.223
12641TIP3    H237867   8.227   1.311   1.300
12642TIP3   OH237868   7.851   6.529   4.124
12642TIP3    H137869   7.870   6.616   4.159
12642TIP3    H237870   7.841   6.474   4.201
12643TIP3   OH237871   2.214   3.583   1.520
12643TIP3    H137872   2.127   3.620   1.535
12643TIP3    H237873   2.263   3.654   1.479
12644TIP3   OH237874   5.082   6.190   4.476
12644TIP3    H137875   5.006   6.189   4.418
12644TIP3    H237876   5.045   6.204   4.563
12645TIP3   OH237877   5.772   3.745   6.477
12645TIP3    H137878   5.847   3.720   6.532
12645TIP3    H237879   5.756   3.837   6.499
12646TIP3   OH237880   4.513   5.351   6.752
12646TIP3    H137881   4.592   5.404   6.749
12646TIP3    H237882   4.536   5.271   6.705
12647TIP3   OH237883   4.835   5.060   6.189
12647TIP3    H137884   4.741   5.051   6.200
12647TIP3    H237885   4.847   5.081   6.097
12648TIP3   OH237886   7.332   6.402   5.282
12648TIP3    H137887   7.247   6.410   5.239
12648TIP3    H237888   7.355   6.310   5.270
12649TIP3   OH237889   7.849   2.513   2.696
12649TIP3    H137890   7.764   2.541   2.663
12649TIP3    H237891   7.881   2.450   2.631
12650TIP3   OH237892   3.082   1.669   1.574
12650TIP3    H137893   3.024   1.730   1.529
12650TIP3    H237894   3.030   1.634   1.646
12651TIP3   OH237895   4.072   7.118   3.914
12651TIP3    H137896   4.089   7.116   4.008
12651TIP3    H237897   4.145   7.069   3.875
12652TIP3   OH237898   4.152   0.237   3.927
12652TIP3    H137899   4.090   0.164   3.917
12652TIP3    H237900   4.237   0.195   3.935
12653TIP3   OH237901   7.413   5.351   3.284
12653TIP3    H137902   7.375   5.285   3.227
12653TIP3    H237903   7.506   5.329   3.288
12654TIP3   OH237904   4.490   5.172   1.082
12654TIP3    H137905   4.451   5.192   0.996
12654TIP3    H237906   4.462   5.245   1.138
12655TIP3   OH237907   7.585   4.139   5.161
12655TIP3    H137908   7.658   4.078   5.153
12655TIP3    H237909   7.577   4.178   5.073
12656TIP3   OH237910   6.796   4.992   3.640
12656TIP3    H137911   6.775   5.084   3.654
12656TIP3    H237912   6.711   4.948   3.639
12657TIP3   OH237913   0.283   1.080   0.817
12657TIP3    H137914   0.268   1.106   0.726
12657TIP3    H237915   0.293   1.162   0.865
12658TIP3   OH237916   8.112   6.266   3.013
12658TIP3    H137917   8.069   6.345   3.044
12658TIP3    H237918   8.053   6.195   3.038
12659TIP3   OH237919   8.229   0.732   0.667
12659TIP3    H137920   8.294   0.766   0.728
12659TIP3    H237921   8.148   0.725   0.718
12660TIP3   OH237922   4.199   1.334   5.903
12660TIP3    H137923   4.118   1.342   5.851
12660TIP3    H237924   4.171   1.347   5.993
12661TIP3   OH237925   0.705   3.242   2.680
12661TIP3    H137926   0.725   3.274   2.592
12661TIP3    H237927   0.623   3.286   2.704
12662TIP3   OH237928   4.928   0.381   0.764
12662TIP3    H137929   4.886   0.452   0.715
12662TIP3    H237930   4.861   0.351   0.826
12663TIP3   OH237931   2.742   5.471   4.804
12663TIP3    H137932   2.652   5.440   4.812
12663TIP3    H237933   2.794   5.393   4.785
12664TIP3   OH237934   7.120   3.947   2.686
12664TIP3    H137935   7.172   3.890   2.741
12664TIP3    H237936   7.053   3.983   2.744
12665TIP3   OH237937   2.935   3.490   5.495
12665TIP3    H137938   2.972   3.414   5.539
12665TIP3    H237939   2.841   3.480   5.505
12666TIP3   OH237940   4.138   6.182   5.424
12666TIP3    H137941   4.098   6.097   5.403
12666TIP3    H237942   4.206   6.161   5.487
12667TIP3   OH237943   5.435   4.318   3.817
12667TIP3    H137944   5.519   4.346   3.782
12667TIP3    H237945   5.388   4.400   3.835
12668TIP3   OH237946   5.538   4.725   4.924
12668TIP3    H137947   5.573   4.717   4.835
12668TIP3    H237948   5.614   4.714   4.981
12669TIP3   OH237949   6.123   6.433   2.889
12669TIP3    H137950   6.081   6.517   2.907
12669TIP3    H237951   6.215   6.447   2.912
12670TIP3   OH237952   7.948   0.318   1.514
12670TIP3    H137953   7.980   0.322   1.423
12670TIP3    H237954   8.024   0.292   1.565
12671TIP3   OH237955   3.558   4.313   0.422
12671TIP3    H137956   3.632   4.253   0.428
12671TIP3    H237957   3.504   4.293   0.498
12672TIP3   OH237958   1.937   1.728   1.786
12672TIP3    H137959   1.996   1.678   1.842
12672TIP3    H237960   1.895   1.662   1.730
12673TIP3   OH237961   3.221   0.334   4.678
12673TIP3    H137962   3.231   0.247   4.716
12673TIP3    H237963   3.203   0.317   4.585
12674TIP3   OH237964   4.879   4.968   3.032
12674TIP3    H137965   4.960   5.012   3.006
12674TIP3    H237966   4.815   4.994   2.966
12675TIP3   OH237967   6.366   5.135   0.054
12675TIP3    H137968   6.272   5.154   0.052
12675TIP3    H237969   6.372   5.042   0.032
12676TIP3   OH237970   6.682   3.943   5.073
12676TIP3    H137971   6.721   3.858   5.091
12676TIP3    H237972   6.728   3.975   4.995
12677TIP3   OH237973   4.268   7.343   4.436
12677TIP3    H137974   4.299   7.294   4.360
12677TIP3    H237975   4.259   7.433   4.404
12678TIP3   OH237976   5.887   7.241   2.250
12678TIP3    H137977   5.918   7.150   2.248
12678TIP3    H237978   5.870   7.262   2.159
12679TIP3   OH237979   1.329   7.545   4.660
12679TIP3    H137980   1.315   7.604   4.587
12679TIP3    H237981   1.277   7.581   4.731
12680TIP3   OH237982   7.107   2.084   1.126
12680TIP3    H137983   7.146   2.130   1.052
12680TIP3    H237984   7.180   2.042   1.171
12681TIP3   OH237985   4.870   2.597   1.757
12681TIP3    H137986   4.888   2.597   1.851
12681TIP3    H237987   4.907   2.514   1.725
12682TIP3   OH237988   6.124   4.321   3.984
12682TIP3    H137989   6.166   4.378   4.048
12682TIP3    H237990   6.169   4.341   3.902
12683TIP3   OH237991   5.213   6.547   5.814
12683TIP3    H137992   5.210   6.600   5.893
12683TIP3    H237993   5.122   6.542   5.785
12684TIP3   OH237994   3.363   5.735   0.445
12684TIP3    H137995   3.398   5.742   0.356
12684TIP3    H237996   3.424   5.787   0.498
12685TIP3   OH237997   5.461   7.783   0.031
12685TIP3    H137998   5.442   7.718   0.099
12685TIP3    H237999   5.538   7.829   0.063
12686TIP3   OH238000   6.624   2.883   6.055
12686TIP3    H138001   6.674   2.962   6.036
12686TIP3    H238002   6.532   2.912   6.053
12687TIP3   OH238003   0.077   1.142   1.111
12687TIP3    H138004   0.023   1.156   1.033
12687TIP3    H238005   0.105   1.230   1.137
12688TIP3   OH238006   5.889   6.851   4.555
12688TIP3    H138007   5.824   6.804   4.607
12688TIP3    H238008   5.879   6.943   4.579
12689TIP3   OH238009   4.388   2.158   3.937
12689TIP3    H138010   4.409   2.082   3.883
12689TIP3    H238011   4.419   2.135   4.025
12690TIP3   OH238012   5.028   5.580   6.363
12690TIP3    H138013   5.036   5.607   6.455
12690TIP3    H238014   5.014   5.661   6.315
12691TIP3   OH238015   6.364   0.692   3.100
12691TIP3    H138016   6.282   0.642   3.097
12691TIP3    H238017   6.342   0.778   3.064
12692TIP3   OH238018   6.528   1.254   5.216
12692TIP3    H138019   6.475   1.223   5.143
12692TIP3    H238020   6.499   1.345   5.230
12693TIP3   OH238021   6.672   0.223   3.365
12693TIP3    H138022   6.715   0.156   3.419
12693TIP3    H238023   6.694   0.199   3.275
12694TIP3   OH238024   6.009   6.533   0.647
12694TIP3    H138025   6.024   6.519   0.740
12694TIP3    H238026   5.913   6.534   0.638
12695TIP3   OH238027   1.291   7.233   4.009
12695TIP3    H138028   1.224   7.164   4.004
12695TIP3    H238029   1.348   7.205   4.081
12696TIP3   OH238030   7.888   2.615   2.118
12696TIP3    H138031   7.896   2.667   2.038
12696TIP3    H238032   7.865   2.679   2.185
12697TIP3   OH238033   7.096   6.564   2.289
12697TIP3    H138034   7.074   6.527   2.203
12697TIP3    H238035   7.052   6.649   2.290
12698TIP3   OH238036   3.897   1.046   6.431
12698TIP3    H138037   3.846   1.109   6.382
12698TIP3    H238038   3.950   1.099   6.491
12699TIP3   OH238039   2.951   2.007   1.797
12699TIP3    H138040   2.867   2.024   1.754
12699TIP3    H238041   2.937   2.032   1.888
12700TIP3   OH238042   1.158   6.718   6.296
12700TIP3    H138043   1.067   6.749   6.301
12700TIP3    H238044   1.152   6.632   6.255
12701TIP3   OH238045   6.538   6.351   0.087
12701TIP3    H138046   6.461   6.392   0.048
12701TIP3    H238047   6.512   6.260   0.101
12702TIP3   OH238048   7.524   2.939   3.816
12702TIP3    H138049   7.589   2.925   3.885
12702TIP3    H238050   7.472   2.859   3.814
12703TIP3   OH238051   1.388   4.828   2.298
12703TIP3    H138052   1.397   4.876   2.381
12703TIP3    H238053   1.350   4.892   2.238
12704TIP3   OH238054   1.820   5.470   2.033
12704TIP3    H138055   1.784   5.558   2.021
12704TIP3    H238056   1.776   5.416   1.967
12705TIP3   OH238057   8.119   6.005   1.301
12705TIP3    H138058   8.083   6.018   1.388
12705TIP3    H238059   8.175   6.081   1.286
12706TIP3   OH238060   5.073   5.222   6.579
12706TIP3    H138061   5.084   5.316   6.591
12706TIP3    H238062   5.105   5.206   6.490
12707TIP3   OH238063   4.438   3.458   3.570
12707TIP3    H138064   4.355   3.482   3.611
12707TIP3    H238065   4.426   3.367   3.543
12708TIP3   OH238066   7.623   0.979   4.349
12708TIP3    H138067   7.591   0.909   4.406
12708TIP3    H238068   7.581   0.962   4.264
12709TIP3   OH238069   5.875   2.968   2.305
12709TIP3    H138070   5.971   2.960   2.300
12709TIP3    H238071   5.844   2.938   2.220
12710TIP3   OH238072   1.883   1.102   2.132
12710TIP3    H138073   1.889   1.196   2.116
12710TIP3    H238074   1.947   1.064   2.071
12711TIP3   OH238075   2.311   3.996   2.964
12711TIP3    H138076   2.386   3.946   2.998
12711TIP3    H238077   2.257   3.931   2.919
12712TIP3   OH238078   5.747   6.088   1.695
12712TIP3    H138079   5.696   6.008   1.682
12712TIP3    H238080   5.685   6.159   1.677
12713TIP3   OH238081   4.001   6.442   0.520
12713TIP3    H138082   3.907   6.427   0.516
12713TIP3    H238083   4.013   6.534   0.497
12714TIP3   OH238084   1.920   3.170   0.929
12714TIP3    H138085   1.966   3.087   0.916
12714TIP3    H238086   1.830   3.152   0.900
12715TIP3   OH238087   6.334   2.456   6.345
12715TIP3    H138088   6.339   2.361   6.354
12715TIP3    H238089   6.424   2.484   6.332
12716TIP3   OH238090   7.303   7.574   6.574
12716TIP3    H138091   7.334   7.563   6.484
12716TIP3    H238092   7.239   7.646   6.569
12717TIP3   OH238093   6.958   0.589   2.909
12717TIP3    H138094   6.967   0.495   2.920
12717TIP3    H238095   6.935   0.601   2.817
12718TIP3   OH238096   5.092   5.405   2.620
12718TIP3    H138097   5.022   5.457   2.659
12718TIP3    H238098   5.074   5.406   2.526
12719TIP3   OH238099   5.436   2.564   5.276
12719TIP3    H138100   5.476   2.645   5.244
12719TIP3    H238101   5.498   2.530   5.340
12720TIP3   OH238102   6.778   2.673   0.836
12720TIP3    H138103   6.870   2.651   0.825
12720TIP3    H238104   6.756   2.724   0.759
12721TIP3   OH238105   4.847   2.714   3.693
12721TIP3    H138106   4.942   2.712   3.706
12721TIP3    H238107   4.818   2.626   3.718
12722TIP3   OH238108   7.661   3.691   1.124
12722TIP3    H138109   7.722   3.679   1.197
12722TIP3    H238110   7.717   3.692   1.046
12723TIP3   OH238111   4.300   1.557   4.305
12723TIP3    H138112   4.381   1.506   4.305
12723TIP3    H238113   4.310   1.619   4.233
12724TIP3   OH238114   3.385   2.489   4.548
12724TIP3    H138115   3.292   2.509   4.537
12724TIP3    H238116   3.390   2.439   4.630
12725TIP3   OH238117   1.451   0.513   3.153
12725TIP3    H138118   1.442   0.549   3.241
12725TIP3    H238119   1.437   0.588   3.095
12726TIP3   OH238120   5.417   4.243   4.550
12726TIP3    H138121   5.393   4.152   4.565
12726TIP3    H238122   5.335   4.292   4.564
12727TIP3   OH238123   1.785   6.091   4.735
12727TIP3    H138124   1.721   6.097   4.805
12727TIP3    H238125   1.754   6.152   4.668
12728TIP3   OH238126   6.000   5.810   2.540
12728TIP3    H138127   5.938   5.740   2.518
12728TIP3    H238128   6.082   5.765   2.556
12729TIP3   OH238129   7.807   5.069   3.123
12729TIP3    H138130   7.795   5.130   3.196
12729TIP3    H238131   7.751   5.104   3.053
12730TIP3   OH238132   6.454   3.174   2.103
12730TIP3    H138133   6.482   3.244   2.044
12730TIP3    H238134   6.464   3.094   2.052
12731TIP3   OH238135   7.659   3.587   4.941
12731TIP3    H138136   7.616   3.508   4.909
12731TIP3    H238137   7.750   3.560   4.956
12732TIP3   OH238138   4.972   7.625   6.323
12732TIP3    H138139   5.007   7.624   6.412
12732TIP3    H238140   4.935   7.538   6.311
12733TIP3   OH238141   6.560   2.082   5.130
12733TIP3    H138142   6.524   2.001   5.094
12733TIP3    H238143   6.634   2.102   5.073
12734TIP3   OH238144   2.102   2.514   2.442
12734TIP3    H138145   2.023   2.493   2.393
12734TIP3    H238146   2.168   2.453   2.409
12735TIP3   OH238147   4.216   2.031   0.439
12735TIP3    H138148   4.125   2.056   0.456
12735TIP3    H238149   4.266   2.072   0.509
12736TIP3   OH238150   5.159   4.889   0.153
12736TIP3    H138151   5.171   4.945   0.230
12736TIP3    H238152   5.072   4.851   0.165
12737TIP3   OH238153   7.045   1.475   1.893
12737TIP3    H138154   7.067   1.392   1.850
12737TIP3    H238155   6.973   1.454   1.952
12738TIP3   OH238156   1.273   5.162   1.388
12738TIP3    H138157   1.243   5.164   1.479
12738TIP3    H238158   1.264   5.071   1.361
12739TIP3   OH238159   6.996   4.294   2.750
12739TIP3    H138160   7.058   4.359   2.783
12739TIP3    H238161   6.926   4.346   2.710
12740TIP3   OH238162   8.259   2.335   1.143
12740TIP3    H138163   8.175   2.314   1.104
12740TIP3    H238164   8.243   2.416   1.192
12741TIP3   OH238165   3.099   7.212   2.659
12741TIP3    H138166   3.097   7.116   2.652
12741TIP3    H238167   3.072   7.243   2.572
12742TIP3   OH238168   4.106   7.113   5.719
12742TIP3    H138169   4.201   7.110   5.728
12742TIP3    H238170   4.091   7.151   5.632
12743TIP3   OH238171   2.613   3.699   3.865
12743TIP3    H138172   2.694   3.649   3.860
12743TIP3    H238173   2.547   3.642   3.824
12744TIP3   OH238174   1.695   4.691   6.392
12744TIP3    H138175   1.627   4.634   6.428
12744TIP3    H238176   1.731   4.737   6.467
12745TIP3   OH238177   7.878   0.690   6.464
12745TIP3    H138178   7.924   0.687   6.380
12745TIP3    H238179   7.944   0.719   6.526
12746TIP3   OH238180   2.251   4.464   5.396
12746TIP3    H138181   2.271   4.523   5.324
12746TIP3    H238182   2.334   4.421   5.415
12747TIP3   OH238183   1.195   1.192   5.486
12747TIP3    H138184   1.196   1.097   5.493
12747TIP3    H238185   1.216   1.224   5.573
12748TIP3   OH238186   4.430   5.588   1.556
12748TIP3    H138187   4.489   5.659   1.582
12748TIP3    H238188   4.482   5.533   1.497
12749TIP3   OH238189   7.047   0.116   1.171
12749TIP3    H138190   7.118   0.162   1.126
12749TIP3    H238191   6.985   0.184   1.196
12750TIP3   OH238192   5.056   6.310   1.617
12750TIP3    H138193   5.135   6.266   1.584
12750TIP3    H238194   5.045   6.275   1.705
12751TIP3   OH238195   3.969   7.246   0.037
12751TIP3    H138196   3.898   7.300   0.002
12751TIP3    H238197   3.970   7.266   0.131
12752TIP3   OH238198   1.570   3.954   4.674
12752TIP3    H138199   1.497   3.895   4.654
12752TIP3    H238200   1.570   3.961   4.769
12753TIP3   OH238201   2.611   4.857   6.224
12753TIP3    H138202   2.680   4.894   6.168
12753TIP3    H238203   2.564   4.797   6.166
12754TIP3   OH238204   5.710   6.489   0.281
12754TIP3    H138205   5.718   6.582   0.304
12754TIP3    H238206   5.660   6.451   0.354
12755TIP3   OH238207   0.516   1.713   2.214
12755TIP3    H138208   0.428   1.691   2.185
12755TIP3    H238209   0.507   1.800   2.254
12756TIP3   OH238210   7.338   6.699   4.454
12756TIP3    H138211   7.285   6.711   4.375
12756TIP3    H238212   7.419   6.745   4.435
12757TIP3   OH238213   1.794   0.455   5.462
12757TIP3    H138214   1.705   0.422   5.449
12757TIP3    H238215   1.827   0.406   5.537
12758TIP3   OH238216   3.771   4.457   2.327
12758TIP3    H138217   3.804   4.539   2.290
12758TIP3    H238218   3.720   4.418   2.256
12759TIP3   OH238219   1.072   6.604   2.539
12759TIP3    H138220   1.063   6.529   2.481
12759TIP3    H238221   1.128   6.573   2.611
12760TIP3   OH238222   1.571   5.141   2.271
12760TIP3    H138223   1.574   5.120   2.364
12760TIP3    H238224   1.631   5.215   2.261
12761TIP3   OH238225   0.249   7.229   0.559
12761TIP3    H138226   0.288   7.307   0.519
12761TIP3    H238227   0.279   7.157   0.504
12762TIP3   OH238228   1.213   6.613   5.452
12762TIP3    H138229   1.278   6.545   5.470
12762TIP3    H238230   1.144   6.597   5.516
12763TIP3   OH238231   6.244   3.323   4.512
12763TIP3    H138232   6.287   3.339   4.596
12763TIP3    H238233   6.288   3.384   4.451
12764TIP3   OH238234   2.159   1.164   4.601
12764TIP3    H138235   2.188   1.144   4.512
12764TIP3    H238236   2.133   1.256   4.598
12765TIP3   OH238237   7.934   1.676   0.827
12765TIP3    H138238   7.861   1.705   0.772
12765TIP3    H238239   7.938   1.581   0.815
12766TIP3   OH238240   2.186   5.937   1.225
12766TIP3    H138241   2.222   5.891   1.301
12766TIP3    H238242   2.171   6.026   1.255
12767TIP3   OH238243   7.650   7.781   5.890
12767TIP3    H138244   7.658   7.736   5.806
12767TIP3    H238245   7.556   7.798   5.898
12768TIP3   OH238246   1.076   4.919   6.013
12768TIP3    H138247   0.997   4.945   5.965
12768TIP3    H238248   1.056   4.831   6.045
12769TIP3   OH238249   5.914   1.443   3.476
12769TIP3    H138250   5.897   1.370   3.417
12769TIP3    H238251   5.850   1.431   3.547
12770TIP3   OH238252   2.648   7.133   5.096
12770TIP3    H138253   2.658   7.067   5.027
12770TIP3    H238254   2.736   7.142   5.133
12771TIP3   OH238255   1.545   4.050   4.946
12771TIP3    H138256   1.558   4.139   4.916
12771TIP3    H238257   1.612   4.038   5.014
12772TIP3   OH238258   5.826   1.780   4.883
12772TIP3    H138259   5.860   1.837   4.953
12772TIP3    H238260   5.731   1.793   4.886
12773TIP3   OH238261   7.211   0.650   6.580
12773TIP3    H138262   7.283   0.697   6.622
12773TIP3    H238263   7.152   0.627   6.652
12774TIP3   OH238264   5.157   6.034   0.703
12774TIP3    H138265   5.205   5.952   0.695
12774TIP3    H238266   5.147   6.048   0.797
12775TIP3   OH238267   4.813   0.975   5.719
12775TIP3    H138268   4.804   0.891   5.674
12775TIP3    H238269   4.735   0.980   5.775
12776TIP3   OH238270   0.399   6.934   2.053
12776TIP3    H138271   0.434   6.888   1.976
12776TIP3    H238272   0.400   7.026   2.028
12777TIP3   OH238273   2.864   5.879   1.404
12777TIP3    H138274   2.913   5.959   1.384
12777TIP3    H238275   2.824   5.896   1.489
12778TIP3   OH238276   4.163   7.691   4.097
12778TIP3    H138277   4.072   7.720   4.107
12778TIP3    H238278   4.199   7.747   4.029
12779TIP3   OH238279   3.111   6.536   5.724
12779TIP3    H138280   3.176   6.591   5.681
12779TIP3    H238281   3.063   6.597   5.781
12780TIP3   OH238282   5.181   5.877   2.605
12780TIP3    H138283   5.091   5.909   2.593
12780TIP3    H238284   5.194   5.877   2.700
12781TIP3   OH238285   4.291   4.668   5.883
12781TIP3    H138286   4.351   4.680   5.809
12781TIP3    H238287   4.318   4.586   5.923
12782TIP3   OH238288   7.408   7.308   6.580
12782TIP3    H138289   7.497   7.331   6.552
12782TIP3    H238290   7.364   7.392   6.592
12783TIP3   OH238291   0.871   1.377   6.682
12783TIP3    H138292   0.948   1.385   6.737
12783TIP3    H238293   0.902   1.399   6.594
12784TIP3   OH238294   3.816   7.687   4.601
12784TIP3    H138295   3.756   7.632   4.651
12784TIP3    H238296   3.814   7.651   4.512
12785TIP3   OH238297   4.720   6.390   3.773
12785TIP3    H138298   4.803   6.427   3.803
12785TIP3    H238299   4.737   6.365   3.682
12786TIP3   OH238300   0.879   0.637   3.786
12786TIP3    H138301   0.924   0.591   3.857
12786TIP3    H238302   0.949   0.659   3.724
12787TIP3   OH238303   5.307   6.867   1.406
12787TIP3    H138304   5.313   6.791   1.463
12787TIP3    H238305   5.291   6.941   1.465
12788TIP3   OH238306   4.664   7.183   1.384
12788TIP3    H138307   4.731   7.158   1.448
12788TIP3    H238308   4.626   7.100   1.355
12789TIP3   OH238309   3.054   0.395   0.688
12789TIP3    H138310   2.961   0.413   0.696
12789TIP3    H238311   3.090   0.409   0.776
12790TIP3   OH238312   3.485   0.759   3.812
12790TIP3    H138313   3.442   0.698   3.871
12790TIP3    H238314   3.519   0.704   3.741
12791TIP3   OH238315   4.476   6.676   0.890
12791TIP3    H138316   4.456   6.584   0.908
12791TIP3    H238317   4.447   6.689   0.799
12792TIP3   OH238318   1.405   3.794   0.936
12792TIP3    H138319   1.399   3.703   0.962
12792TIP3    H238320   1.342   3.804   0.865
12793TIP3   OH238321   7.609   7.711   4.826
12793TIP3    H138322   7.566   7.656   4.892
12793TIP3    H238323   7.539   7.768   4.793
12794TIP3   OH238324   3.510   2.960   3.230
12794TIP3    H138325   3.574   2.918   3.173
12794TIP3    H238326   3.463   3.021   3.174
12795TIP3   OH238327   5.303   6.492   5.204
12795TIP3    H138328   5.284   6.575   5.160
12795TIP3    H238329   5.222   6.441   5.195
12796TIP3   OH238330   4.069   5.144   4.671
12796TIP3    H138331   4.102   5.198   4.599
12796TIP3    H238332   4.131   5.072   4.678
12797TIP3   OH238333   7.179   3.198   2.412
12797TIP3    H138334   7.254   3.244   2.449
12797TIP3    H238335   7.106   3.223   2.468
12798TIP3   OH238336   0.750   2.995   1.125
12798TIP3    H138337   0.730   2.902   1.115
12798TIP3    H238338   0.671   3.033   1.163
12799TIP3   OH238339   0.800   4.275   3.892
12799TIP3    H138340   0.783   4.289   3.985
12799TIP3    H238341   0.741   4.204   3.868
12800TIP3   OH238342   4.959   3.187   0.548
12800TIP3    H138343   5.013   3.162   0.623
12800TIP3    H238344   4.931   3.276   0.567
12801TIP3   OH238345   6.625   1.527   1.411
12801TIP3    H138346   6.569   1.451   1.425
12801TIP3    H238347   6.582   1.577   1.342
12802TIP3   OH238348   5.027   5.649   1.208
12802TIP3    H138349   5.045   5.577   1.147
12802TIP3    H238350   5.081   5.721   1.175
12803TIP3   OH238351   7.588   3.036   6.318
12803TIP3    H138352   7.493   3.039   6.330
12803TIP3    H238353   7.617   2.964   6.374
12804TIP3   OH238354   6.168   2.438   2.072
12804TIP3    H138355   6.206   2.420   1.985
12804TIP3    H238356   6.186   2.358   2.122
12805TIP3   OH238357   4.153   1.336   2.581
12805TIP3    H138358   4.184   1.393   2.511
12805TIP3    H238359   4.065   1.367   2.599
12806TIP3   OH238360   3.273   1.969   4.579
12806TIP3    H138361   3.242   1.888   4.538
12806TIP3    H238362   3.366   1.955   4.593
12807TIP3   OH238363   3.528   4.408   5.160
12807TIP3    H138364   3.599   4.403   5.225
12807TIP3    H238365   3.573   4.419   5.076
12808TIP3   OH238366   7.443   5.805   6.350
12808TIP3    H138367   7.518   5.745   6.348
12808TIP3    H238368   7.478   5.887   6.315
12809TIP3   OH238369   2.921   6.540   4.259
12809TIP3    H138370   2.976   6.467   4.231
12809TIP3    H238371   2.970   6.618   4.234
12810TIP3   OH238372   2.391   3.812   5.061
12810TIP3    H138373   2.331   3.740   5.043
12810TIP3    H238374   2.410   3.805   5.155
12811TIP3   OH238375   6.523   2.895   1.650
12811TIP3    H138376   6.576   2.903   1.729
12811TIP3    H238377   6.433   2.897   1.682
12812TIP3   OH238378   4.161   2.580   5.070
12812TIP3    H138379   4.234   2.568   5.130
12812TIP3    H238380   4.202   2.590   4.984
12813TIP3   OH238381   5.024   4.637   4.063
12813TIP3    H138382   4.965   4.616   3.991
12813TIP3    H238383   5.051   4.552   4.097
12814TIP3   OH238384   7.606   5.583   2.705
12814TIP3    H138385   7.573   5.668   2.734
12814TIP3    H238386   7.688   5.602   2.661
12815TIP3   OH238387   3.035   5.865   1.765
12815TIP3    H138388   3.069   5.875   1.676
12815TIP3    H238389   2.941   5.883   1.757
12816TIP3   OH238390   4.805   1.632   6.291
12816TIP3    H138391   4.712   1.617   6.278
12816TIP3    H238392   4.826   1.588   6.373
12817TIP3   OH238393   4.333   1.571   5.058
12817TIP3    H138394   4.399   1.636   5.084
12817TIP3    H238395   4.325   1.583   4.963
12818TIP3   OH238396   0.828   6.430   0.807
12818TIP3    H138397   0.769   6.473   0.746
12818TIP3    H238398   0.812   6.473   0.891
12819TIP3   OH238399   7.082   1.926   0.835
12819TIP3    H138400   7.142   1.896   0.767
12819TIP3    H238401   7.138   1.965   0.902
12820TIP3   OH238402   2.448   4.751   1.217
12820TIP3    H138403   2.454   4.706   1.133
12820TIP3    H238404   2.511   4.822   1.211
12821TIP3   OH238405   0.494   5.760   0.088
12821TIP3    H138406   0.488   5.665   0.082
12821TIP3    H238407   0.457   5.791   0.005
12822TIP3   OH238408   3.275   1.118   6.641
12822TIP3    H138409   3.210   1.090   6.706
12822TIP3    H238410   3.318   1.193   6.682
12823TIP3   OH238411   6.403   7.059   1.149
12823TIP3    H138412   6.398   7.097   1.237
12823TIP3    H238413   6.495   7.039   1.137
12824TIP3   OH238414   7.416   2.268   3.760
12824TIP3    H138415   7.373   2.254   3.676
12824TIP3    H238416   7.413   2.182   3.803
12825TIP3   OH238417   6.725   7.365   1.519
12825TIP3    H138418   6.680   7.379   1.436
12825TIP3    H238419   6.782   7.291   1.504
12826TIP3   OH238420   7.943   3.136   3.755
12826TIP3    H138421   7.930   3.052   3.711
12826TIP3    H238422   8.037   3.139   3.774
12827TIP3   OH238423   3.156   4.880   2.852
12827TIP3    H138424   3.077   4.925   2.882
12827TIP3    H238425   3.228   4.937   2.880
12828TIP3   OH238426   7.246   2.404   5.243
12828TIP3    H138427   7.314   2.453   5.198
12828TIP3    H238428   7.293   2.349   5.306
12829TIP3   OH238429   3.010   6.461   1.849
12829TIP3    H138430   3.057   6.459   1.933
12829TIP3    H238431   2.999   6.554   1.829
12830TIP3   OH238432   1.571   5.026   0.555
12830TIP3    H138433   1.487   5.054   0.520
12830TIP3    H238434   1.586   5.082   0.631
12831TIP3   OH238435   0.482   6.728   0.595
12831TIP3    H138436   0.516   6.802   0.543
12831TIP3    H238437   0.390   6.750   0.611
12832TIP3   OH238438   4.924   6.742   1.007
12832TIP3    H138439   4.888   6.821   1.047
12832TIP3    H238440   4.866   6.672   1.034
12833TIP3   OH238441   7.389   2.467   5.673
12833TIP3    H138442   7.338   2.469   5.592
12833TIP3    H238443   7.353   2.537   5.727
12834TIP3   OH238444   6.638   3.665   4.769
12834TIP3    H138445   6.649   3.668   4.674
12834TIP3    H238446   6.635   3.757   4.795
12835TIP3   OH238447   0.859   4.655   1.428
12835TIP3    H138448   0.949   4.649   1.397
12835TIP3    H238449   0.827   4.565   1.427
12836TIP3   OH238450   0.430   2.756   0.196
12836TIP3    H138451   0.370   2.774   0.123
12836TIP3    H238452   0.481   2.836   0.205
12837TIP3   OH238453   1.686   6.960   4.444
12837TIP3    H138454   1.688   7.006   4.528
12837TIP3    H238455   1.745   7.009   4.387
12838TIP3   OH238456   5.606   7.140   6.358
12838TIP3    H138457   5.692   7.173   6.330
12838TIP3    H238458   5.624   7.054   6.395
12839TIP3   OH238459   7.331   6.727   3.465
12839TIP3    H138460   7.302   6.761   3.549
12839TIP3    H238461   7.417   6.688   3.483
12840TIP3   OH238462   7.458   1.960   2.307
12840TIP3    H138463   7.524   2.027   2.327
12840TIP3    H238464   7.400   1.960   2.383
12841TIP3   OH238465   5.403   2.548   2.661
12841TIP3    H138466   5.480   2.527   2.715
12841TIP3    H238467   5.345   2.473   2.674
12842TIP3   OH238468   3.151   4.366   1.169
12842TIP3    H138469   3.227   4.310   1.184
12842TIP3    H238470   3.172   4.414   1.089
12843TIP3   OH238471   4.887   6.630   1.312
12843TIP3    H138472   4.964   6.686   1.303
12843TIP3    H238473   4.898   6.562   1.245
12844TIP3   OH238474   2.259   0.246   3.976
12844TIP3    H138475   2.302   0.266   3.893
12844TIP3    H238476   2.327   0.201   4.028
12845TIP3   OH238477   7.857   0.583   3.089
12845TIP3    H138478   7.947   0.550   3.096
12845TIP3    H238479   7.860   0.646   3.017
12846TIP3   OH238480   8.204   7.298   2.448
12846TIP3    H138481   8.237   7.210   2.466
12846TIP3    H238482   8.263   7.333   2.381
12847TIP3   OH238483   0.539   6.943   5.965
12847TIP3    H138484   0.489   6.866   5.939
12847TIP3    H238485   0.514   6.958   6.056
12848TIP3   OH238486   3.106   0.081   6.115
12848TIP3    H138487   3.188   0.130   6.128
12848TIP3    H238488   3.051   0.140   6.064
12849TIP3   OH238489   1.363   0.637   2.295
12849TIP3    H138490   1.389   0.629   2.203
12849TIP3    H238491   1.415   0.709   2.328
12850TIP3   OH238492   7.892   0.306   4.207
12850TIP3    H138493   7.920   0.357   4.131
12850TIP3    H238494   7.875   0.371   4.275
12851TIP3   OH238495   6.066   6.816   0.650
12851TIP3    H138496   6.018   6.837   0.730
12851TIP3    H238497   6.046   6.724   0.633
12852TIP3   OH238498   5.359   3.936   5.912
12852TIP3    H138499   5.390   3.873   5.976
12852TIP3    H238500   5.411   4.015   5.928
12853TIP3   OH238501   6.301   1.279   0.010
12853TIP3    H138502   6.331   1.284   0.101
12853TIP3    H238503   6.240   1.205   0.009
12854TIP3   OH238504   1.428   0.675   2.018
12854TIP3    H138505   1.367   0.719   1.959
12854TIP3    H238506   1.455   0.744   2.079
12855TIP3   OH238507   7.581   1.199   3.087
12855TIP3    H138508   7.488   1.215   3.098
12855TIP3    H238509   7.591   1.104   3.093
12856TIP3   OH238510   7.410   5.780   2.697
12856TIP3    H138511   7.420   5.748   2.787
12856TIP3    H238512   7.315   5.792   2.687
12857TIP3   OH238513   5.656   1.769   5.571
12857TIP3    H138514   5.604   1.836   5.615
12857TIP3    H238515   5.744   1.806   5.567
12858TIP3   OH238516   3.589   3.227   4.056
12858TIP3    H138517   3.626   3.309   4.023
12858TIP3    H238518   3.632   3.159   4.003
12859TIP3   OH238519   1.842   1.358   5.982
12859TIP3    H138520   1.874   1.270   5.998
12859TIP3    H238521   1.867   1.377   5.891
12860TIP3   OH238522   2.424   6.757   2.629
12860TIP3    H138523   2.514   6.731   2.647
12860TIP3    H238524   2.430   6.815   2.552
12861TIP3   OH238525   1.689   2.395   4.212
12861TIP3    H138526   1.612   2.450   4.200
12861TIP3    H238527   1.676   2.321   4.153
12862TIP3   OH238528   2.931   4.887   6.464
12862TIP3    H138529   3.002   4.889   6.399
12862TIP3    H238530   2.874   4.960   6.441
12863TIP3   OH238531   5.679   2.928   3.700
12863TIP3    H138532   5.646   2.991   3.764
12863TIP3    H238533   5.650   2.843   3.733
12864TIP3   OH238534   1.529   6.520   4.527
12864TIP3    H138535   1.527   6.541   4.621
12864TIP3    H238536   1.482   6.593   4.486
12865TIP3   OH238537   7.340   2.168   6.629
12865TIP3    H138538   7.369   2.142   6.542
12865TIP3    H238539   7.418   2.159   6.684
12866TIP3   OH238540   8.024   0.670   3.301
12866TIP3    H138541   7.933   0.679   3.273
12866TIP3    H238542   8.021   0.613   3.378
12867TIP3   OH238543   2.629   0.487   5.988
12867TIP3    H138544   2.569   0.519   5.920
12867TIP3    H238545   2.716   0.508   5.954
12868TIP3   OH238546   6.699   6.481   3.141
12868TIP3    H138547   6.632   6.543   3.171
12868TIP3    H238548   6.773   6.536   3.114
12869TIP3   OH238549   6.166   3.580   5.363
12869TIP3    H138550   6.207   3.539   5.439
12869TIP3    H238551   6.225   3.652   5.340
12870TIP3   OH238552   1.588   2.550   1.261
12870TIP3    H138553   1.664   2.537   1.318
12870TIP3    H238554   1.529   2.606   1.312
12871TIP3   OH238555   5.728   1.700   2.318
12871TIP3    H138556   5.804   1.744   2.356
12871TIP3    H238557   5.742   1.706   2.223
12872TIP3   OH238558   7.630   6.394   4.119
12872TIP3    H138559   7.696   6.458   4.092
12872TIP3    H238560   7.610   6.344   4.040
12873TIP3   OH238561   5.740   4.556   0.511
12873TIP3    H138562   5.676   4.542   0.581
12873TIP3    H238563   5.825   4.550   0.556
12874TIP3   OH238564   6.200   3.758   2.726
12874TIP3    H138565   6.131   3.776   2.662
12874TIP3    H238566   6.177   3.809   2.803
12875TIP3   OH238567   2.597   2.364   2.763
12875TIP3    H138568   2.580   2.451   2.726
12875TIP3    H238569   2.513   2.319   2.760
12876TIP3   OH238570   1.369   2.601   0.275
12876TIP3    H138571   1.379   2.625   0.367
12876TIP3    H238572   1.454   2.566   0.250
12877TIP3   OH238573   3.606   3.084   0.718
12877TIP3    H138574   3.601   3.105   0.811
12877TIP3    H238575   3.518   3.053   0.695
12878TIP3   OH238576   5.930   4.784   3.711
12878TIP3    H138577   5.958   4.868   3.674
12878TIP3    H238578   5.835   4.788   3.710
12879TIP3   OH238579   5.072   3.521   5.875
12879TIP3    H138580   5.021   3.469   5.813
12879TIP3    H238581   5.158   3.478   5.878
12880TIP3   OH238582   1.394   3.101   5.840
12880TIP3    H138583   1.465   3.036   5.841
12880TIP3    H238584   1.427   3.173   5.894
12881TIP3   OH238585   5.301   2.733   4.183
12881TIP3    H138586   5.210   2.705   4.190
12881TIP3    H238587   5.332   2.695   4.101
12882TIP3   OH238588   4.358   5.177   6.371
12882TIP3    H138589   4.265   5.159   6.372
12882TIP3    H238590   4.388   5.157   6.459
12883TIP3   OH238591   0.995   4.001   6.374
12883TIP3    H138592   1.090   4.008   6.378
12883TIP3    H238593   0.965   4.092   6.368
12884TIP3   OH238594   2.196   0.829   6.761
12884TIP3    H138595   2.276   0.848   6.712
12884TIP3    H238596   2.208   0.740   6.793
12885TIP3   OH238597   5.858   1.042   6.314
12885TIP3    H138598   5.837   1.081   6.399
12885TIP3    H238599   5.873   1.116   6.257
12886TIP3   OH238600   6.404   6.556   2.982
12886TIP3    H138601   6.458   6.583   2.907
12886TIP3    H238602   6.437   6.607   3.056
12887TIP3   OH238603   2.963   0.745   0.871
12887TIP3    H138604   2.882   0.796   0.874
12887TIP3    H238605   3.032   0.810   0.856
12888TIP3   OH238606   0.585   7.690   5.699
12888TIP3    H138607   0.530   7.616   5.725
12888TIP3    H238608   0.675   7.657   5.706
12889TIP3   OH238609   2.062   2.869   4.385
12889TIP3    H138610   2.042   2.960   4.408
12889TIP3    H238611   1.992   2.845   4.325
12890TIP3   OH238612   5.794   7.768   4.322
12890TIP3    H138613   5.716   7.810   4.360
12890TIP3    H238614   5.790   7.678   4.355
12891TIP3   OH238615   5.106   2.643   0.512
12891TIP3    H138616   5.156   2.578   0.462
12891TIP3    H238617   5.067   2.699   0.446
12892TIP3   OH238618   1.196   3.397   1.215
12892TIP3    H138619   1.265   3.397   1.282
12892TIP3    H238620   1.232   3.447   1.143
12893TIP3   OH238621   4.203   7.605   4.382
12893TIP3    H138622   4.168   7.635   4.298
12893TIP3    H238623   4.274   7.665   4.402
12894TIP3   OH238624   2.025   4.276   1.129
12894TIP3    H138625   1.974   4.308   1.055
12894TIP3    H238626   2.094   4.341   1.141
12895TIP3   OH238627   7.552   5.465   5.365
12895TIP3    H138628   7.629   5.446   5.420
12895TIP3    H238629   7.514   5.544   5.403
12896TIP3   OH238630   4.127   1.041   2.206
12896TIP3    H138631   4.162   1.105   2.267
12896TIP3    H238632   4.087   0.974   2.262
12897TIP3   OH238633   7.043   1.288   4.175
12897TIP3    H138634   6.984   1.289   4.099
12897TIP3    H238635   6.985   1.298   4.250
12898TIP3   OH238636   3.247   1.742   1.340
12898TIP3    H138637   3.198   1.664   1.365
12898TIP3    H238638   3.246   1.797   1.418
12899TIP3   OH238639   0.767   6.067   0.273
12899TIP3    H138640   0.739   5.979   0.299
12899TIP3    H238641   0.710   6.089   0.199
12900TIP3   OH238642   7.453   2.498   0.354
12900TIP3    H138643   7.504   2.564   0.402
12900TIP3    H238644   7.519   2.441   0.315
12901TIP3   OH238645   2.584   7.759   3.615
12901TIP3    H138646   2.501   7.794   3.647
12901TIP3    H238647   2.642   7.835   3.610
12902TIP3   OH238648   5.788   2.690   6.013
12902TIP3    H138649   5.833   2.673   5.931
12902TIP3    H238650   5.743   2.608   6.034
12903TIP3   OH238651   4.205   1.138   3.841
12903TIP3    H138652   4.142   1.068   3.825
12903TIP3    H238653   4.152   1.209   3.878
12904TIP3   OH238654   2.744   1.542   0.298
12904TIP3    H138655   2.769   1.470   0.356
12904TIP3    H238656   2.676   1.588   0.345
12905TIP3   OH238657   3.737   2.730   4.098
12905TIP3    H138658   3.722   2.709   4.190
12905TIP3    H238659   3.823   2.771   4.096
12906TIP3   OH238660   0.835   5.910   1.098
12906TIP3    H138661   0.828   6.003   1.076
12906TIP3    H238662   0.752   5.888   1.140
12907TIP3   OH238663   8.113   4.942   1.217
12907TIP3    H138664   8.049   4.953   1.288
12907TIP3    H238665   8.166   4.868   1.245
12908TIP3   OH238666   6.825   6.411   5.736
12908TIP3    H138667   6.807   6.459   5.816
12908TIP3    H238668   6.896   6.460   5.694
12909TIP3   OH238669   3.910   4.099   2.389
12909TIP3    H138670   3.940   4.189   2.376
12909TIP3    H238671   3.990   4.047   2.392
12910TIP3   OH238672   4.282   7.683   6.759
12910TIP3    H138673   4.233   7.694   6.677
12910TIP3    H238674   4.284   7.588   6.773
12911TIP3   OH238675   1.772   0.233   6.103
12911TIP3    H138676   1.828   0.185   6.164
12911TIP3    H238677   1.828   0.250   6.028
12912TIP3   OH238678   1.152   5.727   2.942
12912TIP3    H138679   1.062   5.720   2.910
12912TIP3    H238680   1.201   5.663   2.891
12913TIP3   OH238681   2.394   5.954   4.707
12913TIP3    H138682   2.374   5.889   4.640
12913TIP3    H238683   2.402   5.903   4.788
12914TIP3   OH238684   1.182   5.812   6.094
12914TIP3    H138685   1.139   5.726   6.096
12914TIP3    H238686   1.254   5.801   6.032
12915TIP3   OH238687   6.723   3.305   6.572
12915TIP3    H138688   6.771   3.237   6.618
12915TIP3    H238689   6.648   3.259   6.533
12916TIP3   OH238690   7.189   1.986   1.997
12916TIP3    H138691   7.147   1.900   1.996
12916TIP3    H238692   7.282   1.966   1.998
12917TIP3   OH238693   7.382   4.258   1.620
12917TIP3    H138694   7.349   4.184   1.670
12917TIP3    H238695   7.318   4.271   1.551
12918TIP3   OH238696   2.428   7.253   4.973
12918TIP3    H138697   2.512   7.220   5.005
12918TIP3    H238698   2.427   7.229   4.880
12919TIP3   OH238699   0.430   4.756   4.347
12919TIP3    H138700   0.388   4.760   4.262
12919TIP3    H238701   0.400   4.836   4.392
12920TIP3   OH238702   7.100   5.955   0.355
12920TIP3    H138703   7.027   5.992   0.307
12920TIP3    H238704   7.177   5.978   0.304
12921TIP3   OH238705   4.610   7.514   5.066
12921TIP3    H138706   4.567   7.532   4.983
12921TIP3    H238707   4.553   7.448   5.108
12922TIP3   OH238708   0.872   5.280   0.494
12922TIP3    H138709   0.841   5.338   0.563
12922TIP3    H238710   0.872   5.334   0.415
12923TIP3   OH238711   0.336   1.102   2.034
12923TIP3    H138712   0.285   1.167   2.083
12923TIP3    H238713   0.421   1.101   2.077
12924TIP3   OH238714   5.097   3.475   2.467
12924TIP3    H138715   5.112   3.393   2.420
12924TIP3    H238716   5.006   3.469   2.497
12925TIP3   OH238717   8.140   5.812   1.569
12925TIP3    H138718   8.128   5.722   1.602
12925TIP3    H238719   8.192   5.855   1.637
12926TIP3   OH238720   1.953   1.788   6.564
12926TIP3    H138721   2.019   1.729   6.601
12926TIP3    H238722   2.004   1.856   6.520
12927TIP3   OH238723   3.195   1.545   4.159
12927TIP3    H138724   3.248   1.521   4.083
12927TIP3    H238725   3.162   1.632   4.139
12928TIP3   OH238726   3.932   2.887   3.417
12928TIP3    H138727   3.873   2.942   3.468
12928TIP3    H238728   3.989   2.846   3.482
12929TIP3   OH238729   1.758   4.619   0.675
12929TIP3    H138730   1.772   4.690   0.738
12929TIP3    H238731   1.816   4.641   0.602
12930TIP3   OH238732   7.398   2.091   4.345
12930TIP3    H138733   7.489   2.117   4.357
12930TIP3    H238734   7.348   2.152   4.399
12931TIP3   OH238735   7.760   3.459   1.765
12931TIP3    H138736   7.772   3.541   1.717
12931TIP3    H238737   7.826   3.462   1.834
12932TIP3   OH238738   3.139   3.901   2.202
12932TIP3    H138739   3.061   3.904   2.257
12932TIP3    H238740   3.189   3.978   2.226
12933TIP3   OH238741   4.890   7.147   2.245
12933TIP3    H138742   4.884   7.230   2.198
12933TIP3    H238743   4.800   7.117   2.252
12934TIP3   OH238744   7.917   4.496   3.094
12934TIP3    H138745   7.998   4.496   3.144
12934TIP3    H238746   7.899   4.589   3.076
12935TIP3   OH238747   3.398   6.991   3.117
12935TIP3    H138748   3.482   7.016   3.155
12935TIP3    H238749   3.417   6.981   3.023
12936TIP3   OH238750   4.176   4.150   1.710
12936TIP3    H138751   4.166   4.123   1.801
12936TIP3    H238752   4.247   4.214   1.711
12937TIP3   OH238753   3.475   0.167   5.467
12937TIP3    H138754   3.473   0.257   5.500
12937TIP3    H238755   3.567   0.142   5.469
12938TIP3   OH238756   6.850   5.262   4.689
12938TIP3    H138757   6.890   5.175   4.682
12938TIP3    H238758   6.909   5.312   4.745
12939TIP3   OH238759   4.179   5.945   6.580
12939TIP3    H138760   4.084   5.954   6.591
12939TIP3    H238761   4.213   5.941   6.669
12940TIP3   OH238762   6.705   3.603   4.014
12940TIP3    H138763   6.775   3.538   4.020
12940TIP3    H238764   6.706   3.647   4.099
12941TIP3   OH238765   1.165   4.457   5.829
12941TIP3    H138766   1.116   4.441   5.910
12941TIP3    H238767   1.140   4.384   5.771
12942TIP3   OH238768   7.503   6.758   2.944
12942TIP3    H138769   7.584   6.785   2.986
12942TIP3    H238770   7.436   6.816   2.981
12943TIP3   OH238771   7.099   5.201   3.367
12943TIP3    H138772   7.063   5.270   3.422
12943TIP3    H238773   7.164   5.158   3.423
12944TIP3   OH238774   6.377   0.970   3.514
12944TIP3    H138775   6.404   1.062   3.513
12944TIP3    H238776   6.316   0.964   3.588
12945TIP3   OH238777   8.105   6.610   1.731
12945TIP3    H138778   8.039   6.639   1.669
12945TIP3    H238779   8.126   6.689   1.782
12946TIP3   OH238780   4.492   5.384   3.359
12946TIP3    H138781   4.559   5.356   3.296
12946TIP3    H238782   4.541   5.434   3.424
12947TIP3   OH238783   7.131   0.653   1.929
12947TIP3    H138784   7.148   0.744   1.955
12947TIP3    H238785   7.108   0.659   1.836
12948TIP3   OH238786   2.560   7.481   2.140
12948TIP3    H138787   2.591   7.456   2.227
12948TIP3    H238788   2.618   7.552   2.114
12949TIP3   OH238789   1.646   0.322   3.204
12949TIP3    H138790   1.618   0.261   3.272
12949TIP3    H238791   1.581   0.392   3.206
12950TIP3   OH238792   3.723   6.150   1.362
12950TIP3    H138793   3.723   6.116   1.273
12950TIP3    H238794   3.766   6.082   1.414
12951TIP3   OH238795   0.960   0.899   5.221
12951TIP3    H138796   1.010   0.838   5.167
12951TIP3    H238797   0.955   0.979   5.168
12952TIP3   OH238798   2.381   4.421   1.966
12952TIP3    H138799   2.294   4.419   1.927
12952TIP3    H238800   2.367   4.390   2.056
12953TIP3   OH238801   0.368   1.508   5.816
12953TIP3    H138802   0.374   1.451   5.892
12953TIP3    H238803   0.365   1.597   5.852
12954TIP3   OH238804   1.634   6.873   4.198
12954TIP3    H138805   1.624   6.901   4.290
12954TIP3    H238806   1.663   6.783   4.204
12955TIP3   OH238807   3.802   6.835   5.883
12955TIP3    H138808   3.754   6.906   5.840
12955TIP3    H238809   3.832   6.874   5.965
12956TIP3   OH238810   2.503   5.583   0.856
12956TIP3    H138811   2.509   5.608   0.764
12956TIP3    H238812   2.419   5.619   0.885
12957TIP3   OH238813   1.007   6.986   0.242
12957TIP3    H138814   0.922   7.023   0.218
12957TIP3    H238815   1.066   7.061   0.242
12958TIP3   OH238816   6.585   4.969   5.770
12958TIP3    H138817   6.663   5.019   5.748
12958TIP3    H238818   6.524   5.033   5.807
12959TIP3   OH238819   5.206   2.934   2.631
12959TIP3    H138820   5.276   2.999   2.621
12959TIP3    H238821   5.160   2.937   2.547
12960TIP3   OH238822   0.133   0.147   2.791
12960TIP3    H138823   0.198   0.208   2.826
12960TIP3    H238824   0.094   0.107   2.869
12961TIP3   OH238825   4.006   4.420   5.953
12961TIP3    H138826   4.006   4.473   6.033
12961TIP3    H238827   3.997   4.484   5.882
12962TIP3   OH238828   5.737   2.564   1.518
12962TIP3    H138829   5.789   2.583   1.597
12962TIP3    H238830   5.755   2.638   1.460
12963TIP3   OH238831   5.701   0.044   6.721
12963TIP3    H138832   5.686   0.031   6.814
12963TIP3    H238833   5.743   0.131   6.715
12964TIP3   OH238834   6.992   3.360   6.344
12964TIP3    H138835   6.913   3.413   6.333
12964TIP3    H238836   7.048   3.387   6.272
12965TIP3   OH238837   3.540   6.293   3.933
12965TIP3    H138838   3.595   6.263   3.861
12965TIP3    H238839   3.572   6.382   3.952
12966TIP3   OH238840   3.203   6.510   0.434
12966TIP3    H138841   3.154   6.518   0.352
12966TIP3    H238842   3.292   6.486   0.407
12967TIP3   OH238843   7.365   0.999   0.512
12967TIP3    H138844   7.410   0.915   0.512
12967TIP3    H238845   7.309   0.997   0.590
12968TIP3   OH238846   6.929   1.033   5.814
12968TIP3    H138847   6.919   1.013   5.907
12968TIP3    H238848   6.903   1.124   5.805
12969TIP3   OH238849   3.083   1.412   1.787
12969TIP3    H138850   2.995   1.451   1.785
12969TIP3    H238851   3.068   1.318   1.784
12970TIP3   OH238852   4.642   6.373   1.259
12970TIP3    H138853   4.568   6.314   1.245
12970TIP3    H238854   4.701   6.325   1.316
12971TIP3   OH238855   0.392   7.240   3.348
12971TIP3    H138856   0.388   7.336   3.343
12971TIP3    H238857   0.379   7.211   3.258
12972TIP3   OH238858   3.587   3.157   5.839
12972TIP3    H138859   3.589   3.096   5.766
12972TIP3    H238860   3.494   3.169   5.858
12973TIP3   OH238861   4.689   4.339   2.731
12973TIP3    H138862   4.653   4.391   2.803
12973TIP3    H238863   4.614   4.317   2.677
12974TIP3   OH238864   5.899   3.294   2.796
12974TIP3    H138865   5.902   3.319   2.889
12974TIP3    H238866   5.949   3.213   2.791
12975TIP3   OH238867   2.104   1.810   2.308
12975TIP3    H138868   2.091   1.887   2.363
12975TIP3    H238869   2.181   1.831   2.255
12976TIP3   OH238870   7.498   7.569   6.367
12976TIP3    H138871   7.571   7.539   6.422
12976TIP3    H238872   7.540   7.616   6.295
12977TIP3   OH238873   8.255   5.782   3.242
12977TIP3    H138874   8.241   5.855   3.182
12977TIP3    H238875   8.169   5.740   3.248
12978TIP3   OH238876   7.652   5.190   6.686
12978TIP3    H138877   7.575   5.204   6.631
12978TIP3    H238878   7.726   5.192   6.625
12979TIP3   OH238879   2.473   1.515   1.970
12979TIP3    H138880   2.538   1.449   1.945
12979TIP3    H238881   2.392   1.485   1.929
12980TIP3   OH238882   3.081   0.591   5.546
12980TIP3    H138883   3.082   0.497   5.530
12980TIP3    H238884   3.094   0.600   5.640
12981TIP3   OH238885   1.442   3.639   2.906
12981TIP3    H138886   1.534   3.624   2.882
12981TIP3    H238887   1.418   3.719   2.860
12982TIP3   OH238888   5.341   5.760   3.235
12982TIP3    H138889   5.357   5.847   3.198
12982TIP3    H238890   5.270   5.773   3.298
12983TIP3   OH238891   7.104   2.710   0.604
12983TIP3    H138892   7.030   2.727   0.546
12983TIP3    H238893   7.143   2.796   0.619
12984TIP3   OH238894   1.046   7.547   5.613
12984TIP3    H138895   1.110   7.617   5.600
12984TIP3    H238896   1.058   7.489   5.538
12985TIP3   OH238897   2.463   0.855   6.394
12985TIP3    H138898   2.492   0.843   6.485
12985TIP3    H238899   2.425   0.942   6.392
12986TIP3   OH238900   2.019   5.904   1.767
12986TIP3    H138901   2.105   5.942   1.784
12986TIP3    H238902   2.023   5.875   1.675
12987TIP3   OH238903   6.971   3.866   4.335
12987TIP3    H138904   7.003   3.954   4.315
12987TIP3    H238905   6.934   3.874   4.423
12988TIP3   OH238906   3.158   3.044   3.987
12988TIP3    H138907   3.203   2.999   4.059
12988TIP3    H238908   3.218   3.113   3.960
12989TIP3   OH238909   3.889   6.861   1.680
12989TIP3    H138910   3.877   6.905   1.765
12989TIP3    H238911   3.889   6.767   1.702
12990TIP3   OH238912   2.775   6.384   1.472
12990TIP3    H138913   2.717   6.451   1.508
12990TIP3    H238914   2.861   6.427   1.467
12991TIP3   OH238915   2.062   0.164   4.204
12991TIP3    H138916   2.120   0.170   4.128
12991TIP3    H238917   2.018   0.249   4.207
12992TIP3   OH238918   1.908   7.804   0.485
12992TIP3    H138919   1.973   7.770   0.423
12992TIP3    H238920   1.957   7.824   0.564
12993TIP3   OH238921   2.861   2.661   5.130
12993TIP3    H138922   2.785   2.719   5.121
12993TIP3    H238923   2.824   2.573   5.129
12994TIP3   OH238924   0.136   0.815   0.846
12994TIP3    H138925   0.206   0.880   0.839
12994TIP3    H238926   0.111   0.816   0.939
12995TIP3   OH238927   7.397   2.002   5.440
12995TIP3    H138928   7.420   1.963   5.355
12995TIP3    H238929   7.337   1.939   5.479
12996TIP3   OH238930   7.303   0.561   1.321
12996TIP3    H138931   7.309   0.600   1.234
12996TIP3    H238932   7.378   0.501   1.326
12997TIP3   OH238933   0.321   4.327   4.703
12997TIP3    H138934   0.370   4.386   4.646
12997TIP3    H238935   0.230   4.356   4.695
12998TIP3   OH238936   3.621   2.008   3.135
12998TIP3    H138937   3.700   2.059   3.152
12998TIP3    H238938   3.645   1.949   3.064
12999TIP3   OH238939   7.149   7.577   5.890
12999TIP3    H138940   7.132   7.485   5.910
12999TIP3    H238941   7.093   7.595   5.815
13000TIP3   OH238942   6.798   4.083   1.433
13000TIP3    H138943   6.783   4.002   1.482
13000TIP3    H238944   6.802   4.151   1.500
13001TIP3   OH238945   4.508   3.061   3.082
13001TIP3    H138946   4.548   2.974   3.076
13001TIP3    H238947   4.515   3.084   3.174
13002TIP3   OH238948   7.240   2.544   0.978
13002TIP3    H138949   7.194   2.619   1.016
13002TIP3    H238950   7.331   2.557   1.002
13003TIP3   OH238951   1.032   4.995   4.238
13003TIP3    H138952   1.027   5.032   4.150
13003TIP3    H238953   0.941   4.977   4.262
13004TIP3   OH238954   4.507   6.543   3.895
13004TIP3    H138955   4.433   6.555   3.836
13004TIP3    H238956   4.569   6.491   3.844
13005TIP3   OH238957   4.636   0.416   5.149
13005TIP3    H138958   4.719   0.413   5.101
13005TIP3    H238959   4.617   0.509   5.158
13006TIP3   OH238960   2.193   6.782   5.275
13006TIP3    H138961   2.190   6.852   5.339
13006TIP3    H238962   2.114   6.793   5.223
13007TIP3   OH238963   1.430   2.293   5.076
13007TIP3    H138964   1.432   2.348   4.998
13007TIP3    H238965   1.429   2.203   5.043
13008TIP3   OH238966   4.374   1.657   1.225
13008TIP3    H138967   4.447   1.715   1.205
13008TIP3    H238968   4.301   1.716   1.244
13009TIP3   OH238969   2.086   1.710   2.808
13009TIP3    H138970   2.094   1.805   2.818
13009TIP3    H238971   2.148   1.688   2.737
13010TIP3   OH238972   7.282   5.815   1.668
13010TIP3    H138973   7.247   5.879   1.730
13010TIP3    H238974   7.239   5.732   1.691
13011TIP3   OH238975   3.311   7.586   5.745
13011TIP3    H138976   3.240   7.537   5.787
13011TIP3    H238977   3.270   7.668   5.717
13012TIP3   OH238978   5.496   1.144   1.411
13012TIP3    H138979   5.548   1.178   1.484
13012TIP3    H238980   5.560   1.131   1.341
13013TIP3   OH238981   2.202   1.868   4.895
13013TIP3    H138982   2.191   1.842   4.804
13013TIP3    H238983   2.270   1.935   4.893
13014TIP3   OH238984   2.585   2.759   6.166
13014TIP3    H138985   2.668   2.807   6.164
13014TIP3    H238986   2.541   2.785   6.086
13015TIP3   OH238987   2.725   7.809   3.350
13015TIP3    H138988   2.723   7.794   3.256
13015TIP3    H238989   2.651   7.760   3.385
13016TIP3   OH238990   0.435   1.845   1.815
13016TIP3    H138991   0.485   1.906   1.869
13016TIP3    H238992   0.500   1.783   1.782
13017TIP3   OH238993   2.642   1.199   0.320
13017TIP3    H138994   2.599   1.225   0.238
13017TIP3    H238995   2.603   1.257   0.386
13018TIP3   OH238996   2.798   6.915   6.313
13018TIP3    H138997   2.879   6.914   6.263
13018TIP3    H238998   2.747   6.986   6.275
13019TIP3   OH238999   7.353   1.356   6.340
13019TIP3    H139000   7.390   1.420   6.280
13019TIP3    H239001   7.320   1.286   6.284
13020TIP3   OH239002   8.174   5.455   2.689
13020TIP3    H139003   8.196   5.421   2.776
13020TIP3    H239004   8.258   5.462   2.644
13021TIP3   OH239005   7.421   1.444   0.955
13021TIP3    H139006   7.398   1.424   0.865
13021TIP3    H239007   7.423   1.540   0.959
13022TIP3   OH239008   3.222   2.312   0.581
13022TIP3    H139009   3.299   2.341   0.629
13022TIP3    H239010   3.248   2.229   0.541
13023TIP3   OH239011   8.210   3.240   5.326
13023TIP3    H139012   8.233   3.150   5.304
13023TIP3    H239013   8.116   3.239   5.338
13024TIP3   OH239014   4.500   1.528   6.091
13024TIP3    H139015   4.573   1.469   6.106
13024TIP3    H239016   4.437   1.506   6.160
13025TIP3   OH239017   0.214   2.254   5.206
13025TIP3    H139018   0.147   2.299   5.256
13025TIP3    H239019   0.269   2.212   5.272
13026TIP3   OH239020   1.529   5.944   5.876
13026TIP3    H139021   1.619   5.926   5.903
13026TIP3    H239022   1.494   5.999   5.946
13027TIP3   OH239023   0.460   5.057   5.553
13027TIP3    H139024   0.450   5.121   5.624
13027TIP3    H239025   0.421   5.099   5.477
13028TIP3   OH239026   2.880   0.937   2.968
13028TIP3    H139027   2.859   0.976   2.884
13028TIP3    H239028   2.797   0.935   3.016
13029TIP3   OH239029   1.078   1.375   1.286
13029TIP3    H139030   1.037   1.310   1.342
13029TIP3    H239031   1.067   1.340   1.197
13030TIP3   OH239032   1.967   5.606   4.718
13030TIP3    H139033   1.899   5.539   4.731
13030TIP3    H239034   1.921   5.689   4.723
13031TIP3   OH239035   6.339   6.598   5.685
13031TIP3    H139036   6.398   6.596   5.609
13031TIP3    H239037   6.397   6.614   5.760
13032TIP3   OH239038   0.005   1.121   5.439
13032TIP3    H139039   0.029   1.153   5.352
13032TIP3    H239040   0.049   1.180   5.499
13033TIP3   OH239041   5.672   4.701   6.416
13033TIP3    H139042   5.613   4.727   6.487
13033TIP3    H239043   5.732   4.639   6.456
13034TIP3   OH239044   5.765   2.001   1.609
13034TIP3    H139045   5.728   1.924   1.653
13034TIP3    H239046   5.728   2.075   1.658
13035TIP3   OH239047   8.132   7.481   4.586
13035TIP3    H139048   8.131   7.576   4.591
13035TIP3    H239049   8.190   7.461   4.513
13036TIP3   OH239050   4.418   3.931   0.492
13036TIP3    H139051   4.366   3.929   0.572
13036TIP3    H239052   4.355   3.946   0.422
13037TIP3   OH239053   2.151   1.274   0.963
13037TIP3    H139054   2.242   1.300   0.950
13037TIP3    H239055   2.156   1.191   1.010
13038TIP3   OH239056   2.133   7.553   1.859
13038TIP3    H139057   2.142   7.594   1.773
13038TIP3    H239058   2.194   7.480   1.857
13039TIP3   OH239059   2.735   1.435   3.026
13039TIP3    H139060   2.825   1.460   3.008
13039TIP3    H239061   2.684   1.478   2.957
13040TIP3   OH239062   7.482   6.429   0.925
13040TIP3    H139063   7.395   6.451   0.891
13040TIP3    H239064   7.491   6.483   1.003
13041TIP3   OH239065   1.296   0.773   4.550
13041TIP3    H139066   1.315   0.691   4.595
13041TIP3    H239067   1.272   0.746   4.461
13042TIP3   OH239068   5.893   6.492   4.904
13042TIP3    H139069   5.918   6.543   4.827
13042TIP3    H239070   5.976   6.455   4.936
13043TIP3   OH239071   5.615   1.795   2.831
13043TIP3    H139072   5.536   1.838   2.865
13043TIP3    H239073   5.668   1.776   2.909
13044TIP3   OH239074   0.911   2.367   0.653
13044TIP3    H139075   0.935   2.380   0.745
13044TIP3    H239076   0.930   2.275   0.637
13045TIP3   OH239077   0.093   7.272   2.177
13045TIP3    H139078   0.060   7.183   2.163
13045TIP3    H239079   0.180   7.260   2.214
13046TIP3   OH239080   8.030   5.238   3.261
13046TIP3    H139081   8.071   5.160   3.298
13046TIP3    H239082   7.942   5.239   3.299
13047TIP3   OH239083   7.578   7.416   1.775
13047TIP3    H139084   7.625   7.445   1.853
13047TIP3    H239085   7.529   7.338   1.803
13048TIP3   OH239086   7.750   6.103   0.637
13048TIP3    H139087   7.803   6.152   0.700
13048TIP3    H239088   7.683   6.165   0.608
13049TIP3   OH239089   1.190   6.335   0.280
13049TIP3    H139090   1.276   6.337   0.239
13049TIP3    H239091   1.208   6.325   0.373
13050TIP3   OH239092  -0.013   3.446   0.856
13050TIP3    H139093   0.070   3.492   0.840
13050TIP3    H239094  -0.076   3.489   0.798
13051TIP3   OH239095   0.816   7.000   5.959
13051TIP3    H139096   0.729   6.962   5.950
13051TIP3    H239097   0.876   6.932   5.928
13052TIP3   OH239098   8.160   2.187   1.633
13052TIP3    H139099   8.253   2.172   1.617
13052TIP3    H239100   8.120   2.101   1.625
13053TIP3   OH239101   0.067   0.146   3.259
13053TIP3    H139102   0.133   0.078   3.274
13053TIP3    H239103  -0.016   0.103   3.278
13054TIP3   OH239104   4.300   4.412   6.029
13054TIP3    H139105   4.300   4.471   6.104
13054TIP3    H239106   4.208   4.386   6.018
13055TIP3   OH239107   2.779   3.660   5.350
13055TIP3    H139108   2.857   3.615   5.383
13055TIP3    H239109   2.779   3.641   5.256
13056TIP3   OH239110   1.621   5.708   2.420
13056TIP3    H139111   1.619   5.749   2.506
13056TIP3    H239112   1.667   5.772   2.365
13057TIP3   OH239113   7.382   4.706   4.691
13057TIP3    H139114   7.333   4.690   4.610
13057TIP3    H239115   7.415   4.795   4.682
13058TIP3   OH239116   8.098   3.357   5.046
13058TIP3    H139117   8.106   3.406   5.128
13058TIP3    H239118   8.161   3.286   5.054
13059TIP3   OH239119   5.878   3.359   5.575
13059TIP3    H139120   5.852   3.425   5.511
13059TIP3    H239121   5.833   3.384   5.655
13060TIP3   OH239122   7.861   1.882   2.079
13060TIP3    H139123   7.862   1.978   2.069
13060TIP3    H239124   7.844   1.869   2.172
13061TIP3   OH239125   2.142   4.804   2.475
13061TIP3    H139126   2.179   4.892   2.488
13061TIP3    H239127   2.156   4.760   2.559
13062TIP3   OH239128   0.953   0.510   2.703
13062TIP3    H139129   0.901   0.436   2.672
13062TIP3    H239130   0.967   0.564   2.625
13063TIP3   OH239131   3.019   0.251   2.400
13063TIP3    H139132   3.048   0.333   2.439
13063TIP3    H239133   3.074   0.241   2.322
13064TIP3   OH239134   3.794   1.564   6.253
13064TIP3    H139135   3.731   1.615   6.305
13064TIP3    H239136   3.739   1.511   6.195
13065TIP3   OH239137   1.114   6.342   2.998
13065TIP3    H139138   1.098   6.313   2.908
13065TIP3    H239139   1.207   6.322   3.012
13066TIP3   OH239140   5.667   2.433   5.441
13066TIP3    H139141   5.679   2.404   5.531
13066TIP3    H239142   5.756   2.449   5.409
13067TIP3   OH239143   6.160   2.164   0.928
13067TIP3    H139144   6.186   2.154   1.020
13067TIP3    H239145   6.152   2.259   0.915
13068TIP3   OH239146   7.042   3.939   5.923
13068TIP3    H139147   7.044   4.013   5.862
13068TIP3    H239148   6.968   3.886   5.893
13069TIP3   OH239149   2.738   0.533   3.494
13069TIP3    H139150   2.751   0.479   3.572
13069TIP3    H239151   2.824   0.534   3.451
13070TIP3   OH239152   4.057   3.277   1.048
13070TIP3    H139153   4.144   3.237   1.043
13070TIP3    H239154   4.061   3.352   0.989
13071TIP3   OH239155   0.561   3.521   4.928
13071TIP3    H139156   0.517   3.443   4.895
13071TIP3    H239157   0.627   3.542   4.861
13072TIP3   OH239158   6.152   7.545   4.219
13072TIP3    H139159   6.225   7.583   4.169
13072TIP3    H239160   6.073   7.574   4.172
13073TIP3   OH239161   1.754   6.275   5.131
13073TIP3    H139162   1.696   6.338   5.175
13073TIP3    H239163   1.699   6.198   5.117
13074TIP3   OH239164   0.112   7.229   4.936
13074TIP3    H139165   0.110   7.174   4.857
13074TIP3    H239166   0.061   7.306   4.913
13075TIP3   OH239167   2.302   7.151   5.797
13075TIP3    H139168   2.346   7.077   5.839
13075TIP3    H239169   2.216   7.117   5.771
13076TIP3   OH239170   0.297   5.072   5.945
13076TIP3    H139171   0.391   5.057   5.942
13076TIP3    H239172   0.271   5.041   6.032
13077TIP3   OH239173   0.545   5.070   3.747
13077TIP3    H139174   0.486   5.008   3.704
13077TIP3    H239175   0.518   5.068   3.839
13078TIP3   OH239176   4.124   5.926   3.460
13078TIP3    H139177   4.173   5.846   3.477
13078TIP3    H239178   4.128   5.975   3.543
13079TIP3   OH239179   6.670   2.087   6.409
13079TIP3    H139180   6.609   2.147   6.452
13079TIP3    H239181   6.638   2.082   6.319
13080TIP3   OH239182   6.905   4.591   2.950
13080TIP3    H139183   6.952   4.661   2.994
13080TIP3    H239184   6.850   4.635   2.886
13081TIP3   OH239185   7.608   1.546   1.224
13081TIP3    H139186   7.582   1.460   1.257
13081TIP3    H239187   7.696   1.534   1.190
13082TIP3   OH239188   7.202   4.157   2.484
13082TIP3    H139189   7.283   4.164   2.434
13082TIP3    H239190   7.225   4.101   2.559
13083TIP3   OH239191   2.564   2.838   2.358
13083TIP3    H139192   2.566   2.930   2.332
13083TIP3    H239193   2.516   2.838   2.441
13084TIP3   OH239194   6.324   2.436   2.785
13084TIP3    H139195   6.242   2.389   2.772
13084TIP3    H239196   6.332   2.493   2.709
13085TIP3   OH239197   3.815   4.970   2.220
13085TIP3    H139198   3.730   4.931   2.242
13085TIP3    H239199   3.807   5.061   2.248
13086TIP3   OH239200   6.581   6.154   5.852
13086TIP3    H139201   6.665   6.114   5.829
13086TIP3    H239202   6.553   6.199   5.772
13087TIP3   OH239203   5.749   0.605   0.824
13087TIP3    H139204   5.666   0.619   0.870
13087TIP3    H239205   5.725   0.555   0.746
13088TIP3   OH239206   0.328   0.935   3.294
13088TIP3    H139207   0.385   0.873   3.338
13088TIP3    H239208   0.293   0.990   3.364
13089TIP3   OH239209   2.606   0.988   4.161
13089TIP3    H139210   2.562   0.963   4.242
13089TIP3    H239211   2.606   1.084   4.162
13090TIP3   OH239212   8.116   3.948   5.856
13090TIP3    H139213   8.183   3.982   5.796
13090TIP3    H239214   8.049   3.911   5.799
13091TIP3   OH239215   6.195   4.678   3.110
13091TIP3    H139216   6.145   4.723   3.042
13091TIP3    H239217   6.142   4.688   3.189
13092TIP3   OH239218   1.344   1.440   1.928
13092TIP3    H139219   1.252   1.455   1.911
13092TIP3    H239220   1.390   1.492   1.862
13093TIP3   OH239221   0.311   3.693   1.121
13093TIP3    H139222   0.309   3.714   1.028
13093TIP3    H239223   0.234   3.637   1.135
13094TIP3   OH239224   0.197   0.045   0.124
13094TIP3    H139225   0.263   0.084   0.067
13094TIP3    H239226   0.193  -0.047   0.098
13095TIP3   OH239227   1.682   7.154   4.693
13095TIP3    H139228   1.698   7.131   4.784
13095TIP3    H239229   1.594   7.193   4.692
13096TIP3   OH239230   3.682   1.728   4.437
13096TIP3    H139231   3.766   1.751   4.478
13096TIP3    H239232   3.695   1.748   4.344
13097TIP3   OH239233   3.112   2.895   2.106
13097TIP3    H139234   3.096   2.892   2.012
13097TIP3    H239235   3.175   2.967   2.117
13098TIP3   OH239236   4.456   6.927   2.674
13098TIP3    H139237   4.493   6.852   2.628
13098TIP3    H239238   4.501   7.003   2.637
13099TIP3   OH239239   5.368   6.549   2.028
13099TIP3    H139240   5.449   6.499   2.037
13099TIP3    H239241   5.387   6.632   2.073
13100TIP3   OH239242   0.020   7.702   1.796
13100TIP3    H139243   0.085   7.770   1.818
13100TIP3    H239244  -0.062   7.736   1.831
13101TIP3   OH239245   1.195   0.593   0.218
13101TIP3    H139246   1.211   0.541   0.297
13101TIP3    H239247   1.104   0.622   0.227
13102TIP3   OH239248   1.506   1.528   3.380
13102TIP3    H139249   1.586   1.479   3.398
13102TIP3    H239250   1.533   1.595   3.317
13103TIP3   OH239251   7.344   0.926   2.894
13103TIP3    H139252   7.313   0.841   2.861
13103TIP3    H239253   7.265   0.969   2.926
13104TIP3   OH239254   0.096   0.182   6.048
13104TIP3    H139255   0.167   0.238   6.017
13104TIP3    H239256   0.141   0.106   6.087
13105TIP3   OH239257   1.401   4.454   0.973
13105TIP3    H139258   1.316   4.486   0.942
13105TIP3    H239259   1.421   4.509   1.048
13106TIP3   OH239260   4.178   2.229   3.653
13106TIP3    H139261   4.131   2.197   3.576
13106TIP3    H239262   4.175   2.156   3.714
13107TIP3   OH239263   1.977   6.856   5.087
13107TIP3    H139264   1.903   6.832   5.143
13107TIP3    H239265   1.966   6.949   5.070
13108TIP3   OH239266   5.597   3.320   2.476
13108TIP3    H139267   5.680   3.287   2.441
13108TIP3    H239268   5.563   3.377   2.407
13109TIP3   OH239269   5.040   0.713   4.460
13109TIP3    H139270   4.962   0.728   4.514
13109TIP3    H239271   5.006   0.693   4.373
13110TIP3   OH239272   3.305   3.462   6.384
13110TIP3    H139273   3.217   3.424   6.378
13110TIP3    H239274   3.362   3.399   6.340
13111TIP3   OH239275   1.178   2.992   0.365
13111TIP3    H139276   1.095   2.971   0.408
13111TIP3    H239277   1.182   2.933   0.290
13112TIP3   OH239278   6.594   5.467   3.996
13112TIP3    H139279   6.544   5.527   3.941
13112TIP3    H239280   6.547   5.466   4.080
13113TIP3   OH239281   5.167   0.813   3.293
13113TIP3    H139282   5.230   0.880   3.320
13113TIP3    H239283   5.084   0.860   3.286
13114TIP3   OH239284   7.681   3.339   2.451
13114TIP3    H139285   7.591   3.328   2.482
13114TIP3    H239286   7.674   3.338   2.356
13115TIP3   OH239287   7.376   5.995   0.201
13115TIP3    H139288   7.416   5.911   0.224
13115TIP3    H239289   7.390   6.004   0.107
13116TIP3   OH239290   5.973   6.709   2.977
13116TIP3    H139291   6.007   6.779   3.034
13116TIP3    H239292   5.951   6.754   2.896
13117TIP3   OH239293   3.616   4.068   3.803
13117TIP3    H139294   3.688   4.006   3.817
13117TIP3    H239295   3.563   4.062   3.883
13118TIP3   OH239296   0.916   1.149   1.107
13118TIP3    H139297   1.002   1.188   1.119
13118TIP3    H239298   0.933   1.060   1.077
13119TIP3   OH239299   5.025   7.774   4.730
13119TIP3    H139300   4.971   7.735   4.799
13119TIP3    H239301   5.108   7.794   4.774
13120TIP3   OH239302   6.099   6.792   3.834
13120TIP3    H139303   6.158   6.749   3.771
13120TIP3    H239304   6.086   6.727   3.903
13121TIP3   OH239305   1.481   1.420   4.027
13121TIP3    H139306   1.534   1.420   3.948
13121TIP3    H239307   1.510   1.342   4.075
13122TIP3   OH239308   0.647   0.988   6.547
13122TIP3    H139309   0.634   0.913   6.489
13122TIP3    H239310   0.657   0.951   6.634
13123TIP3   OH239311   3.607   2.953   1.215
13123TIP3    H139312   3.596   3.027   1.156
13123TIP3    H239313   3.702   2.940   1.218
13124TIP3   OH239314   6.604   6.221   1.668
13124TIP3    H139315   6.531   6.202   1.609
13124TIP3    H239316   6.563   6.255   1.747
13125TIP3   OH239317   0.324   2.720   0.478
13125TIP3    H139318   0.339   2.625   0.486
13125TIP3    H239319   0.296   2.732   0.388
13126TIP3   OH239320   5.097   1.410   5.581
13126TIP3    H139321   5.042   1.488   5.577
13126TIP3    H239322   5.035   1.337   5.582
13127TIP3   OH239323   7.656   3.606   6.749
13127TIP3    H139324   7.689   3.533   6.697
13127TIP3    H239325   7.731   3.635   6.800
13128TIP3   OH239326   5.558   2.974   2.134
13128TIP3    H139327   5.638   2.921   2.129
13128TIP3    H239328   5.495   2.928   2.078
13129TIP3   OH239329   2.222   0.505   1.310
13129TIP3    H139330   2.138   0.544   1.335
13129TIP3    H239331   2.244   0.448   1.384
13130TIP3   OH239332   3.004   7.685   5.144
13130TIP3    H139333   2.932   7.621   5.147
13130TIP3    H239334   2.988   7.735   5.064
13131TIP3   OH239335   5.566   4.713   4.138
13131TIP3    H139336   5.609   4.764   4.207
13131TIP3    H239337   5.480   4.755   4.128
13132TIP3   OH239338   7.735   4.419   3.244
13132TIP3    H139339   7.818   4.442   3.202
13132TIP3    H239340   7.670   4.429   3.175
13133TIP3   OH239341   4.616   5.372   3.940
13133TIP3    H139342   4.556   5.362   4.014
13133TIP3    H239343   4.598   5.459   3.905
13134TIP3   OH239344  -0.010   4.219   2.712
13134TIP3    H139345   0.079   4.183   2.705
13134TIP3    H239346   0.000   4.300   2.762
13135TIP3   OH239347   0.267   3.473   6.642
13135TIP3    H139348   0.288   3.452   6.552
13135TIP3    H239349   0.191   3.531   6.636
13136TIP3   OH239350   6.636   5.253   2.397
13136TIP3    H139351   6.661   5.337   2.437
13136TIP3    H239352   6.670   5.258   2.308
13137TIP3   OH239353   0.652   7.714   0.362
13137TIP3    H139354   0.622   7.757   0.283
13137TIP3    H239355   0.733   7.760   0.386
13138TIP3   OH239356   7.367   0.109   1.062
13138TIP3    H139357   7.436   0.141   1.003
13138TIP3    H239358   7.357   0.017   1.038
13139TIP3   OH239359   1.250   6.393   2.681
13139TIP3    H139360   1.175   6.339   2.707
13139TIP3    H239361   1.309   6.333   2.637
13140TIP3   OH239362   8.256   6.301   2.755
13140TIP3    H139363   8.218   6.284   2.841
13140TIP3    H239364   8.247   6.396   2.744
13141TIP3   OH239365   1.770   5.348   4.497
13141TIP3    H139366   1.793   5.381   4.584
13141TIP3    H239367   1.807   5.260   4.494
13142TIP3   OH239368   5.362   0.275   0.132
13142TIP3    H139369   5.374   0.324   0.050
13142TIP3    H239370   5.275   0.235   0.123
13143TIP3   OH239371   0.062   2.714   1.714
13143TIP3    H139372   0.141   2.682   1.669
13143TIP3    H239373   0.000   2.642   1.708
13144TIP3   OH239374   6.313   4.409   4.167
13144TIP3    H139375   6.373   4.458   4.110
13144TIP3    H239376   6.254   4.476   4.201
13145TIP3   OH239377   8.125   6.837   5.802
13145TIP3    H139378   8.209   6.792   5.813
13145TIP3    H239379   8.060   6.767   5.804
13146TIP3   OH239380   8.252   6.551   2.584
13146TIP3    H139381   8.338   6.574   2.619
13146TIP3    H239382   8.189   6.587   2.647
13147TIP3   OH239383   7.705   6.516   3.014
13147TIP3    H139384   7.651   6.540   2.939
13147TIP3    H239385   7.710   6.420   3.011
13148TIP3   OH239386   2.468   5.252   2.401
13148TIP3    H139387   2.458   5.161   2.375
13148TIP3    H239388   2.514   5.293   2.328
13149TIP3   OH239389   6.287   0.226   5.006
13149TIP3    H139390   6.198   0.255   5.029
13149TIP3    H239391   6.310   0.279   4.930
13150TIP3   OH239392   5.904   4.345   3.439
13150TIP3    H139393   5.995   4.368   3.420
13150TIP3    H239394   5.879   4.285   3.369
13151TIP3   OH239395   2.135   4.018   5.620
13151TIP3    H139396   2.133   3.966   5.700
13151TIP3    H239397   2.189   3.967   5.560
13152TIP3   OH239398   7.949   6.265   6.253
13152TIP3    H139399   7.952   6.171   6.275
13152TIP3    H239400   7.929   6.266   6.159
13153TIP3   OH239401   5.727   7.828   1.263
13153TIP3    H139402   5.781   7.804   1.188
13153TIP3    H239403   5.664   7.756   1.270
13154TIP3   OH239404   3.227   0.484   2.086
13154TIP3    H139405   3.200   0.531   2.008
13154TIP3    H239406   3.321   0.500   2.093
13155TIP3   OH239407   3.125   7.378   3.792
13155TIP3    H139408   3.036   7.390   3.758
13155TIP3    H239409   3.146   7.286   3.773
13156TIP3   OH239410   5.412   3.367   6.088
13156TIP3    H139411   5.330   3.351   6.135
13156TIP3    H239412   5.408   3.308   6.013
13157TIP3   OH239413   5.370   3.388   5.150
13157TIP3    H139414   5.416   3.412   5.230
13157TIP3    H239415   5.380   3.293   5.145
13158TIP3   OH239416   7.849   3.651   3.930
13158TIP3    H139417   7.867   3.699   3.849
13158TIP3    H239418   7.755   3.633   3.926
13159TIP3   OH239419   1.071   1.864   1.225
13159TIP3    H139420   1.038   1.775   1.222
13159TIP3    H239421   1.028   1.903   1.301
13160TIP3   OH239422   4.219   6.891   4.994
13160TIP3    H139423   4.134   6.903   5.039
13160TIP3    H239424   4.284   6.907   5.062
13161TIP3   OH239425   7.483   3.649   4.736
13161TIP3    H139426   7.530   3.651   4.820
13161TIP3    H239427   7.550   3.632   4.671
13162TIP3   OH239428   7.205   6.156   6.213
13162TIP3    H139429   7.204   6.203   6.130
13162TIP3    H239430   7.298   6.145   6.233
13163TIP3   OH239431   1.333   3.770   1.562
13163TIP3    H139432   1.303   3.855   1.530
13163TIP3    H239433   1.293   3.763   1.649
13164TIP3   OH239434   1.703   3.106   5.129
13164TIP3    H139435   1.656   3.023   5.137
13164TIP3    H239436   1.789   3.083   5.095
13165TIP3   OH239437   1.338   2.594   5.177
13165TIP3    H139438   1.326   2.683   5.210
13165TIP3    H239439   1.424   2.596   5.135
13166TIP3   OH239440   8.155   2.518   1.689
13166TIP3    H139441   8.173   2.449   1.753
13166TIP3    H239442   8.123   2.471   1.612
13167TIP3   OH239443   5.414   0.489   3.827
13167TIP3    H139444   5.367   0.549   3.769
13167TIP3    H239445   5.400   0.402   3.788
13168TIP3   OH239446   3.155   3.677   3.183
13168TIP3    H139447   3.171   3.714   3.269
13168TIP3    H239448   3.123   3.588   3.201
13169TIP3   OH239449   0.520   4.993   4.014
13169TIP3    H139450   0.596   4.946   3.980
13169TIP3    H239451   0.449   4.929   4.014
13170TIP3   OH239452   3.977   7.242   1.402
13170TIP3    H139453   4.000   7.249   1.309
13170TIP3    H239454   3.943   7.329   1.425
13171TIP3   OH239455   3.000   5.068   2.954
13171TIP3    H139456   2.916   5.028   2.930
13171TIP3    H239457   3.001   5.152   2.907
13172TIP3   OH239458   4.442   5.979   0.367
13172TIP3    H139459   4.487   5.900   0.337
13172TIP3    H239460   4.351   5.952   0.380
13173TIP3   OH239461   1.929   3.763   0.301
13173TIP3    H139462   1.912   3.675   0.267
13173TIP3    H239463   1.845   3.793   0.333
13174TIP3   OH239464   1.380   1.820   4.775
13174TIP3    H139465   1.351   1.793   4.688
13174TIP3    H239466   1.331   1.764   4.836
13175TIP3   OH239467   2.566   6.645   4.952
13175TIP3    H139468   2.536   6.716   5.008
13175TIP3    H239469   2.501   6.639   4.882
13176TIP3   OH239470   4.304   0.750   1.290
13176TIP3    H139471   4.370   0.697   1.334
13176TIP3    H239472   4.228   0.746   1.348
13177TIP3   OH239473   2.295   5.929   2.994
13177TIP3    H139474   2.389   5.916   2.993
13177TIP3    H239475   2.283   6.020   3.020
13178TIP3   OH239476   6.818   1.335   1.984
13178TIP3    H139477   6.754   1.362   1.917
13178TIP3    H239478   6.807   1.240   1.990
13179TIP3   OH239479   7.306   3.773   2.848
13179TIP3    H139480   7.369   3.705   2.870
13179TIP3    H239481   7.234   3.761   2.911
13180TIP3   OH239482   4.431   4.944   3.938
13180TIP3    H139483   4.468   4.856   3.937
13180TIP3    H239484   4.432   4.972   3.847
13181TIP3   OH239485   7.996   2.214   4.271
13181TIP3    H139486   7.915   2.259   4.245
13181TIP3    H239487   8.027   2.265   4.346
13182TIP3   OH239488   3.842   4.383   4.022
13182TIP3    H139489   3.829   4.318   4.090
13182TIP3    H239490   3.884   4.457   4.066
13183TIP3   OH239491   6.206   0.946   0.338
13183TIP3    H139492   6.137   0.884   0.313
13183TIP3    H239493   6.200   1.016   0.272
13184TIP3   OH239494   3.238   6.684   0.631
13184TIP3    H139495   3.224   6.643   0.545
13184TIP3    H239496   3.153   6.679   0.674
13185TIP3   OH239497   4.269   2.198   3.345
13185TIP3    H139498   4.246   2.105   3.343
13185TIP3    H239499   4.350   2.202   3.397
13186TIP3   OH239500   3.159   6.723   1.807
13186TIP3    H139501   3.077   6.762   1.776
13186TIP3    H239502   3.164   6.746   1.900
13187TIP3   OH239503   4.672   0.721   1.945
13187TIP3    H139504   4.746   0.776   1.970
13187TIP3    H239505   4.648   0.676   2.026
13188TIP3   OH239506   2.213   5.673   0.714
13188TIP3    H139507   2.160   5.596   0.734
13188TIP3    H239508   2.247   5.702   0.799
13189TIP3   OH239509   0.972   5.334   4.440
13189TIP3    H139510   1.000   5.380   4.360
13189TIP3    H239511   0.904   5.391   4.477
13190TIP3   OH239512   3.405   2.091   1.466
13190TIP3    H139513   3.359   2.016   1.503
13190TIP3    H239514   3.394   2.081   1.371
13191TIP3   OH239515   7.327   7.637   2.504
13191TIP3    H139516   7.401   7.594   2.548
13191TIP3    H239517   7.276   7.565   2.467
13192TIP3   OH239518   5.513   6.503   5.699
13192TIP3    H139519   5.432   6.554   5.708
13192TIP3    H239520   5.583   6.569   5.700
13193TIP3   OH239521   2.686   3.390   5.860
13193TIP3    H139522   2.692   3.390   5.764
13193TIP3    H239523   2.727   3.307   5.887
13194TIP3   OH239524   5.825   6.143   6.274
13194TIP3    H139525   5.817   6.047   6.268
13194TIP3    H239526   5.746   6.175   6.230
13195TIP3   OH239527   7.531   7.250   4.963
13195TIP3    H139528   7.585   7.252   4.884
13195TIP3    H239529   7.444   7.224   4.931
13196TIP3   OH239530   6.499   1.883   1.923
13196TIP3    H139531   6.442   1.958   1.910
13196TIP3    H239532   6.522   1.885   2.016
13197TIP3   OH239533   3.442   4.802   5.152
13197TIP3    H139534   3.459   4.890   5.187
13197TIP3    H239535   3.384   4.816   5.078
13198TIP3   OH239536   6.727   7.757   5.671
13198TIP3    H139537   6.768   7.836   5.637
13198TIP3    H239538   6.712   7.775   5.764
13199TIP3   OH239539   4.667   6.301   6.384
13199TIP3    H139540   4.605   6.331   6.317
13199TIP3    H239541   4.617   6.299   6.465
13200TIP3   OH239542   0.693   4.992   1.270
13200TIP3    H139543   0.698   5.084   1.294
13200TIP3    H239544   0.599   4.975   1.259
13201TIP3   OH239545   2.713   5.150   2.013
13201TIP3    H139546   2.674   5.162   1.926
13201TIP3    H239547   2.781   5.084   2.000
13202TIP3   OH239548   5.055   2.064   1.344
13202TIP3    H139549   5.132   2.025   1.385
13202TIP3    H239550   5.078   2.156   1.332
13203TIP3   OH239551   2.411   4.334   4.180
13203TIP3    H139552   2.394   4.377   4.264
13203TIP3    H239553   2.335   4.278   4.165
13204TIP3   OH239554   6.328   2.308   4.196
13204TIP3    H139555   6.399   2.321   4.133
13204TIP3    H239556   6.301   2.217   4.182
13205TIP3   OH239557   2.074   6.458   5.457
13205TIP3    H139558   2.085   6.395   5.385
13205TIP3    H239559   2.158   6.457   5.503
13206TIP3   OH239560   6.372   3.947   6.261
13206TIP3    H139561   6.386   3.959   6.167
13206TIP3    H239562   6.326   4.027   6.288
13207TIP3   OH239563   7.145   0.809   2.477
13207TIP3    H139564   7.170   0.787   2.388
13207TIP3    H239565   7.186   0.742   2.531
13208TIP3   OH239566   4.488   0.611   2.138
13208TIP3    H139567   4.459   0.666   2.065
13208TIP3    H239568   4.410   0.562   2.163
13209TIP3   OH239569   2.177   5.542   1.627
13209TIP3    H139570   2.197   5.589   1.707
13209TIP3    H239571   2.262   5.529   1.584
13210TIP3   OH239572   3.402   6.863   1.103
13210TIP3    H139573   3.436   6.779   1.070
13210TIP3    H239574   3.350   6.839   1.180
13211TIP3   OH239575   7.086   6.380   5.095
13211TIP3    H139576   7.164   6.428   5.068
13211TIP3    H239577   7.065   6.324   5.020
13212TIP3   OH239578   1.808   6.632   3.969
13212TIP3    H139579   1.882   6.582   4.002
13212TIP3    H239580   1.741   6.566   3.951
13213TIP3   OH239581   0.184   5.140   1.177
13213TIP3    H139582   0.168   5.045   1.173
13213TIP3    H239583   0.161   5.164   1.267
13214TIP3   OH239584   7.318   7.549   2.130
13214TIP3    H139585   7.305   7.532   2.037
13214TIP3    H239586   7.397   7.501   2.153
13215TIP3   OH239587   0.397   2.430   2.014
13215TIP3    H139588   0.407   2.487   1.938
13215TIP3    H239589   0.484   2.426   2.053
13216TIP3   OH239590   3.238   6.003   1.244
13216TIP3    H139591   3.322   6.011   1.199
13216TIP3    H239592   3.190   5.938   1.193
13217TIP3   OH239593   6.025   0.853   0.159
13217TIP3    H139594   5.982   0.792   0.100
13217TIP3    H239595   5.958   0.918   0.180
13218TIP3   OH239596   4.125   6.911   2.587
13218TIP3    H139597   4.058   6.975   2.563
13218TIP3    H239598   4.190   6.961   2.637
13219TIP3   OH239599   7.585   1.195   4.561
13219TIP3    H139600   7.644   1.145   4.617
13219TIP3    H239601   7.569   1.138   4.486
13220TIP3   OH239602   7.023   2.896   3.105
13220TIP3    H139603   6.954   2.831   3.095
13220TIP3    H239604   6.978   2.980   3.103
13221TIP3   OH239605   2.479   6.194   4.971
13221TIP3    H139606   2.566   6.228   4.990
13221TIP3    H239607   2.494   6.123   4.910
13222TIP3   OH239608   2.715   0.023   3.702
13222TIP3    H139609   2.667  -0.032   3.764
13222TIP3    H239610   2.689  -0.009   3.616
13223TIP3   OH239611   7.537   7.073   1.363
13223TIP3    H139612   7.445   7.072   1.390
13223TIP3    H239613   7.563   6.981   1.366
13224TIP3   OH239614   1.420   6.766   1.559
13224TIP3    H139615   1.484   6.722   1.614
13224TIP3    H239616   1.351   6.702   1.547
13225TIP3   OH239617   3.401   2.352   4.787
13225TIP3    H139618   3.473   2.289   4.782
13225TIP3    H239619   3.326   2.301   4.819
13226TIP3   OH239620   6.374   7.619   2.993
13226TIP3    H139621   6.330   7.632   2.909
13226TIP3    H239622   6.458   7.665   2.983
13227TIP3   OH239623   0.570   5.615   4.815
13227TIP3    H139624   0.605   5.692   4.770
13227TIP3    H239625   0.569   5.640   4.908
13228TIP3   OH239626   4.074   1.764   2.116
13228TIP3    H139627   4.089   1.854   2.147
13228TIP3    H239628   4.025   1.775   2.035
13229TIP3   OH239629   7.797   3.358   0.583
13229TIP3    H139630   7.712   3.395   0.606
13229TIP3    H239631   7.785   3.323   0.494
13230TIP3   OH239632   2.357   6.231   6.672
13230TIP3    H139633   2.264   6.252   6.666
13230TIP3    H239634   2.371   6.164   6.605
13231TIP3   OH239635   2.411   1.049   0.063
13231TIP3    H139636   2.420   1.128   0.117
13231TIP3    H239637   2.319   1.025   0.071
13232TIP3   OH239638   4.480   1.339   4.356
13232TIP3    H139639   4.492   1.333   4.451
13232TIP3    H239640   4.473   1.248   4.327
13233TIP3   OH239641   7.484   3.087   5.754
13233TIP3    H139642   7.518   3.012   5.704
13233TIP3    H239643   7.449   3.048   5.835
13234TIP3   OH239644   3.950   3.300   5.936
13234TIP3    H139645   3.934   3.295   5.842
13234TIP3    H239646   3.906   3.223   5.972
13235TIP3   OH239647   1.579   2.126   3.486
13235TIP3    H139648   1.540   2.071   3.418
13235TIP3    H239649   1.584   2.213   3.446
13236TIP3   OH239650   2.025   1.025   1.632
13236TIP3    H139651   1.996   1.102   1.583
13236TIP3    H239652   1.996   1.041   1.722
13237TIP3   OH239653   8.286   3.662   2.858
13237TIP3    H139654   8.217   3.603   2.830
13237TIP3    H239655   8.338   3.678   2.778
13238TIP3   OH239656   1.899   3.731   4.477
13238TIP3    H139657   1.829   3.696   4.423
13238TIP3    H239658   1.854   3.770   4.552
13239TIP3   OH239659   5.099   1.090   5.180
13239TIP3    H139660   5.053   1.151   5.237
13239TIP3    H239661   5.103   1.008   5.230
13240TIP3   OH239662   4.533   0.989   5.409
13240TIP3    H139663   4.465   0.942   5.457
13240TIP3    H239664   4.491   1.071   5.382
13241TIP3   OH239665   2.922   5.508   6.516
13241TIP3    H139666   2.959   5.421   6.533
13241TIP3    H239667   2.968   5.565   6.577
13242TIP3   OH239668   7.970   1.954   4.376
13242TIP3    H139669   7.947   2.027   4.318
13242TIP3    H239670   8.055   1.923   4.343
13243TIP3   OH239671   6.476   7.430   3.611
13243TIP3    H139672   6.464   7.338   3.633
13243TIP3    H239673   6.422   7.478   3.674
13244TIP3   OH239674   6.245   0.211   0.381
13244TIP3    H139675   6.189   0.277   0.423
13244TIP3    H239676   6.274   0.253   0.300
13245TIP3   OH239677   7.764   0.219   4.593
13245TIP3    H139678   7.729   0.263   4.670
13245TIP3    H239679   7.782   0.130   4.622
13246TIP3   OH239680   4.297   2.714   0.074
13246TIP3    H139681   4.310   2.678   0.162
13246TIP3    H239682   4.238   2.788   0.087
13247TIP3   OH239683   2.356   3.973   1.673
13247TIP3    H139684   2.389   4.055   1.710
13247TIP3    H239685   2.379   3.906   1.738
13248TIP3   OH239686   4.313   6.928   1.005
13248TIP3    H139687   4.313   6.835   0.984
13248TIP3    H239688   4.337   6.932   1.098
13249TIP3   OH239689   6.020   5.574   5.346
13249TIP3    H139690   6.022   5.491   5.395
13249TIP3    H239691   5.928   5.601   5.348
13250TIP3   OH239692   1.983   1.350   0.705
13250TIP3    H139693   1.989   1.407   0.781
13250TIP3    H239694   2.072   1.317   0.692
13251TIP3   OH239695   2.207   0.506   6.744
13251TIP3    H139696   2.286   0.541   6.703
13251TIP3    H239697   2.222   0.517   6.838
13252TIP3   OH239698   6.648   7.407   4.969
13252TIP3    H139699   6.722   7.375   4.918
13252TIP3    H239700   6.675   7.397   5.060
13253TIP3   OH239701   3.669   2.506   5.879
13253TIP3    H139702   3.592   2.452   5.863
13253TIP3    H239703   3.634   2.595   5.886
13254TIP3   OH239704   1.180   6.169   4.456
13254TIP3    H139705   1.102   6.196   4.506
13254TIP3    H239706   1.151   6.173   4.365
13255TIP3   OH239707   6.315   5.735   2.172
13255TIP3    H139708   6.260   5.657   2.173
13255TIP3    H239709   6.403   5.703   2.190
13256TIP3   OH239710   0.825   7.000   5.284
13256TIP3    H139711   0.827   7.083   5.236
13256TIP3    H239712   0.818   7.024   5.376
13257TIP3   OH239713   3.490   0.764   5.977
13257TIP3    H139714   3.517   0.686   6.026
13257TIP3    H239715   3.557   0.829   5.997
13258TIP3   OH239716   3.174   4.849   0.309
13258TIP3    H139717   3.124   4.816   0.234
13258TIP3    H239718   3.263   4.818   0.293
13259TIP3   OH239719   0.548   0.813   3.964
13259TIP3    H139720   0.607   0.863   3.907
13259TIP3    H239721   0.477   0.785   3.905
13260TIP3   OH239722   0.419   4.047   4.570
13260TIP3    H139723   0.424   4.067   4.664
13260TIP3    H239724   0.417   4.132   4.527
13261TIP3   OH239725   7.302   1.290   2.828
13261TIP3    H139726   7.337   1.376   2.851
13261TIP3    H239727   7.320   1.235   2.905
13262TIP3   OH239728   7.172   1.256   2.231
13262TIP3    H139729   7.151   1.215   2.315
13262TIP3    H239730   7.254   1.303   2.247
13263TIP3   OH239731   5.039   1.111   5.658
13263TIP3    H139732   4.959   1.062   5.675
13263TIP3    H239733   5.106   1.067   5.711
13264TIP3   OH239734   8.011   4.301   6.657
13264TIP3    H139735   8.013   4.260   6.570
13264TIP3    H239736   8.013   4.395   6.639
13265TIP3   OH239737   1.623   7.083   0.970
13265TIP3    H139738   1.529   7.066   0.965
13265TIP3    H239739   1.662   7.028   0.902
13266TIP3   OH239740   5.075   3.252   1.764
13266TIP3    H139741   5.169   3.261   1.777
13266TIP3    H239742   5.060   3.276   1.673
13267TIP3   OH239743   6.395   3.548   6.634
13267TIP3    H139744   6.405   3.643   6.639
13267TIP3    H239745   6.458   3.514   6.697
13268TIP3   OH239746   0.871   1.413   2.956
13268TIP3    H139747   0.950   1.466   2.943
13268TIP3    H239748   0.827   1.454   3.030
13269TIP3   OH239749   6.154   0.810   6.544
13269TIP3    H139750   6.133   0.719   6.564
13269TIP3    H239751   6.233   0.828   6.595
13270TIP3   OH239752   1.913   3.041   0.085
13270TIP3    H139753   1.836   3.021   0.139
13270TIP3    H239754   1.879   3.099   0.016
13271TIP3   OH239755   6.996   7.771   6.338
13271TIP3    H139756   7.066   7.739   6.280
13271TIP3    H239757   6.942   7.694   6.356
13272TIP3   OH239758   1.068   6.720   0.961
13272TIP3    H139759   1.128   6.690   1.029
13272TIP3    H239760   1.001   6.651   0.956
13273TIP3   OH239761   1.067   4.773   0.143
13273TIP3    H139762   1.095   4.853   0.099
13273TIP3    H239763   1.131   4.760   0.214
13274TIP3   OH239764   3.483   1.766   1.223
13274TIP3    H139765   3.533   1.689   1.253
13274TIP3    H239766   3.392   1.745   1.243
13275TIP3   OH239767   3.720   6.146   2.556
13275TIP3    H139768   3.789   6.170   2.618
13275TIP3    H239769   3.658   6.218   2.561
13276TIP3   OH239770   5.970   2.508   5.598
13276TIP3    H139771   5.951   2.508   5.692
13276TIP3    H239772   6.024   2.430   5.584
13277TIP3   OH239773   3.448   6.284   4.368
13277TIP3    H139774   3.355   6.265   4.379
13277TIP3    H239775   3.453   6.378   4.355
13278TIP3   OH239776   1.458   6.231   4.223
13278TIP3    H139777   1.382   6.290   4.231
13278TIP3    H239778   1.458   6.205   4.131
13279TIP3   OH239779   5.177   6.779   2.281
13279TIP3    H139780   5.164   6.722   2.357
13279TIP3    H239781   5.123   6.741   2.212
13280TIP3   OH239782   6.876   0.804   3.041
13280TIP3    H139783   6.796   0.757   3.063
13280TIP3    H239784   6.929   0.741   2.993
13281TIP3   OH239785   7.651   4.964   6.159
13281TIP3    H139786   7.679   4.985   6.249
13281TIP3    H239787   7.590   5.034   6.137
13282TIP3   OH239788   2.496   5.837   5.272
13282TIP3    H139789   2.566   5.804   5.328
13282TIP3    H239790   2.524   5.926   5.249
13283TIP3   OH239791   5.105   5.562   2.957
13283TIP3    H139792   5.017   5.597   2.942
13283TIP3    H239793   5.090   5.472   2.988
13284TIP3   OH239794   5.616   5.653   0.360
13284TIP3    H139795   5.538   5.706   0.371
13284TIP3    H239796   5.621   5.600   0.440
13285TIP3   OH239797   5.121   4.852   4.534
13285TIP3    H139798   5.213   4.874   4.523
13285TIP3    H239799   5.074   4.934   4.519
13286TIP3   OH239800   6.762   1.507   3.433
13286TIP3    H139801   6.842   1.554   3.408
13286TIP3    H239802   6.794   1.435   3.488
13287TIP3   OH239803   1.683   4.483   6.217
13287TIP3    H139804   1.698   4.564   6.265
13287TIP3    H239805   1.590   4.464   6.228
13288TIP3   OH239806   4.883   3.591   2.799
13288TIP3    H139807   4.864   3.540   2.878
13288TIP3    H239808   4.926   3.670   2.832
13289TIP3   OH239809   4.811   3.493   2.550
13289TIP3    H139810   4.737   3.432   2.554
13289TIP3    H239811   4.834   3.509   2.642
13290TIP3   OH239812   0.876   0.083   5.292
13290TIP3    H139813   0.894  -0.008   5.316
13290TIP3    H239814   0.788   0.100   5.327
13291TIP3   OH239815   1.540   7.219   5.605
13291TIP3    H139816   1.463   7.231   5.660
13291TIP3    H239817   1.591   7.151   5.648
13292TIP3   OH239818   0.438   6.011   5.950
13292TIP3    H139819   0.420   5.951   5.877
13292TIP3    H239820   0.448   6.096   5.908
13293TIP3   OH239821   3.042   2.931   5.398
13293TIP3    H139822   3.076   2.896   5.315
13293TIP3    H239823   2.958   2.971   5.374
13294TIP3   OH239824   5.838   5.129   1.733
13294TIP3    H139825   5.921   5.176   1.745
13294TIP3    H239826   5.774   5.198   1.712
13295TIP3   OH239827   5.281   1.426   5.369
13295TIP3    H139828   5.204   1.476   5.340
13295TIP3    H239829   5.249   1.371   5.440
13296TIP3   OH239830   8.073   6.953   3.406
13296TIP3    H139831   8.118   7.008   3.470
13296TIP3    H239832   8.037   7.015   3.343
13297TIP3   OH239833   8.060   3.243   3.260
13297TIP3    H139834   8.122   3.173   3.238
13297TIP3    H239835   8.083   3.314   3.200
13298TIP3   OH239836   3.133   6.571   6.113
13298TIP3    H139837   3.167   6.564   6.202
13298TIP3    H239838   3.081   6.652   6.114
13299TIP3   OH239839   5.149   6.787   4.633
13299TIP3    H139840   5.190   6.740   4.705
13299TIP3    H239841   5.099   6.721   4.585
13300TIP3   OH239842   1.001   3.594   4.904
13300TIP3    H139843   0.947   3.531   4.858
13300TIP3    H239844   1.042   3.543   4.974
13301TIP3   OH239845   5.710   3.865   5.373
13301TIP3    H139846   5.702   3.807   5.297
13301TIP3    H239847   5.625   3.908   5.378
13302TIP3   OH239848   0.165   2.105   3.842
13302TIP3    H139849   0.127   2.077   3.759
13302TIP3    H239850   0.211   2.028   3.875
13303TIP3   OH239851   3.423   2.878   3.465
13303TIP3    H139852   3.445   2.883   3.372
13303TIP3    H239853   3.459   2.793   3.493
13304TIP3   OH239854   4.114   4.808   5.634
13304TIP3    H139855   4.207   4.785   5.635
13304TIP3    H239856   4.101   4.849   5.549
13305TIP3   OH239857   1.186   5.530   1.214
13305TIP3    H139858   1.107   5.579   1.191
13305TIP3    H239859   1.167   5.492   1.300
13306TIP3   OH239860   4.465   1.888   2.769
13306TIP3    H139861   4.370   1.889   2.762
13306TIP3    H239862   4.486   1.968   2.817
13307TIP3   OH239863   1.087   3.221   3.843
13307TIP3    H139864   1.139   3.149   3.806
13307TIP3    H239865   1.009   3.224   3.787
13308TIP3   OH239866   0.782   4.938   1.958
13308TIP3    H139867   0.699   4.979   1.934
13308TIP3    H239868   0.795   4.871   1.890
13309TIP3   OH239869   0.748   6.886   3.165
13309TIP3    H139870   0.781   6.905   3.078
13309TIP3    H239871   0.818   6.835   3.207
13310TIP3   OH239872   7.304   2.899   2.229
13310TIP3    H139873   7.270   2.844   2.300
13310TIP3    H239874   7.380   2.943   2.267
13311TIP3   OH239875   2.371   0.322   0.196
13311TIP3    H139876   2.459   0.361   0.191
13311TIP3    H239877   2.325   0.360   0.122
13312TIP3   OH239878   3.294   5.870   5.599
13312TIP3    H139879   3.213   5.879   5.648
13312TIP3    H239880   3.278   5.915   5.516
13313TIP3   OH239881   0.525   3.004   0.249
13313TIP3    H139882   0.496   2.991   0.340
13313TIP3    H239883   0.503   3.095   0.230
13314TIP3   OH239884   2.159   1.898   5.200
13314TIP3    H139885   2.243   1.868   5.234
13314TIP3    H239886   2.150   1.855   5.115
13315TIP3   OH239887   0.335   6.476   4.322
13315TIP3    H139888   0.259   6.426   4.351
13315TIP3    H239889   0.398   6.467   4.394
13316TIP3   OH239890   6.739   4.449   0.237
13316TIP3    H139891   6.726   4.489   0.323
13316TIP3    H239892   6.658   4.400   0.221
13317TIP3   OH239893   1.494   0.366   3.822
13317TIP3    H139894   1.509   0.406   3.908
13317TIP3    H239895   1.581   0.355   3.785
13318TIP3   OH239896   6.671   1.120   6.510
13318TIP3    H139897   6.747   1.174   6.490
13318TIP3    H239898   6.672   1.112   6.606
13319TIP3   OH239899   5.138   4.242   2.909
13319TIP3    H139900   5.073   4.308   2.933
13319TIP3    H239901   5.103   4.201   2.830
13320TIP3   OH239902   2.060   1.399   5.056
13320TIP3    H139903   2.086   1.491   5.043
13320TIP3    H239904   2.140   1.355   5.083
13321TIP3   OH239905   5.419   7.579   2.930
13321TIP3    H139906   5.500   7.565   2.980
13321TIP3    H239907   5.409   7.674   2.927
13322TIP3   OH239908   1.304   3.354   1.907
13322TIP3    H139909   1.266   3.403   1.981
13322TIP3    H239910   1.256   3.272   1.905
13323TIP3   OH239911   3.322   6.395   6.683
13323TIP3    H139912   3.293   6.323   6.740
13323TIP3    H239913   3.249   6.457   6.684
13324TIP3   OH239914   2.865   2.192   2.429
13324TIP3    H139915   2.844   2.283   2.448
13324TIP3    H239916   2.848   2.145   2.510
13325TIP3   OH239917   7.975   4.216   2.656
13325TIP3    H139918   8.065   4.214   2.687
13325TIP3    H239919   7.938   4.296   2.692
13326TIP3   OH239920   8.087   3.730   3.649
13326TIP3    H139921   8.134   3.813   3.648
13326TIP3    H239922   8.058   3.717   3.559
13327TIP3   OH239923   6.860   7.092   6.169
13327TIP3    H139924   6.935   7.034   6.155
13327TIP3    H239925   6.794   7.037   6.210
13328TIP3   OH239926   1.278   1.988   5.834
13328TIP3    H139927   1.336   1.993   5.758
13328TIP3    H239928   1.334   1.957   5.905
13329TIP3   OH239929   6.796   5.565   0.099
13329TIP3    H139930   6.880   5.610   0.105
13329TIP3    H239931   6.810   5.496   0.034
13330TIP3   OH239932   2.913   6.648   0.262
13330TIP3    H139933   2.836   6.595   0.241
13330TIP3    H239934   2.913   6.652   0.358
13331TIP3   OH239935   6.542   3.461   3.212
13331TIP3    H139936   6.495   3.426   3.137
13331TIP3    H239937   6.481   3.450   3.286
13332TIP3   OH239938   4.659   2.507   3.752
13332TIP3    H139939   4.581   2.503   3.807
13332TIP3    H239940   4.626   2.538   3.667
13333TIP3   OH239941   0.606   6.926   4.473
13333TIP3    H139942   0.634   6.842   4.436
13333TIP3    H239943   0.687   6.967   4.504
13334TIP3   OH239944   6.751   3.580   1.770
13334TIP3    H139945   6.835   3.623   1.783
13334TIP3    H239946   6.707   3.586   1.855
13335TIP3   OH239947   1.676   2.195   4.048
13335TIP3    H139948   1.641   2.109   4.070
13335TIP3    H239949   1.690   2.192   3.953
13336TIP3   OH239950   0.838   7.459   1.572
13336TIP3    H139951   0.818   7.368   1.547
13336TIP3    H239952   0.922   7.453   1.617
13337TIP3   OH239953   0.464   5.436   6.479
13337TIP3    H139954   0.404   5.509   6.464
13337TIP3    H239955   0.493   5.448   6.570
13338TIP3   OH239956   7.693   1.919   5.261
13338TIP3    H139957   7.681   1.943   5.353
13338TIP3    H239958   7.638   1.841   5.250
13339TIP3   OH239959   3.160   2.204   6.700
13339TIP3    H139960   3.068   2.206   6.674
13339TIP3    H239961   3.158   2.199   6.796
13340TIP3   OH239962   1.264   6.564   0.834
13340TIP3    H139963   1.343   6.616   0.820
13340TIP3    H239964   1.208   6.620   0.887
13341TIP3   OH239965   0.428   5.660   2.713
13341TIP3    H139966   0.462   5.679   2.801
13341TIP3    H239967   0.355   5.600   2.728
13342TIP3   OH239968   5.298   5.339   2.798
13342TIP3    H139969   5.253   5.402   2.741
13342TIP3    H239970   5.228   5.300   2.850
13343TIP3   OH239971   6.119   5.775   3.258
13343TIP3    H139972   6.151   5.815   3.177
13343TIP3    H239973   6.140   5.839   3.326
13344TIP3   OH239974   2.478   5.535   3.554
13344TIP3    H139975   2.480   5.470   3.624
13344TIP3    H239976   2.554   5.514   3.499
13345TIP3   OH239977   7.794   2.244   5.183
13345TIP3    H139978   7.815   2.227   5.275
13345TIP3    H239979   7.701   2.267   5.183
13346TIP3   OH239980   6.268   0.885   0.594
13346TIP3    H139981   6.266   0.897   0.499
13346TIP3    H239982   6.354   0.916   0.621
13347TIP3   OH239983   3.567   5.872   2.824
13347TIP3    H139984   3.602   5.783   2.824
13347TIP3    H239985   3.630   5.923   2.875
13348TIP3   OH239986   7.426   2.942   6.639
13348TIP3    H139987   7.393   2.957   6.551
13348TIP3    H239988   7.520   2.928   6.626
13349TIP3   OH239989   0.842   2.044   6.578
13349TIP3    H139990   0.853   1.966   6.633
13349TIP3    H239991   0.918   2.043   6.520
13350TIP3   OH239992   1.844   0.471   1.407
13350TIP3    H139993   1.837   0.384   1.368
13350TIP3    H239994   1.846   0.454   1.502
13351TIP3   OH239995   4.395   2.959   4.848
13351TIP3    H139996   4.428   2.962   4.938
13351TIP3    H239997   4.457   2.903   4.801
13352TIP3   OH239998   7.749   5.149   5.499
13352TIP3    H139999   7.802   5.203   5.557
13352TIP3    H240000   7.674   5.123   5.553
13353TIP3   OH240001   4.018   1.235   5.206
13353TIP3    H140002   4.098   1.283   5.187
13353TIP3    H240003   3.974   1.286   5.275
13354TIP3   OH240004   6.904   5.510   4.162
13354TIP3    H140005   6.867   5.593   4.193
13354TIP3    H240006   6.930   5.464   4.242
13355TIP3   OH240007   0.272   0.993   5.881
13355TIP3    H140008   0.230   1.000   5.967
13355TIP3    H240009   0.209   0.946   5.827
13356TIP3   OH240010   1.322   4.916   3.547
13356TIP3    H140011   1.233   4.884   3.563
13356TIP3    H240012   1.372   4.837   3.524
13357TIP3   OH240013   0.207   6.879   1.264
13357TIP3    H140014   0.183   6.968   1.291
13357TIP3    H240015   0.142   6.823   1.306
13358TIP3   OH240016   4.466   6.976   1.547
13358TIP3    H140017   4.455   6.894   1.595
13358TIP3    H240018   4.534   6.958   1.483
13359TIP3   OH240019   0.641   6.321   4.970
13359TIP3    H140020   0.580   6.370   4.916
13359TIP3    H240021   0.653   6.375   5.048
13360TIP3   OH240022   5.826   5.774  -0.034
13360TIP3    H140023   5.824   5.686   0.004
13360TIP3    H240024   5.788   5.830   0.033
13361TIP3   OH240025   6.700   2.927   3.203
13361TIP3    H140026   6.721   2.849   3.152
13361TIP3    H240027   6.785   2.971   3.214
13362TIP3   OH240028   7.300   6.831   4.070
13362TIP3    H140029   7.300   6.795   3.981
13362TIP3    H240030   7.388   6.866   4.082
13363TIP3   OH240031   5.080   1.559   5.276
13363TIP3    H140032   5.061   1.507   5.198
13363TIP3    H240033   4.994   1.591   5.304
13364TIP3   OH240034   7.670   1.893   4.370
13364TIP3    H140035   7.687   1.817   4.315
13364TIP3    H240036   7.756   1.927   4.393
13365TIP3   OH240037   5.965   4.654   1.074
13365TIP3    H140038   5.943   4.563   1.097
13365TIP3    H240039   5.957   4.657   0.979
13366TIP3   OH240040   1.154   7.121   6.376
13366TIP3    H140041   1.198   7.062   6.315
13366TIP3    H240042   1.061   7.108   6.358
13367TIP3   OH240043   6.808   5.856   2.944
13367TIP3    H140044   6.748   5.810   2.886
13367TIP3    H240045   6.777   5.835   3.032
13368TIP3   OH240046   4.954   5.965   5.847
13368TIP3    H140047   4.960   6.043   5.792
13368TIP3    H240048   4.864   5.934   5.834
13369TIP3   OH240049   3.489   7.587   5.041
13369TIP3    H140050   3.474   7.509   4.989
13369TIP3    H240051   3.401   7.614   5.070
13370TIP3   OH240052   6.734   1.666   2.309
13370TIP3    H140053   6.786   1.586   2.311
13370TIP3    H240054   6.761   1.714   2.388
13371TIP3   OH240055   4.390   2.953   0.752
13371TIP3    H140056   4.402   2.883   0.816
13371TIP3    H240057   4.477   2.969   0.717
13372TIP3   OH240058   0.501   0.739   4.313
13372TIP3    H140059   0.477   0.725   4.405
13372TIP3    H240060   0.592   0.767   4.316
13373TIP3   OH240061   2.321   7.752   2.055
13373TIP3    H140062   2.250   7.816   2.054
13373TIP3    H240063   2.347   7.744   1.964
13374TIP3   OH240064   1.210   4.169   2.509
13374TIP3    H140065   1.270   4.240   2.530
13374TIP3    H240066   1.228   4.149   2.417
13375TIP3   OH240067   4.154   6.326   5.883
13375TIP3    H140068   4.088   6.277   5.934
13375TIP3    H240069   4.185   6.394   5.944
13376TIP3   OH240070   5.512   7.698   0.713
13376TIP3    H140071   5.563   7.759   0.766
13376TIP3    H240072   5.471   7.753   0.646
13377TIP3   OH240073   1.934   2.193   1.760
13377TIP3    H140074   1.951   2.209   1.667
13377TIP3    H240075   2.019   2.170   1.797
13378TIP3   OH240076   0.127   1.357   4.873
13378TIP3    H140077   0.216   1.390   4.889
13378TIP3    H240078   0.140   1.263   4.860
13379TIP3   OH240079   0.548   2.223   3.606
13379TIP3    H140080   0.581   2.146   3.653
13379TIP3    H240081   0.623   2.253   3.554
13380TIP3   OH240082   8.175   2.568   3.744
13380TIP3    H140083   8.223   2.602   3.820
13380TIP3    H240084   8.084   2.592   3.761
13381TIP3   OH240085   7.515   0.036   5.216
13381TIP3    H140086   7.583  -0.028   5.193
13381TIP3    H240087   7.443  -0.018   5.250
13382TIP3   OH240088   6.067   7.555   3.379
13382TIP3    H140089   6.075   7.539   3.285
13382TIP3    H240090   6.111   7.481   3.420
13383TIP3   OH240091   2.316   6.524   5.228
13383TIP3    H140092   2.260   6.595   5.259
13383TIP3    H240093   2.274   6.494   5.147
13384TIP3   OH240094   4.457   6.084   6.563
13384TIP3    H140095   4.362   6.089   6.553
13384TIP3    H240096   4.484   6.173   6.584
13385TIP3   OH240097   5.484   6.631   3.602
13385TIP3    H140098   5.508   6.700   3.664
13385TIP3    H240099   5.540   6.557   3.626
13386TIP3   OH240100   6.180   6.595   6.700
13386TIP3    H140101   6.137   6.581   6.784
13386TIP3    H240102   6.139   6.674   6.664
13387TIP3   OH240103   1.523   0.516   5.607
13387TIP3    H140104   1.484   0.467   5.680
13387TIP3    H240105   1.482   0.481   5.529
13388TIP3   OH240106   1.525   0.869   2.170
13388TIP3    H140107   1.597   0.905   2.220
13388TIP3    H240108   1.452   0.930   2.184
13389TIP3   OH240109   0.379   1.457   4.709
13389TIP3    H140110   0.430   1.396   4.656
13389TIP3    H240111   0.435   1.478   4.783
13390TIP3   OH240112   2.370   2.946   0.326
13390TIP3    H140113   2.288   2.961   0.373
13390TIP3    H240114   2.405   3.034   0.310
13391TIP3   OH240115   4.380   4.444   2.713
13391TIP3    H140116   4.401   4.353   2.689
13391TIP3    H240117   4.387   4.492   2.630
13392TIP3   OH240118   7.164   1.630   2.135
13392TIP3    H140119   7.148   1.571   2.061
13392TIP3    H240120   7.255   1.612   2.161
13393TIP3   OH240121   5.319   4.540   5.509
13393TIP3    H140122   5.321   4.540   5.414
13393TIP3    H240123   5.226   4.534   5.531
13394TIP3   OH240124   6.006   5.259   5.718
13394TIP3    H140125   5.924   5.216   5.692
13394TIP3    H240126   6.014   5.242   5.811
13395TIP3   OH240127   8.280   1.129   4.957
13395TIP3    H140128   8.203   1.138   4.901
13395TIP3    H240129   8.305   1.037   4.950
13396TIP3   OH240130   1.642   2.515   5.331
13396TIP3    H140131   1.634   2.426   5.297
13396TIP3    H240132   1.683   2.564   5.259
13397TIP3   OH240133   5.444   0.833   1.460
13397TIP3    H140134   5.383   0.886   1.510
13397TIP3    H240135   5.524   0.886   1.455
13398TIP3   OH240136   0.317   1.036   6.729
13398TIP3    H140137   0.348   0.948   6.747
13398TIP3    H240138   0.222   1.032   6.740
13399TIP3   OH240139   1.754   7.571   5.334
13399TIP3    H140140   1.775   7.549   5.243
13399TIP3    H240141   1.704   7.652   5.328
13400TIP3   OH240142   1.040   2.605   2.541
13400TIP3    H140143   0.957   2.638   2.505
13400TIP3    H240144   1.067   2.537   2.479
13401TIP3   OH240145   6.838   7.140   5.476
13401TIP3    H140146   6.798   7.118   5.392
13401TIP3    H240147   6.785   7.212   5.510
13402TIP3   OH240148   2.392   4.968   2.285
13402TIP3    H140149   2.445   4.972   2.205
13402TIP3    H240150   2.331   4.896   2.270
13403TIP3   OH240151   8.014   7.580   1.286
13403TIP3    H140152   8.076   7.532   1.340
13403TIP3    H240153   7.945   7.607   1.346
13404TIP3   OH240154   1.392   4.320   4.435
13404TIP3    H140155   1.457   4.386   4.410
13404TIP3    H240156   1.419   4.241   4.389
13405TIP3   OH240157   6.943   5.129   0.649
13405TIP3    H140158   7.014   5.069   0.627
13405TIP3    H240159   6.973   5.214   0.617
13406TIP3   OH240160   7.730   0.049   2.721
13406TIP3    H140161   7.689   0.061   2.635
13406TIP3    H240162   7.765  -0.039   2.719
13407TIP3   OH240163   7.150   3.138   5.843
13407TIP3    H140164   7.065   3.151   5.801
13407TIP3    H240165   7.211   3.189   5.791
13408TIP3   OH240166   4.111   6.774   1.496
13408TIP3    H140167   4.053   6.802   1.566
13408TIP3    H240168   4.186   6.734   1.540
13409TIP3   OH240169   2.388   4.283   4.891
13409TIP3    H140170   2.416   4.358   4.943
13409TIP3    H240171   2.400   4.208   4.948
13410TIP3   OH240172   4.061   5.267   1.586
13410TIP3    H140173   3.970   5.297   1.574
13410TIP3    H240174   4.071   5.260   1.681
13411TIP3   OH240175   0.572   0.802   5.698
13411TIP3    H140176   0.646   0.841   5.651
13411TIP3    H240177   0.495   0.842   5.658
13412TIP3   OH240178   5.058   2.521   4.344
13412TIP3    H140179   5.089   2.460   4.278
13412TIP3    H240180   5.137   2.548   4.390
13413TIP3   OH240181   1.435   4.035   3.426
13413TIP3    H140182   1.476   3.949   3.422
13413TIP3    H240183   1.346   4.017   3.456
13414TIP3   OH240184   2.836   6.388   3.185
13414TIP3    H140185   2.861   6.431   3.267
13414TIP3    H240186   2.912   6.335   3.162
13415TIP3   OH240187   7.066   3.128   1.594
13415TIP3    H140188   7.030   3.104   1.680
13415TIP3    H240189   6.992   3.169   1.548
13416TIP3   OH240190   2.115   4.406   1.890
13416TIP3    H140191   2.093   4.414   1.797
13416TIP3    H240192   2.090   4.317   1.913
13417TIP3   OH240193   3.571   5.143   2.466
13417TIP3    H140194   3.542   5.051   2.464
13417TIP3    H240195   3.558   5.170   2.557
13418TIP3   OH240196   7.480   1.224   0.249
13418TIP3    H140197   7.543   1.154   0.231
13418TIP3    H240198   7.502   1.254   0.337
13419TIP3   OH240199   4.749   0.030   1.008
13419TIP3    H140200   4.703   0.023   0.924
13419TIP3    H240201   4.680   0.032   1.074
13420TIP3   OH240202   6.730   2.299   3.607
13420TIP3    H140203   6.694   2.332   3.525
13420TIP3    H240204   6.732   2.376   3.665
13421TIP3   OH240205   6.598   5.838   1.157
13421TIP3    H140206   6.563   5.811   1.072
13421TIP3    H240207   6.545   5.913   1.183
13422TIP3   OH240208   6.799   5.135   5.731
13422TIP3    H140209   6.821   5.173   5.816
13422TIP3    H240210   6.850   5.186   5.668
13423TIP3   OH240211   0.446   1.940   2.378
13423TIP3    H140212   0.487   2.027   2.385
13423TIP3    H240213   0.408   1.939   2.290
13424TIP3   OH240214   8.169   5.590   3.705
13424TIP3    H140215   8.139   5.679   3.685
13424TIP3    H240216   8.090   5.537   3.704
13425TIP3   OH240217   0.528   3.222   0.766
13425TIP3    H140218   0.597   3.234   0.830
13425TIP3    H240219   0.505   3.310   0.738
13426TIP3   OH240220   4.275   0.145   3.495
13426TIP3    H140221   4.328   0.098   3.559
13426TIP3    H240222   4.284   0.237   3.521
13427TIP3   OH240223   1.366   2.732   4.395
13427TIP3    H140224   1.307   2.741   4.320
13427TIP3    H240225   1.337   2.801   4.455
13428TIP3   OH240226   1.397   7.089   2.857
13428TIP3    H140227   1.381   7.081   2.763
13428TIP3    H240228   1.320   7.134   2.891
13429TIP3   OH240229   3.817   0.373   1.272
13429TIP3    H140230   3.770   0.324   1.338
13429TIP3    H240231   3.904   0.388   1.310
13430TIP3   OH240232   3.626   7.767   0.752
13430TIP3    H140233   3.644   7.697   0.690
13430TIP3    H240234   3.576   7.725   0.822
13431TIP3   OH240235   0.272   3.510   0.784
13431TIP3    H140236   0.232   3.456   0.715
13431TIP3    H240237   0.364   3.518   0.758
13432TIP3   OH240238   6.590   0.668   2.216
13432TIP3    H140239   6.636   0.594   2.254
13432TIP3    H240240   6.648   0.699   2.146
13433TIP3   OH240241   7.174   6.035   1.810
13433TIP3    H140242   7.155   6.127   1.831
13433TIP3    H240243   7.129   5.986   1.879
13434TIP3   OH240244   4.295   6.410   6.720
13434TIP3    H140245   4.301   6.505   6.718
13434TIP3    H240246   4.201   6.392   6.720
13435TIP3   OH240247   0.009   4.048   5.641
13435TIP3    H140248   0.021   4.025   5.549
13435TIP3    H240249   0.098   4.046   5.678
13436TIP3   OH240250   5.165   3.487   3.712
13436TIP3    H140251   5.099   3.472   3.644
13436TIP3    H240252   5.242   3.520   3.664
13437TIP3   OH240253   7.184   0.718   6.087
13437TIP3    H140254   7.115   0.690   6.026
13437TIP3    H240255   7.200   0.809   6.064
13438TIP3   OH240256   4.394   7.116   5.623
13438TIP3    H140257   4.468   7.126   5.682
13438TIP3    H240258   4.412   7.035   5.575
13439TIP3   OH240259   7.433   1.883   2.722
13439TIP3    H140260   7.515   1.898   2.676
13439TIP3    H240261   7.375   1.845   2.655
13440TIP3   OH240262   1.947   5.111   4.457
13440TIP3    H140263   1.989   5.090   4.540
13440TIP3    H240264   2.016   5.097   4.391
13441TIP3   OH240265   0.715   7.217   3.935
13441TIP3    H140266   0.622   7.200   3.952
13441TIP3    H240267   0.715   7.271   3.856
13442TIP3   OH240268   1.537   3.897   1.296
13442TIP3    H140269   1.605   3.932   1.238
13442TIP3    H240270   1.459   3.893   1.241
13443TIP3   OH240271   6.058   3.050   1.555
13443TIP3    H140272   6.073   3.028   1.646
13443TIP3    H240273   5.977   3.005   1.532
13444TIP3   OH240274   5.479   2.755   1.278
13444TIP3    H140275   5.421   2.826   1.251
13444TIP3    H240276   5.483   2.697   1.202
13445TIP3   OH240277   6.407   1.424   1.967
13445TIP3    H140278   6.394   1.337   1.929
13445TIP3    H240279   6.393   1.411   2.061
13446TIP3   OH240280   7.203   5.651   3.053
13446TIP3    H140281   7.159   5.636   3.136
13446TIP3    H240282   7.257   5.573   3.040
13447TIP3   OH240283   3.737   1.901   2.079
13447TIP3    H140284   3.645   1.925   2.074
13447TIP3    H240285   3.784   1.984   2.071
13448TIP3   OH240286   1.145   1.324   4.057
13448TIP3    H140287   1.064   1.322   4.108
13448TIP3    H240288   1.212   1.294   4.118
13449TIP3   OH240289   4.803   6.334   0.703
13449TIP3    H140290   4.833   6.338   0.612
13449TIP3    H240291   4.883   6.328   0.755
13450TIP3   OH240292   8.120   5.901   2.951
13450TIP3    H140293   8.125   5.906   2.855
13450TIP3    H240294   8.058   5.831   2.968
13451TIP3   OH240295   2.212   6.797   1.248
13451TIP3    H140296   2.255   6.734   1.306
13451TIP3    H240297   2.179   6.866   1.306
13452TIP3   OH240298   6.505   4.506   2.571
13452TIP3    H140299   6.532   4.592   2.538
13452TIP3    H240300   6.414   4.498   2.544
13453TIP3   OH240301   2.643   2.710   1.643
13453TIP3    H140302   2.644   2.712   1.739
13453TIP3    H240303   2.719   2.762   1.617
13454TIP3   OH240304   7.968   7.643   2.972
13454TIP3    H140305   7.911   7.577   2.932
13454TIP3    H240306   7.939   7.648   3.063
13455TIP3   OH240307   2.812   1.763   1.080
13455TIP3    H140308   2.762   1.815   1.018
13455TIP3    H240309   2.903   1.790   1.068
13456TIP3   OH240310   5.777   5.985   2.513
13456TIP3    H140311   5.724   5.921   2.561
13456TIP3    H240312   5.866   5.948   2.516
13457TIP3   OH240313   7.661   7.314   4.682
13457TIP3    H140314   7.673   7.311   4.587
13457TIP3    H240315   7.579   7.362   4.695
13458TIP3   OH240316   0.792   3.632   2.401
13458TIP3    H140317   0.831   3.719   2.410
13458TIP3    H240318   0.798   3.612   2.308
13459TIP3   OH240319   6.640   1.208   4.814
13459TIP3    H140320   6.682   1.182   4.897
13459TIP3    H240321   6.647   1.303   4.812
13460TIP3   OH240322   6.073   7.072   4.284
13460TIP3    H140323   6.115   7.152   4.251
13460TIP3    H240324   6.060   7.018   4.206
13461TIP3   OH240325   7.703   0.225   0.130
13461TIP3    H140326   7.723   0.137   0.100
13461TIP3    H240327   7.724   0.282   0.056
13462TIP3   OH240328   6.162  -0.012   2.279
13462TIP3    H140329   6.212   0.019   2.354
13462TIP3    H240330   6.189   0.045   2.207
13463TIP3   OH240331   6.711   2.973   3.842
13463TIP3    H140332   6.720   2.939   3.753
13463TIP3    H240333   6.782   2.932   3.891
13464TIP3   OH240334   5.280   4.760   4.064
13464TIP3    H140335   5.262   4.820   4.136
13464TIP3    H240336   5.205   4.701   4.061
13465TIP3   OH240337   4.517   0.419   3.787
13465TIP3    H140338   4.464   0.497   3.807
13465TIP3    H240339   4.506   0.362   3.863
13466TIP3   OH240340   5.599   5.721   2.509
13466TIP3    H140341   5.588   5.784   2.580
13466TIP3    H240342   5.541   5.752   2.440
13467TIP3   OH240343   5.847   2.106   3.792
13467TIP3    H140344   5.943   2.107   3.785
13467TIP3    H240345   5.829   2.055   3.871
13468TIP3   OH240346   6.465   6.026   2.769
13468TIP3    H140347   6.461   6.033   2.865
13468TIP3    H240348   6.519   5.949   2.753
13469TIP3   OH240349   4.622   4.376   0.869
13469TIP3    H140350   4.571   4.437   0.921
13469TIP3    H240351   4.691   4.429   0.830
13470TIP3   OH240352   4.209   7.188   1.589
13470TIP3    H140353   4.269   7.142   1.530
13470TIP3    H240354   4.136   7.214   1.533
13471TIP3   OH240355   2.335   7.749   0.415
13471TIP3    H140356   2.406   7.746   0.480
13471TIP3    H240357   2.305   7.840   0.416
13472TIP3   OH240358   5.037   5.483   5.543
13472TIP3    H140359   4.966   5.529   5.589
13472TIP3    H240360   5.007   5.479   5.452
13473TIP3   OH240361   5.953   0.318   0.842
13473TIP3    H140362   5.956   0.411   0.867
13473TIP3    H240363   5.873   0.285   0.883
13474TIP3   OH240364   1.263   5.587   4.693
13474TIP3    H140365   1.194   5.641   4.732
13474TIP3    H240366   1.341   5.643   4.695
13475TIP3   OH240367   6.683   7.351   5.590
13475TIP3    H140368   6.660   7.433   5.546
13475TIP3    H240369   6.697   7.375   5.681
13476TIP3   OH240370   2.081   1.547   3.272
13476TIP3    H140371   2.047   1.535   3.183
13476TIP3    H240372   2.149   1.480   3.280
13477TIP3   OH240373   3.739   2.835   2.386
13477TIP3    H140374   3.821   2.882   2.403
13477TIP3    H240375   3.712   2.802   2.472
13478TIP3   OH240376   6.776   2.812   6.472
13478TIP3    H140377   6.688   2.795   6.505
13478TIP3    H240378   6.773   2.902   6.440
13479TIP3   OH240379   4.195   2.866   5.951
13479TIP3    H140380   4.289   2.879   5.959
13479TIP3    H240381   4.177   2.787   6.003
13480TIP3   OH240382   2.398   6.130   1.603
13480TIP3    H140383   2.491   6.151   1.609
13480TIP3    H240384   2.359   6.205   1.558
13481TIP3   OH240385   4.687   6.282   4.693
13481TIP3    H140386   4.646   6.281   4.606
13481TIP3    H240387   4.729   6.368   4.698
13482TIP3   OH240388   5.576   6.040   0.721
13482TIP3    H140389   5.519   6.101   0.766
13482TIP3    H240390   5.527   5.958   0.718
13483TIP3   OH240391   7.715   6.155   2.619
13483TIP3    H140392   7.690   6.159   2.526
13483TIP3    H240393   7.761   6.237   2.635
13484TIP3   OH240394   1.238   7.576   0.303
13484TIP3    H140395   1.328   7.545   0.296
13484TIP3    H240396   1.231   7.611   0.392
13485TIP3   OH240397   4.353   5.523   3.829
13485TIP3    H140398   4.360   5.577   3.908
13485TIP3    H240399   4.425   5.552   3.774
13486TIP3   OH240400   2.367   5.511   2.718
13486TIP3    H140401   2.433   5.444   2.700
13486TIP3    H240402   2.418   5.591   2.731
13487TIP3   OH240403   8.237   5.604   2.118
13487TIP3    H140404   8.255   5.646   2.202
13487TIP3    H240405   8.177   5.665   2.074
13488TIP3   OH240406   0.572   2.375   0.668
13488TIP3    H140407   0.656   2.358   0.625
13488TIP3    H240408   0.567   2.470   0.673
13489TIP3   OH240409   4.954   1.619   6.051
13489TIP3    H140410   4.894   1.640   6.122
13489TIP3    H240411   4.898   1.582   5.983
13490TIP3   OH240412   6.762   4.271   5.357
13490TIP3    H140413   6.796   4.197   5.407
13490TIP3    H240414   6.804   4.348   5.396
13491TIP3   OH240415   3.441   1.044   3.911
13491TIP3    H140416   3.426   0.962   3.864
13491TIP3    H240417   3.435   1.020   4.004
13492TIP3   OH240418   0.003   3.131   1.528
13492TIP3    H140419   0.085   3.085   1.510
13492TIP3    H240420   0.011   3.214   1.481
13493TIP3   OH240421   4.610   1.832   5.393
13493TIP3    H140422   4.658   1.915   5.398
13493TIP3    H240423   4.548   1.836   5.466
13494TIP3   OH240424   1.957   4.658   3.480
13494TIP3    H140425   1.923   4.690   3.563
13494TIP3    H240426   2.002   4.733   3.442
13495TIP3   OH240427   6.960   4.584   1.898
13495TIP3    H140428   6.901   4.514   1.926
13495TIP3    H240429   6.975   4.635   1.977
13496TIP3   OH240430   3.003   0.889   6.233
13496TIP3    H140431   3.085   0.841   6.223
13496TIP3    H240432   2.937   0.832   6.194
13497TIP3   OH240433   1.936   4.641   6.076
13497TIP3    H140434   1.936   4.649   5.981
13497TIP3    H240435   1.847   4.665   6.102
13498TIP3   OH240436   7.646   4.483   5.979
13498TIP3    H140437   7.712   4.436   5.928
13498TIP3    H240438   7.637   4.567   5.935
13499TIP3   OH240439   3.426   4.582   2.127
13499TIP3    H140440   3.379   4.621   2.201
13499TIP3    H240441   3.507   4.633   2.121
13500TIP3   OH240442   1.757   7.573   3.964
13500TIP3    H140443   1.682   7.569   4.024
13500TIP3    H240444   1.752   7.661   3.926
13501TIP3   OH240445   2.173   3.840   6.289
13501TIP3    H140446   2.159   3.912   6.351
13501TIP3    H240447   2.094   3.787   6.297
13502TIP3   OH240448   5.334   5.992   5.413
13502TIP3    H140449   5.426   5.974   5.430
13502TIP3    H240450   5.304   5.919   5.360
13503TIP3   OH240451   6.176   5.652   0.744
13503TIP3    H140452   6.245   5.674   0.681
13503TIP3    H240453   6.163   5.732   0.795
13504TIP3   OH240454   5.996   6.885   5.543
13504TIP3    H140455   6.090   6.894   5.527
13504TIP3    H240456   5.954   6.919   5.464
13505TIP3   OH240457   1.706   5.477   0.357
13505TIP3    H140458   1.782   5.461   0.413
13505TIP3    H240459   1.634   5.495   0.419
13506TIP3   OH240460   8.239   0.802   0.229
13506TIP3    H140461   8.148   0.805   0.256
13506TIP3    H240462   8.236   0.806   0.133
13507TIP3   OH240463   5.177   4.991   5.947
13507TIP3    H140464   5.156   4.936   5.871
13507TIP3    H240465   5.155   5.080   5.918
13508TIP3   OH240466   2.350   3.381   3.667
13508TIP3    H140467   2.343   3.475   3.652
13508TIP3    H240468   2.267   3.345   3.633
13509TIP3   OH240469   8.074   7.221   2.704
13509TIP3    H140470   8.103   7.305   2.670
13509TIP3    H240471   8.132   7.203   2.777
13510TIP3   OH240472   3.734   6.310   6.747
13510TIP3    H140473   3.675   6.252   6.698
13510TIP3    H240474   3.684   6.391   6.758
13511TIP3   OH240475   3.042   0.972   4.559
13511TIP3    H140476   3.015   0.988   4.649
13511TIP3    H240477   3.064   0.879   4.557
13512TIP3   OH240478   4.341   3.807   6.121
13512TIP3    H140479   4.273   3.791   6.186
13512TIP3    H240480   4.296   3.799   6.037
13513TIP3   OH240481   0.789   5.960   3.823
13513TIP3    H140482   0.732   6.037   3.830
13513TIP3    H240483   0.849   5.981   3.752
13514TIP3   OH240484   8.146   7.293   3.070
13514TIP3    H140485   8.176   7.302   3.160
13514TIP3    H240486   8.190   7.214   3.038
13515TIP3   OH240487   4.837   5.217   5.418
13515TIP3    H140488   4.834   5.307   5.386
13515TIP3    H240489   4.794   5.166   5.350
13516TIP3   OH240490   5.386   6.910   5.174
13516TIP3    H140491   5.468   6.911   5.223
13516TIP3    H240492   5.385   6.994   5.128
13517TIP3   OH240493   0.001   4.818   3.146
13517TIP3    H140494   0.083   4.793   3.189
13517TIP3    H240495   0.008   4.781   3.058
13518TIP3   OH240496   2.742   1.456   5.678
13518TIP3    H140497   2.753   1.545   5.710
13518TIP3    H240498   2.699   1.465   5.593
13519TIP3   OH240499   2.098   1.669   4.739
13519TIP3    H140500   2.144   1.641   4.660
13519TIP3    H240501   2.041   1.596   4.761
13520TIP3   OH240502   4.441   5.469   4.273
13520TIP3    H140503   4.389   5.410   4.219
13520TIP3    H240504   4.501   5.411   4.320
13521TIP3   OH240505   0.873   1.126   6.452
13521TIP3    H140506   0.883   1.068   6.376
13521TIP3    H240507   0.809   1.081   6.507
13522TIP3   OH240508   3.039   5.437   1.550
13522TIP3    H140509   3.009   5.494   1.479
13522TIP3    H240510   3.036   5.349   1.513
13523TIP3   OH240511   6.590   5.357   4.724
13523TIP3    H140512   6.575   5.336   4.816
13523TIP3    H240513   6.680   5.329   4.707
13524TIP3   OH240514   6.971   7.128   2.001
13524TIP3    H140515   6.972   7.136   2.096
13524TIP3    H240516   6.929   7.044   1.984
13525TIP3   OH240517   1.988   1.895   3.135
13525TIP3    H140518   1.906   1.943   3.131
13525TIP3    H240519   2.035   1.920   3.055
13526TIP3   OH240520   4.523   0.099   1.973
13526TIP3    H140521   4.548   0.093   1.881
13526TIP3    H240522   4.570   0.028   2.016
13527TIP3   OH240523   4.193   3.967   4.255
13527TIP3    H140524   4.149   4.052   4.252
13527TIP3    H240525   4.233   3.964   4.342
13528TIP3   OH240526   6.154   7.782   6.626
13528TIP3    H140527   6.242   7.801   6.659
13528TIP3    H240528   6.097   7.844   6.672
13529TIP3   OH240529   8.089   1.262   2.155
13529TIP3    H140530   8.029   1.248   2.082
13529TIP3    H240531   8.128   1.176   2.171
13530TIP3   OH240532   0.417   7.323   5.462
13530TIP3    H140533   0.472   7.290   5.534
13530TIP3    H240534   0.384   7.244   5.419
13531TIP3   OH240535   1.992   5.189   2.828
13531TIP3    H140536   1.981   5.254   2.758
13531TIP3    H240537   1.959   5.107   2.789
13532TIP3   OH240538   7.837   1.552   3.243
13532TIP3    H140539   7.846   1.462   3.274
13532TIP3    H240540   7.814   1.543   3.151
13533TIP3   OH240541   6.387   5.012   4.045
13533TIP3    H140542   6.442   5.077   4.003
13533TIP3    H240543   6.307   5.010   3.991
13534TIP3   OH240544   1.275   3.086   6.234
13534TIP3    H140545   1.250   3.124   6.150
13534TIP3    H240546   1.357   3.040   6.216
13535TIP3   OH240547   0.409   6.731   6.342
13535TIP3    H140548   0.386   6.641   6.320
13535TIP3    H240549   0.407   6.777   6.258
13536TIP3   OH240550   4.016   6.505   6.562
13536TIP3    H140551   4.073   6.563   6.613
13536TIP3    H240552   3.994   6.434   6.623
13537TIP3   OH240553   4.887   6.957   6.233
13537TIP3    H140554   4.806   6.959   6.284
13537TIP3    H240555   4.886   6.871   6.191
13538TIP3   OH240556   5.509   6.862   3.770
13538TIP3    H140557   5.462   6.880   3.851
13538TIP3    H240558   5.464   6.913   3.703
13539TIP3   OH240559   0.769   4.665   5.366
13539TIP3    H140560   0.693   4.698   5.318
13539TIP3    H240561   0.746   4.678   5.458
13540TIP3   OH240562   7.888   0.843   3.729
13540TIP3    H140563   7.983   0.851   3.718
13540TIP3    H240564   7.874   0.750   3.745
13541TIP3   OH240565   0.986   2.982   4.170
13541TIP3    H140566   0.908   3.038   4.166
13541TIP3    H240567   1.006   2.962   4.079
13542TIP3   OH240568   1.785   6.235   0.256
13542TIP3    H140569   1.787   6.239   0.352
13542TIP3    H240570   1.802   6.143   0.235
13543TIP3   OH240571   4.108   0.542   6.509
13543TIP3    H140572   4.057   0.623   6.502
13543TIP3    H240573   4.082   0.491   6.433
13544TIP3   OH240574   6.586   2.749   4.071
13544TIP3    H140575   6.597   2.838   4.037
13544TIP3    H240576   6.503   2.719   4.033
13545TIP3   OH240577   0.932   6.929   1.062
13545TIP3    H140578   0.991   6.858   1.036
13545TIP3    H240579   0.990   7.005   1.073
13546TIP3   OH240580   6.264   0.629   4.983
13546TIP3    H140581   6.238   0.578   5.060
13546TIP3    H240582   6.345   0.586   4.952
13547TIP3   OH240583   5.937   4.489   0.047
13547TIP3    H140584   5.973   4.577   0.034
13547TIP3    H240585   5.873   4.500   0.118
13548TIP3   OH240586   7.472   1.090   2.432
13548TIP3    H140587   7.507   1.002   2.418
13548TIP3    H240588   7.451   1.092   2.526
13549TIP3   OH240589   3.272   3.028   1.779
13549TIP3    H140590   3.337   3.000   1.844
13549TIP3    H240591   3.191   3.037   1.829
13550TIP3   OH240592   4.998   0.563   3.024
13550TIP3    H140593   4.929   0.604   3.076
13550TIP3    H240594   4.982   0.469   3.032
13551TIP3   OH240595   1.520   5.296   1.657
13551TIP3    H140596   1.433   5.276   1.691
13551TIP3    H240597   1.505   5.325   1.567
13552TIP3   OH240598   0.894   4.103   6.056
13552TIP3    H140599   0.927   4.014   6.049
13552TIP3    H240600   0.806   4.093   6.092
13553TIP3   OH240601   2.902   7.119   0.641
13553TIP3    H140602   2.821   7.124   0.590
13553TIP3    H240603   2.883   7.055   0.709
13554TIP3   OH240604   7.724   7.570   0.607
13554TIP3    H140605   7.730   7.650   0.555
13554TIP3    H240606   7.774   7.505   0.557
13555TIP3   OH240607   7.740   4.790   0.464
13555TIP3    H140608   7.797   4.748   0.399
13555TIP3    H240609   7.688   4.853   0.413
13556TIP3   OH240610   0.669   5.886   2.058
13556TIP3    H140611   0.684   5.935   2.138
13556TIP3    H240612   0.576   5.864   2.060
13557TIP3   OH240613   3.167   2.065   2.376
13557TIP3    H140614   3.085   2.108   2.401
13557TIP3    H240615   3.185   2.095   2.287
13558TIP3   OH240616   5.766   0.844   3.443
13558TIP3    H140617   5.704   0.889   3.386
13558TIP3    H240618   5.846   0.897   3.438
13559TIP3   OH240619   2.492   2.674   1.241
13559TIP3    H140620   2.572   2.623   1.253
13559TIP3    H240621   2.457   2.646   1.156
13560TIP3   OH240622   2.640   2.604   3.249
13560TIP3    H140623   2.648   2.544   3.175
13560TIP3    H240624   2.573   2.667   3.222
13561TIP3   OH240625   3.009   0.014   6.585
13561TIP3    H140626   3.074  -0.013   6.520
13561TIP3    H240627   2.927   0.019   6.537
13562TIP3   OH240628   3.842   7.350   5.625
13562TIP3    H140629   3.839   7.350   5.530
13562TIP3    H240630   3.779   7.417   5.651
13563TIP3   OH240631   2.078   0.073   2.620
13563TIP3    H140632   2.131   0.004   2.659
13563TIP3    H240633   2.088   0.148   2.679
13564TIP3   OH240634   6.893   2.974   1.327
13564TIP3    H140635   6.861   2.961   1.238
13564TIP3    H240636   6.965   3.037   1.317
13565TIP3   OH240637   5.307   3.533   2.861
13565TIP3    H140638   5.257   3.454   2.883
13565TIP3    H240639   5.392   3.500   2.832
13566TIP3   OH240640   2.327   2.665   5.958
13566TIP3    H140641   2.333   2.760   5.955
13566TIP3    H240642   2.394   2.634   5.897
13567TIP3   OH240643   1.399   3.542   6.534
13567TIP3    H140644   1.467   3.482   6.567
13567TIP3    H240645   1.421   3.627   6.573
13568TIP3   OH240646   4.298   6.977   3.823
13568TIP3    H140647   4.385   6.963   3.786
13568TIP3    H240648   4.276   6.894   3.865
13569TIP3   OH240649   0.229   4.855   5.798
13569TIP3    H140650   0.142   4.857   5.836
13569TIP3    H240651   0.279   4.919   5.848
13570TIP3   OH240652   4.585   7.213   4.385
13570TIP3    H140653   4.545   7.147   4.329
13570TIP3    H240654   4.614   7.165   4.463
13571TIP3   OH240655   2.257   1.470   3.906
13571TIP3    H140656   2.163   1.478   3.889
13571TIP3    H240657   2.276   1.377   3.895
13572TIP3   OH240658   5.865   3.248   0.744
13572TIP3    H140659   5.865   3.339   0.773
13572TIP3    H240660   5.954   3.233   0.712
13573TIP3   OH240661   6.132   1.552  -0.003
13573TIP3    H140662   6.148   1.458   0.005
13573TIP3    H240663   6.123   1.583   0.087
13574TIP3   OH240664   4.637   4.817   3.572
13574TIP3    H140665   4.723   4.803   3.531
13574TIP3    H240666   4.580   4.843   3.500
13575TIP3   OH240667   2.717   3.061   6.541
13575TIP3    H140668   2.664   3.083   6.618
13575TIP3    H240669   2.676   2.983   6.505
13576TIP3   OH240670   2.098   4.889   3.370
13576TIP3    H140671   2.033   4.887   3.300
13576TIP3    H240672   2.115   4.982   3.386
13577TIP3   OH240673   3.932   2.595   2.804
13577TIP3    H140674   3.863   2.660   2.794
13577TIP3    H240675   4.001   2.623   2.743
13578TIP3   OH240676   7.721   3.708   2.526
13578TIP3    H140677   7.700   3.720   2.433
13578TIP3    H240678   7.801   3.655   2.525
13579TIP3   OH240679   7.702   4.241   6.558
13579TIP3    H140680   7.703   4.247   6.462
13579TIP3    H240681   7.703   4.147   6.576
13580TIP3   OH240682   3.721   5.718   4.150
13580TIP3    H140683   3.755   5.635   4.183
13580TIP3    H240684   3.629   5.700   4.131
13581TIP3   OH240685   3.581   7.618   4.705
13581TIP3    H140686   3.531   7.699   4.697
13581TIP3    H240687   3.525   7.560   4.757
13582TIP3   OH240688   3.717   6.786   3.166
13582TIP3    H140689   3.645   6.724   3.152
13582TIP3    H240690   3.772   6.778   3.088
13583TIP3   OH240691   7.092   0.205   3.369
13583TIP3    H140692   7.115   0.174   3.456
13583TIP3    H240693   7.067   0.125   3.322
13584TIP3   OH240694   1.879   5.493   3.563
13584TIP3    H140695   1.819   5.481   3.489
13584TIP3    H240696   1.966   5.489   3.524
13585TIP3   OH240697   6.026   6.755   2.021
13585TIP3    H140698   6.110   6.765   2.066
13585TIP3    H240699   5.993   6.670   2.050
13586TIP3   OH240700   3.285   2.137   4.378
13586TIP3    H140701   3.257   2.076   4.447
13586TIP3    H240702   3.378   2.151   4.395
13587TIP3   OH240703   3.935   3.083   6.677
13587TIP3    H140704   3.959   3.155   6.736
13587TIP3    H240705   3.958   3.004   6.724
13588TIP3   OH240706   6.796   1.455   4.054
13588TIP3    H140707   6.867   1.520   4.050
13588TIP3    H240708   6.832   1.378   4.009
13589TIP3   OH240709   7.237   6.794   0.570
13589TIP3    H140710   7.167   6.782   0.506
13589TIP3    H240711   7.269   6.883   0.554
13590TIP3   OH240712   1.162   0.984   0.073
13590TIP3    H140713   1.149   1.067   0.118
13590TIP3    H240714   1.221   0.934   0.130
13591TIP3   OH240715   0.799   6.991   2.905
13591TIP3    H140716   0.744   7.012   2.829
13591TIP3    H240717   0.882   7.035   2.888
13592TIP3   OH240718   1.979   5.443   2.376
13592TIP3    H140719   1.995   5.494   2.296
13592TIP3    H240720   2.018   5.357   2.358
13593TIP3   OH240721   5.684   6.181   2.355
13593TIP3    H140722   5.616   6.229   2.401
13593TIP3    H240723   5.733   6.135   2.424
13594TIP3   OH240724   2.065   2.927   0.935
13594TIP3    H140725   2.157   2.939   0.912
13594TIP3    H240726   2.064   2.921   1.031
13595TIP3   OH240727   5.281   0.863   1.182
13595TIP3    H140728   5.267   0.864   1.277
13595TIP3    H240729   5.270   0.771   1.158
13596TIP3   OH240730   6.213   1.137   6.709
13596TIP3    H140731   6.259   1.197   6.650
13596TIP3    H240732   6.121   1.161   6.701
13597TIP3   OH240733   6.310   3.825   5.548
13597TIP3    H140734   6.386   3.767   5.540
13597TIP3    H240735   6.295   3.858   5.460
13598TIP3   OH240736   4.783   0.646   1.477
13598TIP3    H140737   4.791   0.680   1.388
13598TIP3    H240738   4.780   0.725   1.532
13599TIP3   OH240739   4.614   6.658   5.755
13599TIP3    H140740   4.666   6.668   5.835
13599TIP3    H240741   4.633   6.569   5.725
13600TIP3   OH240742   2.700   5.228   6.729
13600TIP3    H140743   2.736   5.139   6.726
13600TIP3    H240744   2.666   5.244   6.641
13601TIP3   OH240745   1.347   4.205   1.978
13601TIP3    H140746   1.423   4.204   2.038
13601TIP3    H240747   1.340   4.114   1.949
13602TIP3   OH240748   4.340   4.988   0.442
13602TIP3    H140749   4.252   5.006   0.475
13602TIP3    H240750   4.333   4.901   0.403
13603TIP3   OH240751   0.911   1.900   1.506
13603TIP3    H140752   0.843   1.886   1.441
13603TIP3    H240753   0.905   1.825   1.565
13604TIP3   OH240754   0.315   3.723   6.122
13604TIP3    H140755   0.350   3.715   6.211
13604TIP3    H240756   0.238   3.666   6.122
13605TIP3   OH240757   4.994   4.790   0.405
13605TIP3    H140758   4.936   4.765   0.476
13605TIP3    H240759   4.939   4.839   0.344
13606TIP3   OH240760   7.253   5.252   0.319
13606TIP3    H140761   7.184   5.209   0.268
13606TIP3    H240762   7.224   5.344   0.324
13607TIP3   OH240763   3.008   3.070   6.034
13607TIP3    H140764   2.990   3.163   6.048
13607TIP3    H240765   2.926   3.026   6.057
13608TIP3   OH240766   2.060   2.974   3.913
13608TIP3    H140767   2.105   3.046   3.959
13608TIP3    H240768   1.980   2.961   3.964
13609TIP3   OH240769   4.815   0.701   3.183
13609TIP3    H140770   4.845   0.779   3.231
13609TIP3    H240771   4.761   0.654   3.246
13610TIP3   OH240772   5.842   7.334   1.050
13610TIP3    H140773   5.890   7.401   1.001
13610TIP3    H240774   5.765   7.316   0.997
13611TIP3   OH240775   1.155   5.483   5.509
13611TIP3    H140776   1.120   5.463   5.595
13611TIP3    H240777   1.095   5.442   5.448
13612TIP3   OH240778   4.159   7.298   2.710
13612TIP3    H140779   4.221   7.371   2.714
13612TIP3    H240780   4.197   7.232   2.767
13613TIP3   OH240781   0.273   3.118   0.828
13613TIP3    H140782   0.240   3.072   0.750
13613TIP3    H240783   0.359   3.151   0.802
13614TIP3   OH240784   5.473   6.826   5.488
13614TIP3    H140785   5.475   6.789   5.400
13614TIP3    H240786   5.388   6.800   5.523
13615TIP3   OH240787   4.153   5.120   2.368
13615TIP3    H140788   4.221   5.185   2.351
13615TIP3    H240789   4.085   5.169   2.416
13616TIP3   OH240790   3.983   0.819   4.975
13616TIP3    H140791   3.976   0.913   4.958
13616TIP3    H240792   3.975   0.778   4.889
13617TIP3   OH240793   2.832   1.692   2.501
13617TIP3    H140794   2.810   1.667   2.412
13617TIP3    H240795   2.862   1.611   2.543
13618TIP3   OH240796   5.871   2.109   5.637
13618TIP3    H140797   5.927   2.035   5.613
13618TIP3    H240798   5.862   2.159   5.556
13619TIP3   OH240799   0.436   4.931   1.204
13619TIP3    H140800   0.378   4.912   1.129
13619TIP3    H240801   0.391   4.891   1.279
13620TIP3   OH240802   0.388   0.796   6.069
13620TIP3    H140803   0.408   0.867   6.007
13620TIP3    H240804   0.371   0.841   6.152
13621TIP3   OH240805   6.069   4.577   5.773
13621TIP3    H140806   6.150   4.560   5.819
13621TIP3    H240807   6.073   4.523   5.694
13622TIP3   OH240808   0.723   5.372   5.993
13622TIP3    H140809   0.786   5.305   6.021
13622TIP3    H240810   0.703   5.421   6.073
13623TIP3   OH240811   0.290   3.679   2.380
13623TIP3    H140812   0.240   3.654   2.458
13623TIP3    H240813   0.255   3.623   2.311
13624TIP3   OH240814   6.361   3.394   3.385
13624TIP3    H140815   6.291   3.425   3.443
13624TIP3    H240816   6.402   3.322   3.433
13625TIP3   OH240817   2.722   7.108   6.105
13625TIP3    H140818   2.733   7.040   6.039
13625TIP3    H240819   2.713   7.189   6.055
13626TIP3   OH240820   3.052   5.544   1.289
13626TIP3    H140821   2.970   5.570   1.247
13626TIP3    H240822   3.109   5.521   1.216
13627TIP3   OH240823   5.848   6.557   3.562
13627TIP3    H140824   5.827   6.593   3.648
13627TIP3    H240825   5.888   6.472   3.580
13628TIP3   OH240826   6.674   0.091   5.253
13628TIP3    H140827   6.657   0.107   5.160
13628TIP3    H240828   6.716   0.171   5.284
13629TIP3   OH240829   7.329   4.991   3.463
13629TIP3    H140830   7.368   4.907   3.487
13629TIP3    H240831   7.351   5.050   3.536
13630TIP3   OH240832   3.539   3.997   5.770
13630TIP3    H140833   3.481   4.062   5.810
13630TIP3    H240834   3.550   4.027   5.680
13631TIP3   OH240835   7.752   6.364   0.831
13631TIP3    H140836   7.692   6.430   0.866
13631TIP3    H240837   7.838   6.391   0.862
13632TIP3   OH240838   4.114   2.868   2.637
13632TIP3    H140839   4.079   2.786   2.600
13632TIP3    H240840   4.177   2.839   2.703
13633TIP3   OH240841   7.169   0.371   1.604
13633TIP3    H140842   7.228   0.413   1.666
13633TIP3    H240843   7.191   0.278   1.609
13634TIP3   OH240844   4.870   2.195   0.676
13634TIP3    H140845   4.801   2.214   0.612
13634TIP3    H240846   4.943   2.251   0.649
13635TIP3   OH240847   3.254   2.360   1.247
13635TIP3    H140848   3.204   2.399   1.319
13635TIP3    H240849   3.204   2.281   1.223
13636TIP3   OH240850   3.257   3.822   2.608
13636TIP3    H140851   3.349   3.825   2.633
13636TIP3    H240852   3.251   3.750   2.546
13637TIP3   OH240853   5.243   7.283   0.963
13637TIP3    H140854   5.206   7.297   0.876
13637TIP3    H240855   5.167   7.285   1.022
13638TIP3   OH240856   3.305   2.510   3.164
13638TIP3    H140857   3.317   2.573   3.092
13638TIP3    H240858   3.310   2.564   3.243
13639TIP3   OH240859   7.166   4.665   4.473
13639TIP3    H140860   7.121   4.595   4.425
13639TIP3    H240861   7.195   4.726   4.405
13640TIP3   OH240862   2.854   0.553   2.370
13640TIP3    H140863   2.800   0.595   2.437
13640TIP3    H240864   2.935   0.529   2.415
13641TIP3   OH240865   7.500   3.366   0.167
13641TIP3    H140866   7.442   3.333   0.097
13641TIP3    H240867   7.467   3.325   0.247
13642TIP3   OH240868   2.660   0.463   1.368
13642TIP3    H140869   2.644   0.372   1.393
13642TIP3    H240870   2.748   0.481   1.401
13643TIP3   OH240871   3.112   2.423   1.492
13643TIP3    H140872   3.067   2.471   1.562
13643TIP3    H240873   3.183   2.377   1.537
13644TIP3   OH240874   5.953   4.390   5.944
13644TIP3    H140875   6.001   4.408   6.025
13644TIP3    H240876   5.977   4.462   5.886
13645TIP3   OH240877   5.881   2.192   6.130
13645TIP3    H140878   5.936   2.117   6.110
13645TIP3    H240879   5.831   2.207   6.049
13646TIP3   OH240880   3.399   4.003   0.517
13646TIP3    H140881   3.432   3.921   0.553
13646TIP3    H240882   3.414   4.067   0.587
13647TIP3   OH240883   7.435   0.129   2.024
13647TIP3    H140884   7.421   0.142   2.117
13647TIP3    H240885   7.426   0.216   1.985
13648TIP3   OH240886   3.689   6.566   0.152
13648TIP3    H140887   3.776   6.574   0.114
13648TIP3    H240888   3.629   6.578   0.079
13649TIP3   OH240889   3.881   7.644   0.778
13649TIP3    H140890   3.829   7.643   0.859
13649TIP3    H240891   3.962   7.600   0.801
13650TIP3   OH240892   2.291   4.780   3.199
13650TIP3    H140893   2.214   4.806   3.250
13650TIP3    H240894   2.261   4.782   3.108
13651TIP3   OH240895   5.175   1.433   3.412
13651TIP3    H140896   5.217   1.429   3.498
13651TIP3    H240897   5.213   1.510   3.370
13652TIP3   OH240898   6.476   2.412   0.150
13652TIP3    H140899   6.540   2.476   0.181
13652TIP3    H240900   6.523   2.358   0.088
13653TIP3   OH240901   4.577   7.501   0.388
13653TIP3    H140902   4.662   7.545   0.391
13653TIP3    H240903   4.520   7.556   0.443
13654TIP3   OH240904   5.514   7.404   2.002
13654TIP3    H140905   5.565   7.416   1.922
13654TIP3    H240906   5.447   7.472   1.998
13655TIP3   OH240907   2.747   0.826   4.744
13655TIP3    H140908   2.770   0.764   4.675
13655TIP3    H240909   2.727   0.771   4.820
13656TIP3   OH240910   6.681   7.482   3.928
13656TIP3    H140911   6.765   7.449   3.896
13656TIP3    H240912   6.701   7.569   3.963
13657TIP3   OH240913   6.495   5.589   1.395
13657TIP3    H140914   6.558   5.644   1.441
13657TIP3    H240915   6.516   5.500   1.425
13658TIP3   OH240916   0.133   4.646   0.339
13658TIP3    H140917   0.188   4.573   0.369
13658TIP3    H240918   0.151   4.652   0.245
13659TIP3   OH240919   5.456   7.790   1.822
13659TIP3    H140920   5.425   7.725   1.885
13659TIP3    H240921   5.487   7.863   1.876
13660TIP3   OH240922   7.975   1.716   2.704
13660TIP3    H140923   7.918   1.790   2.726
13660TIP3    H240924   8.058   1.757   2.679
13661TIP3   OH240925   0.684   1.179   3.694
13661TIP3    H140926   0.648   1.173   3.605
13661TIP3    H240927   0.681   1.273   3.714
13662TIP3   OH240928   3.282   7.712   5.188
13662TIP3    H140929   3.188   7.712   5.170
13662TIP3    H240930   3.305   7.805   5.195
13663TIP3   OH240931   5.202   3.630   4.801
13663TIP3    H140932   5.222   3.573   4.727
13663TIP3    H240933   5.160   3.572   4.866
13664TIP3   OH240934   3.438   1.010   3.038
13664TIP3    H140935   3.449   0.945   3.107
13664TIP3    H240936   3.345   1.032   3.041
13665TIP3   OH240937   1.582   2.964   4.403
13665TIP3    H140938   1.557   3.048   4.441
13665TIP3    H240939   1.520   2.901   4.441
13666TIP3   OH240940   0.828   4.425   0.200
13666TIP3    H140941   0.765   4.491   0.175
13666TIP3    H240942   0.914   4.466   0.186
13667TIP3   OH240943   6.522   5.802   0.058
13667TIP3    H140944   6.611   5.836   0.071
13667TIP3    H240945   6.535   5.721   0.008
13668TIP3   OH240946   2.241   5.052   0.545
13668TIP3    H140947   2.268   5.024   0.457
13668TIP3    H240948   2.227   5.147   0.536
13669TIP3   OH240949   8.179   6.076   4.126
13669TIP3    H140950   8.180   5.990   4.167
13669TIP3    H240951   8.132   6.063   4.044
13670TIP3   OH240952   1.217   0.480   0.475
13670TIP3    H140953   1.193   0.556   0.528
13670TIP3    H240954   1.257   0.419   0.536
13671TIP3   OH240955   1.876   4.102   6.397
13671TIP3    H140956   1.823   4.164   6.448
13671TIP3    H240957   1.882   4.142   6.310
13672TIP3   OH240958   0.812   3.415   1.390
13672TIP3    H140959   0.741   3.467   1.355
13672TIP3    H240960   0.785   3.392   1.479
13673TIP3   OH240961   2.098   5.875   4.616
13673TIP3    H140962   2.132   5.786   4.607
13673TIP3    H240963   2.006   5.863   4.639
13674TIP3   OH240964   7.537   5.071   2.976
13674TIP3    H140965   7.499   5.069   3.064
13674TIP3    H240966   7.501   5.150   2.936
13675TIP3   OH240967   1.473   4.537   0.561
13675TIP3    H140968   1.423   4.618   0.567
13675TIP3    H240969   1.564   4.564   0.572
13676TIP3   OH240970   8.028   3.804   4.937
13676TIP3    H140971   8.101   3.799   5.000
13676TIP3    H240972   7.975   3.877   4.969
13677TIP3   OH240973   7.396   3.214   3.202
13677TIP3    H140974   7.450   3.236   3.126
13677TIP3    H240975   7.377   3.121   3.192
13678TIP3   OH240976   7.507   5.150   5.738
13678TIP3    H140977   7.457   5.219   5.693
13678TIP3    H240978   7.561   5.198   5.800
13679TIP3   OH240979   7.028   7.358   6.659
13679TIP3    H140980   7.074   7.432   6.698
13679TIP3    H240981   7.024   7.293   6.730
13680TIP3   OH240982   3.679   6.858   2.480
13680TIP3    H140983   3.725   6.915   2.419
13680TIP3    H240984   3.612   6.815   2.427
13681TIP3   OH240985   2.103   3.304   5.343
13681TIP3    H140986   2.021   3.329   5.300
13681TIP3    H240987   2.120   3.215   5.312
13682TIP3   OH240988   7.779   1.710   5.764
13682TIP3    H140989   7.818   1.776   5.707
13682TIP3    H240990   7.822   1.724   5.849
13683TIP3   OH240991   3.869   1.384   0.280
13683TIP3    H140992   3.782   1.389   0.239
13683TIP3    H240993   3.895   1.475   0.292
13684TIP3   OH240994   5.071   1.371   2.291
13684TIP3    H140995   5.012   1.439   2.258
13684TIP3    H240996   5.144   1.370   2.229
13685TIP3   OH240997   3.114   2.750   5.153
13685TIP3    H140998   3.149   2.690   5.087
13685TIP3    H240999   3.019   2.734   5.151
13686TIP3   OH241000   2.780   5.092   5.066
13686TIP3    H141001   2.873   5.080   5.088
13686TIP3    H241002   2.780   5.167   5.007
13687TIP3   OH241003   8.184   6.724   0.392
13687TIP3    H141004   8.183   6.665   0.467
13687TIP3    H241005   8.180   6.666   0.316
13688TIP3   OH241006   3.862   3.179   2.720
13688TIP3    H141007   3.896   3.118   2.785
13688TIP3    H241008   3.935   3.238   2.702
13689TIP3   OH241009   0.734   2.731   6.719
13689TIP3    H141010   0.678   2.653   6.715
13689TIP3    H241011   0.804   2.714   6.656
13690TIP3   OH241012   7.397   5.339   5.128
13690TIP3    H141013   7.481   5.380   5.146
13690TIP3    H241014   7.361   5.389   5.055
13691TIP3   OH241015   6.317   1.885   5.143
13691TIP3    H141016   6.328   1.882   5.048
13691TIP3    H241017   6.331   1.795   5.173
13692TIP3   OH241018   0.967   2.877   3.590
13692TIP3    H141019   0.873   2.860   3.586
13692TIP3    H241020   0.991   2.899   3.500
13693TIP3   OH241021   2.797   4.800   5.907
13693TIP3    H141022   2.713   4.759   5.929
13693TIP3    H241023   2.794   4.885   5.950
13694TIP3   OH241024   0.720   6.513   3.355
13694TIP3    H141025   0.646   6.533   3.299
13694TIP3    H241026   0.704   6.561   3.436
13695TIP3   OH241027   2.980   2.517   1.025
13695TIP3    H141028   2.960   2.438   1.076
13695TIP3    H241029   2.896   2.547   0.993
13696TIP3   OH241030   6.765   2.599   3.689
13696TIP3    H141031   6.682   2.647   3.679
13696TIP3    H241032   6.814   2.649   3.754
13697TIP3   OH241033   6.451   3.234   6.460
13697TIP3    H141034   6.456   3.322   6.424
13697TIP3    H241035   6.480   3.178   6.388
13698TIP3   OH241036   2.667   0.191   6.580
13698TIP3    H141037   2.599   0.151   6.633
13698TIP3    H241038   2.719   0.243   6.642
13699TIP3   OH241039   4.629   2.801   6.618
13699TIP3    H141040   4.612   2.871   6.682
13699TIP3    H241041   4.546   2.792   6.571
13700TIP3   OH241042   4.131   6.004   5.096
13700TIP3    H141043   4.196   6.067   5.066
13700TIP3    H241044   4.153   5.922   5.051
13701TIP3   OH241045   7.488   2.112   5.757
13701TIP3    H141046   7.506   2.021   5.781
13701TIP3    H241047   7.467   2.154   5.841
13702TIP3   OH241048   0.238   2.812   5.275
13702TIP3    H141049   0.233   2.720   5.300
13702TIP3    H241050   0.261   2.858   5.356
13703TIP3   OH241051   5.299   1.103   2.156
13703TIP3    H141052   5.376   1.150   2.187
13703TIP3    H241053   5.235   1.111   2.227
13704TIP3   OH241054   4.207   5.446   6.731
13704TIP3    H141055   4.257   5.369   6.758
13704TIP3    H241056   4.272   5.500   6.685
13705TIP3   OH241057   4.641   3.225   1.787
13705TIP3    H141058   4.668   3.159   1.723
13705TIP3    H241059   4.715   3.286   1.792
13706TIP3   OH241060   0.800   4.068   0.694
13706TIP3    H141061   0.747   4.042   0.619
13706TIP3    H241062   0.881   4.103   0.655
13707TIP3   OH241063   4.811   6.268   5.319
13707TIP3    H141064   4.722   6.254   5.351
13707TIP3    H241065   4.798   6.302   5.230
13708TIP3   OH241066   6.939   6.637   3.345
13708TIP3    H141067   7.012   6.700   3.346
13708TIP3    H241068   6.939   6.603   3.255
13709TIP3   OH241069   2.738   7.374   0.250
13709TIP3    H141070   2.656   7.406   0.288
13709TIP3    H241071   2.807   7.417   0.301
13710TIP3   OH241072   5.785   4.582   0.247
13710TIP3    H141073   5.711   4.582   0.185
13710TIP3    H241074   5.744   4.571   0.333
13711TIP3   OH241075   7.275   0.719   2.217
13711TIP3    H141076   7.235   0.671   2.144
13711TIP3    H241077   7.352   0.761   2.179
13712TIP3   OH241078   6.021   1.153   5.746
13712TIP3    H141079   6.026   1.167   5.841
13712TIP3    H241080   5.928   1.137   5.729
13713TIP3   OH241081   6.788   1.251   1.668
13713TIP3    H141082   6.758   1.160   1.660
13713TIP3    H241083   6.722   1.292   1.724
13714TIP3   OH241084   0.030   3.754   5.478
13714TIP3    H141085   0.096   3.706   5.429
13714TIP3    H241086   0.020   3.705   5.560
13715TIP3   OH241087   5.851   0.690   3.178
13715TIP3    H141088   5.829   0.753   3.247
13715TIP3    H241089   5.810   0.726   3.099
13716TIP3   OH241090   6.126   2.647   5.128
13716TIP3    H141091   6.172   2.721   5.089
13716TIP3    H241092   6.043   2.642   5.080
13717TIP3   OH241093   6.058   7.377   4.572
13717TIP3    H141094   6.043   7.287   4.604
13717TIP3    H241095   6.052   7.370   4.477
13718TIP3   OH241096   6.380   0.516   1.301
13718TIP3    H141097   6.368   0.477   1.215
13718TIP3    H241098   6.315   0.586   1.305
13719TIP3   OH241099   7.252   7.025   1.994
13719TIP3    H141100   7.309   7.032   2.072
13719TIP3    H241101   7.170   7.066   2.021
13720TIP3   OH241102   6.127   6.511   3.206
13720TIP3    H141103   6.044   6.505   3.158
13720TIP3    H241104   6.183   6.444   3.167
13721TIP3   OH241105   3.470   3.246   5.496
13721TIP3    H141106   3.385   3.203   5.492
13721TIP3    H241107   3.455   3.325   5.547
13722TIP3   OH241108   8.152   3.503   6.705
13722TIP3    H141109   8.113   3.534   6.623
13722TIP3    H241110   8.149   3.408   6.698
13723TIP3   OH241111   7.576   4.868   2.468
13723TIP3    H141112   7.588   4.928   2.541
13723TIP3    H241113   7.578   4.923   2.390
13724TIP3   OH241114   6.338   4.115   4.127
13724TIP3    H141115   6.423   4.086   4.095
13724TIP3    H241116   6.324   4.199   4.083
13725TIP3   OH241117   5.827   4.895   5.562
13725TIP3    H141118   5.896   4.846   5.517
13725TIP3    H241119   5.803   4.840   5.636
13726TIP3   OH241120   7.466   0.427   2.045
13726TIP3    H141121   7.549   0.469   2.065
13726TIP3    H241122   7.446   0.374   2.122
13727TIP3   OH241123   0.098   3.876   1.595
13727TIP3    H141124   0.013   3.839   1.618
13727TIP3    H241125   0.111   3.852   1.504
13728TIP3   OH241126   1.016   7.678   1.845
13728TIP3    H141127   1.029   7.583   1.847
13728TIP3    H241128   1.084   7.710   1.787
13729TIP3   OH241129   5.402   6.829   4.031
13729TIP3    H141130   5.401   6.892   4.104
13729TIP3    H241131   5.334   6.861   3.971
13730TIP3   OH241132   7.257   1.171   6.165
13730TIP3    H141133   7.174   1.125   6.182
13730TIP3    H241134   7.322   1.102   6.158
13731TIP3   OH241135   6.617   3.042   3.446
13731TIP3    H141136   6.703   3.039   3.488
13731TIP3    H241137   6.635   3.025   3.354
13732TIP3   OH241138   4.503   6.299   3.020
13732TIP3    H141139   4.498   6.289   2.925
13732TIP3    H241140   4.582   6.252   3.045
13733TIP3   OH241141   1.311   7.161   3.361
13733TIP3    H141142   1.237   7.101   3.355
13733TIP3    H241143   1.377   7.124   3.302
13734TIP3   OH241144   0.424   2.484   1.106
13734TIP3    H141145   0.375   2.405   1.082
13734TIP3    H241146   0.452   2.468   1.196
13735TIP3   OH241147   2.862   6.197   3.648
13735TIP3    H141148   2.922   6.161   3.713
13735TIP3    H241149   2.867   6.292   3.660
13736TIP3   OH241150   0.696   6.781   0.922
13736TIP3    H141151   0.606   6.752   0.909
13736TIP3    H241152   0.737   6.712   0.973
13737TIP3   OH241153   0.042   5.356   2.990
13737TIP3    H141154   0.068   5.264   2.984
13737TIP3    H241155   0.020   5.368   3.083
13738TIP3   OH241156   5.715   5.989   5.125
13738TIP3    H141157   5.770   6.036   5.188
13738TIP3    H241158   5.674   5.919   5.176
13739TIP3   OH241159   7.963   1.351   0.778
13739TIP3    H141160   7.969   1.279   0.715
13739TIP3    H241161   7.873   1.348   0.809
13740TIP3   OH241162   8.226   2.048   1.146
13740TIP3    H141163   8.240   2.143   1.145
13740TIP3    H241164   8.134   2.037   1.169
13741TIP3   OH241165   4.637   1.775   2.215
13741TIP3    H141166   4.696   1.837   2.257
13741TIP3    H241167   4.644   1.696   2.268
13742TIP3   OH241168   4.890   6.362   0.437
13742TIP3    H141169   4.838   6.343   0.359
13742TIP3    H241170   4.898   6.458   0.437
13743TIP3   OH241171   3.418   2.944   0.885
13743TIP3    H141172   3.339   2.951   0.937
13743TIP3    H241173   3.486   2.985   0.938
13744TIP3   OH241174   3.185   0.974   1.529
13744TIP3    H141175   3.275   0.995   1.506
13744TIP3    H241176   3.138   1.057   1.518
13745TIP3   OH241177   3.729   6.484   0.654
13745TIP3    H141178   3.707   6.472   0.562
13745TIP3    H241179   3.720   6.578   0.668
13746TIP3   OH241180   8.241   3.176   3.823
13746TIP3    H141181   8.288   3.201   3.744
13746TIP3    H241182   8.300   3.202   3.894
13747TIP3   OH241183   0.688   7.710   5.145
13747TIP3    H141184   0.754   7.697   5.214
13747TIP3    H241185   0.636   7.630   5.146
13748TIP3   OH241186   1.504   3.462   1.617
13748TIP3    H141187   1.541   3.375   1.629
13748TIP3    H241188   1.410   3.448   1.616
13749TIP3   OH241189   0.043   7.016   6.682
13749TIP3    H141190  -0.037   7.065   6.660
13749TIP3    H241191   0.025   6.927   6.650
13750TIP3   OH241192   0.804   5.007   0.442
13750TIP3    H141193   0.841   5.092   0.466
13750TIP3    H241194   0.711   5.015   0.462
13751TIP3   OH241195   7.363   1.244   6.600
13751TIP3    H141196   7.361   1.291   6.517
13751TIP3    H241197   7.326   1.158   6.580
13752TIP3   OH241198   6.352   0.721   0.149
13752TIP3    H141199   6.274   0.744   0.199
13752TIP3    H241200   6.413   0.687   0.214
13753TIP3   OH241201   2.387   2.883   2.820
13753TIP3    H141202   2.417   2.954   2.876
13753TIP3    H241203   2.323   2.835   2.873
13754TIP3   OH241204   2.435   4.997   3.650
13754TIP3    H141205   2.480   4.914   3.665
13754TIP3    H241206   2.478   5.035   3.574
13755TIP3   OH241207   2.738   4.388   6.571
13755TIP3    H141208   2.798   4.330   6.617
13755TIP3    H241209   2.743   4.359   6.479
13756TIP3   OH241210   3.647   5.242   6.762
13756TIP3    H141211   3.594   5.285   6.695
13756TIP3    H241212   3.726   5.295   6.768
13757TIP3   OH241213   1.015   1.672   3.394
13757TIP3    H141214   0.959   1.683   3.471
13757TIP3    H241215   0.974   1.601   3.344
13758TIP3   OH241216   4.159   2.952   4.670
13758TIP3    H141217   4.196   2.955   4.582
13758TIP3    H241218   4.235   2.954   4.728
13759TIP3   OH241219   3.690   4.686   2.141
13759TIP3    H141220   3.783   4.675   2.123
13759TIP3    H241221   3.673   4.779   2.129
13760TIP3   OH241222   4.998   1.400   4.988
13760TIP3    H141223   5.072   1.373   4.934
13760TIP3    H241224   4.921   1.364   4.944
13761TIP3   OH241225   6.726   6.063   3.794
13761TIP3    H141226   6.812   6.084   3.831
13761TIP3    H241227   6.674   6.142   3.805
13762TIP3   OH241228   1.180   4.368   6.609
13762TIP3    H141229   1.236   4.444   6.593
13762TIP3    H241230   1.130   4.391   6.687
13763TIP3   OH241231   5.659   3.152   1.857
13763TIP3    H141232   5.623   3.189   1.938
13763TIP3    H241233   5.704   3.225   1.815
13764TIP3   OH241234   5.370   2.381   3.442
13764TIP3    H141235   5.316   2.354   3.368
13764TIP3    H241236   5.459   2.387   3.407
13765TIP3   OH241237   2.317   6.668   1.053
13765TIP3    H141238   2.275   6.731   1.113
13765TIP3    H241239   2.331   6.718   0.973
13766TIP3   OH241240   5.343   4.552   0.965
13766TIP3    H141241   5.341   4.521   1.056
13766TIP3    H241242   5.428   4.525   0.932
13767TIP3   OH241243   6.189   5.996   0.019
13767TIP3    H141244   6.205   5.921   0.076
13767TIP3    H241245   6.096   5.992  -0.002
13768TIP3   OH241246   5.391   1.698   0.811
13768TIP3    H141247   5.416   1.778   0.857
13768TIP3    H241248   5.458   1.686   0.744
13769TIP3   OH241249   7.022   5.115   3.103
13769TIP3    H141250   6.937   5.074   3.090
13769TIP3    H241251   7.027   5.132   3.197
13770TIP3   OH241252   2.670   3.042   0.315
13770TIP3    H141253   2.674   3.132   0.347
13770TIP3    H241254   2.653   2.989   0.393
13771TIP3   OH241255   2.930   4.739   6.229
13771TIP3    H141256   2.941   4.797   6.154
13771TIP3    H241257   2.859   4.778   6.280
13772TIP3   OH241258   2.827   7.101   2.092
13772TIP3    H141259   2.796   7.189   2.069
13772TIP3    H241260   2.826   7.053   2.009
13773TIP3   OH241261   3.133   6.139   0.607
13773TIP3    H141262   3.073   6.213   0.606
13773TIP3    H241263   3.180   6.148   0.690
13774TIP3   OH241264   6.887   7.538   2.686
13774TIP3    H141265   6.846   7.580   2.610
13774TIP3    H241266   6.907   7.610   2.746
13775TIP3   OH241267   6.784   5.541   1.094
13775TIP3    H141268   6.824   5.471   1.043
13775TIP3    H241269   6.824   5.621   1.059
13776TIP3   OH241270   0.575   1.132   2.184
13776TIP3    H141271   0.592   1.039   2.196
13776TIP3    H241272   0.565   1.167   2.272
13777TIP3   OH241273   6.894   1.197   6.201
13777TIP3    H141274   6.954   1.132   6.237
13777TIP3    H241275   6.873   1.254   6.276
13778TIP3   OH241276   3.622   0.374   3.400
13778TIP3    H141277   3.679   0.442   3.437
13778TIP3    H241278   3.654   0.362   3.311
13779TIP3   OH241279   4.400   3.587   2.170
13779TIP3    H141280   4.386   3.523   2.239
13779TIP3    H241281   4.431   3.536   2.095
13780TIP3   OH241282   2.747   5.264   3.824
13780TIP3    H141283   2.787   5.179   3.844
13780TIP3    H241284   2.653   5.248   3.835
13781TIP3   OH241285   1.047   7.328   1.692
13781TIP3    H141286   1.060   7.320   1.597
13781TIP3    H241287   1.022   7.239   1.719
13782TIP3   OH241288   4.344   0.820   1.961
13782TIP3    H141289   4.362   0.908   1.995
13782TIP3    H241290   4.333   0.833   1.866
13783TIP3   OH241291   4.255   2.705   2.020
13783TIP3    H141292   4.213   2.702   1.934
13783TIP3    H241293   4.339   2.660   2.007
13784TIP3   OH241294   4.039   3.912   4.513
13784TIP3    H141295   4.045   4.003   4.483
13784TIP3    H241296   3.946   3.893   4.513
13785TIP3   OH241297   2.323   7.736   5.753
13785TIP3    H141298   2.284   7.725   5.840
13785TIP3    H241299   2.394   7.799   5.765
13786TIP3   OH241300   6.093   4.118   4.975
13786TIP3    H141301   6.103   4.213   4.964
13786TIP3    H241302   6.159   4.094   5.039
13787TIP3   OH241303   1.128   0.898   4.134
13787TIP3    H141304   1.072   0.969   4.166
13787TIP3    H241305   1.107   0.890   4.041
13788TIP3   OH241306   3.363   1.275   1.230
13788TIP3    H141307   3.270   1.272   1.255
13788TIP3    H241308   3.368   1.346   1.166
13789TIP3   OH241309   5.511   0.134   2.764
13789TIP3    H141310   5.519   0.204   2.830
13789TIP3    H241311   5.501   0.181   2.681
13790TIP3   OH241312   6.205   7.215   5.526
13790TIP3    H141313   6.171   7.190   5.440
13790TIP3    H241314   6.129   7.216   5.583
13791TIP3   OH241315   0.690   3.977   2.157
13791TIP3    H141316   0.619   3.940   2.209
13791TIP3    H241317   0.725   4.048   2.212
13792TIP3   OH241318   7.213   6.831   1.526
13792TIP3    H141319   7.170   6.746   1.528
13792TIP3    H241320   7.145   6.892   1.499
13793TIP3   OH241321   2.927   4.423   0.068
13793TIP3    H141322   2.976   4.428  -0.014
13793TIP3    H241323   2.858   4.490   0.059
13794TIP3   OH241324   6.566   4.212   5.150
13794TIP3    H141325   6.591   4.139   5.093
13794TIP3    H241326   6.623   4.203   5.226
13795TIP3   OH241327   0.220   7.594   0.028
13795TIP3    H141328   0.264   7.677   0.010
13795TIP3    H241329   0.249   7.536  -0.042
13796TIP3   OH241330   3.456   1.748   4.869
13796TIP3    H141331   3.540   1.748   4.915
13796TIP3    H241332   3.399   1.695   4.924
13797TIP3   OH241333   1.910   3.059   3.016
13797TIP3    H141334   1.918   3.111   3.097
13797TIP3    H241335   1.816   3.046   3.005
13798TIP3   OH241336   0.668   1.606   1.105
13798TIP3    H141337   0.648   1.520   1.141
13798TIP3    H241338   0.597   1.663   1.135
13799TIP3   OH241339   4.073   4.259   2.943
13799TIP3    H141340   4.121   4.176   2.944
13799TIP3    H241341   4.012   4.251   2.869
13800TIP3   OH241342   6.631   7.624   4.667
13800TIP3    H141343   6.569   7.599   4.735
13800TIP3    H241344   6.668   7.707   4.697
13801TIP3   OH241345   3.453   5.980   4.860
13801TIP3    H141346   3.536   5.985   4.812
13801TIP3    H241347   3.444   6.066   4.901
13802TIP3   OH241348   1.659   0.543   6.479
13802TIP3    H141349   1.736   0.509   6.526
13802TIP3    H241350   1.655   0.491   6.399
13803TIP3   OH241351   7.861   7.611   3.242
13803TIP3    H141352   7.879   7.659   3.323
13803TIP3    H241353   7.898   7.524   3.257
13804TIP3   OH241354   2.916   1.995   3.356
13804TIP3    H141355   2.935   1.995   3.449
13804TIP3    H241356   3.002   1.994   3.314
13805TIP3   OH241357   1.983   7.618   2.320
13805TIP3    H141358   1.939   7.549   2.271
13805TIP3    H241359   2.013   7.575   2.400
13806TIP3   OH241360   6.644   6.754   3.622
13806TIP3    H141361   6.630   6.737   3.715
13806TIP3    H241362   6.699   6.833   3.621
13807TIP3   OH241363   8.200   6.815   2.169
13807TIP3    H141364   8.270   6.796   2.232
13807TIP3    H241365   8.159   6.731   2.151
13808TIP3   OH241366   8.193   4.286   5.713
13808TIP3    H141367   8.259   4.329   5.768
13808TIP3    H241368   8.239   4.211   5.675
13809TIP3   OH241369   1.625   6.772   0.598
13809TIP3    H141370   1.647   6.684   0.568
13809TIP3    H241371   1.701   6.800   0.649
13810TIP3   OH241372   4.508   4.098   1.083
13810TIP3    H141373   4.520   4.191   1.060
13810TIP3    H241374   4.414   4.089   1.095
13811TIP3   OH241375   2.448   5.468   4.879
13811TIP3    H141376   2.353   5.473   4.886
13811TIP3    H241377   2.481   5.523   4.950
13812TIP3   OH241378   3.788   5.090   6.544
13812TIP3    H141379   3.821   5.076   6.633
13812TIP3    H241380   3.845   5.158   6.507
13813TIP3   OH241381   3.704   0.756   2.492
13813TIP3    H141382   3.727   0.773   2.400
13813TIP3    H241383   3.679   0.841   2.527
13814TIP3   OH241384   5.141   4.234   0.963
13814TIP3    H141385   5.219   4.184   0.984
13814TIP3    H241386   5.109   4.266   1.047
13815TIP3   OH241387   0.971   3.638   1.680
13815TIP3    H141388   0.967   3.547   1.711
13815TIP3    H241389   0.999   3.631   1.589
13816TIP3   OH241390   4.308   2.311   5.599
13816TIP3    H141391   4.302   2.399   5.562
13816TIP3    H241392   4.230   2.267   5.567
13817TIP3   OH241393   0.469   6.150   4.732
13817TIP3    H141394   0.396   6.107   4.776
13817TIP3    H241395   0.470   6.238   4.770
13818TIP3   OH241396   7.130   4.059   4.122
13818TIP3    H141397   7.211   4.053   4.071
13818TIP3    H241398   7.069   4.003   4.075
13819TIP3   OH241399   2.960   0.349   6.007
13819TIP3    H141400   3.052   0.373   6.021
13819TIP3    H241401   2.917   0.373   6.089
13820TIP3   OH241402   6.053   3.449   4.295
13820TIP3    H141403   6.067   3.407   4.380
13820TIP3    H241404   6.029   3.539   4.317
13821TIP3   OH241405   5.663   4.526   1.551
13821TIP3    H141406   5.601   4.479   1.496
13821TIP3    H241407   5.654   4.618   1.525
13822TIP3   OH241408   5.836   0.984   2.146
13822TIP3    H141409   5.881   0.972   2.230
13822TIP3    H241410   5.908   0.996   2.083
13823TIP3   OH241411   8.031   2.610   4.009
13823TIP3    H141412   8.024   2.515   3.994
13823TIP3    H241413   8.105   2.620   4.068
13824TIP3   OH241414   1.379   2.004   5.579
13824TIP3    H141415   1.345   1.987   5.491
13824TIP3    H241416   1.406   2.095   5.577
13825TIP3   OH241417   6.729   4.473   2.336
13825TIP3    H141418   6.788   4.548   2.328
13825TIP3    H241419   6.787   4.398   2.349
13826TIP3   OH241420   1.039   5.849   3.440
13826TIP3    H141421   0.986   5.798   3.502
13826TIP3    H241422   1.065   5.786   3.373
13827TIP3   OH241423   6.815   6.881   5.958
13827TIP3    H141424   6.876   6.942   6.000
13827TIP3    H241425   6.753   6.937   5.913
13828TIP3   OH241426   5.179   2.792   6.700
13828TIP3    H141427   5.090   2.814   6.676
13828TIP3    H241428   5.172   2.756   6.788
13829TIP3   OH241429   3.691   6.135   5.706
13829TIP3    H141430   3.597   6.149   5.699
13829TIP3    H241431   3.707   6.053   5.659
13830TIP3   OH241432   6.581   6.673   3.892
13830TIP3    H141433   6.486   6.662   3.898
13830TIP3    H241434   6.617   6.603   3.947
13831TIP3   OH241435   7.854   3.203   5.008
13831TIP3    H141436   7.854   3.142   5.081
13831TIP3    H241437   7.915   3.272   5.033
13832TIP3   OH241438   7.568   6.507   2.764
13832TIP3    H141439   7.526   6.580   2.720
13832TIP3    H241440   7.640   6.482   2.706
13833TIP3   OH241441   5.371   7.174   5.072
13833TIP3    H141442   5.307   7.141   5.009
13833TIP3    H241443   5.350   7.267   5.081
13834TIP3   OH241444   5.678   5.332   0.662
13834TIP3    H141445   5.727   5.344   0.743
13834TIP3    H241446   5.643   5.419   0.641
13835TIP3   OH241447   0.248   0.667   4.769
13835TIP3    H141448   0.222   0.725   4.841
13835TIP3    H241449   0.181   0.679   4.702
13836TIP3   OH241450   4.791   6.671   0.725
13836TIP3    H141451   4.843   6.635   0.797
13836TIP3    H241452   4.837   6.643   0.646
13837TIP3   OH241453   3.182   0.432   6.546
13837TIP3    H141454   3.180   0.491   6.621
13837TIP3    H241455   3.271   0.396   6.545
13838TIP3   OH241456   4.249   7.748   1.794
13838TIP3    H141457   4.304   7.826   1.792
13838TIP3    H241458   4.302   7.682   1.838
13839TIP3   OH241459   1.449   1.838   4.416
13839TIP3    H141460   1.513   1.767   4.420
13839TIP3    H241461   1.374   1.805   4.465
13840TIP3   OH241462   5.123   0.802   1.413
13840TIP3    H141463   5.056   0.869   1.429
13840TIP3    H241464   5.082   0.720   1.440
13841TIP3   OH241465   3.474   1.129   4.937
13841TIP3    H141466   3.507   1.148   5.025
13841TIP3    H241467   3.393   1.179   4.930
13842TIP3   OH241468   1.119   5.925   1.258
13842TIP3    H141469   1.204   5.900   1.294
13842TIP3    H241470   1.139   5.993   1.194
13843TIP3   OH241471   3.152   0.252   2.159
13843TIP3    H141472   3.193   0.215   2.081
13843TIP3    H241473   3.181   0.344   2.161
13844TIP3   OH241474   3.081   7.496   5.355
13844TIP3    H141475   3.139   7.442   5.301
13844TIP3    H241476   3.018   7.533   5.293
13845TIP3   OH241477   0.526   3.879   5.335
13845TIP3    H141478   0.512   3.970   5.308
13845TIP3    H241479   0.517   3.881   5.431
13846TIP3   OH241480   0.306   2.558   5.895
13846TIP3    H141481   0.310   2.524   5.984
13846TIP3    H241482   0.300   2.653   5.905
13847TIP3   OH241483   5.032   5.529   1.755
13847TIP3    H141484   5.062   5.440   1.777
13847TIP3    H241485   5.076   5.549   1.673
13848TIP3   OH241486   3.895   1.648   0.336
13848TIP3    H141487   3.836   1.691   0.397
13848TIP3    H241488   3.960   1.714   0.314
13849TIP3   OH241489   6.615   3.234   3.886
13849TIP3    H141490   6.585   3.287   3.812
13849TIP3    H241491   6.598   3.144   3.859
13850TIP3   OH241492   5.038   4.437   6.280
13850TIP3    H141493   4.960   4.382   6.290
13850TIP3    H241494   5.014   4.502   6.214
13851TIP3   OH241495   5.624   6.945   4.635
13851TIP3    H141496   5.589   6.941   4.546
13851TIP3    H241497   5.578   7.018   4.676
13852TIP3   OH241498   8.250   7.485   4.188
13852TIP3    H141499   8.176   7.429   4.214
13852TIP3    H241500   8.228   7.571   4.223
13853TIP3   OH241501   7.423   3.919   4.899
13853TIP3    H141502   7.372   3.852   4.853
13853TIP3    H241503   7.400   4.001   4.856
13854TIP3   OH241504   2.874   7.748   4.898
13854TIP3    H141505   2.791   7.789   4.921
13854TIP3    H241506   2.849   7.671   4.846
13855TIP3   OH241507   2.466   0.407   3.525
13855TIP3    H141508   2.489   0.347   3.454
13855TIP3    H241509   2.531   0.477   3.519
13856TIP3   OH241510   7.333   2.657   4.681
13856TIP3    H141511   7.355   2.744   4.647
13856TIP3    H241512   7.329   2.601   4.604
13857TIP3   OH241513   5.795   4.344   3.921
13857TIP3    H141514   5.870   4.285   3.931
13857TIP3    H241515   5.725   4.301   3.970
13858TIP3   OH241516   1.076   5.493   4.256
13858TIP3    H141517   1.082   5.523   4.165
13858TIP3    H241518   1.115   5.565   4.306
13859TIP3   OH241519   1.241   1.398   0.831
13859TIP3    H141520   1.298   1.395   0.755
13859TIP3    H241521   1.154   1.376   0.798
13860TIP3   OH241522   6.490   3.048   5.470
13860TIP3    H141523   6.418   3.023   5.528
13860TIP3    H241524   6.534   3.119   5.517
13861TIP3   OH241525   3.957   2.244   2.080
13861TIP3    H141526   3.991   2.328   2.110
13861TIP3    H241527   3.862   2.254   2.082
13862TIP3   OH241528   3.672   5.233   1.197
13862TIP3    H141529   3.686   5.212   1.105
13862TIP3    H241530   3.616   5.310   1.197
13863TIP3   OH241531   4.290   6.765   5.857
13863TIP3    H141532   4.378   6.792   5.829
13863TIP3    H241533   4.234   6.783   5.781
13864TIP3   OH241534   5.614   2.490   1.897
13864TIP3    H141535   5.707   2.466   1.904
13864TIP3    H241536   5.600   2.504   1.804
13865TIP3   OH241537   4.420   5.838   3.074
13865TIP3    H141538   4.486   5.880   3.018
13865TIP3    H241539   4.421   5.746   3.048
13866TIP3   OH241540   7.941   2.881   0.101
13866TIP3    H141541   7.931   2.934   0.022
13866TIP3    H241542   7.943   2.944   0.173
13867TIP3   OH241543   7.246   7.338   0.271
13867TIP3    H141544   7.243   7.417   0.217
13867TIP3    H241545   7.219   7.368   0.358
13868TIP3   OH241546   6.402   1.423   2.241
13868TIP3    H141547   6.470   1.412   2.308
13868TIP3    H241548   6.380   1.516   2.245
13869TIP3   OH241549   7.129   2.495   5.489
13869TIP3    H141550   7.123   2.440   5.411
13869TIP3    H241551   7.077   2.573   5.467
13870TIP3   OH241552   4.200   4.290   6.484
13870TIP3    H141553   4.284   4.266   6.445
13870TIP3    H241554   4.137   4.229   6.445
13871TIP3   OH241555   7.729   7.651   6.688
13871TIP3    H141556   7.729   7.744   6.711
13871TIP3    H241557   7.641   7.620   6.713
13872TIP3   OH241558   2.641   1.101   6.448
13872TIP3    H141559   2.624   1.184   6.493
13872TIP3    H241560   2.640   1.123   6.355
13873TIP3   OH241561   3.537   4.866   1.788
13873TIP3    H141562   3.475   4.801   1.823
13873TIP3    H241563   3.580   4.821   1.715
13874TIP3   OH241564   6.111   0.603   0.301
13874TIP3    H141565   6.113   0.620   0.395
13874TIP3    H241566   6.018   0.597   0.279
13875TIP3   OH241567   8.181   1.760   1.699
13875TIP3    H141568   8.220   1.802   1.623
13875TIP3    H241569   8.248   1.699   1.729
13876TIP3   OH241570   0.909   1.804   1.939
13876TIP3    H141571   0.862   1.887   1.935
13876TIP3    H241572   0.851   1.746   1.988
13877TIP3   OH241573   2.643   6.128   0.958
13877TIP3    H141574   2.626   6.204   1.014
13877TIP3    H241575   2.665   6.166   0.873
13878TIP3   OH241576   3.753   6.582   5.933
13878TIP3    H141577   3.782   6.671   5.914
13878TIP3    H241578   3.822   6.526   5.897
13879TIP3   OH241579   4.620   1.038   6.140
13879TIP3    H141580   4.690   0.976   6.121
13879TIP3    H241581   4.548   0.983   6.171
13880TIP3   OH241582   4.145   0.800   5.684
13880TIP3    H141583   4.225   0.819   5.634
13880TIP3    H241584   4.116   0.715   5.653
13881TIP3   OH241585   4.611   0.942   3.950
13881TIP3    H141586   4.652   0.979   4.027
13881TIP3    H241587   4.682   0.935   3.886
13882TIP3   OH241588   0.276   5.144   2.797
13882TIP3    H141589   0.308   5.058   2.771
13882TIP3    H241590   0.208   5.127   2.862
13883TIP3   OH241591   4.486   3.714   3.743
13883TIP3    H141592   4.510   3.665   3.665
13883TIP3    H241593   4.567   3.759   3.768
13884TIP3   OH241594   2.583   1.271   1.822
13884TIP3    H141595   2.509   1.294   1.766
13884TIP3    H241596   2.562   1.182   1.852
13885TIP3   OH241597   2.589   6.809   4.273
13885TIP3    H141598   2.627   6.783   4.189
13885TIP3    H241599   2.521   6.873   4.250
13886TIP3   OH241600   3.313   0.812   6.534
13886TIP3    H141601   3.303   0.906   6.550
13886TIP3    H241602   3.338   0.806   6.442
13887TIP3   OH241603   6.060   2.337   4.061
13887TIP3    H141604   6.138   2.343   4.115
13887TIP3    H241605   6.000   2.402   4.098
13888TIP3   OH241606   3.302   3.446   3.488
13888TIP3    H141607   3.223   3.492   3.458
13888TIP3    H241608   3.374   3.502   3.460
13889TIP3   OH241609   6.479   5.337   1.501
13889TIP3    H141610   6.550   5.289   1.544
13889TIP3    H241611   6.447   5.277   1.434
13890TIP3   OH241612   2.486   5.159   4.290
13890TIP3    H141613   2.396   5.190   4.295
13890TIP3    H241614   2.486   5.096   4.217
13891TIP3   OH241615   4.429   1.107   5.936
13891TIP3    H141616   4.453   1.133   6.025
13891TIP3    H241617   4.334   1.119   5.932
13892TIP3   OH241618   7.032   1.083   0.670
13892TIP3    H141619   6.951   1.128   0.694
13892TIP3    H241620   7.083   1.148   0.621
13893TIP3   OH241621   2.256   6.121   5.101
13893TIP3    H141622   2.223   6.034   5.081
13893TIP3    H241623   2.311   6.144   5.025
13894TIP3   OH241624   7.421   2.949   5.304
13894TIP3    H141625   7.358   2.878   5.295
13894TIP3    H241626   7.414   2.977   5.395
13895TIP3   OH241627   5.955   1.843   5.493
13895TIP3    H141628   5.972   1.778   5.425
13895TIP3    H241629   5.905   1.912   5.449
13896TIP3   OH241630   4.823   6.519   4.690
13896TIP3    H141631   4.756   6.587   4.682
13896TIP3    H241632   4.853   6.527   4.781
13897TIP3   OH241633   4.108   2.828   0.710
13897TIP3    H141634   4.201   2.839   0.689
13897TIP3    H241635   4.089   2.737   0.688
13898TIP3   OH241636   2.713   7.180   6.514
13898TIP3    H141637   2.668   7.245   6.459
13898TIP3    H241638   2.802   7.176   6.479
13899TIP3   OH241639   2.785   6.813   4.473
13899TIP3    H141640   2.828   6.897   4.459
13899TIP3    H241641   2.733   6.799   4.394
13900TIP3   OH241642   5.717   2.482   0.753
13900TIP3    H141643   5.771   2.403   0.754
13900TIP3    H241644   5.780   2.554   0.755
13901TIP3   OH241645   5.780   6.964   3.374
13901TIP3    H141646   5.838   6.962   3.450
13901TIP3    H241647   5.746   6.875   3.368
13902TIP3   OH241648   3.181   4.297   3.673
13902TIP3    H141649   3.259   4.310   3.726
13902TIP3    H241650   3.110   4.334   3.725
13903TIP3   OH241651   4.065   0.727   1.947
13903TIP3    H141652   4.152   0.759   1.922
13903TIP3    H241653   4.057   0.750   2.039
13904TIP3   OH241654   5.305   0.800   4.545
13904TIP3    H141655   5.397   0.782   4.525
13904TIP3    H241656   5.266   0.821   4.460
13905TIP3   OH241657   8.294   0.664   3.257
13905TIP3    H141658   8.293   0.573   3.286
13905TIP3    H241659   8.202   0.691   3.260
13906TIP3   OH241660   3.234   2.273   3.338
13906TIP3    H141661   3.291   2.216   3.286
13906TIP3    H241662   3.271   2.360   3.327
13907TIP3   OH241663   5.948   3.196   0.326
13907TIP3    H141664   6.004   3.219   0.400
13907TIP3    H241665   5.910   3.112   0.351
13908TIP3   OH241666   1.667   1.236   4.178
13908TIP3    H141667   1.658   1.187   4.259
13908TIP3    H241668   1.754   1.276   4.184
13909TIP3   OH241669   7.541   3.448   2.759
13909TIP3    H141670   7.522   3.502   2.836
13909TIP3    H241671   7.634   3.465   2.742
13910TIP3   OH241672   2.558   6.073   3.838
13910TIP3    H141673   2.590   5.991   3.875
13910TIP3    H241674   2.563   6.136   3.910
13911TIP3   OH241675   8.129   3.472   5.532
13911TIP3    H141676   8.177   3.391   5.548
13911TIP3    H241677   8.118   3.511   5.618
13912TIP3   OH241678   0.963   3.357   1.764
13912TIP3    H141679   1.008   3.278   1.795
13912TIP3    H241680   0.909   3.384   1.838
13913TIP3   OH241681   0.373   7.542   0.263
13913TIP3    H141682   0.299   7.523   0.205
13913TIP3    H241683   0.348   7.624   0.306
13914TIP3   OH241684   2.219   3.071   5.326
13914TIP3    H141685   2.207   3.101   5.416
13914TIP3    H241686   2.219   2.975   5.333
13915TIP3   OH241687   3.211   4.609   6.453
13915TIP3    H141688   3.147   4.622   6.523
13915TIP3    H241689   3.249   4.523   6.472
13916TIP3   OH241690   0.107   4.866   1.146
13916TIP3    H141691   0.108   4.839   1.054
13916TIP3    H241692   0.040   4.811   1.186
13917TIP3   OH241693   5.286   5.706   6.074
13917TIP3    H141694   5.271   5.622   6.118
13917TIP3    H241695   5.199   5.730   6.041
13918TIP3   OH241696   0.928   1.656   4.655
13918TIP3    H141697   0.924   1.667   4.750
13918TIP3    H241698   0.964   1.739   4.624
13919TIP3   OH241699   1.656   3.119   0.814
13919TIP3    H141700   1.651   3.183   0.743
13919TIP3    H241701   1.636   3.035   0.773
13920TIP3   OH241702   5.331   5.023   3.905
13920TIP3    H141703   5.284   4.942   3.922
13920TIP3    H241704   5.421   4.995   3.889
13921TIP3   OH241705   7.643   4.882   2.816
13921TIP3    H141706   7.591   4.909   2.892
13921TIP3    H241707   7.660   4.964   2.769
13922TIP3   OH241708   4.479   5.643   3.585
13922TIP3    H141709   4.563   5.607   3.615
13922TIP3    H241710   4.497   5.736   3.570
13923TIP3   OH241711   1.981   1.084   5.135
13923TIP3    H141712   2.057   1.028   5.118
13923TIP3    H241713   1.967   1.129   5.052
13924TIP3   OH241714   2.846   4.132   5.165
13924TIP3    H141715   2.769   4.115   5.219
13924TIP3    H241716   2.819   4.203   5.106
13925TIP3   OH241717   2.843   5.982   3.146
13925TIP3    H141718   2.750   6.001   3.140
13925TIP3    H241719   2.862   5.985   3.240
13926TIP3   OH241720   0.639   3.578   2.911
13926TIP3    H141721   0.631   3.673   2.913
13926TIP3    H241722   0.684   3.559   2.829
13927TIP3   OH241723   3.242   4.888   2.112
13927TIP3    H141724   3.173   4.829   2.141
13927TIP3    H241725   3.223   4.905   2.020
13928TIP3   OH241726   4.459   3.997   3.159
13928TIP3    H141727   4.487   4.089   3.159
13928TIP3    H241728   4.376   3.997   3.206
13929TIP3   OH241729   1.676   6.886   3.100
13929TIP3    H141730   1.717   6.901   3.185
13929TIP3    H241731   1.583   6.903   3.115
13930TIP3   OH241732   4.550   7.695   2.016
13930TIP3    H141733   4.563   7.642   1.937
13930TIP3    H241734   4.584   7.781   1.994
13931TIP3   OH241735   8.185   6.823   4.139
13931TIP3    H141736   8.110   6.802   4.083
13931TIP3    H241737   8.177   6.763   4.213
13932TIP3   OH241738   5.089   1.017   2.326
13932TIP3    H141739   4.997   0.994   2.321
13932TIP3    H241740   5.135   0.932   2.326
13933TIP3   OH241741   7.493   3.814   0.833
13933TIP3    H141742   7.516   3.906   0.819
13933TIP3    H241743   7.557   3.765   0.782
13934TIP3   OH241744   0.316   4.146   4.989
13934TIP3    H141745   0.317   4.166   4.895
13934TIP3    H241746   0.223   4.140   5.011
13935TIP3   OH241747   6.692   5.112   3.128
13935TIP3    H141748   6.660   5.202   3.116
13935TIP3    H241749   6.727   5.111   3.216
13936TIP3   OH241750   1.268   0.552   1.643
13936TIP3    H141751   1.173   0.559   1.641
13936TIP3    H241752   1.285   0.474   1.697
13937TIP3   OH241753   4.579   0.837   3.050
13937TIP3    H141754   4.513   0.800   2.992
13937TIP3    H241755   4.645   0.768   3.058
13938TIP3   OH241756   4.151   1.480   2.842
13938TIP3    H141757   4.133   1.393   2.879
13938TIP3    H241758   4.223   1.515   2.895
13939TIP3   OH241759   3.346   1.934   5.041
13939TIP3    H141760   3.408   1.991   5.087
13939TIP3    H241761   3.312   1.989   4.970
13940TIP3   OH241762   2.440   5.574   2.256
13940TIP3    H141763   2.388   5.538   2.328
13940TIP3    H241764   2.457   5.499   2.199
13941TIP3   OH241765   4.960   5.566   2.063
13941TIP3    H141766   4.927   5.493   2.010
13941TIP3    H241767   4.944   5.643   2.009
13942TIP3   OH241768   5.418   3.953   1.337
13942TIP3    H141769   5.465   4.001   1.406
13942TIP3    H241770   5.441   3.861   1.353
13943TIP3   OH241771   0.993   0.162   4.454
13943TIP3    H141772   1.059   0.096   4.436
13943TIP3    H241773   1.041   0.236   4.490
13944TIP3   OH241774   5.940   5.426   5.133
13944TIP3    H141775   5.992   5.484   5.189
13944TIP3    H241776   5.955   5.459   5.044
13945TIP3   OH241777   3.983   1.668   4.788
13945TIP3    H141778   3.996   1.609   4.862
13945TIP3    H241779   4.049   1.641   4.724
13946TIP3   OH241780   4.732   0.480   2.156
13946TIP3    H141781   4.644   0.518   2.158
13946TIP3    H241782   4.720   0.389   2.183
13947TIP3   OH241783   1.125   2.355   6.399
13947TIP3    H141784   1.069   2.433   6.403
13947TIP3    H241785   1.192   2.377   6.334
13948TIP3   OH241786   4.962   6.237   4.725
13948TIP3    H141787   4.869   6.257   4.713
13948TIP3    H241788   4.963   6.173   4.796
13949TIP3   OH241789   4.948   6.303   2.174
13949TIP3    H141790   4.923   6.229   2.230
13949TIP3    H241791   5.023   6.271   2.124
13950TIP3   OH241792   1.757   3.614   4.020
13950TIP3    H141793   1.766   3.580   4.109
13950TIP3    H241794   1.789   3.703   4.024
13951TIP3   OH241795   0.386   4.510   2.958
13951TIP3    H141796   0.440   4.517   3.037
13951TIP3    H241797   0.435   4.558   2.891
13952TIP3   OH241798   2.968   6.973   5.315
13952TIP3    H141799   2.922   7.057   5.306
13952TIP3    H241800   2.930   6.917   5.248
13953TIP3   OH241801   6.291   0.180   1.275
13953TIP3    H141802   6.244   0.206   1.354
13953TIP3    H241803   6.290   0.258   1.220
13954TIP3   OH241804   4.919   2.188   0.209
13954TIP3    H141805   4.920   2.265   0.266
13954TIP3    H241806   5.001   2.194   0.159
13955TIP3   OH241807   4.441   2.316   2.998
13955TIP3    H141808   4.355   2.292   3.035
13955TIP3    H241809   4.420   2.374   2.925
13956TIP3   OH241810   6.550   6.475   2.652
13956TIP3    H141811   6.493   6.398   2.658
13956TIP3    H241812   6.562   6.489   2.558
13957TIP3   OH241813   3.225   2.594   0.472
13957TIP3    H141814   3.289   2.657   0.505
13957TIP3    H241815   3.180   2.641   0.402
13958TIP3   OH241816   0.442   2.601   4.326
13958TIP3    H141817   0.438   2.592   4.421
13958TIP3    H241818   0.416   2.514   4.293
13959TIP3   OH241819   1.264   7.530   1.426
13959TIP3    H141820   1.299   7.508   1.513
13959TIP3    H241821   1.341   7.542   1.371
13960TIP3   OH241822   6.882   4.722   2.332
13960TIP3    H141823   6.961   4.774   2.317
13960TIP3    H241824   6.892   4.688   2.421
13961TIP3   OH241825   0.093   5.723   4.314
13961TIP3    H141826   0.040   5.756   4.241
13961TIP3    H241827   0.133   5.801   4.352
13962TIP3   OH241828   5.057   1.363   1.935
13962TIP3    H141829   5.006   1.285   1.913
13962TIP3    H241830   5.134   1.359   1.879
13963TIP3   OH241831   7.178   3.579   6.697
13963TIP3    H141832   7.101   3.565   6.642
13963TIP3    H241833   7.184   3.675   6.706
13964TIP3   OH241834   2.215   7.716   6.009
13964TIP3    H141835   2.242   7.770   6.083
13964TIP3    H241836   2.266   7.636   6.018
13965TIP3   OH241837   3.290   4.520   5.047
13965TIP3    H141838   3.378   4.492   5.074
13965TIP3    H241839   3.305   4.601   4.998
13966TIP3   OH241840   7.619   5.265   1.257
13966TIP3    H141841   7.577   5.335   1.307
13966TIP3    H241842   7.556   5.193   1.259
13967TIP3   OH241843   5.264   6.632   6.302
13967TIP3    H141844   5.280   6.574   6.377
13967TIP3    H241845   5.197   6.693   6.333
13968TIP3   OH241846   2.673   0.894   0.292
13968TIP3    H141847   2.696   0.934   0.376
13968TIP3    H241848   2.701   0.956   0.226
13969TIP3   OH241849   4.750   3.812   1.484
13969TIP3    H141850   4.806   3.888   1.463
13969TIP3    H241851   4.751   3.807   1.579
13970TIP3   OH241852   2.025   7.734   0.085
13970TIP3    H141853   2.040   7.657   0.029
13970TIP3    H241854   2.061   7.709   0.170
13971TIP3   OH241855   5.638   3.973   0.055
13971TIP3    H141856   5.642   4.068   0.066
13971TIP3    H241857   5.694   3.955  -0.020
13972TIP3   OH241858   8.002   7.000   0.218
13972TIP3    H141859   7.993   7.044   0.134
13972TIP3    H241860   8.074   6.938   0.205
13973TIP3   OH241861   1.336   6.276   5.871
13973TIP3    H141862   1.414   6.253   5.822
13973TIP3    H241863   1.361   6.353   5.922
13974TIP3   OH241864   8.106   5.095   5.721
13974TIP3    H141865   8.024   5.145   5.721
13974TIP3    H241866   8.158   5.135   5.791
13975TIP3   OH241867   5.951   5.772   3.770
13975TIP3    H141868   6.017   5.725   3.822
13975TIP3    H241869   5.930   5.712   3.699
13976TIP3   OH241870   3.323   1.016   0.447
13976TIP3    H141871   3.332   0.946   0.511
13976TIP3    H241872   3.335   1.097   0.497
13977TIP3   OH241873   7.287   5.148   3.085
13977TIP3    H141874   7.194   5.135   3.070
13977TIP3    H241875   7.319   5.064   3.118
13978TIP3   OH241876   4.209   0.571   0.821
13978TIP3    H141877   4.154   0.526   0.885
13978TIP3    H241878   4.218   0.660   0.855
13979TIP3   OH241879   5.139   4.562   3.549
13979TIP3    H141880   5.219   4.611   3.564
13979TIP3    H241881   5.166   4.488   3.494
13980TIP3   OH241882   5.258   1.382   4.741
13980TIP3    H141883   5.327   1.434   4.782
13980TIP3    H241884   5.281   1.380   4.648
13981TIP3   OH241885   2.353   2.047   3.759
13981TIP3    H141886   2.401   2.000   3.827
13981TIP3    H241887   2.346   1.985   3.687
13982TIP3   OH241888   2.062   4.749   0.267
13982TIP3    H141889   2.080   4.661   0.232
13982TIP3    H241890   2.072   4.807   0.192
13983TIP3   OH241891   7.400   3.567   3.702
13983TIP3    H141892   7.368   3.477   3.699
13983TIP3    H241893   7.328   3.617   3.740
13984TIP3   OH241894   3.276   1.274   2.755
13984TIP3    H141895   3.341   1.267   2.685
13984TIP3    H241896   3.313   1.341   2.814
13985TIP3   OH241897   4.691   6.341   5.720
13985TIP3    H141898   4.704   6.250   5.746
13985TIP3    H241899   4.603   6.362   5.750
13986TIP3   OH241900   6.302   5.293   5.011
13986TIP3    H141901   6.291   5.257   5.099
13986TIP3    H241902   6.326   5.218   4.958
13987TIP3   OH241903   0.900   0.293   3.785
13987TIP3    H141904   0.816   0.338   3.772
13987TIP3    H241905   0.877   0.206   3.817
13988TIP3   OH241906   2.854   0.200   3.321
13988TIP3    H141907   2.899   0.151   3.389
13988TIP3    H241908   2.923   0.227   3.260
13989TIP3   OH241909   0.076   7.316   0.255
13989TIP3    H141910   0.046   7.331   0.344
13989TIP3    H241911   0.171   7.309   0.262
13990TIP3   OH241912   4.149   4.190   0.446
13990TIP3    H141913   4.163   4.151   0.360
13990TIP3    H241914   4.211   4.263   0.450
13991TIP3   OH241915   2.671   1.842   5.078
13991TIP3    H141916   2.642   1.843   4.987
13991TIP3    H241917   2.592   1.823   5.129
13992TIP3   OH241918   5.723   0.453   5.901
13992TIP3    H141919   5.761   0.396   5.968
13992TIP3    H241920   5.667   0.514   5.949
13993TIP3   OH241921   6.142   6.538   0.417
13993TIP3    H141922   6.115   6.498   0.500
13993TIP3    H241923   6.237   6.546   0.424
13994TIP3   OH241924   4.550   4.759   6.420
13994TIP3    H141925   4.566   4.678   6.371
13994TIP3    H241926   4.635   4.803   6.421
13995TIP3   OH241927   2.728   5.760   4.975
13995TIP3    H141928   2.760   5.684   4.927
13995TIP3    H241929   2.647   5.731   5.016
13996TIP3   OH241930   1.566   4.847   0.320
13996TIP3    H141931   1.505   4.918   0.339
13996TIP3    H241932   1.632   4.854   0.388
13997TIP3   OH241933   0.147   2.062   6.408
13997TIP3    H141934   0.082   2.126   6.379
13997TIP3    H241935   0.216   2.066   6.342
13998TIP3   OH241936   0.368   2.332   4.473
13998TIP3    H141937   0.390   2.408   4.527
13998TIP3    H241938   0.283   2.303   4.507
13999TIP3   OH241939   7.328   1.654   5.860
13999TIP3    H141940   7.318   1.578   5.918
13999TIP3    H241941   7.311   1.730   5.917
14000TIP3   OH241942   5.663   7.546   3.085
14000TIP3    H141943   5.746   7.533   3.038
14000TIP3    H241944   5.676   7.502   3.169
14001TIP3   OH241945   6.703   1.532   2.733
14001TIP3    H141946   6.722   1.502   2.823
14001TIP3    H241947   6.736   1.461   2.678
14002TIP3   OH241948   0.585   5.093   2.838
14002TIP3    H141949   0.624   5.101   2.925
14002TIP3    H241950   0.528   5.169   2.830
14003TIP3   OH241951   6.485   5.401   0.206
14003TIP3    H141952   6.572   5.414   0.168
14003TIP3    H241953   6.466   5.309   0.191
14004TIP3   OH241954   3.180   1.761   2.304
14004TIP3    H141955   3.276   1.768   2.307
14004TIP3    H241956   3.149   1.848   2.330
14005TIP3   OH241957   5.175   7.316   4.443
14005TIP3    H141958   5.190   7.381   4.375
14005TIP3    H241959   5.133   7.364   4.514
14006TIP3   OH241960   0.371   7.789   2.668
14006TIP3    H141961   0.396   7.698   2.685
14006TIP3    H241962   0.275   7.788   2.674
14007TIP3   OH241963   2.678   7.225   0.494
14007TIP3    H141964   2.675   7.319   0.478
14007TIP3    H241965   2.650   7.215   0.585
14008TIP3   OH241966   2.099   7.706   6.481
14008TIP3    H141967   2.048   7.659   6.548
14008TIP3    H241968   2.062   7.676   6.398
14009TIP3   OH241969   5.341   4.604   0.263
14009TIP3    H141970   5.326   4.694   0.293
14009TIP3    H241971   5.315   4.549   0.338
14010TIP3   OH241972   2.845   7.354   3.696
14010TIP3    H141973   2.796   7.417   3.643
14010TIP3    H241974   2.827   7.269   3.654
14011TIP3   OH241975   2.328   1.107   3.450
14011TIP3    H141976   2.290   1.128   3.535
14011TIP3    H241977   2.262   1.053   3.407
14012TIP3   OH241978   6.707   7.235   6.642
14012TIP3    H141979   6.616   7.265   6.636
14012TIP3    H241980   6.730   7.249   6.734
14013TIP3   OH241981   2.542   7.783   1.459
14013TIP3    H141982   2.541   7.688   1.449
14013TIP3    H241983   2.549   7.816   1.369
14014TIP3   OH241984   3.513   0.570   6.180
14014TIP3    H141985   3.542   0.647   6.230
14014TIP3    H241986   3.511   0.499   6.244
14015TIP3   OH241987   2.707   6.654   1.864
14015TIP3    H141988   2.720   6.669   1.770
14015TIP3    H241989   2.698   6.559   1.872
14016TIP3   OH241990   5.829   7.396   2.015
14016TIP3    H141991   5.903   7.425   2.069
14016TIP3    H241992   5.756   7.392   2.076
14017TIP3   OH241993   5.618   7.430   2.354
14017TIP3    H141994   5.616   7.437   2.450
14017TIP3    H241995   5.701   7.387   2.335
14018TIP3   OH241996   5.884   5.488   5.810
14018TIP3    H141997   5.947   5.560   5.816
14018TIP3    H241998   5.929   5.420   5.760
14019TIP3   OH241999   7.064   3.840   4.835
14019TIP3    H142000   7.110   3.810   4.757
14019TIP3    H242001   7.088   3.932   4.844
14020TIP3   OH242002   7.350   0.254   4.054
14020TIP3    H142003   7.410   0.184   4.029
14020TIP3    H242004   7.400   0.306   4.118
14021TIP3   OH242005   6.506   0.764   3.968
14021TIP3    H142006   6.571   0.803   4.026
14021TIP3    H242007   6.555   0.741   3.889
14022TIP3   OH242008   1.435   6.518   5.972
14022TIP3    H142009   1.487   6.526   5.892
14022TIP3    H242010   1.499   6.526   6.043
14023TIP3   OH242011   6.708   2.620   0.081
14023TIP3    H142012   6.799   2.647   0.077
14023TIP3    H242013   6.681   2.611  -0.010
14024TIP3   OH242014   6.606   7.056   5.320
14024TIP3    H142015   6.515   7.081   5.306
14024TIP3    H242016   6.612   7.039   5.414
14025TIP3   OH242017   3.871   6.218   2.791
14025TIP3    H142018   3.780   6.222   2.818
14025TIP3    H242019   3.911   6.297   2.828
14026TIP3   OH242020   7.221   2.292   2.218
14026TIP3    H142021   7.289   2.260   2.159
14026TIP3    H242022   7.156   2.222   2.221
14027TIP3   OH242023  -0.026   2.201   5.688
14027TIP3    H142024   0.036   2.230   5.754
14027TIP3    H242025   0.000   2.111   5.667
14028TIP3   OH242026   5.202   6.275   1.224
14028TIP3    H142027   5.169   6.353   1.179
14028TIP3    H242028   5.194   6.205   1.159
14029TIP3   OH242029   7.317   0.982   1.653
14029TIP3    H142030   7.325   0.900   1.604
14029TIP3    H242031   7.401   1.026   1.639
14030TIP3   OH242032   4.557   3.924   4.834
14030TIP3    H142033   4.644   3.956   4.859
14030TIP3    H242034   4.554   3.834   4.866
14031TIP3   OH242035   7.370   0.260   2.771
14031TIP3    H142036   7.355   0.333   2.831
14031TIP3    H242037   7.286   0.214   2.768
14032TIP3   OH242038   6.782   4.860   1.210
14032TIP3    H142039   6.740   4.784   1.169
14032TIP3    H242040   6.714   4.899   1.265
14033TIP3   OH242041   3.520   3.873   2.480
14033TIP3    H142042   3.563   3.952   2.512
14033TIP3    H242043   3.559   3.856   2.395
14034TIP3   OH242044   1.917   0.230   2.953
14034TIP3    H142045   1.913   0.163   3.021
14034TIP3    H242046   1.829   0.231   2.916
14035TIP3   OH242047   1.125   2.202   0.110
14035TIP3    H142048   1.043   2.241   0.082
14035TIP3    H242049   1.150   2.251   0.188
14036TIP3   OH242050   4.382   0.125   5.752
14036TIP3    H142051   4.307   0.124   5.812
14036TIP3    H242052   4.379   0.040   5.708
14037TIP3   OH242053   0.753   0.077   1.794
14037TIP3    H142054   0.781  -0.008   1.760
14037TIP3    H242055   0.821   0.101   1.857
14038TIP3   OH242056   5.442   2.511   0.820
14038TIP3    H142057   5.375   2.471   0.764
14038TIP3    H242058   5.525   2.481   0.784
14039TIP3   OH242059   5.407   6.404   0.716
14039TIP3    H142060   5.336   6.340   0.707
14039TIP3    H242061   5.427   6.405   0.809
14040TIP3   OH242062   2.883   2.628   5.493
14040TIP3    H142063   2.942   2.557   5.468
14040TIP3    H242064   2.803   2.613   5.441
14041TIP3   OH242065   2.383   0.044   3.429
14041TIP3    H142066   2.455   0.103   3.405
14041TIP3    H242067   2.305   0.099   3.425
14042TIP3   OH242068   3.860   5.605   0.512
14042TIP3    H142069   3.790   5.668   0.532
14042TIP3    H242070   3.888   5.572   0.598
14043TIP3   OH242071   2.093   4.737   4.862
14043TIP3    H142072   2.002   4.764   4.880
14043TIP3    H242073   2.145   4.785   4.926
14044TIP3   OH242074   5.363   0.457   6.201
14044TIP3    H142075   5.434   0.401   6.233
14044TIP3    H242076   5.335   0.507   6.278
14045TIP3   OH242077   6.825   0.139   1.457
14045TIP3    H142078   6.750   0.182   1.417
14045TIP3    H242079   6.900   0.172   1.408
14046TIP3   OH242080   1.887   3.328   3.713
14046TIP3    H142081   1.865   3.237   3.729
14046TIP3    H242082   1.814   3.362   3.662
14047TIP3   OH242083   0.219   1.979   4.101
14047TIP3    H142084   0.171   1.910   4.147
14047TIP3    H242085   0.265   2.026   4.171
14048TIP3   OH242086   0.730   0.201  -0.005
14048TIP3    H142087   0.779   0.219   0.076
14048TIP3    H242088   0.739   0.107  -0.018
14049TIP3   OH242089   1.061   5.982   5.601
14049TIP3    H142090   1.151   6.004   5.622
14049TIP3    H242091   1.031   6.052   5.543
14050TIP3   OH242092   8.179   0.303   4.297
14050TIP3    H142093   8.086   0.283   4.305
14050TIP3    H242094   8.189   0.389   4.338
14051TIP3   OH242095   6.034   2.538   2.661
14051TIP3    H142096   5.956   2.532   2.606
14051TIP3    H242097   6.011   2.602   2.729
14052TIP3   OH242098   7.136   6.678   0.036
14052TIP3    H142099   7.139   6.652  -0.056
14052TIP3    H242100   7.103   6.769   0.033
14053TIP3   OH242101   6.447   2.710   4.668
14053TIP3    H142102   6.469   2.617   4.675
14053TIP3    H242103   6.351   2.712   4.679
14054TIP3   OH242104   6.003   4.763   4.911
14054TIP3    H142105   5.978   4.851   4.881
14054TIP3    H242106   6.000   4.709   4.832
14055TIP3   OH242107   4.215   0.262   5.044
14055TIP3    H142108   4.202   0.293   5.133
14055TIP3    H242109   4.285   0.317   5.009
14056TIP3   OH242110   1.991   7.035   0.882
14056TIP3    H142111   1.989   6.943   0.907
14056TIP3    H242112   2.019   7.034   0.790
14057TIP3   OH242113   5.810   2.449   6.632
14057TIP3    H142114   5.841   2.540   6.631
14057TIP3    H242115   5.884   2.398   6.597
14058TIP3   OH242116   4.110   6.384   2.007
14058TIP3    H142117   4.053   6.459   2.022
14058TIP3    H242118   4.135   6.391   1.915
14059TIP3   OH242119   0.557   1.177   3.448
14059TIP3    H142120   0.552   1.081   3.451
14059TIP3    H242121   0.521   1.200   3.362
14060TIP3   OH242122   6.268   0.660   4.311
14060TIP3    H142123   6.246   0.682   4.220
14060TIP3    H242124   6.188   0.620   4.346
14061TIP3   OH242125   7.670   7.012   2.183
14061TIP3    H142126   7.622   7.018   2.266
14061TIP3    H242127   7.697   6.921   2.177
14062TIP3   OH242128   0.502   6.404   0.966
14062TIP3    H142129   0.547   6.401   1.050
14062TIP3    H242130   0.467   6.315   0.955
14063TIP3   OH242131   7.985   1.903   2.394
14063TIP3    H142132   8.000   1.929   2.484
14063TIP3    H242133   7.988   1.985   2.344
14064TIP3   OH242134   7.031   7.560   4.798
14064TIP3    H142135   7.052   7.544   4.706
14064TIP3    H242136   7.000   7.476   4.831
14065TIP3   OH242137   3.626   2.735   4.377
14065TIP3    H142138   3.631   2.815   4.430
14065TIP3    H242139   3.536   2.733   4.346
14066TIP3   OH242140   6.168   6.569   1.314
14066TIP3    H142141   6.121   6.529   1.387
14066TIP3    H242142   6.101   6.619   1.267
14067TIP3   OH242143   3.712   0.716   4.864
14067TIP3    H142144   3.662   0.795   4.843
14067TIP3    H242145   3.793   0.725   4.815
14068TIP3   OH242146   3.449   7.622   0.894
14068TIP3    H142147   3.401   7.604   0.975
14068TIP3    H242148   3.515   7.553   0.890
14069TIP3   OH242149   3.139   3.416   1.577
14069TIP3    H142150   3.213   3.355   1.577
14069TIP3    H242151   3.151   3.469   1.656
14070TIP3   OH242152   7.274   2.994   3.141
14070TIP3    H142153   7.183   2.964   3.137
14070TIP3    H242154   7.324   2.923   3.100
14071TIP3   OH242155   2.410   1.914   0.836
14071TIP3    H142156   2.422   1.926   0.930
14071TIP3    H242157   2.336   1.971   0.814
14072TIP3   OH242158   2.769   4.879   1.741
14072TIP3    H142159   2.774   4.798   1.690
14072TIP3    H242160   2.846   4.876   1.798
14073TIP3   OH242161   7.103   4.971   0.868
14073TIP3    H142162   7.134   4.985   0.779
14073TIP3    H242163   7.131   5.050   0.916
14074TIP3   OH242164   1.335   6.853   6.430
14074TIP3    H142165   1.362   6.907   6.356
14074TIP3    H242166   1.278   6.787   6.392
14075TIP3   OH242167   1.997   5.172   3.441
14075TIP3    H142168   2.082   5.213   3.422
14075TIP3    H242169   1.943   5.191   3.365
14076TIP3   OH242170   8.183   0.717   1.735
14076TIP3    H142171   8.201   0.625   1.756
14076TIP3    H242172   8.173   0.718   1.640
14077TIP3   OH242173   5.509   1.637   1.128
14077TIP3    H142174   5.593   1.612   1.167
14077TIP3    H242175   5.528   1.653   1.036
14078TIP3   OH242176   4.415   0.659   2.625
14078TIP3    H142177   4.472   0.683   2.551
14078TIP3    H242178   4.344   0.609   2.586
14079TIP3   OH242179   0.624   7.230   1.641
14079TIP3    H142180   0.551   7.269   1.593
14079TIP3    H242181   0.697   7.231   1.578
14080TIP3   OH242182   3.507   7.591   4.072
14080TIP3    H142183   3.501   7.520   4.136
14080TIP3    H242184   3.443   7.656   4.102
14081TIP3   OH242185   8.098   0.448   2.449
14081TIP3    H142186   8.145   0.489   2.521
14081TIP3    H242187   8.137   0.486   2.370
14082TIP3   OH242188   2.187   6.153   4.782
14082TIP3    H142189   2.224   6.065   4.776
14082TIP3    H242190   2.159   6.173   4.692
14083TIP3   OH242191   8.125   5.940   3.890
14083TIP3    H142192   8.094   5.853   3.864
14083TIP3    H242193   8.210   5.949   3.847
14084TIP3   OH242194   7.353   7.290   5.866
14084TIP3    H142195   7.387   7.312   5.780
14084TIP3    H242196   7.305   7.208   5.853
14085TIP3   OH242197   3.734   0.915   0.549
14085TIP3    H142198   3.752   0.966   0.628
14085TIP3    H242199   3.640   0.927   0.534
14086TIP3   OH242200   6.418   7.110   2.836
14086TIP3    H142201   6.422   7.191   2.886
14086TIP3    H242202   6.406   7.138   2.745
14087TIP3   OH242203   2.554   6.395   6.038
14087TIP3    H142204   2.594   6.471   5.996
14087TIP3    H242205   2.507   6.350   5.968
14088TIP3   OH242206   6.852   2.890   3.606
14088TIP3    H142207   6.827   2.811   3.558
14088TIP3    H242208   6.897   2.944   3.541
14089TIP3   OH242209   7.571   7.605   3.199
14089TIP3    H142210   7.557   7.524   3.247
14089TIP3    H242211   7.667   7.614   3.195
14090TIP3   OH242212   1.992   4.595   1.282
14090TIP3    H142213   2.056   4.665   1.295
14090TIP3    H242214   1.924   4.635   1.227
14091TIP3   OH242215   8.022   5.616   3.186
14091TIP3    H142216   7.945   5.560   3.200
14091TIP3    H242217   8.024   5.633   3.092
14092TIP3   OH242218   6.292   5.086   1.695
14092TIP3    H142219   6.332   5.161   1.738
14092TIP3    H242220   6.317   5.011   1.750
14093TIP3   OH242221   5.198   3.150   5.973
14093TIP3    H142222   5.226   3.210   5.904
14093TIP3    H242223   5.103   3.163   5.978
14094TIP3   OH242224   3.842   6.500   2.336
14094TIP3    H142225   3.917   6.441   2.330
14094TIP3    H242226   3.879   6.588   2.327
14095TIP3   OH242227   6.032   6.704   4.364
14095TIP3    H142228   5.982   6.769   4.413
14095TIP3    H242229   6.124   6.730   4.377
14096TIP3   OH242230   6.127   0.045   4.204
14096TIP3    H142231   6.202  -0.011   4.224
14096TIP3    H242232   6.163   0.134   4.203
14097TIP3   OH242233   2.059   0.706   0.913
14097TIP3    H142234   2.123   0.678   0.848
14097TIP3    H242235   1.975   0.676   0.879
14098TIP3   OH242236   7.973   2.327   3.973
14098TIP3    H142237   7.899   2.305   4.030
14098TIP3    H242238   8.050   2.299   4.022
14099TIP3   OH242239   1.504   2.178   2.982
14099TIP3    H142240   1.499   2.260   2.933
14099TIP3    H242241   1.513   2.110   2.914
14100TIP3   OH242242   1.185   7.620   5.207
14100TIP3    H142243   1.168   7.671   5.128
14100TIP3    H242244   1.272   7.584   5.195
14101TIP3   OH242245   3.226   1.122   4.420
14101TIP3    H142246   3.194   1.184   4.354
14101TIP3    H242247   3.152   1.063   4.436
14102TIP3   OH242248   1.709   2.980   1.569
14102TIP3    H142249   1.666   2.899   1.542
14102TIP3    H242250   1.792   2.952   1.606
14103TIP3   OH242251   6.505   5.820   6.127
14103TIP3    H142252   6.473   5.850   6.042
14103TIP3    H242253   6.447   5.748   6.150
14104TIP3   OH242254   1.411   1.324   5.281
14104TIP3    H142255   1.432   1.231   5.289
14104TIP3    H242256   1.495   1.369   5.291
14105TIP3   OH242257   3.981   7.143   3.115
14105TIP3    H142258   3.939   7.122   3.032
14105TIP3    H242259   3.914   7.126   3.181
14106TIP3   OH242260   4.366   3.700   4.465
14106TIP3    H142261   4.408   3.679   4.548
14106TIP3    H242262   4.404   3.639   4.402
14107TIP3   OH242263   6.149   2.475   6.530
14107TIP3    H142264   6.201   2.471   6.610
14107TIP3    H242265   6.214   2.479   6.459
14108TIP3   OH242266   3.628   3.482   0.186
14108TIP3    H142267   3.642   3.471   0.280
14108TIP3    H242268   3.537   3.459   0.172
14109TIP3   OH242269   3.533   0.623   3.126
14109TIP3    H142270   3.483   0.690   3.173
14109TIP3    H242271   3.512   0.541   3.171
14110TIP3   OH242272   4.379   4.920   1.485
14110TIP3    H142273   4.429   4.839   1.495
14110TIP3    H242274   4.441   4.981   1.444
14111TIP3   OH242275   5.585   2.667   2.460
14111TIP3    H142276   5.512   2.628   2.507
14111TIP3    H242277   5.586   2.623   2.375
14112TIP3   OH242278   7.119   7.764   0.256
14112TIP3    H142279   7.147   7.752   0.347
14112TIP3    H242280   7.041   7.818   0.262
14113TIP3   OH242281   2.033   7.550   1.167
14113TIP3    H142282   2.008   7.517   1.081
14113TIP3    H242283   2.047   7.472   1.220
14114TIP3   OH242284   3.301   0.204   1.916
14114TIP3    H142285   3.312   0.279   1.857
14114TIP3    H242286   3.309   0.128   1.858
14115TIP3   OH242287   5.424   7.056   4.799
14115TIP3    H142288   5.396   7.093   4.715
14115TIP3    H242289   5.344   7.052   4.851
14116TIP3   OH242290   2.361   5.471   3.268
14116TIP3    H142291   2.349   5.527   3.192
14116TIP3    H242292   2.453   5.443   3.263
14117TIP3   OH242293   6.961   5.717   5.156
14117TIP3    H142294   6.971   5.622   5.163
14117TIP3    H242295   6.889   5.737   5.217
14118TIP3   OH242296   0.523   6.348   2.715
14118TIP3    H142297   0.584   6.275   2.701
14118TIP3    H242298   0.440   6.307   2.738
14119TIP3   OH242299   1.530   4.680   2.456
14119TIP3    H142300   1.468   4.619   2.416
14119TIP3    H242301   1.537   4.752   2.393
14120TIP3   OH242302   0.588   1.561   5.000
14120TIP3    H142303   0.577   1.513   5.082
14120TIP3    H242304   0.528   1.636   5.008
14121TIP3   OH242305   4.362   1.030   4.554
14121TIP3    H142306   4.443   1.058   4.597
14121TIP3    H242307   4.376   1.053   4.462
14122TIP3   OH242308   4.085   2.452   1.179
14122TIP3    H142309   4.023   2.513   1.220
14122TIP3    H242310   4.163   2.504   1.163
14123TIP3   OH242311   2.816   4.721   0.105
14123TIP3    H142312   2.819   4.795   0.045
14123TIP3    H242313   2.725   4.718   0.136
14124TIP3   OH242314   5.597   1.325   5.781
14124TIP3    H142315   5.658   1.319   5.707
14124TIP3    H242316   5.516   1.356   5.741
14125TIP3   OH242317   5.850   5.990   4.603
14125TIP3    H142318   5.764   5.963   4.572
14125TIP3    H242319   5.847   6.085   4.604
14126TIP3   OH242320   5.377   0.028   4.976
14126TIP3    H142321   5.297   0.007   4.929
14126TIP3    H242322   5.358   0.008   5.067
14127TIP3   OH242323   6.667   2.727   2.010
14127TIP3    H142324   6.680   2.704   1.918
14127TIP3    H242325   6.755   2.732   2.047
14128TIP3   OH242326   4.020   0.021   5.689
14128TIP3    H142327   3.995   0.105   5.649
14128TIP3    H242328   4.043  -0.035   5.615
14129TIP3   OH242329   4.552   2.738   2.439
14129TIP3    H142330   4.488   2.802   2.410
14129TIP3    H242331   4.556   2.750   2.534
14130TIP3   OH242332   4.434   5.761   4.632
14130TIP3    H142333   4.504   5.763   4.567
14130TIP3    H242334   4.353   5.765   4.581
14131TIP3   OH242335   3.073   2.404   6.199
14131TIP3    H142336   3.035   2.454   6.127
14131TIP3    H242337   2.998   2.358   6.238
14132TIP3   OH242338   5.997   0.040   1.181
14132TIP3    H142339   6.089   0.045   1.204
14132TIP3    H242340   5.972   0.131   1.164
14133TIP3   OH242341   5.229   4.821   6.492
14133TIP3    H142342   5.309   4.868   6.513
14133TIP3    H242343   5.173   4.886   6.450
14134TIP3   OH242344   0.219   6.214   1.741
14134TIP3    H142345   0.260   6.171   1.816
14134TIP3    H242346   0.268   6.183   1.665
14135TIP3   OH242347   5.601   5.297   2.415
14135TIP3    H142348   5.601   5.361   2.486
14135TIP3    H242349   5.510   5.296   2.384
14136TIP3   OH242350   0.577   6.434   6.700
14136TIP3    H142351   0.633   6.454   6.775
14136TIP3    H242352   0.531   6.354   6.726
14137TIP3   OH242353   4.386   1.703   4.825
14137TIP3    H142354   4.477   1.680   4.847
14137TIP3    H242355   4.391   1.740   4.737
14138TIP3   OH242356   1.764   5.264   0.127
14138TIP3    H142357   1.758   5.332   0.194
14138TIP3    H242358   1.848   5.220   0.145
14139TIP3   OH242359   0.218   3.975   6.253
14139TIP3    H142360   0.240   3.945   6.341
14139TIP3    H242361   0.283   3.934   6.197
14140TIP3   OH242362   1.376   4.176   0.924
14140TIP3    H142363   1.375   4.267   0.954
14140TIP3    H242364   1.290   4.143   0.948
14141TIP3   OH242365   7.011   7.740   1.193
14141TIP3    H142366   6.926   7.757   1.233
14141TIP3    H242367   7.000   7.655   1.149
14142TIP3   OH242368   5.460   0.567   0.615
14142TIP3    H142369   5.551   0.544   0.633
14142TIP3    H242370   5.409   0.515   0.677
14143TIP3   OH242371   1.761   0.411   1.861
14143TIP3    H142372   1.842   0.458   1.881
14143TIP3    H242373   1.788   0.342   1.799
14144TIP3   OH242374   0.756   4.680   5.639
14144TIP3    H142375   0.735   4.682   5.732
14144TIP3    H242376   0.851   4.670   5.635
14145TIP3   OH242377   1.753   1.690   4.819
14145TIP3    H142378   1.705   1.773   4.808
14145TIP3    H242379   1.790   1.695   4.907
14146TIP3   OH242380   7.457   5.043   1.256
14146TIP3    H142381   7.487   5.001   1.337
14146TIP3    H242382   7.404   4.976   1.213
14147TIP3   OH242383   0.921   6.391   0.449
14147TIP3    H142384   0.981   6.387   0.375
14147TIP3    H242385   0.977   6.388   0.526
14148TIP3   OH242386   2.077   6.350   3.097
14148TIP3    H142387   2.124   6.430   3.121
14148TIP3    H242388   1.988   6.364   3.131
14149TIP3   OH242389   4.491   2.141   4.960
14149TIP3    H142390   4.517   2.153   5.051
14149TIP3    H242391   4.543   2.067   4.929
14150TIP3   OH242392   5.973   4.281   2.541
14150TIP3    H142393   5.935   4.348   2.597
14150TIP3    H242394   5.897   4.240   2.498
14151TIP3   OH242395   2.413   1.011   6.054
14151TIP3    H142396   2.433   0.944   5.989
14151TIP3    H242397   2.321   0.997   6.075
14152TIP3   OH242398   3.568   5.652   6.654
14152TIP3    H142399   3.611   5.635   6.738
14152TIP3    H242400   3.524   5.571   6.632
14153TIP3   OH242401   5.814   6.318   6.479
14153TIP3    H142402   5.767   6.279   6.553
14153TIP3    H242403   5.819   6.248   6.414
14154TIP3   OH242404   2.990   5.602   5.764
14154TIP3    H142405   3.021   5.530   5.818
14154TIP3    H242406   2.990   5.678   5.822
14155TIP3   OH242407   0.205   3.299   4.870
14155TIP3    H142408   0.284   3.246   4.862
14155TIP3    H242409   0.144   3.244   4.919
14156TIP3   OH242410   5.115   1.925   4.419
14156TIP3    H142411   5.139   1.972   4.339
14156TIP3    H242412   5.019   1.918   4.414
14157TIP3   OH242413   1.867   0.444   2.288
14157TIP3    H142414   1.944   0.419   2.237
14157TIP3    H242415   1.833   0.361   2.323
14158TIP3   OH242416   6.690   7.113   1.738
14158TIP3    H142417   6.651   7.197   1.763
14158TIP3    H242418   6.632   7.079   1.671
14159TIP3   OH242419   2.741   1.920   0.080
14159TIP3    H142420   2.688   1.905   0.001
14159TIP3    H242421   2.823   1.875   0.062
14160TIP3   OH242422   2.021   6.107   2.936
14160TIP3    H142423   2.033   6.179   2.997
14160TIP3    H242424   2.089   6.119   2.870
14161TIP3   OH242425   4.740   6.311   3.482
14161TIP3    H142426   4.674   6.257   3.526
14161TIP3    H242427   4.809   6.249   3.457
14162TIP3   OH242428   7.088   3.562   4.336
14162TIP3    H142429   7.105   3.552   4.429
14162TIP3    H242430   7.080   3.656   4.322
14163TIP3   OH242431   6.584   5.023   4.920
14163TIP3    H142432   6.527   4.989   4.851
14163TIP3    H242433   6.667   5.041   4.876
14164TIP3   OH242434   4.444   4.264   1.694
14164TIP3    H142435   4.433   4.301   1.782
14164TIP3    H242436   4.455   4.341   1.638
14165TIP3   OH242437   7.532   4.693   3.062
14165TIP3    H142438   7.466   4.649   3.115
14165TIP3    H242439   7.606   4.632   3.060
14166TIP3   OH242440   1.821   5.808   4.021
14166TIP3    H142441   1.841   5.901   4.029
14166TIP3    H242442   1.785   5.799   3.932
14167TIP3   OH242443   2.746   5.346   1.562
14167TIP3    H142444   2.838   5.371   1.555
14167TIP3    H242445   2.708   5.409   1.624
14168TIP3   OH242446   5.239   3.766   0.267
14168TIP3    H142447   5.206   3.677   0.254
14168TIP3    H242448   5.181   3.804   0.332
14169TIP3   OH242449   5.484   6.012   1.910
14169TIP3    H142450   5.486   5.940   1.972
14169TIP3    H242451   5.500   6.090   1.962
14170TIP3   OH242452   5.880   3.112   4.768
14170TIP3    H142453   5.933   3.156   4.702
14170TIP3    H242454   5.932   3.036   4.795
14171TIP3   OH242455   1.734   3.477   5.963
14171TIP3    H142456   1.755   3.569   5.981
14171TIP3    H242457   1.800   3.449   5.900
14172TIP3   OH242458   7.113   1.618   0.353
14172TIP3    H142459   7.058   1.610   0.431
14172TIP3    H242460   7.160   1.700   0.365
14173TIP3   OH242461   6.157   3.474   3.542
14173TIP3    H142462   6.070   3.500   3.512
14173TIP3    H242463   6.140   3.429   3.625
14174TIP3   OH242464   0.687   6.988   4.793
14174TIP3    H142465   0.734   7.057   4.841
14174TIP3    H242466   0.737   6.977   4.712
14175TIP3   OH242467   5.333   3.277   3.807
14175TIP3    H142468   5.267   3.280   3.737
14175TIP3    H242469   5.411   3.315   3.768
14176TIP3   OH242470   7.731   5.301   0.941
14176TIP3    H142471   7.642   5.334   0.954
14176TIP3    H242472   7.784   5.349   1.005
14177TIP3   OH242473   5.001   0.287   0.212
14177TIP3    H142474   5.074   0.254   0.160
14177TIP3    H242475   5.025   0.265   0.302
14178TIP3   OH242476   1.568   3.321   0.274
14178TIP3    H142477   1.639   3.277   0.320
14178TIP3    H242478   1.533   3.384   0.336
14179TIP3   OH242479   4.258   5.082  -0.005
14179TIP3    H142480   4.328   5.038  -0.053
14179TIP3    H242481   4.297   5.104   0.080
14180TIP3   OH242482   4.837   2.554   2.953
14180TIP3    H142483   4.804   2.631   2.908
14180TIP3    H242484   4.759   2.507   2.982
14181TIP3   OH242485   6.740   1.684   1.971
14181TIP3    H142486   6.736   1.607   2.027
14181TIP3    H242487   6.658   1.730   1.988
14182TIP3   OH242488   5.023   1.283   1.039
14182TIP3    H142489   4.947   1.281   0.981
14182TIP3    H242490   5.058   1.194   1.036
14183TIP3   OH242491   5.708   3.365   0.294
14183TIP3    H142492   5.754   3.449   0.303
14183TIP3    H242493   5.771   3.308   0.250
14184TIP3   OH242494   4.798   7.637   0.098
14184TIP3    H142495   4.797   7.715   0.154
14184TIP3    H242496   4.829   7.568   0.156
14185TIP3   OH242497   2.472   2.828   3.172
14185TIP3    H142498   2.402   2.788   3.120
14185TIP3    H242499   2.439   2.824   3.262
14186TIP3   OH242500   0.078   0.490   1.771
14186TIP3    H142501   0.130   0.519   1.846
14186TIP3    H242502   0.128   0.519   1.695
14187TIP3   OH242503   8.183   6.351   1.857
14187TIP3    H142504   8.151   6.432   1.818
14187TIP3    H242505   8.169   6.285   1.790
14188TIP3   OH242506   5.523   4.815   0.218
14188TIP3    H142507   5.463   4.740   0.211
14188TIP3    H242508   5.529   4.849   0.128
14189TIP3   OH242509   7.138   4.524   2.808
14189TIP3    H142510   7.208   4.586   2.786
14189TIP3    H242511   7.067   4.579   2.841
14190TIP3   OH242512   4.612   1.582   5.550
14190TIP3    H142513   4.584   1.510   5.493
14190TIP3    H242514   4.597   1.661   5.498
14191TIP3   OH242515   0.150   0.062   2.046
14191TIP3    H142516   0.120   0.005   2.117
14191TIP3    H242517   0.130   0.150   2.077
14192TIP3   OH242518   8.125   0.958   3.166
14192TIP3    H142519   8.040   0.967   3.124
14192TIP3    H242520   8.106   0.925   3.254
14193TIP3   OH242521   8.207   4.029   0.360
14193TIP3    H142522   8.295   4.052   0.391
14193TIP3    H242523   8.177   4.107   0.313
14194TIP3   OH242524   3.909   1.128   0.159
14194TIP3    H142525   3.871   1.199   0.210
14194TIP3    H242526   3.844   1.058   0.165
14195TIP3   OH242527   7.639   3.977   6.630
14195TIP3    H142528   7.611   3.924   6.556
14195TIP3    H242529   7.594   3.939   6.705
14196TIP3   OH242530   5.433   5.046   0.360
14196TIP3    H142531   5.492   5.040   0.434
14196TIP3    H242532   5.465   4.981   0.297
14197TIP3   OH242533   4.074   2.372   6.714
14197TIP3    H142534   4.012   2.389   6.785
14197TIP3    H242535   4.113   2.458   6.695
14198TIP3   OH242536   1.689   7.420   4.370
14198TIP3    H142537   1.630   7.465   4.310
14198TIP3    H242538   1.640   7.415   4.452
14199TIP3   OH242539   2.874   6.633   3.048
14199TIP3    H142540   2.867   6.539   3.064
14199TIP3    H242541   2.785   6.666   3.062
14200TIP3   OH242542   6.380   0.038   6.664
14200TIP3    H142543   6.343   0.122   6.637
14200TIP3    H242544   6.319  -0.027   6.628
14201TIP3   OH242545   5.068   7.487   5.010
14201TIP3    H142546   5.008   7.489   4.936
14201TIP3    H242547   5.027   7.543   5.076
14202TIP3   OH242548   3.450   2.743   4.943
14202TIP3    H142549   3.498   2.769   5.021
14202TIP3    H242550   3.449   2.821   4.887
14203TIP3   OH242551   6.114   0.778   6.270
14203TIP3    H142552   6.210   0.776   6.270
14203TIP3    H242553   6.090   0.792   6.361
14204TIP3   OH242554   1.635   5.147   2.850
14204TIP3    H142555   1.658   5.220   2.909
14204TIP3    H242556   1.698   5.078   2.873
14205TIP3   OH242557   5.482   3.072   0.734
14205TIP3    H142558   5.521   3.154   0.763
14205TIP3    H242559   5.465   3.084   0.641
14206TIP3   OH242560   0.112   2.552   3.566
14206TIP3    H142561   0.190   2.555   3.621
14206TIP3    H242562   0.040   2.541   3.628
14207TIP3   OH242563   6.639   4.542   5.616
14207TIP3    H142564   6.726   4.571   5.588
14207TIP3    H242565   6.594   4.523   5.534
14208TIP3   OH242566   3.121   0.803   4.061
14208TIP3    H142567   3.089   0.865   3.996
14208TIP3    H242568   3.047   0.788   4.118
14209TIP3   OH242569   3.063   0.611   5.833
14209TIP3    H142570   3.080   0.686   5.890
14209TIP3    H242571   3.133   0.549   5.855
14210TIP3   OH242572   1.086   6.048   3.107
14210TIP3    H142573   1.078   6.110   3.035
14210TIP3    H242574   0.997   6.018   3.124
14211TIP3   OH242575   0.476   4.428   2.455
14211TIP3    H142576   0.488   4.345   2.409
14211TIP3    H242577   0.390   4.420   2.497
14212TIP3   OH242578   8.014   7.509   1.004
14212TIP3    H142579   8.008   7.536   1.095
14212TIP3    H242580   7.946   7.560   0.959
14213TIP3   OH242581   1.073   4.997   5.377
14213TIP3    H142582   1.156   4.959   5.404
14213TIP3    H242583   1.033   4.930   5.322
14214TIP3   OH242584   4.871   5.369   6.184
14214TIP3    H142585   4.842   5.293   6.233
14214TIP3    H242586   4.893   5.434   6.251
14215TIP3   OH242587   6.135   5.145   0.382
14215TIP3    H142588   6.077   5.069   0.369
14215TIP3    H242589   6.169   5.134   0.471
14216TIP3   OH242590   4.948   3.850   5.854
14216TIP3    H142591   5.003   3.815   5.785
14216TIP3    H242592   4.979   3.807   5.934
14217TIP3   OH242593   2.305   2.378   1.020
14217TIP3    H142594   2.358   2.298   1.029
14217TIP3    H242595   2.269   2.393   1.107
14218TIP3   OH242596   6.591   2.316   5.850
14218TIP3    H142597   6.511   2.302   5.800
14218TIP3    H242598   6.649   2.363   5.789
14219TIP3   OH242599   8.205   7.772   2.858
14219TIP3    H142600   8.120   7.730   2.858
14219TIP3    H242601   8.185   7.866   2.860
14220TIP3   OH242602   1.837   4.901   3.238
14220TIP3    H142603   1.844   4.997   3.231
14220TIP3    H242604   1.750   4.886   3.276
14221TIP3   OH242605   7.812   7.575   1.496
14221TIP3    H142606   7.856   7.582   1.580
14221TIP3    H242607   7.719   7.589   1.516
14222TIP3   OH242608   4.949   3.247   3.233
14222TIP3    H142609   4.968   3.154   3.220
14222TIP3    H242610   5.019   3.277   3.291
14223TIP3   OH242611   0.241   5.562   5.529
14223TIP3    H142612   0.167   5.558   5.468
14223TIP3    H242613   0.315   5.588   5.474
14224TIP3   OH242614   3.445   1.806   2.309
14224TIP3    H142615   3.439   1.855   2.227
14224TIP3    H242616   3.509   1.737   2.291
14225TIP3   OH242617   1.872   1.067   5.923
14225TIP3    H142618   1.937   0.999   5.941
14225TIP3    H242619   1.803   1.052   5.988
14226TIP3   OH242620   2.488   6.871   2.053
14226TIP3    H142621   2.560   6.810   2.037
14226TIP3    H242622   2.523   6.934   2.116
14227TIP3   OH242623   6.578   5.525   0.672
14227TIP3    H142624   6.635   5.562   0.739
14227TIP3    H242625   6.531   5.600   0.637
14228TIP3   OH242626   4.014   6.331   5.123
14228TIP3    H142627   3.985   6.364   5.208
14228TIP3    H242628   3.935   6.296   5.083
14229TIP3   OH242629   7.996   6.438   4.636
14229TIP3    H142630   8.074   6.494   4.635
14229TIP3    H242631   7.924   6.497   4.615
14230TIP3   OH242632   5.693   2.513   3.348
14230TIP3    H142633   5.747   2.592   3.354
14230TIP3    H242634   5.610   2.544   3.312
14231TIP3   OH242635   2.565   5.787   1.442
14231TIP3    H142636   2.487   5.840   1.460
14231TIP3    H242637   2.613   5.837   1.377
14232TIP3   OH242638   3.943   4.603   4.193
14232TIP3    H142639   4.037   4.586   4.203
14232TIP3    H242640   3.937   4.698   4.184
14233TIP3   OH242641   5.033   2.374   5.579
14233TIP3    H142642   4.987   2.356   5.660
14233TIP3    H242643   4.998   2.457   5.548
14234TIP3   OH242644   4.497   0.621   1.463
14234TIP3    H142645   4.486   0.634   1.557
14234TIP3    H242646   4.588   0.644   1.446
14235TIP3   OH242647   3.871   6.067   3.560
14235TIP3    H142648   3.814   6.034   3.630
14235TIP3    H242649   3.888   5.990   3.506
14236TIP3   OH242650   1.466   7.471   3.884
14236TIP3    H142651   1.383   7.475   3.838
14236TIP3    H242652   1.497   7.382   3.871
14237TIP3   OH242653   2.204   2.183   4.428
14237TIP3    H142654   2.192   2.145   4.341
14237TIP3    H242655   2.168   2.117   4.487
14238TIP3   OH242656   4.794   4.476   2.420
14238TIP3    H142657   4.707   4.443   2.399
14238TIP3    H242658   4.781   4.536   2.494
14239TIP3   OH242659   1.596   0.888   0.878
14239TIP3    H142660   1.649   0.959   0.915
14239TIP3    H242661   1.632   0.808   0.918
14240TIP3   OH242662   4.116   7.587   6.060
14240TIP3    H142663   4.084   7.507   6.017
14240TIP3    H242664   4.065   7.658   6.020
14241TIP3   OH242665   7.354   5.489   2.300
14241TIP3    H142666   7.283   5.524   2.354
14241TIP3    H242667   7.416   5.452   2.363
14242TIP3   OH242668   5.033   0.398   3.588
14242TIP3    H142669   5.032   0.488   3.557
14242TIP3    H242670   5.126   0.375   3.594
14243TIP3   OH242671   5.763   3.743   1.685
14243TIP3    H142672   5.808   3.749   1.769
14243TIP3    H242673   5.683   3.795   1.698
14244TIP3   OH242674   5.140   4.975   4.993
14244TIP3    H142675   5.227   4.959   5.030
14244TIP3    H242676   5.126   4.902   4.933
14245TIP3   OH242677   2.339   6.208   1.190
14245TIP3    H142678   2.302   6.279   1.136
14245TIP3    H242679   2.288   6.211   1.271
14246TIP3   OH242680   6.382   7.678   6.303
14246TIP3    H142681   6.438   7.706   6.230
14246TIP3    H242682   6.395   7.746   6.370
14247TIP3   OH242683   1.381   3.298   1.392
14247TIP3    H142684   1.318   3.303   1.464
14247TIP3    H242685   1.345   3.232   1.334
14248TIP3   OH242686   2.990   7.701   3.107
14248TIP3    H142687   2.980   7.649   3.027
14248TIP3    H242688   2.901   7.722   3.133
14249TIP3   OH242689   0.962   6.371   2.440
14249TIP3    H142690   0.891   6.320   2.479
14249TIP3    H242691   0.996   6.315   2.370
14250TIP3   OH242692   5.343   5.571   5.805
14250TIP3    H142693   5.282   5.599   5.873
14250TIP3    H242694   5.364   5.651   5.757
14251TIP3   OH242695   0.503   2.097   1.052
14251TIP3    H142696   0.503   2.098   0.956
14251TIP3    H242697   0.423   2.142   1.076
14252TIP3   OH242698   2.851   2.088   5.840
14252TIP3    H142699   2.891   2.001   5.835
14252TIP3    H242700   2.885   2.135   5.764
14253TIP3   OH242701   3.221   1.707   4.478
14253TIP3    H142702   3.278   1.746   4.412
14253TIP3    H242703   3.236   1.613   4.470
14254TIP3   OH242704   0.996   7.368   2.085
14254TIP3    H142705   1.059   7.355   2.155
14254TIP3    H242706   0.914   7.387   2.130
14255TIP3   OH242707   0.205   3.700   3.504
14255TIP3    H142708   0.286   3.712   3.453
14255TIP3    H242709   0.196   3.605   3.513
14256TIP3   OH242710   5.129   6.285   0.612
14256TIP3    H142711   5.134   6.190   0.615
14256TIP3    H242712   5.077   6.303   0.534
14257TIP3   OH242713   5.206   1.907   2.142
14257TIP3    H142714   5.272   1.871   2.201
14257TIP3    H242715   5.225   2.000   2.138
14258TIP3   OH242716   3.636   2.328   5.225
14258TIP3    H142717   3.600   2.367   5.145
14258TIP3    H242718   3.705   2.269   5.195
14259TIP3   OH242719   3.898   1.815   4.587
14259TIP3    H142720   3.971   1.877   4.577
14259TIP3    H242721   3.912   1.775   4.673
14260TIP3   OH242722   3.127   3.994   5.816
14260TIP3    H142723   3.056   3.978   5.879
14260TIP3    H242724   3.197   4.032   5.868
14261TIP3   OH242725   5.327   4.314   3.065
14261TIP3    H142726   5.271   4.342   3.138
14261TIP3    H242727   5.266   4.278   3.001
14262TIP3   OH242728   3.703   5.461   4.292
14262TIP3    H142729   3.739   5.397   4.230
14262TIP3    H242730   3.608   5.445   4.289
14263TIP3   OH242731   3.540   5.647   6.083
14263TIP3    H142732   3.632   5.622   6.073
14263TIP3    H242733   3.513   5.606   6.165
14264TIP3   OH242734   2.286   0.656   0.779
14264TIP3    H142735   2.305   0.620   0.692
14264TIP3    H242736   2.373   0.670   0.818
14265TIP3   OH242737   6.928   7.273   4.264
14265TIP3    H142738   6.983   7.350   4.246
14265TIP3    H242739   6.854   7.283   4.204
14266TIP3   OH242740   5.373   3.478   6.536
14266TIP3    H142741   5.437   3.462   6.466
14266TIP3    H242742   5.419   3.458   6.617
14267TIP3   OH242743   3.037   7.532   4.729
14267TIP3    H142744   3.048   7.513   4.822
14267TIP3    H242745   2.944   7.522   4.713
14268TIP3   OH242746   7.614   0.617   1.438
14268TIP3    H142747   7.651   0.558   1.504
14268TIP3    H242748   7.635   0.574   1.354
14269TIP3   OH242749   1.495   7.570   1.286
14269TIP3    H142750   1.474   7.635   1.219
14269TIP3    H242751   1.559   7.512   1.245
14270TIP3   OH242752   7.426   0.165   0.550
14270TIP3    H142753   7.458   0.085   0.593
14270TIP3    H242754   7.504   0.216   0.532
14271TIP3   OH242755   0.188   6.759   5.866
14271TIP3    H142756   0.276   6.745   5.899
14271TIP3    H242757   0.165   6.677   5.822
14272TIP3   OH242758   3.165   5.734   3.697
14272TIP3    H142759   3.248   5.689   3.679
14272TIP3    H242760   3.145   5.780   3.616
14273TIP3   OH242761   5.679   1.858   4.415
14273TIP3    H142762   5.655   1.769   4.393
14273TIP3    H242763   5.769   1.868   4.384
14274TIP3   OH242764   5.707   2.923   4.391
14274TIP3    H142765   5.683   2.958   4.306
14274TIP3    H242766   5.641   2.856   4.409
14275TIP3   OH242767   2.882   4.830   2.205
14275TIP3    H142768   2.866   4.805   2.296
14275TIP3    H242769   2.795   4.841   2.167
14276TIP3   OH242770   2.221   5.106   1.563
14276TIP3    H142771   2.184   5.125   1.649
14276TIP3    H242772   2.309   5.072   1.581
14277TIP3   OH242773   2.031   6.326   3.774
14277TIP3    H142774   2.124   6.302   3.767
14277TIP3    H242775   2.032   6.418   3.799
14278TIP3   OH242776   5.954   3.213   4.298
14278TIP3    H142777   5.882   3.261   4.338
14278TIP3    H242778   6.012   3.280   4.263
14279TIP3   OH242779   5.562   7.289   2.979
14279TIP3    H142780   5.569   7.380   3.007
14279TIP3    H242781   5.625   7.242   3.033
14280TIP3   OH242782   0.778   5.785   4.635
14280TIP3    H142783   0.742   5.809   4.550
14280TIP3    H242784   0.863   5.830   4.638
14281TIP3   OH242785   1.570   6.942   2.337
14281TIP3    H142786   1.526   6.925   2.421
14281TIP3    H242787   1.555   6.862   2.286
14282TIP3   OH242788   1.491   5.536   6.321
14282TIP3    H142789   1.523   5.448   6.341
14282TIP3    H242790   1.540   5.562   6.242
14283TIP3   OH242791   7.362   3.064   3.656
14283TIP3    H142792   7.445   3.021   3.677
14283TIP3    H242793   7.365   3.147   3.704
14284TIP3   OH242794   0.514   2.411   3.813
14284TIP3    H142795   0.527   2.371   3.727
14284TIP3    H242796   0.499   2.336   3.871
14285TIP3   OH242797   6.281   0.250   6.525
14285TIP3    H142798   6.309   0.191   6.455
14285TIP3    H242799   6.354   0.312   6.534
14286TIP3   OH242800   1.165   3.629   5.355
14286TIP3    H142801   1.088   3.600   5.307
14286TIP3    H242802   1.206   3.695   5.300
14287TIP3   OH242803   6.410   2.040   5.724
14287TIP3    H142804   6.403   2.135   5.728
14287TIP3    H242805   6.322   2.010   5.701
14288TIP3   OH242806   2.952   0.671   2.703
14288TIP3    H142807   2.929   0.731   2.632
14288TIP3    H242808   3.020   0.718   2.752
14289TIP3   OH242809   6.289   0.065   3.553
14289TIP3    H142810   6.217   0.101   3.502
14289TIP3    H242811   6.292  -0.027   3.528
14290TIP3   OH242812   3.428   0.620   2.457
14290TIP3    H142813   3.476   0.702   2.467
14290TIP3    H242814   3.353   0.642   2.401
14291TIP3   OH242815   5.997   3.151   3.329
14291TIP3    H142816   5.938   3.118   3.261
14291TIP3    H242817   6.053   3.213   3.284
14292TIP3   OH242818   6.605   6.138   1.980
14292TIP3    H142819   6.614   6.065   1.919
14292TIP3    H242820   6.585   6.096   2.064
14293TIP3   OH242821   2.072   4.521   5.109
14293TIP3    H142822   2.051   4.610   5.135
14293TIP3    H242823   2.166   4.522   5.091
14294TIP3   OH242824   6.868   0.217   3.623
14294TIP3    H142825   6.863   0.300   3.576
14294TIP3    H242826   6.782   0.209   3.666
14295TIP3   OH242827   6.753   0.525   5.259
14295TIP3    H142828   6.792   0.515   5.346
14295TIP3    H242829   6.679   0.465   5.259
14296TIP3   OH242830   1.299   1.763   5.076
14296TIP3    H142831   1.208   1.789   5.095
14296TIP3    H242832   1.303   1.670   5.098
14297TIP3   OH242833   7.263   1.791   5.520
14297TIP3    H142834   7.313   1.710   5.531
14297TIP3    H242835   7.179   1.762   5.483
14298TIP3   OH242836  -0.026   7.426   1.658
14298TIP3    H142837   0.035   7.358   1.687
14298TIP3    H242838   0.015   7.508   1.684
14299TIP3   OH242839   2.497   2.645   4.159
14299TIP3    H142840   2.557   2.714   4.188
14299TIP3    H242841   2.435   2.635   4.232
14300TIP3   OH242842   5.136   1.697   0.000
14300TIP3    H142843   5.072   1.656   0.058
14300TIP3    H242844   5.199   1.738   0.059
14301TIP3   OH242845   7.667   6.203   3.243
14301TIP3    H142846   7.738   6.146   3.213
14301TIP3    H242847   7.602   6.199   3.172
14302TIP3   OH242848   2.937   4.692   0.361
14302TIP3    H142849   2.990   4.767   0.387
14302TIP3    H242850   2.892   4.720   0.282
14303TIP3   OH242851   6.298   6.652   3.366
14303TIP3    H142852   6.358   6.687   3.301
14303TIP3    H242853   6.233   6.603   3.315
14304TIP3   OH242854   7.169   3.738   3.727
14304TIP3    H142855   7.163   3.779   3.814
14304TIP3    H242856   7.190   3.811   3.668
14305TIP3   OH242857   6.830   6.499   2.197
14305TIP3    H142858   6.740   6.495   2.230
14305TIP3    H242859   6.857   6.590   2.214
14306TIP3   OH242860   2.793   4.973   4.694
14306TIP3    H142861   2.751   4.985   4.608
14306TIP3    H242862   2.887   4.982   4.676
14307TIP3   OH242863   2.652   2.362   5.944
14307TIP3    H142864   2.657   2.268   5.963
14307TIP3    H242865   2.702   2.373   5.862
14308TIP3   OH242866   6.524   1.288   0.766
14308TIP3    H142867   6.572   1.348   0.709
14308TIP3    H242868   6.434   1.323   0.767
14309TIP3   OH242869   2.670   6.737   0.693
14309TIP3    H142870   2.715   6.812   0.733
14309TIP3    H242871   2.602   6.776   0.639
14310TIP3   OH242872   3.012   1.486   2.994
14310TIP3    H142873   3.083   1.518   2.938
14310TIP3    H242874   2.994   1.557   3.055
14311TIP3   OH242875   4.867   5.281   1.308
14311TIP3    H142876   4.951   5.304   1.269
14311TIP3    H242877   4.885   5.271   1.401
14312TIP3   OH242878   2.044   0.012   2.128
14312TIP3    H142879   2.087   0.093   2.099
14312TIP3    H242880   2.042   0.019   2.224
14313TIP3   OH242881   1.336   3.602   3.329
14313TIP3    H142882   1.396   3.551   3.273
14313TIP3    H242883   1.255   3.552   3.329
14314TIP3   OH242884   5.757   0.430   4.292
14314TIP3    H142885   5.842   0.434   4.336
14314TIP3    H242886   5.705   0.370   4.346
14315TIP3   OH242887   0.029   6.221   4.827
14315TIP3    H142888   0.114   6.233   4.870
14315TIP3    H242889   0.049   6.170   4.749
14316TIP3   OH242890   6.829   4.383   2.047
14316TIP3    H142891   6.769   4.334   2.103
14316TIP3    H242892   6.916   4.367   2.085
14317TIP3   OH242893   0.271   6.687   2.094
14317TIP3    H142894   0.199   6.711   2.152
14317TIP3    H242895   0.320   6.769   2.082
14318TIP3   OH242896   3.602   5.135   6.353
14318TIP3    H142897   3.528   5.102   6.402
14318TIP3    H242898   3.679   5.113   6.406
14319TIP3   OH242899   3.729   0.283   6.588
14319TIP3    H142900   3.809   0.325   6.620
14319TIP3    H242901   3.715   0.210   6.648
14320TIP3   OH242902   1.023   3.867   1.417
14320TIP3    H142903   1.091   3.934   1.427
14320TIP3    H242904   1.044   3.823   1.335
14321TIP3   OH242905   3.709   4.033   2.566
14321TIP3    H142906   3.780   4.050   2.504
14321TIP3    H242907   3.718   3.941   2.590
14322TIP3   OH242908   5.447   0.667   3.005
14322TIP3    H142909   5.496   0.594   2.967
14322TIP3    H242910   5.382   0.625   3.061
14323TIP3   OH242911   1.322   6.889   3.761
14323TIP3    H142912   1.320   6.801   3.722
14323TIP3    H242913   1.399   6.889   3.817
14324TIP3   OH242914   2.384   3.106   3.661
14324TIP3    H142915   2.408   3.093   3.753
14324TIP3    H242916   2.389   3.201   3.649
14325TIP3   OH242917   2.089   5.699   3.971
14325TIP3    H142918   2.080   5.791   3.948
14325TIP3    H242919   2.007   5.676   4.014
14326TIP3   OH242920   1.094   3.728   4.399
14326TIP3    H142921   1.136   3.767   4.321
14326TIP3    H242922   1.044   3.654   4.365
14327TIP3   OH242923   1.679   2.378   2.643
14327TIP3    H142924   1.630   2.407   2.720
14327TIP3    H242925   1.612   2.372   2.574
14328TIP3   OH242926   1.230   0.917   3.515
14328TIP3    H142927   1.267   0.919   3.427
14328TIP3    H242928   1.162   0.985   3.514
14329TIP3   OH242929   7.706   4.998   0.688
14329TIP3    H142930   7.757   5.016   0.767
14329TIP3    H242931   7.680   5.085   0.656
14330TIP3   OH242932   5.504   4.733   2.858
14330TIP3    H142933   5.519   4.655   2.806
14330TIP3    H242934   5.553   4.718   2.939
14331TIP3   OH242935   5.695   5.349   1.592
14331TIP3    H142936   5.617   5.377   1.544
14331TIP3    H242937   5.746   5.430   1.603
14332TIP3   OH242938   1.025   5.066   4.538
14332TIP3    H142939   0.994   5.147   4.498
14332TIP3    H242940   1.113   5.054   4.504
14333TIP3   OH242941   7.102   2.876   0.119
14333TIP3    H142942   7.169   2.945   0.123
14333TIP3    H242943   7.076   2.874   0.027
14334TIP3   OH242944   4.216   4.170   4.485
14334TIP3    H142945   4.293   4.113   4.482
14334TIP3    H242946   4.185   4.164   4.576
14335TIP3   OH242947   3.218   2.440   2.136
14335TIP3    H142948   3.240   2.495   2.211
14335TIP3    H242949   3.272   2.474   2.064
14336TIP3   OH242950   7.003   6.753   6.561
14336TIP3    H142951   6.977   6.707   6.481
14336TIP3    H242952   6.940   6.723   6.627
14337TIP3   OH242953   3.884   1.602   1.310
14337TIP3    H142954   3.857   1.664   1.243
14337TIP3    H242955   3.968   1.568   1.279
14338TIP3   OH242956   7.748   6.111   0.316
14338TIP3    H142957   7.753   6.062   0.398
14338TIP3    H242958   7.660   6.148   0.315
14339TIP3   OH242959   0.258   3.343   2.236
14339TIP3    H142960   0.305   3.321   2.317
14339TIP3    H242961   0.190   3.404   2.264
14340TIP3   OH242962   2.086   7.731   4.502
14340TIP3    H142963   2.082   7.652   4.447
14340TIP3    H242964   2.112   7.699   4.588
14341TIP3   OH242965   4.308   1.760   3.714
14341TIP3    H142966   4.231   1.722   3.673
14341TIP3    H242967   4.328   1.700   3.786
14342TIP3   OH242968   5.828   4.903   4.048
14342TIP3    H142969   5.860   4.823   4.007
14342TIP3    H242970   5.882   4.914   4.126
14343TIP3   OH242971   5.621   6.281   4.485
14343TIP3    H142972   5.557   6.284   4.556
14343TIP3    H242973   5.704   6.263   4.529
14344TIP3   OH242974   6.986   4.905   5.008
14344TIP3    H142975   7.047   4.969   4.972
14344TIP3    H242976   6.925   4.958   5.060
14345TIP3   OH242977   0.509   7.153   5.053
14345TIP3    H142978   0.509   7.072   5.002
14345TIP3    H242979   0.517   7.123   5.144
14346TIP3   OH242980   4.154   4.370   1.226
14346TIP3    H142981   4.135   4.412   1.310
14346TIP3    H242982   4.078   4.313   1.211
14347TIP3   OH242983   1.431   0.965   3.314
14347TIP3    H142984   1.413   0.972   3.220
14347TIP3    H242985   1.460   1.053   3.339
14348TIP3   OH242986   2.372   5.351   6.000
14348TIP3    H142987   2.401   5.390   6.083
14348TIP3    H242988   2.291   5.306   6.021
14349TIP3   OH242989   6.838   0.892   6.412
14349TIP3    H142990   6.760   0.947   6.419
14349TIP3    H242991   6.814   0.823   6.351
14350TIP3   OH242992   0.891   2.019   3.829
14350TIP3    H142993   0.915   1.963   3.755
14350TIP3    H242994   0.971   2.025   3.882
14351TIP3   OH242995   6.390   3.450   4.730
14351TIP3    H142996   6.331   3.452   4.806
14351TIP3    H242997   6.398   3.541   4.704
14352TIP3   OH242998   4.334   2.197   0.667
14352TIP3    H142999   4.325   2.223   0.759
14352TIP3    H243000   4.287   2.264   0.619
14353TIP3   OH243001   5.751   1.591   1.246
14353TIP3    H143002   5.775   1.569   1.336
14353TIP3    H243003   5.826   1.639   1.212
14354TIP3   OH243004   1.358   1.966   1.460
14354TIP3    H143005   1.428   1.983   1.524
14354TIP3    H243006   1.311   1.891   1.497
14355TIP3   OH243007   3.971   2.837   4.175
14355TIP3    H143008   4.051   2.858   4.128
14355TIP3    H243009   3.946   2.918   4.219
14356TIP3   OH243010   6.923   1.583   2.920
14356TIP3    H143011   6.943   1.612   2.830
14356TIP3    H243012   7.009   1.567   2.959
14357TIP3   OH243013   4.239   7.053   4.163
14357TIP3    H143014   4.250   6.964   4.130
14357TIP3    H243015   4.311   7.102   4.123
14358TIP3   OH243016   0.992   3.030   6.653
14358TIP3    H143017   1.086   3.043   6.646
14358TIP3    H243018   0.981   2.937   6.674
14359TIP3   OH243019   5.967   6.511   6.419
14359TIP3    H143020   5.926   6.426   6.435
14359TIP3    H243021   6.046   6.490   6.368
14360TIP3   OH243022   7.562   6.180   2.381
14360TIP3    H143023   7.582   6.147   2.293
14360TIP3    H243024   7.490   6.241   2.367
14361TIP3   OH243025   7.758   6.134   4.274
14361TIP3    H143026   7.831   6.187   4.305
14361TIP3    H243027   7.693   6.198   4.243
14362TIP3   OH243028   3.700   2.627   3.843
14362TIP3    H143029   3.616   2.582   3.858
14362TIP3    H243030   3.725   2.660   3.929
14363TIP3   OH243031   0.694   3.894   5.817
14363TIP3    H143032   0.653   3.980   5.809
14363TIP3    H243033   0.783   3.906   5.785
14364TIP3   OH243034   2.587   2.249   4.415
14364TIP3    H143035   2.503   2.213   4.387
14364TIP3    H243036   2.564   2.312   4.483
14365TIP3   OH243037   3.140   4.066   6.686
14365TIP3    H143038   3.121   3.991   6.629
14365TIP3    H243039   3.226   4.097   6.657
14366TIP3   OH243040   2.692   6.030   4.844
14366TIP3    H143041   2.669   5.949   4.799
14366TIP3    H243042   2.739   6.001   4.923
14367TIP3   OH243043   8.052   1.538   1.530
14367TIP3    H143044   8.137   1.495   1.528
14367TIP3    H243045   7.992   1.473   1.494
14368TIP3   OH243046   5.556   6.122   1.090
14368TIP3    H143047   5.637   6.076   1.066
14368TIP3    H243048   5.553   6.117   1.185
14369TIP3   OH243049   1.400   7.046   1.635
14369TIP3    H143050   1.416   6.961   1.594
14369TIP3    H243051   1.339   7.090   1.575
14370TIP3   OH243052   1.001   2.385   1.941
14370TIP3    H143053   0.930   2.401   1.879
14370TIP3    H243054   1.078   2.373   1.886
14371TIP3   OH243055   0.990   6.154   2.241
14371TIP3    H143056   0.968   6.061   2.250
14371TIP3    H243057   1.084   6.155   2.226
14372TIP3   OH243058   7.763   4.382   0.454
14372TIP3    H143059   7.718   4.362   0.537
14372TIP3    H243060   7.726   4.320   0.392
14373TIP3   OH243061   1.421   1.514   2.455
14373TIP3    H143062   1.428   1.603   2.420
14373TIP3    H243063   1.362   1.470   2.394
14374TIP3   OH243064   3.799   2.066   4.508
14374TIP3    H143065   3.870   2.085   4.447
14374TIP3    H243066   3.808   1.973   4.529
14375TIP3   OH243067   2.755   1.725   1.922
14375TIP3    H143068   2.769   1.704   1.830
14375TIP3    H243069   2.836   1.768   1.950
14376TIP3   OH243070   5.761   2.018   2.171
14376TIP3    H143071   5.798   2.054   2.090
14376TIP3    H243072   5.835   1.973   2.213
14377TIP3   OH243073   7.442   6.168   2.661
14377TIP3    H143074   7.426   6.259   2.685
14377TIP3    H243075   7.514   6.171   2.598
14378TIP3   OH243076   2.228   2.101   3.266
14378TIP3    H143077   2.208   2.117   3.359
14378TIP3    H243078   2.211   2.008   3.254
14379TIP3   OH243079   6.234   3.752   1.668
14379TIP3    H143080   6.257   3.814   1.599
14379TIP3    H243081   6.279   3.672   1.644
14380TIP3   OH243082   2.513   6.699   5.796
14380TIP3    H143083   2.575   6.773   5.796
14380TIP3    H243084   2.552   6.636   5.736
14381TIP3   OH243085   6.784   3.089   5.986
14381TIP3    H143086   6.788   3.112   6.079
14381TIP3    H243087   6.814   3.168   5.941
14382TIP3   OH243088   0.084   4.274   6.570
14382TIP3    H143089   0.041   4.204   6.621
14382TIP3    H243090   0.067   4.251   6.479
14383TIP3   OH243091   3.779   1.672   3.203
14383TIP3    H143092   3.771   1.577   3.204
14383TIP3    H243093   3.821   1.691   3.119
14384TIP3   OH243094   1.375   4.926   0.935
14384TIP3    H143095   1.396   5.009   0.894
14384TIP3    H243096   1.321   4.949   1.010
14385TIP3   OH243097   1.861   3.369   4.279
14385TIP3    H143098   1.901   3.383   4.193
14385TIP3    H243099   1.934   3.343   4.335
14386TIP3   OH243100   6.326   3.519   1.574
14386TIP3    H143101   6.421   3.504   1.577
14386TIP3    H243102   6.288   3.433   1.589
14387TIP3   OH243103   0.624   3.882   1.009
14387TIP3    H143104   0.645   3.975   1.016
14387TIP3    H243105   0.574   3.863   1.088
14388TIP3   OH243106   7.620   0.132   4.392
14388TIP3    H143107   7.685   0.174   4.448
14388TIP3    H243108   7.671   0.082   4.329
14389TIP3   OH243109   6.958   6.474   5.330
14389TIP3    H143110   6.879   6.434   5.366
14389TIP3    H243111   6.975   6.426   5.249
14390TIP3   OH243112   2.610   0.363   2.397
14390TIP3    H143113   2.693   0.410   2.386
14390TIP3    H243114   2.597   0.318   2.314
14391TIP3   OH243115   5.745   2.339   0.234
14391TIP3    H143116   5.721   2.332   0.141
14391TIP3    H243117   5.803   2.415   0.237
14392TIP3   OH243118   3.850   7.536   4.344
14392TIP3    H143119   3.890   7.503   4.264
14392TIP3    H243120   3.870   7.469   4.410
14393TIP3   OH243121   5.123   3.674   1.998
14393TIP3    H143122   5.189   3.711   2.057
14393TIP3    H243123   5.118   3.736   1.926
14394TIP3   OH243124   3.919   1.271   4.758
14394TIP3    H143125   3.925   1.240   4.667
14394TIP3    H243126   3.826   1.288   4.770
14395TIP3   OH243127   6.818   5.664   0.686
14395TIP3    H143128   6.847   5.751   0.656
14395TIP3    H243129   6.828   5.667   0.781
14396TIP3   OH243130   1.637   2.547   3.730
14396TIP3    H143131   1.698   2.555   3.656
14396TIP3    H243132   1.693   2.546   3.807
14397TIP3   OH243133   1.242   0.481   6.345
14397TIP3    H143134   1.251   0.569   6.308
14397TIP3    H243135   1.183   0.492   6.419
14398TIP3   OH243136   4.977   1.030   1.455
14398TIP3    H143137   4.956   1.052   1.364
14398TIP3    H243138   4.994   1.114   1.496
14399TIP3   OH243139   5.601   5.577   0.620
14399TIP3    H143140   5.677   5.614   0.665
14399TIP3    H243141   5.529   5.588   0.682
14400TIP3   OH243142   4.926   2.240   6.193
14400TIP3    H143143   4.870   2.310   6.160
14400TIP3    H243144   5.015   2.271   6.176
14401TIP3   OH243145   6.646   5.051   4.454
14401TIP3    H143146   6.649   5.146   4.470
14401TIP3    H243147   6.590   5.017   4.524
14402TIP3   OH243148   2.782   6.201   0.257
14402TIP3    H143149   2.697   6.235   0.285
14402TIP3    H243150   2.810   6.145   0.329
14403TIP3   OH243151   6.299   6.093   4.991
14403TIP3    H143152   6.308   6.008   4.947
14403TIP3    H243153   6.217   6.087   5.040
14404TIP3   OH243154   1.037   1.398   4.938
14404TIP3    H143155   1.101   1.353   4.883
14404TIP3    H243156   1.024   1.483   4.896
14405TIP3   OH243157   1.656   6.824   0.236
14405TIP3    H143158   1.659   6.767   0.159
14405TIP3    H243159   1.614   6.904   0.206
14406TIP3   OH243160   1.142   2.894   3.349
14406TIP3    H143161   1.109   2.823   3.294
14406TIP3    H243162   1.234   2.872   3.363
14407TIP3   OH243163   4.003   3.687   6.248
14407TIP3    H143164   3.942   3.731   6.188
14407TIP3    H243165   4.041   3.617   6.196
14408TIP3   OH243166   4.367   2.975   0.301
14408TIP3    H143167   4.403   2.974   0.213
14408TIP3    H243168   4.443   2.973   0.359
14409TIP3   OH243169   7.060   3.554   4.631
14409TIP3    H143170   6.979   3.571   4.583
14409TIP3    H243171   7.064   3.458   4.639
14410TIP3   OH243172   5.284   2.000   1.480
14410TIP3    H143173   5.301   2.073   1.539
14410TIP3    H243174   5.365   1.950   1.481
14411TIP3   OH243175   0.883   4.325   3.205
14411TIP3    H143176   0.804   4.272   3.196
14411TIP3    H243177   0.860   4.408   3.162
14412TIP3   OH243178   5.174   3.506   5.434
14412TIP3    H143179   5.100   3.526   5.491
14412TIP3    H243180   5.228   3.446   5.485
14413TIP3   OH243181   1.719   4.509   3.380
14413TIP3    H143182   1.714   4.423   3.422
14413TIP3    H243183   1.786   4.556   3.430
14414TIP3   OH243184   3.857   5.834   6.383
14414TIP3    H143185   3.918   5.800   6.317
14414TIP3    H243186   3.865   5.773   6.457
14415TIP3   OH243187   2.402   2.033   2.931
14415TIP3    H143188   2.442   1.969   2.872
14415TIP3    H243189   2.460   2.034   3.008
14416TIP3   OH243190   1.198   4.203   3.655
14416TIP3    H143191   1.150   4.216   3.737
14416TIP3    H243192   1.154   4.129   3.614
14417TIP3   OH243193   6.838   5.551   6.234
14417TIP3    H143194   6.761   5.550   6.177
14417TIP3    H243195   6.861   5.459   6.245
14418TIP3   OH243196   4.855   6.117   4.272
14418TIP3    H143197   4.772   6.073   4.291
14418TIP3    H243198   4.903   6.054   4.218
14419TIP3   OH243199   2.837   2.523   1.706
14419TIP3    H143200   2.901   2.472   1.756
14419TIP3    H243201   2.775   2.554   1.772
14420TIP3   OH243202   6.543   1.671   0.981
14420TIP3    H143203   6.450   1.648   0.977
14420TIP3    H243204   6.589   1.588   0.970
14421TIP3   OH243205   5.248   2.348   3.199
14421TIP3    H143206   5.211   2.260   3.190
14421TIP3    H243207   5.327   2.347   3.146
14422TIP3   OH243208   6.395   0.808   6.214
14422TIP3    H143209   6.420   0.726   6.257
14422TIP3    H243210   6.404   0.874   6.282
14423TIP3   OH243211   5.898   0.268   1.670
14423TIP3    H143212   5.842   0.218   1.611
14423TIP3    H243213   5.908   0.353   1.628
14424TIP3   OH243214   6.206   0.415   4.745
14424TIP3    H143215   6.134   0.358   4.773
14424TIP3    H243216   6.220   0.393   4.653
14425TIP3   OH243217   3.083   1.853   1.156
14425TIP3    H143218   3.150   1.843   1.089
14425TIP3    H243219   3.125   1.823   1.237
14426TIP3   OH243220   4.238   5.481   0.149
14426TIP3    H143221   4.168   5.507   0.089
14426TIP3    H243222   4.209   5.511   0.235
14427TIP3   OH243223   4.514   1.162   1.033
14427TIP3    H143224   4.532   1.254   1.013
14427TIP3    H243225   4.459   1.132   0.960
14428TIP3   OH243226   7.116   4.838   2.374
14428TIP3    H143227   7.186   4.823   2.436
14428TIP3    H243228   7.106   4.934   2.372
14429TIP3   OH243229   5.494   2.241   0.966
14429TIP3    H143230   5.477   2.229   0.873
14429TIP3    H243231   5.561   2.175   0.987
14430TIP3   OH243232   2.726   4.072   4.041
14430TIP3    H143233   2.687   4.040   3.959
14430TIP3    H243234   2.814   4.032   4.042
14431TIP3   OH243235   1.584   5.414   4.039
14431TIP3    H143236   1.519   5.369   4.093
14431TIP3    H243237   1.641   5.457   4.103
14432TIP3   OH243238   5.703   4.501   2.900
14432TIP3    H143239   5.655   4.435   2.949
14432TIP3    H243240   5.786   4.510   2.946
14433TIP3   OH243241   0.028   7.799   5.946
14433TIP3    H143242   0.049   7.812   6.038
14433TIP3    H243243  -0.025   7.720   5.944
14434TIP3   OH243244   3.489   6.058   4.520
14434TIP3    H143245   3.555   6.081   4.585
14434TIP3    H243246   3.493   6.129   4.456
14435TIP3   OH243247   4.275   6.331   4.582
14435TIP3    H143248   4.191   6.359   4.545
14435TIP3    H243249   4.338   6.395   4.548
14436TIP3   OH243250   5.283   1.175   5.553
14436TIP3    H143251   5.237   1.094   5.532
14436TIP3    H243252   5.226   1.220   5.616
14437TIP3   OH243253   6.648   7.309   2.230
14437TIP3    H143254   6.742   7.309   2.217
14437TIP3    H243255   6.616   7.231   2.185
14438TIP3   OH243256   0.331   2.053   3.409
14438TIP3    H143257   0.265   1.994   3.446
14438TIP3    H243258   0.411   2.035   3.459
14439TIP3   OH243259   2.011   5.624   2.741
14439TIP3    H143260   1.991   5.680   2.665
14439TIP3    H243261   2.014   5.684   2.815
14440TIP3   OH243262   4.927   1.999   1.605
14440TIP3    H143263   4.838   1.995   1.569
14440TIP3    H243264   4.963   1.912   1.589
14441TIP3   OH243265   5.899   4.965   2.778
14441TIP3    H143266   5.820   4.918   2.752
14441TIP3    H243267   5.903   5.040   2.719
14442TIP3   OH243268   8.080   7.613   0.707
14442TIP3    H143269   8.095   7.518   0.701
14442TIP3    H243270   8.110   7.647   0.622
14443TIP3   OH243271   8.149   0.294   6.374
14443TIP3    H143272   8.226   0.238   6.363
14443TIP3    H243273   8.114   0.271   6.460
14444TIP3   OH243274   7.401   4.734   3.537
14444TIP3    H143275   7.321   4.692   3.505
14444TIP3    H243276   7.461   4.662   3.553
14445TIP3   OH243277   3.014   6.784   3.424
14445TIP3    H143278   3.060   6.856   3.381
14445TIP3    H243279   3.079   6.743   3.481
14446TIP3   OH243280   2.229   3.452   5.554
14446TIP3    H143281   2.226   3.525   5.492
14446TIP3    H243282   2.201   3.376   5.502
14447TIP3   OH243283   3.511   5.065   5.685
14447TIP3    H143284   3.484   5.106   5.603
14447TIP3    H243285   3.499   4.972   5.670
14448TIP3   OH243286   0.795   5.973   2.622
14448TIP3    H143287   0.797   6.062   2.587
14448TIP3    H243288   0.739   5.979   2.699
14449TIP3   OH243289   5.740   7.012   4.217
14449TIP3    H143290   5.819   6.994   4.268
14449TIP3    H243291   5.691   6.929   4.220
14450TIP3   OH243292   1.561   1.509   3.762
14450TIP3    H143293   1.647   1.494   3.722
14450TIP3    H243294   1.523   1.581   3.712
14451TIP3   OH243295   0.909   3.273   2.880
14451TIP3    H143296   0.826   3.257   2.834
14451TIP3    H243297   0.882   3.296   2.969
14452TIP3   OH243298   4.757   3.059   1.532
14452TIP3    H143299   4.698   3.011   1.473
14452TIP3    H243300   4.775   2.997   1.603
14453TIP3   OH243301   0.454   7.419   5.028
14453TIP3    H143302   0.452   7.325   5.043
14453TIP3    H243303   0.483   7.457   5.111
14454TIP3   OH243304   6.913   4.093   0.041
14454TIP3    H143305   6.827   4.056   0.064
14454TIP3    H243306   6.947   4.034  -0.026
14455TIP3   OH243307   2.003   2.481   1.635
14455TIP3    H143308   2.085   2.481   1.585
14455TIP3    H243309   2.030   2.468   1.726
14456TIP3   OH243310   5.140   7.186   2.324
14456TIP3    H143311   5.052   7.150   2.338
14456TIP3    H243312   5.155   7.242   2.401
14457TIP3   OH243313   6.665   1.484   0.663
14457TIP3    H143314   6.733   1.531   0.713
14457TIP3    H243315   6.609   1.554   0.629
14458TIP3   OH243316   3.297   7.321   5.197
14458TIP3    H143317   3.309   7.228   5.217
14458TIP3    H243318   3.384   7.360   5.209
14459TIP3   OH243319   0.303   4.741   5.303
14459TIP3    H143320   0.250   4.819   5.323
14459TIP3    H243321   0.369   4.739   5.372
14460TIP3   OH243322   5.121   2.861   5.568
14460TIP3    H143323   5.072   2.899   5.641
14460TIP3    H243324   5.070   2.783   5.543
14461TIP3   OH243325   6.103   3.541   0.624
14461TIP3    H143326   6.032   3.506   0.570
14461TIP3    H243327   6.175   3.557   0.562
14462TIP3   OH243328   6.955   6.716   0.297
14462TIP3    H143329   6.958   6.651   0.367
14462TIP3    H243330   6.944   6.800   0.343
14463TIP3   OH243331   5.571   6.154   2.940
14463TIP3    H143332   5.489   6.167   2.893
14463TIP3    H243333   5.634   6.209   2.895
14464TIP3   OH243334   5.035   6.301   0.879
14464TIP3    H143335   5.072   6.303   0.791
14464TIP3    H243336   5.070   6.219   0.917
14465TIP3   OH243337   2.569   0.937   2.177
14465TIP3    H143338   2.502   0.869   2.172
14465TIP3    H243339   2.583   0.964   2.086
14466TIP3   OH243340   5.760   3.542   5.419
14466TIP3    H143341   5.715   3.606   5.475
14466TIP3    H243342   5.702   3.529   5.345
14467TIP3   OH243343   0.760   7.111   2.331
14467TIP3    H143344   0.853   7.124   2.350
14467TIP3    H243345   0.755   7.112   2.236
14468TIP3   OH243346   0.062   2.112   2.012
14468TIP3    H143347   0.113   2.076   1.939
14468TIP3    H243348  -0.025   2.073   2.002
14469TIP3   OH243349   5.223   3.017   0.747
14469TIP3    H143350   5.314   3.009   0.774
14469TIP3    H243351   5.192   3.098   0.789
14470TIP3   OH243352   3.795   6.664   5.298
14470TIP3    H143353   3.824   6.606   5.369
14470TIP3    H243354   3.739   6.728   5.341
14471TIP3   OH243355   2.454   0.788   2.445
14471TIP3    H143356   2.376   0.795   2.501
14471TIP3    H243357   2.439   0.851   2.374
14472TIP3   OH243358   4.216   3.271   2.742
14472TIP3    H143359   4.263   3.202   2.788
14472TIP3    H243360   4.279   3.343   2.736
14473TIP3   OH243361   5.904   5.932   4.208
14473TIP3    H143362   5.924   5.838   4.213
14473TIP3    H243363   5.859   5.942   4.124
14474TIP3   OH243364   1.338   1.124   3.918
14474TIP3    H143365   1.285   1.160   3.990
14474TIP3    H243366   1.277   1.067   3.871
14475TIP3   OH243367   0.088   0.314   6.617
14475TIP3    H143368   0.057   0.397   6.582
14475TIP3    H243369   0.077   0.321   6.711
14476TIP3   OH243370   2.859   2.903   2.365
14476TIP3    H143371   2.928   2.858   2.316
14476TIP3    H243372   2.850   2.988   2.321
14477TIP3   OH243373   1.726   3.991   5.133
14477TIP3    H143374   1.714   4.055   5.203
14477TIP3    H243375   1.819   3.967   5.139
14478TIP3   OH243376   0.384   5.430   4.915
14478TIP3    H143377   0.445   5.357   4.904
14478TIP3    H243378   0.421   5.501   4.863
14479TIP3   OH243379   1.526   4.167   2.169
14479TIP3    H143380   1.567   4.093   2.125
14479TIP3    H243381   1.514   4.137   2.260
14480TIP3   OH243382   0.520   7.295   2.178
14480TIP3    H143383   0.491   7.377   2.216
14480TIP3    H243384   0.607   7.313   2.144
14481TIP3   OH243385   5.627   2.812   6.575
14481TIP3    H143386   5.696   2.777   6.632
14481TIP3    H243387   5.671   2.831   6.492
14482TIP3   OH243388   6.185   4.270   0.553
14482TIP3    H143389   6.227   4.198   0.601
14482TIP3    H243390   6.105   4.231   0.516
14483TIP3   OH243391   4.893   1.263   6.280
14483TIP3    H143392   4.963   1.300   6.226
14483TIP3    H243393   4.922   1.278   6.370
14484TIP3   OH243394   3.655   5.660   3.338
14484TIP3    H143395   3.619   5.715   3.267
14484TIP3    H243396   3.727   5.711   3.374
14485TIP3   OH243397   6.790   0.763   5.771
14485TIP3    H143398   6.836   0.810   5.840
14485TIP3    H243399   6.729   0.828   5.735
14486TIP3   OH243400   0.980   2.594   1.069
14486TIP3    H143401   0.973   2.517   1.013
14486TIP3    H243402   0.994   2.558   1.157
14487TIP3   OH243403   7.447   5.679   0.002
14487TIP3    H143404   7.452   5.642   0.090
14487TIP3    H243405   7.538   5.682  -0.028
14488TIP3   OH243406   7.088   0.464   3.224
14488TIP3    H143407   7.081   0.377   3.264
14488TIP3    H243408   7.181   0.473   3.203
14489TIP3   OH243409   8.090   0.771   4.588
14489TIP3    H143410   8.053   0.777   4.676
14489TIP3    H243411   8.025   0.814   4.532
14490TIP3   OH243412   0.022   6.632   4.560
14490TIP3    H143413   0.096   6.578   4.589
14490TIP3    H243414  -0.010   6.673   4.641
14491TIP3   OH243415   1.338   2.215   4.034
14491TIP3    H143416   1.396   2.191   3.961
14491TIP3    H243417   1.329   2.310   4.027
14492TIP3   OH243418   4.960   7.211   5.070
14492TIP3    H143419   5.020   7.286   5.072
14492TIP3    H243420   4.899   7.231   4.999
14493TIP3   OH243421   6.954   7.661   6.708
14493TIP3    H143422   7.001   7.738   6.676
14493TIP3    H243423   6.897   7.636   6.635
14494TIP3   OH243424   4.427   3.347   5.170
14494TIP3    H143425   4.506   3.304   5.138
14494TIP3    H243426   4.369   3.350   5.094
14495TIP3   OH243427   6.950   2.755   2.049
14495TIP3    H143428   7.024   2.703   2.080
14495TIP3    H243429   6.988   2.817   1.986
14496TIP3   OH243430   0.737   0.850   0.746
14496TIP3    H143431   0.771   0.800   0.820
14496TIP3    H243432   0.734   0.788   0.673
14497TIP3   OH243433   5.371   2.746   5.021
14497TIP3    H143434   5.441   2.779   5.078
14497TIP3    H243435   5.367   2.810   4.949
14498TIP3   OH243436   4.287  -0.001   5.045
14498TIP3    H143437   4.326   0.004   4.957
14498TIP3    H243438   4.244   0.084   5.056
14499TIP3   OH243439   8.176   5.630   0.111
14499TIP3    H143440   8.096   5.578   0.119
14499TIP3    H243441   8.166   5.700   0.176
14500TIP3   OH243442   7.634   6.406   6.622
14500TIP3    H143443   7.544   6.383   6.601
14500TIP3    H243444   7.687   6.340   6.577
14501TIP3   OH243445   2.725   7.676   3.112
14501TIP3    H143446   2.709   7.584   3.132
14501TIP3    H243447   2.659   7.698   3.046
14502TIP3   OH243448   4.117   2.085   6.209
14502TIP3    H143449   4.049   2.117   6.149
14502TIP3    H243450   4.084   2.107   6.296
14503TIP3   OH243451   0.582   3.590   3.201
14503TIP3    H143452   0.644   3.656   3.234
14503TIP3    H243453   0.610   3.575   3.111
14504TIP3   OH243454   8.237   2.441   2.294
14504TIP3    H143455   8.211   2.363   2.343
14504TIP3    H243456   8.218   2.420   2.203
14505TIP3   OH243457   7.458   1.685   3.601
14505TIP3    H143458   7.369   1.688   3.566
14505TIP3    H243459   7.488   1.776   3.600
14506TIP3   OH243460   0.373   3.559   4.004
14506TIP3    H143461   0.311   3.573   4.075
14506TIP3    H243462   0.329   3.499   3.944
14507TIP3   OH243463   1.796   6.635   6.580
14507TIP3    H143464   1.845   6.591   6.510
14507TIP3    H243465   1.704   6.620   6.559
14508TIP3   OH243466   7.325   0.608   1.065
14508TIP3    H143467   7.245   0.602   1.013
14508TIP3    H243468   7.396   0.591   1.003
14509TIP3   OH243469   3.316   0.082   2.483
14509TIP3    H143470   3.401   0.063   2.522
14509TIP3    H243471   3.254   0.079   2.556
14510TIP3   OH243472   0.142   3.037   4.614
14510TIP3    H143473   0.085   3.110   4.590
14510TIP3    H243474   0.109   3.008   4.699
14511TIP3   OH243475   2.183   4.424   3.957
14511TIP3    H143476   2.223   4.473   4.028
14511TIP3    H243477   2.104   4.386   3.995
14512TIP3   OH243478   3.069   4.592   1.928
14512TIP3    H143479   3.006   4.530   1.964
14512TIP3    H243480   3.070   4.573   1.834
14513TIP3   OH243481   7.341   4.018   3.958
14513TIP3    H143482   7.360   3.932   3.996
14513TIP3    H243483   7.427   4.054   3.938
14514TIP3   OH243484   8.133   6.116   3.544
14514TIP3    H143485   8.102   6.150   3.461
14514TIP3    H243486   8.227   6.136   3.544
14515TIP3   OH243487   5.173   0.298   2.028
14515TIP3    H143488   5.259   0.257   2.039
14515TIP3    H243489   5.176   0.375   2.085
14516TIP3   OH243490   4.885   4.115   2.219
14516TIP3    H143491   4.856   4.073   2.138
14516TIP3    H243492   4.904   4.042   2.278
14517TIP3   OH243493   5.090   2.628   1.188
14517TIP3    H143494   5.137   2.712   1.187
14517TIP3    H243495   5.087   2.602   1.280
14518TIP3   OH243496   1.669   0.831   0.612
14518TIP3    H143497   1.640   0.745   0.581
14518TIP3    H243498   1.619   0.845   0.692
14519TIP3   OH243499   7.970   5.200   5.238
14519TIP3    H143500   7.963   5.105   5.233
14519TIP3    H243501   7.955   5.231   5.148
14520TIP3   OH243502   7.833   5.395   2.460
14520TIP3    H143503   7.854   5.442   2.541
14520TIP3    H243504   7.897   5.427   2.396
14521TIP3   OH243505   3.221   7.780   0.813
14521TIP3    H143506   3.264   7.841   0.753
14521TIP3    H243507   3.291   7.723   0.845
14522TIP3   OH243508   6.417   4.418   1.953
14522TIP3    H143509   6.450   4.452   2.036
14522TIP3    H243510   6.495   4.388   1.906
14523TIP3   OH243511   4.108   7.228   5.468
14523TIP3    H143512   4.066   7.205   5.385
14523TIP3    H243513   4.201   7.231   5.448
14524TIP3   OH243514   2.652   4.050   2.960
14524TIP3    H143515   2.697   4.058   2.876
14524TIP3    H243516   2.620   3.960   2.962
14525TIP3   OH243517   2.571   6.394   3.234
14525TIP3    H143518   2.530   6.465   3.184
14525TIP3    H243519   2.665   6.402   3.215
14526TIP3   OH243520   6.601   7.160   0.141
14526TIP3    H143521   6.549   7.188   0.217
14526TIP3    H243522   6.537   7.153   0.070
14527TIP3   OH243523   4.093   4.333   4.301
14527TIP3    H143524   4.153   4.297   4.366
14527TIP3    H243525   4.013   4.352   4.349
14528TIP3   OH243526   1.375   4.923   3.258
14528TIP3    H143527   1.445   4.941   3.320
14528TIP3    H243528   1.300   4.901   3.313
14529TIP3   OH243529   5.523   1.291   2.920
14529TIP3    H143530   5.469   1.360   2.960
14529TIP3    H243531   5.459   1.227   2.887
14530TIP3   OH243532   3.526   4.944   4.532
14530TIP3    H143533   3.503   5.010   4.598
14530TIP3    H243534   3.455   4.948   4.468
14531TIP3   OH243535   5.921   4.920   6.071
14531TIP3    H143536   5.992   4.980   6.094
14531TIP3    H243537   5.862   4.973   6.017
14532TIP3   OH243538   7.730   5.752   4.752
14532TIP3    H143539   7.812   5.786   4.788
14532TIP3    H243540   7.682   5.722   4.829
14533TIP3   OH243541   1.927   6.546   2.930
14533TIP3    H143542   2.010   6.526   2.888
14533TIP3    H243543   1.884   6.461   2.940
14534TIP3   OH243544   3.678   2.793   3.069
14534TIP3    H143545   3.687   2.772   2.976
14534TIP3    H243546   3.683   2.708   3.113
14535TIP3   OH243547   8.211   1.128   4.428
14535TIP3    H143548   8.276   1.097   4.364
14535TIP3    H243549   8.239   1.090   4.511
14536TIP3   OH243550   8.117   0.581   5.368
14536TIP3    H143551   8.137   0.501   5.416
14536TIP3    H243552   8.121   0.651   5.433
14537TIP3   OH243553   0.983   7.033   2.129
14537TIP3    H143554   0.969   6.969   2.198
14537TIP3    H243555   1.073   7.063   2.143
14538TIP3   OH243556   5.320   6.161   1.641
14538TIP3    H143557   5.273   6.078   1.654
14538TIP3    H243558   5.405   6.146   1.683
14539TIP3   OH243559   2.318   2.044   1.496
14539TIP3    H143560   2.274   2.011   1.574
14539TIP3    H243561   2.252   2.040   1.427
14540TIP3   OH243562   4.474   4.400   1.437
14540TIP3    H143563   4.513   4.323   1.395
14540TIP3    H243564   4.453   4.458   1.364
14541TIP3   OH243565   2.187   3.630   5.136
14541TIP3    H143566   2.113   3.588   5.179
14541TIP3    H243567   2.262   3.574   5.157
14542TIP3   OH243568   4.177   3.237   2.478
14542TIP3    H143569   4.214   3.209   2.562
14542TIP3    H243570   4.123   3.313   2.500
14543TIP3   OH243571   2.483   4.600   6.250
14543TIP3    H143572   2.408   4.627   6.197
14543TIP3    H243573   2.483   4.504   6.245
14544TIP3   OH243574   7.459   4.837   5.411
14544TIP3    H143575   7.404   4.908   5.378
14544TIP3    H243576   7.547   4.873   5.414
14545TIP3   OH243577   3.605   5.230   1.770
14545TIP3    H143578   3.593   5.281   1.690
14545TIP3    H243579   3.695   5.248   1.797
14546TIP3   OH243580   1.951   1.710   5.001
14546TIP3    H143581   2.013   1.720   4.928
14546TIP3    H243582   2.006   1.709   5.079
14547TIP3   OH243583   8.054   3.859   6.619
14547TIP3    H143584   8.008   3.916   6.681
14547TIP3    H243585   7.995   3.784   6.607
14548TIP3   OH243586   3.450   5.749   4.111
14548TIP3    H143587   3.467   5.840   4.136
14548TIP3    H243588   3.359   5.734   4.138
14549TIP3   OH243589   6.577   5.337   3.036
14549TIP3    H143590   6.591   5.365   2.946
14549TIP3    H243591   6.484   5.349   3.052
14550TIP3   OH243592   5.466   5.280   6.132
14550TIP3    H143593   5.411   5.358   6.127
14550TIP3    H243594   5.541   5.306   6.186
14551TIP3   OH243595   6.382   2.821   5.313
14551TIP3    H143596   6.415   2.873   5.387
14551TIP3    H243597   6.442   2.841   5.241
14552TIP3   OH243598   2.022   5.296   1.679
14552TIP3    H143599   2.064   5.381   1.687
14552TIP3    H243600   2.041   5.252   1.761
14553TIP3   OH243601   2.667   7.787   6.167
14553TIP3    H143602   2.743   7.772   6.111
14553TIP3    H243603   2.683   7.732   6.244
14554TIP3   OH243604   3.963   4.543   1.019
14554TIP3    H143605   3.953   4.531   1.113
14554TIP3    H243606   3.874   4.554   0.986
14555TIP3   OH243607   1.311   7.235   5.200
14555TIP3    H143608   1.377   7.305   5.207
14555TIP3    H243609   1.362   7.154   5.193
14556TIP3   OH243610   6.023   2.425   4.771
14556TIP3    H143611   5.936   2.397   4.742
14556TIP3    H243612   6.069   2.344   4.792
14557TIP3   OH243613   1.575   3.556   2.458
14557TIP3    H143614   1.648   3.494   2.469
14557TIP3    H243615   1.586   3.589   2.369
14558TIP3   OH243616   0.588   6.716   4.032
14558TIP3    H143617   0.531   6.745   4.103
14558TIP3    H243618   0.622   6.797   3.994
14559TIP3   OH243619   3.824   3.152   2.136
14559TIP3    H143620   3.909   3.138   2.178
14559TIP3    H243621   3.839   3.128   2.044
14560TIP3   OH243622   4.003   6.334   6.335
14560TIP3    H143623   4.007   6.247   6.373
14560TIP3    H243624   3.995   6.394   6.409
14561TIP3   OH243625   4.943   4.895   4.183
14561TIP3    H143626   5.030   4.920   4.215
14561TIP3    H243627   4.931   4.805   4.212
14562TIP3   OH243628   1.802   4.743   1.146
14562TIP3    H143629   1.862   4.814   1.123
14562TIP3    H243630   1.728   4.787   1.188
14563TIP3   OH243631   2.184   3.711   2.897
14563TIP3    H143632   2.089   3.722   2.893
14563TIP3    H243633   2.197   3.616   2.888
14564TIP3   OH243634   0.049   3.402   1.440
14564TIP3    H143635   0.017   3.488   1.415
14564TIP3    H243636   0.144   3.412   1.443
14565TIP3   OH243637   4.985   3.301   0.177
14565TIP3    H143638   4.989   3.382   0.226
14565TIP3    H243639   5.058   3.249   0.209
14566TIP3   OH243640   2.222   0.776   1.139
14566TIP3    H143641   2.175   0.710   1.191
14566TIP3    H243642   2.179   0.774   1.054
14567TIP3   OH243643   7.164   2.924   4.999
14567TIP3    H143644   7.148   2.832   4.977
14567TIP3    H243645   7.085   2.969   4.967
14568TIP3   OH243646   4.627   4.250   3.531
14568TIP3    H143647   4.588   4.165   3.554
14568TIP3    H243648   4.614   4.304   3.609
14569TIP3   OH243649   2.737   2.389   6.674
14569TIP3    H143650   2.818   2.401   6.723
14569TIP3    H243651   2.712   2.298   6.692
14570TIP3   OH243652   3.946   4.683   0.391
14570TIP3    H143653   3.977   4.756   0.337
14570TIP3    H243654   3.887   4.724   0.454
14571TIP3   OH243655   5.586   6.235   6.159
14571TIP3    H143656   5.561   6.313   6.109
14571TIP3    H243657   5.567   6.161   6.101
14572TIP3   OH243658   5.947   2.250   6.382
14572TIP3    H143659   5.908   2.246   6.295
14572TIP3    H243660   6.039   2.268   6.366
14573TIP3   OH243661   3.696   0.189   2.275
14573TIP3    H143662   3.609   0.224   2.256
14573TIP3    H243663   3.745   0.204   2.194
14574TIP3   OH243664   7.651   5.725   3.754
14574TIP3    H143665   7.562   5.689   3.762
14574TIP3    H243666   7.703   5.670   3.813
14575TIP3   OH243667   5.495   6.929   6.523
14575TIP3    H143668   5.520   6.958   6.611
14575TIP3    H243669   5.487   6.834   6.530
14576TIP3   OH243670   3.972   2.515   4.650
14576TIP3    H143671   3.914   2.530   4.576
14576TIP3    H243672   3.980   2.600   4.693
14577TIP3   OH243673   2.751   4.064   1.046
14577TIP3    H143674   2.698   4.143   1.043
14577TIP3    H243675   2.705   4.006   1.107
14578TIP3   OH243676   7.884   7.431   6.711
14578TIP3    H143677   7.838   7.514   6.703
14578TIP3    H243678   7.918   7.431   6.801
14579TIP3   OH243679   2.516   5.016   4.990
14579TIP3    H143680   2.520   4.925   4.961
14579TIP3    H243681   2.605   5.049   4.981
14580TIP3   OH243682   6.219   5.128   0.641
14580TIP3    H143683   6.273   5.052   0.658
14580TIP3    H243684   6.253   5.196   0.699
14581TIP3   OH243685   6.629   1.781   3.363
14581TIP3    H143686   6.695   1.712   3.359
14581TIP3    H243687   6.546   1.734   3.376
14582TIP3   OH243688   2.846   3.089   0.018
14582TIP3    H143689   2.939   3.094  -0.004
14582TIP3    H243690   2.840   3.016   0.079
14583TIP3   OH243691   4.027   3.031   1.967
14583TIP3    H143692   4.078   3.012   2.046
14583TIP3    H243693   4.088   3.080   1.911
14584TIP3   OH243694   2.130   0.066   4.452
14584TIP3    H143695   2.117   0.095   4.362
14584TIP3    H243696   2.057   0.103   4.500
14585TIP3   OH243697   6.289   5.488   5.572
14585TIP3    H143698   6.375   5.453   5.595
14585TIP3    H243699   6.301   5.525   5.484
14586TIP3   OH243700   1.211   4.637   6.599
14586TIP3    H143701   1.194   4.693   6.524
14586TIP3    H243702   1.130   4.640   6.651
14587TIP3   OH243703   0.675   0.885   4.599
14587TIP3    H143704   0.728   0.889   4.519
14587TIP3    H243705   0.592   0.926   4.574
14588TIP3   OH243706   5.930   6.153   4.930
14588TIP3    H143707   5.882   6.080   4.969
14588TIP3    H243708   5.866   6.195   4.872
14589TIP3   OH243709   0.615   6.785   4.996
14589TIP3    H143710   0.692   6.730   4.980
14589TIP3    H243711   0.590   6.817   4.909
14590TIP3   OH243712   6.257   0.234   2.179
14590TIP3    H143713   6.168   0.233   2.145
14590TIP3    H243714   6.275   0.327   2.197
14591TIP3   OH243715   3.337   5.079   1.675
14591TIP3    H143716   3.420   5.056   1.715
14591TIP3    H243717   3.335   5.175   1.676
14592TIP3   OH243718   7.006   3.710   6.399
14592TIP3    H143719   6.964   3.624   6.397
14592TIP3    H243720   6.954   3.761   6.460
14593TIP3   OH243721   8.222   2.555   0.196
14593TIP3    H143722   8.170   2.508   0.261
14593TIP3    H243723   8.156   2.599   0.141
14594TIP3   OH243724   3.674   5.848   2.480
14594TIP3    H143725   3.705   5.931   2.516
14594TIP3    H243726   3.731   5.781   2.520
14595TIP3   OH243727   5.072   5.592   0.821
14595TIP3    H143728   5.026   5.635   0.749
14595TIP3    H243729   5.102   5.509   0.784
14596TIP3   OH243730   4.327   6.920   1.294
14596TIP3    H143731   4.301   7.012   1.302
14596TIP3    H243732   4.360   6.896   1.380
14597TIP3   OH243733   5.128   7.042   5.442
14597TIP3    H143734   5.142   6.947   5.444
14597TIP3    H243735   5.208   7.079   5.480
14598TIP3   OH243736   4.359   6.595   0.668
14598TIP3    H143737   4.433   6.538   0.647
14598TIP3    H243738   4.320   6.617   0.584
14599TIP3   OH243739   0.540   6.831   0.102
14599TIP3    H143740   0.515   6.771   0.172
14599TIP3    H243741   0.635   6.839   0.109
14600TIP3   OH243742   6.183   0.746   5.318
14600TIP3    H143743   6.146   0.704   5.396
14600TIP3    H243744   6.205   0.834   5.347
14601TIP3   OH243745   0.126   1.029   4.288
14601TIP3    H143746   0.126   0.939   4.255
14601TIP3    H243747   0.191   1.074   4.234
14602TIP3   OH243748   1.599   7.187   5.338
14602TIP3    H143749   1.568   7.198   5.428
14602TIP3    H243750   1.548   7.113   5.305
14603TIP3   OH243751   7.959   4.314   5.606
14603TIP3    H143752   7.912   4.363   5.673
14603TIP3    H243753   8.043   4.292   5.645
14604TIP3   OH243754   0.196   2.830   5.694
14604TIP3    H143755   0.171   2.867   5.779
14604TIP3    H243756   0.156   2.889   5.630
14605TIP3   OH243757   6.078   4.857   6.399
14605TIP3    H143758   6.162   4.835   6.359
14605TIP3    H243759   6.016   4.794   6.363
14606TIP3   OH243760   3.699   4.530   5.576
14606TIP3    H143761   3.627   4.513   5.637
14606TIP3    H243762   3.656   4.562   5.496
14607TIP3   OH243763   5.862   1.614   3.763
14607TIP3    H143764   5.860   1.689   3.822
14607TIP3    H243765   5.848   1.652   3.676
14608TIP3   OH243766   4.988   2.114   4.879
14608TIP3    H143767   5.030   2.098   4.795
14608TIP3    H243768   4.957   2.028   4.908
14609TIP3   OH243769   4.422   1.902   0.963
14609TIP3    H143770   4.448   1.915   1.055
14609TIP3    H243771   4.328   1.885   0.967
14610TIP3   OH243772   2.642   3.867   1.871
14610TIP3    H143773   2.640   3.944   1.928
14610TIP3    H243774   2.627   3.793   1.931
14611TIP3   OH243775   2.820   5.597   5.555
14611TIP3    H143776   2.873   5.520   5.533
14611TIP3    H243777   2.862   5.634   5.632
14612TIP3   OH243778   7.177   4.015   0.387
14612TIP3    H143779   7.197   3.925   0.411
14612TIP3    H243780   7.190   4.019   0.293
14613TIP3   OH243781   7.416   6.852   5.205
14613TIP3    H143782   7.346   6.803   5.247
14613TIP3    H243783   7.482   6.864   5.273
14614TIP3   OH243784   0.672   3.509   3.870
14614TIP3    H143785   0.671   3.548   3.783
14614TIP3    H243786   0.585   3.526   3.906
14615TIP3   OH243787   4.486   6.295   2.742
14615TIP3    H143788   4.462   6.208   2.709
14615TIP3    H243789   4.581   6.291   2.753
14616TIP3   OH243790   5.353   7.004   2.246
14616TIP3    H143791   5.303   6.923   2.252
14616TIP3    H243792   5.289   7.073   2.265
14617TIP3   OH243793   7.071   1.119   1.364
14617TIP3    H143794   7.161   1.090   1.347
14617TIP3    H243795   7.027   1.113   1.280
14618TIP3   OH243796   2.907   0.210   1.071
14618TIP3    H143797   2.902   0.267   0.995
14618TIP3    H243798   2.822   0.165   1.073
14619TIP3   OH243799   2.770   7.640   2.048
14619TIP3    H143800   2.845   7.699   2.041
14619TIP3    H243801   2.738   7.631   1.958
14620TIP3   OH243802   0.121   0.201   1.767
14620TIP3    H143803   0.144   0.173   1.855
14620TIP3    H243804   0.185   0.268   1.745
14621TIP3   OH243805   0.161   7.741   2.977
14621TIP3    H143806   0.143   7.739   2.883
14621TIP3    H243807   0.116   7.820   3.008
14622TIP3   OH243808   6.718   4.765   5.448
14622TIP3    H143809   6.762   4.753   5.532
14622TIP3    H243810   6.684   4.854   5.452
14623TIP3   OH243811   6.546   3.228   4.729
14623TIP3    H143812   6.506   3.315   4.729
14623TIP3    H243813   6.573   3.213   4.638
14624TIP3   OH243814   5.456   4.884   6.749
14624TIP3    H143815   5.375   4.933   6.766
14624TIP3    H243816   5.426   4.799   6.717
14625TIP3   OH243817   0.800   5.300   2.398
14625TIP3    H143818   0.771   5.218   2.439
14625TIP3    H243819   0.876   5.275   2.346
14626TIP3   OH243820   6.225   7.148   6.152
14626TIP3    H143821   6.231   7.234   6.111
14626TIP3    H243822   6.265   7.160   6.238
14627TIP3   OH243823   0.369   5.881   3.676
14627TIP3    H143824   0.405   5.876   3.765
14627TIP3    H243825   0.368   5.975   3.657
14628TIP3   OH243826   2.010   3.414   1.374
14628TIP3    H143827   1.952   3.466   1.429
14628TIP3    H243828   2.039   3.343   1.431
14629TIP3   OH243829   2.251   3.972   5.998
14629TIP3    H143830   2.341   3.941   5.988
14629TIP3    H243831   2.251   4.018   6.082
14630TIP3   OH243832   1.074   6.529   0.035
14630TIP3    H143833   1.030   6.445   0.021
14630TIP3    H243834   1.051   6.582  -0.041
14631TIP3   OH243835   1.004   0.441   0.729
14631TIP3    H143836   1.087   0.451   0.776
14631TIP3    H243837   0.974   0.353   0.752
14632TIP3   OH243838   7.950   4.042   5.556
14632TIP3    H143839   7.919   4.056   5.466
14632TIP3    H243840   7.975   4.130   5.586
14633TIP3   OH243841   1.263   7.025   6.679
14633TIP3    H143842   1.354   6.998   6.675
14633TIP3    H243843   1.221   6.979   6.606
14634TIP3   OH243844   7.815   5.423   1.374
14634TIP3    H143845   7.737   5.466   1.409
14634TIP3    H243846   7.782   5.341   1.338
14635TIP3   OH243847   2.882   3.171   3.826
14635TIP3    H143848   2.950   3.201   3.887
14635TIP3    H243849   2.830   3.108   3.876
14636TIP3   OH243850   7.339   3.303   5.423
14636TIP3    H143851   7.276   3.370   5.395
14636TIP3    H243852   7.423   3.349   5.425
14637TIP3   OH243853   0.284   0.335   3.115
14637TIP3    H143854   0.264   0.427   3.134
14637TIP3    H243855   0.206   0.287   3.143
14638TIP3   OH243856   4.331   4.647   3.208
14638TIP3    H143857   4.320   4.597   3.127
14638TIP3    H243858   4.243   4.653   3.244
14639TIP3   OH243859   6.006   6.142   1.569
14639TIP3    H143860   5.950   6.080   1.616
14639TIP3    H243861   6.055   6.187   1.638
14640TIP3   OH243862   6.834   3.657   3.095
14640TIP3    H143863   6.915   3.672   3.045
14640TIP3    H243864   6.771   3.718   3.057
14641TIP3   OH243865   4.418   0.374   1.713
14641TIP3    H143866   4.405   0.304   1.778
14641TIP3    H243867   4.492   0.344   1.660
14642TIP3   OH243868   2.177   0.462   1.597
14642TIP3    H143869   2.245   0.475   1.663
14642TIP3    H243870   2.190   0.372   1.567
14643TIP3   OH243871   4.651   4.345   6.644
14643TIP3    H143872   4.659   4.438   6.668
14643TIP3    H243873   4.646   4.299   6.728
14644TIP3   OH243874   1.304   2.311   1.921
14644TIP3    H143875   1.291   2.226   1.880
14644TIP3    H243876   1.307   2.292   2.015
14645TIP3   OH243877   6.869   1.904   0.608
14645TIP3    H143878   6.901   1.913   0.697
14645TIP3    H243879   6.847   1.993   0.581
14646TIP3   OH243880   5.950   2.633   4.507
14646TIP3    H143881   5.983   2.543   4.502
14646TIP3    H243882   5.994   2.679   4.435
14647TIP3   OH243883   5.008   1.110   3.603
14647TIP3    H143884   4.979   1.019   3.603
14647TIP3    H243885   5.026   1.130   3.512
14648TIP3   OH243886   5.201   3.271   2.350
14648TIP3    H143887   5.187   3.178   2.370
14648TIP3    H243888   5.182   3.278   2.257
14649TIP3   OH243889   3.706   6.755   0.717
14649TIP3    H143890   3.625   6.772   0.668
14649TIP3    H243891   3.695   6.804   0.798
14650TIP3   OH243892   3.700   1.623   5.853
14650TIP3    H143893   3.609   1.635   5.825
14650TIP3    H243894   3.702   1.534   5.888
14651TIP3   OH243895   6.139   5.300   4.112
14651TIP3    H143896   6.199   5.312   4.039
14651TIP3    H243897   6.052   5.298   4.072
14652TIP3   OH243898   6.328   4.574   2.802
14652TIP3    H143899   6.370   4.548   2.720
14652TIP3    H243900   6.400   4.577   2.865
14653TIP3   OH243901   7.411   3.379   0.738
14653TIP3    H143902   7.421   3.321   0.662
14653TIP3    H243903   7.469   3.342   0.805
14654TIP3   OH243904   7.114   2.791   6.460
14654TIP3    H143905   7.117   2.743   6.377
14654TIP3    H243906   7.034   2.843   6.454
14655TIP3   OH243907   3.454   7.247   1.087
14655TIP3    H143908   3.496   7.218   1.167
14655TIP3    H243909   3.391   7.178   1.067
14656TIP3   OH243910   4.230   1.492   2.348
14656TIP3    H143911   4.314   1.510   2.391
14656TIP3    H243912   4.254   1.461   2.261
14657TIP3   OH243913   0.312   1.123   4.864
14657TIP3    H143914   0.360   1.189   4.914
14657TIP3    H243915   0.266   1.072   4.931
14658TIP3   OH243916   2.090   2.357   0.313
14658TIP3    H143917   2.060   2.268   0.294
14658TIP3    H243918   2.162   2.372   0.251
14659TIP3   OH243919   2.250   4.747   3.909
14659TIP3    H143920   2.175   4.712   3.861
14659TIP3    H243921   2.271   4.829   3.865
14660TIP3   OH243922   5.686   1.768   0.371
14660TIP3    H143923   5.770   1.726   0.388
14660TIP3    H243924   5.708   1.859   0.351
14661TIP3   OH243925   2.019   4.004   2.707
14661TIP3    H143926   2.019   4.013   2.802
14661TIP3    H243927   1.926   4.008   2.682
14662TIP3   OH243928   3.240   3.406   3.001
14662TIP3    H143929   3.212   3.316   2.983
14662TIP3    H243930   3.163   3.447   3.042
14663TIP3   OH243931   5.208   2.520   6.292
14663TIP3    H143932   5.125   2.515   6.339
14663TIP3    H243933   5.264   2.456   6.335
14664TIP3   OH243934   4.165   4.975   5.415
14664TIP3    H143935   4.143   5.067   5.431
14664TIP3    H243936   4.120   4.954   5.333
14665TIP3   OH243937   6.577   7.749   2.274
14665TIP3    H143938   6.637   7.819   2.248
14665TIP3    H243939   6.618   7.710   2.351
14666TIP3   OH243940   0.350   4.970   3.473
14666TIP3    H143941   0.374   5.056   3.507
14666TIP3    H243942   0.359   4.911   3.547
14667TIP3   OH243943   6.912   1.890   5.219
14667TIP3    H143944   6.954   1.858   5.299
14667TIP3    H243945   6.983   1.901   5.157
14668TIP3   OH243946   7.698   6.852   3.099
14668TIP3    H143947   7.619   6.870   3.149
14668TIP3    H243948   7.716   6.935   3.053
14669TIP3   OH243949   2.746   7.187   5.769
14669TIP3    H143950   2.789   7.264   5.731
14669TIP3    H243951   2.659   7.187   5.729
14670TIP3   OH243952   4.645   2.452   3.098
14670TIP3    H143953   4.587   2.400   3.042
14670TIP3    H243954   4.638   2.413   3.184
14671TIP3   OH243955   4.951   6.272   6.380
14671TIP3    H143956   4.986   6.258   6.292
14671TIP3    H243957   4.857   6.285   6.368
14672TIP3   OH243958   3.656   0.893   6.431
14672TIP3    H143959   3.686   0.803   6.421
14672TIP3    H243960   3.737   0.945   6.432
14673TIP3   OH243961   5.492   3.410   0.142
14673TIP3    H143962   5.549   3.384   0.214
14673TIP3    H243963   5.550   3.417   0.066
14674TIP3   OH243964   3.928   3.986   3.264
14674TIP3    H143965   3.950   4.079   3.264
14674TIP3    H243966   3.938   3.958   3.173
14675TIP3   OH243967   4.581   5.014   1.967
14675TIP3    H143968   4.594   4.925   1.998
14675TIP3    H243969   4.487   5.030   1.978
14676TIP3   OH243970   4.358   6.059   3.914
14676TIP3    H143971   4.274   6.105   3.906
14676TIP3    H243972   4.423   6.128   3.916
14677TIP3   OH243973   7.429   6.369   1.263
14677TIP3    H143974   7.420   6.463   1.276
14677TIP3    H243975   7.424   6.331   1.350
14678TIP3   OH243976   2.885   5.828   0.698
14678TIP3    H143977   2.980   5.818   0.706
14678TIP3    H243978   2.852   5.739   0.682
14679TIP3   OH243979   1.718   7.695   0.155
14679TIP3    H143980   1.813   7.706   0.159
14679TIP3    H243981   1.695   7.717   0.065
14680TIP3   OH243982   5.362   0.602   3.403
14680TIP3    H143983   5.365   0.689   3.362
14680TIP3    H243984   5.421   0.549   3.350
14681TIP3   OH243985   0.457   5.175   1.048
14681TIP3    H143986   0.501   5.091   1.048
14681TIP3    H243987   0.369   5.156   1.081
14682TIP3   OH243988   8.091   1.609   4.381
14682TIP3    H143989   8.118   1.518   4.367
14682TIP3    H243990   8.079   1.644   4.293
14683TIP3   OH243991   1.334   0.516   5.818
14683TIP3    H143992   1.295   0.560   5.894
14683TIP3    H243993   1.310   0.573   5.744
14684TIP3   OH243994   4.215   2.288   4.206
14684TIP3    H143995   4.290   2.337   4.241
14684TIP3    H243996   4.204   2.215   4.266
14685TIP3   OH243997   3.508   3.603   3.693
14685TIP3    H143998   3.420   3.638   3.708
14685TIP3    H243999   3.521   3.610   3.599
14686TIP3   OH244000   8.007   3.875   3.404
14686TIP3    H144001   8.056   3.950   3.371
14686TIP3    H244002   7.948   3.852   3.333
14687TIP3   OH244003   8.028   5.056   3.783
14687TIP3    H144004   8.100   5.089   3.837
14687TIP3    H244005   8.041   4.962   3.781
14688TIP3   OH244006   0.188   2.722   4.267
14688TIP3    H144007   0.211   2.812   4.289
14688TIP3    H244008   0.256   2.669   4.309
14689TIP3   OH244009   0.266   0.487   1.985
14689TIP3    H144010   0.343   0.440   1.953
14689TIP3    H244011   0.240   0.440   2.064
14690TIP3   OH244012   0.446   5.221   1.647
14690TIP3    H144013   0.365   5.170   1.642
14690TIP3    H244014   0.417   5.309   1.673
14691TIP3   OH244015   1.972   3.104   4.855
14691TIP3    H144016   2.012   3.069   4.935
14691TIP3    H244017   1.977   3.199   4.866
14692TIP3   OH244018   6.928   0.212   2.320
14692TIP3    H144019   6.975   0.177   2.396
14692TIP3    H244020   6.995   0.222   2.252
14693TIP3   OH244021   3.590   6.766   6.272
14693TIP3    H144022   3.498   6.788   6.261
14693TIP3    H244023   3.597   6.676   6.239
14694TIP3   OH244024   7.844   2.336   0.284
14694TIP3    H144025   7.891   2.273   0.229
14694TIP3    H244026   7.751   2.315   0.271
14695TIP3   OH244027   1.988   7.049   0.553
14695TIP3    H144028   2.017   7.085   0.469
14695TIP3    H244029   2.008   6.956   0.548
14696TIP3   OH244030   3.240   6.764   3.104
14696TIP3    H144031   3.155   6.806   3.091
14696TIP3    H244032   3.302   6.836   3.111
14697TIP3   OH244033   1.333   7.203   5.810
14697TIP3    H144034   1.267   7.134   5.814
14697TIP3    H244035   1.284   7.285   5.811
14698TIP3   OH244036   5.164   5.334   0.689
14698TIP3    H144037   5.205   5.283   0.619
14698TIP3    H244038   5.089   5.282   0.717
14699TIP3   OH244039   0.003   4.123   0.807
14699TIP3    H144040  -0.058   4.151   0.738
14699TIP3    H244041   0.087   4.161   0.781
14700TIP3   OH244042   7.015   6.642   0.924
14700TIP3    H144043   6.974   6.603   1.001
14700TIP3    H244044   6.960   6.613   0.851
14701TIP3   OH244045   6.325   2.569   4.230
14701TIP3    H144046   6.331   2.474   4.245
14701TIP3    H244047   6.236   2.592   4.256
14702TIP3   OH244048   8.152   5.560   6.125
14702TIP3    H144049   8.136   5.475   6.166
14702TIP3    H244050   8.115   5.551   6.037
14703TIP3   OH244051   1.297   2.307   3.572
14703TIP3    H144052   1.238   2.260   3.513
14703TIP3    H244053   1.340   2.372   3.516
14704TIP3   OH244054   2.134   1.568   1.937
14704TIP3    H144055   2.205   1.600   1.993
14704TIP3    H244056   2.083   1.509   1.993
14705TIP3   OH244057   4.983   5.582   2.428
14705TIP3    H144058   5.032   5.647   2.377
14705TIP3    H244059   4.957   5.629   2.507
14706TIP3   OH244060   3.892   1.691   0.039
14706TIP3    H144061   3.937   1.608   0.023
14706TIP3    H244062   3.960   1.749   0.070
14707TIP3   OH244063   7.768   3.348   2.175
14707TIP3    H144064   7.687   3.322   2.130
14707TIP3    H244065   7.826   3.378   2.105
14708TIP3   OH244066   6.568   2.228   0.674
14708TIP3    H144067   6.564   2.321   0.652
14708TIP3    H244068   6.571   2.184   0.589
14709TIP3   OH244069   6.168   4.821   0.111
14709TIP3    H144070   6.135   4.763   0.179
14709TIP3    H244071   6.090   4.858   0.071
14710TIP3   OH244072   5.998   4.613   2.469
14710TIP3    H144073   6.079   4.630   2.516
14710TIP3    H244074   5.992   4.684   2.405
14711TIP3   OH244075   4.964   0.142   5.131
14711TIP3    H144076   5.036   0.079   5.136
14711TIP3    H244077   4.932   0.149   5.222
14712TIP3   OH244078   1.114   2.454   1.601
14712TIP3    H144079   1.160   2.482   1.522
14712TIP3    H244080   1.046   2.520   1.614
14713TIP3   OH244081   2.372   0.441   0.594
14713TIP3    H144082   2.384   0.362   0.542
14713TIP3    H244083   2.435   0.504   0.558
14714TIP3   OH244084   2.820   1.004   4.940
14714TIP3    H144085   2.748   1.012   5.002
14714TIP3    H244086   2.785   0.948   4.870
14715TIP3   OH244087   2.074   0.730   6.071
14715TIP3    H144088   2.043   0.675   6.144
14715TIP3    H244089   2.040   0.686   5.993
14716TIP3   OH244090   2.985   7.256   2.938
14716TIP3    H144091   3.019   7.231   2.852
14716TIP3    H244092   3.063   7.283   2.987
14717TIP3   OH244093   2.743   6.173   5.531
14717TIP3    H144094   2.796   6.252   5.526
14717TIP3    H244095   2.706   6.174   5.619
14718TIP3   OH244096   2.226   5.995   0.583
14718TIP3    H144097   2.299   6.037   0.537
14718TIP3    H244098   2.263   5.965   0.666
14719TIP3   OH244099   6.056   3.532   2.811
14719TIP3    H144100   6.062   3.462   2.746
14719TIP3    H244101   6.122   3.596   2.783
14720TIP3   OH244102   1.785   5.713   0.304
14720TIP3    H144103   1.855   5.660   0.342
14720TIP3    H244104   1.726   5.649   0.263
14721TIP3   OH244105   7.182   5.605   1.206
14721TIP3    H144106   7.162   5.695   1.178
14721TIP3    H244107   7.253   5.615   1.269
14722TIP3   OH244108   6.836   1.366   0.482
14722TIP3    H144109   6.791   1.384   0.399
14722TIP3    H244110   6.780   1.404   0.549
14723TIP3   OH244111   5.368   3.317   1.927
14723TIP3    H144112   5.429   3.304   2.001
14723TIP3    H244113   5.397   3.399   1.887
14724TIP3   OH244114   2.596   3.817   4.106
14724TIP3    H144115   2.530   3.766   4.153
14724TIP3    H244116   2.596   3.781   4.017
14725TIP3   OH244117   3.747   0.080   5.488
14725TIP3    H144118   3.805   0.148   5.522
14725TIP3    H244119   3.744   0.014   5.557
14726TIP3   OH244120   3.203   5.748   6.157
14726TIP3    H144121   3.191   5.675   6.216
14726TIP3    H244122   3.290   5.783   6.179
14727TIP3   OH244123   7.134   6.478   6.224
14727TIP3    H144124   7.125   6.517   6.138
14727TIP3    H244125   7.211   6.519   6.262
14728TIP3   OH244126   2.987   1.154   5.123
14728TIP3    H144127   2.928   1.133   5.052
14728TIP3    H244128   2.967   1.245   5.145
14729TIP3   OH244129   2.594   0.560   2.688
14729TIP3    H144130   2.530   0.508   2.639
14729TIP3    H244131   2.546   0.594   2.763
14730TIP3   OH244132   4.661   2.916   0.707
14730TIP3    H144133   4.702   2.961   0.781
14730TIP3    H244134   4.689   2.825   0.717
14731TIP3   OH244135   7.681   4.978   4.261
14731TIP3    H144136   7.731   5.030   4.323
14731TIP3    H244137   7.746   4.943   4.201
14732TIP3   OH244138   4.926   7.586   2.662
14732TIP3    H144139   4.886   7.564   2.746
14732TIP3    H244140   4.857   7.571   2.598
14733TIP3   OH244141   4.996   1.086   0.140
14733TIP3    H144142   4.905   1.098   0.165
14733TIP3    H244143   5.012   1.151   0.072
14734TIP3   OH244144   0.957   3.086   2.356
14734TIP3    H144145   0.916   2.999   2.345
14734TIP3    H244146   0.963   3.097   2.451
14735TIP3   OH244147   6.227   5.563   0.352
14735TIP3    H144148   6.279   5.483   0.340
14735TIP3    H244149   6.288   5.634   0.330
14736TIP3   OH244150   2.527   4.726   5.917
14736TIP3    H144151   2.513   4.724   5.822
14736TIP3    H244152   2.487   4.645   5.949
14737TIP3   OH244153   3.929   0.004   1.440
14737TIP3    H144154   3.956  -0.076   1.394
14737TIP3    H244155   3.968  -0.003   1.526
14738TIP3   OH244156   7.766   0.815   0.100
14738TIP3    H144157   7.824   0.816   0.023
14738TIP3    H244158   7.679   0.834   0.064
14739TIP3   OH244159   4.892   4.370   3.679
14739TIP3    H144160   4.861   4.349   3.591
14739TIP3    H244161   4.978   4.410   3.664
14740TIP3   OH244162   4.622   3.191   5.036
14740TIP3    H144163   4.620   3.144   5.120
14740TIP3    H244164   4.654   3.127   4.973
14741TIP3   OH244165   7.835   5.693   5.957
14741TIP3    H144166   7.885   5.767   5.923
14741TIP3    H244167   7.902   5.631   5.989
14742TIP3   OH244168   4.006   2.447   1.877
14742TIP3    H144169   4.026   2.483   1.963
14742TIP3    H244170   3.967   2.362   1.895
14743TIP3   OH244171   2.823   2.632   1.292
14743TIP3    H144172   2.889   2.648   1.224
14743TIP3    H244173   2.842   2.696   1.360
14744TIP3   OH244174   2.752   0.031   6.212
14744TIP3    H144175   2.708   0.110   6.180
14744TIP3    H244176   2.711   0.014   6.297
14745TIP3   OH244177   7.537   7.390   2.225
14745TIP3    H144178   7.596   7.324   2.189
14745TIP3    H244179   7.591   7.439   2.286
14746TIP3   OH244180   6.843   2.441   6.684
14746TIP3    H144181   6.926   2.426   6.731
14746TIP3    H244182   6.869   2.460   6.594
14747TIP3   OH244183   3.954   5.715   1.352
14747TIP3    H144184   3.912   5.669   1.424
14747TIP3    H244185   4.047   5.693   1.360
14748TIP3   OH244186   2.012   6.527   3.454
14748TIP3    H144187   2.087   6.468   3.460
14748TIP3    H244188   2.040   6.594   3.392
14749TIP3   OH244189   2.068   5.437   6.260
14749TIP3    H144190   2.134   5.506   6.262
14749TIP3    H244191   2.016   5.455   6.182
14750TIP3   OH244192   1.672   1.273   1.136
14750TIP3    H144193   1.702   1.334   1.069
14750TIP3    H244194   1.639   1.328   1.207
14751TIP3   OH244195   5.784   2.794   0.842
14751TIP3    H144196   5.691   2.778   0.822
14751TIP3    H244197   5.825   2.810   0.757
14752TIP3   OH244198   7.673   6.626   0.917
14752TIP3    H144199   7.613   6.667   0.854
14752TIP3    H244200   7.667   6.682   0.994
14753TIP3   OH244201   6.734   0.325   0.516
14753TIP3    H144202   6.729   0.252   0.578
14753TIP3    H244203   6.643   0.343   0.494
14754TIP3   OH244204   4.019   2.477   1.583
14754TIP3    H144205   3.968   2.557   1.597
14754TIP3    H244206   4.042   2.447   1.671
14755TIP3   OH244207   5.110   6.863   3.221
14755TIP3    H144208   5.138   6.788   3.274
14755TIP3    H244209   5.183   6.925   3.229
14756TIP3   OH244210   6.185   0.854   0.923
14756TIP3    H144211   6.097   0.817   0.914
14756TIP3    H244212   6.226   0.838   0.838
14757TIP3   OH244213   4.239   4.675   6.713
14757TIP3    H144214   4.153   4.633   6.713
14757TIP3    H244215   4.272   4.660   6.802
14758TIP3   OH244216   2.802   1.692   5.780
14758TIP3    H144217   2.887   1.735   5.790
14758TIP3    H244218   2.790   1.644   5.862
14759TIP3   OH244219   4.500   6.511   4.503
14759TIP3    H144220   4.452   6.592   4.489
14759TIP3    H244221   4.575   6.517   4.444
14760TIP3   OH244222   6.635   1.782   0.472
14760TIP3    H144223   6.692   1.764   0.397
14760TIP3    H244224   6.694   1.820   0.538
14761TIP3   OH244225   2.928   2.625   4.879
14761TIP3    H144226   2.895   2.649   4.965
14761TIP3    H244227   3.018   2.655   4.878
14762TIP3   OH244228   3.571   5.417   0.423
14762TIP3    H144229   3.487   5.425   0.377
14762TIP3    H244230   3.636   5.443   0.358
14763TIP3   OH244231   5.385   3.136   5.096
14763TIP3    H144232   5.459   3.075   5.090
14763TIP3    H244233   5.339   3.109   5.176
14764TIP3   OH244234   0.892   4.449   2.120
14764TIP3    H144235   0.868   4.474   2.209
14764TIP3    H244236   0.966   4.389   2.131
14765TIP3   OH244237   6.496   1.887   2.534
14765TIP3    H144238   6.454   1.802   2.549
14765TIP3    H244239   6.490   1.933   2.617
14766TIP3   OH244240   2.409   5.553   1.484
14766TIP3    H144241   2.459   5.631   1.459
14766TIP3    H244242   2.475   5.493   1.519
14767TIP3   OH244243   0.569   0.640   6.585
14767TIP3    H144244   0.585   0.550   6.614
14767TIP3    H244245   0.576   0.693   6.665
14768TIP3   OH244246   8.055   3.335   4.015
14768TIP3    H144247   8.084   3.286   3.938
14768TIP3    H244248   8.102   3.418   4.009
14769TIP3   OH244249   6.929   1.907   3.911
14769TIP3    H144250   7.018   1.933   3.936
14769TIP3    H244251   6.942   1.833   3.852
14770TIP3   OH244252   2.591   5.839   2.955
14770TIP3    H144253   2.620   5.908   3.015
14770TIP3    H244254   2.579   5.884   2.872
14771TIP3   OH244255   5.430   5.988   3.107
14771TIP3    H144256   5.424   6.031   3.193
14771TIP3    H244257   5.459   6.057   3.048
14772TIP3   OH244258   5.156   4.013   4.127
14772TIP3    H144259   5.123   3.979   4.210
14772TIP3    H244260   5.238   4.057   4.150
14773TIP3   OH244261   6.084   0.514   5.674
14773TIP3    H144262   6.114   0.447   5.735
14773TIP3    H244263   6.020   0.469   5.617
14774TIP3   OH244264   3.093   7.687   1.337
14774TIP3    H144265   3.140   7.700   1.420
14774TIP3    H244266   3.148   7.729   1.271
14775TIP3   OH244267   4.114   6.120   3.265
14775TIP3    H144268   4.185   6.097   3.205
14775TIP3    H244269   4.129   6.065   3.342
14776TIP3   OH244270   5.738   6.587   0.648
14776TIP3    H144271   5.670   6.618   0.709
14776TIP3    H244272   5.738   6.652   0.578
14777TIP3   OH244273   1.419   4.966   5.851
14777TIP3    H144274   1.485   5.019   5.806
14777TIP3    H244275   1.407   4.890   5.794
14778TIP3   OH244276   0.932   7.672   5.313
14778TIP3    H144277   1.014   7.650   5.269
14778TIP3    H244278   0.955   7.745   5.371
14779TIP3   OH244279   3.004   5.445   4.989
14779TIP3    H144280   3.099   5.454   4.983
14779TIP3    H244281   2.972   5.535   4.994
14780TIP3   OH244282   1.694   4.189   0.596
14780TIP3    H144283   1.661   4.240   0.669
14780TIP3    H244284   1.645   4.222   0.520
14781TIP3   OH244285   3.916   4.877   4.238
14781TIP3    H144286   4.011   4.887   4.240
14781TIP3    H244287   3.883   4.951   4.289
14782TIP3   OH244288   6.424   6.190   4.055
14782TIP3    H144289   6.429   6.181   4.150
14782TIP3    H244290   6.404   6.103   4.023
14783TIP3   OH244291   7.950   3.815   4.473
14783TIP3    H144292   7.912   3.840   4.558
14783TIP3    H244293   7.875   3.806   4.415
14784TIP3   OH244294   3.389   0.235   0.669
14784TIP3    H144295   3.377   0.282   0.586
14784TIP3    H244296   3.350   0.149   0.653
14785TIP3   OH244297   3.103   3.770   5.262
14785TIP3    H144298   3.107   3.675   5.251
14785TIP3    H244299   3.195   3.798   5.263
14786TIP3   OH244300   2.068   1.953   0.387
14786TIP3    H144301   2.072   1.996   0.473
14786TIP3    H244302   2.153   1.910   0.378
14787TIP3   OH244303   3.653   5.390   3.809
14787TIP3    H144304   3.580   5.431   3.856
14787TIP3    H244305   3.625   5.299   3.798
14788TIP3   OH244306   1.371   6.615   0.037
14788TIP3    H144307   1.294   6.563   0.014
14788TIP3    H244308   1.361   6.633   0.131
14789TIP3   OH244309   5.567   3.732   1.414
14789TIP3    H144310   5.577   3.660   1.352
14789TIP3    H244311   5.553   3.689   1.499
14790TIP3   OH244312   1.667   0.142   4.887
14790TIP3    H144313   1.726   0.197   4.939
14790TIP3    H244314   1.579   0.174   4.909
14791TIP3   OH244315   8.202   6.421   3.284
14791TIP3    H144316   8.159   6.336   3.271
14791TIP3    H244317   8.130   6.483   3.289
14792TIP3   OH244318   4.657   4.452   4.622
14792TIP3    H144319   4.570   4.425   4.591
14792TIP3    H244320   4.717   4.424   4.553
14793TIP3   OH244321   6.754   3.870   2.764
14793TIP3    H144322   6.745   3.882   2.859
14793TIP3    H244323   6.832   3.920   2.741
14794TIP3   OH244324   4.372   1.046   0.040
14794TIP3    H144325   4.324   1.086   0.112
14794TIP3    H244326   4.314   1.057  -0.036
14795TIP3   OH244327   7.831   5.625   4.460
14795TIP3    H144328   7.780   5.673   4.525
14795TIP3    H244329   7.905   5.683   4.439
14796TIP3   OH244330   8.117   6.588   0.618
14796TIP3    H144331   8.103   6.606   0.711
14796TIP3    H244332   8.139   6.495   0.615
14797TIP3   OH244333   6.019   5.614   6.600
14797TIP3    H144334   6.080   5.687   6.609
14797TIP3    H244335   6.047   5.551   6.665
14798TIP3   OH244336   7.076   0.669   1.666
14798TIP3    H144337   7.099   0.580   1.636
14798TIP3    H244338   7.107   0.726   1.595
14799TIP3   OH244339   0.147   1.627   1.792
14799TIP3    H144340   0.239   1.623   1.818
14799TIP3    H244341   0.107   1.550   1.834
14800TIP3   OH244342   3.526   5.433   5.186
14800TIP3    H144343   3.541   5.464   5.097
14800TIP3    H244344   3.614   5.424   5.224
14801TIP3   OH244345   0.973   1.478   0.531
14801TIP3    H144346   0.887   1.495   0.491
14801TIP3    H244347   1.033   1.534   0.483
14802TIP3   OH244348   1.571   6.050   1.597
14802TIP3    H144349   1.587   6.131   1.645
14802TIP3    H244350   1.476   6.042   1.595
14803TIP3   OH244351   5.105   2.523   2.279
14803TIP3    H144352   5.066   2.570   2.352
14803TIP3    H244353   5.107   2.431   2.308
14804TIP3   OH244354   6.347   0.952   0.012
14804TIP3    H144355   6.354   0.874   0.067
14804TIP3    H244356   6.423   1.006   0.037
14805TIP3   OH244357   7.462   0.297   1.306
14805TIP3    H144358   7.504   0.214   1.327
14805TIP3    H244359   7.487   0.314   1.215
14806TIP3   OH244360   6.696   3.700   5.170
14806TIP3    H144361   6.606   3.711   5.201
14806TIP3    H244362   6.692   3.625   5.111
14807TIP3   OH244363   0.844   1.048   4.999
14807TIP3    H144364   0.774   0.989   5.028
14807TIP3    H244365   0.822   1.133   5.037
14808TIP3   OH244366   5.977   3.559   1.026
14808TIP3    H144367   5.935   3.644   1.041
14808TIP3    H244368   6.036   3.548   1.101
14809TIP3   OH244369   6.601   5.322   4.997
14809TIP3    H144370   6.683   5.308   5.044
14809TIP3    H244371   6.536   5.272   5.045
14810TIP3   OH244372   1.139   2.806   1.788
14810TIP3    H144373   1.096   2.882   1.827
14810TIP3    H244374   1.067   2.752   1.755
14811TIP3   OH244375   4.642   3.052   5.264
14811TIP3    H144376   4.586   3.046   5.341
14811TIP3    H244377   4.675   2.963   5.251
14812TIP3   OH244378   0.280   2.836   1.963
14812TIP3    H144379   0.256   2.922   1.998
14812TIP3    H244380   0.250   2.774   2.029
14813TIP3   OH244381   7.490   2.646   0.634
14813TIP3    H144382   7.398   2.620   0.640
14813TIP3    H244383   7.527   2.623   0.719
14814TIP3   OH244384   4.008   6.324   3.688
14814TIP3    H144385   3.949   6.249   3.698
14814TIP3    H244386   3.966   6.378   3.620
14815TIP3   OH244387   2.334   7.258   0.127
14815TIP3    H144388   2.399   7.207   0.078
14815TIP3    H244389   2.276   7.192   0.166
   8.28041   7.80685   6.76092   0.00000   0.00000  -2.76014   0.00000  -2.76014  -3.90342
