Title t= 170.00000 step= 85000
19942
    1ASP      N    1   0.950   1.707   3.487
    1ASP    HT1    2   0.964   1.799   3.441
    1ASP    HT2    3   0.912   1.733   3.580
    1ASP    HT3    4   0.874   1.659   3.434
    1ASP     CA    5   1.079   1.623   3.470
    1ASP     HA    6   1.153   1.696   3.443
    1ASP     CB    7   1.096   1.555   3.608
    1ASP    HB1    8   1.007   1.490   3.623
    1ASP    HB2    9   1.097   1.628   3.692
    1ASP     CG   10   1.218   1.473   3.609
    1ASP    OD1   11   1.239   1.388   3.701
    1ASP    OD2   12   1.304   1.493   3.524
    1ASP      C   13   1.074   1.536   3.343
    1ASP      O   14   1.169   1.538   3.263
    2ALA      N   15   0.975   1.449   3.331
    2ALA     HN   16   0.908   1.432   3.404
    2ALA     CA   17   0.965   1.361   3.219
    2ALA     HA   18   1.064   1.335   3.184
    2ALA     CB   19   0.895   1.223   3.252
    2ALA    HB1   20   0.890   1.167   3.156
    2ALA    HB2   21   0.789   1.242   3.279
    2ALA    HB3   22   0.961   1.176   3.329
    2ALA      C   23   0.894   1.438   3.106
    2ALA      O   24   0.782   1.474   3.119
    3ASP      N   25   0.960   1.461   2.993
    3ASP     HN   26   1.052   1.422   2.990
    3ASP     CA   27   0.917   1.525   2.874
    3ASP     HA   28   0.877   1.622   2.902
    3ASP     CB   29   1.035   1.548   2.778
    3ASP    HB1   30   1.002   1.598   2.684
    3ASP    HB2   31   1.098   1.459   2.758
    3ASP     CG   32   1.133   1.638   2.855
    3ASP    OD1   33   1.245   1.594   2.891
    3ASP    OD2   34   1.102   1.755   2.887
    3ASP      C   35   0.801   1.459   2.803
    3ASP      O   36   0.780   1.337   2.821
    4GLY      N   37   0.722   1.538   2.725
    4GLY     HN   38   0.758   1.630   2.715
    4GLY     CA   39   0.607   1.489   2.651
    4GLY    HA1   40   0.568   1.568   2.588
    4GLY    HA2   41   0.530   1.467   2.723
    4GLY      C   42   0.638   1.376   2.550
    4GLY      O   43   0.756   1.360   2.508
    5PRO      N   44   0.531   1.306   2.506
    5PRO     CD   45   0.398   1.315   2.561
    5PRO    HD1   46   0.359   1.417   2.544
    5PRO    HD2   47   0.397   1.297   2.670
    5PRO     CA   48   0.542   1.178   2.433
    5PRO     HA   49   0.630   1.128   2.471
    5PRO     CB   50   0.415   1.103   2.472
    5PRO    HB1   51   0.431   1.055   2.571
    5PRO    HB2   52   0.391   1.034   2.388
    5PRO     CG   53   0.315   1.214   2.487
    5PRO    HG1   54   0.290   1.256   2.388
    5PRO    HG2   55   0.221   1.175   2.533
    5PRO      C   56   0.559   1.200   2.278
    5PRO      O   57   0.476   1.261   2.213
    6GLY      N   58   0.663   1.144   2.213
    6GLY     HN   59   0.736   1.112   2.274
    6GLY     CA   60   0.688   1.125   2.069
    6GLY    HA1   61   0.789   1.088   2.059
    6GLY    HA2   62   0.690   1.223   2.023
    6GLY      C   63   0.601   1.041   1.977
    6GLY      O   64   0.498   0.990   2.027
    7ASP      N   65   0.626   1.027   1.847
    7ASP     HN   66   0.698   1.085   1.808
    7ASP     CA   67   0.557   0.950   1.745
    7ASP     HA   68   0.454   0.982   1.742
    7ASP     CB   69   0.621   0.995   1.607
    7ASP    HB1   70   0.728   0.971   1.622
    7ASP    HB2   71   0.610   1.105   1.593
    7ASP     CG   72   0.576   0.922   1.479
    7ASP    OD1   73   0.591   0.797   1.463
    7ASP    OD2   74   0.548   0.991   1.383
    7ASP      C   75   0.565   0.794   1.775
    7ASP      O   76   0.662   0.746   1.838
    8PRO      N   77   0.464   0.708   1.749
    8PRO     CD   78   0.326   0.746   1.718
    8PRO    HD1   79   0.316   0.726   1.610
    8PRO    HD2   80   0.293   0.850   1.740
    8PRO     CA   81   0.473   0.571   1.800
    8PRO     HA   82   0.499   0.582   1.904
    8PRO     CB   83   0.332   0.516   1.778
    8PRO    HB1   84   0.300   0.431   1.841
    8PRO    HB2   85   0.326   0.483   1.672
    8PRO     CG   86   0.240   0.639   1.792
    8PRO    HG1   87   0.134   0.632   1.759
    8PRO    HG2   88   0.231   0.667   1.899
    8PRO      C   89   0.581   0.489   1.729
    8PRO      O   90   0.612   0.384   1.779
    9ASP      N   91   0.633   0.541   1.619
    9ASP     HN   92   0.593   0.619   1.572
    9ASP     CA   93   0.726   0.466   1.536
    9ASP     HA   94   0.736   0.362   1.564
    9ASP     CB   95   0.685   0.477   1.388
    9ASP    HB1   96   0.775   0.453   1.328
    9ASP    HB2   97   0.640   0.576   1.365
    9ASP     CG   98   0.565   0.386   1.354
    9ASP    OD1   99   0.545   0.365   1.234
    9ASP    OD2  100   0.500   0.327   1.443
    9ASP      C  101   0.866   0.529   1.564
    9ASP      O  102   0.960   0.486   1.499
   10ALA      N  103   0.878   0.622   1.661
   10ALA     HN  104   0.799   0.655   1.713
   10ALA     CA  105   1.003   0.692   1.692
   10ALA     HA  106   1.074   0.654   1.620
   10ALA     CB  107   0.986   0.846   1.676
   10ALA    HB1  108   1.085   0.890   1.697
   10ALA    HB2  109   0.911   0.888   1.747
   10ALA    HB3  110   0.954   0.866   1.572
   10ALA      C  111   1.031   0.660   1.840
   10ALA      O  112   0.948   0.629   1.921
   11GLY      N  113   1.161   0.660   1.880
   11GLY     HN  114   1.222   0.701   1.813
   11GLY     CA  115   1.212   0.628   2.015
   11GLY    HA1  116   1.289   0.552   2.013
   11GLY    HA2  117   1.131   0.591   2.076
   11GLY      C  118   1.275   0.754   2.083
   11GLY    OT1  119   1.209   0.804   2.172
   11GLY    OT2  120   1.392   0.797   2.049
   12LIT    LIT  121   4.557   4.373   4.459
   13LIT    LIT  122   1.224   3.305   1.939
   14LIT    LIT  123   0.965   5.570   3.757
   15LIT    LIT  124   2.654   2.109   0.341
   16LIT    LIT  125   3.690   5.722   3.015
   17LIT    LIT  126   2.533   4.994   3.608
   18LIT    LIT  127   6.047   5.337   2.852
   19LIT    LIT  128   0.599   0.401   1.062
   20LIT    LIT  129   4.012   5.201   0.169
   21LIT    LIT  130   3.789   0.020   2.860
   22LIT    LIT  131   3.925   3.644   1.577
   23LIT    LIT  132   1.813   1.545   2.254
   24LIT    LIT  133   2.230   5.078   4.357
   25LIT    LIT  134   4.638   0.258   1.098
   26LIT    LIT  135   2.640   2.111   5.090
   27LIT    LIT  136   5.905  -0.009   2.344
   28LIT    LIT  137   1.426   1.356   3.670
   29LIT    LIT  138   3.198   3.597   3.125
   30LIT    LIT  139   1.298   2.224   1.759
   31LIT    LIT  140   4.586   2.487   3.968
   32LIT    LIT  141   2.374   5.773   1.496
   33LIT    LIT  142   5.022   1.742   2.133
   34CLA    CLA  143   5.309   2.348   1.999
   35CLA    CLA  144   0.044   0.118   4.647
   36CLA    CLA  145   3.846   0.528   4.234
   37CLA    CLA  146   5.541   5.858   4.330
   38CLA    CLA  147   4.206   4.635   0.137
   39CLA    CLA  148   3.607   4.633   4.191
   40CLA    CLA  149   4.259   2.571   0.593
   41CLA    CLA  150   2.527   2.590   1.240
   42CLA    CLA  151   4.166   4.619   1.470
   43CLA    CLA  152   2.123   3.457   1.678
   44CLA    CLA  153   3.516   0.641   0.358
   45CLA    CLA  154   2.943   0.184   3.556
   46CLA    CLA  155   4.424   5.563   3.424
   47CLA    CLA  156   2.706   2.273   4.949
   48CLA    CLA  157   3.509   4.416   4.630
   49CLA    CLA  158   6.297   4.604   1.740
   50CLA    CLA  159   2.402   2.074   1.798
   51CLA    CLA  160   0.784   5.784   1.918
   52TIP3   OH2  161   6.249   2.099   1.004
   52TIP3    H1  162   6.196   2.041   1.059
   52TIP3    H2  163   6.306   2.145   1.066
   53TIP3   OH2  164   5.937   1.345   1.851
   53TIP3    H1  165   5.898   1.388   1.775
   53TIP3    H2  166   6.025   1.383   1.858
   54TIP3   OH2  167   5.742   2.164   3.532
   54TIP3    H1  168   5.794   2.227   3.581
   54TIP3    H2  169   5.789   2.154   3.449
   55TIP3   OH2  170   2.410   4.896   1.644
   55TIP3    H1  171   2.450   4.983   1.636
   55TIP3    H2  172   2.317   4.913   1.650
   56TIP3   OH2  173   2.684   2.013   1.698
   56TIP3    H1  174   2.595   2.024   1.733
   56TIP3    H2  175   2.727   1.955   1.761
   57TIP3   OH2  176   4.867   2.448   4.470
   57TIP3    H1  177   4.859   2.391   4.546
   57TIP3    H2  178   4.815   2.525   4.492
   58TIP3   OH2  179   0.511   3.258   0.616
   58TIP3    H1  180   0.496   3.165   0.632
   58TIP3    H2  181   0.518   3.266   0.521
   59TIP3   OH2  182   4.345   2.669   3.673
   59TIP3    H1  183   4.408   2.647   3.743
   59TIP3    H2  184   4.393   2.653   3.592
   60TIP3   OH2  185   1.859   4.826   4.947
   60TIP3    H1  186   1.944   4.806   4.986
   60TIP3    H2  187   1.832   4.907   4.990
   61TIP3   OH2  188   5.864   2.779   1.916
   61TIP3    H1  189   5.905   2.756   1.999
   61TIP3    H2  190   5.840   2.872   1.927
   62TIP3   OH2  191   3.820   5.231   4.028
   62TIP3    H1  192   3.784   5.302   3.974
   62TIP3    H2  193   3.747   5.171   4.041
   63TIP3   OH2  194   2.977   2.956   1.496
   63TIP3    H1  195   3.062   2.998   1.483
   63TIP3    H2  196   2.926   3.019   1.546
   64TIP3   OH2  197   3.399   5.475   2.243
   64TIP3    H1  198   3.335   5.404   2.253
   64TIP3    H2  199   3.463   5.460   2.312
   65TIP3   OH2  200   4.679   2.813   5.008
   65TIP3    H1  201   4.691   2.801   5.102
   65TIP3    H2  202   4.768   2.808   4.972
   66TIP3   OH2  203   0.333   2.165   3.603
   66TIP3    H1  204   0.389   2.241   3.619
   66TIP3    H2  205   0.244   2.198   3.612
   67TIP3   OH2  206   3.955   0.271   0.351
   67TIP3    H1  207   3.890   0.306   0.412
   67TIP3    H2  208   3.980   0.186   0.388
   68TIP3   OH2  209   3.564   3.898   5.099
   68TIP3    H1  210   3.559   3.877   5.006
   68TIP3    H2  211   3.541   3.991   5.104
   69TIP3   OH2  212   5.755   4.308   0.513
   69TIP3    H1  213   5.741   4.401   0.495
   69TIP3    H2  214   5.697   4.263   0.452
   70TIP3   OH2  215   5.542   0.104   4.340
   70TIP3    H1  216   5.545   0.132   4.249
   70TIP3    H2  217   5.547   0.185   4.391
   71TIP3   OH2  218   4.551   5.064   1.566
   71TIP3    H1  219   4.555   5.093   1.657
   71TIP3    H2  220   4.606   5.127   1.519
   72TIP3   OH2  221   5.533   5.774   0.476
   72TIP3    H1  222   5.593   5.787   0.549
   72TIP3    H2  223   5.524   5.861   0.436
   73TIP3   OH2  224   2.762   0.472   2.158
   73TIP3    H1  225   2.698   0.409   2.190
   73TIP3    H2  226   2.734   0.490   2.068
   74TIP3   OH2  227   4.893   1.155   3.601
   74TIP3    H1  228   4.901   1.186   3.691
   74TIP3    H2  229   4.808   1.187   3.571
   75TIP3   OH2  230   6.099   3.591   0.815
   75TIP3    H1  231   6.190   3.620   0.805
   75TIP3    H2  232   6.072   3.563   0.727
   76TIP3   OH2  233   4.745   5.257   1.444
   76TIP3    H1  234   4.765   5.332   1.501
   76TIP3    H2  235   4.691   5.294   1.374
   77TIP3   OH2  236   1.151   1.302   3.944
   77TIP3    H1  237   1.190   1.323   3.859
   77TIP3    H2  238   1.075   1.249   3.923
   78TIP3   OH2  239   1.703   2.250   3.782
   78TIP3    H1  240   1.678   2.216   3.868
   78TIP3    H2  241   1.695   2.345   3.790
   79TIP3   OH2  242   0.656   0.086   2.183
   79TIP3    H1  243   0.593   0.060   2.251
   79TIP3    H2  244   0.604   0.140   2.123
   80TIP3   OH2  245   6.195   1.893   5.128
   80TIP3    H1  246   6.180   1.873   5.035
   80TIP3    H2  247   6.115   1.865   5.171
   81TIP3   OH2  248   1.689   3.814   2.315
   81TIP3    H1  249   1.618   3.823   2.251
   81TIP3    H2  250   1.657   3.748   2.376
   82TIP3   OH2  251   6.203   0.575   5.165
   82TIP3    H1  252   6.117   0.575   5.122
   82TIP3    H2  253   6.235   0.486   5.152
   83TIP3   OH2  254   0.540   1.222   3.182
   83TIP3    H1  255   0.536   1.285   3.110
   83TIP3    H2  256   0.597   1.153   3.151
   84TIP3   OH2  257   2.117   3.263   1.387
   84TIP3    H1  258   2.128   3.313   1.468
   84TIP3    H2  259   2.178   3.304   1.325
   85TIP3   OH2  260   3.272   5.938   4.496
   85TIP3    H1  261   3.193   5.938   4.442
   85TIP3    H2  262   3.343   5.958   4.435
   86TIP3   OH2  263   4.713   1.757   1.012
   86TIP3    H1  264   4.755   1.675   1.036
   86TIP3    H2  265   4.643   1.732   0.952
   87TIP3   OH2  266   4.319   4.899   2.567
   87TIP3    H1  267   4.362   4.931   2.488
   87TIP3    H2  268   4.240   4.856   2.536
   88TIP3   OH2  269   5.289   2.298   1.664
   88TIP3    H1  270   5.218   2.342   1.712
   88TIP3    H2  271   5.317   2.227   1.723
   89TIP3   OH2  272   2.324   4.001   4.451
   89TIP3    H1  273   2.379   4.072   4.484
   89TIP3    H2  274   2.335   3.930   4.515
   90TIP3   OH2  275   5.101   3.796   0.729
   90TIP3    H1  276   5.194   3.787   0.748
   90TIP3    H2  277   5.069   3.860   0.792
   91TIP3   OH2  278   5.784   0.228   4.760
   91TIP3    H1  279   5.749   0.167   4.696
   91TIP3    H2  280   5.818   0.302   4.709
   92TIP3   OH2  281   5.110   1.548   0.457
   92TIP3    H1  282   5.138   1.459   0.436
   92TIP3    H2  283   5.143   1.602   0.385
   93TIP3   OH2  284   5.628   1.048   1.688
   93TIP3    H1  285   5.576   1.022   1.765
   93TIP3    H2  286   5.567   1.039   1.615
   94TIP3   OH2  287   3.593   4.706   2.922
   94TIP3    H1  288   3.688   4.710   2.918
   94TIP3    H2  289   3.571   4.619   2.888
   95TIP3   OH2  290   3.661   0.239   2.408
   95TIP3    H1  291   3.596   0.195   2.354
   95TIP3    H2  292   3.610   0.300   2.462
   96TIP3   OH2  293   5.499   1.544   5.137
   96TIP3    H1  294   5.457   1.511   5.216
   96TIP3    H2  295   5.520   1.465   5.086
   97TIP3   OH2  296   1.267   3.473   4.286
   97TIP3    H1  297   1.289   3.539   4.352
   97TIP3    H2  298   1.183   3.504   4.250
   98TIP3   OH2  299   5.431   3.546   0.263
   98TIP3    H1  300   5.366   3.605   0.224
   98TIP3    H2  301   5.497   3.604   0.301
   99TIP3   OH2  302   1.634   1.849   2.948
   99TIP3    H1  303   1.547   1.837   2.910
   99TIP3    H2  304   1.652   1.943   2.938
  100TIP3   OH2  305   4.594   2.342   3.618
  100TIP3    H1  306   4.645   2.271   3.659
  100TIP3    H2  307   4.503   2.313   3.624
  101TIP3   OH2  308   5.433   5.119   2.190
  101TIP3    H1  309   5.420   5.024   2.198
  101TIP3    H2  310   5.381   5.157   2.260
  102TIP3   OH2  311   1.790   3.032   4.259
  102TIP3    H1  312   1.749   3.119   4.257
  102TIP3    H2  313   1.747   2.987   4.332
  103TIP3   OH2  314   1.585   1.786   1.444
  103TIP3    H1  315   1.601   1.742   1.528
  103TIP3    H2  316   1.670   1.821   1.419
  104TIP3   OH2  317   0.366   1.801   2.123
  104TIP3    H1  318   0.420   1.731   2.087
  104TIP3    H2  319   0.339   1.769   2.209
  105TIP3   OH2  320   1.693   2.770   0.860
  105TIP3    H1  321   1.770   2.761   0.917
  105TIP3    H2  322   1.723   2.743   0.774
  106TIP3   OH2  323   0.474   4.333  -0.002
  106TIP3    H1  324   0.460   4.298   0.086
  106TIP3    H2  325   0.558   4.297  -0.029
  107TIP3   OH2  326   5.292   0.307   4.258
  107TIP3    H1  327   5.323   0.291   4.348
  107TIP3    H2  328   5.328   0.392   4.235
  108TIP3   OH2  329   0.497   4.445   3.916
  108TIP3    H1  330   0.503   4.351   3.897
  108TIP3    H2  331   0.512   4.451   4.010
  109TIP3   OH2  332   2.833   0.994   0.413
  109TIP3    H1  333   2.801   0.978   0.502
  109TIP3    H2  334   2.909   0.938   0.404
  110TIP3   OH2  335   4.787   5.556   3.424
  110TIP3    H1  336   4.814   5.536   3.334
  110TIP3    H2  337   4.742   5.640   3.417
  111TIP3   OH2  338   0.806   5.006   4.045
  111TIP3    H1  339   0.832   5.063   4.118
  111TIP3    H2  340   0.805   5.065   3.969
  112TIP3   OH2  341   4.662   3.595   1.791
  112TIP3    H1  342   4.582   3.560   1.830
  112TIP3    H2  343   4.679   3.676   1.839
  113TIP3   OH2  344   1.075   5.803   3.362
  113TIP3    H1  345   0.985   5.813   3.395
  113TIP3    H2  346   1.101   5.715   3.390
  114TIP3   OH2  347   1.211   3.460   2.049
  114TIP3    H1  348   1.223   3.553   2.032
  114TIP3    H2  349   1.212   3.452   2.144
  115TIP3   OH2  350   5.635   0.346   4.474
  115TIP3    H1  351   5.726   0.375   4.484
  115TIP3    H2  352   5.590   0.381   4.551
  116TIP3   OH2  353   3.576   2.900   5.049
  116TIP3    H1  354   3.638   2.965   5.016
  116TIP3    H2  355   3.620   2.860   5.124
  117TIP3   OH2  356   3.245   4.300   3.336
  117TIP3    H1  357   3.274   4.326   3.249
  117TIP3    H2  358   3.153   4.327   3.339
  118TIP3   OH2  359   3.808   5.044   3.443
  118TIP3    H1  360   3.890   5.010   3.407
  118TIP3    H2  361   3.824   5.137   3.457
  119TIP3   OH2  362   5.552   5.925   1.634
  119TIP3    H1  363   5.580   5.919   1.543
  119TIP3    H2  364   5.633   5.914   1.684
  120TIP3   OH2  365   0.111   3.094   0.098
  120TIP3    H1  366   0.040   3.158   0.094
  120TIP3    H2  367   0.180   3.131   0.042
  121TIP3   OH2  368   6.176   0.101   4.069
  121TIP3    H1  369   6.249   0.074   4.014
  121TIP3    H2  370   6.196   0.191   4.093
  122TIP3   OH2  371   4.510   5.263   3.560
  122TIP3    H1  372   4.485   5.223   3.477
  122TIP3    H2  373   4.480   5.354   3.553
  123TIP3   OH2  374   5.686   0.028   0.094
  123TIP3    H1  375   5.720   0.098   0.039
  123TIP3    H2  376   5.642  -0.031   0.034
  124TIP3   OH2  377   0.663   4.600   0.068
  124TIP3    H1  378   0.629   4.670   0.124
  124TIP3    H2  379   0.593   4.535   0.064
  125TIP3   OH2  380   2.564   4.810   1.344
  125TIP3    H1  381   2.492   4.831   1.285
  125TIP3    H2  382   2.566   4.882   1.407
  126TIP3   OH2  383   1.915   4.790   1.397
  126TIP3    H1  384   2.000   4.774   1.439
  126TIP3    H2  385   1.851   4.750   1.455
  127TIP3   OH2  386   1.413   4.068   3.286
  127TIP3    H1  387   1.358   4.113   3.221
  127TIP3    H2  388   1.450   4.138   3.339
  128TIP3   OH2  389   5.856   4.379   0.900
  128TIP3    H1  390   5.826   4.458   0.855
  128TIP3    H2  391   5.821   4.388   0.989
  129TIP3   OH2  392   3.754   1.468   4.766
  129TIP3    H1  393   3.665   1.450   4.794
  129TIP3    H2  394   3.765   1.417   4.685
  130TIP3   OH2  395   2.894   0.175   3.872
  130TIP3    H1  396   2.861   0.263   3.888
  130TIP3    H2  397   2.933   0.179   3.785
  131TIP3   OH2  398   1.277   5.529   1.062
  131TIP3    H1  399   1.273   5.433   1.056
  131TIP3    H2  400   1.230   5.550   1.142
  132TIP3   OH2  401   2.641   1.325   2.357
  132TIP3    H1  402   2.665   1.412   2.390
  132TIP3    H2  403   2.677   1.323   2.268
  133TIP3   OH2  404   4.588   1.590   3.839
  133TIP3    H1  405   4.535   1.521   3.880
  133TIP3    H2  406   4.537   1.670   3.852
  134TIP3   OH2  407   5.750   1.849   0.805
  134TIP3    H1  408   5.751   1.944   0.810
  134TIP3    H2  409   5.675   1.828   0.750
  135TIP3   OH2  410   1.712   2.005   2.576
  135TIP3    H1  411   1.648   2.052   2.630
  135TIP3    H2  412   1.797   2.028   2.613
  136TIP3   OH2  413   6.302   1.682   4.662
  136TIP3    H1  414   6.388   1.666   4.702
  136TIP3    H2  415   6.240   1.639   4.721
  137TIP3   OH2  416   5.834   4.714   3.106
  137TIP3    H1  417   5.766   4.721   3.172
  137TIP3    H2  418   5.811   4.636   3.055
  138TIP3   OH2  419   3.263   2.997   4.362
  138TIP3    H1  420   3.312   3.036   4.434
  138TIP3    H2  421   3.320   2.927   4.330
  139TIP3   OH2  422   2.224   5.284   3.511
  139TIP3    H1  423   2.300   5.320   3.557
  139TIP3    H2  424   2.225   5.191   3.531
  140TIP3   OH2  425   2.041   4.287   4.490
  140TIP3    H1  426   1.953   4.310   4.460
  140TIP3    H2  427   2.062   4.207   4.440
  141TIP3   OH2  428   5.534   0.801   3.592
  141TIP3    H1  429   5.579   0.717   3.595
  141TIP3    H2  430   5.476   0.800   3.669
  142TIP3   OH2  431   3.753   2.696   3.127
  142TIP3    H1  432   3.738   2.607   3.158
  142TIP3    H2  433   3.665   2.729   3.107
  143TIP3   OH2  434  -0.015   1.726   2.179
  143TIP3    H1  435  -0.038   1.670   2.254
  143TIP3    H2  436   0.076   1.751   2.195
  144TIP3   OH2  437   4.504   4.502   4.327
  144TIP3    H1  438   4.569   4.543   4.270
  144TIP3    H2  439   4.421   4.541   4.302
  145TIP3   OH2  440   5.741   4.787   3.359
  145TIP3    H1  441   5.645   4.784   3.353
  145TIP3    H2  442   5.760   4.764   3.450
  146TIP3   OH2  443   2.883   0.742   1.593
  146TIP3    H1  444   2.967   0.762   1.634
  146TIP3    H2  445   2.904   0.684   1.520
  147TIP3   OH2  446   1.685   3.994   1.090
  147TIP3    H1  447   1.701   3.902   1.068
  147TIP3    H2  448   1.744   4.012   1.162
  148TIP3   OH2  449   5.208   2.070   2.623
  148TIP3    H1  450   5.217   1.982   2.659
  148TIP3    H2  451   5.278   2.120   2.664
  149TIP3   OH2  452   0.576   0.689   4.627
  149TIP3    H1  453   0.542   0.616   4.678
  149TIP3    H2  454   0.666   0.662   4.604
  150TIP3   OH2  455   4.082   5.594   4.897
  150TIP3    H1  456   4.148   5.546   4.947
  150TIP3    H2  457   4.130   5.664   4.853
  151TIP3   OH2  458   5.037   1.236   1.961
  151TIP3    H1  459   5.036   1.244   1.866
  151TIP3    H2  460   4.945   1.247   1.987
  152TIP3   OH2  461   1.600   1.117   0.381
  152TIP3    H1  462   1.625   1.048   0.320
  152TIP3    H2  463   1.683   1.152   0.413
  153TIP3   OH2  464   0.726   3.283   4.459
  153TIP3    H1  465   0.808   3.328   4.439
  153TIP3    H2  466   0.677   3.285   4.376
  154TIP3   OH2  467   1.721   1.814   5.141
  154TIP3    H1  468   1.686   1.731   5.172
  154TIP3    H2  469   1.809   1.819   5.179
  155TIP3   OH2  470   3.102   3.067   0.978
  155TIP3    H1  471   3.174   3.051   0.916
  155TIP3    H2  472   3.146   3.090   1.059
  156TIP3   OH2  473   4.443   0.808   3.756
  156TIP3    H1  474   4.513   0.743   3.752
  156TIP3    H2  475   4.488   0.892   3.745
  157TIP3   OH2  476   0.120   3.694   4.811
  157TIP3    H1  477   0.099   3.647   4.730
  157TIP3    H2  478   0.216   3.691   4.815
  158TIP3   OH2  479   3.707   1.870   3.344
  158TIP3    H1  480   3.787   1.904   3.384
  158TIP3    H2  481   3.693   1.785   3.386
  159TIP3   OH2  482   4.708   0.080   0.196
  159TIP3    H1  483   4.754   0.160   0.173
  159TIP3    H2  484   4.777   0.019   0.222
  160TIP3   OH2  485   4.900   3.198   0.425
  160TIP3    H1  486   4.983   3.193   0.379
  160TIP3    H2  487   4.908   3.135   0.497
  161TIP3   OH2  488   0.165   0.345   1.196
  161TIP3    H1  489   0.179   0.395   1.276
  161TIP3    H2  490   0.168   0.410   1.126
  162TIP3   OH2  491   1.905   0.655   1.019
  162TIP3    H1  492   1.840   0.618   0.959
  162TIP3    H2  493   1.858   0.723   1.066
  163TIP3   OH2  494   3.256   0.827   2.998
  163TIP3    H1  495   3.272   0.920   3.016
  163TIP3    H2  496   3.178   0.827   2.942
  164TIP3   OH2  497   5.838   2.049   0.539
  164TIP3    H1  498   5.871   2.039   0.629
  164TIP3    H2  499   5.763   1.990   0.534
  165TIP3   OH2  500   3.610   1.907   2.160
  165TIP3    H1  501   3.540   1.862   2.114
  165TIP3    H2  502   3.680   1.917   2.095
  166TIP3   OH2  503   2.840   5.827   1.472
  166TIP3    H1  504   2.902   5.850   1.541
  166TIP3    H2  505   2.880   5.862   1.392
  167TIP3   OH2  506   5.614   1.622   2.526
  167TIP3    H1  507   5.553   1.672   2.472
  167TIP3    H2  508   5.599   1.653   2.615
  168TIP3   OH2  509   1.106   0.879   0.808
  168TIP3    H1  510   1.114   0.957   0.863
  168TIP3    H2  511   1.025   0.894   0.758
  169TIP3   OH2  512   6.000  -0.038   4.627
  169TIP3    H1  513   6.037   0.026   4.568
  169TIP3    H2  514   5.906  -0.020   4.627
  170TIP3   OH2  515   5.660   1.850   2.192
  170TIP3    H1  516   5.615   1.766   2.188
  170TIP3    H2  517   5.697   1.853   2.281
  171TIP3   OH2  518   5.127   3.508   1.478
  171TIP3    H1  519   5.116   3.559   1.558
  171TIP3    H2  520   5.051   3.451   1.475
  172TIP3   OH2  521   3.293   0.192   0.042
  172TIP3    H1  522   3.375   0.174  -0.003
  172TIP3    H2  523   3.247   0.253  -0.017
  173TIP3   OH2  524   1.819   3.235   2.816
  173TIP3    H1  525   1.764   3.298   2.770
  173TIP3    H2  526   1.853   3.283   2.892
  174TIP3   OH2  527   6.114   0.952   4.822
  174TIP3    H1  528   6.021   0.974   4.814
  174TIP3    H2  529   6.159   1.035   4.810
  175TIP3   OH2  530   0.313   4.839   1.440
  175TIP3    H1  531   0.314   4.743   1.446
  175TIP3    H2  532   0.263   4.858   1.361
  176TIP3   OH2  533   1.259   0.458   3.235
  176TIP3    H1  534   1.189   0.523   3.239
  176TIP3    H2  535   1.301   0.473   3.150
  177TIP3   OH2  536   3.372   5.759   3.319
  177TIP3    H1  537   3.317   5.774   3.396
  177TIP3    H2  538   3.310   5.751   3.247
  178TIP3   OH2  539   2.909   1.342   3.463
  178TIP3    H1  540   2.956   1.379   3.538
  178TIP3    H2  541   2.965   1.360   3.388
  179TIP3   OH2  542   3.520   0.062   0.719
  179TIP3    H1  543   3.475   0.016   0.648
  179TIP3    H2  544   3.493   0.017   0.799
  180TIP3   OH2  545   0.684   3.820   0.891
  180TIP3    H1  546   0.771   3.784   0.871
  180TIP3    H2  547   0.624   3.746   0.880
  181TIP3   OH2  548   6.028   3.515   4.931
  181TIP3    H1  549   5.973   3.457   4.878
  181TIP3    H2  550   5.975   3.594   4.942
  182TIP3   OH2  551   5.156   0.781   1.889
  182TIP3    H1  552   5.121   0.696   1.862
  182TIP3    H2  553   5.232   0.759   1.943
  183TIP3   OH2  554   4.527   2.433   0.128
  183TIP3    H1  555   4.445   2.400   0.091
  183TIP3    H2  556   4.500   2.500   0.190
  184TIP3   OH2  557   1.887   2.529   0.383
  184TIP3    H1  558   1.940   2.455   0.412
  184TIP3    H2  559   1.806   2.489   0.350
  185TIP3   OH2  560   0.625   2.764   2.113
  185TIP3    H1  561   0.651   2.769   2.205
  185TIP3    H2  562   0.676   2.831   2.069
  186TIP3   OH2  563   1.963   4.228   3.845
  186TIP3    H1  564   1.947   4.188   3.931
  186TIP3    H2  565   1.964   4.154   3.784
  187TIP3   OH2  566   5.093   0.037   4.169
  187TIP3    H1  567   5.045   0.064   4.247
  187TIP3    H2  568   5.133  -0.046   4.192
  188TIP3   OH2  569   0.907   2.357   1.751
  188TIP3    H1  570   0.831   2.325   1.703
  188TIP3    H2  571   0.963   2.279   1.762
  189TIP3   OH2  572   1.715   5.126   0.719
  189TIP3    H1  573   1.774   5.182   0.770
  189TIP3    H2  574   1.726   5.156   0.629
  190TIP3   OH2  575   2.088   1.940   1.839
  190TIP3    H1  576   2.065   2.028   1.809
  190TIP3    H2  577   2.181   1.946   1.862
  191TIP3   OH2  578   4.886   1.041   3.312
  191TIP3    H1  579   4.913   0.997   3.392
  191TIP3    H2  580   4.811   0.990   3.280
  192TIP3   OH2  581   2.579   3.934   1.144
  192TIP3    H1  582   2.540   3.847   1.147
  192TIP3    H2  583   2.513   3.991   1.182
  193TIP3   OH2  584   4.510   2.327   2.263
  193TIP3    H1  585   4.573   2.359   2.199
  193TIP3    H2  586   4.542   2.240   2.287
  194TIP3   OH2  587   5.308   1.574   0.260
  194TIP3    H1  588   5.271   1.658   0.232
  194TIP3    H2  589   5.313   1.522   0.180
  195TIP3   OH2  590   4.568   1.064   0.953
  195TIP3    H1  591   4.475   1.080   0.968
  195TIP3    H2  592   4.594   1.132   0.891
  196TIP3   OH2  593   3.939   0.380   0.088
  196TIP3    H1  594   3.894   0.444   0.143
  196TIP3    H2  595   4.014   0.352   0.141
  197TIP3   OH2  596   4.683   1.205   4.279
  197TIP3    H1  597   4.753   1.217   4.343
  197TIP3    H2  598   4.723   1.154   4.208
  198TIP3   OH2  599   1.199   0.373   2.778
  198TIP3    H1  600   1.149   0.453   2.798
  198TIP3    H2  601   1.268   0.371   2.845
  199TIP3   OH2  602   3.427   2.561   2.626
  199TIP3    H1  603   3.394   2.648   2.602
  199TIP3    H2  604   3.482   2.578   2.703
  200TIP3   OH2  605   4.713   0.484   3.049
  200TIP3    H1  606   4.797   0.449   3.077
  200TIP3    H2  607   4.650   0.452   3.114
  201TIP3   OH2  608   5.482   2.184   3.521
  201TIP3    H1  609   5.576   2.175   3.538
  201TIP3    H2  610   5.446   2.213   3.604
  202TIP3   OH2  611   3.513   4.511   2.541
  202TIP3    H1  612   3.465   4.428   2.543
  202TIP3    H2  613   3.455   4.573   2.587
  203TIP3   OH2  614   2.973   2.218   3.359
  203TIP3    H1  615   3.060   2.241   3.392
  203TIP3    H2  616   2.990   2.161   3.284
  204TIP3   OH2  617   4.928   3.569   0.738
  204TIP3    H1  618   5.016   3.604   0.731
  204TIP3    H2  619   4.871   3.646   0.734
  205TIP3   OH2  620   3.205   1.443   4.535
  205TIP3    H1  621   3.290   1.445   4.578
  205TIP3    H2  622   3.197   1.354   4.500
  206TIP3   OH2  623   6.170   4.075   1.185
  206TIP3    H1  624   6.261   4.105   1.181
  206TIP3    H2  625   6.132   4.101   1.101
  207TIP3   OH2  626   4.696   3.655   3.747
  207TIP3    H1  627   4.715   3.727   3.686
  207TIP3    H2  628   4.618   3.684   3.795
  208TIP3   OH2  629   2.887   0.851   3.195
  208TIP3    H1  630   2.799   0.843   3.158
  208TIP3    H2  631   2.899   0.945   3.208
  209TIP3   OH2  632   0.636   5.324   0.520
  209TIP3    H1  633   0.642   5.304   0.427
  209TIP3    H2  634   0.704   5.391   0.535
  210TIP3   OH2  635   3.945   5.943   3.606
  210TIP3    H1  636   3.979   5.926   3.518
  210TIP3    H2  637   3.996   6.018   3.637
  211TIP3   OH2  638   0.885   3.692   2.635
  211TIP3    H1  639   0.876   3.637   2.557
  211TIP3    H2  640   0.795   3.715   2.659
  212TIP3   OH2  641   4.177   2.372   0.080
  212TIP3    H1  642   4.150   2.417   0.159
  212TIP3    H2  643   4.164   2.436   0.010
  213TIP3   OH2  644   3.027   4.407   0.124
  213TIP3    H1  645   3.105   4.369   0.084
  213TIP3    H2  646   3.058   4.441   0.208
  214TIP3   OH2  647   1.767   3.730   1.117
  214TIP3    H1  648   1.711   3.700   1.188
  214TIP3    H2  649   1.856   3.726   1.152
  215TIP3   OH2  650   3.864   3.486   1.057
  215TIP3    H1  651   3.824   3.441   0.983
  215TIP3    H2  652   3.791   3.501   1.118
  216TIP3   OH2  653   0.094   1.081   5.053
  216TIP3    H1  654   0.116   0.994   5.086
  216TIP3    H2  655   0.033   1.117   5.117
  217TIP3   OH2  656   6.201   3.695   4.508
  217TIP3    H1  657   6.158   3.712   4.592
  217TIP3    H2  658   6.190   3.776   4.459
  218TIP3   OH2  659   5.124   0.873   3.241
  218TIP3    H1  660   5.082   0.788   3.253
  218TIP3    H2  661   5.054   0.937   3.258
  219TIP3   OH2  662   1.418   2.820   5.050
  219TIP3    H1  663   1.494   2.774   5.087
  219TIP3    H2  664   1.343   2.781   5.095
  220TIP3   OH2  665   3.821   2.004   1.448
  220TIP3    H1  666   3.810   1.981   1.540
  220TIP3    H2  667   3.896   2.064   1.447
  221TIP3   OH2  668   4.855   5.659   2.179
  221TIP3    H1  669   4.800   5.719   2.130
  221TIP3    H2  670   4.930   5.712   2.208
  222TIP3   OH2  671   2.187   3.713   1.935
  222TIP3    H1  672   2.107   3.671   1.906
  222TIP3    H2  673   2.183   3.709   2.031
  223TIP3   OH2  674   3.177   5.303   0.955
  223TIP3    H1  675   3.142   5.300   0.866
  223TIP3    H2  676   3.198   5.395   0.970
  224TIP3   OH2  677   2.114   1.325   2.867
  224TIP3    H1  678   2.187   1.376   2.900
  224TIP3    H2  679   2.093   1.363   2.782
  225TIP3   OH2  680   6.133   0.476   3.661
  225TIP3    H1  681   6.100   0.514   3.742
  225TIP3    H2  682   6.056   0.438   3.619
  226TIP3   OH2  683   2.244   0.315   5.217
  226TIP3    H1  684   2.326   0.266   5.217
  226TIP3    H2  685   2.255   0.380   5.147
  227TIP3   OH2  686   4.749   5.042   2.448
  227TIP3    H1  687   4.693   4.984   2.499
  227TIP3    H2  688   4.783   4.987   2.377
  228TIP3   OH2  689   3.103   3.842   4.440
  228TIP3    H1  690   3.172   3.785   4.475
  228TIP3    H2  691   3.032   3.782   4.416
  229TIP3   OH2  692   1.756   3.417   1.329
  229TIP3    H1  693   1.784   3.396   1.240
  229TIP3    H2  694   1.668   3.455   1.317
  230TIP3   OH2  695   5.575   1.483   3.960
  230TIP3    H1  696   5.563   1.508   4.052
  230TIP3    H2  697   5.650   1.534   3.931
  231TIP3   OH2  698   5.011   2.833   2.041
  231TIP3    H1  699   5.075   2.896   2.007
  231TIP3    H2  700   4.947   2.887   2.086
  232TIP3   OH2  701   1.559   3.793   3.673
  232TIP3    H1  702   1.498   3.852   3.629
  232TIP3    H2  703   1.633   3.787   3.614
  233TIP3   OH2  704   4.202   3.069   3.160
  233TIP3    H1  705   4.257   3.008   3.112
  233TIP3    H2  706   4.125   3.017   3.185
  234TIP3   OH2  707   4.952   5.710   4.932
  234TIP3    H1  708   4.932   5.803   4.941
  234TIP3    H2  709   4.950   5.694   4.838
  235TIP3   OH2  710   2.248   3.561   2.851
  235TIP3    H1  711   2.172   3.554   2.794
  235TIP3    H2  712   2.285   3.647   2.833
  236TIP3   OH2  713   6.155   5.956   3.383
  236TIP3    H1  714   6.173   6.006   3.303
  236TIP3    H2  715   6.173   5.865   3.360
  237TIP3   OH2  716   0.406   3.889   0.626
  237TIP3    H1  717   0.330   3.946   0.636
  237TIP3    H2  718   0.458   3.904   0.706
  238TIP3   OH2  719   1.512   0.180   1.897
  238TIP3    H1  720   1.499   0.231   1.977
  238TIP3    H2  721   1.430   0.189   1.849
  239TIP3   OH2  722   4.001   5.092   2.628
  239TIP3    H1  723   3.918   5.125   2.663
  239TIP3    H2  724   4.027   5.023   2.689
  240TIP3   OH2  725   0.141   5.179   3.362
  240TIP3    H1  726   0.101   5.095   3.382
  240TIP3    H2  727   0.120   5.234   3.437
  241TIP3   OH2  728   0.957   3.258   3.584
  241TIP3    H1  729   0.864   3.256   3.566
  241TIP3    H2  730   0.963   3.259   3.680
  242TIP3   OH2  731   3.000   3.745   1.498
  242TIP3    H1  732   3.030   3.765   1.409
  242TIP3    H2  733   2.906   3.764   1.497
  243TIP3   OH2  734   4.405   4.376   3.195
  243TIP3    H1  735   4.358   4.407   3.117
  243TIP3    H2  736   4.364   4.423   3.267
  244TIP3   OH2  737   3.495   0.477   2.516
  244TIP3    H1  738   3.469   0.550   2.573
  244TIP3    H2  739   3.450   0.494   2.433
  245TIP3   OH2  740   2.682   2.628   4.295
  245TIP3    H1  741   2.647   2.555   4.347
  245TIP3    H2  742   2.759   2.658   4.344
  246TIP3   OH2  743   2.579   4.485   4.058
  246TIP3    H1  744   2.660   4.502   4.106
  246TIP3    H2  745   2.604   4.490   3.966
  247TIP3   OH2  746   2.297   3.176   2.522
  247TIP3    H1  747   2.286   3.186   2.617
  247TIP3    H2  748   2.368   3.236   2.500
  248TIP3   OH2  749   2.146   4.320   3.532
  248TIP3    H1  750   2.227   4.361   3.502
  248TIP3    H2  751   2.122   4.368   3.610
  249TIP3   OH2  752   0.750   2.597   1.951
  249TIP3    H1  753   0.705   2.656   2.012
  249TIP3    H2  754   0.722   2.627   1.864
  250TIP3   OH2  755   0.951   4.541   3.075
  250TIP3    H1  756   0.928   4.466   3.020
  250TIP3    H2  757   0.868   4.584   3.092
  251TIP3   OH2  758   1.991   1.679   1.908
  251TIP3    H1  759   2.018   1.770   1.911
  251TIP3    H2  760   2.072   1.629   1.919
  252TIP3   OH2  761   3.896   2.982   2.220
  252TIP3    H1  762   3.934   2.900   2.188
  252TIP3    H2  763   3.841   2.956   2.294
  253TIP3   OH2  764   1.965   5.608   1.074
  253TIP3    H1  765   1.904   5.648   1.011
  253TIP3    H2  766   1.909   5.569   1.141
  254TIP3   OH2  767   2.011   5.866   4.150
  254TIP3    H1  768   1.935   5.907   4.109
  254TIP3    H2  769   2.069   5.938   4.173
  255TIP3   OH2  770   1.539   2.158   4.241
  255TIP3    H1  771   1.576   2.132   4.156
  255TIP3    H2  772   1.615   2.159   4.300
  256TIP3   OH2  773   5.606   5.884   1.383
  256TIP3    H1  774   5.542   5.888   1.312
  256TIP3    H2  775   5.670   5.819   1.354
  257TIP3   OH2  776   6.284   3.295   0.419
  257TIP3    H1  777   6.216   3.341   0.369
  257TIP3    H2  778   6.250   3.206   0.429
  258TIP3   OH2  779   4.381   2.487   4.326
  258TIP3    H1  780   4.408   2.495   4.417
  258TIP3    H2  781   4.376   2.577   4.294
  259TIP3   OH2  782   1.428   4.314   3.417
  259TIP3    H1  783   1.424   4.385   3.353
  259TIP3    H2  784   1.471   4.353   3.493
  260TIP3   OH2  785   1.462   5.017   2.394
  260TIP3    H1  786   1.500   5.083   2.336
  260TIP3    H2  787   1.382   5.058   2.428
  261TIP3   OH2  788   2.011   4.372   2.715
  261TIP3    H1  789   1.966   4.405   2.637
  261TIP3    H2  790   2.060   4.296   2.684
  262TIP3   OH2  791   0.204   3.926   2.861
  262TIP3    H1  792   0.184   3.955   2.949
  262TIP3    H2  793   0.118   3.905   2.822
  263TIP3   OH2  794   3.404   1.865   1.988
  263TIP3    H1  795   3.335   1.808   1.955
  263TIP3    H2  796   3.359   1.943   2.021
  264TIP3   OH2  797  -0.022   3.850   4.036
  264TIP3    H1  798   0.054   3.891   4.077
  264TIP3    H2  799  -0.010   3.866   3.942
  265TIP3   OH2  800   4.007  -0.038   1.402
  265TIP3    H1  801   4.065  -0.031   1.326
  265TIP3    H2  802   3.934   0.020   1.382
  266TIP3   OH2  803   1.921   0.532   4.518
  266TIP3    H1  804   1.908   0.620   4.554
  266TIP3    H2  805   1.865   0.475   4.571
  267TIP3   OH2  806   0.554   0.226   0.488
  267TIP3    H1  807   0.556   0.212   0.582
  267TIP3    H2  808   0.468   0.197   0.460
  268TIP3   OH2  809   4.052   2.173   3.728
  268TIP3    H1  810   4.109   2.243   3.760
  268TIP3    H2  811   3.999   2.215   3.660
  269TIP3   OH2  812   2.158   4.695   2.967
  269TIP3    H1  813   2.133   4.604   2.957
  269TIP3    H2  814   2.234   4.706   2.909
  270TIP3   OH2  815   5.788   0.103   1.925
  270TIP3    H1  816   5.881   0.115   1.944
  270TIP3    H2  817   5.775   0.008   1.924
  271TIP3   OH2  818   5.372   0.083   4.039
  271TIP3    H1  819   5.310   0.036   4.095
  271TIP3    H2  820   5.379   0.170   4.079
  272TIP3   OH2  821   4.295   3.749   1.343
  272TIP3    H1  822   4.250   3.689   1.284
  272TIP3    H2  823   4.286   3.835   1.302
  273TIP3   OH2  824   3.335   2.875   2.789
  273TIP3    H1  825   3.355   2.855   2.698
  273TIP3    H2  826   3.323   2.970   2.792
  274TIP3   OH2  827   0.642   5.612   0.581
  274TIP3    H1  828   0.697   5.687   0.557
  274TIP3    H2  829   0.635   5.617   0.676
  275TIP3   OH2  830   5.419   4.790   2.310
  275TIP3    H1  831   5.507   4.815   2.283
  275TIP3    H2  832   5.424   4.786   2.406
  276TIP3   OH2  833   4.046   5.398   2.505
  276TIP3    H1  834   4.108   5.342   2.459
  276TIP3    H2  835   3.997   5.442   2.435
  277TIP3   OH2  836   4.989   4.899   0.403
  277TIP3    H1  837   5.065   4.954   0.423
  277TIP3    H2  838   5.000   4.877   0.310
  278TIP3   OH2  839   5.279   0.708   5.145
  278TIP3    H1  840   5.302   0.704   5.238
  278TIP3    H2  841   5.210   0.643   5.133
  279TIP3   OH2  842   4.537   3.676   0.141
  279TIP3    H1  843   4.565   3.643   0.055
  279TIP3    H2  844   4.595   3.750   0.159
  280TIP3   OH2  845   1.021   3.926   4.909
  280TIP3    H1  846   1.025   3.901   5.001
  280TIP3    H2  847   1.097   3.982   4.895
  281TIP3   OH2  848   2.320   4.498   3.990
  281TIP3    H1  849   2.288   4.543   4.069
  281TIP3    H2  850   2.413   4.485   4.007
  282TIP3   OH2  851   0.817   1.083   5.093
  282TIP3    H1  852   0.847   1.075   5.184
  282TIP3    H2  853   0.759   1.159   5.093
  283TIP3   OH2  854   4.078   5.207   1.460
  283TIP3    H1  855   4.128   5.286   1.482
  283TIP3    H2  856   4.136   5.135   1.483
  284TIP3   OH2  857   6.308   0.795   3.052
  284TIP3    H1  858   6.365   0.867   3.026
  284TIP3    H2  859   6.286   0.815   3.143
  285TIP3   OH2  860   0.969   2.108   1.491
  285TIP3    H1  861   0.904   2.177   1.483
  285TIP3    H2  862   1.050   2.148   1.461
  286TIP3   OH2  863   1.817   5.473   0.180
  286TIP3    H1  864   1.804   5.519   0.097
  286TIP3    H2  865   1.891   5.414   0.162
  287TIP3   OH2  866   0.308   5.788   0.346
  287TIP3    H1  867   0.360   5.863   0.316
  287TIP3    H2  868   0.366   5.713   0.336
  288TIP3   OH2  869   3.337   3.314   4.144
  288TIP3    H1  870   3.372   3.275   4.224
  288TIP3    H2  871   3.415   3.343   4.095
  289TIP3   OH2  872   5.751   0.861   2.420
  289TIP3    H1  873   5.732   0.787   2.478
  289TIP3    H2  874   5.841   0.886   2.443
  290TIP3   OH2  875   5.605   3.945   3.169
  290TIP3    H1  876   5.559   3.865   3.192
  290TIP3    H2  877   5.585   3.959   3.076
  291TIP3   OH2  878   1.090   3.249   1.320
  291TIP3    H1  879   1.053   3.191   1.253
  291TIP3    H2  880   1.102   3.332   1.275
  292TIP3   OH2  881   1.644   0.814   3.252
  292TIP3    H1  882   1.723   0.844   3.297
  292TIP3    H2  883   1.656   0.842   3.162
  293TIP3   OH2  884   2.168   0.156   2.196
  293TIP3    H1  885   2.240   0.141   2.135
  293TIP3    H2  886   2.138   0.245   2.176
  294TIP3   OH2  887   4.690   2.934   2.605
  294TIP3    H1  888   4.728   2.848   2.589
  294TIP3    H2  889   4.651   2.928   2.692
  295TIP3   OH2  890   3.714   0.694   3.772
  295TIP3    H1  891   3.803   0.696   3.739
  295TIP3    H2  892   3.659   0.677   3.695
  296TIP3   OH2  893   5.786   2.345   4.082
  296TIP3    H1  894   5.870   2.370   4.121
  296TIP3    H2  895   5.808   2.308   3.997
  297TIP3   OH2  896   5.048   4.887   0.124
  297TIP3    H1  897   5.136   4.924   0.123
  297TIP3    H2  898   5.051   4.815   0.061
  298TIP3   OH2  899   3.958   4.550   0.906
  298TIP3    H1  900   3.864   4.535   0.893
  298TIP3    H2  901   3.963   4.629   0.960
  299TIP3   OH2  902   4.511   2.641   2.638
  299TIP3    H1  903   4.569   2.600   2.702
  299TIP3    H2  904   4.441   2.680   2.691
  300TIP3   OH2  905   4.617   2.097   0.824
  300TIP3    H1  906   4.703   2.086   0.864
  300TIP3    H2  907   4.563   2.029   0.864
  301TIP3   OH2  908   5.911   1.895   3.875
  301TIP3    H1  909   5.908   1.849   3.958
  301TIP3    H2  910   5.981   1.960   3.885
  302TIP3   OH2  911   3.042   5.546   3.014
  302TIP3    H1  912   3.015   5.458   2.990
  302TIP3    H2  913   2.967   5.582   3.061
  303TIP3   OH2  914   2.760   5.916   1.809
  303TIP3    H1  915   2.794   5.997   1.846
  303TIP3    H2  916   2.828   5.887   1.748
  304TIP3   OH2  917   0.268   2.648   1.160
  304TIP3    H1  918   0.334   2.581   1.147
  304TIP3    H2  919   0.237   2.634   1.250
  305TIP3   OH2  920   3.659   5.469   2.675
  305TIP3    H1  921   3.606   5.509   2.607
  305TIP3    H2  922   3.743   5.516   2.671
  306TIP3   OH2  923   4.503   4.193   2.477
  306TIP3    H1  924   4.484   4.127   2.544
  306TIP3    H2  925   4.533   4.270   2.527
  307TIP3   OH2  926   4.077   5.243   5.087
  307TIP3    H1  927   4.092   5.328   5.129
  307TIP3    H2  928   4.136   5.243   5.011
  308TIP3   OH2  929   4.073   0.998   3.820
  308TIP3    H1  930   4.115   0.914   3.838
  308TIP3    H2  931   4.107   1.024   3.734
  309TIP3   OH2  932   3.972   3.400   3.634
  309TIP3    H1  933   4.048   3.449   3.665
  309TIP3    H2  934   3.936   3.453   3.563
  310TIP3   OH2  935   2.134   0.987   0.016
  310TIP3    H1  936   2.057   1.039  -0.008
  310TIP3    H2  937   2.174   1.036   0.088
  311TIP3   OH2  938   3.470   4.825   4.640
  311TIP3    H1  939   3.475   4.799   4.548
  311TIP3    H2  940   3.479   4.921   4.639
  312TIP3   OH2  941   0.660   5.362   0.974
  312TIP3    H1  942   0.738   5.415   0.955
  312TIP3    H2  943   0.658   5.354   1.069
  313TIP3   OH2  944   6.235   4.291   0.837
  313TIP3    H1  945   6.265   4.312   0.749
  313TIP3    H2  946   6.140   4.293   0.831
  314TIP3   OH2  947   3.212   3.534   0.752
  314TIP3    H1  948   3.177   3.605   0.805
  314TIP3    H2  949   3.138   3.504   0.699
  315TIP3   OH2  950   1.889   5.190   1.601
  315TIP3    H1  951   1.847   5.147   1.527
  315TIP3    H2  952   1.847   5.151   1.678
  316TIP3   OH2  953   1.480   2.867   0.324
  316TIP3    H1  954   1.522   2.908   0.248
  316TIP3    H2  955   1.425   2.935   0.361
  317TIP3   OH2  956   2.088   1.971   3.226
  317TIP3    H1  957   2.006   1.947   3.268
  317TIP3    H2  958   2.153   1.914   3.267
  318TIP3   OH2  959   3.700   1.574   0.214
  318TIP3    H1  960   3.713   1.668   0.217
  318TIP3    H2  961   3.694   1.554   0.120
  319TIP3   OH2  962   2.808   1.913   0.924
  319TIP3    H1  963   2.835   1.866   1.003
  319TIP3    H2  964   2.797   2.004   0.952
  320TIP3   OH2  965   3.961   4.661   4.596
  320TIP3    H1  966   3.882   4.648   4.542
  320TIP3    H2  967   3.929   4.657   4.686
  321TIP3   OH2  968   5.533   3.166   0.666
  321TIP3    H1  969   5.532   3.261   0.657
  321TIP3    H2  970   5.463   3.147   0.729
  322TIP3   OH2  971   1.245   2.801   0.663
  322TIP3    H1  972   1.313   2.794   0.597
  322TIP3    H2  973   1.288   2.775   0.745
  323TIP3   OH2  974   4.774   0.916   2.042
  323TIP3    H1  975   4.701   0.916   2.104
  323TIP3    H2  976   4.852   0.925   2.097
  324TIP3   OH2  977   0.972   1.480   0.161
  324TIP3    H1  978   1.037   1.425   0.205
  324TIP3    H2  979   0.927   1.421   0.100
  325TIP3   OH2  980   5.834   5.956   1.746
  325TIP3    H1  981   5.877   5.902   1.812
  325TIP3    H2  982   5.821   6.040   1.789
  326TIP3   OH2  983   4.250   1.285   0.168
  326TIP3    H1  984   4.169   1.243   0.198
  326TIP3    H2  985   4.313   1.266   0.237
  327TIP3   OH2  986   4.754   2.599   2.269
  327TIP3    H1  987   4.822   2.665   2.255
  327TIP3    H2  988   4.678   2.648   2.300
  328TIP3   OH2  989   5.899   5.644   5.084
  328TIP3    H1  990   5.828   5.707   5.100
  328TIP3    H2  991   5.951   5.647   5.164
  329TIP3   OH2  992   4.140   4.437   0.742
  329TIP3    H1  993   4.126   4.501   0.673
  329TIP3    H2  994   4.065   4.447   0.800
  330TIP3   OH2  995   1.730   2.155   0.590
  330TIP3    H1  996   1.805   2.143   0.532
  330TIP3    H2  997   1.733   2.247   0.614
  331TIP3   OH2  998   2.954   2.460   1.364
  331TIP3    H1  999   2.957   2.543   1.413
  331TIP3    H2 1000   3.012   2.474   1.289
  332TIP3   OH2 1001   2.813   0.055   2.913
  332TIP3    H1 1002   2.810  -0.029   2.957
  332TIP3    H2 1003   2.869   0.040   2.836
  333TIP3   OH2 1004   1.849   0.111   0.032
  333TIP3    H1 1005   1.939   0.139   0.048
  333TIP3    H2 1006   1.829   0.052   0.105
  334TIP3   OH2 1007   1.344   4.426   4.156
  334TIP3    H1 1008   1.295   4.495   4.201
  334TIP3    H2 1009   1.281   4.387   4.096
  335TIP3   OH2 1010   3.366   5.245   1.564
  335TIP3    H1 1011   3.456   5.217   1.584
  335TIP3    H2 1012   3.321   5.240   1.648
  336TIP3   OH2 1013   3.173   4.724   2.387
  336TIP3    H1 1014   3.130   4.803   2.354
  336TIP3    H2 1015   3.220   4.689   2.312
  337TIP3   OH2 1016   3.526   1.478   4.099
  337TIP3    H1 1017   3.546   1.490   4.192
  337TIP3    H2 1018   3.604   1.509   4.053
  338TIP3   OH2 1019   2.805   1.481   4.165
  338TIP3    H1 1020   2.823   1.391   4.137
  338TIP3    H2 1021   2.874   1.533   4.125
  339TIP3   OH2 1022   3.773   5.470   1.125
  339TIP3    H1 1023   3.701   5.448   1.184
  339TIP3    H2 1024   3.734   5.463   1.037
  340TIP3   OH2 1025   4.166   2.455   3.698
  340TIP3    H1 1026   4.151   2.444   3.791
  340TIP3    H2 1027   4.226   2.529   3.691
  341TIP3   OH2 1028   2.590   3.415   2.594
  341TIP3    H1 1029   2.531   3.389   2.523
  341TIP3    H2 1030   2.641   3.488   2.557
  342TIP3   OH2 1031   0.982   2.466   0.995
  342TIP3    H1 1032   0.923   2.529   0.955
  342TIP3    H2 1033   0.926   2.392   1.018
  343TIP3   OH2 1034   1.352   4.278   0.463
  343TIP3    H1 1035   1.304   4.220   0.405
  343TIP3    H2 1036   1.408   4.329   0.404
  344TIP3   OH2 1037   3.765   0.495   2.576
  344TIP3    H1 1038   3.674   0.475   2.552
  344TIP3    H2 1039   3.768   0.591   2.583
  345TIP3   OH2 1040   2.945   4.667   5.000
  345TIP3    H1 1041   2.997   4.715   5.064
  345TIP3    H2 1042   3.004   4.598   4.967
  346TIP3   OH2 1043   0.835   2.030   1.868
  346TIP3    H1 1044   0.880   2.055   1.949
  346TIP3    H2 1045   0.751   2.075   1.873
  347TIP3   OH2 1046   1.198   4.374   3.692
  347TIP3    H1 1047   1.230   4.463   3.680
  347TIP3    H2 1048   1.126   4.366   3.630
  348TIP3   OH2 1049   0.343   1.582   1.467
  348TIP3    H1 1050   0.268   1.574   1.409
  348TIP3    H2 1051   0.331   1.667   1.510
  349TIP3   OH2 1052   3.983   5.832   1.976
  349TIP3    H1 1053   4.067   5.872   1.997
  349TIP3    H2 1054   3.998   5.783   1.895
  350TIP3   OH2 1055   3.392   2.138   1.447
  350TIP3    H1 1056   3.411   2.156   1.355
  350TIP3    H2 1057   3.301   2.164   1.459
  351TIP3   OH2 1058   1.079   4.291   0.929
  351TIP3    H1 1059   1.079   4.195   0.932
  351TIP3    H2 1060   1.010   4.313   0.867
  352TIP3   OH2 1061   6.253   1.231   4.467
  352TIP3    H1 1062   6.262   1.237   4.562
  352TIP3    H2 1063   6.266   1.138   4.447
  353TIP3   OH2 1064   3.251   0.647   0.166
  353TIP3    H1 1065   3.204   0.599   0.234
  353TIP3    H2 1066   3.338   0.661   0.202
  354TIP3   OH2 1067   3.853   1.640   4.433
  354TIP3    H1 1068   3.915   1.602   4.495
  354TIP3    H2 1069   3.823   1.720   4.474
  355TIP3   OH2 1070   2.704   3.270   1.423
  355TIP3    H1 1071   2.713   3.226   1.338
  355TIP3    H2 1072   2.732   3.204   1.487
  356TIP3   OH2 1073   6.202   4.030   5.185
  356TIP3    H1 1074   6.249   3.975   5.123
  356TIP3    H2 1075   6.160   4.097   5.131
  357TIP3   OH2 1076   3.003   0.858   2.883
  357TIP3    H1 1077   2.999   0.829   2.792
  357TIP3    H2 1078   2.945   0.797   2.929
  358TIP3   OH2 1079   6.008   0.406   1.417
  358TIP3    H1 1080   6.071   0.347   1.377
  358TIP3    H2 1081   5.932   0.403   1.360
  359TIP3   OH2 1082   5.071   4.626   1.502
  359TIP3    H1 1083   5.113   4.708   1.527
  359TIP3    H2 1084   5.141   4.574   1.461
  360TIP3   OH2 1085   5.092   1.878   1.645
  360TIP3    H1 1086   5.061   1.788   1.640
  360TIP3    H2 1087   5.021   1.930   1.608
  361TIP3   OH2 1088   4.335   4.752   1.701
  361TIP3    H1 1089   4.265   4.784   1.758
  361TIP3    H2 1090   4.292   4.727   1.620
  362TIP3   OH2 1091   2.513   4.720   2.481
  362TIP3    H1 1092   2.552   4.801   2.448
  362TIP3    H2 1093   2.420   4.727   2.459
  363TIP3   OH2 1094   3.901   4.073   4.571
  363TIP3    H1 1095   3.915   4.088   4.664
  363TIP3    H2 1096   3.856   4.151   4.540
  364TIP3   OH2 1097   5.529   0.741   0.928
  364TIP3    H1 1098   5.509   0.675   0.861
  364TIP3    H2 1099   5.616   0.716   0.960
  365TIP3   OH2 1100   2.197   4.225   0.493
  365TIP3    H1 1101   2.223   4.134   0.502
  365TIP3    H2 1102   2.266   4.275   0.536
  366TIP3   OH2 1103   3.268   3.046   1.458
  366TIP3    H1 1104   3.330   2.972   1.460
  366TIP3    H2 1105   3.227   3.044   1.544
  367TIP3   OH2 1106   3.399   4.932   4.207
  367TIP3    H1 1107   3.395   4.890   4.121
  367TIP3    H2 1108   3.467   4.885   4.255
  368TIP3   OH2 1109   1.888   0.944   2.529
  368TIP3    H1 1110   1.946   0.880   2.570
  368TIP3    H2 1111   1.812   0.949   2.586
  369TIP3   OH2 1112   3.160   2.465   0.075
  369TIP3    H1 1113   3.107   2.533   0.034
  369TIP3    H2 1114   3.240   2.510   0.101
  370TIP3   OH2 1115   3.608   1.282   2.951
  370TIP3    H1 1116   3.690   1.313   2.913
  370TIP3    H2 1117   3.541   1.339   2.913
  371TIP3   OH2 1118   1.574   2.012   1.173
  371TIP3    H1 1119   1.623   2.044   1.097
  371TIP3    H2 1120   1.484   2.040   1.157
  372TIP3   OH2 1121   6.116   3.691   3.684
  372TIP3    H1 1122   6.141   3.610   3.727
  372TIP3    H2 1123   6.181   3.703   3.615
  373TIP3   OH2 1124   1.655   5.441   1.888
  373TIP3    H1 1125   1.570   5.409   1.857
  373TIP3    H2 1126   1.649   5.435   1.984
  374TIP3   OH2 1127   1.948   4.724   4.448
  374TIP3    H1 1128   2.042   4.707   4.453
  374TIP3    H2 1129   1.921   4.732   4.540
  375TIP3   OH2 1130   5.785   4.818   5.063
  375TIP3    H1 1131   5.827   4.795   5.146
  375TIP3    H2 1132   5.709   4.870   5.088
  376TIP3   OH2 1133   5.299   0.758   2.856
  376TIP3    H1 1134   5.336   0.799   2.934
  376TIP3    H2 1135   5.229   0.817   2.829
  377TIP3   OH2 1136   0.608   0.142   0.744
  377TIP3    H1 1137   0.656   0.221   0.770
  377TIP3    H2 1138   0.618   0.082   0.818
  378TIP3   OH2 1139   1.112   1.472   4.365
  378TIP3    H1 1140   1.109   1.509   4.277
  378TIP3    H2 1141   1.189   1.513   4.406
  379TIP3   OH2 1142   3.322   3.312   0.244
  379TIP3    H1 1143   3.304   3.406   0.249
  379TIP3    H2 1144   3.416   3.304   0.262
  380TIP3   OH2 1145   3.603   4.109   4.795
  380TIP3    H1 1146   3.588   4.014   4.792
  380TIP3    H2 1147   3.544   4.144   4.729
  381TIP3   OH2 1148   5.654   5.299   2.449
  381TIP3    H1 1149   5.564   5.273   2.428
  381TIP3    H2 1150   5.693   5.322   2.365
  382TIP3   OH2 1151   2.444   2.502   2.574
  382TIP3    H1 1152   2.504   2.567   2.539
  382TIP3    H2 1153   2.491   2.463   2.648
  383TIP3   OH2 1154   2.189   1.460   1.995
  383TIP3    H1 1155   2.163   1.400   2.065
  383TIP3    H2 1156   2.160   1.417   1.915
  384TIP3   OH2 1157   5.638   1.541   0.672
  384TIP3    H1 1158   5.588   1.547   0.753
  384TIP3    H2 1159   5.572   1.548   0.603
  385TIP3   OH2 1160   5.368   4.389   2.401
  385TIP3    H1 1161   5.286   4.343   2.390
  385TIP3    H2 1162   5.435   4.321   2.397
  386TIP3   OH2 1163   5.570   4.819   0.502
  386TIP3    H1 1164   5.636   4.851   0.564
  386TIP3    H2 1165   5.489   4.814   0.553
  387TIP3   OH2 1166   2.031   5.753   2.529
  387TIP3    H1 1167   2.065   5.665   2.513
  387TIP3    H2 1168   2.108   5.806   2.547
  388TIP3   OH2 1169   6.001   2.436   3.819
  388TIP3    H1 1170   5.946   2.491   3.875
  388TIP3    H2 1171   5.944   2.364   3.792
  389TIP3   OH2 1172   5.793   0.804   2.750
  389TIP3    H1 1173   5.792   0.734   2.815
  389TIP3    H2 1174   5.873   0.853   2.768
  390TIP3   OH2 1175   6.032   0.639   0.792
  390TIP3    H1 1176   6.125   0.659   0.779
  390TIP3    H2 1177   5.993   0.722   0.819
  391TIP3   OH2 1178   2.705   2.431   2.193
  391TIP3    H1 1179   2.707   2.523   2.167
  391TIP3    H2 1180   2.616   2.417   2.227
  392TIP3   OH2 1181   1.427   2.200   0.451
  392TIP3    H1 1182   1.441   2.106   0.451
  392TIP3    H2 1183   1.424   2.225   0.543
  393TIP3   OH2 1184   2.074   3.931   2.924
  393TIP3    H1 1185   2.023   3.883   2.989
  393TIP3    H2 1186   2.108   3.863   2.865
  394TIP3   OH2 1187   2.499   2.723   3.076
  394TIP3    H1 1188   2.554   2.657   3.118
  394TIP3    H2 1189   2.462   2.679   2.999
  395TIP3   OH2 1190   5.193   2.682   1.632
  395TIP3    H1 1191   5.193   2.651   1.722
  395TIP3    H2 1192   5.205   2.603   1.579
  396TIP3   OH2 1193   3.948   4.140   2.774
  396TIP3    H1 1194   3.912   4.114   2.689
  396TIP3    H2 1195   3.910   4.226   2.791
  397TIP3   OH2 1196   3.090   2.273   2.030
  397TIP3    H1 1197   3.012   2.249   1.980
  397TIP3    H2 1198   3.160   2.274   1.965
  398TIP3   OH2 1199   4.695   4.597   2.111
  398TIP3    H1 1200   4.623   4.615   2.051
  398TIP3    H2 1201   4.701   4.676   2.165
  399TIP3   OH2 1202   1.391   3.035   3.231
  399TIP3    H1 1203   1.479   2.999   3.243
  399TIP3    H2 1204   1.333   2.960   3.237
  400TIP3   OH2 1205   4.942   5.754   1.444
  400TIP3    H1 1206   5.025   5.795   1.422
  400TIP3    H2 1207   4.875   5.816   1.415
  401TIP3   OH2 1208   5.687   0.571   3.596
  401TIP3    H1 1209   5.661   0.488   3.635
  401TIP3    H2 1210   5.699   0.551   3.503
  402TIP3   OH2 1211   4.382   1.103   1.224
  402TIP3    H1 1212   4.433   1.174   1.264
  402TIP3    H2 1213   4.335   1.145   1.152
  403TIP3   OH2 1214   3.497   2.306   3.137
  403TIP3    H1 1215   3.518   2.344   3.052
  403TIP3    H2 1216   3.432   2.239   3.117
  404TIP3   OH2 1217   5.538   5.498   0.816
  404TIP3    H1 1218   5.616   5.511   0.869
  404TIP3    H2 1219   5.545   5.407   0.786
  405TIP3   OH2 1220   0.900   4.931   0.593
  405TIP3    H1 1221   0.805   4.926   0.606
  405TIP3    H2 1222   0.911   4.954   0.501
  406TIP3   OH2 1223   4.423   4.222   4.941
  406TIP3    H1 1224   4.395   4.273   5.017
  406TIP3    H2 1225   4.508   4.259   4.917
  407TIP3   OH2 1226   0.328   5.501   4.904
  407TIP3    H1 1227   0.280   5.529   4.826
  407TIP3    H2 1228   0.290   5.415   4.925
  408TIP3   OH2 1229   1.390   0.348   3.722
  408TIP3    H1 1230   1.327   0.275   3.717
  408TIP3    H2 1231   1.336   0.426   3.707
  409TIP3   OH2 1232   1.735   2.310   0.298
  409TIP3    H1 1233   1.725   2.282   0.390
  409TIP3    H2 1234   1.649   2.343   0.273
  410TIP3   OH2 1235   4.749   1.424   3.584
  410TIP3    H1 1236   4.734   1.363   3.511
  410TIP3    H2 1237   4.671   1.479   3.584
  411TIP3   OH2 1238   4.175   2.102   4.285
  411TIP3    H1 1239   4.260   2.144   4.268
  411TIP3    H2 1240   4.112   2.174   4.284
  412TIP3   OH2 1241   1.855   3.579   4.066
  412TIP3    H1 1242   1.930   3.593   4.124
  412TIP3    H2 1243   1.867   3.642   3.995
  413TIP3   OH2 1244   4.283   5.494   5.067
  413TIP3    H1 1245   4.310   5.504   5.158
  413TIP3    H2 1246   4.355   5.533   5.016
  414TIP3   OH2 1247   4.293   5.139   4.328
  414TIP3    H1 1248   4.207   5.152   4.369
  414TIP3    H2 1249   4.273   5.127   4.235
  415TIP3   OH2 1250   4.641   4.057   1.160
  415TIP3    H1 1251   4.630   4.027   1.070
  415TIP3    H2 1252   4.597   4.142   1.163
  416TIP3   OH2 1253   3.197   3.493   4.976
  416TIP3    H1 1254   3.287   3.474   4.950
  416TIP3    H2 1255   3.180   3.433   5.049
  417TIP3   OH2 1256   5.807   2.607   3.867
  417TIP3    H1 1257   5.788   2.644   3.781
  417TIP3    H2 1258   5.744   2.649   3.925
  418TIP3   OH2 1259   3.208   0.574   4.839
  418TIP3    H1 1260   3.238   0.526   4.762
  418TIP3    H2 1261   3.190   0.507   4.905
  419TIP3   OH2 1262   2.629   1.461   4.638
  419TIP3    H1 1263   2.575   1.511   4.578
  419TIP3    H2 1264   2.567   1.413   4.693
  420TIP3   OH2 1265   3.344   4.806   3.961
  420TIP3    H1 1266   3.414   4.831   3.900
  420TIP3    H2 1267   3.323   4.716   3.938
  421TIP3   OH2 1268   5.084   2.678   5.133
  421TIP3    H1 1269   5.072   2.679   5.038
  421TIP3    H2 1270   5.073   2.587   5.158
  422TIP3   OH2 1271   1.040   4.853   4.115
  422TIP3    H1 1272   0.975   4.885   4.053
  422TIP3    H2 1273   1.029   4.909   4.192
  423TIP3   OH2 1274   2.008   3.456   4.323
  423TIP3    H1 1275   1.999   3.362   4.308
  423TIP3    H2 1276   2.089   3.480   4.278
  424TIP3   OH2 1277   2.536   1.039   5.146
  424TIP3    H1 1278   2.518   1.007   5.235
  424TIP3    H2 1279   2.631   1.042   5.140
  425TIP3   OH2 1280   0.932   1.956   3.369
  425TIP3    H1 1281   0.929   1.935   3.276
  425TIP3    H2 1282   0.913   2.049   3.373
  426TIP3   OH2 1283   1.582   1.752   1.937
  426TIP3    H1 1284   1.519   1.770   2.008
  426TIP3    H2 1285   1.583   1.833   1.886
  427TIP3   OH2 1286   0.486   3.587   0.263
  427TIP3    H1 1287   0.415   3.620   0.318
  427TIP3    H2 1288   0.561   3.579   0.322
  428TIP3   OH2 1289   5.146   4.055   3.344
  428TIP3    H1 1290   5.052   4.045   3.334
  428TIP3    H2 1291   5.179   4.064   3.254
  429TIP3   OH2 1292   6.229   1.147   3.524
  429TIP3    H1 1293   6.241   1.155   3.430
  429TIP3    H2 1294   6.314   1.118   3.557
  430TIP3   OH2 1295   4.922   5.244   2.762
  430TIP3    H1 1296   4.955   5.241   2.852
  430TIP3    H2 1297   4.828   5.258   2.770
  431TIP3   OH2 1298   6.266   3.643   2.639
  431TIP3    H1 1299   6.251   3.727   2.684
  431TIP3    H2 1300   6.190   3.634   2.581
  432TIP3   OH2 1301   3.129   3.471   1.511
  432TIP3    H1 1302   3.104   3.563   1.513
  432TIP3    H2 1303   3.197   3.466   1.444
  433TIP3   OH2 1304   4.548   2.236   4.816
  433TIP3    H1 1305   4.510   2.194   4.893
  433TIP3    H2 1306   4.495   2.314   4.803
  434TIP3   OH2 1307   0.633   2.676   4.643
  434TIP3    H1 1308   0.717   2.676   4.689
  434TIP3    H2 1309   0.587   2.752   4.678
  435TIP3   OH2 1310   6.213   2.484   5.058
  435TIP3    H1 1311   6.210   2.460   4.965
  435TIP3    H2 1312   6.127   2.523   5.075
  436TIP3   OH2 1313   0.491   0.599   0.363
  436TIP3    H1 1314   0.565   0.544   0.338
  436TIP3    H2 1315   0.509   0.684   0.322
  437TIP3   OH2 1316   1.058   2.709   4.421
  437TIP3    H1 1317   1.071   2.775   4.489
  437TIP3    H2 1318   1.137   2.713   4.368
  438TIP3   OH2 1319   0.123   2.566   4.547
  438TIP3    H1 1320   0.089   2.624   4.479
  438TIP3    H2 1321   0.122   2.479   4.507
  439TIP3   OH2 1322   4.222   3.334   2.451
  439TIP3    H1 1323   4.235   3.418   2.406
  439TIP3    H2 1324   4.194   3.274   2.381
  440TIP3   OH2 1325   6.069   2.368   0.972
  440TIP3    H1 1326   6.143   2.421   1.000
  440TIP3    H2 1327   6.108   2.293   0.926
  441TIP3   OH2 1328   2.307   0.203   3.909
  441TIP3    H1 1329   2.307   0.165   3.997
  441TIP3    H2 1330   2.378   0.267   3.910
  442TIP3   OH2 1331   2.972   4.109   4.226
  442TIP3    H1 1332   3.042   4.099   4.291
  442TIP3    H2 1333   3.018   4.129   4.144
  443TIP3   OH2 1334   6.201   1.747   2.654
  443TIP3    H1 1335   6.249   1.815   2.608
  443TIP3    H2 1336   6.115   1.786   2.671
  444TIP3   OH2 1337   6.276   0.752   2.433
  444TIP3    H1 1338   6.234   0.758   2.347
  444TIP3    H2 1339   6.329   0.672   2.428
  445TIP3   OH2 1340   5.933   2.347   1.636
  445TIP3    H1 1341   5.982   2.278   1.681
  445TIP3    H2 1342   5.872   2.380   1.701
  446TIP3   OH2 1343   1.912   3.329   4.837
  446TIP3    H1 1344   1.886   3.237   4.830
  446TIP3    H2 1345   2.002   3.331   4.803
  447TIP3   OH2 1346   2.165   4.597   2.591
  447TIP3    H1 1347   2.133   4.638   2.510
  447TIP3    H2 1348   2.198   4.512   2.563
  448TIP3   OH2 1349   5.049   2.603   0.035
  448TIP3    H1 1350   5.064   2.509   0.038
  448TIP3    H2 1351   5.135   2.642   0.048
  449TIP3   OH2 1352   0.175   4.294   0.831
  449TIP3    H1 1353   0.191   4.202   0.852
  449TIP3    H2 1354   0.080   4.305   0.840
  450TIP3   OH2 1355   4.838   1.586   2.920
  450TIP3    H1 1356   4.902   1.657   2.921
  450TIP3    H2 1357   4.867   1.529   2.848
  451TIP3   OH2 1358   3.404   3.057   2.229
  451TIP3    H1 1359   3.457   3.111   2.169
  451TIP3    H2 1360   3.455   2.976   2.240
  452TIP3   OH2 1361   0.913   4.334   0.690
  452TIP3    H1 1362   0.909   4.421   0.651
  452TIP3    H2 1363   0.841   4.333   0.753
  453TIP3   OH2 1364   3.450   1.233   2.006
  453TIP3    H1 1365   3.386   1.167   2.032
  453TIP3    H2 1366   3.453   1.294   2.080
  454TIP3   OH2 1367   1.028   3.079   0.221
  454TIP3    H1 1368   0.934   3.099   0.219
  454TIP3    H2 1369   1.071   3.164   0.211
  455TIP3   OH2 1370   1.705   4.484   1.066
  455TIP3    H1 1371   1.695   4.574   1.036
  455TIP3    H2 1372   1.661   4.432   1.000
  456TIP3   OH2 1373   6.237   4.751   2.190
  456TIP3    H1 1374   6.290   4.713   2.260
  456TIP3    H2 1375   6.210   4.676   2.137
  457TIP3   OH2 1376   4.213   2.835   1.084
  457TIP3    H1 1377   4.236   2.837   0.991
  457TIP3    H2 1378   4.159   2.757   1.094
  458TIP3   OH2 1379   3.512   0.696   4.357
  458TIP3    H1 1380   3.511   0.613   4.405
  458TIP3    H2 1381   3.590   0.691   4.302
  459TIP3   OH2 1382   1.303   3.867   4.621
  459TIP3    H1 1383   1.361   3.943   4.624
  459TIP3    H2 1384   1.277   3.860   4.529
  460TIP3   OH2 1385   2.211   2.765   0.525
  460TIP3    H1 1386   2.186   2.805   0.608
  460TIP3    H2 1387   2.284   2.707   0.547
  461TIP3   OH2 1388   0.393   0.006   4.668
  461TIP3    H1 1389   0.417  -0.045   4.591
  461TIP3    H2 1390   0.313   0.052   4.642
  462TIP3   OH2 1391   3.204   2.262   0.266
  462TIP3    H1 1392   3.121   2.269   0.314
  462TIP3    H2 1393   3.204   2.337   0.207
  463TIP3   OH2 1394   3.075   1.575   4.144
  463TIP3    H1 1395   3.109   1.574   4.233
  463TIP3    H2 1396   3.153   1.582   4.089
  464TIP3   OH2 1397   4.570   1.897   2.978
  464TIP3    H1 1398   4.510   1.929   2.910
  464TIP3    H2 1399   4.568   1.802   2.968
  465TIP3   OH2 1400   6.025   1.523   1.215
  465TIP3    H1 1401   6.079   1.447   1.235
  465TIP3    H2 1402   6.009   1.516   1.121
  466TIP3   OH2 1403   4.458   1.208   0.376
  466TIP3    H1 1404   4.482   1.119   0.352
  466TIP3    H2 1405   4.391   1.197   0.444
  467TIP3   OH2 1406   4.971   3.061   3.735
  467TIP3    H1 1407   5.044   3.011   3.699
  467TIP3    H2 1408   5.010   3.143   3.766
  468TIP3   OH2 1409   0.160   3.939   4.216
  468TIP3    H1 1410   0.193   4.026   4.196
  468TIP3    H2 1411   0.092   3.953   4.281
  469TIP3   OH2 1412   2.808   0.100   1.384
  469TIP3    H1 1413   2.874   0.127   1.320
  469TIP3    H2 1414   2.742   0.169   1.381
  470TIP3   OH2 1415   4.189   5.546   1.127
  470TIP3    H1 1416   4.229   5.507   1.049
  470TIP3    H2 1417   4.120   5.603   1.092
  471TIP3   OH2 1418   5.643   0.435   1.428
  471TIP3    H1 1419   5.556   0.415   1.462
  471TIP3    H2 1420   5.700   0.436   1.505
  472TIP3   OH2 1421   1.809   5.518   1.663
  472TIP3    H1 1422   1.845   5.606   1.673
  472TIP3    H2 1423   1.779   5.494   1.750
  473TIP3   OH2 1424   1.046   0.650   2.799
  473TIP3    H1 1425   0.970   0.707   2.785
  473TIP3    H2 1426   1.112   0.708   2.837
  474TIP3   OH2 1427   4.421   3.339   3.160
  474TIP3    H1 1428   4.388   3.428   3.155
  474TIP3    H2 1429   4.395   3.308   3.247
  475TIP3   OH2 1430   2.172   1.710   4.774
  475TIP3    H1 1431   2.113   1.723   4.849
  475TIP3    H2 1432   2.113   1.694   4.700
  476TIP3   OH2 1433   4.151   3.751   0.578
  476TIP3    H1 1434   4.175   3.836   0.614
  476TIP3    H2 1435   4.098   3.710   0.647
  477TIP3   OH2 1436   0.313   5.193   2.878
  477TIP3    H1 1437   0.219   5.188   2.861
  477TIP3    H2 1438   0.341   5.274   2.836
  478TIP3   OH2 1439   3.735   0.768   0.829
  478TIP3    H1 1440   3.646   0.753   0.797
  478TIP3    H2 1441   3.724   0.825   0.905
  479TIP3   OH2 1442   5.441   3.358   1.059
  479TIP3    H1 1443   5.403   3.387   1.142
  479TIP3    H2 1444   5.457   3.265   1.071
  480TIP3   OH2 1445   4.780   4.239   1.493
  480TIP3    H1 1446   4.770   4.145   1.477
  480TIP3    H2 1447   4.705   4.262   1.546
  481TIP3   OH2 1448   0.644   5.589   2.785
  481TIP3    H1 1449   0.660   5.621   2.697
  481TIP3    H2 1450   0.726   5.547   2.812
  482TIP3   OH2 1451   0.324   5.503   1.150
  482TIP3    H1 1452   0.265   5.466   1.085
  482TIP3    H2 1453   0.293   5.592   1.164
  483TIP3   OH2 1454   3.027   1.854   0.774
  483TIP3    H1 1455   2.937   1.870   0.803
  483TIP3    H2 1456   3.081   1.886   0.846
  484TIP3   OH2 1457   0.790   1.404   3.558
  484TIP3    H1 1458   0.778   1.313   3.586
  484TIP3    H2 1459   0.703   1.444   3.571
  485TIP3   OH2 1460   2.050   3.668   0.231
  485TIP3    H1 1461   2.007   3.669   0.145
  485TIP3    H2 1462   2.123   3.607   0.220
  486TIP3   OH2 1463   1.293   4.437   1.430
  486TIP3    H1 1464   1.305   4.425   1.336
  486TIP3    H2 1465   1.209   4.395   1.449
  487TIP3   OH2 1466   4.834   4.578   1.803
  487TIP3    H1 1467   4.752   4.571   1.755
  487TIP3    H2 1468   4.894   4.518   1.760
  488TIP3   OH2 1469   3.094   0.366   1.421
  488TIP3    H1 1470   3.004   0.385   1.448
  488TIP3    H2 1471   3.117   0.286   1.469
  489TIP3   OH2 1472   3.643   4.914   0.282
  489TIP3    H1 1473   3.586   4.880   0.214
  489TIP3    H2 1474   3.609   5.002   0.300
  490TIP3   OH2 1475   3.545   1.187   1.668
  490TIP3    H1 1476   3.571   1.185   1.761
  490TIP3    H2 1477   3.598   1.257   1.630
  491TIP3   OH2 1478   2.404   3.376   2.978
  491TIP3    H1 1479   2.444   3.426   3.049
  491TIP3    H2 1480   2.340   3.436   2.940
  492TIP3   OH2 1481   3.556   2.076   4.541
  492TIP3    H1 1482   3.623   2.105   4.603
  492TIP3    H2 1483   3.483   2.047   4.595
  493TIP3   OH2 1484   0.941   1.085   2.299
  493TIP3    H1 1485   0.913   0.994   2.311
  493TIP3    H2 1486   1.036   1.083   2.314
  494TIP3   OH2 1487   0.208   3.581   2.278
  494TIP3    H1 1488   0.124   3.608   2.241
  494TIP3    H2 1489   0.185   3.527   2.353
  495TIP3   OH2 1490   2.459   5.359   1.447
  495TIP3    H1 1491   2.528   5.295   1.466
  495TIP3    H2 1492   2.427   5.336   1.360
  496TIP3   OH2 1493   0.919   1.783   3.098
  496TIP3    H1 1494   0.985   1.763   3.032
  496TIP3    H2 1495   0.858   1.709   3.094
  497TIP3   OH2 1496   4.915   1.721   4.950
  497TIP3    H1 1497   4.931   1.801   4.898
  497TIP3    H2 1498   4.853   1.748   5.017
  498TIP3   OH2 1499   3.378   5.255   2.509
  498TIP3    H1 1500   3.457   5.203   2.522
  498TIP3    H2 1501   3.326   5.205   2.447
  499TIP3   OH2 1502   5.406   0.361   0.495
  499TIP3    H1 1503   5.385   0.361   0.402
  499TIP3    H2 1504   5.486   0.412   0.503
  500TIP3   OH2 1505   1.953   0.504   1.260
  500TIP3    H1 1506   1.973   0.576   1.201
  500TIP3    H2 1507   1.868   0.471   1.230
  501TIP3   OH2 1508   0.193   4.656   4.764
  501TIP3    H1 1509   0.114   4.607   4.743
  501TIP3    H2 1510   0.223   4.619   4.848
  502TIP3   OH2 1511   2.470   3.338   4.424
  502TIP3    H1 1512   2.498   3.429   4.426
  502TIP3    H2 1513   2.544   3.291   4.384
  503TIP3   OH2 1514   3.782   1.788   5.173
  503TIP3    H1 1515   3.766   1.877   5.206
  503TIP3    H2 1516   3.745   1.788   5.085
  504TIP3   OH2 1517   0.311   4.807   0.975
  504TIP3    H1 1518   0.385   4.868   0.976
  504TIP3    H2 1519   0.244   4.849   1.028
  505TIP3   OH2 1520   0.264   2.457   3.580
  505TIP3    H1 1521   0.221   2.540   3.561
  505TIP3    H2 1522   0.193   2.399   3.606
  506TIP3   OH2 1523   2.240   5.718   4.302
  506TIP3    H1 1524   2.294   5.796   4.294
  506TIP3    H2 1525   2.170   5.731   4.237
  507TIP3   OH2 1526   6.251   4.139   0.235
  507TIP3    H1 1527   6.268   4.104   0.323
  507TIP3    H2 1528   6.271   4.232   0.243
  508TIP3   OH2 1529   2.287   1.142   0.710
  508TIP3    H1 1530   2.370   1.169   0.749
  508TIP3    H2 1531   2.244   1.091   0.779
  509TIP3   OH2 1532   1.185   4.023   2.838
  509TIP3    H1 1533   1.154   3.940   2.802
  509TIP3    H2 1534   1.136   4.033   2.920
  510TIP3   OH2 1535   4.071   0.729   2.438
  510TIP3    H1 1536   4.062   0.741   2.533
  510TIP3    H2 1537   4.074   0.818   2.403
  511TIP3   OH2 1538   0.116   2.873   0.388
  511TIP3    H1 1539   0.114   2.796   0.444
  511TIP3    H2 1540   0.064   2.847   0.311
  512TIP3   OH2 1541   2.135   4.474   0.788
  512TIP3    H1 1542   2.131   4.500   0.880
  512TIP3    H2 1543   2.209   4.414   0.782
  513TIP3   OH2 1544   3.147   4.197   4.478
  513TIP3    H1 1545   3.209   4.262   4.446
  513TIP3    H2 1546   3.061   4.240   4.470
  514TIP3   OH2 1547   2.910   4.549   2.753
  514TIP3    H1 1548   2.925   4.607   2.678
  514TIP3    H2 1549   2.965   4.585   2.823
  515TIP3   OH2 1550   5.663   4.557   2.206
  515TIP3    H1 1551   5.568   4.553   2.205
  515TIP3    H2 1552   5.688   4.562   2.114
  516TIP3   OH2 1553   1.546   2.070   3.666
  516TIP3    H1 1554   1.626   2.114   3.696
  516TIP3    H2 1555   1.488   2.070   3.743
  517TIP3   OH2 1556   1.347   0.733   2.407
  517TIP3    H1 1557   1.407   0.658   2.410
  517TIP3    H2 1558   1.307   0.728   2.320
  518TIP3   OH2 1559   0.475   5.251   4.219
  518TIP3    H1 1560   0.478   5.262   4.124
  518TIP3    H2 1561   0.421   5.173   4.233
  519TIP3   OH2 1562   5.542   4.170   4.424
  519TIP3    H1 1563   5.600   4.148   4.350
  519TIP3    H2 1564   5.602   4.194   4.495
  520TIP3   OH2 1565   3.086   1.485   0.748
  520TIP3    H1 1566   3.155   1.548   0.770
  520TIP3    H2 1567   3.031   1.531   0.684
  521TIP3   OH2 1568   5.026   0.693   1.178
  521TIP3    H1 1569   5.042   0.696   1.084
  521TIP3    H2 1570   4.932   0.677   1.186
  522TIP3   OH2 1571   2.448   4.833   3.520
  522TIP3    H1 1572   2.502   4.757   3.496
  522TIP3    H2 1573   2.362   4.813   3.483
  523TIP3   OH2 1574   4.246   5.496   0.875
  523TIP3    H1 1575   4.197   5.417   0.853
  523TIP3    H2 1576   4.220   5.560   0.809
  524TIP3   OH2 1577   0.732   1.780   0.570
  524TIP3    H1 1578   0.701   1.815   0.654
  524TIP3    H2 1579   0.748   1.857   0.516
  525TIP3   OH2 1580   6.130   5.482   4.677
  525TIP3    H1 1581   6.140   5.566   4.632
  525TIP3    H2 1582   6.211   5.434   4.658
  526TIP3   OH2 1583   1.916   1.128   2.847
  526TIP3    H1 1584   1.967   1.047   2.836
  526TIP3    H2 1585   1.981   1.197   2.852
  527TIP3   OH2 1586   0.020   5.403   4.553
  527TIP3    H1 1587   0.028   5.330   4.615
  527TIP3    H2 1588   0.104   5.448   4.560
  528TIP3   OH2 1589   5.859   5.171   0.459
  528TIP3    H1 1590   5.801   5.183   0.384
  528TIP3    H2 1591   5.850   5.251   0.510
  529TIP3   OH2 1592   5.361   4.225   3.067
  529TIP3    H1 1593   5.327   4.137   3.050
  529TIP3    H2 1594   5.386   4.258   2.981
  530TIP3   OH2 1595   2.427   4.542   3.058
  530TIP3    H1 1596   2.346   4.528   3.008
  530TIP3    H2 1597   2.411   4.624   3.105
  531TIP3   OH2 1598   0.118   2.969   1.165
  531TIP3    H1 1599   0.094   2.903   1.100
  531TIP3    H2 1600   0.095   3.052   1.124
  532TIP3   OH2 1601   2.712   2.363   1.662
  532TIP3    H1 1602   2.726   2.338   1.571
  532TIP3    H2 1603   2.616   2.368   1.671
  533TIP3   OH2 1604   5.071   2.315   0.031
  533TIP3    H1 1605   5.112   2.267   0.103
  533TIP3    H2 1606   5.000   2.259   0.002
  534TIP3   OH2 1607   5.906   2.509   4.646
  534TIP3    H1 1608   5.887   2.597   4.616
  534TIP3    H2 1609   5.835   2.456   4.610
  535TIP3   OH2 1610   0.132   4.516   3.819
  535TIP3    H1 1611   0.082   4.566   3.884
  535TIP3    H2 1612   0.216   4.498   3.862
  536TIP3   OH2 1613   4.015   0.607   0.432
  536TIP3    H1 1614   3.985   0.578   0.346
  536TIP3    H2 1615   4.052   0.694   0.417
  537TIP3   OH2 1616   1.200   1.570   1.247
  537TIP3    H1 1617   1.164   1.482   1.237
  537TIP3    H2 1618   1.125   1.624   1.272
  538TIP3   OH2 1619   5.769   5.422   2.221
  538TIP3    H1 1620   5.838   5.441   2.157
  538TIP3    H2 1621   5.726   5.507   2.235
  539TIP3   OH2 1622   0.347   5.661   3.684
  539TIP3    H1 1623   0.334   5.724   3.756
  539TIP3    H2 1624   0.345   5.715   3.605
  540TIP3   OH2 1625   4.145   5.587   3.525
  540TIP3    H1 1626   4.227   5.585   3.475
  540TIP3    H2 1627   4.166   5.637   3.604
  541TIP3   OH2 1628   5.691   4.550   0.436
  541TIP3    H1 1629   5.672   4.636   0.473
  541TIP3    H2 1630   5.729   4.568   0.350
  542TIP3   OH2 1631   1.736   1.730   2.560
  542TIP3    H1 1632   1.715   1.692   2.646
  542TIP3    H2 1633   1.735   1.824   2.574
  543TIP3   OH2 1634   1.785   4.340   2.873
  543TIP3    H1 1635   1.867   4.355   2.826
  543TIP3    H2 1636   1.731   4.291   2.812
  544TIP3   OH2 1637   0.179   4.037   0.660
  544TIP3    H1 1638   0.119   4.061   0.590
  544TIP3    H2 1639   0.125   4.032   0.738
  545TIP3   OH2 1640   2.342   1.945   1.492
  545TIP3    H1 1641   2.386   1.865   1.463
  545TIP3    H2 1642   2.413   2.002   1.520
  546TIP3   OH2 1643   5.929   2.449   3.160
  546TIP3    H1 1644   5.866   2.522   3.159
  546TIP3    H2 1645   6.009   2.487   3.196
  547TIP3   OH2 1646   2.843   1.569   4.808
  547TIP3    H1 1647   2.790   1.497   4.772
  547TIP3    H2 1648   2.933   1.536   4.803
  548TIP3   OH2 1649   1.955   2.496   3.761
  548TIP3    H1 1650   1.860   2.488   3.752
  548TIP3    H2 1651   1.990   2.446   3.687
  549TIP3   OH2 1652   5.749   5.771   1.058
  549TIP3    H1 1653   5.802   5.752   1.135
  549TIP3    H2 1654   5.791   5.848   1.018
  550TIP3   OH2 1655   0.028   5.882   3.600
  550TIP3    H1 1656   0.111   5.927   3.586
  550TIP3    H2 1657  -0.023   5.901   3.520
  551TIP3   OH2 1658   2.038   3.673   1.204
  551TIP3    H1 1659   2.057   3.667   1.298
  551TIP3    H2 1660   2.044   3.583   1.173
  552TIP3   OH2 1661   2.387   3.842   3.104
  552TIP3    H1 1662   2.471   3.876   3.134
  552TIP3    H2 1663   2.381   3.870   3.013
  553TIP3   OH2 1664   0.382   2.016   0.855
  553TIP3    H1 1665   0.394   2.079   0.926
  553TIP3    H2 1666   0.305   2.048   0.808
  554TIP3   OH2 1667   3.281   4.359   2.868
  554TIP3    H1 1668   3.343   4.366   2.795
  554TIP3    H2 1669   3.299   4.273   2.906
  555TIP3   OH2 1670   4.804   1.517   3.194
  555TIP3    H1 1671   4.829   1.425   3.188
  555TIP3    H2 1672   4.825   1.553   3.107
  556TIP3   OH2 1673   1.596   3.671   5.075
  556TIP3    H1 1674   1.547   3.700   4.998
  556TIP3    H2 1675   1.651   3.600   5.043
  557TIP3   OH2 1676   5.531   2.140   1.749
  557TIP3    H1 1677   5.461   2.085   1.714
  557TIP3    H2 1678   5.559   2.095   1.829
  558TIP3   OH2 1679   2.710   1.702   0.517
  558TIP3    H1 1680   2.636   1.659   0.560
  558TIP3    H2 1681   2.788   1.666   0.559
  559TIP3   OH2 1682   0.683   4.779   4.320
  559TIP3    H1 1683   0.702   4.871   4.302
  559TIP3    H2 1684   0.595   4.766   4.284
  560TIP3   OH2 1685   1.514   0.659   1.863
  560TIP3    H1 1686   1.466   0.724   1.916
  560TIP3    H2 1687   1.606   0.677   1.882
  561TIP3   OH2 1688   5.261   5.134   4.483
  561TIP3    H1 1689   5.284   5.226   4.497
  561TIP3    H2 1690   5.226   5.131   4.394
  562TIP3   OH2 1691   2.439   3.794   1.827
  562TIP3    H1 1692   2.354   3.749   1.829
  562TIP3    H2 1693   2.418   3.885   1.850
  563TIP3   OH2 1694   0.712   5.358   2.629
  563TIP3    H1 1695   0.780   5.376   2.694
  563TIP3    H2 1696   0.689   5.443   2.593
  564TIP3   OH2 1697   6.373   5.789   4.812
  564TIP3    H1 1698   6.309   5.788   4.884
  564TIP3    H2 1699   6.325   5.757   4.736
  565TIP3   OH2 1700   5.804  -0.017   3.936
  565TIP3    H1 1701   5.717  -0.026   3.897
  565TIP3    H2 1702   5.829   0.074   3.919
  566TIP3   OH2 1703   5.451   5.003   3.171
  566TIP3    H1 1704   5.509   4.980   3.098
  566TIP3    H2 1705   5.492   5.080   3.211
  567TIP3   OH2 1706   3.651   5.151   1.560
  567TIP3    H1 1707   3.731   5.205   1.555
  567TIP3    H2 1708   3.682   5.061   1.549
  568TIP3   OH2 1709   2.801   5.571   1.526
  568TIP3    H1 1710   2.887   5.551   1.562
  568TIP3    H2 1711   2.802   5.665   1.510
  569TIP3   OH2 1712   0.671   5.929   1.663
  569TIP3    H1 1713   0.695   5.884   1.744
  569TIP3    H2 1714   0.653   5.859   1.601
  570TIP3   OH2 1715   4.187   3.208   2.744
  570TIP3    H1 1716   4.214   3.236   2.656
  570TIP3    H2 1717   4.260   3.234   2.801
  571TIP3   OH2 1718   3.127   2.652   4.175
  571TIP3    H1 1719   3.204   2.708   4.169
  571TIP3    H2 1720   3.073   2.677   4.101
  572TIP3   OH2 1721   5.139   5.793   0.107
  572TIP3    H1 1722   5.152   5.773   0.015
  572TIP3    H2 1723   5.118   5.709   0.147
  573TIP3   OH2 1724   1.145   4.796   0.553
  573TIP3    H1 1725   1.065   4.846   0.573
  573TIP3    H2 1726   1.204   4.815   0.626
  574TIP3   OH2 1727   1.398   0.165   1.039
  574TIP3    H1 1728   1.371   0.257   1.035
  574TIP3    H2 1729   1.335   0.124   1.097
  575TIP3   OH2 1730   0.224   3.742   1.595
  575TIP3    H1 1731   0.245   3.700   1.512
  575TIP3    H2 1732   0.229   3.671   1.660
  576TIP3   OH2 1733   1.624   0.771   4.241
  576TIP3    H1 1734   1.599   0.862   4.229
  576TIP3    H2 1735   1.570   0.740   4.314
  577TIP3   OH2 1736   1.818   4.461   1.689
  577TIP3    H1 1737   1.885   4.454   1.621
  577TIP3    H2 1738   1.737   4.431   1.648
  578TIP3   OH2 1739   5.035   2.012   1.229
  578TIP3    H1 1740   5.092   2.003   1.152
  578TIP3    H2 1741   5.094   2.037   1.300
  579TIP3   OH2 1742   0.043   4.030   2.167
  579TIP3    H1 1743   0.074   4.078   2.243
  579TIP3    H2 1744   0.034   4.096   2.099
  580TIP3   OH2 1745   4.841   2.005   0.943
  580TIP3    H1 1746   4.917   1.978   0.890
  580TIP3    H2 1747   4.811   1.924   0.985
  581TIP3   OH2 1748   1.066   2.359   3.208
  581TIP3    H1 1749   1.121   2.425   3.251
  581TIP3    H2 1750   1.125   2.317   3.145
  582TIP3   OH2 1751   5.869   0.300   1.072
  582TIP3    H1 1752   5.956   0.324   1.040
  582TIP3    H2 1753   5.816   0.378   1.060
  583TIP3   OH2 1754   1.146   1.798   0.278
  583TIP3    H1 1755   1.211   1.742   0.320
  583TIP3    H2 1756   1.062   1.766   0.311
  584TIP3   OH2 1757   0.333   1.487   4.333
  584TIP3    H1 1758   0.340   1.393   4.317
  584TIP3    H2 1759   0.385   1.502   4.413
  585TIP3   OH2 1760   5.327   5.293   1.038
  585TIP3    H1 1761   5.416   5.320   1.059
  585TIP3    H2 1762   5.299   5.352   0.968
  586TIP3   OH2 1763   5.210   3.480   2.761
  586TIP3    H1 1764   5.285   3.496   2.819
  586TIP3    H2 1765   5.151   3.426   2.813
  587TIP3   OH2 1766   0.175   1.600   4.842
  587TIP3    H1 1767   0.179   1.553   4.925
  587TIP3    H2 1768   0.265   1.624   4.823
  588TIP3   OH2 1769   3.669   5.304   3.725
  588TIP3    H1 1770   3.703   5.384   3.764
  588TIP3    H2 1771   3.588   5.286   3.772
  589TIP3   OH2 1772   1.796   2.487   1.534
  589TIP3    H1 1773   1.739   2.411   1.522
  589TIP3    H2 1774   1.748   2.543   1.594
  590TIP3   OH2 1775   5.437   5.945   4.017
  590TIP3    H1 1776   5.389   5.874   3.976
  590TIP3    H2 1777   5.471   5.908   4.099
  591TIP3   OH2 1778   1.221   0.778   3.024
  591TIP3    H1 1779   1.169   0.723   3.083
  591TIP3    H2 1780   1.271   0.836   3.082
  592TIP3   OH2 1781   5.781   4.517   5.125
  592TIP3    H1 1782   5.774   4.422   5.128
  592TIP3    H2 1783   5.734   4.542   5.045
  593TIP3   OH2 1784   3.165   5.508   0.412
  593TIP3    H1 1785   3.236   5.494   0.473
  593TIP3    H2 1786   3.131   5.595   0.434
  594TIP3   OH2 1787   2.578   2.778   3.865
  594TIP3    H1 1788   2.629   2.746   3.791
  594TIP3    H2 1789   2.487   2.756   3.843
  595TIP3   OH2 1790   6.068   3.114   2.842
  595TIP3    H1 1791   6.122   3.090   2.767
  595TIP3    H2 1792   5.990   3.059   2.833
  596TIP3   OH2 1793   0.713   4.132   1.771
  596TIP3    H1 1794   0.643   4.169   1.716
  596TIP3    H2 1795   0.769   4.206   1.792
  597TIP3   OH2 1796   1.310   5.807   2.871
  597TIP3    H1 1797   1.294   5.800   2.965
  597TIP3    H2 1798   1.398   5.846   2.865
  598TIP3   OH2 1799   4.395   3.601   0.348
  598TIP3    H1 1800   4.315   3.571   0.304
  598TIP3    H2 1801   4.448   3.639   0.277
  599TIP3   OH2 1802   2.649   5.363   2.946
  599TIP3    H1 1803   2.718   5.316   2.899
  599TIP3    H2 1804   2.569   5.316   2.925
  600TIP3   OH2 1805   4.922   0.750   0.687
  600TIP3    H1 1806   4.847   0.790   0.730
  600TIP3    H2 1807   4.897   0.746   0.594
  601TIP3   OH2 1808   3.381   0.959   0.824
  601TIP3    H1 1809   3.396   0.918   0.739
  601TIP3    H2 1810   3.409   0.894   0.887
  602TIP3   OH2 1811   6.142   5.661   0.358
  602TIP3    H1 1812   6.236   5.671   0.342
  602TIP3    H2 1813   6.137   5.620   0.444
  603TIP3   OH2 1814   1.742   0.816   2.018
  603TIP3    H1 1815   1.712   0.824   2.108
  603TIP3    H2 1816   1.777   0.902   1.996
  604TIP3   OH2 1817   4.289   4.933   4.557
  604TIP3    H1 1818   4.329   4.846   4.559
  604TIP3    H2 1819   4.294   4.960   4.465
  605TIP3   OH2 1820   0.254   0.690   0.385
  605TIP3    H1 1821   0.238   0.679   0.291
  605TIP3    H2 1822   0.327   0.632   0.404
  606TIP3   OH2 1823   6.051   1.222   3.178
  606TIP3    H1 1824   6.142   1.240   3.200
  606TIP3    H2 1825   6.010   1.200   3.261
  607TIP3   OH2 1826   0.908   1.303   4.293
  607TIP3    H1 1827   0.972   1.363   4.331
  607TIP3    H2 1828   0.937   1.216   4.321
  608TIP3   OH2 1829   5.080   0.505   1.390
  608TIP3    H1 1830   5.175   0.512   1.396
  608TIP3    H2 1831   5.056   0.558   1.314
  609TIP3   OH2 1832   5.603   3.456   4.883
  609TIP3    H1 1833   5.650   3.391   4.936
  609TIP3    H2 1834   5.535   3.406   4.838
  610TIP3   OH2 1835   0.893   4.986   4.872
  610TIP3    H1 1836   0.972   5.040   4.873
  610TIP3    H2 1837   0.824   5.045   4.906
  611TIP3   OH2 1838   5.486   5.295   3.473
  611TIP3    H1 1839   5.509   5.274   3.382
  611TIP3    H2 1840   5.431   5.373   3.466
  612TIP3   OH2 1841   4.178   1.434   1.667
  612TIP3    H1 1842   4.129   1.418   1.748
  612TIP3    H2 1843   4.139   1.514   1.631
  613TIP3   OH2 1844   5.242   2.652   0.372
  613TIP3    H1 1845   5.272   2.595   0.301
  613TIP3    H2 1846   5.162   2.609   0.404
  614TIP3   OH2 1847   5.983   5.638   4.366
  614TIP3    H1 1848   6.006   5.565   4.308
  614TIP3    H2 1849   5.894   5.617   4.395
  615TIP3   OH2 1850   3.387   1.574   3.479
  615TIP3    H1 1851   3.295   1.551   3.495
  615TIP3    H2 1852   3.383   1.656   3.430
  616TIP3   OH2 1853   0.904   2.419   2.809
  616TIP3    H1 1854   0.982   2.376   2.774
  616TIP3    H2 1855   0.833   2.356   2.795
  617TIP3   OH2 1856   4.455   5.184   0.518
  617TIP3    H1 1857   4.432   5.267   0.560
  617TIP3    H2 1858   4.373   5.134   0.517
  618TIP3   OH2 1859   3.281   4.795   1.225
  618TIP3    H1 1860   3.340   4.732   1.183
  618TIP3    H2 1861   3.336   4.871   1.244
  619TIP3   OH2 1862   2.501   3.164   3.156
  619TIP3    H1 1863   2.446   3.192   3.228
  619TIP3    H2 1864   2.468   3.212   3.080
  620TIP3   OH2 1865   1.670   2.036   4.007
  620TIP3    H1 1866   1.672   1.956   4.061
  620TIP3    H2 1867   1.756   2.075   4.020
  621TIP3   OH2 1868   5.385   5.475   3.102
  621TIP3    H1 1869   5.330   5.412   3.149
  621TIP3    H2 1870   5.324   5.543   3.074
  622TIP3   OH2 1871   1.377   0.960   1.095
  622TIP3    H1 1872   1.394   0.994   1.007
  622TIP3    H2 1873   1.454   0.984   1.145
  623TIP3   OH2 1874   5.584   1.876   3.284
  623TIP3    H1 1875   5.526   1.851   3.355
  623TIP3    H2 1876   5.525   1.897   3.211
  624TIP3   OH2 1877   2.770   5.256   2.063
  624TIP3    H1 1878   2.723   5.331   2.099
  624TIP3    H2 1879   2.816   5.291   1.987
  625TIP3   OH2 1880   6.111   2.061   4.000
  625TIP3    H1 1881   6.190   2.007   3.995
  625TIP3    H2 1882   6.135   2.131   4.061
  626TIP3   OH2 1883   2.950   0.632   0.842
  626TIP3    H1 1884   2.878   0.662   0.897
  626TIP3    H2 1885   3.027   0.674   0.880
  627TIP3   OH2 1886   1.467   5.510   4.184
  627TIP3    H1 1887   1.381   5.532   4.147
  627TIP3    H2 1888   1.495   5.590   4.229
  628TIP3   OH2 1889   5.929   4.414   1.176
  628TIP3    H1 1890   5.944   4.506   1.155
  628TIP3    H2 1891   5.997   4.366   1.128
  629TIP3   OH2 1892   0.177   2.755   3.280
  629TIP3    H1 1893   0.222   2.812   3.218
  629TIP3    H2 1894   0.138   2.686   3.227
  630TIP3   OH2 1895   3.004   4.701   1.526
  630TIP3    H1 1896   2.944   4.745   1.466
  630TIP3    H2 1897   3.060   4.648   1.470
  631TIP3   OH2 1898   0.715   2.958   4.404
  631TIP3    H1 1899   0.733   3.035   4.459
  631TIP3    H2 1900   0.782   2.962   4.335
  632TIP3   OH2 1901   3.037   5.551   2.689
  632TIP3    H1 1902   3.082   5.474   2.725
  632TIP3    H2 1903   3.021   5.607   2.764
  633TIP3   OH2 1904   1.844   2.123   1.468
  633TIP3    H1 1905   1.852   2.048   1.409
  633TIP3    H2 1906   1.904   2.102   1.540
  634TIP3   OH2 1907   1.291   5.994   4.795
  634TIP3    H1 1908   1.290   5.905   4.760
  634TIP3    H2 1909   1.368   5.997   4.851
  635TIP3   OH2 1910   5.132   3.568   0.450
  635TIP3    H1 1911   5.057   3.550   0.393
  635TIP3    H2 1912   5.102   3.640   0.506
  636TIP3   OH2 1913   1.426   1.719   2.575
  636TIP3    H1 1914   1.494   1.760   2.521
  636TIP3    H2 1915   1.347   1.721   2.519
  637TIP3   OH2 1916   2.184   5.917   0.586
  637TIP3    H1 1917   2.208   6.008   0.604
  637TIP3    H2 1918   2.143   5.886   0.666
  638TIP3   OH2 1919   5.453   1.097   4.754
  638TIP3    H1 1920   5.372   1.071   4.710
  638TIP3    H2 1921   5.481   1.175   4.707
  639TIP3   OH2 1922   3.170   1.830   3.623
  639TIP3    H1 1923   3.128   1.836   3.709
  639TIP3    H2 1924   3.105   1.786   3.568
  640TIP3   OH2 1925   5.015   0.286   0.791
  640TIP3    H1 1926   5.044   0.377   0.783
  640TIP3    H2 1927   4.929   0.284   0.749
  641TIP3   OH2 1928   0.110   3.783   3.738
  641TIP3    H1 1929   0.047   3.769   3.668
  641TIP3    H2 1930   0.187   3.733   3.712
  642TIP3   OH2 1931   3.692   4.065   2.086
  642TIP3    H1 1932   3.684   4.135   2.151
  642TIP3    H2 1933   3.602   4.046   2.061
  643TIP3   OH2 1934   5.666   2.711   2.323
  643TIP3    H1 1935   5.647   2.618   2.310
  643TIP3    H2 1936   5.662   2.724   2.418
  644TIP3   OH2 1937   2.025   5.258   1.277
  644TIP3    H1 1938   1.987   5.332   1.324
  644TIP3    H2 1939   1.988   5.264   1.189
  645TIP3   OH2 1940   4.039   1.629   1.526
  645TIP3    H1 1941   4.015   1.712   1.569
  645TIP3    H2 1942   4.021   1.644   1.434
  646TIP3   OH2 1943   0.620   1.880   1.476
  646TIP3    H1 1944   0.528   1.902   1.492
  646TIP3    H2 1945   0.669   1.946   1.524
  647TIP3   OH2 1946   3.866   2.921   4.036
  647TIP3    H1 1947   3.908   2.894   4.118
  647TIP3    H2 1948   3.774   2.897   4.047
  648TIP3   OH2 1949   2.007   5.134   0.497
  648TIP3    H1 1950   2.035   5.211   0.448
  648TIP3    H2 1951   1.920   5.114   0.462
  649TIP3   OH2 1952   1.026   0.152   4.070
  649TIP3    H1 1953   1.098   0.092   4.053
  649TIP3    H2 1954   1.016   0.154   4.165
  650TIP3   OH2 1955   1.004   3.706   2.884
  650TIP3    H1 1956   1.090   3.664   2.878
  650TIP3    H2 1957   0.962   3.686   2.800
  651TIP3   OH2 1958   3.061   0.836   0.344
  651TIP3    H1 1959   3.079   0.742   0.350
  651TIP3    H2 1960   3.147   0.877   0.337
  652TIP3   OH2 1961   4.995   0.369   4.088
  652TIP3    H1 1962   5.057   0.348   4.018
  652TIP3    H2 1963   5.046   0.423   4.149
  653TIP3   OH2 1964   5.679   2.638   3.638
  653TIP3    H1 1965   5.682   2.571   3.570
  653TIP3    H2 1966   5.587   2.644   3.661
  654TIP3   OH2 1967   3.344   2.802   1.139
  654TIP3    H1 1968   3.318   2.776   1.227
  654TIP3    H2 1969   3.419   2.860   1.151
  655TIP3   OH2 1970   3.847   2.199   1.045
  655TIP3    H1 1971   3.882   2.110   1.035
  655TIP3    H2 1972   3.824   2.226   0.957
  656TIP3   OH2 1973   0.284   3.439   5.011
  656TIP3    H1 1974   0.219   3.370   5.024
  656TIP3    H2 1975   0.362   3.394   4.978
  657TIP3   OH2 1976   5.277   0.102   1.138
  657TIP3    H1 1977   5.366   0.133   1.155
  657TIP3    H2 1978   5.289   0.024   1.083
  658TIP3   OH2 1979   4.620   2.858   0.844
  658TIP3    H1 1980   4.692   2.795   0.851
  658TIP3    H2 1981   4.562   2.821   0.778
  659TIP3   OH2 1982   4.093   5.249   0.760
  659TIP3    H1 1983   4.108   5.222   0.669
  659TIP3    H2 1984   4.137   5.181   0.812
  660TIP3   OH2 1985   0.462   5.720   0.099
  660TIP3    H1 1986   0.492   5.631   0.119
  660TIP3    H2 1987   0.519   5.776   0.151
  661TIP3   OH2 1988   0.520   4.255   2.872
  661TIP3    H1 1989   0.562   4.252   2.958
  661TIP3    H2 1990   0.547   4.339   2.836
  662TIP3   OH2 1991   2.188   1.215   3.680
  662TIP3    H1 1992   2.117   1.253   3.731
  662TIP3    H2 1993   2.194   1.124   3.710
  663TIP3   OH2 1994   2.327   4.836   3.937
  663TIP3    H1 1995   2.324   4.746   3.903
  663TIP3    H2 1996   2.242   4.848   3.979
  664TIP3   OH2 1997   4.180   1.253   3.902
  664TIP3    H1 1998   4.123   1.189   3.860
  664TIP3    H2 1999   4.261   1.205   3.918
  665TIP3   OH2 2000   5.461   0.763   2.392
  665TIP3    H1 2001   5.524   0.734   2.457
  665TIP3    H2 2002   5.448   0.687   2.335
  666TIP3   OH2 2003   0.034   5.308   2.512
  666TIP3    H1 2004   0.034   5.399   2.481
  666TIP3    H2 2005   0.127   5.285   2.520
  667TIP3   OH2 2006   1.609   1.558   2.304
  667TIP3    H1 2007   1.545   1.623   2.276
  667TIP3    H2 2008   1.559   1.477   2.312
  668TIP3   OH2 2009   2.256   4.579   1.738
  668TIP3    H1 2010   2.286   4.494   1.706
  668TIP3    H2 2011   2.329   4.611   1.791
  669TIP3   OH2 2012   0.667   3.694  -0.032
  669TIP3    H1 2013   0.722   3.621  -0.002
  669TIP3    H2 2014   0.651   3.745   0.048
  670TIP3   OH2 2015   3.367   2.647   0.150
  670TIP3    H1 2016   3.392   2.693   0.230
  670TIP3    H2 2017   3.337   2.717   0.091
  671TIP3   OH2 2018   2.238   5.002   0.270
  671TIP3    H1 2019   2.145   5.016   0.284
  671TIP3    H2 2020   2.266   4.948   0.344
  672TIP3   OH2 2021   1.734   5.644   3.848
  672TIP3    H1 2022   1.668   5.698   3.892
  672TIP3    H2 2023   1.686   5.565   3.821
  673TIP3   OH2 2024   4.472   3.738   3.929
  673TIP3    H1 2025   4.399   3.701   3.978
  673TIP3    H2 2026   4.542   3.750   3.993
  674TIP3   OH2 2027   5.707   2.877   3.356
  674TIP3    H1 2028   5.656   2.887   3.436
  674TIP3    H2 2029   5.681   2.950   3.300
  675TIP3   OH2 2030   5.526   1.615   2.173
  675TIP3    H1 2031   5.568   1.529   2.173
  675TIP3    H2 2032   5.479   1.619   2.089
  676TIP3   OH2 2033   2.699   5.454   3.319
  676TIP3    H1 2034   2.737   5.366   3.321
  676TIP3    H2 2035   2.734   5.493   3.238
  677TIP3   OH2 2036   2.650   0.530   3.331
  677TIP3    H1 2037   2.684   0.441   3.336
  677TIP3    H2 2038   2.555   0.520   3.322
  678TIP3   OH2 2039   3.965   5.686   3.982
  678TIP3    H1 2040   3.992   5.601   4.016
  678TIP3    H2 2041   3.942   5.736   4.060
  679TIP3   OH2 2042   5.194   2.959   1.373
  679TIP3    H1 2043   5.133   2.885   1.380
  679TIP3    H2 2044   5.262   2.941   1.437
  680TIP3   OH2 2045   4.076   5.718   1.479
  680TIP3    H1 2046   4.142   5.660   1.440
  680TIP3    H2 2047   4.127   5.787   1.521
  681TIP3   OH2 2048   5.144   0.627   4.794
  681TIP3    H1 2049   5.104   0.709   4.824
  681TIP3    H2 2050   5.215   0.611   4.856
  682TIP3   OH2 2051   3.125   0.642   1.938
  682TIP3    H1 2052   3.036   0.672   1.955
  682TIP3    H2 2053   3.120   0.547   1.947
  683TIP3   OH2 2054   3.505   5.050   2.192
  683TIP3    H1 2055   3.518   4.966   2.237
  683TIP3    H2 2056   3.491   5.026   2.100
  684TIP3   OH2 2057   5.134   0.068   3.884
  684TIP3    H1 2058   5.107   0.040   3.972
  684TIP3    H2 2059   5.228   0.050   3.881
  685TIP3   OH2 2060   5.005   2.677   3.097
  685TIP3    H1 2061   4.994   2.687   3.191
  685TIP3    H2 2062   4.919   2.694   3.060
  686TIP3   OH2 2063   1.706   5.368   1.422
  686TIP3    H1 2064   1.773   5.396   1.485
  686TIP3    H2 2065   1.676   5.283   1.455
  687TIP3   OH2 2066   0.845   3.907   3.046
  687TIP3    H1 2067   0.891   3.847   2.988
  687TIP3    H2 2068   0.753   3.882   3.039
  688TIP3   OH2 2069   0.704   2.675   4.323
  688TIP3    H1 2070   0.710   2.725   4.404
  688TIP3    H2 2071   0.770   2.606   4.333
  689TIP3   OH2 2072   1.440   1.164   2.524
  689TIP3    H1 2073   1.463   1.194   2.612
  689TIP3    H2 2074   1.457   1.070   2.525
  690TIP3   OH2 2075   5.989   0.969   0.686
  690TIP3    H1 2076   5.943   1.046   0.654
  690TIP3    H2 2077   6.081   0.987   0.668
  691TIP3   OH2 2078   6.067   2.188   3.150
  691TIP3    H1 2079   5.985   2.223   3.184
  691TIP3    H2 2080   6.085   2.110   3.202
  692TIP3   OH2 2081   3.473   5.790   2.668
  692TIP3    H1 2082   3.457   5.757   2.580
  692TIP3    H2 2083   3.387   5.817   2.699
  693TIP3   OH2 2084   0.926   4.267   0.012
  693TIP3    H1 2085   0.931   4.350  -0.036
  693TIP3    H2 2086   0.849   4.276   0.068
  694TIP3   OH2 2087   4.026   2.149   4.045
  694TIP3    H1 2088   4.119   2.156   4.024
  694TIP3    H2 2089   4.001   2.060   4.018
  695TIP3   OH2 2090   3.178   2.598   1.637
  695TIP3    H1 2091   3.232   2.597   1.558
  695TIP3    H2 2092   3.089   2.615   1.605
  696TIP3   OH2 2093   6.234   4.917   0.471
  696TIP3    H1 2094   6.154   4.875   0.501
  696TIP3    H2 2095   6.208   5.006   0.448
  697TIP3   OH2 2096   2.503   5.345   2.152
  697TIP3    H1 2097   2.456   5.262   2.149
  697TIP3    H2 2098   2.520   5.359   2.246
  698TIP3   OH2 2099   1.693   0.205   2.865
  698TIP3    H1 2100   1.759   0.150   2.908
  698TIP3    H2 2101   1.736   0.235   2.785
  699TIP3   OH2 2102   4.598   3.114   3.066
  699TIP3    H1 2103   4.640   3.171   3.002
  699TIP3    H2 2104   4.545   3.173   3.120
  700TIP3   OH2 2105   6.313   5.700   0.904
  700TIP3    H1 2106   6.386   5.761   0.892
  700TIP3    H2 2107   6.251   5.748   0.958
  701TIP3   OH2 2108   1.740   4.857   0.715
  701TIP3    H1 2109   1.820   4.859   0.768
  701TIP3    H2 2110   1.715   4.949   0.708
  702TIP3   OH2 2111   2.755   5.248   2.712
  702TIP3    H1 2112   2.728   5.163   2.745
  702TIP3    H2 2113   2.841   5.263   2.750
  703TIP3   OH2 2114   1.086   5.518   3.895
  703TIP3    H1 2115   1.122   5.559   3.973
  703TIP3    H2 2116   1.107   5.425   3.905
  704TIP3   OH2 2117   3.982   3.035   0.679
  704TIP3    H1 2118   3.916   3.043   0.610
  704TIP3    H2 2119   3.937   2.987   0.749
  705TIP3   OH2 2120   5.422   2.490   4.575
  705TIP3    H1 2121   5.327   2.491   4.571
  705TIP3    H2 2122   5.443   2.425   4.642
  706TIP3   OH2 2123   3.135   3.082   2.281
  706TIP3    H1 2124   3.107   3.016   2.343
  706TIP3    H2 2125   3.224   3.056   2.256
  707TIP3   OH2 2126   5.495   1.768   1.552
  707TIP3    H1 2127   5.539   1.692   1.590
  707TIP3    H2 2128   5.541   1.782   1.469
  708TIP3   OH2 2129   5.019   4.419   1.684
  708TIP3    H1 2130   5.058   4.351   1.629
  708TIP3    H2 2131   5.043   4.501   1.643
  709TIP3   OH2 2132   5.738   0.285   3.673
  709TIP3    H1 2133   5.794   0.335   3.613
  709TIP3    H2 2134   5.793   0.270   3.750
  710TIP3   OH2 2135   3.712   3.517   5.155
  710TIP3    H1 2136   3.790   3.461   5.155
  710TIP3    H2 2137   3.745   3.603   5.179
  711TIP3   OH2 2138   2.796   3.745   3.305
  711TIP3    H1 2139   2.749   3.795   3.371
  711TIP3    H2 2140   2.758   3.774   3.222
  712TIP3   OH2 2141   0.632   3.838   1.788
  712TIP3    H1 2142   0.682   3.918   1.772
  712TIP3    H2 2143   0.620   3.799   1.701
  713TIP3   OH2 2144   1.222   4.682   4.747
  713TIP3    H1 2145   1.153   4.731   4.791
  713TIP3    H2 2146   1.297   4.689   4.806
  714TIP3   OH2 2147   1.659   4.694   2.851
  714TIP3    H1 2148   1.670   4.742   2.769
  714TIP3    H2 2149   1.654   4.602   2.825
  715TIP3   OH2 2150   0.070   5.812   2.002
  715TIP3    H1 2151   0.097   5.773   1.919
  715TIP3    H2 2152   0.149   5.853   2.036
  716TIP3   OH2 2153   1.536   5.767   4.261
  716TIP3    H1 2154   1.488   5.822   4.199
  716TIP3    H2 2155   1.624   5.804   4.264
  717TIP3   OH2 2156   5.370   4.416   1.617
  717TIP3    H1 2157   5.346   4.429   1.709
  717TIP3    H2 2158   5.362   4.322   1.603
  718TIP3   OH2 2159   4.144   2.021   0.501
  718TIP3    H1 2160   4.199   2.093   0.531
  718TIP3    H2 2161   4.189   1.985   0.425
  719TIP3   OH2 2162   5.540   0.502   5.154
  719TIP3    H1 2163   5.476   0.449   5.106
  719TIP3    H2 2164   5.606   0.439   5.183
  720TIP3   OH2 2165   4.903   4.359   3.360
  720TIP3    H1 2166   4.907   4.263   3.359
  720TIP3    H2 2167   4.984   4.386   3.401
  721TIP3   OH2 2168   2.164   5.723   3.643
  721TIP3    H1 2169   2.163   5.673   3.725
  721TIP3    H2 2170   2.194   5.660   3.577
  722TIP3   OH2 2171   3.780   0.378   2.020
  722TIP3    H1 2172   3.820   0.352   2.103
  722TIP3    H2 2173   3.854   0.382   1.959
  723TIP3   OH2 2174   5.319   4.142   1.988
  723TIP3    H1 2175   5.268   4.138   2.069
  723TIP3    H2 2176   5.297   4.061   1.942
  724TIP3   OH2 2177   0.902   5.034   0.307
  724TIP3    H1 2178   0.843   4.983   0.252
  724TIP3    H2 2179   0.988   5.023   0.266
  725TIP3   OH2 2180   5.297   4.159   4.831
  725TIP3    H1 2181   5.300   4.223   4.902
  725TIP3    H2 2182   5.359   4.091   4.857
  726TIP3   OH2 2183   4.595   1.620   1.935
  726TIP3    H1 2184   4.522   1.569   1.900
  726TIP3    H2 2185   4.554   1.700   1.969
  727TIP3   OH2 2186   3.903   4.641   3.421
  727TIP3    H1 2187   3.841   4.612   3.353
  727TIP3    H2 2188   3.848   4.658   3.498
  728TIP3   OH2 2189   1.416   0.211   4.000
  728TIP3    H1 2190   1.358   0.143   3.968
  728TIP3    H2 2191   1.438   0.262   3.922
  729TIP3   OH2 2192   2.441   1.511   0.615
  729TIP3    H1 2193   2.475   1.430   0.577
  729TIP3    H2 2194   2.356   1.523   0.573
  730TIP3   OH2 2195   5.369   5.671   0.696
  730TIP3    H1 2196   5.425   5.611   0.746
  730TIP3    H2 2197   5.427   5.705   0.627
  731TIP3   OH2 2198   3.103   5.523   3.424
  731TIP3    H1 2199   3.168   5.452   3.422
  731TIP3    H2 2200   3.028   5.485   3.470
  732TIP3   OH2 2201   3.860   3.931   1.304
  732TIP3    H1 2202   3.879   4.024   1.292
  732TIP3    H2 2203   3.879   3.891   1.219
  733TIP3   OH2 2204   4.706   2.187   1.908
  733TIP3    H1 2205   4.729   2.249   1.977
  733TIP3    H2 2206   4.755   2.108   1.928
  734TIP3   OH2 2207   3.934   5.091   4.231
  734TIP3    H1 2208   3.977   5.140   4.301
  734TIP3    H2 2209   3.931   5.151   4.157
  735TIP3   OH2 2210   5.024   3.551   3.186
  735TIP3    H1 2211   4.964   3.477   3.173
  735TIP3    H2 2212   5.022   3.567   3.280
  736TIP3   OH2 2213   3.101   5.233   4.166
  736TIP3    H1 2214   3.023   5.271   4.125
  736TIP3    H2 2215   3.155   5.308   4.189
  737TIP3   OH2 2216   1.243   2.625   0.280
  737TIP3    H1 2217   1.188   2.703   0.291
  737TIP3    H2 2218   1.321   2.643   0.332
  738TIP3   OH2 2219   5.482   2.397   4.064
  738TIP3    H1 2220   5.511   2.328   4.123
  738TIP3    H2 2221   5.559   2.452   4.052
  739TIP3   OH2 2222   3.444   0.223   3.108
  739TIP3    H1 2223   3.360   0.244   3.150
  739TIP3    H2 2224   3.487   0.164   3.170
  740TIP3   OH2 2225   2.243   1.012   4.983
  740TIP3    H1 2226   2.274   1.036   5.070
  740TIP3    H2 2227   2.210   1.094   4.946
  741TIP3   OH2 2228   2.337   2.908   1.726
  741TIP3    H1 2229   2.290   2.950   1.655
  741TIP3    H2 2230   2.269   2.878   1.786
  742TIP3   OH2 2231   2.971   4.358   3.321
  742TIP3    H1 2232   2.950   4.268   3.348
  742TIP3    H2 2233   2.922   4.372   3.241
  743TIP3   OH2 2234   0.566   1.970   2.063
  743TIP3    H1 2235   0.502   1.899   2.071
  743TIP3    H2 2236   0.547   2.010   1.978
  744TIP3   OH2 2237   4.488   0.198   0.332
  744TIP3    H1 2238   4.535   0.115   0.346
  744TIP3    H2 2239   4.506   0.220   0.240
  745TIP3   OH2 2240   4.958   3.006   3.999
  745TIP3    H1 2241   4.985   2.914   3.998
  745TIP3    H2 2242   4.928   3.022   3.910
  746TIP3   OH2 2243   3.823   1.739   4.767
  746TIP3    H1 2244   3.844   1.646   4.770
  746TIP3    H2 2245   3.748   1.748   4.826
  747TIP3   OH2 2246   3.171   0.431   1.719
  747TIP3    H1 2247   3.202   0.361   1.662
  747TIP3    H2 2248   3.078   0.440   1.698
  748TIP3   OH2 2249   5.180   5.490   1.440
  748TIP3    H1 2250   5.137   5.435   1.505
  748TIP3    H2 2251   5.220   5.560   1.490
  749TIP3   OH2 2252   3.669   1.609   1.658
  749TIP3    H1 2253   3.651   1.703   1.663
  749TIP3    H2 2254   3.616   1.570   1.727
  750TIP3   OH2 2255   5.484   0.805   0.472
  750TIP3    H1 2256   5.409   0.830   0.525
  750TIP3    H2 2257   5.527   0.887   0.450
  751TIP3   OH2 2258   1.313   5.225   1.394
  751TIP3    H1 2259   1.273   5.306   1.362
  751TIP3    H2 2260   1.390   5.213   1.339
  752TIP3   OH2 2261   3.972   1.459   3.377
  752TIP3    H1 2262   3.956   1.396   3.307
  752TIP3    H2 2263   4.044   1.513   3.345
  753TIP3   OH2 2264   4.578   2.174   4.548
  753TIP3    H1 2265   4.580   2.186   4.643
  753TIP3    H2 2266   4.496   2.127   4.532
  754TIP3   OH2 2267   1.501   1.181   1.672
  754TIP3    H1 2268   1.410   1.153   1.662
  754TIP3    H2 2269   1.548   1.101   1.696
  755TIP3   OH2 2270   5.988   1.265   2.098
  755TIP3    H1 2271   5.954   1.275   2.009
  755TIP3    H2 2272   5.918   1.221   2.146
  756TIP3   OH2 2273   0.341   4.468   0.969
  756TIP3    H1 2274   0.305   4.392   0.923
  756TIP3    H2 2275   0.268   4.502   1.020
  757TIP3   OH2 2276   4.364   5.897   4.426
  757TIP3    H1 2277   4.344   5.967   4.487
  757TIP3    H2 2278   4.291   5.898   4.364
  758TIP3   OH2 2279   5.228   5.660   2.955
  758TIP3    H1 2280   5.139   5.681   2.927
  758TIP3    H2 2281   5.282   5.673   2.877
  759TIP3   OH2 2282   1.070   0.573   3.951
  759TIP3    H1 2283   1.016   0.500   3.918
  759TIP3    H2 2284   1.078   0.556   4.045
  760TIP3   OH2 2285   1.397   0.460   1.719
  760TIP3    H1 2286   1.437   0.524   1.778
  760TIP3    H2 2287   1.437   0.478   1.634
  761TIP3   OH2 2288   1.317   2.715   1.827
  761TIP3    H1 2289   1.332   2.809   1.838
  761TIP3    H2 2290   1.338   2.698   1.735
  762TIP3   OH2 2291   2.688   3.716   0.946
  762TIP3    H1 2292   2.626   3.786   0.964
  762TIP3    H2 2293   2.670   3.650   1.013
  763TIP3   OH2 2294   1.913   1.388   0.093
  763TIP3    H1 2295   1.925   1.294   0.077
  763TIP3    H2 2296   1.852   1.416   0.025
  764TIP3   OH2 2297   0.683   4.526   3.273
  764TIP3    H1 2298   0.598   4.549   3.312
  764TIP3    H2 2299   0.698   4.435   3.300
  765TIP3   OH2 2300   0.681   1.313   4.411
  765TIP3    H1 2301   0.673   1.404   4.440
  765TIP3    H2 2302   0.751   1.314   4.347
  766TIP3   OH2 2303   1.786   0.189   2.061
  766TIP3    H1 2304   1.690   0.196   2.059
  766TIP3    H2 2305   1.810   0.223   2.147
  767TIP3   OH2 2306   5.712   1.093   2.215
  767TIP3    H1 2307   5.752   1.016   2.255
  767TIP3    H2 2308   5.760   1.105   2.133
  768TIP3   OH2 2309   2.922   5.521   0.259
  768TIP3    H1 2310   2.956   5.575   0.187
  768TIP3    H2 2311   2.999   5.502   0.312
  769TIP3   OH2 2312   3.623   3.618   3.373
  769TIP3    H1 2313   3.652   3.671   3.299
  769TIP3    H2 2314   3.569   3.676   3.426
  770TIP3   OH2 2315   5.506   2.601   5.084
  770TIP3    H1 2316   5.515   2.679   5.029
  770TIP3    H2 2317   5.449   2.629   5.156
  771TIP3   OH2 2318   2.703   0.187   4.830
  771TIP3    H1 2319   2.692   0.206   4.736
  771TIP3    H2 2320   2.619   0.150   4.857
  772TIP3   OH2 2321   2.454   2.036   3.666
  772TIP3    H1 2322   2.476   2.060   3.756
  772TIP3    H2 2323   2.390   1.965   3.676
  773TIP3   OH2 2324   0.770   2.498   0.779
  773TIP3    H1 2325   0.833   2.528   0.713
  773TIP3    H2 2326   0.689   2.484   0.730
  774TIP3   OH2 2327   0.955   3.780   1.053
  774TIP3    H1 2328   0.960   3.730   0.972
  774TIP3    H2 2329   1.004   3.860   1.036
  775TIP3   OH2 2330   4.424   6.028   1.997
  775TIP3    H1 2331   4.478   5.995   1.925
  775TIP3    H2 2332   4.351   5.966   2.003
  776TIP3   OH2 2333   3.508   0.681   2.148
  776TIP3    H1 2334   3.516   0.588   2.165
  776TIP3    H2 2335   3.416   0.701   2.162
  777TIP3   OH2 2336   1.407   1.308   0.338
  777TIP3    H1 2337   1.465   1.232   0.344
  777TIP3    H2 2338   1.461   1.375   0.296
  778TIP3   OH2 2339   6.018   2.448   2.771
  778TIP3    H1 2340   6.095   2.421   2.820
  778TIP3    H2 2341   5.981   2.366   2.737
  779TIP3   OH2 2342   5.788   4.007   0.089
  779TIP3    H1 2343   5.755   3.964   0.168
  779TIP3    H2 2344   5.882   4.016   0.104
  780TIP3   OH2 2345   5.944   5.481   1.226
  780TIP3    H1 2346   5.957   5.543   1.298
  780TIP3    H2 2347   6.030   5.438   1.215
  781TIP3   OH2 2348   3.207   1.705   1.915
  781TIP3    H1 2349   3.236   1.713   1.824
  781TIP3    H2 2350   3.119   1.668   1.909
  782TIP3   OH2 2351   5.321   2.783   0.604
  782TIP3    H1 2352   5.302   2.736   0.523
  782TIP3    H2 2353   5.236   2.795   0.646
  783TIP3   OH2 2354   3.108   2.143   4.163
  783TIP3    H1 2355   3.156   2.136   4.080
  783TIP3    H2 2356   3.142   2.224   4.203
  784TIP3   OH2 2357   4.261   2.375   1.405
  784TIP3    H1 2358   4.236   2.468   1.405
  784TIP3    H2 2359   4.347   2.374   1.363
  785TIP3   OH2 2360   0.324   1.792   1.051
  785TIP3    H1 2361   0.360   1.709   1.020
  785TIP3    H2 2362   0.329   1.850   0.974
  786TIP3   OH2 2363   5.800   3.524   0.864
  786TIP3    H1 2364   5.881   3.491   0.824
  786TIP3    H2 2365   5.802   3.618   0.850
  787TIP3   OH2 2366   0.933   1.157   1.455
  787TIP3    H1 2367   0.947   1.111   1.538
  787TIP3    H2 2368   0.898   1.243   1.482
  788TIP3   OH2 2369   1.355   1.650   1.590
  788TIP3    H1 2370   1.434   1.596   1.592
  788TIP3    H2 2371   1.346   1.676   1.498
  789TIP3   OH2 2372   2.227   0.311   4.408
  789TIP3    H1 2373   2.223   0.261   4.490
  789TIP3    H2 2374   2.273   0.391   4.432
  790TIP3   OH2 2375   1.020   2.730   0.767
  790TIP3    H1 2376   1.090   2.762   0.711
  790TIP3    H2 2377   1.065   2.683   0.838
  791TIP3   OH2 2378   6.155   4.919   3.682
  791TIP3    H1 2379   6.119   4.831   3.690
  791TIP3    H2 2380   6.243   4.912   3.719
  792TIP3   OH2 2381   4.531   2.662   0.584
  792TIP3    H1 2382   4.505   2.698   0.500
  792TIP3    H2 2383   4.452   2.617   0.616
  793TIP3   OH2 2384   1.221   2.614   1.016
  793TIP3    H1 2385   1.179   2.536   1.050
  793TIP3    H2 2386   1.307   2.584   0.985
  794TIP3   OH2 2387   4.427   1.486   0.638
  794TIP3    H1 2388   4.349   1.443   0.602
  794TIP3    H2 2389   4.401   1.578   0.648
  795TIP3   OH2 2390   4.854   5.525   3.152
  795TIP3    H1 2391   4.939   5.569   3.152
  795TIP3    H2 2392   4.872   5.439   3.114
  796TIP3   OH2 2393   0.132   4.729   3.295
  796TIP3    H1 2394   0.060   4.666   3.291
  796TIP3    H2 2395   0.171   4.726   3.208
  797TIP3   OH2 2396   3.766   1.573   3.969
  797TIP3    H1 2397   3.786   1.540   3.881
  797TIP3    H2 2398   3.838   1.541   4.024
  798TIP3   OH2 2399   5.253   5.840   4.233
  798TIP3    H1 2400   5.239   5.756   4.189
  798TIP3    H2 2401   5.348   5.853   4.229
  799TIP3   OH2 2402   1.563   4.891   3.646
  799TIP3    H1 2403   1.544   4.905   3.739
  799TIP3    H2 2404   1.635   4.828   3.645
  800TIP3   OH2 2405   3.523   4.917   0.906
  800TIP3    H1 2406   3.453   4.852   0.892
  800TIP3    H2 2407   3.477   4.998   0.928
  801TIP3   OH2 2408   4.352   4.373   1.760
  801TIP3    H1 2409   4.270   4.420   1.750
  801TIP3    H2 2410   4.327   4.283   1.779
  802TIP3   OH2 2411   0.347   3.255   1.823
  802TIP3    H1 2412   0.298   3.253   1.906
  802TIP3    H2 2413   0.425   3.202   1.840
  803TIP3   OH2 2414   0.042   5.317   3.556
  803TIP3    H1 2415   0.049   5.397   3.609
  803TIP3    H2 2416  -0.029   5.267   3.597
  804TIP3   OH2 2417   3.966   1.555   4.181
  804TIP3    H1 2418   4.007   1.631   4.141
  804TIP3    H2 2419   3.923   1.589   4.260
  805TIP3   OH2 2420   3.201   0.890   1.218
  805TIP3    H1 2421   3.297   0.895   1.226
  805TIP3    H2 2422   3.171   0.980   1.229
  806TIP3   OH2 2423   3.172   4.253   4.028
  806TIP3    H1 2424   3.253   4.260   3.978
  806TIP3    H2 2425   3.145   4.344   4.042
  807TIP3   OH2 2426   6.154   2.900   0.813
  807TIP3    H1 2427   6.124   2.819   0.772
  807TIP3    H2 2428   6.223   2.873   0.873
  808TIP3   OH2 2429   6.159   1.094   2.236
  808TIP3    H1 2430   6.122   1.012   2.205
  808TIP3    H2 2431   6.112   1.162   2.187
  809TIP3   OH2 2432   3.323   5.656   1.733
  809TIP3    H1 2433   3.359   5.659   1.645
  809TIP3    H2 2434   3.381   5.596   1.781
  810TIP3   OH2 2435   4.637   5.768   1.224
  810TIP3    H1 2436   4.713   5.715   1.247
  810TIP3    H2 2437   4.629   5.758   1.129
  811TIP3   OH2 2438   3.078   1.233   0.468
  811TIP3    H1 2439   3.055   1.215   0.377
  811TIP3    H2 2440   3.117   1.152   0.499
  812TIP3   OH2 2441   0.109   3.450   2.661
  812TIP3    H1 2442   0.140   3.458   2.751
  812TIP3    H2 2443   0.049   3.524   2.649
  813TIP3   OH2 2444   2.174   0.460   2.116
  813TIP3    H1 2445   2.114   0.533   2.133
  813TIP3    H2 2446   2.156   0.433   2.026
  814TIP3   OH2 2447   0.270   2.103   4.234
  814TIP3    H1 2448   0.200   2.060   4.186
  814TIP3    H2 2449   0.345   2.100   4.175
  815TIP3   OH2 2450   3.803   1.241   0.471
  815TIP3    H1 2451   3.793   1.280   0.557
  815TIP3    H2 2452   3.816   1.148   0.488
  816TIP3   OH2 2453   0.608   2.588   2.834
  816TIP3    H1 2454   0.608   2.639   2.915
  816TIP3    H2 2455   0.653   2.506   2.858
  817TIP3   OH2 2456   1.634   1.536   1.583
  817TIP3    H1 2457   1.697   1.548   1.653
  817TIP3    H2 2458   1.647   1.446   1.553
  818TIP3   OH2 2459   4.887   4.912   1.179
  818TIP3    H1 2460   4.960   4.926   1.240
  818TIP3    H2 2461   4.811   4.899   1.236
  819TIP3   OH2 2462   4.783   2.065   0.336
  819TIP3    H1 2463   4.707   2.033   0.384
  819TIP3    H2 2464   4.850   1.997   0.349
  820TIP3   OH2 2465   1.171   3.725   0.208
  820TIP3    H1 2466   1.188   3.655   0.270
  820TIP3    H2 2467   1.227   3.797   0.237
  821TIP3   OH2 2468  -0.021   0.347   4.171
  821TIP3    H1 2469   0.021   0.420   4.124
  821TIP3    H2 2470   0.049   0.308   4.222
  822TIP3   OH2 2471   4.551   5.447   1.324
  822TIP3    H1 2472   4.629   5.496   1.301
  822TIP3    H2 2473   4.535   5.390   1.248
  823TIP3   OH2 2474   4.486   5.145   5.095
  823TIP3    H1 2475   4.450   5.207   5.157
  823TIP3    H2 2476   4.487   5.192   5.011
  824TIP3   OH2 2477   5.145   3.171   0.676
  824TIP3    H1 2478   5.105   3.104   0.621
  824TIP3    H2 2479   5.196   3.225   0.616
  825TIP3   OH2 2480   3.469   5.740   0.911
  825TIP3    H1 2481   3.479   5.809   0.845
  825TIP3    H2 2482   3.547   5.749   0.966
  826TIP3   OH2 2483   0.255   1.939   3.858
  826TIP3    H1 2484   0.350   1.945   3.870
  826TIP3    H2 2485   0.222   2.020   3.898
  827TIP3   OH2 2486   1.380   1.736   2.126
  827TIP3    H1 2487   1.334   1.813   2.092
  827TIP3    H2 2488   1.314   1.668   2.130
  828TIP3   OH2 2489   3.461   3.174   1.691
  828TIP3    H1 2490   3.444   3.240   1.624
  828TIP3    H2 2491   3.374   3.141   1.714
  829TIP3   OH2 2492   3.366   3.645   1.732
  829TIP3    H1 2493   3.372   3.562   1.778
  829TIP3    H2 2494   3.272   3.665   1.730
  830TIP3   OH2 2495   3.408   1.103   0.405
  830TIP3    H1 2496   3.453   1.187   0.407
  830TIP3    H2 2497   3.466   1.045   0.357
  831TIP3   OH2 2498   1.404   1.447   2.714
  831TIP3    H1 2499   1.355   1.499   2.777
  831TIP3    H2 2500   1.448   1.511   2.659
  832TIP3   OH2 2501   0.219   0.772   3.576
  832TIP3    H1 2502   0.203   0.681   3.601
  832TIP3    H2 2503   0.215   0.770   3.480
  833TIP3   OH2 2504   3.593   0.085   2.132
  833TIP3    H1 2505   3.561   0.175   2.127
  833TIP3    H2 2506   3.649   0.074   2.055
  834TIP3   OH2 2507   6.237   5.037   3.134
  834TIP3    H1 2508   6.240   5.006   3.224
  834TIP3    H2 2509   6.328   5.031   3.104
  835TIP3   OH2 2510   6.033   1.378   2.851
  835TIP3    H1 2511   6.045   1.402   2.759
  835TIP3    H2 2512   6.029   1.282   2.850
  836TIP3   OH2 2513   2.649   2.602   3.303
  836TIP3    H1 2514   2.602   2.554   3.372
  836TIP3    H2 2515   2.652   2.693   3.335
  837TIP3   OH2 2516   0.995   3.495   4.658
  837TIP3    H1 2517   1.022   3.502   4.566
  837TIP3    H2 2518   1.013   3.582   4.695
  838TIP3   OH2 2519   3.391   5.998   3.548
  838TIP3    H1 2520   3.341   5.927   3.587
  838TIP3    H2 2521   3.480   5.963   3.539
  839TIP3   OH2 2522   3.652   4.889   4.363
  839TIP3    H1 2523   3.662   4.833   4.286
  839TIP3    H2 2524   3.710   4.850   4.428
  840TIP3   OH2 2525   3.056   4.465   2.093
  840TIP3    H1 2526   2.977   4.425   2.058
  840TIP3    H2 2527   3.028   4.553   2.120
  841TIP3   OH2 2528   6.095   1.537   1.961
  841TIP3    H1 2529   6.076   1.590   2.039
  841TIP3    H2 2530   6.168   1.583   1.919
  842TIP3   OH2 2531   5.522   0.059   0.855
  842TIP3    H1 2532   5.611   0.034   0.879
  842TIP3    H2 2533   5.466   0.011   0.916
  843TIP3   OH2 2534   5.029   4.517   0.129
  843TIP3    H1 2535   5.010   4.554   0.215
  843TIP3    H2 2536   4.974   4.439   0.123
  844TIP3   OH2 2537   4.374   0.345   0.542
  844TIP3    H1 2538   4.411   0.284   0.478
  844TIP3    H2 2539   4.383   0.431   0.501
  845TIP3   OH2 2540   5.511   2.935   3.567
  845TIP3    H1 2541   5.438   2.996   3.583
  845TIP3    H2 2542   5.468   2.853   3.542
  846TIP3   OH2 2543   5.480   1.267   5.014
  846TIP3    H1 2544   5.407   1.212   5.043
  846TIP3    H2 2545   5.534   1.209   4.961
  847TIP3   OH2 2546   5.722   2.060   2.563
  847TIP3    H1 2547   5.662   2.089   2.631
  847TIP3    H2 2548   5.668   2.056   2.484
  848TIP3   OH2 2549   3.694   2.936   1.474
  848TIP3    H1 2550   3.691   2.969   1.564
  848TIP3    H2 2551   3.760   2.989   1.431
  849TIP3   OH2 2552   4.282   4.292   2.931
  849TIP3    H1 2553   4.358   4.345   2.906
  849TIP3    H2 2554   4.223   4.354   2.973
  850TIP3   OH2 2555   5.384   3.883   0.494
  850TIP3    H1 2556   5.401   3.942   0.567
  850TIP3    H2 2557   5.440   3.807   0.511
  851TIP3   OH2 2558   5.343   0.944   0.940
  851TIP3    H1 2559   5.411   0.877   0.933
  851TIP3    H2 2560   5.349   0.994   0.858
  852TIP3   OH2 2561   4.554   0.606   1.801
  852TIP3    H1 2562   4.482   0.663   1.774
  852TIP3    H2 2563   4.555   0.613   1.897
  853TIP3   OH2 2564   3.256   1.038   2.090
  853TIP3    H1 2565   3.239   0.976   2.160
  853TIP3    H2 2566   3.231   0.992   2.010
  854TIP3   OH2 2567   4.528   3.881   0.858
  854TIP3    H1 2568   4.462   3.950   0.867
  854TIP3    H2 2569   4.491   3.807   0.906
  855TIP3   OH2 2570   0.616   4.248   3.381
  855TIP3    H1 2571   0.707   4.278   3.372
  855TIP3    H2 2572   0.592   4.272   3.470
  856TIP3   OH2 2573   3.061   0.044   2.761
  856TIP3    H1 2574   3.023   0.113   2.706
  856TIP3    H2 2575   3.122  -0.002   2.703
  857TIP3   OH2 2576   5.670   0.579   2.053
  857TIP3    H1 2577   5.672   0.526   2.133
  857TIP3    H2 2578   5.649   0.667   2.083
  858TIP3   OH2 2579   4.393   1.486   1.820
  858TIP3    H1 2580   4.334   1.459   1.750
  858TIP3    H2 2581   4.352   1.453   1.900
  859TIP3   OH2 2582   1.351   0.709   1.441
  859TIP3    H1 2583   1.309   0.784   1.398
  859TIP3    H2 2584   1.290   0.636   1.428
  860TIP3   OH2 2585   0.343   2.518   2.803
  860TIP3    H1 2586   0.437   2.534   2.789
  860TIP3    H2 2587   0.308   2.502   2.716
  861TIP3   OH2 2588   1.277   3.726   2.376
  861TIP3    H1 2589   1.227   3.765   2.448
  861TIP3    H2 2590   1.324   3.800   2.337
  862TIP3   OH2 2591   3.561   2.599   1.523
  862TIP3    H1 2592   3.562   2.503   1.523
  862TIP3    H2 2593   3.578   2.623   1.432
  863TIP3   OH2 2594   4.028   5.932   0.431
  863TIP3    H1 2595   4.041   5.838   0.427
  863TIP3    H2 2596   3.934   5.944   0.419
  864TIP3   OH2 2597   1.285   3.874  -0.013
  864TIP3    H1 2598   1.311   3.888   0.078
  864TIP3    H2 2599   1.190   3.863  -0.009
  865TIP3   OH2 2600   0.872   3.526   4.908
  865TIP3    H1 2601   0.931   3.509   4.834
  865TIP3    H2 2602   0.929   3.528   4.985
  866TIP3   OH2 2603   5.191   2.487   1.428
  866TIP3    H1 2604   5.119   2.470   1.368
  866TIP3    H2 2605   5.260   2.523   1.373
  867TIP3   OH2 2606   5.978   3.918   0.886
  867TIP3    H1 2607   5.890   3.902   0.851
  867TIP3    H2 2608   5.990   3.849   0.952
  868TIP3   OH2 2609   1.727   2.813   3.821
  868TIP3    H1 2610   1.660   2.848   3.879
  868TIP3    H2 2611   1.805   2.864   3.842
  869TIP3   OH2 2612   2.968   2.112   5.009
  869TIP3    H1 2613   2.974   2.053   4.933
  869TIP3    H2 2614   2.885   2.159   4.995
  870TIP3   OH2 2615   5.190   3.784   0.169
  870TIP3    H1 2616   5.174   3.841   0.093
  870TIP3    H2 2617   5.106   3.742   0.186
  871TIP3   OH2 2618   6.156   2.505   1.469
  871TIP3    H1 2619   6.070   2.509   1.512
  871TIP3    H2 2620   6.170   2.412   1.452
  872TIP3   OH2 2621   2.626   3.632   2.435
  872TIP3    H1 2622   2.562   3.694   2.470
  872TIP3    H2 2623   2.593   3.612   2.347
  873TIP3   OH2 2624   2.786   0.512   4.097
  873TIP3    H1 2625   2.812   0.601   4.073
  873TIP3    H2 2626   2.786   0.464   4.014
  874TIP3   OH2 2627   3.061   5.423   2.259
  874TIP3    H1 2628   2.986   5.444   2.314
  874TIP3    H2 2629   3.111   5.359   2.308
  875TIP3   OH2 2630   1.286   5.749   2.445
  875TIP3    H1 2631   1.264   5.684   2.379
  875TIP3    H2 2632   1.380   5.738   2.461
  876TIP3   OH2 2633   2.113   4.536   1.074
  876TIP3    H1 2634   2.048   4.474   1.108
  876TIP3    H2 2635   2.193   4.514   1.121
  877TIP3   OH2 2636   1.511   4.948   4.936
  877TIP3    H1 2637   1.558   4.875   4.894
  877TIP3    H2 2638   1.454   4.982   4.868
  878TIP3   OH2 2639   4.686   4.613   0.623
  878TIP3    H1 2640   4.707   4.520   0.613
  878TIP3    H2 2641   4.750   4.644   0.688
  879TIP3   OH2 2642   6.130   3.416   4.520
  879TIP3    H1 2643   6.153   3.501   4.481
  879TIP3    H2 2644   6.138   3.354   4.448
  880TIP3   OH2 2645   2.811   1.189   4.099
  880TIP3    H1 2646   2.868   1.161   4.027
  880TIP3    H2 2647   2.861   1.168   4.178
  881TIP3   OH2 2648   5.503   1.892   0.690
  881TIP3    H1 2649   5.521   1.978   0.728
  881TIP3    H2 2650   5.533   1.900   0.599
  882TIP3   OH2 2651   4.128   5.677   4.471
  882TIP3    H1 2652   4.184   5.707   4.543
  882TIP3    H2 2653   4.120   5.754   4.413
  883TIP3   OH2 2654   1.865   2.771   3.588
  883TIP3    H1 2655   1.802   2.752   3.657
  883TIP3    H2 2656   1.818   2.827   3.526
  884TIP3   OH2 2657   4.499   3.261   4.908
  884TIP3    H1 2658   4.471   3.329   4.970
  884TIP3    H2 2659   4.585   3.289   4.879
  885TIP3   OH2 2660   1.451   0.760   3.894
  885TIP3    H1 2661   1.406   0.754   3.978
  885TIP3    H2 2662   1.382   0.756   3.829
  886TIP3   OH2 2663   3.608   3.242   5.085
  886TIP3    H1 2664   3.570   3.197   5.160
  886TIP3    H2 2665   3.613   3.333   5.112
  887TIP3   OH2 2666   3.390   3.441   1.907
  887TIP3    H1 2667   3.328   3.370   1.892
  887TIP3    H2 2668   3.364   3.479   1.991
  888TIP3   OH2 2669   0.342   3.988   2.527
  888TIP3    H1 2670   0.304   3.901   2.531
  888TIP3    H2 2671   0.387   3.999   2.611
  889TIP3   OH2 2672   1.918   5.257   4.712
  889TIP3    H1 2673   1.848   5.203   4.675
  889TIP3    H2 2674   1.994   5.199   4.717
  890TIP3   OH2 2675   3.095   3.408   0.467
  890TIP3    H1 2676   3.090   3.500   0.444
  890TIP3    H2 2677   3.179   3.379   0.430
  891TIP3   OH2 2678   2.801   4.778   4.306
  891TIP3    H1 2679   2.714   4.768   4.345
  891TIP3    H2 2680   2.826   4.868   4.326
  892TIP3   OH2 2681   0.302   0.520   4.332
  892TIP3    H1 2682   0.383   0.486   4.371
  892TIP3    H2 2683   0.248   0.442   4.317
  893TIP3   OH2 2684   3.403   1.940   1.055
  893TIP3    H1 2685   3.475   1.941   0.991
  893TIP3    H2 2686   3.446   1.923   1.139
  894TIP3   OH2 2687   1.919   5.125   2.986
  894TIP3    H1 2688   1.945   5.086   3.070
  894TIP3    H2 2689   1.973   5.080   2.921
  895TIP3   OH2 2690   5.347   5.008   1.448
  895TIP3    H1 2691   5.385   5.035   1.532
  895TIP3    H2 2692   5.360   5.083   1.390
  896TIP3   OH2 2693   5.071   2.729   1.392
  896TIP3    H1 2694   5.038   2.699   1.477
  896TIP3    H2 2695   5.054   2.656   1.332
  897TIP3   OH2 2696   2.519   3.493   1.032
  897TIP3    H1 2697   2.450   3.551   1.000
  897TIP3    H2 2698   2.538   3.526   1.120
  898TIP3   OH2 2699   4.029   3.244   4.392
  898TIP3    H1 2700   4.013   3.278   4.480
  898TIP3    H2 2701   3.947   3.261   4.345
  899TIP3   OH2 2702   0.583   5.564   1.219
  899TIP3    H1 2703   0.488   5.552   1.220
  899TIP3    H2 2704   0.612   5.527   1.302
  900TIP3   OH2 2705   2.942   5.979   1.258
  900TIP3    H1 2706   2.875   5.949   1.197
  900TIP3    H2 2707   3.004   6.028   1.204
  901TIP3   OH2 2708   6.011   4.234   4.454
  901TIP3    H1 2709   5.936   4.285   4.425
  901TIP3    H2 2710   6.085   4.270   4.405
  902TIP3   OH2 2711   4.772   1.124   1.800
  902TIP3    H1 2712   4.762   1.055   1.865
  902TIP3    H2 2713   4.762   1.080   1.716
  903TIP3   OH2 2714   4.296   0.558   0.102
  903TIP3    H1 2715   4.259   0.487   0.154
  903TIP3    H2 2716   4.289   0.528   0.011
  904TIP3   OH2 2717   1.980   1.548   0.661
  904TIP3    H1 2718   2.022   1.489   0.599
  904TIP3    H2 2719   2.040   1.622   0.668
  905TIP3   OH2 2720   0.693   4.167   4.664
  905TIP3    H1 2721   0.736   4.248   4.692
  905TIP3    H2 2722   0.630   4.195   4.598
  906TIP3   OH2 2723   1.254   1.266   3.357
  906TIP3    H1 2724   1.260   1.359   3.380
  906TIP3    H2 2725   1.298   1.260   3.272
  907TIP3   OH2 2726   4.029   2.527   1.839
  907TIP3    H1 2727   3.993   2.563   1.758
  907TIP3    H2 2728   4.120   2.506   1.817
  908TIP3   OH2 2729   0.187   0.740   4.713
  908TIP3    H1 2730   0.260   0.738   4.652
  908TIP3    H2 2731   0.206   0.814   4.771
  909TIP3   OH2 2732   4.097   1.302   2.315
  909TIP3    H1 2733   4.080   1.338   2.229
  909TIP3    H2 2734   4.019   1.326   2.367
  910TIP3   OH2 2735   3.544   0.728   4.713
  910TIP3    H1 2736   3.517   0.669   4.643
  910TIP3    H2 2737   3.463   0.765   4.746
  911TIP3   OH2 2738   1.271   3.014   4.010
  911TIP3    H1 2739   1.191   3.008   3.958
  911TIP3    H2 2740   1.286   3.108   4.021
  912TIP3   OH2 2741   5.316   4.596   2.648
  912TIP3    H1 2742   5.333   4.522   2.589
  912TIP3    H2 2743   5.225   4.585   2.676
  913TIP3   OH2 2744   0.485   3.271   4.934
  913TIP3    H1 2745   0.550   3.258   5.004
  913TIP3    H2 2746   0.526   3.233   4.856
  914TIP3   OH2 2747   4.256   0.165   0.919
  914TIP3    H1 2748   4.226   0.076   0.904
  914TIP3    H2 2749   4.206   0.218   0.857
  915TIP3   OH2 2750   4.805   2.169   4.367
  915TIP3    H1 2751   4.876   2.215   4.412
  915TIP3    H2 2752   4.726   2.195   4.416
  916TIP3   OH2 2753   1.676   2.353   5.024
  916TIP3    H1 2754   1.770   2.371   5.029
  916TIP3    H2 2755   1.669   2.258   5.028
  917TIP3   OH2 2756   4.129   2.955   2.773
  917TIP3    H1 2757   4.161   3.045   2.766
  917TIP3    H2 2758   4.059   2.960   2.838
  918TIP3   OH2 2759   0.043   2.667   0.554
  918TIP3    H1 2760  -0.010   2.598   0.595
  918TIP3    H2 2761   0.133   2.645   0.578
  919TIP3   OH2 2762   0.684   0.401   0.299
  919TIP3    H1 2763   0.669   0.351   0.379
  919TIP3    H2 2764   0.644   0.348   0.230
  920TIP3   OH2 2765   4.002   2.723   3.707
  920TIP3    H1 2766   3.917   2.745   3.744
  920TIP3    H2 2767   4.003   2.627   3.705
  921TIP3   OH2 2768   0.134   0.498   3.600
  921TIP3    H1 2769   0.144   0.433   3.668
  921TIP3    H2 2770   0.040   0.518   3.599
  922TIP3   OH2 2771   4.517   5.770   5.063
  922TIP3    H1 2772   4.487   5.859   5.048
  922TIP3    H2 2773   4.542   5.737   4.977
  923TIP3   OH2 2774   4.791   0.039   4.314
  923TIP3    H1 2775   4.874   0.079   4.339
  923TIP3    H2 2776   4.736   0.112   4.285
  924TIP3   OH2 2777   0.899   2.501   4.398
  924TIP3    H1 2778   0.957   2.427   4.382
  924TIP3    H2 2779   0.951   2.578   4.373
  925TIP3   OH2 2780   0.638   1.884   2.727
  925TIP3    H1 2781   0.731   1.861   2.727
  925TIP3    H2 2782   0.636   1.979   2.720
  926TIP3   OH2 2783   2.275   2.181   0.262
  926TIP3    H1 2784   2.236   2.095   0.246
  926TIP3    H2 2785   2.350   2.164   0.319
  927TIP3   OH2 2786   1.156   0.466   1.148
  927TIP3    H1 2787   1.155   0.472   1.243
  927TIP3    H2 2788   1.194   0.549   1.119
  928TIP3   OH2 2789   4.544   5.187   4.420
  928TIP3    H1 2790   4.452   5.176   4.394
  928TIP3    H2 2791   4.594   5.156   4.344
  929TIP3   OH2 2792   3.437   0.316   0.610
  929TIP3    H1 2793   3.413   0.314   0.518
  929TIP3    H2 2794   3.441   0.224   0.636
  930TIP3   OH2 2795   3.611   2.433   5.149
  930TIP3    H1 2796   3.562   2.512   5.173
  930TIP3    H2 2797   3.661   2.458   5.072
  931TIP3   OH2 2798   3.592   4.620   3.868
  931TIP3    H1 2799   3.582   4.711   3.841
  931TIP3    H2 2800   3.584   4.622   3.963
  932TIP3   OH2 2801   0.292   1.212   4.257
  932TIP3    H1 2802   0.316   1.148   4.325
  932TIP3    H2 2803   0.263   1.158   4.184
  933TIP3   OH2 2804   3.384   5.214   0.184
  933TIP3    H1 2805   3.309   5.193   0.239
  933TIP3    H2 2806   3.458   5.217   0.244
  934TIP3   OH2 2807   2.696   1.802   1.882
  934TIP3    H1 2808   2.652   1.718   1.894
  934TIP3    H2 2809   2.746   1.815   1.963
  935TIP3   OH2 2810   4.494   3.445   1.225
  935TIP3    H1 2811   4.564   3.498   1.262
  935TIP3    H2 2812   4.539   3.369   1.188
  936TIP3   OH2 2813   3.303   4.666   2.175
  936TIP3    H1 2814   3.387   4.635   2.209
  936TIP3    H2 2815   3.318   4.681   2.082
  937TIP3   OH2 2816   0.503   2.564   1.420
  937TIP3    H1 2817   0.420   2.523   1.399
  937TIP3    H2 2818   0.491   2.601   1.508
  938TIP3   OH2 2819   3.144   5.698   2.456
  938TIP3    H1 2820   3.124   5.652   2.538
  938TIP3    H2 2821   3.134   5.791   2.477
  939TIP3   OH2 2822   0.824   0.593   3.107
  939TIP3    H1 2823   0.774   0.626   3.032
  939TIP3    H2 2824   0.772   0.616   3.183
  940TIP3   OH2 2825   5.176   2.156   3.127
  940TIP3    H1 2826   5.103   2.219   3.134
  940TIP3    H2 2827   5.193   2.150   3.033
  941TIP3   OH2 2828   4.801   5.561   1.238
  941TIP3    H1 2829   4.845   5.490   1.192
  941TIP3    H2 2830   4.845   5.566   1.323
  942TIP3   OH2 2831   2.613   2.338   3.759
  942TIP3    H1 2832   2.657   2.311   3.840
  942TIP3    H2 2833   2.663   2.296   3.689
  943TIP3   OH2 2834   4.237   1.833   4.417
  943TIP3    H1 2835   4.164   1.830   4.479
  943TIP3    H2 2836   4.213   1.902   4.355
  944TIP3   OH2 2837   4.427   0.611   4.451
  944TIP3    H1 2838   4.492   0.618   4.521
  944TIP3    H2 2839   4.346   0.589   4.497
  945TIP3   OH2 2840   4.283   2.377   4.835
  945TIP3    H1 2841   4.263   2.335   4.918
  945TIP3    H2 2842   4.292   2.470   4.856
  946TIP3   OH2 2843   4.217   3.995   1.228
  946TIP3    H1 2844   4.293   4.013   1.172
  946TIP3    H2 2845   4.144   3.988   1.167
  947TIP3   OH2 2846   3.347   0.589   3.447
  947TIP3    H1 2847   3.286   0.627   3.384
  947TIP3    H2 2848   3.291   0.545   3.511
  948TIP3   OH2 2849   3.860   1.952   0.925
  948TIP3    H1 2850   3.809   1.889   0.976
  948TIP3    H2 2851   3.826   1.944   0.836
  949TIP3   OH2 2852   3.787   2.635   1.272
  949TIP3    H1 2853   3.839   2.701   1.316
  949TIP3    H2 2854   3.804   2.554   1.321
  950TIP3   OH2 2855   6.335   4.856   2.843
  950TIP3    H1 2856   6.345   4.841   2.749
  950TIP3    H2 2857   6.376   4.942   2.857
  951TIP3   OH2 2858   5.073   4.312   0.830
  951TIP3    H1 2859   5.009   4.316   0.901
  951TIP3    H2 2860   5.129   4.239   0.852
  952TIP3   OH2 2861   6.175   3.441   3.766
  952TIP3    H1 2862   6.099   3.384   3.754
  952TIP3    H2 2863   6.249   3.380   3.770
  953TIP3   OH2 2864   4.265   3.442   2.132
  953TIP3    H1 2865   4.303   3.436   2.044
  953TIP3    H2 2866   4.341   3.447   2.191
  954TIP3   OH2 2867   2.259   2.496   3.347
  954TIP3    H1 2868   2.168   2.517   3.370
  954TIP3    H2 2869   2.253   2.416   3.295
  955TIP3   OH2 2870   1.812   2.109   1.068
  955TIP3    H1 2871   1.790   2.202   1.079
  955TIP3    H2 2872   1.907   2.108   1.056
  956TIP3   OH2 2873   4.241   4.567   5.076
  956TIP3    H1 2874   4.147   4.551   5.072
  956TIP3    H2 2875   4.249   4.655   5.113
  957TIP3   OH2 2876   5.809   2.874   0.035
  957TIP3    H1 2877   5.791   2.868  -0.059
  957TIP3    H2 2878   5.775   2.791   0.071
  958TIP3   OH2 2879   3.800   4.700   5.191
  958TIP3    H1 2880   3.747   4.742   5.123
  958TIP3    H2 2881   3.861   4.644   5.142
  959TIP3   OH2 2882   0.114   5.079   1.003
  959TIP3    H1 2883   0.048   5.146   0.988
  959TIP3    H2 2884   0.197   5.126   1.001
  960TIP3   OH2 2885   5.648   2.447   2.283
  960TIP3    H1 2886   5.661   2.382   2.352
  960TIP3    H2 2887   5.616   2.397   2.209
  961TIP3   OH2 2888   1.251   5.363   3.590
  961TIP3    H1 2889   1.302   5.324   3.662
  961TIP3    H2 2890   1.316   5.382   3.523
  962TIP3   OH2 2891   2.536   1.203   1.120
  962TIP3    H1 2892   2.521   1.109   1.130
  962TIP3    H2 2893   2.457   1.236   1.077
  963TIP3   OH2 2894   4.214   5.800   4.740
  963TIP3    H1 2895   4.234   5.893   4.727
  963TIP3    H2 2896   4.277   5.755   4.683
  964TIP3   OH2 2897   1.985  -0.005   0.519
  964TIP3    H1 2898   2.051  -0.074   0.525
  964TIP3    H2 2899   2.017   0.065   0.577
  965TIP3   OH2 2900   4.956   5.737   0.883
  965TIP3    H1 2901   4.983   5.781   0.803
  965TIP3    H2 2902   5.037   5.703   0.922
  966TIP3   OH2 2903   1.811   1.313   1.003
  966TIP3    H1 2904   1.863   1.392   0.996
  966TIP3    H2 2905   1.847   1.254   0.938
  967TIP3   OH2 2906   2.082   4.061   4.322
  967TIP3    H1 2907   2.175   4.058   4.343
  967TIP3    H2 2908   2.051   3.972   4.335
  968TIP3   OH2 2909   5.646   1.922   3.663
  968TIP3    H1 2910   5.663   2.012   3.635
  968TIP3    H2 2911   5.578   1.892   3.602
  969TIP3   OH2 2912   5.025   1.591   4.063
  969TIP3    H1 2913   4.930   1.579   4.055
  969TIP3    H2 2914   5.056   1.595   3.972
  970TIP3   OH2 2915   0.825   3.738   4.141
  970TIP3    H1 2916   0.903   3.788   4.165
  970TIP3    H2 2917   0.826   3.736   4.046
  971TIP3   OH2 2918   5.940   5.728   3.898
  971TIP3    H1 2919   5.946   5.635   3.876
  971TIP3    H2 2920   5.860   5.758   3.854
  972TIP3   OH2 2921   2.496   5.079   0.337
  972TIP3    H1 2922   2.482   5.172   0.354
  972TIP3    H2 2923   2.422   5.054   0.281
  973TIP3   OH2 2924   5.781   3.042   0.930
  973TIP3    H1 2925   5.865   3.088   0.926
  973TIP3    H2 2926   5.718   3.102   0.890
  974TIP3   OH2 2927   0.540   5.133   2.657
  974TIP3    H1 2928   0.595   5.063   2.623
  974TIP3    H2 2929   0.583   5.214   2.629
  975TIP3   OH2 2930   0.295   5.056   4.043
  975TIP3    H1 2931   0.229   5.119   4.014
  975TIP3    H2 2932   0.375   5.083   3.997
  976TIP3   OH2 2933   3.605   2.569   0.961
  976TIP3    H1 2934   3.676   2.633   0.967
  976TIP3    H2 2935   3.594   2.555   0.867
  977TIP3   OH2 2936   2.968   0.706   4.824
  977TIP3    H1 2937   2.929   0.621   4.803
  977TIP3    H2 2938   3.062   0.689   4.830
  978TIP3   OH2 2939   4.752   5.325   2.435
  978TIP3    H1 2940   4.666   5.351   2.402
  978TIP3    H2 2941   4.739   5.237   2.469
  979TIP3   OH2 2942   0.224   1.281   4.848
  979TIP3    H1 2943   0.189   1.282   4.937
  979TIP3    H2 2944   0.317   1.302   4.859
  980TIP3   OH2 2945   1.971   2.256   2.973
  980TIP3    H1 2946   2.038   2.322   2.993
  980TIP3    H2 2947   1.899   2.278   3.032
  981TIP3   OH2 2948   3.023   3.301   0.860
  981TIP3    H1 2949   2.944   3.252   0.838
  981TIP3    H2 2950   3.084   3.236   0.893
  982TIP3   OH2 2951   1.379   5.864   1.407
  982TIP3    H1 2952   1.302   5.843   1.461
  982TIP3    H2 2953   1.403   5.781   1.365
  983TIP3   OH2 2954   1.903   1.623   4.109
  983TIP3    H1 2955   1.966   1.666   4.167
  983TIP3    H2 2956   1.899   1.533   4.140
  984TIP3   OH2 2957   0.257   1.881   2.745
  984TIP3    H1 2958   0.303   1.932   2.678
  984TIP3    H2 2959   0.254   1.939   2.821
  985TIP3   OH2 2960   0.298   2.146   1.420
  985TIP3    H1 2961   0.372   2.162   1.479
  985TIP3    H2 2962   0.283   2.051   1.425
  986TIP3   OH2 2963   1.284   3.303   4.759
  986TIP3    H1 2964   1.230   3.322   4.836
  986TIP3    H2 2965   1.327   3.220   4.780
  987TIP3   OH2 2966   3.762   0.822   3.018
  987TIP3    H1 2967   3.700   0.778   3.076
  987TIP3    H2 2968   3.761   0.770   2.937
  988TIP3   OH2 2969   0.990   3.298   3.853
  988TIP3    H1 2970   0.939   3.359   3.907
  988TIP3    H2 2971   1.068   3.348   3.828
  989TIP3   OH2 2972   5.168   4.936   4.670
  989TIP3    H1 2973   5.172   4.997   4.743
  989TIP3    H2 2974   5.211   4.982   4.598
  990TIP3   OH2 2975   4.644   0.608   1.479
  990TIP3    H1 2976   4.677   0.659   1.552
  990TIP3    H2 2977   4.697   0.528   1.479
  991TIP3   OH2 2978   3.663   5.914   3.568
  991TIP3    H1 2979   3.757   5.924   3.581
  991TIP3    H2 2980   3.632   5.869   3.647
  992TIP3   OH2 2981   3.611   0.342   1.685
  992TIP3    H1 2982   3.682   0.404   1.666
  992TIP3    H2 2983   3.632   0.265   1.633
  993TIP3   OH2 2984   6.192   4.992   2.006
  993TIP3    H1 2985   6.102   5.013   1.980
  993TIP3    H2 2986   6.188   4.982   2.101
  994TIP3   OH2 2987   4.542   3.027   5.079
  994TIP3    H1 2988   4.618   2.977   5.049
  994TIP3    H2 2989   4.522   3.086   5.007
  995TIP3   OH2 2990   2.221   0.008   1.331
  995TIP3    H1 2991   2.249   0.097   1.311
  995TIP3    H2 2992   2.218   0.004   1.426
  996TIP3   OH2 2993   1.498   2.376   0.219
  996TIP3    H1 2994   1.453   2.349   0.139
  996TIP3    H2 2995   1.474   2.310   0.283
  997TIP3   OH2 2996   2.561   0.190   0.536
  997TIP3    H1 2997   2.552   0.095   0.541
  997TIP3    H2 2998   2.481   0.219   0.492
  998TIP3   OH2 2999   5.861   2.558   0.536
  998TIP3    H1 3000   5.845   2.495   0.466
  998TIP3    H2 3001   5.799   2.533   0.605
  999TIP3   OH2 3002   2.487   0.075   4.946
  999TIP3    H1 3003   2.516  -0.005   4.991
  999TIP3    H2 3004   2.436   0.122   5.011
 1000TIP3   OH2 3005   0.747   2.831   2.412
 1000TIP3    H1 3006   0.679   2.871   2.466
 1000TIP3    H2 3007   0.785   2.905   2.363
 1001TIP3   OH2 3008   2.968   4.337   2.488
 1001TIP3    H1 3009   2.958   4.282   2.410
 1001TIP3    H2 3010   3.062   4.332   2.509
 1002TIP3   OH2 3011   2.713   5.722   4.710
 1002TIP3    H1 3012   2.679   5.700   4.797
 1002TIP3    H2 3013   2.803   5.750   4.727
 1003TIP3   OH2 3014   5.918   4.801   2.211
 1003TIP3    H1 3015   5.987   4.867   2.214
 1003TIP3    H2 3016   5.955   4.728   2.161
 1004TIP3   OH2 3017   5.473   2.207   5.167
 1004TIP3    H1 3018   5.527   2.140   5.127
 1004TIP3    H2 3019   5.532   2.256   5.224
 1005TIP3   OH2 3020   3.037   3.620   2.259
 1005TIP3    H1 3021   3.002   3.676   2.329
 1005TIP3    H2 3022   3.076   3.546   2.305
 1006TIP3   OH2 3023   3.093   2.549   2.034
 1006TIP3    H1 3024   3.034   2.612   1.992
 1006TIP3    H2 3025   3.077   2.467   1.988
 1007TIP3   OH2 3026   3.727   2.120   4.778
 1007TIP3    H1 3027   3.704   2.168   4.858
 1007TIP3    H2 3028   3.821   2.131   4.770
 1008TIP3   OH2 3029   2.945   3.942   1.898
 1008TIP3    H1 3030   2.928   3.865   1.843
 1008TIP3    H2 3031   2.875   3.941   1.963
 1009TIP3   OH2 3032   6.249   0.264   1.250
 1009TIP3    H1 3033   6.192   0.304   1.185
 1009TIP3    H2 3034   6.337   0.290   1.223
 1010TIP3   OH2 3035   3.743   0.674   1.987
 1010TIP3    H1 3036   3.779   0.596   2.029
 1010TIP3    H2 3037   3.665   0.695   2.037
 1011TIP3   OH2 3038   1.573   2.074   0.810
 1011TIP3    H1 3039   1.618   2.121   0.740
 1011TIP3    H2 3040   1.627   1.997   0.826
 1012TIP3   OH2 3041   2.039   3.745   3.471
 1012TIP3    H1 3042   2.059   3.758   3.378
 1012TIP3    H2 3043   2.109   3.790   3.518
 1013TIP3   OH2 3044   3.616   1.821   4.951
 1013TIP3    H1 3045   3.631   1.908   4.914
 1013TIP3    H2 3046   3.522   1.817   4.966
 1014TIP3   OH2 3047   4.108   2.966   4.399
 1014TIP3    H1 3048   4.078   3.056   4.392
 1014TIP3    H2 3049   4.200   2.970   4.375
 1015TIP3   OH2 3050   5.050   5.583   3.694
 1015TIP3    H1 3051   4.993   5.509   3.671
 1015TIP3    H2 3052   5.056   5.580   3.789
 1016TIP3   OH2 3053   6.190   5.490   0.097
 1016TIP3    H1 3054   6.121   5.455   0.153
 1016TIP3    H2 3055   6.207   5.578   0.132
 1017TIP3   OH2 3056   0.200   1.094   1.606
 1017TIP3    H1 3057   0.263   1.160   1.634
 1017TIP3    H2 3058   0.158   1.066   1.688
 1018TIP3   OH2 3059   5.547   3.839   1.777
 1018TIP3    H1 3060   5.626   3.893   1.783
 1018TIP3    H2 3061   5.558   3.790   1.695
 1019TIP3   OH2 3062   1.658   0.947   1.725
 1019TIP3    H1 3063   1.730   0.885   1.712
 1019TIP3    H2 3064   1.644   0.948   1.820
 1020TIP3   OH2 3065   0.829   5.330   3.278
 1020TIP3    H1 3066   0.848   5.271   3.205
 1020TIP3    H2 3067   0.847   5.278   3.356
 1021TIP3   OH2 3068   4.985   2.940   0.564
 1021TIP3    H1 3069   4.969   2.885   0.488
 1021TIP3    H2 3070   4.999   2.878   0.636
 1022TIP3   OH2 3071   0.849   0.203   2.365
 1022TIP3    H1 3072   0.795   0.154   2.303
 1022TIP3    H2 3073   0.912   0.139   2.398
 1023TIP3   OH2 3074   1.260   1.821   3.219
 1023TIP3    H1 3075   1.333   1.764   3.193
 1023TIP3    H2 3076   1.182   1.773   3.193
 1024TIP3   OH2 3077   1.052   1.942   4.897
 1024TIP3    H1 3078   1.055   1.981   4.984
 1024TIP3    H2 3079   1.132   1.889   4.892
 1025TIP3   OH2 3080   6.290   5.915   4.214
 1025TIP3    H1 3081   6.214   5.924   4.272
 1025TIP3    H2 3082   6.272   5.835   4.164
 1026TIP3   OH2 3083   3.934   3.516   4.896
 1026TIP3    H1 3084   3.892   3.438   4.933
 1026TIP3    H2 3085   3.963   3.566   4.972
 1027TIP3   OH2 3086   3.738   2.642   3.707
 1027TIP3    H1 3087   3.748   2.631   3.801
 1027TIP3    H2 3088   3.727   2.553   3.673
 1028TIP3   OH2 3089   2.424   0.363   4.891
 1028TIP3    H1 3090   2.485   0.395   4.825
 1028TIP3    H2 3091   2.454   0.275   4.912
 1029TIP3   OH2 3092   6.215   5.399   1.208
 1029TIP3    H1 3093   6.229   5.350   1.127
 1029TIP3    H2 3094   6.203   5.331   1.274
 1030TIP3   OH2 3095   4.367   2.201   3.680
 1030TIP3    H1 3096   4.368   2.149   3.599
 1030TIP3    H2 3097   4.283   2.247   3.678
 1031TIP3   OH2 3098   4.633   2.774   0.234
 1031TIP3    H1 3099   4.547   2.737   0.253
 1031TIP3    H2 3100   4.652   2.831   0.308
 1032TIP3   OH2 3101   4.000   1.353   0.040
 1032TIP3    H1 3102   4.042   1.312  -0.036
 1032TIP3    H2 3103   4.072   1.391   0.090
 1033TIP3   OH2 3104   3.750   3.886   0.509
 1033TIP3    H1 3105   3.734   3.843   0.424
 1033TIP3    H2 3106   3.727   3.819   0.573
 1034TIP3   OH2 3107   3.054   4.294   5.128
 1034TIP3    H1 3108   3.113   4.224   5.153
 1034TIP3    H2 3109   2.972   4.250   5.107
 1035TIP3   OH2 3110   2.558   5.876   3.077
 1035TIP3    H1 3111   2.647   5.856   3.107
 1035TIP3    H2 3112   2.523   5.792   3.049
 1036TIP3   OH2 3113   0.765   5.184   2.242
 1036TIP3    H1 3114   0.755   5.134   2.323
 1036TIP3    H2 3115   0.715   5.134   2.177
 1037TIP3   OH2 3116   3.807   0.737   2.680
 1037TIP3    H1 3117   3.739   0.798   2.650
 1037TIP3    H2 3118   3.889   0.782   2.662
 1038TIP3   OH2 3119   0.202   5.848   2.699
 1038TIP3    H1 3120   0.251   5.820   2.777
 1038TIP3    H2 3121   0.145   5.918   2.731
 1039TIP3   OH2 3122   2.842   3.530   3.676
 1039TIP3    H1 3123   2.839   3.623   3.700
 1039TIP3    H2 3124   2.866   3.529   3.584
 1040TIP3   OH2 3125   3.678   4.971   1.962
 1040TIP3    H1 3126   3.713   4.883   1.946
 1040TIP3    H2 3127   3.754   5.022   1.990
 1041TIP3   OH2 3128   2.707   2.435   0.622
 1041TIP3    H1 3129   2.742   2.368   0.564
 1041TIP3    H2 3130   2.621   2.456   0.587
 1042TIP3   OH2 3131   4.289   1.195   0.941
 1042TIP3    H1 3132   4.201   1.155   0.945
 1042TIP3    H2 3133   4.313   1.191   0.849
 1043TIP3   OH2 3134   2.508   4.638   1.591
 1043TIP3    H1 3135   2.512   4.678   1.505
 1043TIP3    H2 3136   2.478   4.708   1.649
 1044TIP3   OH2 3137   5.092   3.534   4.982
 1044TIP3    H1 3138   5.128   3.597   5.045
 1044TIP3    H2 3139   5.047   3.589   4.917
 1045TIP3   OH2 3140   1.763   4.757   0.071
 1045TIP3    H1 3141   1.737   4.698   0.142
 1045TIP3    H2 3142   1.707   4.734  -0.002
 1046TIP3   OH2 3143   1.756   3.576   0.871
 1046TIP3    H1 3144   1.773   3.632   0.946
 1046TIP3    H2 3145   1.662   3.585   0.854
 1047TIP3   OH2 3146   2.667   1.023   2.920
 1047TIP3    H1 3147   2.735   1.090   2.913
 1047TIP3    H2 3148   2.641   1.026   3.012
 1048TIP3   OH2 3149   4.099   4.865   5.194
 1048TIP3    H1 3150   4.048   4.901   5.266
 1048TIP3    H2 3151   4.050   4.888   5.115
 1049TIP3   OH2 3152   4.878   4.087   5.170
 1049TIP3    H1 3153   4.932   4.070   5.093
 1049TIP3    H2 3154   4.829   4.166   5.147
 1050TIP3   OH2 3155   2.313   0.753   4.951
 1050TIP3    H1 3156   2.284   0.844   4.959
 1050TIP3    H2 3157   2.385   0.745   5.014
 1051TIP3   OH2 3158   4.114   1.338   1.232
 1051TIP3    H1 3159   4.120   1.313   1.324
 1051TIP3    H2 3160   4.139   1.258   1.184
 1052TIP3   OH2 3161   1.159   0.186   3.764
 1052TIP3    H1 3162   1.124   0.139   3.688
 1052TIP3    H2 3163   1.085   0.237   3.797
 1053TIP3   OH2 3164   4.966   4.016   4.626
 1053TIP3    H1 3165   4.977   4.103   4.589
 1053TIP3    H2 3166   5.009   4.020   4.712
 1054TIP3   OH2 3167   0.561   0.443   4.749
 1054TIP3    H1 3168   0.638   0.424   4.694
 1054TIP3    H2 3169   0.514   0.359   4.753
 1055TIP3   OH2 3170   0.054   1.046   1.856
 1055TIP3    H1 3171   0.014   1.131   1.876
 1055TIP3    H2 3172   0.121   1.035   1.923
 1056TIP3   OH2 3173   0.696   0.591   0.612
 1056TIP3    H1 3174   0.714   0.634   0.528
 1056TIP3    H2 3175   0.656   0.658   0.666
 1057TIP3   OH2 3176   1.607   2.623   4.130
 1057TIP3    H1 3177   1.639   2.670   4.208
 1057TIP3    H2 3178   1.517   2.654   4.118
 1058TIP3   OH2 3179   2.954   2.950   2.628
 1058TIP3    H1 3180   2.859   2.946   2.615
 1058TIP3    H2 3181   2.967   3.011   2.700
 1059TIP3   OH2 3182   4.229   2.281   2.111
 1059TIP3    H1 3183   4.261   2.307   2.025
 1059TIP3    H2 3184   4.299   2.305   2.171
 1060TIP3   OH2 3185   5.766   2.086   1.571
 1060TIP3    H1 3186   5.753   2.135   1.490
 1060TIP3    H2 3187   5.685   2.101   1.621
 1061TIP3   OH2 3188   5.154   2.131   4.380
 1061TIP3    H1 3189   5.186   2.194   4.315
 1061TIP3    H2 3190   5.222   2.129   4.447
 1062TIP3   OH2 3191   0.360   0.251   4.080
 1062TIP3    H1 3192   0.418   0.261   4.156
 1062TIP3    H2 3193   0.353   0.156   4.068
 1063TIP3   OH2 3194   3.883   1.264   2.808
 1063TIP3    H1 3195   3.916   1.175   2.796
 1063TIP3    H2 3196   3.944   1.319   2.758
 1064TIP3   OH2 3197   2.482   5.718   4.930
 1064TIP3    H1 3198   2.469   5.678   4.843
 1064TIP3    H2 3199   2.394   5.728   4.965
 1065TIP3   OH2 3200   3.049   3.734   3.153
 1065TIP3    H1 3201   3.090   3.820   3.170
 1065TIP3    H2 3202   2.977   3.753   3.093
 1066TIP3   OH2 3203   4.945   2.368   3.710
 1066TIP3    H1 3204   4.954   2.327   3.623
 1066TIP3    H2 3205   4.904   2.453   3.692
 1067TIP3   OH2 3206   4.312   0.857   1.372
 1067TIP3    H1 3207   4.350   0.937   1.336
 1067TIP3    H2 3208   4.235   0.887   1.421
 1068TIP3   OH2 3209   4.344   4.085   0.918
 1068TIP3    H1 3210   4.252   4.073   0.897
 1068TIP3    H2 3211   4.381   4.132   0.843
 1069TIP3   OH2 3212   3.392   4.631   0.909
 1069TIP3    H1 3213   3.310   4.677   0.928
 1069TIP3    H2 3214   3.365   4.552   0.864
 1070TIP3   OH2 3215   5.552   1.653   3.006
 1070TIP3    H1 3216   5.561   1.581   3.068
 1070TIP3    H2 3217   5.509   1.722   3.056
 1071TIP3   OH2 3218   5.749   5.472   3.749
 1071TIP3    H1 3219   5.771   5.565   3.745
 1071TIP3    H2 3220   5.792   5.433   3.673
 1072TIP3   OH2 3221   2.274   5.115   1.970
 1072TIP3    H1 3222   2.324   5.179   1.920
 1072TIP3    H2 3223   2.235   5.058   1.903
 1073TIP3   OH2 3224   0.246   5.421   3.112
 1073TIP3    H1 3225   0.338   5.398   3.100
 1073TIP3    H2 3226   0.242   5.460   3.200
 1074TIP3   OH2 3227   0.600   3.696   3.792
 1074TIP3    H1 3228   0.672   3.755   3.816
 1074TIP3    H2 3229   0.635   3.608   3.806
 1075TIP3   OH2 3230   2.816   1.499   2.717
 1075TIP3    H1 3231   2.798   1.585   2.679
 1075TIP3    H2 3232   2.785   1.505   2.807
 1076TIP3   OH2 3233   4.023   3.991   3.053
 1076TIP3    H1 3234   3.984   4.038   2.979
 1076TIP3    H2 3235   4.089   3.935   3.014
 1077TIP3   OH2 3236   3.349   4.521   0.176
 1077TIP3    H1 3237   3.421   4.508   0.238
 1077TIP3    H2 3238   3.270   4.516   0.230
 1078TIP3   OH2 3239   2.761   1.211   4.575
 1078TIP3    H1 3240   2.695   1.144   4.590
 1078TIP3    H2 3241   2.715   1.294   4.587
 1079TIP3   OH2 3242   2.492   5.889   1.900
 1079TIP3    H1 3243   2.496   5.866   1.993
 1079TIP3    H2 3244   2.582   5.913   1.879
 1080TIP3   OH2 3245   4.953   5.963   1.176
 1080TIP3    H1 3246   4.899   5.990   1.251
 1080TIP3    H2 3247   4.891   5.953   1.104
 1081TIP3   OH2 3248   5.599   2.880   1.323
 1081TIP3    H1 3249   5.524   2.857   1.378
 1081TIP3    H2 3250   5.645   2.797   1.309
 1082TIP3   OH2 3251   5.207   2.220   2.864
 1082TIP3    H1 3252   5.135   2.215   2.802
 1082TIP3    H2 3253   5.217   2.314   2.881
 1083TIP3   OH2 3254   5.010   0.223   4.345
 1083TIP3    H1 3255   5.009   0.263   4.258
 1083TIP3    H2 3256   5.010   0.297   4.406
 1084TIP3   OH2 3257   5.978   1.204   3.993
 1084TIP3    H1 3258   5.937   1.171   3.913
 1084TIP3    H2 3259   6.029   1.129   4.026
 1085TIP3   OH2 3260   3.921   0.481   2.891
 1085TIP3    H1 3261   3.875   0.509   2.812
 1085TIP3    H2 3262   4.013   0.483   2.867
 1086TIP3   OH2 3263   0.379   5.216   4.625
 1086TIP3    H1 3264   0.347   5.237   4.712
 1086TIP3    H2 3265   0.302   5.224   4.569
 1087TIP3   OH2 3266   4.977   3.671   3.829
 1087TIP3    H1 3267   4.945   3.687   3.918
 1087TIP3    H2 3268   4.913   3.714   3.773
 1088TIP3   OH2 3269   0.041   4.569   0.082
 1088TIP3    H1 3270  -0.014   4.636   0.122
 1088TIP3    H2 3271  -0.007   4.541   0.004
 1089TIP3   OH2 3272   4.941   0.681   2.933
 1089TIP3    H1 3273   4.879   0.656   2.865
 1089TIP3    H2 3274   5.027   0.661   2.895
 1090TIP3   OH2 3275   4.135   5.809   0.154
 1090TIP3    H1 3276   4.158   5.786   0.244
 1090TIP3    H2 3277   4.174   5.896   0.141
 1091TIP3   OH2 3278   5.008   1.809   3.570
 1091TIP3    H1 3279   4.978   1.800   3.479
 1091TIP3    H2 3280   4.971   1.733   3.615
 1092TIP3   OH2 3281   5.911   1.409   3.747
 1092TIP3    H1 3282   5.825   1.399   3.789
 1092TIP3    H2 3283   5.908   1.495   3.706
 1093TIP3   OH2 3284   4.164   1.734   3.439
 1093TIP3    H1 3285   4.125   1.691   3.363
 1093TIP3    H2 3286   4.201   1.815   3.404
 1094TIP3   OH2 3287   3.419   2.091   3.843
 1094TIP3    H1 3288   3.388   2.063   3.757
 1094TIP3    H2 3289   3.447   2.182   3.830
 1095TIP3   OH2 3290   2.415   0.914   3.228
 1095TIP3    H1 3291   2.395   0.928   3.321
 1095TIP3    H2 3292   2.498   0.959   3.214
 1096TIP3   OH2 3293   0.120   0.915   2.528
 1096TIP3    H1 3294   0.124   0.993   2.473
 1096TIP3    H2 3295   0.046   0.864   2.494
 1097TIP3   OH2 3296   1.097   0.153   5.041
 1097TIP3    H1 3297   1.110   0.247   5.025
 1097TIP3    H2 3298   1.062   0.120   4.959
 1098TIP3   OH2 3299   6.321   5.084   3.927
 1098TIP3    H1 3300   6.226   5.097   3.932
 1098TIP3    H2 3301   6.331   4.995   3.894
 1099TIP3   OH2 3302   4.770   5.485   4.932
 1099TIP3    H1 3303   4.838   5.545   4.965
 1099TIP3    H2 3304   4.710   5.474   5.006
 1100TIP3   OH2 3305   1.157   2.851   1.139
 1100TIP3    H1 3306   1.244   2.889   1.151
 1100TIP3    H2 3307   1.173   2.770   1.091
 1101TIP3   OH2 3308   3.943   4.803   3.207
 1101TIP3    H1 3309   3.934   4.759   3.292
 1101TIP3    H2 3310   4.033   4.836   3.207
 1102TIP3   OH2 3311   2.423   4.722   1.900
 1102TIP3    H1 3312   2.455   4.797   1.850
 1102TIP3    H2 3313   2.502   4.688   1.944
 1103TIP3   OH2 3314   3.167   4.547   1.061
 1103TIP3    H1 3315   3.238   4.483   1.072
 1103TIP3    H2 3316   3.128   4.555   1.148
 1104TIP3   OH2 3317   0.771   2.827   2.763
 1104TIP3    H1 3318   0.681   2.794   2.767
 1104TIP3    H2 3319   0.817   2.765   2.707
 1105TIP3   OH2 3320   2.227   2.976   0.357
 1105TIP3    H1 3321   2.178   3.052   0.388
 1105TIP3    H2 3322   2.193   2.902   0.407
 1106TIP3   OH2 3323   2.666   2.589   4.993
 1106TIP3    H1 3324   2.626   2.504   4.979
 1106TIP3    H2 3325   2.751   2.570   5.032
 1107TIP3   OH2 3326   4.639   5.474   2.200
 1107TIP3    H1 3327   4.699   5.469   2.126
 1107TIP3    H2 3328   4.680   5.535   2.261
 1108TIP3   OH2 3329   2.560   4.297   1.970
 1108TIP3    H1 3330   2.565   4.245   1.890
 1108TIP3    H2 3331   2.469   4.291   1.997
 1109TIP3   OH2 3332   5.580   0.258   4.106
 1109TIP3    H1 3333   5.641   0.275   4.033
 1109TIP3    H2 3334   5.544   0.344   4.127
 1110TIP3   OH2 3335   3.110   2.172   2.580
 1110TIP3    H1 3336   3.108   2.260   2.544
 1110TIP3    H2 3337   3.052   2.121   2.523
 1111TIP3   OH2 3338   3.443   3.194   1.063
 1111TIP3    H1 3339   3.476   3.109   1.093
 1111TIP3    H2 3340   3.356   3.202   1.102
 1112TIP3   OH2 3341   4.887   5.525   2.567
 1112TIP3    H1 3342   4.848   5.461   2.508
 1112TIP3    H2 3343   4.817   5.547   2.628
 1113TIP3   OH2 3344   5.858   1.927   5.007
 1113TIP3    H1 3345   5.874   1.832   5.005
 1113TIP3    H2 3346   5.862   1.954   4.916
 1114TIP3   OH2 3347   5.826   4.849   2.807
 1114TIP3    H1 3348   5.912   4.861   2.848
 1114TIP3    H2 3349   5.820   4.755   2.789
 1115TIP3   OH2 3350   5.944   5.776   2.231
 1115TIP3    H1 3351   6.030   5.783   2.190
 1115TIP3    H2 3352   5.964   5.762   2.324
 1116TIP3   OH2 3353   2.123   1.660   1.540
 1116TIP3    H1 3354   2.200   1.694   1.585
 1116TIP3    H2 3355   2.147   1.660   1.447
 1117TIP3   OH2 3356   2.046   4.208   5.060
 1117TIP3    H1 3357   2.102   4.201   4.982
 1117TIP3    H2 3358   2.054   4.123   5.103
 1118TIP3   OH2 3359   4.694   0.824   0.847
 1118TIP3    H1 3360   4.651   0.885   0.907
 1118TIP3    H2 3361   4.634   0.816   0.773
 1119TIP3   OH2 3362   2.155   1.929   3.952
 1119TIP3    H1 3363   2.161   1.860   3.886
 1119TIP3    H2 3364   2.094   1.894   4.018
 1120TIP3   OH2 3365   1.406   1.133   3.705
 1120TIP3    H1 3366   1.340   1.102   3.766
 1120TIP3    H2 3367   1.469   1.061   3.698
 1121TIP3   OH2 3368   4.411   5.681   0.589
 1121TIP3    H1 3369   4.494   5.725   0.606
 1121TIP3    H2 3370   4.346   5.730   0.639
 1122TIP3   OH2 3371   4.060   4.361   1.089
 1122TIP3    H1 3372   4.028   4.438   1.042
 1122TIP3    H2 3373   4.154   4.375   1.098
 1123TIP3   OH2 3374   2.648   1.045   3.217
 1123TIP3    H1 3375   2.705   1.044   3.294
 1123TIP3    H2 3376   2.607   1.132   3.218
 1124TIP3   OH2 3377   3.712   4.352   2.258
 1124TIP3    H1 3378   3.634   4.304   2.286
 1124TIP3    H2 3379   3.772   4.347   2.332
 1125TIP3   OH2 3380   3.314   0.429   3.224
 1125TIP3    H1 3381   3.235   0.385   3.255
 1125TIP3    H2 3382   3.341   0.484   3.298
 1126TIP3   OH2 3383   3.145   3.079   1.969
 1126TIP3    H1 3384   3.111   3.046   2.052
 1126TIP3    H2 3385   3.206   3.148   1.993
 1127TIP3   OH2 3386   4.902   3.632   2.931
 1127TIP3    H1 3387   4.954   3.583   2.995
 1127TIP3    H2 3388   4.967   3.681   2.880
 1128TIP3   OH2 3389   5.926   0.322   4.120
 1128TIP3    H1 3390   5.922   0.409   4.159
 1128TIP3    H2 3391   5.910   0.262   4.193
 1129TIP3   OH2 3392   2.381   5.103   2.213
 1129TIP3    H1 3393   2.305   5.136   2.260
 1129TIP3    H2 3394   2.351   5.093   2.123
 1130TIP3   OH2 3395   2.326   1.439   3.782
 1130TIP3    H1 3396   2.310   1.345   3.770
 1130TIP3    H2 3397   2.270   1.481   3.716
 1131TIP3   OH2 3398   3.761   2.139   0.541
 1131TIP3    H1 3399   3.798   2.182   0.464
 1131TIP3    H2 3400   3.772   2.202   0.612
 1132TIP3   OH2 3401   4.961   5.602   2.855
 1132TIP3    H1 3402   5.017   5.528   2.832
 1132TIP3    H2 3403   4.880   5.587   2.806
 1133TIP3   OH2 3404   2.154   0.084   1.596
 1133TIP3    H1 3405   2.118   0.163   1.557
 1133TIP3    H2 3406   2.081   0.022   1.596
 1134TIP3   OH2 3407   2.457   3.672   0.360
 1134TIP3    H1 3408   2.524   3.622   0.407
 1134TIP3    H2 3409   2.499   3.756   0.341
 1135TIP3   OH2 3410   2.928   5.016   2.101
 1135TIP3    H1 3411   2.870   5.083   2.066
 1135TIP3    H2 3412   3.016   5.046   2.078
 1136TIP3   OH2 3413   6.016   0.241   3.253
 1136TIP3    H1 3414   6.018   0.145   3.250
 1136TIP3    H2 3415   6.103   0.268   3.224
 1137TIP3   OH2 3416   5.828   2.174   4.536
 1137TIP3    H1 3417   5.756   2.216   4.489
 1137TIP3    H2 3418   5.807   2.080   4.532
 1138TIP3   OH2 3419   2.667   4.760   3.041
 1138TIP3    H1 3420   2.599   4.818   3.076
 1138TIP3    H2 3421   2.643   4.749   2.949
 1139TIP3   OH2 3422   3.403   0.913   3.579
 1139TIP3    H1 3423   3.399   0.874   3.492
 1139TIP3    H2 3424   3.451   0.995   3.566
 1140TIP3   OH2 3425   0.531   4.235   1.592
 1140TIP3    H1 3426   0.478   4.310   1.622
 1140TIP3    H2 3427   0.613   4.274   1.563
 1141TIP3   OH2 3428   1.147   4.993   0.183
 1141TIP3    H1 3429   1.176   4.902   0.187
 1141TIP3    H2 3430   1.216   5.038   0.134
 1142TIP3   OH2 3431   3.381   4.918   2.750
 1142TIP3    H1 3432   3.466   4.958   2.732
 1142TIP3    H2 3433   3.377   4.915   2.846
 1143TIP3   OH2 3434   0.441   0.189   1.653
 1143TIP3    H1 3435   0.471   0.249   1.721
 1143TIP3    H2 3436   0.465   0.232   1.571
 1144TIP3   OH2 3437   0.548   0.777   0.764
 1144TIP3    H1 3438   0.609   0.836   0.808
 1144TIP3    H2 3439   0.502   0.832   0.700
 1145TIP3   OH2 3440   1.093   3.338   1.007
 1145TIP3    H1 3441   1.090   3.243   1.005
 1145TIP3    H2 3442   1.020   3.366   0.952
 1146TIP3   OH2 3443   2.079   4.989   2.794
 1146TIP3    H1 3444   2.145   4.987   2.725
 1146TIP3    H2 3445   2.021   4.916   2.773
 1147TIP3   OH2 3446   4.743   5.644   0.489
 1147TIP3    H1 3447   4.694   5.717   0.525
 1147TIP3    H2 3448   4.784   5.603   0.566
 1148TIP3   OH2 3449   1.929   3.228   3.411
 1148TIP3    H1 3450   1.955   3.188   3.494
 1148TIP3    H2 3451   1.834   3.234   3.416
 1149TIP3   OH2 3452   1.374   0.876   3.221
 1149TIP3    H1 3453   1.463   0.852   3.247
 1149TIP3    H2 3454   1.340   0.923   3.297
 1150TIP3   OH2 3455   1.105   4.657   3.906
 1150TIP3    H1 3456   1.076   4.666   3.997
 1150TIP3    H2 3457   1.200   4.649   3.911
 1151TIP3   OH2 3458   3.673   3.365   3.219
 1151TIP3    H1 3459   3.654   3.446   3.265
 1151TIP3    H2 3460   3.754   3.333   3.258
 1152TIP3   OH2 3461   1.454   5.870   4.581
 1152TIP3    H1 3462   1.369   5.894   4.543
 1152TIP3    H2 3463   1.518   5.921   4.531
 1153TIP3   OH2 3464   2.614   0.628   1.379
 1153TIP3    H1 3465   2.625   0.597   1.469
 1153TIP3    H2 3466   2.641   0.720   1.382
 1154TIP3   OH2 3467   0.485   2.009   3.297
 1154TIP3    H1 3468   0.543   1.994   3.371
 1154TIP3    H2 3469   0.404   1.964   3.320
 1155TIP3   OH2 3470   5.640   5.763   0.724
 1155TIP3    H1 3471   5.713   5.816   0.758
 1155TIP3    H2 3472   5.617   5.706   0.797
 1156TIP3   OH2 3473   4.455   3.650   4.812
 1156TIP3    H1 3474   4.514   3.588   4.855
 1156TIP3    H2 3475   4.413   3.599   4.743
 1157TIP3   OH2 3476   6.242   1.798   3.654
 1157TIP3    H1 3477   6.245   1.704   3.639
 1157TIP3    H2 3478   6.183   1.831   3.587
 1158TIP3   OH2 3479   5.281   3.332   4.147
 1158TIP3    H1 3480   5.376   3.321   4.159
 1158TIP3    H2 3481   5.243   3.303   4.230
 1159TIP3   OH2 3482   2.940   3.502   1.264
 1159TIP3    H1 3483   2.879   3.538   1.329
 1159TIP3    H2 3484   2.889   3.434   1.220
 1160TIP3   OH2 3485   4.489   2.687   3.448
 1160TIP3    H1 3486   4.426   2.707   3.379
 1160TIP3    H2 3487   4.570   2.665   3.402
 1161TIP3   OH2 3488   1.011   5.351   0.256
 1161TIP3    H1 3489   1.025   5.285   0.324
 1161TIP3    H2 3490   1.006   5.434   0.304
 1162TIP3   OH2 3491   1.823   5.334   2.106
 1162TIP3    H1 3492   1.865   5.363   2.025
 1162TIP3    H2 3493   1.831   5.408   2.165
 1163TIP3   OH2 3494   0.163   1.087   4.613
 1163TIP3    H1 3495   0.193   1.177   4.630
 1163TIP3    H2 3496   0.241   1.033   4.626
 1164TIP3   OH2 3497   2.319   0.862   2.028
 1164TIP3    H1 3498   2.312   0.876   2.122
 1164TIP3    H2 3499   2.268   0.933   1.989
 1165TIP3   OH2 3500   1.483   2.602   2.494
 1165TIP3    H1 3501   1.442   2.574   2.413
 1165TIP3    H2 3502   1.501   2.521   2.542
 1166TIP3   OH2 3503   5.637   3.134   1.416
 1166TIP3    H1 3504   5.610   3.056   1.367
 1166TIP3    H2 3505   5.663   3.101   1.502
 1167TIP3   OH2 3506   3.485   1.409   4.627
 1167TIP3    H1 3507   3.480   1.504   4.626
 1167TIP3    H2 3508   3.534   1.386   4.547
 1168TIP3   OH2 3509   2.386   4.642   4.971
 1168TIP3    H1 3510   2.441   4.636   5.049
 1168TIP3    H2 3511   2.412   4.568   4.917
 1169TIP3   OH2 3512   0.518   1.479   1.263
 1169TIP3    H1 3513   0.461   1.509   1.334
 1169TIP3    H2 3514   0.534   1.387   1.284
 1170TIP3   OH2 3515   5.517   4.290   0.876
 1170TIP3    H1 3516   5.527   4.344   0.955
 1170TIP3    H2 3517   5.484   4.350   0.810
 1171TIP3   OH2 3518   4.778   5.926   4.992
 1171TIP3    H1 3519   4.831   5.949   5.069
 1171TIP3    H2 3520   4.691   5.961   5.012
 1172TIP3   OH2 3521   4.348   1.711   1.193
 1172TIP3    H1 3522   4.335   1.733   1.285
 1172TIP3    H2 3523   4.386   1.623   1.194
 1173TIP3   OH2 3524   2.305   3.444   3.545
 1173TIP3    H1 3525   2.244   3.428   3.617
 1173TIP3    H2 3526   2.392   3.437   3.586
 1174TIP3   OH2 3527   1.300   3.504   0.996
 1174TIP3    H1 3528   1.285   3.592   1.030
 1174TIP3    H2 3529   1.214   3.463   0.997
 1175TIP3   OH2 3530   3.404   3.252   2.638
 1175TIP3    H1 3531   3.445   3.311   2.701
 1175TIP3    H2 3532   3.327   3.217   2.684
 1176TIP3   OH2 3533   6.034   4.903   3.397
 1176TIP3    H1 3534   5.977   4.960   3.347
 1176TIP3    H2 3535   6.041   4.945   3.483
 1177TIP3   OH2 3536   5.559   0.611   0.684
 1177TIP3    H1 3537   5.540   0.679   0.619
 1177TIP3    H2 3538   5.475   0.569   0.700
 1178TIP3   OH2 3539   0.222   3.467   2.919
 1178TIP3    H1 3540   0.172   3.527   2.975
 1178TIP3    H2 3541   0.309   3.464   2.957
 1179TIP3   OH2 3542   2.018   3.913   4.799
 1179TIP3    H1 3543   2.055   3.848   4.740
 1179TIP3    H2 3544   1.990   3.863   4.876
 1180TIP3   OH2 3545   4.931   5.254   3.415
 1180TIP3    H1 3546   4.991   5.207   3.358
 1180TIP3    H2 3547   4.845   5.214   3.399
 1181TIP3   OH2 3548   0.976   4.324   4.930
 1181TIP3    H1 3549   0.913   4.359   4.866
 1181TIP3    H2 3550   1.057   4.372   4.913
 1182TIP3   OH2 3551   1.728   5.445   2.427
 1182TIP3    H1 3552   1.746   5.504   2.353
 1182TIP3    H2 3553   1.754   5.495   2.504
 1183TIP3   OH2 3554   0.853   5.301   4.004
 1183TIP3    H1 3555   0.836   5.332   4.093
 1183TIP3    H2 3556   0.804   5.361   3.948
 1184TIP3   OH2 3557   3.297   2.125   2.998
 1184TIP3    H1 3558   3.212   2.109   2.957
 1184TIP3    H2 3559   3.357   2.137   2.925
 1185TIP3   OH2 3560   4.485   5.200   0.086
 1185TIP3    H1 3561   4.438   5.282   0.101
 1185TIP3    H2 3562   4.417   5.137   0.063
 1186TIP3   OH2 3563   1.438   4.167   4.266
 1186TIP3    H1 3564   1.406   4.254   4.240
 1186TIP3    H2 3565   1.361   4.124   4.304
 1187TIP3   OH2 3566   4.964   3.975   1.283
 1187TIP3    H1 3567   4.887   3.949   1.333
 1187TIP3    H2 3568   4.964   3.916   1.207
 1188TIP3   OH2 3569   5.885   4.176   2.426
 1188TIP3    H1 3570   5.951   4.119   2.388
 1188TIP3    H2 3571   5.805   4.156   2.378
 1189TIP3   OH2 3572   2.802   1.278   2.957
 1189TIP3    H1 3573   2.806   1.330   3.038
 1189TIP3    H2 3574   2.874   1.215   2.965
 1190TIP3   OH2 3575   2.483   3.095   0.574
 1190TIP3    H1 3576   2.435   3.162   0.526
 1190TIP3    H2 3577   2.451   3.102   0.664
 1191TIP3   OH2 3578   4.587   2.515   3.092
 1191TIP3    H1 3579   4.497   2.523   3.122
 1191TIP3    H2 3580   4.638   2.501   3.172
 1192TIP3   OH2 3581   2.598   2.089   1.431
 1192TIP3    H1 3582   2.641   2.091   1.516
 1192TIP3    H2 3583   2.587   2.182   1.408
 1193TIP3   OH2 3584   3.877   4.324   2.477
 1193TIP3    H1 3585   3.951   4.269   2.451
 1193TIP3    H2 3586   3.818   4.264   2.523
 1194TIP3   OH2 3587   2.658   1.967   2.441
 1194TIP3    H1 3588   2.579   1.917   2.424
 1194TIP3    H2 3589   2.633   2.032   2.506
 1195TIP3   OH2 3590   5.837   3.482   2.812
 1195TIP3    H1 3591   5.759   3.527   2.842
 1195TIP3    H2 3592   5.904   3.550   2.806
 1196TIP3   OH2 3593   1.026   4.809   1.813
 1196TIP3    H1 3594   1.086   4.859   1.758
 1196TIP3    H2 3595   0.957   4.872   1.836
 1197TIP3   OH2 3596   6.310   3.038   5.181
 1197TIP3    H1 3597   6.311   2.955   5.132
 1197TIP3    H2 3598   6.338   3.014   5.269
 1198TIP3   OH2 3599   1.693   0.265   3.258
 1198TIP3    H1 3600   1.621   0.255   3.320
 1198TIP3    H2 3601   1.704   0.178   3.219
 1199TIP3   OH2 3602   6.001   0.936   1.079
 1199TIP3    H1 3603   5.920   0.979   1.050
 1199TIP3    H2 3604   6.060   1.009   1.100
 1200TIP3   OH2 3605   5.628   0.393   2.640
 1200TIP3    H1 3606   5.668   0.315   2.677
 1200TIP3    H2 3607   5.543   0.399   2.684
 1201TIP3   OH2 3608   4.499   5.958   3.998
 1201TIP3    H1 3609   4.461   5.888   4.051
 1201TIP3    H2 3610   4.592   5.934   3.989
 1202TIP3   OH2 3611   4.105   5.939   1.080
 1202TIP3    H1 3612   4.181   5.937   1.138
 1202TIP3    H2 3613   4.061   5.855   1.096
 1203TIP3   OH2 3614   0.973   2.215   2.029
 1203TIP3    H1 3615   0.880   2.235   2.014
 1203TIP3    H2 3616   0.981   2.210   2.124
 1204TIP3   OH2 3617   5.609   4.734   0.159
 1204TIP3    H1 3618   5.695   4.692   0.166
 1204TIP3    H2 3619   5.551   4.679   0.211
 1205TIP3   OH2 3620   0.550   0.393   4.404
 1205TIP3    H1 3621   0.611   0.379   4.477
 1205TIP3    H2 3622   0.584   0.338   4.333
 1206TIP3   OH2 3623   6.051   2.780   1.320
 1206TIP3    H1 3624   6.062   2.872   1.343
 1206TIP3    H2 3625   6.112   2.733   1.377
 1207TIP3   OH2 3626   2.300   4.741   3.203
 1207TIP3    H1 3627   2.351   4.822   3.204
 1207TIP3    H2 3628   2.245   4.748   3.125
 1208TIP3   OH2 3629   5.803   2.683   3.185
 1208TIP3    H1 3630   5.738   2.701   3.117
 1208TIP3    H2 3631   5.773   2.736   3.259
 1209TIP3   OH2 3632   5.959   4.931   0.352
 1209TIP3    H1 3633   5.931   4.954   0.264
 1209TIP3    H2 3634   5.928   5.003   0.407
 1210TIP3   OH2 3635   2.159   0.223   3.471
 1210TIP3    H1 3636   2.106   0.269   3.406
 1210TIP3    H2 3637   2.177   0.288   3.538
 1211TIP3   OH2 3638   4.182   4.508   2.066
 1211TIP3    H1 3639   4.105   4.532   2.014
 1211TIP3    H2 3640   4.147   4.491   2.153
 1212TIP3   OH2 3641   3.963   0.871   4.548
 1212TIP3    H1 3642   3.877   0.906   4.521
 1212TIP3    H2 3643   4.007   0.946   4.587
 1213TIP3   OH2 3644   5.609   3.175   3.680
 1213TIP3    H1 3645   5.636   3.260   3.643
 1213TIP3    H2 3646   5.620   3.113   3.608
 1214TIP3   OH2 3647   2.563   3.401   4.022
 1214TIP3    H1 3648   2.613   3.473   3.983
 1214TIP3    H2 3649   2.484   3.442   4.057
 1215TIP3   OH2 3650   2.044   1.712   5.019
 1215TIP3    H1 3651   2.060   1.690   5.111
 1215TIP3    H2 3652   1.971   1.655   4.993
 1216TIP3   OH2 3653   5.360   0.497   1.411
 1216TIP3    H1 3654   5.373   0.541   1.494
 1216TIP3    H2 3655   5.402   0.553   1.346
 1217TIP3   OH2 3656   4.561   2.126   3.109
 1217TIP3    H1 3657   4.563   2.040   3.067
 1217TIP3    H2 3658   4.652   2.146   3.127
 1218TIP3   OH2 3659   5.174   4.455   3.440
 1218TIP3    H1 3660   5.240   4.416   3.382
 1218TIP3    H2 3661   5.217   4.531   3.478
 1219TIP3   OH2 3662   4.339   3.279   1.403
 1219TIP3    H1 3663   4.343   3.200   1.348
 1219TIP3    H2 3664   4.393   3.343   1.357
 1220TIP3   OH2 3665   5.889   0.142   4.345
 1220TIP3    H1 3666   5.972   0.152   4.393
 1220TIP3    H2 3667   5.821   0.159   4.411
 1221TIP3   OH2 3668   3.939   0.307   2.242
 1221TIP3    H1 3669   3.879   0.296   2.316
 1221TIP3    H2 3670   3.992   0.383   2.265
 1222TIP3   OH2 3671   3.202   1.690   0.131
 1222TIP3    H1 3672   3.227   1.720   0.218
 1222TIP3    H2 3673   3.284   1.686   0.082
 1223TIP3   OH2 3674   2.545   1.137   4.755
 1223TIP3    H1 3675   2.594   1.057   4.775
 1223TIP3    H2 3676   2.557   1.193   4.831
 1224TIP3   OH2 3677   5.545   2.017   4.842
 1224TIP3    H1 3678   5.570   1.924   4.845
 1224TIP3    H2 3679   5.480   2.022   4.772
 1225TIP3   OH2 3680   5.611   0.619   3.122
 1225TIP3    H1 3681   5.660   0.610   3.040
 1225TIP3    H2 3682   5.563   0.700   3.112
 1226TIP3   OH2 3683   4.420   4.507   3.910
 1226TIP3    H1 3684   4.360   4.446   3.954
 1226TIP3    H2 3685   4.382   4.519   3.823
 1227TIP3   OH2 3686   4.614   4.815   1.262
 1227TIP3    H1 3687   4.527   4.776   1.259
 1227TIP3    H2 3688   4.646   4.794   1.350
 1228TIP3   OH2 3689   2.782   1.770   4.059
 1228TIP3    H1 3690   2.766   1.726   4.143
 1228TIP3    H2 3691   2.705   1.749   4.006
 1229TIP3   OH2 3692   1.016   0.129   4.363
 1229TIP3    H1 3693   0.930   0.126   4.405
 1229TIP3    H2 3694   1.042   0.037   4.356
 1230TIP3   OH2 3695   4.733   4.337   0.645
 1230TIP3    H1 3696   4.796   4.266   0.654
 1230TIP3    H2 3697   4.665   4.302   0.588
 1231TIP3   OH2 3698   4.297   3.246   0.492
 1231TIP3    H1 3699   4.353   3.275   0.419
 1231TIP3    H2 3700   4.357   3.239   0.566
 1232TIP3   OH2 3701   5.593   2.621   0.897
 1232TIP3    H1 3702   5.666   2.682   0.906
 1232TIP3    H2 3703   5.517   2.672   0.927
 1233TIP3   OH2 3704   5.867   3.950   3.955
 1233TIP3    H1 3705   5.952   3.986   3.932
 1233TIP3    H2 3706   5.875   3.928   4.048
 1234TIP3   OH2 3707   4.627   0.909   2.605
 1234TIP3    H1 3708   4.555   0.959   2.644
 1234TIP3    H2 3709   4.617   0.921   2.511
 1235TIP3   OH2 3710  -0.022   3.709   3.473
 1235TIP3    H1 3711   0.034   3.651   3.422
 1235TIP3    H2 3712   0.000   3.797   3.444
 1236TIP3   OH2 3713   4.043   4.064   1.002
 1236TIP3    H1 3714   3.949   4.046   0.989
 1236TIP3    H2 3715   4.045   4.151   1.041
 1237TIP3   OH2 3716   1.463   1.611   0.799
 1237TIP3    H1 3717   1.558   1.605   0.809
 1237TIP3    H2 3718   1.429   1.559   0.872
 1238TIP3   OH2 3719   5.949   4.053   3.208
 1238TIP3    H1 3720   5.931   3.972   3.256
 1238TIP3    H2 3721   5.968   4.118   3.276
 1239TIP3   OH2 3722   3.393   1.379   2.815
 1239TIP3    H1 3723   3.325   1.321   2.781
 1239TIP3    H2 3724   3.409   1.441   2.744
 1240TIP3   OH2 3725   2.973   1.265   2.675
 1240TIP3    H1 3726   2.899   1.324   2.691
 1240TIP3    H2 3727   2.982   1.216   2.757
 1241TIP3   OH2 3728   4.152   0.809   2.987
 1241TIP3    H1 3729   4.142   0.714   2.992
 1241TIP3    H2 3730   4.104   0.843   3.063
 1242TIP3   OH2 3731   1.042   4.031   3.555
 1242TIP3    H1 3732   1.010   3.967   3.491
 1242TIP3    H2 3733   1.077   4.103   3.502
 1243TIP3   OH2 3734   1.423   3.713   2.021
 1243TIP3    H1 3735   1.441   3.788   1.965
 1243TIP3    H2 3736   1.436   3.637   1.964
 1244TIP3   OH2 3737   5.484   5.524   1.383
 1244TIP3    H1 3738   5.548   5.530   1.454
 1244TIP3    H2 3739   5.469   5.430   1.373
 1245TIP3   OH2 3740   5.296   3.882   1.911
 1245TIP3    H1 3741   5.377   3.867   1.861
 1245TIP3    H2 3742   5.226   3.851   1.854
 1246TIP3   OH2 3743   4.758   5.894   3.920
 1246TIP3    H1 3744   4.842   5.936   3.936
 1246TIP3    H2 3745   4.754   5.882   3.825
 1247TIP3   OH2 3746   6.219   1.561   4.897
 1247TIP3    H1 3747   6.166   1.640   4.893
 1247TIP3    H2 3748   6.309   1.593   4.906
 1248TIP3   OH2 3749   0.997   2.642   2.073
 1248TIP3    H1 3750   0.978   2.639   2.167
 1248TIP3    H2 3751   0.913   2.620   2.032
 1249TIP3   OH2 3752   4.885   1.044   4.149
 1249TIP3    H1 3753   4.958   1.052   4.087
 1249TIP3    H2 3754   4.927   1.037   4.235
 1250TIP3   OH2 3755   5.334   3.203   3.715
 1250TIP3    H1 3756   5.301   3.114   3.718
 1250TIP3    H2 3757   5.428   3.195   3.728
 1251TIP3   OH2 3758   0.228   0.396   0.477
 1251TIP3    H1 3759   0.135   0.407   0.498
 1251TIP3    H2 3760   0.240   0.302   0.468
 1252TIP3   OH2 3761   2.094   0.914   1.169
 1252TIP3    H1 3762   2.153   0.840   1.183
 1252TIP3    H2 3763   2.006   0.876   1.173
 1253TIP3   OH2 3764   5.277   5.030   1.946
 1253TIP3    H1 3765   5.252   4.938   1.950
 1253TIP3    H2 3766   5.219   5.074   2.008
 1254TIP3   OH2 3767   4.818   1.297   3.832
 1254TIP3    H1 3768   4.796   1.348   3.754
 1254TIP3    H2 3769   4.820   1.362   3.902
 1255TIP3   OH2 3770   4.353   5.797   3.679
 1255TIP3    H1 3771   4.280   5.736   3.690
 1255TIP3    H2 3772   4.430   5.742   3.670
 1256TIP3   OH2 3773   5.781   2.067   3.262
 1256TIP3    H1 3774   5.712   2.000   3.261
 1256TIP3    H2 3775   5.761   2.124   3.187
 1257TIP3   OH2 3776   1.523   5.261   4.253
 1257TIP3    H1 3777   1.517   5.344   4.206
 1257TIP3    H2 3778   1.546   5.286   4.342
 1258TIP3   OH2 3779   3.182   3.894   4.175
 1258TIP3    H1 3780   3.252   3.960   4.170
 1258TIP3    H2 3781   3.183   3.866   4.267
 1259TIP3   OH2 3782   3.475   3.696   1.474
 1259TIP3    H1 3783   3.537   3.631   1.441
 1259TIP3    H2 3784   3.456   3.668   1.563
 1260TIP3   OH2 3785   5.773   2.897   5.064
 1260TIP3    H1 3786   5.838   2.878   4.996
 1260TIP3    H2 3787   5.822   2.889   5.146
 1261TIP3   OH2 3788   1.445   3.091   2.728
 1261TIP3    H1 3789   1.486   3.128   2.650
 1261TIP3    H2 3790   1.441   2.997   2.712
 1262TIP3   OH2 3791   6.132   3.068   1.406
 1262TIP3    H1 3792   6.076   3.091   1.480
 1262TIP3    H2 3793   6.075   3.075   1.330
 1263TIP3   OH2 3794   2.374   3.182   3.851
 1263TIP3    H1 3795   2.397   3.127   3.926
 1263TIP3    H2 3796   2.423   3.263   3.865
 1264TIP3   OH2 3797   1.261   0.731   0.636
 1264TIP3    H1 3798   1.223   0.792   0.699
 1264TIP3    H2 3799   1.196   0.726   0.565
 1265TIP3   OH2 3800   1.751   4.456   3.109
 1265TIP3    H1 3801   1.759   4.438   3.016
 1265TIP3    H2 3802   1.755   4.552   3.115
 1266TIP3   OH2 3803   1.725   5.234   0.467
 1266TIP3    H1 3804   1.768   5.315   0.438
 1266TIP3    H2 3805   1.696   5.192   0.386
 1267TIP3   OH2 3806   5.695   4.481   4.016
 1267TIP3    H1 3807   5.761   4.414   4.003
 1267TIP3    H2 3808   5.667   4.506   3.928
 1268TIP3   OH2 3809   4.330   1.551   3.616
 1268TIP3    H1 3810   4.283   1.546   3.699
 1268TIP3    H2 3811   4.282   1.617   3.565
 1269TIP3   OH2 3812   1.436   3.080   4.862
 1269TIP3    H1 3813   1.397   3.017   4.923
 1269TIP3    H2 3814   1.456   3.027   4.784
 1270TIP3   OH2 3815   1.820   5.799   0.932
 1270TIP3    H1 3816   1.802   5.869   0.870
 1270TIP3    H2 3817   1.740   5.793   0.985
 1271TIP3   OH2 3818   3.149   1.319   2.067
 1271TIP3    H1 3819   3.179   1.362   2.148
 1271TIP3    H2 3820   3.163   1.226   2.083
 1272TIP3   OH2 3821   3.721   3.672   3.732
 1272TIP3    H1 3822   3.731   3.749   3.677
 1272TIP3    H2 3823   3.811   3.644   3.751
 1273TIP3   OH2 3824   0.363   4.576   1.364
 1273TIP3    H1 3825   0.457   4.560   1.364
 1273TIP3    H2 3826   0.329   4.522   1.436
 1274TIP3   OH2 3827   2.436   2.289   1.581
 1274TIP3    H1 3828   2.420   2.216   1.640
 1274TIP3    H2 3829   2.420   2.367   1.634
 1275TIP3   OH2 3830   1.731   2.987   2.213
 1275TIP3    H1 3831   1.822   2.965   2.190
 1275TIP3    H2 3832   1.719   2.950   2.300
 1276TIP3   OH2 3833   0.523   4.716   5.168
 1276TIP3    H1 3834   0.537   4.660   5.092
 1276TIP3    H2 3835   0.460   4.782   5.139
 1277TIP3   OH2 3836   3.441   0.870   0.557
 1277TIP3    H1 3837   3.406   0.948   0.514
 1277TIP3    H2 3838   3.441   0.803   0.488
 1278TIP3   OH2 3839   1.394   1.883   0.652
 1278TIP3    H1 3840   1.462   1.842   0.706
 1278TIP3    H2 3841   1.439   1.910   0.572
 1279TIP3   OH2 3842   3.823   0.567   1.732
 1279TIP3    H1 3843   3.897   0.510   1.751
 1279TIP3    H2 3844   3.785   0.587   1.817
 1280TIP3   OH2 3845   1.746   1.321   0.499
 1280TIP3    H1 3846   1.673   1.375   0.469
 1280TIP3    H2 3847   1.727   1.302   0.591
 1281TIP3   OH2 3848   1.795   5.588   1.274
 1281TIP3    H1 3849   1.759   5.504   1.305
 1281TIP3    H2 3850   1.717   5.641   1.254
 1282TIP3   OH2 3851   2.456   0.413   3.906
 1282TIP3    H1 3852   2.444   0.479   3.975
 1282TIP3    H2 3853   2.499   0.461   3.835
 1283TIP3   OH2 3854   4.985   5.430   3.910
 1283TIP3    H1 3855   4.929   5.425   3.833
 1283TIP3    H2 3856   4.945   5.371   3.973
 1284TIP3   OH2 3857   4.631   0.844   4.235
 1284TIP3    H1 3858   4.711   0.819   4.283
 1284TIP3    H2 3859   4.584   0.902   4.295
 1285TIP3   OH2 3860   1.976   0.940   4.853
 1285TIP3    H1 3861   1.907   0.940   4.919
 1285TIP3    H2 3862   2.054   0.970   4.900
 1286TIP3   OH2 3863   1.110   3.790   3.280
 1286TIP3    H1 3864   1.130   3.755   3.367
 1286TIP3    H2 3865   1.032   3.843   3.293
 1287TIP3   OH2 3866   3.408   2.311   4.311
 1287TIP3    H1 3867   3.376   2.343   4.226
 1287TIP3    H2 3868   3.438   2.222   4.294
 1288TIP3   OH2 3869   3.919   2.007   2.303
 1288TIP3    H1 3870   3.955   2.096   2.308
 1288TIP3    H2 3871   3.859   2.010   2.228
 1289TIP3   OH2 3872   0.681   0.092   1.889
 1289TIP3    H1 3873   0.745   0.071   1.957
 1289TIP3    H2 3874   0.632   0.167   1.924
 1290TIP3   OH2 3875   3.329   4.255   4.833
 1290TIP3    H1 3876   3.384   4.313   4.781
 1290TIP3    H2 3877   3.323   4.175   4.782
 1291TIP3   OH2 3878   4.476   1.309   1.408
 1291TIP3    H1 3879   4.511   1.361   1.336
 1291TIP3    H2 3880   4.546   1.307   1.473
 1292TIP3   OH2 3881   5.325   0.600   4.583
 1292TIP3    H1 3882   5.294   0.605   4.674
 1292TIP3    H2 3883   5.293   0.516   4.552
 1293TIP3   OH2 3884   0.073   1.745   3.175
 1293TIP3    H1 3885   0.079   1.837   3.150
 1293TIP3    H2 3886   0.044   1.700   3.096
 1294TIP3   OH2 3887   5.297   5.583   4.095
 1294TIP3    H1 3888   5.338   5.640   4.030
 1294TIP3    H2 3889   5.284   5.500   4.049
 1295TIP3   OH2 3890   0.966   3.061   1.136
 1295TIP3    H1 3891   1.041   3.004   1.124
 1295TIP3    H2 3892   0.929   3.072   1.048
 1296TIP3   OH2 3893   5.977   2.088   1.759
 1296TIP3    H1 3894   5.927   2.022   1.807
 1296TIP3    H2 3895   5.930   2.096   1.675
 1297TIP3   OH2 3896   6.135   0.431   4.358
 1297TIP3    H1 3897   6.196   0.469   4.421
 1297TIP3    H2 3898   6.189   0.407   4.283
 1298TIP3   OH2 3899   0.014   3.884   4.977
 1298TIP3    H1 3900   0.037   3.802   4.934
 1298TIP3    H2 3901   0.085   3.944   4.955
 1299TIP3   OH2 3902   0.727   0.615   0.046
 1299TIP3    H1 3903   0.800   0.613  -0.015
 1299TIP3    H2 3904   0.764   0.581   0.128
 1300TIP3   OH2 3905   3.784   1.343   4.524
 1300TIP3    H1 3906   3.860   1.305   4.480
 1300TIP3    H2 3907   3.745   1.402   4.459
 1301TIP3   OH2 3908   0.543   2.535   1.008
 1301TIP3    H1 3909   0.568   2.627   1.016
 1301TIP3    H2 3910   0.508   2.527   0.919
 1302TIP3   OH2 3911   2.282   2.156   4.482
 1302TIP3    H1 3912   2.363   2.112   4.458
 1302TIP3    H2 3913   2.215   2.088   4.477
 1303TIP3   OH2 3914   2.537   4.711   4.378
 1303TIP3    H1 3915   2.498   4.630   4.345
 1303TIP3    H2 3916   2.593   4.683   4.450
 1304TIP3   OH2 3917   2.551   4.952   4.124
 1304TIP3    H1 3918   2.487   4.892   4.085
 1304TIP3    H2 3919   2.501   5.000   4.190
 1305TIP3   OH2 3920   1.197   1.716   2.410
 1305TIP3    H1 3921   1.176   1.737   2.319
 1305TIP3    H2 3922   1.206   1.620   2.411
 1306TIP3   OH2 3923   4.919   0.572   0.927
 1306TIP3    H1 3924   4.857   0.641   0.948
 1306TIP3    H2 3925   4.980   0.612   0.866
 1307TIP3   OH2 3926   0.595   5.886   4.360
 1307TIP3    H1 3927   0.581   5.807   4.308
 1307TIP3    H2 3928   0.542   5.953   4.317
 1308TIP3   OH2 3929   0.044   1.484   0.799
 1308TIP3    H1 3930  -0.001   1.469   0.715
 1308TIP3    H2 3931   0.059   1.396   0.834
 1309TIP3   OH2 3932   1.729   1.827   4.149
 1309TIP3    H1 3933   1.756   1.736   4.137
 1309TIP3    H2 3934   1.803   1.868   4.193
 1310TIP3   OH2 3935   3.009   5.956   2.468
 1310TIP3    H1 3936   2.914   5.947   2.467
 1310TIP3    H2 3937   3.025   6.045   2.439
 1311TIP3   OH2 3938   0.488   4.284   2.376
 1311TIP3    H1 3939   0.534   4.273   2.459
 1311TIP3    H2 3940   0.454   4.196   2.356
 1312TIP3   OH2 3941   2.347   1.792   0.946
 1312TIP3    H1 3942   2.425   1.819   0.898
 1312TIP3    H2 3943   2.378   1.773   1.034
 1313TIP3   OH2 3944   0.524   4.451   4.184
 1313TIP3    H1 3945   0.511   4.459   4.279
 1313TIP3    H2 3946   0.523   4.357   4.167
 1314TIP3   OH2 3947   1.615   0.774   0.109
 1314TIP3    H1 3948   1.574   0.807   0.029
 1314TIP3    H2 3949   1.542   0.748   0.165
 1315TIP3   OH2 3950   6.296   0.365   3.108
 1315TIP3    H1 3951   6.377   0.394   3.066
 1315TIP3    H2 3952   6.313   0.373   3.201
 1316TIP3   OH2 3953   0.543   2.075   1.801
 1316TIP3    H1 3954   0.543   2.107   1.711
 1316TIP3    H2 3955   0.454   2.044   1.816
 1317TIP3   OH2 3956   1.732   4.313   0.621
 1317TIP3    H1 3957   1.803   4.322   0.557
 1317TIP3    H2 3958   1.777   4.302   0.705
 1318TIP3   OH2 3959   5.984   0.517   2.469
 1318TIP3    H1 3960   6.011   0.583   2.406
 1318TIP3    H2 3961   6.034   0.537   2.548
 1319TIP3   OH2 3962   3.996   1.198   0.277
 1319TIP3    H1 3963   3.953   1.177   0.195
 1319TIP3    H2 3964   3.925   1.228   0.335
 1320TIP3   OH2 3965   2.985   1.867   0.192
 1320TIP3    H1 3966   3.059   1.819   0.153
 1320TIP3    H2 3967   2.914   1.804   0.193
 1321TIP3   OH2 3968   2.862   5.448   0.540
 1321TIP3    H1 3969   2.772   5.419   0.556
 1321TIP3    H2 3970   2.861   5.480   0.450
 1322TIP3   OH2 3971   5.098   3.630   1.197
 1322TIP3    H1 3972   5.070   3.601   1.284
 1322TIP3    H2 3973   5.194   3.633   1.203
 1323TIP3   OH2 3974   5.439   1.349   4.344
 1323TIP3    H1 3975   5.344   1.350   4.345
 1323TIP3    H2 3976   5.462   1.257   4.338
 1324TIP3   OH2 3977   4.129   0.941   0.582
 1324TIP3    H1 3978   4.085   0.951   0.498
 1324TIP3    H2 3979   4.080   0.872   0.626
 1325TIP3   OH2 3980   2.914   0.083   0.356
 1325TIP3    H1 3981   2.864   0.162   0.336
 1325TIP3    H2 3982   2.992   0.090   0.300
 1326TIP3   OH2 3983   0.847   1.813   3.735
 1326TIP3    H1 3984   0.828   1.907   3.729
 1326TIP3    H2 3985   0.802   1.785   3.815
 1327TIP3   OH2 3986   3.516   2.502   1.248
 1327TIP3    H1 3987   3.569   2.539   1.176
 1327TIP3    H2 3988   3.546   2.412   1.255
 1328TIP3   OH2 3989   4.486   4.732   4.619
 1328TIP3    H1 3990   4.501   4.728   4.714
 1328TIP3    H2 3991   4.537   4.659   4.584
 1329TIP3   OH2 3992   4.623   3.585   3.014
 1329TIP3    H1 3993   4.643   3.652   2.949
 1329TIP3    H2 3994   4.709   3.558   3.048
 1330TIP3   OH2 3995   3.817   0.502   5.024
 1330TIP3    H1 3996   3.807   0.585   4.978
 1330TIP3    H2 3997   3.843   0.439   4.957
 1331TIP3   OH2 3998   1.521   1.417   3.827
 1331TIP3    H1 3999   1.479   1.406   3.912
 1331TIP3    H2 4000   1.558   1.505   3.829
 1332TIP3   OH2 4001   1.373   3.311   0.294
 1332TIP3    H1 4002   1.445   3.333   0.353
 1332TIP3    H2 4003   1.413   3.308   0.207
 1333TIP3   OH2 4004   2.827   2.940   0.371
 1333TIP3    H1 4005   2.844   3.019   0.422
 1333TIP3    H2 4006   2.734   2.945   0.348
 1334TIP3   OH2 4007   3.803   1.349   5.210
 1334TIP3    H1 4008   3.828   1.354   5.118
 1334TIP3    H2 4009   3.849   1.272   5.243
 1335TIP3   OH2 4010   6.219   4.166   3.653
 1335TIP3    H1 4011   6.227   4.260   3.668
 1335TIP3    H2 4012   6.293   4.128   3.701
 1336TIP3   OH2 4013   5.220   4.257   4.200
 1336TIP3    H1 4014   5.192   4.226   4.114
 1336TIP3    H2 4015   5.312   4.281   4.189
 1337TIP3   OH2 4016   3.359   1.459   1.561
 1337TIP3    H1 4017   3.283   1.435   1.614
 1337TIP3    H2 4018   3.323   1.478   1.475
 1338TIP3   OH2 4019   6.057   2.866   2.549
 1338TIP3    H1 4020   6.040   2.782   2.593
 1338TIP3    H2 4021   6.113   2.914   2.610
 1339TIP3   OH2 4022   1.373   1.258   4.410
 1339TIP3    H1 4023   1.300   1.273   4.350
 1339TIP3    H2 4024   1.443   1.315   4.377
 1340TIP3   OH2 4025   2.441   4.590   3.751
 1340TIP3    H1 4026   2.529   4.553   3.745
 1340TIP3    H2 4027   2.390   4.525   3.799
 1341TIP3   OH2 4028   2.149   0.367   3.715
 1341TIP3    H1 4029   2.058   0.341   3.730
 1341TIP3    H2 4030   2.200   0.313   3.776
 1342TIP3   OH2 4031   0.557   3.308   2.079
 1342TIP3    H1 4032   0.617   3.312   2.005
 1342TIP3    H2 4033   0.547   3.399   2.107
 1343TIP3   OH2 4034   3.018   1.130   1.466
 1343TIP3    H1 4035   3.036   1.138   1.372
 1343TIP3    H2 4036   3.072   1.057   1.495
 1344TIP3   OH2 4037   2.019   2.269   0.861
 1344TIP3    H1 4038   2.102   2.295   0.821
 1344TIP3    H2 4039   2.001   2.182   0.825
 1345TIP3   OH2 4040   5.894   0.926   2.983
 1345TIP3    H1 4041   5.869   0.928   3.076
 1345TIP3    H2 4042   5.867   1.011   2.949
 1346TIP3   OH2 4043   1.632   0.183   0.673
 1346TIP3    H1 4044   1.589   0.221   0.596
 1346TIP3    H2 4045   1.661   0.097   0.644
 1347TIP3   OH2 4046   2.205   1.592   2.974
 1347TIP3    H1 4047   2.189   1.607   2.881
 1347TIP3    H2 4048   2.298   1.570   2.979
 1348TIP3   OH2 4049   2.032   4.087   1.002
 1348TIP3    H1 4050   2.040   4.063   0.909
 1348TIP3    H2 4051   1.970   4.160   1.003
 1349TIP3   OH2 4052   2.644   1.024   2.650
 1349TIP3    H1 4053   2.735   1.023   2.619
 1349TIP3    H2 4054   2.651   1.045   2.743
 1350TIP3   OH2 4055   1.783   4.612   3.409
 1350TIP3    H1 4056   1.879   4.616   3.402
 1350TIP3    H2 4057   1.755   4.576   3.325
 1351TIP3   OH2 4058   1.726   1.422   2.579
 1351TIP3    H1 4059   1.675   1.341   2.580
 1351TIP3    H2 4060   1.670   1.486   2.535
 1352TIP3   OH2 4061   4.969   4.593   0.387
 1352TIP3    H1 4062   4.975   4.540   0.466
 1352TIP3    H2 4063   4.974   4.683   0.418
 1353TIP3   OH2 4064   3.557   0.462   4.516
 1353TIP3    H1 4065   3.643   0.423   4.526
 1353TIP3    H2 4066   3.505   0.426   4.588
 1354TIP3   OH2 4067   2.157   1.543   1.032
 1354TIP3    H1 4068   2.091   1.611   1.048
 1354TIP3    H2 4069   2.236   1.591   1.007
 1355TIP3   OH2 4070   5.948   5.175   2.838
 1355TIP3    H1 4071   5.885   5.151   2.771
 1355TIP3    H2 4072   5.987   5.092   2.865
 1356TIP3   OH2 4073   0.192   3.354   2.423
 1356TIP3    H1 4074   0.164   3.384   2.509
 1356TIP3    H2 4075   0.288   3.355   2.427
 1357TIP3   OH2 4076   6.207   5.730   4.588
 1357TIP3    H1 4077   6.187   5.749   4.496
 1357TIP3    H2 4078   6.187   5.811   4.634
 1358TIP3   OH2 4079   6.195   3.386   3.402
 1358TIP3    H1 4080   6.186   3.323   3.473
 1358TIP3    H2 4081   6.142   3.461   3.429
 1359TIP3   OH2 4082   1.095   1.207   3.580
 1359TIP3    H1 4083   1.128   1.279   3.634
 1359TIP3    H2 4084   1.158   1.198   3.509
 1360TIP3   OH2 4085   6.125   2.417   0.455
 1360TIP3    H1 4086   6.086   2.493   0.411
 1360TIP3    H2 4087   6.213   2.412   0.419
 1361TIP3   OH2 4088   5.262   5.028   1.102
 1361TIP3    H1 4089   5.266   5.024   1.197
 1361TIP3    H2 4090   5.295   5.115   1.079
 1362TIP3   OH2 4091   3.029   1.147   3.949
 1362TIP3    H1 4092   3.094   1.217   3.956
 1362TIP3    H2 4093   3.071   1.070   3.987
 1363TIP3   OH2 4094   0.565   1.905   0.226
 1363TIP3    H1 4095   0.652   1.930   0.257
 1363TIP3    H2 4096   0.521   1.869   0.303
 1364TIP3   OH2 4097   3.105   2.720   5.018
 1364TIP3    H1 4098   3.028   2.665   4.997
 1364TIP3    H2 4099   3.178   2.658   5.019
 1365TIP3   OH2 4100   5.847   0.649   1.055
 1365TIP3    H1 4101   5.884   0.732   1.084
 1365TIP3    H2 4102   5.831   0.662   0.962
 1366TIP3   OH2 4103   3.824   2.631   0.191
 1366TIP3    H1 4104   3.836   2.541   0.160
 1366TIP3    H2 4105   3.729   2.645   0.189
 1367TIP3   OH2 4106   4.450   1.676   1.626
 1367TIP3    H1 4107   4.443   1.598   1.681
 1367TIP3    H2 4108   4.530   1.663   1.576
 1368TIP3   OH2 4109   5.064   3.754   4.510
 1368TIP3    H1 4110   4.987   3.711   4.473
 1368TIP3    H2 4111   5.032   3.839   4.539
 1369TIP3   OH2 4112   1.320   3.550   3.474
 1369TIP3    H1 4113   1.264   3.478   3.446
 1369TIP3    H2 4114   1.405   3.530   3.435
 1370TIP3   OH2 4115   5.943   4.301   2.177
 1370TIP3    H1 4116   6.018   4.273   2.124
 1370TIP3    H2 4117   5.896   4.221   2.199
 1371TIP3   OH2 4118   5.954   5.547   3.244
 1371TIP3    H1 4119   5.968   5.460   3.282
 1371TIP3    H2 4120   6.037   5.570   3.204
 1372TIP3   OH2 4121   0.549   5.681   0.930
 1372TIP3    H1 4122   0.568   5.751   0.993
 1372TIP3    H2 4123   0.566   5.600   0.979
 1373TIP3   OH2 4124   0.286   4.455   2.397
 1373TIP3    H1 4125   0.363   4.404   2.371
 1373TIP3    H2 4126   0.272   4.432   2.489
 1374TIP3   OH2 4127   2.130   0.201   0.098
 1374TIP3    H1 4128   2.135   0.143   0.023
 1374TIP3    H2 4129   2.221   0.227   0.115
 1375TIP3   OH2 4130   0.508   5.328   3.106
 1375TIP3    H1 4131   0.536   5.242   3.074
 1375TIP3    H2 4132   0.523   5.325   3.201
 1376TIP3   OH2 4133   0.603   0.066   1.412
 1376TIP3    H1 4134   0.666   0.063   1.484
 1376TIP3    H2 4135   0.571   0.156   1.412
 1377TIP3   OH2 4136   4.297   4.100   3.170
 1377TIP3    H1 4137   4.332   4.188   3.187
 1377TIP3    H2 4138   4.311   4.087   3.076
 1378TIP3   OH2 4139   4.121   2.613   4.149
 1378TIP3    H1 4140   4.050   2.663   4.189
 1378TIP3    H2 4141   4.189   2.678   4.131
 1379TIP3   OH2 4142   5.358   2.533   2.501
 1379TIP3    H1 4143   5.277   2.500   2.540
 1379TIP3    H2 4144   5.376   2.614   2.548
 1380TIP3   OH2 4145   0.875   1.966   4.571
 1380TIP3    H1 4146   0.936   1.969   4.497
 1380TIP3    H2 4147   0.837   2.054   4.574
 1381TIP3   OH2 4148   0.718   4.943   1.221
 1381TIP3    H1 4149   0.729   4.920   1.129
 1381TIP3    H2 4150   0.794   4.906   1.265
 1382TIP3   OH2 4151   2.329   4.144   3.903
 1382TIP3    H1 4152   2.403   4.085   3.914
 1382TIP3    H2 4153   2.300   4.131   3.813
 1383TIP3   OH2 4154   0.733   4.267   0.195
 1383TIP3    H1 4155   0.787   4.265   0.274
 1383TIP3    H2 4156   0.645   4.242   0.226
 1384TIP3   OH2 4157   0.224   5.936   2.442
 1384TIP3    H1 4158   0.221   5.908   2.533
 1384TIP3    H2 4159   0.279   5.871   2.398
 1385TIP3   OH2 4160   4.832   4.776   1.454
 1385TIP3    H1 4161   4.897   4.737   1.512
 1385TIP3    H2 4162   4.840   4.870   1.469
 1386TIP3   OH2 4163   1.109   5.393   2.072
 1386TIP3    H1 4164   1.041   5.441   2.025
 1386TIP3    H2 4165   1.108   5.305   2.035
 1387TIP3   OH2 4166   2.000   3.267   0.813
 1387TIP3    H1 4167   1.936   3.202   0.841
 1387TIP3    H2 4168   1.960   3.309   0.737
 1388TIP3   OH2 4169   4.693   5.226   4.153
 1388TIP3    H1 4170   4.778   5.243   4.193
 1388TIP3    H2 4171   4.686   5.291   4.083
 1389TIP3   OH2 4172   2.690   0.902   4.805
 1389TIP3    H1 4173   2.681   0.861   4.891
 1389TIP3    H2 4174   2.772   0.866   4.770
 1390TIP3   OH2 4175   1.258   3.189   4.359
 1390TIP3    H1 4176   1.343   3.164   4.395
 1390TIP3    H2 4177   1.268   3.281   4.334
 1391TIP3   OH2 4178   2.985   2.723   1.004
 1391TIP3    H1 4179   2.931   2.753   1.078
 1391TIP3    H2 4180   2.933   2.743   0.927
 1392TIP3   OH2 4181   4.857   2.236   0.705
 1392TIP3    H1 4182   4.788   2.216   0.642
 1392TIP3    H2 4183   4.828   2.317   0.747
 1393TIP3   OH2 4184   2.411   3.003   1.419
 1393TIP3    H1 4185   2.421   3.096   1.441
 1393TIP3    H2 4186   2.316   2.991   1.411
 1394TIP3   OH2 4187   2.986   4.658   4.504
 1394TIP3    H1 4188   2.924   4.715   4.458
 1394TIP3    H2 4189   3.054   4.718   4.536
 1395TIP3   OH2 4190   2.767   2.009   0.482
 1395TIP3    H1 4191   2.775   1.914   0.490
 1395TIP3    H2 4192   2.829   2.044   0.547
 1396TIP3   OH2 4193   4.415   0.710   4.190
 1396TIP3    H1 4194   4.413   0.679   4.281
 1396TIP3    H2 4195   4.465   0.792   4.194
 1397TIP3   OH2 4196   0.675   3.257   3.626
 1397TIP3    H1 4197   0.591   3.295   3.648
 1397TIP3    H2 4198   0.656   3.198   3.553
 1398TIP3   OH2 4199   5.476   3.061   0.001
 1398TIP3    H1 4200   5.409   3.050  -0.066
 1398TIP3    H2 4201   5.476   2.979   0.050
 1399TIP3   OH2 4202   5.461   2.164   3.080
 1399TIP3    H1 4203   5.400   2.109   3.129
 1399TIP3    H2 4204   5.408   2.238   3.050
 1400TIP3   OH2 4205   5.651   4.641   4.222
 1400TIP3    H1 4206   5.584   4.697   4.184
 1400TIP3    H2 4207   5.685   4.590   4.147
 1401TIP3   OH2 4208   1.714   0.313   1.519
 1401TIP3    H1 4209   1.679   0.395   1.483
 1401TIP3    H2 4210   1.710   0.325   1.613
 1402TIP3   OH2 4211   1.144   4.396   2.594
 1402TIP3    H1 4212   1.187   4.316   2.622
 1402TIP3    H2 4213   1.054   4.370   2.576
 1403TIP3   OH2 4214   1.491   5.770   2.087
 1403TIP3    H1 4215   1.486   5.858   2.125
 1403TIP3    H2 4216   1.400   5.746   2.071
 1404TIP3   OH2 4217   3.176   5.927   2.692
 1404TIP3    H1 4218   3.127   5.986   2.749
 1404TIP3    H2 4219   3.119   5.914   2.616
 1405TIP3   OH2 4220   2.307   1.661   3.291
 1405TIP3    H1 4221   2.345   1.584   3.249
 1405TIP3    H2 4222   2.213   1.646   3.287
 1406TIP3   OH2 4223   2.708   2.363   1.371
 1406TIP3    H1 4224   2.654   2.435   1.338
 1406TIP3    H2 4225   2.798   2.396   1.366
 1407TIP3   OH2 4226   4.279   5.905   1.571
 1407TIP3    H1 4227   4.366   5.866   1.566
 1407TIP3    H2 4228   4.295   5.996   1.596
 1408TIP3   OH2 4229   5.866   0.637   0.240
 1408TIP3    H1 4230   5.909   0.652   0.325
 1408TIP3    H2 4231   5.826   0.721   0.218
 1409TIP3   OH2 4232   1.580   0.543   1.411
 1409TIP3    H1 4233   1.606   0.515   1.323
 1409TIP3    H2 4234   1.509   0.605   1.396
 1410TIP3   OH2 4235   5.774   3.880   4.774
 1410TIP3    H1 4236   5.751   3.797   4.733
 1410TIP3    H2 4237   5.869   3.885   4.768
 1411TIP3   OH2 4238   2.978   3.770   0.636
 1411TIP3    H1 4239   2.909   3.726   0.685
 1411TIP3    H2 4240   3.001   3.846   0.689
 1412TIP3   OH2 4241   3.161   2.165   4.497
 1412TIP3    H1 4242   3.226   2.231   4.472
 1412TIP3    H2 4243   3.100   2.163   4.423
 1413TIP3   OH2 4244   0.287   2.323   3.005
 1413TIP3    H1 4245   0.331   2.347   3.086
 1413TIP3    H2 4246   0.316   2.389   2.942
 1414TIP3   OH2 4247   6.272   1.320   4.759
 1414TIP3    H1 4248   6.359   1.296   4.790
 1414TIP3    H2 4249   6.252   1.402   4.803
 1415TIP3   OH2 4250   1.371   5.210   2.770
 1415TIP3    H1 4251   1.457   5.246   2.746
 1415TIP3    H2 4252   1.309   5.257   2.714
 1416TIP3   OH2 4253   4.042   5.504   2.041
 1416TIP3    H1 4254   4.093   5.423   2.047
 1416TIP3    H2 4255   4.003   5.501   1.954
 1417TIP3   OH2 4256   2.015   2.323   5.205
 1417TIP3    H1 4257   2.034   2.295   5.116
 1417TIP3    H2 4258   2.048   2.412   5.211
 1418TIP3   OH2 4259   0.171   4.690   3.599
 1418TIP3    H1 4260   0.163   4.610   3.652
 1418TIP3    H2 4261   0.098   4.685   3.537
 1419TIP3   OH2 4262   4.159   3.553   3.824
 1419TIP3    H1 4263   4.171   3.647   3.843
 1419TIP3    H2 4264   4.247   3.516   3.834
 1420TIP3   OH2 4265   3.131   4.442   4.906
 1420TIP3    H1 4266   3.202   4.380   4.886
 1420TIP3    H2 4267   3.106   4.422   4.996
 1421TIP3   OH2 4268   1.014   1.846   1.564
 1421TIP3    H1 4269   1.020   1.808   1.477
 1421TIP3    H2 4270   0.999   1.939   1.550
 1422TIP3   OH2 4271   1.164   1.213   2.616
 1422TIP3    H1 4272   1.153   1.122   2.588
 1422TIP3    H2 4273   1.256   1.232   2.597
 1423TIP3   OH2 4274   5.803   1.857   1.795
 1423TIP3    H1 4275   5.839   1.783   1.845
 1423TIP3    H2 4276   5.789   1.821   1.707
 1424TIP3   OH2 4277   4.847   3.477   2.484
 1424TIP3    H1 4278   4.799   3.451   2.405
 1424TIP3    H2 4279   4.932   3.434   2.475
 1425TIP3   OH2 4280   1.367   4.284   1.820
 1425TIP3    H1 4281   1.428   4.261   1.751
 1425TIP3    H2 4282   1.325   4.365   1.789
 1426TIP3   OH2 4283   3.237   0.767   2.192
 1426TIP3    H1 4284   3.176   0.749   2.264
 1426TIP3    H2 4285   3.202   0.718   2.118
 1427TIP3   OH2 4286   3.207   3.917   1.976
 1427TIP3    H1 4287   3.251   3.908   1.891
 1427TIP3    H2 4288   3.115   3.936   1.953
 1428TIP3   OH2 4289   6.103   0.543   3.938
 1428TIP3    H1 4290   6.062   0.475   3.991
 1428TIP3    H2 4291   6.032   0.578   3.884
 1429TIP3   OH2 4292   0.959   3.236   3.178
 1429TIP3    H1 4293   1.052   3.212   3.175
 1429TIP3    H2 4294   0.959   3.331   3.182
 1430TIP3   OH2 4295   4.376   1.688   4.179
 1430TIP3    H1 4296   4.333   1.709   4.262
 1430TIP3    H2 4297   4.354   1.596   4.163
 1431TIP3   OH2 4298   2.310   1.208   1.714
 1431TIP3    H1 4299   2.392   1.256   1.704
 1431TIP3    H2 4300   2.300   1.160   1.631
 1432TIP3   OH2 4301   0.344   4.186   3.656
 1432TIP3    H1 4302   0.372   4.272   3.625
 1432TIP3    H2 4303   0.363   4.127   3.583
 1433TIP3   OH2 4304   1.516   4.379   1.559
 1433TIP3    H1 4305   1.429   4.394   1.522
 1433TIP3    H2 4306   1.559   4.464   1.555
 1434TIP3   OH2 4307   0.800   0.632   3.411
 1434TIP3    H1 4308   0.746   0.555   3.398
 1434TIP3    H2 4309   0.826   0.629   3.503
 1435TIP3   OH2 4310   4.353   2.804   4.116
 1435TIP3    H1 4311   4.449   2.811   4.122
 1435TIP3    H2 4312   4.323   2.894   4.113
 1436TIP3   OH2 4313   1.456   4.741   0.149
 1436TIP3    H1 4314   1.387   4.715   0.210
 1436TIP3    H2 4315   1.479   4.660   0.103
 1437TIP3   OH2 4316   2.660   2.889   3.322
 1437TIP3    H1 4317   2.569   2.907   3.299
 1437TIP3    H2 4318   2.663   2.899   3.417
 1438TIP3   OH2 4319   3.577   1.916   2.683
 1438TIP3    H1 4320   3.539   1.869   2.609
 1438TIP3    H2 4321   3.546   2.006   2.673
 1439TIP3   OH2 4322   3.765   3.533   2.539
 1439TIP3    H1 4323   3.714   3.507   2.461
 1439TIP3    H2 4324   3.835   3.468   2.544
 1440TIP3   OH2 4325   4.272   3.007   3.826
 1440TIP3    H1 4326   4.235   2.927   3.789
 1440TIP3    H2 4327   4.208   3.036   3.891
 1441TIP3   OH2 4328   1.235   4.486   2.876
 1441TIP3    H1 4329   1.171   4.541   2.831
 1441TIP3    H2 4330   1.256   4.417   2.813
 1442TIP3   OH2 4331   5.129   1.412   4.350
 1442TIP3    H1 4332   5.038   1.438   4.336
 1442TIP3    H2 4333   5.179   1.493   4.342
 1443TIP3   OH2 4334   4.645   3.824   0.507
 1443TIP3    H1 4335   4.662   3.772   0.586
 1443TIP3    H2 4336   4.553   3.849   0.514
 1444TIP3   OH2 4337   0.566   3.559   3.173
 1444TIP3    H1 4338   0.613   3.533   3.252
 1444TIP3    H2 4339   0.633   3.560   3.104
 1445TIP3   OH2 4340   1.041   2.043   4.342
 1445TIP3    H1 4341   1.117   2.022   4.289
 1445TIP3    H2 4342   1.075   2.096   4.414
 1446TIP3   OH2 4343   0.509   5.821   2.737
 1446TIP3    H1 4344   0.556   5.752   2.691
 1446TIP3    H2 4345   0.513   5.795   2.829
 1447TIP3   OH2 4346   1.387   1.061   0.544
 1447TIP3    H1 4347   1.453   1.092   0.482
 1447TIP3    H2 4348   1.425   0.983   0.584
 1448TIP3   OH2 4349   0.036   5.746   3.843
 1448TIP3    H1 4350   0.125   5.727   3.871
 1448TIP3    H2 4351   0.046   5.784   3.756
 1449TIP3   OH2 4352   5.304   3.962   2.726
 1449TIP3    H1 4353   5.324   3.931   2.638
 1449TIP3    H2 4354   5.221   4.008   2.716
 1450TIP3   OH2 4355   0.235   0.046   2.304
 1450TIP3    H1 4356   0.321   0.081   2.324
 1450TIP3    H2 4357   0.226   0.055   2.209
 1451TIP3   OH2 4358   0.405   0.688   1.306
 1451TIP3    H1 4359   0.413   0.705   1.212
 1451TIP3    H2 4360   0.468   0.748   1.347
 1452TIP3   OH2 4361   2.477   1.997   5.054
 1452TIP3    H1 4362   2.447   1.993   4.963
 1452TIP3    H2 4363   2.432   1.925   5.097
 1453TIP3   OH2 4364   3.211   2.006   0.071
 1453TIP3    H1 4365   3.144   1.994   0.138
 1453TIP3    H2 4366   3.210   1.923   0.022
 1454TIP3   OH2 4367   0.690   0.867   2.581
 1454TIP3    H1 4368   0.699   0.851   2.488
 1454TIP3    H2 4369   0.757   0.933   2.601
 1455TIP3   OH2 4370   2.783   2.039   3.729
 1455TIP3    H1 4371   2.704   2.041   3.783
 1455TIP3    H2 4372   2.852   2.070   3.786
 1456TIP3   OH2 4373   4.841   2.217   1.674
 1456TIP3    H1 4374   4.799   2.215   1.760
 1456TIP3    H2 4375   4.924   2.264   1.689
 1457TIP3   OH2 4376   1.527   5.265   2.260
 1457TIP3    H1 4377   1.611   5.229   2.230
 1457TIP3    H2 4378   1.551   5.340   2.314
 1458TIP3   OH2 4379   1.606   4.214   4.473
 1458TIP3    H1 4380   1.550   4.231   4.397
 1458TIP3    H2 4381   1.612   4.118   4.478
 1459TIP3   OH2 4382   2.360   2.698   1.470
 1459TIP3    H1 4383   2.392   2.787   1.479
 1459TIP3    H2 4384   2.416   2.659   1.403
 1460TIP3   OH2 4385   3.839   5.470   4.970
 1460TIP3    H1 4386   3.833   5.465   5.065
 1460TIP3    H2 4387   3.913   5.529   4.953
 1461TIP3   OH2 4388   2.618   1.709   5.172
 1461TIP3    H1 4389   2.531   1.732   5.139
 1461TIP3    H2 4390   2.650   1.644   5.110
 1462TIP3   OH2 4391   2.042   5.264   0.218
 1462TIP3    H1 4392   2.093   5.343   0.195
 1462TIP3    H2 4393   2.040   5.214   0.137
 1463TIP3   OH2 4394   4.745   3.415   2.088
 1463TIP3    H1 4395   4.655   3.446   2.078
 1463TIP3    H2 4396   4.771   3.389   1.999
 1464TIP3   OH2 4397   2.411   2.200   4.784
 1464TIP3    H1 4398   2.409   2.116   4.740
 1464TIP3    H2 4399   2.502   2.210   4.813
 1465TIP3   OH2 4400   3.989   2.679   5.031
 1465TIP3    H1 4401   4.079   2.692   4.999
 1465TIP3    H2 4402   3.936   2.678   4.952
 1466TIP3   OH2 4403   0.010   0.124   0.220
 1466TIP3    H1 4404   0.095   0.147   0.182
 1466TIP3    H2 4405   0.030   0.100   0.310
 1467TIP3   OH2 4406   5.305   0.784   4.367
 1467TIP3    H1 4407   5.339   0.719   4.305
 1467TIP3    H2 4408   5.317   0.743   4.453
 1468TIP3   OH2 4409   0.547   3.494   2.775
 1468TIP3    H1 4410   0.543   3.458   2.687
 1468TIP3    H2 4411   0.476   3.558   2.779
 1469TIP3   OH2 4412   3.247   2.827   3.790
 1469TIP3    H1 4413   3.304   2.888   3.744
 1469TIP3    H2 4414   3.295   2.744   3.790
 1470TIP3   OH2 4415   4.072   0.737   0.986
 1470TIP3    H1 4416   4.050   0.824   0.954
 1470TIP3    H2 4417   3.998   0.711   1.040
 1471TIP3   OH2 4418   5.582   0.935   3.897
 1471TIP3    H1 4419   5.543   1.010   3.941
 1471TIP3    H2 4420   5.662   0.970   3.857
 1472TIP3   OH2 4421   1.888   4.318   2.457
 1472TIP3    H1 4422   1.801   4.279   2.466
 1472TIP3    H2 4423   1.876   4.391   2.396
 1473TIP3   OH2 4424   5.199   1.468   2.566
 1473TIP3    H1 4425   5.216   1.380   2.532
 1473TIP3    H2 4426   5.116   1.461   2.612
 1474TIP3   OH2 4427   1.482   3.513   0.789
 1474TIP3    H1 4428   1.412   3.493   0.851
 1474TIP3    H2 4429   1.477   3.608   0.777
 1475TIP3   OH2 4430   2.911   0.440   4.819
 1475TIP3    H1 4431   2.972   0.412   4.887
 1475TIP3    H2 4432   2.922   0.376   4.749
 1476TIP3   OH2 4433   0.388   4.848   2.268
 1476TIP3    H1 4434   0.309   4.862   2.320
 1476TIP3    H2 4435   0.366   4.880   2.181
 1477TIP3   OH2 4436   0.340   2.461   4.742
 1477TIP3    H1 4437   0.259   2.413   4.759
 1477TIP3    H2 4438   0.319   2.518   4.668
 1478TIP3   OH2 4439   2.872   3.839   4.181
 1478TIP3    H1 4440   2.942   3.779   4.154
 1478TIP3    H2 4441   2.915   3.925   4.185
 1479TIP3   OH2 4442   2.421   0.833   4.677
 1479TIP3    H1 4443   2.398   0.794   4.761
 1479TIP3    H2 4444   2.516   0.844   4.680
 1480TIP3   OH2 4445   1.584   4.097   2.786
 1480TIP3    H1 4446   1.604   4.089   2.879
 1480TIP3    H2 4447   1.573   4.191   2.772
 1481TIP3   OH2 4448   5.196   1.669   4.261
 1481TIP3    H1 4449   5.259   1.731   4.225
 1481TIP3    H2 4450   5.128   1.662   4.194
 1482TIP3   OH2 4451   0.377   1.654   3.816
 1482TIP3    H1 4452   0.346   1.587   3.876
 1482TIP3    H2 4453   0.368   1.736   3.865
 1483TIP3   OH2 4454   5.576   5.003   1.916
 1483TIP3    H1 4455   5.488   5.003   1.952
 1483TIP3    H2 4456   5.615   5.085   1.948
 1484TIP3   OH2 4457   4.175   0.748   3.842
 1484TIP3    H1 4458   4.265   0.762   3.811
 1484TIP3    H2 4459   4.178   0.767   3.935
 1485TIP3   OH2 4460   1.105   0.941   1.239
 1485TIP3    H1 4461   1.173   0.984   1.186
 1485TIP3    H2 4462   1.134   0.954   1.329
 1486TIP3   OH2 4463   2.921   2.668   4.392
 1486TIP3    H1 4464   2.971   2.734   4.440
 1486TIP3    H2 4465   2.970   2.655   4.311
 1487TIP3   OH2 4466   4.158   2.240   0.860
 1487TIP3    H1 4467   4.208   2.296   0.920
 1487TIP3    H2 4468   4.167   2.152   0.897
 1488TIP3   OH2 4469   4.808   4.520   5.071
 1488TIP3    H1 4470   4.885   4.512   5.128
 1488TIP3    H2 4471   4.821   4.603   5.025
 1489TIP3   OH2 4472   3.020   1.123   2.897
 1489TIP3    H1 4473   3.000   1.034   2.867
 1489TIP3    H2 4474   3.107   1.117   2.936
 1490TIP3   OH2 4475   4.018   2.209   1.467
 1490TIP3    H1 4476   4.067   2.270   1.411
 1490TIP3    H2 4477   4.051   2.226   1.555
 1491TIP3   OH2 4478   5.931   0.911   0.384
 1491TIP3    H1 4479   5.909   0.965   0.460
 1491TIP3    H2 4480   5.941   0.973   0.312
 1492TIP3   OH2 4481   2.672   1.784   3.062
 1492TIP3    H1 4482   2.704   1.848   2.999
 1492TIP3    H2 4483   2.577   1.782   3.048
 1493TIP3   OH2 4484   2.578   5.107   1.588
 1493TIP3    H1 4485   2.591   5.198   1.618
 1493TIP3    H2 4486   2.667   5.071   1.583
 1494TIP3   OH2 4487   5.217   1.095   0.736
 1494TIP3    H1 4488   5.276   1.139   0.675
 1494TIP3    H2 4489   5.179   1.023   0.685
 1495TIP3   OH2 4490   4.898   5.697   1.734
 1495TIP3    H1 4491   4.968   5.750   1.773
 1495TIP3    H2 4492   4.901   5.719   1.641
 1496TIP3   OH2 4493   3.685   2.822   0.678
 1496TIP3    H1 4494   3.740   2.745   0.693
 1496TIP3    H2 4495   3.723   2.863   0.600
 1497TIP3   OH2 4496   4.843   2.937   3.309
 1497TIP3    H1 4497   4.860   2.882   3.386
 1497TIP3    H2 4498   4.873   3.025   3.335
 1498TIP3   OH2 4499   5.288   0.666   4.041
 1498TIP3    H1 4500   5.217   0.637   4.098
 1498TIP3    H2 4501   5.335   0.586   4.018
 1499TIP3   OH2 4502   1.457   5.331   1.617
 1499TIP3    H1 4503   1.420   5.274   1.549
 1499TIP3    H2 4504   1.405   5.411   1.612
 1500TIP3   OH2 4505   5.070   5.432   0.909
 1500TIP3    H1 4506   5.131   5.506   0.910
 1500TIP3    H2 4507   5.035   5.430   0.998
 1501TIP3   OH2 4508   0.977   5.046   4.380
 1501TIP3    H1 4509   0.896   5.089   4.351
 1501TIP3    H2 4510   0.954   5.003   4.462
 1502TIP3   OH2 4511   1.855   2.487   0.108
 1502TIP3    H1 4512   1.830   2.423   0.174
 1502TIP3    H2 4513   1.934   2.529   0.143
 1503TIP3   OH2 4514   0.536   4.329   1.102
 1503TIP3    H1 4515   0.447   4.354   1.078
 1503TIP3    H2 4516   0.579   4.412   1.126
 1504TIP3   OH2 4517   4.035   0.611   3.151
 1504TIP3    H1 4518   3.965   0.669   3.182
 1504TIP3    H2 4519   3.995   0.562   3.079
 1505TIP3   OH2 4520   0.546   4.167   3.844
 1505TIP3    H1 4521   0.617   4.162   3.780
 1505TIP3    H2 4522   0.466   4.165   3.790
 1506TIP3   OH2 4523   4.730   4.288   4.472
 1506TIP3    H1 4524   4.725   4.193   4.469
 1506TIP3    H2 4525   4.811   4.310   4.426
 1507TIP3   OH2 4526   6.116   5.109   1.722
 1507TIP3    H1 4527   6.056   5.122   1.649
 1507TIP3    H2 4528   6.108   5.016   1.744
 1508TIP3   OH2 4529   0.462   2.873   4.327
 1508TIP3    H1 4530   0.457   2.780   4.350
 1508TIP3    H2 4531   0.543   2.903   4.367
 1509TIP3   OH2 4532   4.905   1.918   4.297
 1509TIP3    H1 4533   4.863   2.003   4.315
 1509TIP3    H2 4534   4.959   1.935   4.220
 1510TIP3   OH2 4535   1.787   2.394   0.696
 1510TIP3    H1 4536   1.828   2.480   0.688
 1510TIP3    H2 4537   1.828   2.355   0.773
 1511TIP3   OH2 4538   4.103   2.660   2.336
 1511TIP3    H1 4539   4.172   2.596   2.320
 1511TIP3    H2 4540   4.025   2.622   2.296
 1512TIP3   OH2 4541   0.536   2.310   0.377
 1512TIP3    H1 4542   0.525   2.318   0.282
 1512TIP3    H2 4543   0.495   2.227   0.400
 1513TIP3   OH2 4544   1.825   0.366   0.789
 1513TIP3    H1 4545   1.773   0.290   0.763
 1513TIP3    H2 4546   1.761   0.431   0.818
 1514TIP3   OH2 4547   3.670   1.364   3.763
 1514TIP3    H1 4548   3.603   1.423   3.795
 1514TIP3    H2 4549   3.699   1.402   3.680
 1515TIP3   OH2 4550   0.791   1.786   1.722
 1515TIP3    H1 4551   0.854   1.803   1.652
 1515TIP3    H2 4552   0.826   1.834   1.798
 1516TIP3   OH2 4553   4.191   4.774   3.025
 1516TIP3    H1 4554   4.223   4.864   3.017
 1516TIP3    H2 4555   4.269   4.719   3.015
 1517TIP3   OH2 4556   2.282   0.021   3.339
 1517TIP3    H1 4557   2.230   0.004   3.261
 1517TIP3    H2 4558   2.260   0.111   3.364
 1518TIP3   OH2 4559   1.717   4.096   2.006
 1518TIP3    H1 4560   1.630   4.107   2.044
 1518TIP3    H2 4561   1.735   4.179   1.962
 1519TIP3   OH2 4562   4.958   4.522   4.232
 1519TIP3    H1 4563   5.037   4.571   4.253
 1519TIP3    H2 4564   4.969   4.439   4.279
 1520TIP3   OH2 4565   2.784   5.179   0.377
 1520TIP3    H1 4566   2.701   5.144   0.347
 1520TIP3    H2 4567   2.764   5.217   0.463
 1521TIP3   OH2 4568   4.606   3.108   0.415
 1521TIP3    H1 4569   4.577   3.199   0.423
 1521TIP3    H2 4570   4.699   3.114   0.393
 1522TIP3   OH2 4571   6.070   4.970   0.753
 1522TIP3    H1 4572   6.070   5.066   0.760
 1522TIP3    H2 4573   6.163   4.947   0.745
 1523TIP3   OH2 4574   3.539   4.156   1.764
 1523TIP3    H1 4575   3.462   4.109   1.795
 1523TIP3    H2 4576   3.527   4.162   1.669
 1524TIP3   OH2 4577   4.160   4.264   0.451
 1524TIP3    H1 4578   4.184   4.201   0.383
 1524TIP3    H2 4579   4.237   4.319   0.460
 1525TIP3   OH2 4580   5.230   0.111   0.362
 1525TIP3    H1 4581   5.321   0.090   0.340
 1525TIP3    H2 4582   5.229   0.115   0.458
 1526TIP3   OH2 4583   2.821   3.408   2.156
 1526TIP3    H1 4584   2.900   3.457   2.133
 1526TIP3    H2 4585   2.832   3.323   2.113
 1527TIP3   OH2 4586   2.224   5.668   4.996
 1527TIP3    H1 4587   2.195   5.695   4.909
 1527TIP3    H2 4588   2.145   5.669   5.050
 1528TIP3   OH2 4589   3.133   5.223   0.341
 1528TIP3    H1 4590   3.137   5.319   0.347
 1528TIP3    H2 4591   3.050   5.206   0.295
 1529TIP3   OH2 4592   0.346   1.613   2.870
 1529TIP3    H1 4593   0.288   1.649   2.803
 1529TIP3    H2 4594   0.343   1.676   2.942
 1530TIP3   OH2 4595   1.284   3.081   0.386
 1530TIP3    H1 4596   1.190   3.084   0.365
 1530TIP3    H2 4597   1.318   3.165   0.353
 1531TIP3   OH2 4598   6.326   2.295   3.286
 1531TIP3    H1 4599   6.304   2.231   3.352
 1531TIP3    H2 4600   6.244   2.311   3.239
 1532TIP3   OH2 4601   4.459   2.884   1.883
 1532TIP3    H1 4602   4.419   2.864   1.968
 1532TIP3    H2 4603   4.391   2.931   1.834
 1533TIP3   OH2 4604   5.139   0.074   3.515
 1533TIP3    H1 4605   5.114  -0.018   3.520
 1533TIP3    H2 4606   5.214   0.076   3.456
 1534TIP3   OH2 4607   3.788   4.716   1.911
 1534TIP3    H1 4608   3.760   4.664   1.836
 1534TIP3    H2 4609   3.844   4.657   1.962
 1535TIP3   OH2 4610   1.300   1.798   4.870
 1535TIP3    H1 4611   1.375   1.739   4.867
 1535TIP3    H2 4612   1.263   1.793   4.781
 1536TIP3   OH2 4613   3.462   4.143   0.504
 1536TIP3    H1 4614   3.484   4.109   0.418
 1536TIP3    H2 4615   3.400   4.214   0.486
 1537TIP3   OH2 4616   2.811   1.787   4.664
 1537TIP3    H1 4617   2.816   1.766   4.571
 1537TIP3    H2 4618   2.835   1.706   4.708
 1538TIP3   OH2 4619   3.557   0.923   0.270
 1538TIP3    H1 4620   3.544   0.835   0.304
 1538TIP3    H2 4621   3.651   0.929   0.253
 1539TIP3   OH2 4622   3.867   4.571   3.927
 1539TIP3    H1 4623   3.873   4.608   4.015
 1539TIP3    H2 4624   3.773   4.571   3.908
 1540TIP3   OH2 4625   5.058   0.212   2.176
 1540TIP3    H1 4626   4.976   0.202   2.127
 1540TIP3    H2 4627   5.121   0.246   2.112
 1541TIP3   OH2 4628   4.313   3.527   4.572
 1541TIP3    H1 4629   4.223   3.556   4.564
 1541TIP3    H2 4630   4.307   3.434   4.592
 1542TIP3   OH2 4631   1.740   5.625   2.183
 1542TIP3    H1 4632   1.644   5.623   2.182
 1542TIP3    H2 4633   1.762   5.716   2.198
 1543TIP3   OH2 4634   5.673   5.028   1.063
 1543TIP3    H1 4635   5.675   5.024   1.159
 1543TIP3    H2 4636   5.639   5.116   1.043
 1544TIP3   OH2 4637   5.523   3.018   3.189
 1544TIP3    H1 4638   5.543   3.104   3.227
 1544TIP3    H2 4639   5.448   3.034   3.132
 1545TIP3   OH2 4640   2.183   3.432   4.762
 1545TIP3    H1 4641   2.238   3.409   4.837
 1545TIP3    H2 4642   2.209   3.370   4.694
 1546TIP3   OH2 4643   3.158   3.943   2.281
 1546TIP3    H1 4644   3.105   4.015   2.316
 1546TIP3    H2 4645   3.127   3.932   2.191
 1547TIP3   OH2 4646   2.404   2.331   1.318
 1547TIP3    H1 4647   2.438   2.336   1.407
 1547TIP3    H2 4648   2.426   2.416   1.279
 1548TIP3   OH2 4649   2.740   3.995   2.099
 1548TIP3    H1 4650   2.673   3.951   2.152
 1548TIP3    H2 4651   2.707   4.084   2.089
 1549TIP3   OH2 4652   5.604   0.659   2.589
 1549TIP3    H1 4653   5.657   0.707   2.652
 1549TIP3    H2 4654   5.612   0.567   2.615
 1550TIP3   OH2 4655   3.881   0.382   4.533
 1550TIP3    H1 4656   3.904   0.308   4.477
 1550TIP3    H2 4657   3.879   0.458   4.474
 1551TIP3   OH2 4658   5.603   2.661   4.071
 1551TIP3    H1 4659   5.617   2.721   4.145
 1551TIP3    H2 4660   5.579   2.717   3.998
 1552TIP3   OH2 4661   3.851   5.914   3.233
 1552TIP3    H1 4662   3.893   5.953   3.157
 1552TIP3    H2 4663   3.920   5.911   3.299
 1553TIP3   OH2 4664   5.750   0.555   2.865
 1553TIP3    H1 4665   5.716   0.480   2.816
 1553TIP3    H2 4666   5.835   0.525   2.898
 1554TIP3   OH2 4667   4.961   3.535   1.698
 1554TIP3    H1 4668   4.887   3.506   1.751
 1554TIP3    H2 4669   5.019   3.458   1.694
 1555TIP3   OH2 4670   1.423   1.723   3.519
 1555TIP3    H1 4671   1.393   1.632   3.512
 1555TIP3    H2 4672   1.451   1.732   3.610
 1556TIP3   OH2 4673   6.282   2.639   2.129
 1556TIP3    H1 4674   6.294   2.711   2.191
 1556TIP3    H2 4675   6.342   2.571   2.160
 1557TIP3   OH2 4676   2.196   4.755   2.076
 1557TIP3    H1 4677   2.121   4.762   2.017
 1557TIP3    H2 4678   2.271   4.742   2.018
 1558TIP3   OH2 4679   1.585   1.580   5.154
 1558TIP3    H1 4680   1.569   1.528   5.233
 1558TIP3    H2 4681   1.497   1.597   5.119
 1559TIP3   OH2 4682   0.792   4.952   3.581
 1559TIP3    H1 4683   0.799   4.865   3.542
 1559TIP3    H2 4684   0.877   4.993   3.563
 1560TIP3   OH2 4685   5.092   2.426   4.880
 1560TIP3    H1 4686   5.173   2.411   4.930
 1560TIP3    H2 4687   5.102   2.515   4.846
 1561TIP3   OH2 4688   1.312   3.584   1.602
 1561TIP3    H1 4689   1.321   3.636   1.522
 1561TIP3    H2 4690   1.218   3.585   1.620
 1562TIP3   OH2 4691   3.333   0.007   4.475
 1562TIP3    H1 4692   3.242  -0.006   4.501
 1562TIP3    H2 4693   3.337   0.097   4.444
 1563TIP3   OH2 4694   6.279   0.457   1.794
 1563TIP3    H1 4695   6.346   0.403   1.836
 1563TIP3    H2 4696   6.300   0.453   1.701
 1564TIP3   OH2 4697   4.836   4.367   2.184
 1564TIP3    H1 4698   4.813   4.394   2.273
 1564TIP3    H2 4699   4.810   4.441   2.130
 1565TIP3   OH2 4700   0.637   4.927   2.149
 1565TIP3    H1 4701   0.561   4.923   2.207
 1565TIP3    H2 4702   0.630   4.848   2.095
 1566TIP3   OH2 4703   3.114   0.693   3.249
 1566TIP3    H1 4704   3.030   0.735   3.267
 1566TIP3    H2 4705   3.159   0.754   3.190
 1567TIP3   OH2 4706   4.295   3.158   4.110
 1567TIP3    H1 4707   4.282   3.233   4.168
 1567TIP3    H2 4708   4.214   3.152   4.060
 1568TIP3   OH2 4709   2.926   2.805   3.279
 1568TIP3    H1 4710   2.847   2.860   3.282
 1568TIP3    H2 4711   2.998   2.866   3.270
 1569TIP3   OH2 4712   1.922   0.592   5.020
 1569TIP3    H1 4713   2.012   0.608   5.048
 1569TIP3    H2 4714   1.900   0.508   5.059
 1570TIP3   OH2 4715   0.460   1.374   0.629
 1570TIP3    H1 4716   0.486   1.463   0.653
 1570TIP3    H2 4717   0.390   1.386   0.565
 1571TIP3   OH2 4718   2.548   3.384   0.507
 1571TIP3    H1 4719   2.631   3.428   0.522
 1571TIP3    H2 4720   2.498   3.397   0.587
 1572TIP3   OH2 4721   4.165   4.914   2.297
 1572TIP3    H1 4722   4.139   4.906   2.205
 1572TIP3    H2 4723   4.141   4.830   2.336
 1573TIP3   OH2 4724   4.639   5.732   2.380
 1573TIP3    H1 4725   4.630   5.820   2.417
 1573TIP3    H2 4726   4.629   5.673   2.455
 1574TIP3   OH2 4727   3.198   5.386   5.013
 1574TIP3    H1 4728   3.197   5.478   4.988
 1574TIP3    H2 4729   3.219   5.386   5.107
 1575TIP3   OH2 4730   6.169   2.897   1.841
 1575TIP3    H1 4731   6.117   2.857   1.771
 1575TIP3    H2 4732   6.103   2.940   1.897
 1576TIP3   OH2 4733   4.645   5.139   0.311
 1576TIP3    H1 4734   4.584   5.162   0.380
 1576TIP3    H2 4735   4.608   5.179   0.232
 1577TIP3   OH2 4736   1.860   4.110   1.771
 1577TIP3    H1 4737   1.831   4.070   1.853
 1577TIP3    H2 4738   1.832   4.049   1.703
 1578TIP3   OH2 4739   5.908   4.750   4.183
 1578TIP3    H1 4740   5.831   4.704   4.217
 1578TIP3    H2 4741   5.981   4.716   4.234
 1579TIP3   OH2 4742   5.002   4.005   2.928
 1579TIP3    H1 4743   4.968   4.087   2.890
 1579TIP3    H2 4744   4.945   3.989   3.003
 1580TIP3   OH2 4745   3.646   0.025   3.893
 1580TIP3    H1 4746   3.662   0.108   3.847
 1580TIP3    H2 4747   3.720   0.018   3.953
 1581TIP3   OH2 4748   6.082   0.132   1.987
 1581TIP3    H1 4749   6.144   0.120   2.060
 1581TIP3    H2 4750   6.092   0.053   1.934
 1582TIP3   OH2 4751   1.771   1.666   2.099
 1582TIP3    H1 4752   1.833   1.647   2.028
 1582TIP3    H2 4753   1.689   1.687   2.054
 1583TIP3   OH2 4754   5.430   2.037   1.041
 1583TIP3    H1 4755   5.432   2.070   1.131
 1583TIP3    H2 4756   5.516   2.058   1.005
 1584TIP3   OH2 4757   3.313   5.631   4.474
 1584TIP3    H1 4758   3.279   5.719   4.486
 1584TIP3    H2 4759   3.271   5.579   4.542
 1585TIP3   OH2 4760   5.969   1.901   3.584
 1585TIP3    H1 4761   5.908   1.865   3.520
 1585TIP3    H2 4762   5.928   1.882   3.669
 1586TIP3   OH2 4763   5.428   4.555   4.715
 1586TIP3    H1 4764   5.342   4.546   4.756
 1586TIP3    H2 4765   5.491   4.532   4.784
 1587TIP3   OH2 4766   1.238   2.909   3.590
 1587TIP3    H1 4767   1.305   2.876   3.650
 1587TIP3    H2 4768   1.275   2.989   3.554
 1588TIP3   OH2 4769   5.500   5.270   2.769
 1588TIP3    H1 4770   5.416   5.226   2.753
 1588TIP3    H2 4771   5.480   5.363   2.764
 1589TIP3   OH2 4772   1.477   1.588   4.770
 1589TIP3    H1 4773   1.513   1.553   4.688
 1589TIP3    H2 4774   1.425   1.517   4.806
 1590TIP3   OH2 4775   0.422   2.209   4.462
 1590TIP3    H1 4776   0.435   2.304   4.465
 1590TIP3    H2 4777   0.350   2.197   4.401
 1591TIP3   OH2 4778   0.711   0.770   1.217
 1591TIP3    H1 4779   0.656   0.737   1.288
 1591TIP3    H2 4780   0.737   0.858   1.246
 1592TIP3   OH2 4781   4.149   1.347   2.687
 1592TIP3    H1 4782   4.168   1.407   2.614
 1592TIP3    H2 4783   4.230   1.343   2.737
 1593TIP3   OH2 4784   6.289   2.064   3.465
 1593TIP3    H1 4785   6.339   1.984   3.481
 1593TIP3    H2 4786   6.214   2.058   3.524
 1594TIP3   OH2 4787   4.323   2.472   2.375
 1594TIP3    H1 4788   4.326   2.451   2.468
 1594TIP3    H2 4789   4.407   2.440   2.340
 1595TIP3   OH2 4790   1.396   5.131   4.060
 1595TIP3    H1 4791   1.429   5.177   4.137
 1595TIP3    H2 4792   1.337   5.063   4.095
 1596TIP3   OH2 4793   2.337   0.815   0.914
 1596TIP3    H1 4794   2.299   0.902   0.903
 1596TIP3    H2 4795   2.261   0.757   0.923
 1597TIP3   OH2 4796   2.935   2.333   0.383
 1597TIP3    H1 4797   2.896   2.268   0.324
 1597TIP3    H2 4798   2.895   2.416   0.358
 1598TIP3   OH2 4799   2.413   4.751   1.108
 1598TIP3    H1 4800   2.436   4.725   1.019
 1598TIP3    H2 4801   2.385   4.670   1.150
 1599TIP3   OH2 4802   3.912   2.389   5.048
 1599TIP3    H1 4803   3.943   2.461   5.103
 1599TIP3    H2 4804   3.841   2.428   4.996
 1600TIP3   OH2 4805   0.561   4.908   3.980
 1600TIP3    H1 4806   0.547   4.950   3.895
 1600TIP3    H2 4807   0.648   4.936   4.007
 1601TIP3   OH2 4808   5.931   4.477   2.378
 1601TIP3    H1 4809   5.886   4.543   2.325
 1601TIP3    H2 4810   5.949   4.406   2.318
 1602TIP3   OH2 4811   6.188   2.162   4.535
 1602TIP3    H1 4812   6.197   2.070   4.513
 1602TIP3    H2 4813   6.140   2.200   4.461
 1603TIP3   OH2 4814   5.039   5.323   0.277
 1603TIP3    H1 4815   5.027   5.267   0.354
 1603TIP3    H2 4816   5.108   5.280   0.226
 1604TIP3   OH2 4817   4.221   1.017   4.793
 1604TIP3    H1 4818   4.175   1.069   4.727
 1604TIP3    H2 4819   4.268   0.950   4.742
 1605TIP3   OH2 4820   2.241   5.452   3.160
 1605TIP3    H1 4821   2.186   5.420   3.232
 1605TIP3    H2 4822   2.277   5.534   3.192
 1606TIP3   OH2 4823   0.610   3.509   0.725
 1606TIP3    H1 4824   0.560   3.537   0.802
 1606TIP3    H2 4825   0.569   3.428   0.697
 1607TIP3   OH2 4826   4.700   3.614   4.546
 1607TIP3    H1 4827   4.670   3.638   4.458
 1607TIP3    H2 4828   4.717   3.697   4.589
 1608TIP3   OH2 4829   4.583   4.765   2.679
 1608TIP3    H1 4830   4.491   4.785   2.666
 1608TIP3    H2 4831   4.605   4.808   2.762
 1609TIP3   OH2 4832   4.278   3.473   5.145
 1609TIP3    H1 4833   4.218   3.489   5.218
 1609TIP3    H2 4834   4.360   3.513   5.173
 1610TIP3   OH2 4835   0.704   2.980   1.576
 1610TIP3    H1 4836   0.659   3.056   1.539
 1610TIP3    H2 4837   0.699   2.913   1.508
 1611TIP3   OH2 4838   0.964   1.206   0.453
 1611TIP3    H1 4839   0.898   1.252   0.505
 1611TIP3    H2 4840   1.007   1.274   0.402
 1612TIP3   OH2 4841   5.500   2.163   2.653
 1612TIP3    H1 4842   5.505   2.256   2.630
 1612TIP3    H2 4843   5.512   2.162   2.748
 1613TIP3   OH2 4844   5.294   1.560   1.182
 1613TIP3    H1 4845   5.325   1.586   1.269
 1613TIP3    H2 4846   5.321   1.632   1.124
 1614TIP3   OH2 4847   2.476   1.706   1.437
 1614TIP3    H1 4848   2.564   1.735   1.460
 1614TIP3    H2 4849   2.457   1.636   1.499
 1615TIP3   OH2 4850   0.229   1.546   0.177
 1615TIP3    H1 4851   0.180   1.628   0.185
 1615TIP3    H2 4852   0.173   1.490   0.124
 1616TIP3   OH2 4853   2.446   2.082   3.147
 1616TIP3    H1 4854   2.540   2.083   3.127
 1616TIP3    H2 4855   2.438   2.018   3.217
 1617TIP3   OH2 4856   6.296   3.196   1.675
 1617TIP3    H1 4857   6.377   3.156   1.705
 1617TIP3    H2 4858   6.324   3.260   1.609
 1618TIP3   OH2 4859   3.562   1.831   3.699
 1618TIP3    H1 4860   3.584   1.921   3.725
 1618TIP3    H2 4861   3.640   1.800   3.653
 1619TIP3   OH2 4862   6.043   4.668   2.589
 1619TIP3    H1 4863   6.052   4.597   2.525
 1619TIP3    H2 4864   5.988   4.631   2.658
 1620TIP3   OH2 4865   1.667   1.212   4.725
 1620TIP3    H1 4866   1.613   1.276   4.678
 1620TIP3    H2 4867   1.626   1.205   4.811
 1621TIP3   OH2 4868   0.049   5.714   0.235
 1621TIP3    H1 4869   0.049   5.741   0.143
 1621TIP3    H2 4870   0.122   5.762   0.274
 1622TIP3   OH2 4871   4.983   0.649   3.216
 1622TIP3    H1 4872   4.992   0.670   3.123
 1622TIP3    H2 4873   4.891   0.623   3.225
 1623TIP3   OH2 4874   5.954   5.446   2.021
 1623TIP3    H1 4875   5.975   5.514   1.958
 1623TIP3    H2 4876   6.039   5.409   2.045
 1624TIP3   OH2 4877   3.290   0.181   3.931
 1624TIP3    H1 4878   3.371   0.229   3.913
 1624TIP3    H2 4879   3.263   0.148   3.845
 1625TIP3   OH2 4880   1.042   1.749   3.937
 1625TIP3    H1 4881   1.092   1.822   3.972
 1625TIP3    H2 4882   1.001   1.783   3.857
 1626TIP3   OH2 4883   5.240   3.624   4.700
 1626TIP3    H1 4884   5.159   3.668   4.674
 1626TIP3    H2 4885   5.230   3.534   4.669
 1627TIP3   OH2 4886   0.522   4.314   4.496
 1627TIP3    H1 4887   0.471   4.236   4.474
 1627TIP3    H2 4888   0.470   4.357   4.565
 1628TIP3   OH2 4889   0.190   1.450   3.574
 1628TIP3    H1 4890   0.153   1.442   3.486
 1628TIP3    H2 4891   0.284   1.464   3.559
 1629TIP3   OH2 4892   5.246   5.059   3.470
 1629TIP3    H1 4893   5.208   5.109   3.541
 1629TIP3    H2 4894   5.225   4.968   3.491
 1630TIP3   OH2 4895   0.722   3.000   2.021
 1630TIP3    H1 4896   0.666   3.029   1.949
 1630TIP3    H2 4897   0.809   3.032   1.998
 1631TIP3   OH2 4898   5.958   2.598   5.127
 1631TIP3    H1 4899   5.979   2.651   5.050
 1631TIP3    H2 4900   5.864   2.579   5.119
 1632TIP3   OH2 4901   6.067   5.459   3.780
 1632TIP3    H1 4902   6.058   5.504   3.697
 1632TIP3    H2 4903   6.073   5.366   3.756
 1633TIP3   OH2 4904   4.578   1.511   0.927
 1633TIP3    H1 4905   4.588   1.436   0.868
 1633TIP3    H2 4906   4.485   1.510   0.951
 1634TIP3   OH2 4907   6.015   2.722   2.142
 1634TIP3    H1 4908   6.019   2.795   2.203
 1634TIP3    H2 4909   6.107   2.698   2.128
 1635TIP3   OH2 4910   1.024   3.630   3.730
 1635TIP3    H1 4911   1.067   3.556   3.773
 1635TIP3    H2 4912   0.935   3.599   3.714
 1636TIP3   OH2 4913   0.520   1.532   0.145
 1636TIP3    H1 4914   0.569   1.552   0.225
 1636TIP3    H2 4915   0.428   1.540   0.171
 1637TIP3   OH2 4916   3.780   1.136   3.414
 1637TIP3    H1 4917   3.706   1.129   3.354
 1637TIP3    H2 4918   3.799   1.046   3.440
 1638TIP3   OH2 4919   5.852   1.988   2.939
 1638TIP3    H1 4920   5.897   1.930   3.001
 1638TIP3    H2 4921   5.858   2.075   2.980
 1639TIP3   OH2 4922   2.201   0.504   5.007
 1639TIP3    H1 4923   2.242   0.588   4.984
 1639TIP3    H2 4924   2.227   0.444   4.937
 1640TIP3   OH2 4925   2.569   0.380   4.230
 1640TIP3    H1 4926   2.516   0.454   4.258
 1640TIP3    H2 4927   2.646   0.420   4.188
 1641TIP3   OH2 4928   4.290   4.523   3.392
 1641TIP3    H1 4929   4.333   4.547   3.475
 1641TIP3    H2 4930   4.232   4.597   3.373
 1642TIP3   OH2 4931   2.616   1.609   3.432
 1642TIP3    H1 4932   2.625   1.572   3.520
 1642TIP3    H2 4933   2.648   1.699   3.441
 1643TIP3   OH2 4934   5.657   2.903   4.219
 1643TIP3    H1 4935   5.665   2.998   4.228
 1643TIP3    H2 4936   5.743   2.873   4.191
 1644TIP3   OH2 4937   5.613   0.985   2.843
 1644TIP3    H1 4938   5.666   1.053   2.884
 1644TIP3    H2 4939   5.677   0.928   2.800
 1645TIP3   OH2 4940   3.531   4.567   2.278
 1645TIP3    H1 4941   3.566   4.493   2.229
 1645TIP3    H2 4942   3.512   4.532   2.365
 1646TIP3   OH2 4943   5.040   1.150   0.966
 1646TIP3    H1 4944   5.119   1.138   0.914
 1646TIP3    H2 4945   5.070   1.145   1.057
 1647TIP3   OH2 4946   1.357   3.821   1.469
 1647TIP3    H1 4947   1.448   3.845   1.453
 1647TIP3    H2 4948   1.306   3.899   1.444
 1648TIP3   OH2 4949   2.938   5.913   2.116
 1648TIP3    H1 4950   2.946   5.992   2.171
 1648TIP3    H2 4951   3.028   5.889   2.097
 1649TIP3   OH2 4952   4.218   0.853   4.082
 1649TIP3    H1 4953   4.154   0.853   4.153
 1649TIP3    H2 4954   4.292   0.803   4.116
 1650TIP3   OH2 4955   0.021   2.927   2.983
 1650TIP3    H1 4956   0.039   2.834   2.966
 1650TIP3    H2 4957   0.102   2.960   3.024
 1651TIP3   OH2 4958   2.072   3.082   2.894
 1651TIP3    H1 4959   2.066   3.085   2.989
 1651TIP3    H2 4960   1.984   3.103   2.863
 1652TIP3   OH2 4961   4.315   2.987   0.165
 1652TIP3    H1 4962   4.259   2.967   0.241
 1652TIP3    H2 4963   4.326   2.903   0.121
 1653TIP3   OH2 4964   2.497   2.122   0.489
 1653TIP3    H1 4965   2.501   2.146   0.582
 1653TIP3    H2 4966   2.425   2.060   0.483
 1654TIP3   OH2 4967   0.551   5.618   2.510
 1654TIP3    H1 4968   0.567   5.678   2.437
 1654TIP3    H2 4969   0.458   5.629   2.531
 1655TIP3   OH2 4970   4.074   3.102   3.983
 1655TIP3    H1 4971   4.011   3.031   3.999
 1655TIP3    H2 4972   4.024   3.167   3.934
 1656TIP3   OH2 4973   2.826   3.840   2.472
 1656TIP3    H1 4974   2.788   3.759   2.437
 1656TIP3    H2 4975   2.795   3.909   2.414
 1657TIP3   OH2 4976   2.095   3.962   3.930
 1657TIP3    H1 4977   2.185   3.960   3.964
 1657TIP3    H2 4978   2.096   4.031   3.863
 1658TIP3   OH2 4979   3.290   5.741   3.622
 1658TIP3    H1 4980   3.202   5.715   3.649
 1658TIP3    H2 4981   3.348   5.693   3.680
 1659TIP3   OH2 4982   4.992   3.121   4.576
 1659TIP3    H1 4983   5.005   3.214   4.560
 1659TIP3    H2 4984   4.911   3.101   4.530
 1660TIP3   OH2 4985   2.565   5.717   0.882
 1660TIP3    H1 4986   2.626   5.712   0.808
 1660TIP3    H2 4987   2.544   5.626   0.901
 1661TIP3   OH2 4988   2.485   5.725   0.321
 1661TIP3    H1 4989   2.538   5.646   0.311
 1661TIP3    H2 4990   2.473   5.757   0.232
 1662TIP3   OH2 4991   0.472   1.708   3.565
 1662TIP3    H1 4992   0.502   1.799   3.571
 1662TIP3    H2 4993   0.423   1.694   3.646
 1663TIP3   OH2 4994   2.314   5.017   1.118
 1663TIP3    H1 4995   2.401   4.983   1.139
 1663TIP3    H2 4996   2.257   4.940   1.125
 1664TIP3   OH2 4997   2.904   0.896   1.105
 1664TIP3    H1 4998   2.884   0.925   1.194
 1664TIP3    H2 4999   2.827   0.845   1.079
 1665TIP3   OH2 5000   2.190   3.897   3.619
 1665TIP3    H1 5001   2.247   3.834   3.664
 1665TIP3    H2 5002   2.237   3.980   3.623
 1666TIP3   OH2 5003   4.195   3.381   4.244
 1666TIP3    H1 5004   4.132   3.329   4.295
 1666TIP3    H2 5005   4.144   3.455   4.212
 1667TIP3   OH2 5006   1.374   3.702   3.107
 1667TIP3    H1 5007   1.303   3.702   3.171
 1667TIP3    H2 5008   1.343   3.645   3.036
 1668TIP3   OH2 5009   0.988   0.303   3.071
 1668TIP3    H1 5010   0.913   0.330   3.124
 1668TIP3    H2 5011   1.001   0.376   3.010
 1669TIP3   OH2 5012   1.889   0.850   1.662
 1669TIP3    H1 5013   1.982   0.852   1.685
 1669TIP3    H2 5014   1.879   0.773   1.606
 1670TIP3   OH2 5015   2.581   1.818   0.832
 1670TIP3    H1 5016   2.639   1.772   0.772
 1670TIP3    H2 5017   2.639   1.862   0.893
 1671TIP3   OH2 5018   1.984   5.510   0.728
 1671TIP3    H1 5019   1.895   5.494   0.759
 1671TIP3    H2 5020   1.973   5.566   0.651
 1672TIP3   OH2 5021   2.375   3.132   1.883
 1672TIP3    H1 5022   2.323   3.101   1.957
 1672TIP3    H2 5023   2.372   3.059   1.820
 1673TIP3   OH2 5024   0.101   4.475   2.001
 1673TIP3    H1 5025   0.068   4.512   1.919
 1673TIP3    H2 5026   0.191   4.506   2.007
 1674TIP3   OH2 5027   2.222   5.755   3.988
 1674TIP3    H1 5028   2.201   5.686   3.926
 1674TIP3    H2 5029   2.139   5.778   4.029
 1675TIP3   OH2 5030   3.170   0.095   4.918
 1675TIP3    H1 5031   3.243   0.065   4.866
 1675TIP3    H2 5032   3.098   0.036   4.897
 1676TIP3   OH2 5033   5.393   5.206   1.647
 1676TIP3    H1 5034   5.404   5.235   1.737
 1676TIP3    H2 5035   5.320   5.257   1.613
 1677TIP3   OH2 5036   0.429   2.110   0.481
 1677TIP3    H1 5037   0.444   2.015   0.490
 1677TIP3    H2 5038   0.342   2.124   0.518
 1678TIP3   OH2 5039   2.149   1.284   2.240
 1678TIP3    H1 5040   2.154   1.297   2.335
 1678TIP3    H2 5041   2.227   1.234   2.218
 1679TIP3   OH2 5042   2.754   2.855   4.707
 1679TIP3    H1 5043   2.793   2.915   4.771
 1679TIP3    H2 5044   2.811   2.779   4.708
 1680TIP3   OH2 5045   5.514   3.682   1.434
 1680TIP3    H1 5046   5.592   3.690   1.490
 1680TIP3    H2 5047   5.444   3.659   1.494
 1681TIP3   OH2 5048   1.441   4.134   2.064
 1681TIP3    H1 5049   1.396   4.177   1.991
 1681TIP3    H2 5050   1.477   4.207   2.116
 1682TIP3   OH2 5051   1.149   0.748   3.749
 1682TIP3    H1 5052   1.079   0.812   3.755
 1682TIP3    H2 5053   1.126   0.681   3.814
 1683TIP3   OH2 5054   5.220   2.979   3.597
 1683TIP3    H1 5055   5.190   3.037   3.527
 1683TIP3    H2 5056   5.241   2.897   3.552
 1684TIP3   OH2 5057   1.845   1.055   3.156
 1684TIP3    H1 5058   1.885   1.035   3.241
 1684TIP3    H2 5059   1.919   1.064   3.096
 1685TIP3   OH2 5060   2.517   3.938   5.119
 1685TIP3    H1 5061   2.474   4.022   5.135
 1685TIP3    H2 5062   2.592   3.960   5.063
 1686TIP3   OH2 5063   2.975   4.797   2.620
 1686TIP3    H1 5064   2.951   4.840   2.538
 1686TIP3    H2 5065   3.005   4.869   2.676
 1687TIP3   OH2 5066   3.377   5.087   4.589
 1687TIP3    H1 5067   3.400   5.150   4.657
 1687TIP3    H2 5068   3.375   5.139   4.508
 1688TIP3   OH2 5069   2.409   3.367   1.777
 1688TIP3    H1 5070   2.370   3.282   1.800
 1688TIP3    H2 5071   2.334   3.426   1.767
 1689TIP3   OH2 5072   5.825   3.986   0.373
 1689TIP3    H1 5073   5.873   4.068   0.378
 1689TIP3    H2 5074   5.733   4.013   0.371
 1690TIP3   OH2 5075   1.538   0.028   0.372
 1690TIP3    H1 5076   1.554   0.121   0.357
 1690TIP3    H2 5077   1.443   0.018   0.363
 1691TIP3   OH2 5078   1.501   5.996   2.734
 1691TIP3    H1 5079   1.537   5.947   2.660
 1691TIP3    H2 5080   1.451   6.067   2.693
 1692TIP3   OH2 5081   0.897   2.075   1.211
 1692TIP3    H1 5082   0.980   2.107   1.174
 1692TIP3    H2 5083   0.914   2.071   1.305
 1693TIP3   OH2 5084   0.589   1.422   3.919
 1693TIP3    H1 5085   0.545   1.487   3.973
 1693TIP3    H2 5086   0.571   1.338   3.963
 1694TIP3   OH2 5087   5.602   4.548   2.484
 1694TIP3    H1 5088   5.518   4.521   2.446
 1694TIP3    H2 5089   5.648   4.590   2.412
 1695TIP3   OH2 5090   3.130   4.226   1.931
 1695TIP3    H1 5091   3.117   4.310   1.885
 1695TIP3    H2 5092   3.043   4.187   1.932
 1696TIP3   OH2 5093   5.598   5.241   3.235
 1696TIP3    H1 5094   5.691   5.224   3.250
 1696TIP3    H2 5095   5.594   5.279   3.148
 1697TIP3   OH2 5096   5.491   0.786   0.118
 1697TIP3    H1 5097   5.507   0.725   0.190
 1697TIP3    H2 5098   5.575   0.827   0.101
 1698TIP3   OH2 5099   4.038   1.880   1.625
 1698TIP3    H1 5100   4.100   1.953   1.620
 1698TIP3    H2 5101   3.967   1.913   1.681
 1699TIP3   OH2 5102   5.327   4.890   4.898
 1699TIP3    H1 5103   5.280   4.973   4.910
 1699TIP3    H2 5104   5.334   4.881   4.803
 1700TIP3   OH2 5105   4.516   0.921   4.886
 1700TIP3    H1 5106   4.487   1.010   4.905
 1700TIP3    H2 5107   4.470   0.897   4.806
 1701TIP3   OH2 5108   1.841   1.074   3.750
 1701TIP3    H1 5109   1.903   1.041   3.685
 1701TIP3    H2 5110   1.772   1.008   3.753
 1702TIP3   OH2 5111   3.935   5.611   0.459
 1702TIP3    H1 5112   3.952   5.593   0.551
 1702TIP3    H2 5113   3.852   5.566   0.441
 1703TIP3   OH2 5114   4.532   5.660   0.035
 1703TIP3    H1 5115   4.589   5.607   0.091
 1703TIP3    H2 5116   4.490   5.596  -0.023
 1704TIP3   OH2 5117   2.176   4.490   2.154
 1704TIP3    H1 5118   2.164   4.585   2.147
 1704TIP3    H2 5119   2.200   4.462   2.065
 1705TIP3   OH2 5120   3.865   1.253   3.969
 1705TIP3    H1 5121   3.869   1.170   4.017
 1705TIP3    H2 5122   3.795   1.239   3.905
 1706TIP3   OH2 5123   0.425   1.717   4.773
 1706TIP3    H1 5124   0.484   1.663   4.722
 1706TIP3    H2 5125   0.432   1.804   4.734
 1707TIP3   OH2 5126   1.509   4.701   1.290
 1707TIP3    H1 5127   1.485   4.782   1.245
 1707TIP3    H2 5128   1.464   4.632   1.241
 1708TIP3   OH2 5129   0.381   0.571   2.795
 1708TIP3    H1 5130   0.370   0.657   2.754
 1708TIP3    H2 5131   0.475   0.564   2.812
 1709TIP3   OH2 5132   5.049   2.727   2.274
 1709TIP3    H1 5133   5.029   2.766   2.189
 1709TIP3    H2 5134   5.112   2.658   2.254
 1710TIP3   OH2 5135   1.430   2.104   1.654
 1710TIP3    H1 5136   1.483   2.029   1.681
 1710TIP3    H2 5137   1.419   2.092   1.559
 1711TIP3   OH2 5138   1.768   4.583   0.280
 1711TIP3    H1 5139   1.751   4.600   0.373
 1711TIP3    H2 5140   1.863   4.572   0.275
 1712TIP3   OH2 5141   2.993   3.306   1.907
 1712TIP3    H1 5142   2.962   3.221   1.938
 1712TIP3    H2 5143   3.058   3.332   1.973
 1713TIP3   OH2 5144   0.744   5.296   3.582
 1713TIP3    H1 5145   0.678   5.358   3.551
 1713TIP3    H2 5146   0.715   5.211   3.550
 1714TIP3   OH2 5147   1.628   5.529   3.446
 1714TIP3    H1 5148   1.537   5.519   3.420
 1714TIP3    H2 5149   1.658   5.440   3.466
 1715TIP3   OH2 5150   1.049   4.222   1.589
 1715TIP3    H1 5151   1.016   4.308   1.564
 1715TIP3    H2 5152   1.082   4.234   1.678
 1716TIP3   OH2 5153   2.363   0.534   2.590
 1716TIP3    H1 5154   2.347   0.629   2.593
 1716TIP3    H2 5155   2.412   0.515   2.670
 1717TIP3   OH2 5156   0.683   5.544   0.229
 1717TIP3    H1 5157   0.706   5.514   0.141
 1717TIP3    H2 5158   0.734   5.488   0.287
 1718TIP3   OH2 5159   2.989   1.877   1.215
 1718TIP3    H1 5160   3.022   1.877   1.305
 1718TIP3    H2 5161   2.899   1.908   1.222
 1719TIP3   OH2 5162   2.401   2.941   4.715
 1719TIP3    H1 5163   2.441   2.974   4.634
 1719TIP3    H2 5164   2.446   2.987   4.785
 1720TIP3   OH2 5165   0.462   0.248   2.055
 1720TIP3    H1 5166   0.367   0.257   2.054
 1720TIP3    H2 5167   0.493   0.327   2.098
 1721TIP3   OH2 5168   4.140   3.803   3.966
 1721TIP3    H1 5169   4.044   3.801   3.967
 1721TIP3    H2 5170   4.164   3.870   4.029
 1722TIP3   OH2 5171   1.438   5.837   0.209
 1722TIP3    H1 5172   1.520   5.884   0.220
 1722TIP3    H2 5173   1.384   5.896   0.156
 1723TIP3   OH2 5174   6.043   2.312   0.682
 1723TIP3    H1 5175   6.077   2.340   0.597
 1723TIP3    H2 5176   5.974   2.375   0.702
 1724TIP3   OH2 5177   2.821   2.337   2.591
 1724TIP3    H1 5178   2.859   2.294   2.515
 1724TIP3    H2 5179   2.797   2.425   2.560
 1725TIP3   OH2 5180   4.138   0.712   2.689
 1725TIP3    H1 5181   4.222   0.754   2.671
 1725TIP3    H2 5182   4.158   0.648   2.758
 1726TIP3   OH2 5183   5.451   1.633   0.507
 1726TIP3    H1 5184   5.390   1.692   0.552
 1726TIP3    H2 5185   5.429   1.642   0.414
 1727TIP3   OH2 5186   5.252   5.222   2.708
 1727TIP3    H1 5187   5.207   5.306   2.707
 1727TIP3    H2 5188   5.234   5.184   2.621
 1728TIP3   OH2 5189   3.356   3.034   3.642
 1728TIP3    H1 5190   3.433   3.087   3.663
 1728TIP3    H2 5191   3.289   3.098   3.617
 1729TIP3   OH2 5192   4.407   1.903   3.261
 1729TIP3    H1 5193   4.478   1.839   3.270
 1729TIP3    H2 5194   4.437   1.964   3.194
 1730TIP3   OH2 5195   1.069   5.120   1.173
 1730TIP3    H1 5196   1.030   5.059   1.111
 1730TIP3    H2 5197   1.092   5.067   1.249
 1731TIP3   OH2 5198   0.650   4.312   0.757
 1731TIP3    H1 5199   0.648   4.398   0.799
 1731TIP3    H2 5200   0.594   4.258   0.812
 1732TIP3   OH2 5201   0.377   5.306   0.895
 1732TIP3    H1 5202   0.382   5.263   0.810
 1732TIP3    H2 5203   0.464   5.343   0.908
 1733TIP3   OH2 5204   5.898   5.371   4.260
 1733TIP3    H1 5205   5.956   5.392   4.188
 1733TIP3    H2 5206   5.817   5.418   4.241
 1734TIP3   OH2 5207   1.833   3.322   4.018
 1734TIP3    H1 5208   1.837   3.418   4.018
 1734TIP3    H2 5209   1.924   3.294   4.029
 1735TIP3   OH2 5210   6.117   0.778   2.836
 1735TIP3    H1 5211   6.042   0.813   2.883
 1735TIP3    H2 5212   6.189   0.781   2.899
 1736TIP3   OH2 5213   2.432   3.253   1.510
 1736TIP3    H1 5214   2.526   3.271   1.500
 1736TIP3    H2 5215   2.415   3.268   1.603
 1737TIP3   OH2 5216   2.768   3.201   0.795
 1737TIP3    H1 5217   2.798   3.243   0.714
 1737TIP3    H2 5218   2.686   3.247   0.817
 1738TIP3   OH2 5219   4.583   2.042   0.555
 1738TIP3    H1 5220   4.601   2.071   0.644
 1738TIP3    H2 5221   4.571   1.948   0.562
 1739TIP3   OH2 5222   1.391   5.771   3.840
 1739TIP3    H1 5223   1.436   5.856   3.846
 1739TIP3    H2 5224   1.352   5.759   3.926
 1740TIP3   OH2 5225   0.120   5.811   5.128
 1740TIP3    H1 5226   0.053   5.850   5.072
 1740TIP3    H2 5227   0.203   5.827   5.082
 1741TIP3   OH2 5228   0.357   2.786   3.495
 1741TIP3    H1 5229   0.288   2.788   3.561
 1741TIP3    H2 5230   0.323   2.729   3.426
 1742TIP3   OH2 5231   3.623   2.877   0.126
 1742TIP3    H1 5232   3.603   2.901   0.216
 1742TIP3    H2 5233   3.539   2.875   0.081
 1743TIP3   OH2 5234   3.675   2.833   2.852
 1743TIP3    H1 5235   3.600   2.798   2.899
 1743TIP3    H2 5236   3.637   2.894   2.788
 1744TIP3   OH2 5237   5.632   2.709   2.576
 1744TIP3    H1 5238   5.544   2.737   2.601
 1744TIP3    H2 5239   5.687   2.731   2.651
 1745TIP3   OH2 5240   1.379   0.099   4.922
 1745TIP3    H1 5241   1.364   0.170   4.985
 1745TIP3    H2 5242   1.308   0.108   4.859
 1746TIP3   OH2 5243   1.611   5.106   3.227
 1746TIP3    H1 5244   1.528   5.086   3.271
 1746TIP3    H2 5245   1.651   5.021   3.211
 1747TIP3   OH2 5246   1.156   2.140   0.998
 1747TIP3    H1 5247   1.224   2.085   0.958
 1747TIP3    H2 5248   1.075   2.114   0.954
 1748TIP3   OH2 5249   3.444   2.423   3.387
 1748TIP3    H1 5250   3.446   2.518   3.401
 1748TIP3    H2 5251   3.438   2.413   3.292
 1749TIP3   OH2 5252   2.932   3.343   3.860
 1749TIP3    H1 5253   2.869   3.390   3.915
 1749TIP3    H2 5254   2.942   3.399   3.783
 1750TIP3   OH2 5255   2.072   2.557   4.630
 1750TIP3    H1 5256   2.090   2.631   4.687
 1750TIP3    H2 5257   2.146   2.556   4.568
 1751TIP3   OH2 5258   4.930   1.749   0.181
 1751TIP3    H1 5259   4.862   1.742   0.113
 1751TIP3    H2 5260   5.004   1.700   0.145
 1752TIP3   OH2 5261   0.222   4.333   2.663
 1752TIP3    H1 5262   0.165   4.374   2.728
 1752TIP3    H2 5263   0.291   4.292   2.714
 1753TIP3   OH2 5264   1.901   1.781   0.466
 1753TIP3    H1 5265   1.904   1.726   0.545
 1753TIP3    H2 5266   1.882   1.719   0.395
 1754TIP3   OH2 5267   3.942   4.343   1.604
 1754TIP3    H1 5268   3.959   4.274   1.668
 1754TIP3    H2 5269   3.990   4.419   1.636
 1755TIP3   OH2 5270   2.267   1.281   4.409
 1755TIP3    H1 5271   2.311   1.361   4.438
 1755TIP3    H2 5272   2.297   1.213   4.469
 1756TIP3   OH2 5273   5.678   4.155   0.720
 1756TIP3    H1 5274   5.715   4.214   0.654
 1756TIP3    H2 5275   5.649   4.213   0.790
 1757TIP3   OH2 5276   4.128   0.263   3.197
 1757TIP3    H1 5277   4.034   0.270   3.181
 1757TIP3    H2 5278   4.153   0.351   3.227
 1758TIP3   OH2 5279   4.770   3.689   2.643
 1758TIP3    H1 5280   4.792   3.606   2.601
 1758TIP3    H2 5281   4.844   3.708   2.700
 1759TIP3   OH2 5282   0.449   3.066   3.440
 1759TIP3    H1 5283   0.462   3.071   3.346
 1759TIP3    H2 5284   0.431   2.973   3.457
 1760TIP3   OH2 5285   2.734   3.521   3.133
 1760TIP3    H1 5286   2.769   3.521   3.044
 1760TIP3    H2 5287   2.794   3.577   3.182
 1761TIP3   OH2 5288   4.715   1.262   2.626
 1761TIP3    H1 5289   4.684   1.351   2.606
 1761TIP3    H2 5290   4.687   1.246   2.716
 1762TIP3   OH2 5291   2.440   4.242   5.162
 1762TIP3    H1 5292   2.362   4.261   5.215
 1762TIP3    H2 5293   2.421   4.282   5.077
 1763TIP3   OH2 5294   6.290   1.838   0.893
 1763TIP3    H1 5295   6.260   1.920   0.932
 1763TIP3    H2 5296   6.214   1.805   0.846
 1764TIP3   OH2 5297   0.941   2.797   0.339
 1764TIP3    H1 5298   1.001   2.866   0.369
 1764TIP3    H2 5299   0.860   2.843   0.318
 1765TIP3   OH2 5300   3.820   3.448   0.157
 1765TIP3    H1 5301   3.898   3.408   0.194
 1765TIP3    H2 5302   3.748   3.415   0.211
 1766TIP3   OH2 5303   0.660   5.737   1.470
 1766TIP3    H1 5304   0.577   5.697   1.446
 1766TIP3    H2 5305   0.718   5.719   1.395
 1767TIP3   OH2 5306   4.502   5.396   1.615
 1767TIP3    H1 5307   4.493   5.414   1.521
 1767TIP3    H2 5308   4.569   5.458   1.645
 1768TIP3   OH2 5309   4.069   5.134   3.841
 1768TIP3    H1 5310   3.980   5.151   3.810
 1768TIP3    H2 5311   4.064   5.049   3.884
 1769TIP3   OH2 5312   5.451   3.844   0.197
 1769TIP3    H1 5313   5.433   3.902   0.271
 1769TIP3    H2 5314   5.366   3.809   0.172
 1770TIP3   OH2 5315   5.495   3.208   4.823
 1770TIP3    H1 5316   5.521   3.161   4.902
 1770TIP3    H2 5317   5.402   3.191   4.813
 1771TIP3   OH2 5318   2.969   1.682   1.604
 1771TIP3    H1 5319   2.967   1.649   1.514
 1771TIP3    H2 5320   3.062   1.698   1.621
 1772TIP3   OH2 5321   4.233   3.784   2.634
 1772TIP3    H1 5322   4.210   3.703   2.680
 1772TIP3    H2 5323   4.178   3.784   2.556
 1773TIP3   OH2 5324   2.071   0.375   4.100
 1773TIP3    H1 5325   2.146   0.316   4.103
 1773TIP3    H2 5326   2.001   0.324   4.060
 1774TIP3   OH2 5327   6.287   2.261   1.289
 1774TIP3    H1 5328   6.253   2.217   1.367
 1774TIP3    H2 5329   6.210   2.297   1.247
 1775TIP3   OH2 5330   0.417   0.892   4.549
 1775TIP3    H1 5331   0.484   0.834   4.585
 1775TIP3    H2 5332   0.465   0.949   4.488
 1776TIP3   OH2 5333   1.787   2.136   5.201
 1776TIP3    H1 5334   1.696   2.165   5.203
 1776TIP3    H2 5335   1.785   2.054   5.151
 1777TIP3   OH2 5336   5.141   2.252   4.685
 1777TIP3    H1 5337   5.127   2.304   4.606
 1777TIP3    H2 5338   5.121   2.311   4.757
 1778TIP3   OH2 5339   1.738   4.896   3.359
 1778TIP3    H1 5340   1.773   4.958   3.424
 1778TIP3    H2 5341   1.748   4.810   3.400
 1779TIP3   OH2 5342   3.286   5.653   3.040
 1779TIP3    H1 5343   3.290   5.745   3.012
 1779TIP3    H2 5344   3.197   5.625   3.019
 1780TIP3   OH2 5345   4.547   0.366   1.232
 1780TIP3    H1 5346   4.489   0.441   1.220
 1780TIP3    H2 5347   4.542   0.345   1.325
 1781TIP3   OH2 5348   1.602   1.913   3.420
 1781TIP3    H1 5349   1.594   1.964   3.501
 1781TIP3    H2 5350   1.557   1.831   3.439
 1782TIP3   OH2 5351   2.529   3.000   4.026
 1782TIP3    H1 5352   2.536   2.935   3.956
 1782TIP3    H2 5353   2.615   3.000   4.068
 1783TIP3   OH2 5354   0.837   0.109   2.932
 1783TIP3    H1 5355   0.844   0.072   3.020
 1783TIP3    H2 5356   0.886   0.191   2.935
 1784TIP3   OH2 5357   6.190   3.086   2.184
 1784TIP3    H1 5358   6.129   3.160   2.184
 1784TIP3    H2 5359   6.136   3.011   2.206
 1785TIP3   OH2 5360   4.501   4.179   4.150
 1785TIP3    H1 5361   4.561   4.237   4.105
 1785TIP3    H2 5362   4.463   4.124   4.081
 1786TIP3   OH2 5363   2.458   2.280   0.983
 1786TIP3    H1 5364   2.530   2.336   1.014
 1786TIP3    H2 5365   2.422   2.242   1.063
 1787TIP3   OH2 5366   3.844   5.348   1.533
 1787TIP3    H1 5367   3.917   5.301   1.491
 1787TIP3    H2 5368   3.792   5.382   1.460
 1788TIP3   OH2 5369   4.455   0.481   0.932
 1788TIP3    H1 5370   4.365   0.511   0.946
 1788TIP3    H2 5371   4.509   0.546   0.977
 1789TIP3   OH2 5372   4.271   2.858   2.443
 1789TIP3    H1 5373   4.241   2.841   2.532
 1789TIP3    H2 5374   4.225   2.794   2.389
 1790TIP3   OH2 5375   5.176   1.961   1.009
 1790TIP3    H1 5376   5.134   1.984   0.926
 1790TIP3    H2 5377   5.257   2.013   1.008
 1791TIP3   OH2 5378   2.911   4.954   2.379
 1791TIP3    H1 5379   2.937   4.966   2.288
 1791TIP3    H2 5380   2.835   5.011   2.390
 1792TIP3   OH2 5381   3.731   0.140   4.664
 1792TIP3    H1 5382   3.674   0.206   4.703
 1792TIP3    H2 5383   3.699   0.131   4.574
 1793TIP3   OH2 5384   6.327   1.888   3.902
 1793TIP3    H1 5385   6.299   1.858   3.815
 1793TIP3    H2 5386   6.423   1.887   3.897
 1794TIP3   OH2 5387   2.190   4.245   0.214
 1794TIP3    H1 5388   2.178   4.248   0.309
 1794TIP3    H2 5389   2.274   4.201   0.202
 1795TIP3   OH2 5390   6.023   2.802   0.393
 1795TIP3    H1 5391   6.012   2.745   0.469
 1795TIP3    H2 5392   5.959   2.872   0.407
 1796TIP3   OH2 5393   3.063   5.555   1.697
 1796TIP3    H1 5394   3.070   5.647   1.724
 1796TIP3    H2 5395   3.153   5.526   1.684
 1797TIP3   OH2 5396   1.940   2.012   0.770
 1797TIP3    H1 5397   1.877   2.006   0.841
 1797TIP3    H2 5398   1.921   1.936   0.715
 1798TIP3   OH2 5399   4.825   4.761   4.937
 1798TIP3    H1 5400   4.844   4.851   4.966
 1798TIP3    H2 5401   4.852   4.759   4.845
 1799TIP3   OH2 5402   5.833   5.100   3.577
 1799TIP3    H1 5403   5.740   5.096   3.556
 1799TIP3    H2 5404   5.837   5.092   3.672
 1800TIP3   OH2 5405   2.796   3.371   1.750
 1800TIP3    H1 5406   2.725   3.408   1.802
 1800TIP3    H2 5407   2.873   3.378   1.807
 1801TIP3   OH2 5408   3.339   0.903   4.516
 1801TIP3    H1 5409   3.422   0.874   4.477
 1801TIP3    H2 5410   3.355   0.902   4.610
 1802TIP3   OH2 5411   1.601   1.738   1.166
 1802TIP3    H1 5412   1.575   1.829   1.151
 1802TIP3    H2 5413   1.610   1.731   1.261
 1803TIP3   OH2 5414   2.282   2.345   0.767
 1803TIP3    H1 5415   2.278   2.262   0.720
 1803TIP3    H2 5416   2.327   2.324   0.849
 1804TIP3   OH2 5417   2.436   1.278   5.047
 1804TIP3    H1 5418   2.405   1.320   5.128
 1804TIP3    H2 5419   2.442   1.185   5.070
 1805TIP3   OH2 5420   5.925   3.371   4.703
 1805TIP3    H1 5421   5.876   3.288   4.700
 1805TIP3    H2 5422   5.975   3.371   4.621
 1806TIP3   OH2 5423   4.879   4.091   3.418
 1806TIP3    H1 5424   4.923   4.069   3.501
 1806TIP3    H2 5425   4.787   4.073   3.435
 1807TIP3   OH2 5426   1.376   4.841   2.635
 1807TIP3    H1 5427   1.292   4.795   2.640
 1807TIP3    H2 5428   1.356   4.924   2.591
 1808TIP3   OH2 5429   3.715   5.836   2.449
 1808TIP3    H1 5430   3.755   5.775   2.510
 1808TIP3    H2 5431   3.624   5.806   2.440
 1809TIP3   OH2 5432   3.899   1.917   2.699
 1809TIP3    H1 5433   3.866   1.843   2.751
 1809TIP3    H2 5434   3.822   1.969   2.679
 1810TIP3   OH2 5435   5.722   2.721   0.293
 1810TIP3    H1 5436   5.760   2.688   0.374
 1810TIP3    H2 5437   5.680   2.645   0.254
 1811TIP3   OH2 5438   1.520   0.007   0.862
 1811TIP3    H1 5439   1.560   0.074   0.807
 1811TIP3    H2 5440   1.479   0.056   0.934
 1812TIP3   OH2 5441   0.838   1.028   1.249
 1812TIP3    H1 5442   0.854   1.074   1.331
 1812TIP3    H2 5443   0.920   0.982   1.231
 1813TIP3   OH2 5444   4.544   1.474   0.314
 1813TIP3    H1 5445   4.638   1.489   0.325
 1813TIP3    H2 5446   4.528   1.389   0.354
 1814TIP3   OH2 5447   3.257   2.522   1.386
 1814TIP3    H1 5448   3.216   2.523   1.299
 1814TIP3    H2 5449   3.349   2.504   1.368
 1815TIP3   OH2 5450   4.802   4.189   3.975
 1815TIP3    H1 5451   4.817   4.169   3.882
 1815TIP3    H2 5452   4.889   4.204   4.011
 1816TIP3   OH2 5453   0.412   4.377   1.837
 1816TIP3    H1 5454   0.444   4.421   1.915
 1816TIP3    H2 5455   0.399   4.286   1.864
 1817TIP3   OH2 5456   4.532   2.718   2.390
 1817TIP3    H1 5457   4.453   2.751   2.347
 1817TIP3    H2 5458   4.504   2.696   2.479
 1818TIP3   OH2 5459   4.890   1.585   2.417
 1818TIP3    H1 5460   4.972   1.598   2.464
 1818TIP3    H2 5461   4.823   1.578   2.486
 1819TIP3   OH2 5462   0.671   4.758   1.609
 1819TIP3    H1 5463   0.738   4.826   1.597
 1819TIP3    H2 5464   0.589   4.799   1.581
 1820TIP3   OH2 5465   2.790   4.327   0.606
 1820TIP3    H1 5466   2.833   4.412   0.618
 1820TIP3    H2 5467   2.767   4.324   0.513
 1821TIP3   OH2 5468   3.828   0.794   4.998
 1821TIP3    H1 5469   3.842   0.758   4.911
 1821TIP3    H2 5470   3.845   0.888   4.989
 1822TIP3   OH2 5471   6.174   0.333   5.055
 1822TIP3    H1 5472   6.148   0.261   5.113
 1822TIP3    H2 5473   6.176   0.294   4.968
 1823TIP3   OH2 5474   3.012   4.084   4.735
 1823TIP3    H1 5475   2.990   4.130   4.816
 1823TIP3    H2 5476   2.992   4.148   4.666
 1824TIP3   OH2 5477   4.224   3.266   4.977
 1824TIP3    H1 5478   4.294   3.284   4.915
 1824TIP3    H2 5479   4.215   3.347   5.027
 1825TIP3   OH2 5480   1.526   5.017   1.532
 1825TIP3    H1 5481   1.590   5.058   1.474
 1825TIP3    H2 5482   1.497   4.938   1.485
 1826TIP3   OH2 5483   0.017   5.187   0.235
 1826TIP3    H1 5484  -0.025   5.259   0.283
 1826TIP3    H2 5485  -0.052   5.121   0.226
 1827TIP3   OH2 5486   2.769   2.965   4.121
 1827TIP3    H1 5487   2.858   2.970   4.086
 1827TIP3    H2 5488   2.780   2.956   4.216
 1828TIP3   OH2 5489   3.187   5.848   4.231
 1828TIP3    H1 5490   3.160   5.760   4.258
 1828TIP3    H2 5491   3.280   5.839   4.210
 1829TIP3   OH2 5492   0.630   4.917   0.684
 1829TIP3    H1 5493   0.576   4.994   0.700
 1829TIP3    H2 5494   0.569   4.850   0.656
 1830TIP3   OH2 5495   4.287   1.517   4.448
 1830TIP3    H1 5496   4.375   1.550   4.465
 1830TIP3    H2 5497   4.301   1.434   4.402
 1831TIP3   OH2 5498   3.613   3.896   1.103
 1831TIP3    H1 5499   3.670   3.973   1.094
 1831TIP3    H2 5500   3.629   3.845   1.024
 1832TIP3   OH2 5501   5.566   5.211   4.907
 1832TIP3    H1 5502   5.642   5.268   4.892
 1832TIP3    H2 5503   5.539   5.184   4.820
 1833TIP3   OH2 5504   5.782   5.821   2.619
 1833TIP3    H1 5505   5.726   5.783   2.551
 1833TIP3    H2 5506   5.748   5.785   2.701
 1834TIP3   OH2 5507   2.800   3.109   1.651
 1834TIP3    H1 5508   2.799   3.050   1.727
 1834TIP3    H2 5509   2.787   3.196   1.689
 1835TIP3   OH2 5510   1.601   1.532   0.444
 1835TIP3    H1 5511   1.507   1.543   0.431
 1835TIP3    H2 5512   1.641   1.590   0.378
 1836TIP3   OH2 5513   5.314   4.004   4.407
 1836TIP3    H1 5514   5.343   3.946   4.477
 1836TIP3    H2 5515   5.391   4.059   4.388
 1837TIP3   OH2 5516   0.989   1.073   3.965
 1837TIP3    H1 5517   0.988   0.997   4.023
 1837TIP3    H2 5518   0.897   1.100   3.960
 1838TIP3   OH2 5519   1.121   3.055   2.260
 1838TIP3    H1 5520   1.126   2.978   2.204
 1838TIP3    H2 5521   1.164   3.030   2.341
 1839TIP3   OH2 5522   0.395   1.153   0.805
 1839TIP3    H1 5523   0.427   1.228   0.755
 1839TIP3    H2 5524   0.443   1.157   0.888
 1840TIP3   OH2 5525   4.498   2.639   1.051
 1840TIP3    H1 5526   4.421   2.667   1.101
 1840TIP3    H2 5527   4.462   2.602   0.971
 1841TIP3   OH2 5528   0.276   0.126   0.070
 1841TIP3    H1 5529   0.306   0.209   0.107
 1841TIP3    H2 5530   0.356   0.076   0.056
 1842TIP3   OH2 5531   4.659   5.359   3.911
 1842TIP3    H1 5532   4.670   5.315   3.827
 1842TIP3    H2 5533   4.594   5.427   3.895
 1843TIP3   OH2 5534   2.546   5.801   3.685
 1843TIP3    H1 5535   2.551   5.733   3.752
 1843TIP3    H2 5536   2.563   5.756   3.603
 1844TIP3   OH2 5537   3.665   5.545   2.343
 1844TIP3    H1 5538   3.683   5.453   2.323
 1844TIP3    H2 5539   3.749   5.580   2.372
 1845TIP3   OH2 5540   1.130   4.416   3.227
 1845TIP3    H1 5541   1.064   4.461   3.174
 1845TIP3    H2 5542   1.208   4.470   3.219
 1846TIP3   OH2 5543   3.090   4.502   4.098
 1846TIP3    H1 5544   3.121   4.529   4.012
 1846TIP3    H2 5545   3.159   4.528   4.159
 1847TIP3   OH2 5546   1.306   0.047   3.258
 1847TIP3    H1 5547   1.246   0.120   3.274
 1847TIP3    H2 5548   1.281   0.014   3.171
 1848TIP3   OH2 5549   4.870   4.855   1.753
 1848TIP3    H1 5550   4.777   4.865   1.772
 1848TIP3    H2 5551   4.893   4.769   1.788
 1849TIP3   OH2 5552   5.777   1.653   5.029
 1849TIP3    H1 5553   5.745   1.604   4.953
 1849TIP3    H2 5554   5.771   1.591   5.101
 1850TIP3   OH2 5555   3.126   2.398   4.305
 1850TIP3    H1 5556   3.147   2.476   4.254
 1850TIP3    H2 5557   3.048   2.422   4.355
 1851TIP3   OH2 5558   4.834   0.287   0.457
 1851TIP3    H1 5559   4.759   0.314   0.405
 1851TIP3    H2 5560   4.841   0.354   0.525
 1852TIP3   OH2 5561   0.723   2.277   1.951
 1852TIP3    H1 5562   0.766   2.343   1.897
 1852TIP3    H2 5563   0.655   2.325   1.998
 1853TIP3   OH2 5564   0.335   2.714   2.089
 1853TIP3    H1 5565   0.299   2.703   2.177
 1853TIP3    H2 5566   0.425   2.744   2.103
 1854TIP3   OH2 5567   5.419   1.757   2.370
 1854TIP3    H1 5568   5.452   1.695   2.305
 1854TIP3    H2 5569   5.436   1.843   2.333
 1855TIP3   OH2 5570   5.863   5.781   1.320
 1855TIP3    H1 5571   5.891   5.724   1.392
 1855TIP3    H2 5572   5.894   5.868   1.345
 1856TIP3   OH2 5573   0.356   0.743   2.416
 1856TIP3    H1 5574   0.351   0.777   2.505
 1856TIP3    H2 5575   0.449   0.746   2.394
 1857TIP3   OH2 5576   0.547   2.899   4.767
 1857TIP3    H1 5577   0.620   2.933   4.818
 1857TIP3    H2 5578   0.507   2.978   4.728
 1858TIP3   OH2 5579   3.694   5.271   2.297
 1858TIP3    H1 5580   3.634   5.208   2.255
 1858TIP3    H2 5581   3.759   5.216   2.341
 1859TIP3   OH2 5582   2.952   2.950   4.929
 1859TIP3    H1 5583   2.987   3.021   4.983
 1859TIP3    H2 5584   3.002   2.873   4.957
 1860TIP3   OH2 5585   1.699   2.896   1.631
 1860TIP3    H1 5586   1.743   2.905   1.547
 1860TIP3    H2 5587   1.623   2.954   1.625
 1861TIP3   OH2 5588   4.770   4.448   2.468
 1861TIP3    H1 5589   4.816   4.403   2.539
 1861TIP3    H2 5590   4.689   4.479   2.508
 1862TIP3   OH2 5591   4.346   5.445   2.228
 1862TIP3    H1 5592   4.406   5.508   2.188
 1862TIP3    H2 5593   4.298   5.406   2.155
 1863TIP3   OH2 5594   2.172   2.056   5.175
 1863TIP3    H1 5595   2.097   2.000   5.193
 1863TIP3    H2 5596   2.174   2.062   5.080
 1864TIP3   OH2 5597   3.201   4.835   0.924
 1864TIP3    H1 5598   3.149   4.853   0.846
 1864TIP3    H2 5599   3.214   4.921   0.965
 1865TIP3   OH2 5600   6.050   2.805   3.902
 1865TIP3    H1 5601   6.015   2.755   3.829
 1865TIP3    H2 5602   6.030   2.896   3.880
 1866TIP3   OH2 5603   3.520   4.667   1.155
 1866TIP3    H1 5604   3.486   4.643   1.069
 1866TIP3    H2 5605   3.601   4.715   1.136
 1867TIP3   OH2 5606   3.277   5.558   1.008
 1867TIP3    H1 5607   3.197   5.610   0.996
 1867TIP3    H2 5608   3.348   5.619   0.987
 1868TIP3   OH2 5609   5.748   4.589   0.802
 1868TIP3    H1 5610   5.751   4.676   0.764
 1868TIP3    H2 5611   5.660   4.557   0.781
 1869TIP3   OH2 5612   4.473   5.556   4.847
 1869TIP3    H1 5613   4.412   5.557   4.773
 1869TIP3    H2 5614   4.537   5.624   4.825
 1870TIP3   OH2 5615   4.254   4.351   1.403
 1870TIP3    H1 5616   4.217   4.436   1.429
 1870TIP3    H2 5617   4.272   4.361   1.310
 1871TIP3   OH2 5618   5.630   4.736   1.955
 1871TIP3    H1 5619   5.597   4.712   1.868
 1871TIP3    H2 5620   5.636   4.832   1.953
 1872TIP3   OH2 5621   0.031   2.862   3.824
 1872TIP3    H1 5622   0.008   2.790   3.883
 1872TIP3    H2 5623  -0.046   2.874   3.769
 1873TIP3   OH2 5624   3.809   2.555   0.612
 1873TIP3    H1 5625   3.877   2.529   0.674
 1873TIP3    H2 5626   3.833   2.513   0.530
 1874TIP3   OH2 5627   0.735   5.033   5.159
 1874TIP3    H1 5628   0.723   4.948   5.202
 1874TIP3    H2 5629   0.659   5.085   5.186
 1875TIP3   OH2 5630   6.152   0.246   4.808
 1875TIP3    H1 5631   6.080   0.183   4.802
 1875TIP3    H2 5632   6.225   0.203   4.763
 1876TIP3   OH2 5633   3.897   2.455   2.229
 1876TIP3    H1 5634   3.813   2.409   2.234
 1876TIP3    H2 5635   3.962   2.390   2.256
 1877TIP3   OH2 5636   5.080   4.518   1.991
 1877TIP3    H1 5637   5.097   4.543   2.081
 1877TIP3    H2 5638   4.989   4.543   1.976
 1878TIP3   OH2 5639   0.967   2.915   4.275
 1878TIP3    H1 5640   0.991   2.890   4.185
 1878TIP3    H2 5641   0.999   2.843   4.329
 1879TIP3   OH2 5642   2.583   3.393   5.114
 1879TIP3    H1 5643   2.641   3.347   5.175
 1879TIP3    H2 5644   2.583   3.484   5.146
 1880TIP3   OH2 5645   1.131   1.196   4.565
 1880TIP3    H1 5646   1.189   1.259   4.522
 1880TIP3    H2 5647   1.073   1.165   4.494
 1881TIP3   OH2 5648   2.385  -0.025   1.783
 1881TIP3    H1 5649   2.313   0.002   1.725
 1881TIP3    H2 5650   2.440  -0.081   1.728
 1882TIP3   OH2 5651   0.891   0.391   4.280
 1882TIP3    H1 5652   0.943   0.417   4.204
 1882TIP3    H2 5653   0.949   0.337   4.333
 1883TIP3   OH2 5654   0.247   1.419   1.838
 1883TIP3    H1 5655   0.257   1.463   1.922
 1883TIP3    H2 5656   0.166   1.455   1.801
 1884TIP3   OH2 5657   3.736   3.124   1.704
 1884TIP3    H1 5658   3.643   3.127   1.726
 1884TIP3    H2 5659   3.780   3.115   1.789
 1885TIP3   OH2 5660   2.867   4.251   4.587
 1885TIP3    H1 5661   2.878   4.329   4.641
 1885TIP3    H2 5662   2.884   4.282   4.498
 1886TIP3   OH2 5663   2.542   2.381   2.802
 1886TIP3    H1 5664   2.450   2.352   2.805
 1886TIP3    H2 5665   2.567   2.391   2.894
 1887TIP3   OH2 5666   4.534   2.352   0.926
 1887TIP3    H1 5667   4.566   2.292   0.859
 1887TIP3    H2 5668   4.591   2.429   0.918
 1888TIP3   OH2 5669   0.029   4.248   3.970
 1888TIP3    H1 5670   0.066   4.183   3.910
 1888TIP3    H2 5671   0.099   4.266   4.033
 1889TIP3   OH2 5672   3.831   3.661  -0.008
 1889TIP3    H1 5673   3.909   3.635  -0.057
 1889TIP3    H2 5674   3.808   3.583   0.043
 1890TIP3   OH2 5675   2.188   5.253   4.432
 1890TIP3    H1 5676   2.100   5.285   4.409
 1890TIP3    H2 5677   2.242   5.331   4.437
 1891TIP3   OH2 5678   0.837   5.458   4.621
 1891TIP3    H1 5679   0.774   5.390   4.642
 1891TIP3    H2 5680   0.785   5.530   4.587
 1892TIP3   OH2 5681   5.410   1.505   4.807
 1892TIP3    H1 5682   5.470   1.463   4.745
 1892TIP3    H2 5683   5.384   1.435   4.867
 1893TIP3   OH2 5684   2.769   5.677   0.675
 1893TIP3    H1 5685   2.796   5.759   0.634
 1893TIP3    H2 5686   2.797   5.609   0.613
 1894TIP3   OH2 5687   4.753   5.850   3.297
 1894TIP3    H1 5688   4.839   5.811   3.310
 1894TIP3    H2 5689   4.745   5.858   3.202
 1895TIP3   OH2 5690   1.062   5.187   3.809
 1895TIP3    H1 5691   0.990   5.206   3.869
 1895TIP3    H2 5692   1.057   5.093   3.795
 1896TIP3   OH2 5693   1.425   1.534   1.044
 1896TIP3    H1 5694   1.348   1.516   1.098
 1896TIP3    H2 5695   1.465   1.611   1.084
 1897TIP3   OH2 5696   3.262   3.769   4.851
 1897TIP3    H1 5697   3.231   3.690   4.807
 1897TIP3    H2 5698   3.182   3.810   4.885
 1898TIP3   OH2 5699   4.117   0.062   4.694
 1898TIP3    H1 5700   4.041   0.012   4.665
 1898TIP3    H2 5701   4.091   0.153   4.683
 1899TIP3   OH2 5702   4.044   4.079   3.316
 1899TIP3    H1 5703   4.079   4.166   3.338
 1899TIP3    H2 5704   4.047   4.076   3.221
 1900TIP3   OH2 5705   5.786   1.908   4.457
 1900TIP3    H1 5706   5.701   1.893   4.415
 1900TIP3    H2 5707   5.850   1.865   4.400
 1901TIP3   OH2 5708   5.949   5.901   0.589
 1901TIP3    H1 5709   6.044   5.916   0.581
 1901TIP3    H2 5710   5.914   5.925   0.503
 1902TIP3   OH2 5711   4.611   3.384   0.295
 1902TIP3    H1 5712   4.566   3.462   0.264
 1902TIP3    H2 5713   4.654   3.348   0.217
 1903TIP3   OH2 5714   1.705   5.874   0.131
 1903TIP3    H1 5715   1.785   5.823   0.145
 1903TIP3    H2 5716   1.715   5.951   0.187
 1904TIP3   OH2 5717   0.796   2.265   1.051
 1904TIP3    H1 5718   0.828   2.188   1.096
 1904TIP3    H2 5719   0.728   2.301   1.108
 1905TIP3   OH2 5720   1.574   2.957   4.009
 1905TIP3    H1 5721   1.483   2.983   3.993
 1905TIP3    H2 5722   1.609   3.024   4.067
 1906TIP3   OH2 5723   6.087   0.204   0.232
 1906TIP3    H1 5724   6.173   0.189   0.192
 1906TIP3    H2 5725   6.077   0.133   0.295
 1907TIP3   OH2 5726   0.170   3.267   4.757
 1907TIP3    H1 5727   0.077   3.289   4.768
 1907TIP3    H2 5728   0.199   3.239   4.843
 1908TIP3   OH2 5729   4.637   2.461   2.822
 1908TIP3    H1 5730   4.622   2.490   2.912
 1908TIP3    H2 5731   4.615   2.368   2.823
 1909TIP3   OH2 5732   3.371   0.122   2.826
 1909TIP3    H1 5733   3.422   0.163   2.895
 1909TIP3    H2 5734   3.297   0.081   2.872
 1910TIP3   OH2 5735   5.569   2.372   0.943
 1910TIP3    H1 5736   5.610   2.365   1.029
 1910TIP3    H2 5737   5.575   2.466   0.922
 1911TIP3   OH2 5738   0.790   3.749   1.280
 1911TIP3    H1 5739   0.842   3.761   1.201
 1911TIP3    H2 5740   0.727   3.681   1.256
 1912TIP3   OH2 5741   5.934   0.374   3.493
 1912TIP3    H1 5742   5.986   0.334   3.424
 1912TIP3    H2 5743   5.870   0.428   3.446
 1913TIP3   OH2 5744   5.549   1.009   1.194
 1913TIP3    H1 5745   5.468   1.026   1.145
 1913TIP3    H2 5746   5.619   1.039   1.137
 1914TIP3   OH2 5747   3.956   5.397   3.783
 1914TIP3    H1 5748   3.896   5.431   3.850
 1914TIP3    H2 5749   3.950   5.461   3.711
 1915TIP3   OH2 5750   4.192   5.411   3.189
 1915TIP3    H1 5751   4.127   5.436   3.256
 1915TIP3    H2 5752   4.210   5.492   3.142
 1916TIP3   OH2 5753   5.441   1.742   4.533
 1916TIP3    H1 5754   5.350   1.771   4.538
 1916TIP3    H2 5755   5.476   1.785   4.455
 1917TIP3   OH2 5756   5.574   0.849   4.812
 1917TIP3    H1 5757   5.531   0.931   4.788
 1917TIP3    H2 5758   5.649   0.876   4.866
 1918TIP3   OH2 5759   5.483   1.016   4.368
 1918TIP3    H1 5760   5.480   0.924   4.342
 1918TIP3    H2 5761   5.567   1.048   4.336
 1919TIP3   OH2 5762   3.864   2.141   3.520
 1919TIP3    H1 5763   3.934   2.181   3.469
 1919TIP3    H2 5764   3.888   2.049   3.526
 1920TIP3   OH2 5765   1.014   2.571   1.259
 1920TIP3    H1 5766   1.108   2.577   1.275
 1920TIP3    H2 5767   1.008   2.518   1.179
 1921TIP3   OH2 5768   2.210   3.616   3.818
 1921TIP3    H1 5769   2.156   3.630   3.896
 1921TIP3    H2 5770   2.179   3.533   3.783
 1922TIP3   OH2 5771   2.953   3.142   0.529
 1922TIP3    H1 5772   3.018   3.194   0.482
 1922TIP3    H2 5773   3.005   3.083   0.584
 1923TIP3   OH2 5774   3.043   3.468   3.099
 1923TIP3    H1 5775   2.968   3.483   3.041
 1923TIP3    H2 5776   3.073   3.380   3.076
 1924TIP3   OH2 5777   3.663   5.125   1.053
 1924TIP3    H1 5778   3.755   5.145   1.042
 1924TIP3    H2 5779   3.650   5.041   1.007
 1925TIP3   OH2 5780   2.545   2.121   0.783
 1925TIP3    H1 5781   2.514   2.168   0.859
 1925TIP3    H2 5782   2.533   2.028   0.805
 1926TIP3   OH2 5783   1.383   4.535   3.261
 1926TIP3    H1 5784   1.394   4.565   3.171
 1926TIP3    H2 5785   1.399   4.613   3.315
 1927TIP3   OH2 5786   3.432   3.859   0.164
 1927TIP3    H1 5787   3.526   3.870   0.182
 1927TIP3    H2 5788   3.426   3.859   0.069
 1928TIP3   OH2 5789   1.033   3.398   1.582
 1928TIP3    H1 5790   0.938   3.387   1.580
 1928TIP3    H2 5791   1.064   3.354   1.503
 1929TIP3   OH2 5792   2.141   1.037   0.907
 1929TIP3    H1 5793   2.097   1.122   0.901
 1929TIP3    H2 5794   2.137   1.014   1.000
 1930TIP3   OH2 5795   1.097   0.564   4.506
 1930TIP3    H1 5796   1.005   0.585   4.522
 1930TIP3    H2 5797   1.126   0.524   4.588
 1931TIP3   OH2 5798   3.434   1.881   4.051
 1931TIP3    H1 5799   3.418   1.936   3.975
 1931TIP3    H2 5800   3.520   1.842   4.036
 1932TIP3   OH2 5801   4.037   1.257   3.589
 1932TIP3    H1 5802   4.115   1.204   3.603
 1932TIP3    H2 5803   4.034   1.271   3.494
 1933TIP3   OH2 5804   5.363   4.312   3.320
 1933TIP3    H1 5805   5.442   4.265   3.347
 1933TIP3    H2 5806   5.354   4.293   3.227
 1934TIP3   OH2 5807   3.144   0.574   4.037
 1934TIP3    H1 5808   3.230   0.585   3.996
 1934TIP3    H2 5809   3.096   0.653   4.014
 1935TIP3   OH2 5810   3.057   0.594   3.705
 1935TIP3    H1 5811   3.086   0.681   3.732
 1935TIP3    H2 5812   2.997   0.610   3.633
 1936TIP3   OH2 5813   0.128   1.799   0.263
 1936TIP3    H1 5814   0.120   1.820   0.356
 1936TIP3    H2 5815   0.194   1.861   0.230
 1937TIP3   OH2 5816   0.867   4.437   1.357
 1937TIP3    H1 5817   0.888   4.343   1.353
 1937TIP3    H2 5818   0.917   4.476   1.286
 1938TIP3   OH2 5819   0.902   4.174   4.234
 1938TIP3    H1 5820   0.822   4.124   4.251
 1938TIP3    H2 5821   0.891   4.256   4.282
 1939TIP3   OH2 5822   3.248   2.711   3.146
 1939TIP3    H1 5823   3.221   2.672   3.063
 1939TIP3    H2 5824   3.197   2.792   3.152
 1940TIP3   OH2 5825   6.218   0.782   3.563
 1940TIP3    H1 5826   6.159   0.806   3.634
 1940TIP3    H2 5827   6.304   0.777   3.604
 1941TIP3   OH2 5828   0.130   2.131   0.800
 1941TIP3    H1 5829   0.097   2.067   0.737
 1941TIP3    H2 5830   0.069   2.125   0.874
 1942TIP3   OH2 5831   5.212   1.241   3.687
 1942TIP3    H1 5832   5.170   1.155   3.681
 1942TIP3    H2 5833   5.291   1.225   3.739
 1943TIP3   OH2 5834   0.752   0.265   1.048
 1943TIP3    H1 5835   0.822   0.265   0.983
 1943TIP3    H2 5836   0.763   0.183   1.096
 1944TIP3   OH2 5837   1.355   3.943   3.521
 1944TIP3    H1 5838   1.278   3.887   3.526
 1944TIP3    H2 5839   1.363   3.964   3.428
 1945TIP3   OH2 5840   2.669   0.218   1.957
 1945TIP3    H1 5841   2.606   0.274   2.002
 1945TIP3    H2 5842   2.635   0.212   1.867
 1946TIP3   OH2 5843   3.357   4.123   4.233
 1946TIP3    H1 5844   3.305   4.203   4.242
 1946TIP3    H2 5845   3.401   4.113   4.317
 1947TIP3   OH2 5846   1.841   2.390   1.022
 1947TIP3    H1 5847   1.916   2.361   0.970
 1947TIP3    H2 5848   1.878   2.410   1.108
 1948TIP3   OH2 5849   5.829   3.151   4.208
 1948TIP3    H1 5850   5.860   3.134   4.119
 1948TIP3    H2 5851   5.867   3.236   4.231
 1949TIP3   OH2 5852   1.386   5.420   4.708
 1949TIP3    H1 5853   1.395   5.483   4.637
 1949TIP3    H2 5854   1.294   5.428   4.736
 1950TIP3   OH2 5855   6.052   5.368   4.957
 1950TIP3    H1 5856   6.061   5.417   4.875
 1950TIP3    H2 5857   6.121   5.302   4.953
 1951TIP3   OH2 5858   4.297   0.094   3.480
 1951TIP3    H1 5859   4.380   0.047   3.470
 1951TIP3    H2 5860   4.267   0.110   3.390
 1952TIP3   OH2 5861   4.545   5.863   1.493
 1952TIP3    H1 5862   4.579   5.935   1.440
 1952TIP3    H2 5863   4.536   5.790   1.431
 1953TIP3   OH2 5864   6.198   4.397   4.705
 1953TIP3    H1 5865   6.114   4.419   4.665
 1953TIP3    H2 5866   6.230   4.480   4.741
 1954TIP3   OH2 5867   3.005   0.196   1.192
 1954TIP3    H1 5868   3.032   0.216   1.103
 1954TIP3    H2 5869   3.063   0.247   1.247
 1955TIP3   OH2 5870   5.860   5.655   0.379
 1955TIP3    H1 5871   5.953   5.657   0.359
 1955TIP3    H2 5872   5.826   5.739   0.347
 1956TIP3   OH2 5873   1.907   2.215   2.041
 1956TIP3    H1 5874   1.991   2.198   2.000
 1956TIP3    H2 5875   1.921   2.194   2.134
 1957TIP3   OH2 5876   0.318   1.485   2.139
 1957TIP3    H1 5877   0.246   1.502   2.200
 1957TIP3    H2 5878   0.354   1.401   2.168
 1958TIP3   OH2 5879   0.581   4.708   4.886
 1958TIP3    H1 5880   0.537   4.699   4.802
 1958TIP3    H2 5881   0.584   4.802   4.902
 1959TIP3   OH2 5882   2.001   0.533   0.172
 1959TIP3    H1 5883   2.046   0.527   0.256
 1959TIP3    H2 5884   1.939   0.460   0.173
 1960TIP3   OH2 5885   3.182   5.842   1.959
 1960TIP3    H1 5886   3.203   5.801   1.875
 1960TIP3    H2 5887   3.184   5.771   2.022
 1961TIP3   OH2 5888   1.875   5.045   3.551
 1961TIP3    H1 5889   1.897   4.984   3.622
 1961TIP3    H2 5890   1.871   5.131   3.593
 1962TIP3   OH2 5891   5.751   0.823   1.341
 1962TIP3    H1 5892   5.704   0.906   1.338
 1962TIP3    H2 5893   5.745   0.795   1.432
 1963TIP3   OH2 5894   5.453   1.033   2.376
 1963TIP3    H1 5895   5.513   1.068   2.309
 1963TIP3    H2 5896   5.465   0.938   2.371
 1964TIP3   OH2 5897   1.987   0.252   1.382
 1964TIP3    H1 5898   1.994   0.337   1.339
 1964TIP3    H2 5899   1.907   0.258   1.434
 1965TIP3   OH2 5900   4.681   3.240   2.842
 1965TIP3    H1 5901   4.744   3.304   2.811
 1965TIP3    H2 5902   4.617   3.233   2.771
 1966TIP3   OH2 5903   6.307   4.058   3.413
 1966TIP3    H1 5904   6.251   4.118   3.463
 1966TIP3    H2 5905   6.307   4.094   3.324
 1967TIP3   OH2 5906   5.688   3.710   2.874
 1967TIP3    H1 5907   5.686   3.738   2.783
 1967TIP3    H2 5908   5.694   3.792   2.924
 1968TIP3   OH2 5909   2.156   4.776   4.984
 1968TIP3    H1 5910   2.242   4.739   4.966
 1968TIP3    H2 5911   2.158   4.863   4.943
 1969TIP3   OH2 5912   4.093   5.908   3.387
 1969TIP3    H1 5913   4.144   5.863   3.320
 1969TIP3    H2 5914   4.149   5.908   3.464
 1970TIP3   OH2 5915   0.584   1.573   1.645
 1970TIP3    H1 5916   0.627   1.658   1.642
 1970TIP3    H2 5917   0.521   1.576   1.573
 1971TIP3   OH2 5918   5.240   2.902   2.367
 1971TIP3    H1 5919   5.179   2.954   2.419
 1971TIP3    H2 5920   5.186   2.836   2.324
 1972TIP3   OH2 5921   0.090   4.641   2.363
 1972TIP3    H1 5922   0.083   4.545   2.355
 1972TIP3    H2 5923   0.182   4.660   2.347
 1973TIP3   OH2 5924   5.293   1.844   4.839
 1973TIP3    H1 5925   5.311   1.832   4.932
 1973TIP3    H2 5926   5.271   1.757   4.807
 1974TIP3   OH2 5927   4.972   5.123   5.114
 1974TIP3    H1 5928   4.943   5.087   5.030
 1974TIP3    H2 5929   4.938   5.212   5.116
 1975TIP3   OH2 5930   3.697   0.096   0.288
 1975TIP3    H1 5931   3.696   0.110   0.383
 1975TIP3    H2 5932   3.672   0.181   0.252
 1976TIP3   OH2 5933   3.718   5.576   3.300
 1976TIP3    H1 5934   3.654   5.520   3.345
 1976TIP3    H2 5935   3.665   5.644   3.258
 1977TIP3   OH2 5936   3.252   3.229   4.687
 1977TIP3    H1 5937   3.199   3.150   4.677
 1977TIP3    H2 5938   3.299   3.216   4.770
 1978TIP3   OH2 5939   4.155   0.146   2.440
 1978TIP3    H1 5940   4.170   0.172   2.349
 1978TIP3    H2 5941   4.060   0.148   2.451
 1979TIP3   OH2 5942   0.893   4.589   0.852
 1979TIP3    H1 5943   0.863   4.613   0.765
 1979TIP3    H2 5944   0.949   4.662   0.879
 1980TIP3   OH2 5945   2.916   2.046   2.441
 1980TIP3    H1 5946   2.906   2.105   2.367
 1980TIP3    H2 5947   2.832   2.002   2.449
 1981TIP3   OH2 5948   5.786   4.786   4.778
 1981TIP3    H1 5949   5.776   4.794   4.873
 1981TIP3    H2 5950   5.878   4.811   4.762
 1982TIP3   OH2 5951   4.980   0.308   3.110
 1982TIP3    H1 5952   4.949   0.223   3.139
 1982TIP3    H2 5953   5.034   0.340   3.182
 1983TIP3   OH2 5954   4.703   5.264   4.643
 1983TIP3    H1 5955   4.646   5.254   4.566
 1983TIP3    H2 5956   4.792   5.259   4.608
 1984TIP3   OH2 5957   4.101   1.989   1.209
 1984TIP3    H1 5958   4.033   1.929   1.238
 1984TIP3    H2 5959   4.135   2.028   1.290
 1985TIP3   OH2 5960   4.486   4.269   1.548
 1985TIP3    H1 5961   4.413   4.274   1.486
 1985TIP3    H2 5962   4.462   4.330   1.618
 1986TIP3   OH2 5963   2.056   2.217   3.486
 1986TIP3    H1 5964   2.138   2.245   3.527
 1986TIP3    H2 5965   1.995   2.203   3.559
 1987TIP3   OH2 5966   4.400   4.925   3.723
 1987TIP3    H1 5967   4.458   4.858   3.759
 1987TIP3    H2 5968   4.429   4.936   3.632
 1988TIP3   OH2 5969   4.712   2.989   4.465
 1988TIP3    H1 5970   4.771   3.017   4.395
 1988TIP3    H2 5971   4.643   3.056   4.467
 1989TIP3   OH2 5972   3.670   2.229   1.246
 1989TIP3    H1 5973   3.745   2.232   1.186
 1989TIP3    H2 5974   3.594   2.244   1.189
 1990TIP3   OH2 5975   3.246   4.592   4.663
 1990TIP3    H1 5976   3.332   4.576   4.624
 1990TIP3    H2 5977   3.241   4.531   4.736
 1991TIP3   OH2 5978   0.867   4.312   3.347
 1991TIP3    H1 5979   0.937   4.324   3.411
 1991TIP3    H2 5980   0.908   4.262   3.276
 1992TIP3   OH2 5981   4.841   0.256   3.767
 1992TIP3    H1 5982   4.929   0.222   3.754
 1992TIP3    H2 5983   4.832   0.327   3.704
 1993TIP3   OH2 5984   1.627   3.271   4.206
 1993TIP3    H1 5985   1.596   3.352   4.247
 1993TIP3    H2 5986   1.677   3.301   4.130
 1994TIP3   OH2 5987   0.597   5.404   2.148
 1994TIP3    H1 5988   0.624   5.492   2.174
 1994TIP3    H2 5989   0.676   5.350   2.162
 1995TIP3   OH2 5990   0.645   0.295   4.138
 1995TIP3    H1 5991   0.739   0.314   4.134
 1995TIP3    H2 5992   0.640   0.199   4.133
 1996TIP3   OH2 5993   6.309   0.572   4.495
 1996TIP3    H1 5994   6.392   0.615   4.515
 1996TIP3    H2 5995   6.278   0.540   4.580
 1997TIP3   OH2 5996   3.722   2.770   4.504
 1997TIP3    H1 5997   3.749   2.824   4.578
 1997TIP3    H2 5998   3.762   2.684   4.522
 1998TIP3   OH2 5999   3.527   3.229   0.680
 1998TIP3    H1 6000   3.593   3.220   0.610
 1998TIP3    H2 6001   3.493   3.140   0.690
 1999TIP3   OH2 6002   3.262   2.861   0.888
 1999TIP3    H1 6003   3.310   2.850   0.970
 1999TIP3    H2 6004   3.173   2.831   0.908
 2000TIP3   OH2 6005   0.504   2.832   2.574
 2000TIP3    H1 6006   0.464   2.845   2.660
 2000TIP3    H2 6007   0.430   2.814   2.516
 2001TIP3   OH2 6008   6.138   0.159   4.460
 2001TIP3    H1 6009   6.145   0.249   4.428
 2001TIP3    H2 6010   6.220   0.143   4.507
 2002TIP3   OH2 6011   5.393   0.508   2.814
 2002TIP3    H1 6012   5.367   0.595   2.845
 2002TIP3    H2 6013   5.334   0.448   2.861
 2003TIP3   OH2 6014   2.715   3.068   0.070
 2003TIP3    H1 6015   2.692   3.158   0.046
 2003TIP3    H2 6016   2.673   3.055   0.155
 2004TIP3   OH2 6017   5.999   4.253   1.711
 2004TIP3    H1 6018   5.980   4.303   1.632
 2004TIP3    H2 6019   5.918   4.203   1.727
 2005TIP3   OH2 6020   1.672   3.747   4.658
 2005TIP3    H1 6021   1.705   3.668   4.618
 2005TIP3    H2 6022   1.695   3.817   4.597
 2006TIP3   OH2 6023   3.579   0.476   1.141
 2006TIP3    H1 6024   3.594   0.419   1.066
 2006TIP3    H2 6025   3.563   0.416   1.214
 2007TIP3   OH2 6026   4.748   2.648  -0.019
 2007TIP3    H1 6027   4.688   2.658   0.055
 2007TIP3    H2 6028   4.797   2.730  -0.022
 2008TIP3   OH2 6029   4.611   5.385   0.879
 2008TIP3    H1 6030   4.635   5.304   0.834
 2008TIP3    H2 6031   4.565   5.357   0.958
 2009TIP3   OH2 6032   5.924   4.190   2.802
 2009TIP3    H1 6033   5.872   4.266   2.774
 2009TIP3    H2 6034   6.005   4.197   2.751
 2010TIP3   OH2 6035   3.266   1.139   1.646
 2010TIP3    H1 6036   3.232   1.216   1.693
 2010TIP3    H2 6037   3.361   1.151   1.648
 2011TIP3   OH2 6038   5.434   0.291   3.722
 2011TIP3    H1 6039   5.526   0.285   3.697
 2011TIP3    H2 6040   5.391   0.331   3.646
 2012TIP3   OH2 6041   3.234   0.607   1.439
 2012TIP3    H1 6042   3.197   0.519   1.440
 2012TIP3    H2 6043   3.158   0.665   1.428
 2013TIP3   OH2 6044   5.383   1.544   1.934
 2013TIP3    H1 6045   5.322   1.495   1.989
 2013TIP3    H2 6046   5.421   1.478   1.876
 2014TIP3   OH2 6047   3.703   3.822   0.872
 2014TIP3    H1 6048   3.634   3.882   0.842
 2014TIP3    H2 6049   3.706   3.754   0.806
 2015TIP3   OH2 6050   1.513   3.274   0.035
 2015TIP3    H1 6051   1.506   3.220  -0.044
 2015TIP3    H2 6052   1.606   3.275   0.056
 2016TIP3   OH2 6053   3.997   3.984   3.677
 2016TIP3    H1 6054   3.911   3.963   3.639
 2016TIP3    H2 6055   3.984   3.978   3.772
 2017TIP3   OH2 6056   1.543   1.286   1.084
 2017TIP3    H1 6057   1.512   1.368   1.045
 2017TIP3    H2 6058   1.636   1.300   1.100
 2018TIP3   OH2 6059   4.201   0.315   0.230
 2018TIP3    H1 6060   4.116   0.334   0.269
 2018TIP3    H2 6061   4.241   0.252   0.290
 2019TIP3   OH2 6062   3.331   0.244   1.561
 2019TIP3    H1 6063   3.383   0.221   1.484
 2019TIP3    H2 6064   3.293   0.161   1.590
 2020TIP3   OH2 6065   0.401   5.594   1.549
 2020TIP3    H1 6066   0.408   5.598   1.644
 2020TIP3    H2 6067   0.410   5.501   1.528
 2021TIP3   OH2 6068   4.204   4.215   0.038
 2021TIP3    H1 6069   4.271   4.281   0.022
 2021TIP3    H2 6070   4.252   4.137   0.065
 2022TIP3   OH2 6071   2.028   1.640   3.316
 2022TIP3    H1 6072   1.976   1.562   3.300
 2022TIP3    H2 6073   1.967   1.713   3.301
 2023TIP3   OH2 6074   6.327   2.748   1.572
 2023TIP3    H1 6075   6.292   2.826   1.616
 2023TIP3    H2 6076   6.256   2.684   1.578
 2024TIP3   OH2 6077   1.881   5.188   2.415
 2024TIP3    H1 6078   1.814   5.244   2.376
 2024TIP3    H2 6079   1.893   5.221   2.504
 2025TIP3   OH2 6080   3.088   0.842   4.433
 2025TIP3    H1 6081   3.182   0.847   4.453
 2025TIP3    H2 6082   3.077   0.756   4.392
 2026TIP3   OH2 6083   5.585   3.640   1.998
 2026TIP3    H1 6084   5.540   3.704   1.943
 2026TIP3    H2 6085   5.661   3.612   1.946
 2027TIP3   OH2 6086   5.365   0.999   1.812
 2027TIP3    H1 6087   5.300   1.045   1.759
 2027TIP3    H2 6088   5.315   0.934   1.860
 2028TIP3   OH2 6089   3.493   2.191   0.190
 2028TIP3    H1 6090   3.399   2.197   0.210
 2028TIP3    H2 6091   3.497   2.200   0.095
 2029TIP3   OH2 6092   0.729   0.958   3.136
 2029TIP3    H1 6093   0.806   0.972   3.081
 2029TIP3    H2 6094   0.764   0.947   3.224
 2030TIP3   OH2 6095   2.101   5.449   4.205
 2030TIP3    H1 6096   2.052   5.413   4.131
 2030TIP3    H2 6097   2.063   5.536   4.219
 2031TIP3   OH2 6098   3.746   2.143   2.624
 2031TIP3    H1 6099   3.787   2.230   2.615
 2031TIP3    H2 6100   3.734   2.113   2.534
 2032TIP3   OH2 6101   0.176   4.684   4.328
 2032TIP3    H1 6102   0.129   4.732   4.396
 2032TIP3    H2 6103   0.252   4.740   4.308
 2033TIP3   OH2 6104   0.275   2.141   2.063
 2033TIP3    H1 6105   0.222   2.104   2.134
 2033TIP3    H2 6106   0.307   2.224   2.097
 2034TIP3   OH2 6107   5.254   2.443   3.077
 2034TIP3    H1 6108   5.290   2.439   3.166
 2034TIP3    H2 6109   5.164   2.414   3.086
 2035TIP3   OH2 6110   2.491   5.630   2.902
 2035TIP3    H1 6111   2.487   5.554   2.844
 2035TIP3    H2 6112   2.570   5.617   2.953
 2036TIP3   OH2 6113   4.662   2.311   3.906
 2036TIP3    H1 6114   4.677   2.254   3.982
 2036TIP3    H2 6115   4.684   2.256   3.830
 2037TIP3   OH2 6116   0.644   1.474   2.127
 2037TIP3    H1 6117   0.597   1.487   2.044
 2037TIP3    H2 6118   0.622   1.385   2.153
 2038TIP3   OH2 6119   2.172   5.444   4.626
 2038TIP3    H1 6120   2.082   5.437   4.595
 2038TIP3    H2 6121   2.217   5.496   4.559
 2039TIP3   OH2 6122   1.879   1.620   3.839
 2039TIP3    H1 6123   1.882   1.636   3.934
 2039TIP3    H2 6124   1.872   1.525   3.832
 2040TIP3   OH2 6125   2.553   4.044   4.253
 2040TIP3    H1 6126   2.629   4.103   4.261
 2040TIP3    H2 6127   2.478   4.103   4.248
 2041TIP3   OH2 6128   3.738   4.353   4.891
 2041TIP3    H1 6129   3.712   4.280   4.836
 2041TIP3    H2 6130   3.668   4.360   4.956
 2042TIP3   OH2 6131   5.705   1.189   0.173
 2042TIP3    H1 6132   5.687   1.251   0.244
 2042TIP3    H2 6133   5.797   1.205   0.150
 2043TIP3   OH2 6134   2.705   0.846   2.182
 2043TIP3    H1 6135   2.610   0.846   2.193
 2043TIP3    H2 6136   2.738   0.808   2.263
 2044TIP3   OH2 6137   3.501   1.168   3.938
 2044TIP3    H1 6138   3.511   1.216   4.020
 2044TIP3    H2 6139   3.551   1.220   3.874
 2045TIP3   OH2 6140   2.457   3.607   1.543
 2045TIP3    H1 6141   2.549   3.584   1.554
 2045TIP3    H2 6142   2.409   3.533   1.582
 2046TIP3   OH2 6143   2.572   4.382   3.226
 2046TIP3    H1 6144   2.517   4.434   3.168
 2046TIP3    H2 6145   2.529   4.296   3.229
 2047TIP3   OH2 6146   3.011   3.124   3.508
 2047TIP3    H1 6147   3.060   3.188   3.559
 2047TIP3    H2 6148   2.999   3.050   3.567
 2048TIP3   OH2 6149   1.219   0.439   2.472
 2048TIP3    H1 6150   1.300   0.479   2.504
 2048TIP3    H2 6151   1.187   0.387   2.546
 2049TIP3   OH2 6152   1.748   3.143   3.802
 2049TIP3    H1 6153   1.684   3.188   3.856
 2049TIP3    H2 6154   1.810   3.105   3.864
 2050TIP3   OH2 6155   5.265   2.124   0.546
 2050TIP3    H1 6156   5.323   2.200   0.539
 2050TIP3    H2 6157   5.221   2.136   0.630
 2051TIP3   OH2 6158   3.701   2.366   3.584
 2051TIP3    H1 6159   3.754   2.290   3.564
 2051TIP3    H2 6160   3.645   2.377   3.507
 2052TIP3   OH2 6161   6.059   3.881   4.764
 2052TIP3    H1 6162   6.106   3.963   4.750
 2052TIP3    H2 6163   6.085   3.853   4.852
 2053TIP3   OH2 6164   5.032   3.215   0.181
 2053TIP3    H1 6165   5.026   3.128   0.144
 2053TIP3    H2 6166   5.108   3.255   0.137
 2054TIP3   OH2 6167   2.128   2.953   1.558
 2054TIP3    H1 6168   2.123   2.970   1.464
 2054TIP3    H2 6169   2.084   2.869   1.570
 2055TIP3   OH2 6170   0.104   0.218   4.924
 2055TIP3    H1 6171   0.088   0.150   4.858
 2055TIP3    H2 6172   0.066   0.297   4.885
 2056TIP3   OH2 6173   4.566   1.269   0.781
 2056TIP3    H1 6174   4.511   1.330   0.731
 2056TIP3    H2 6175   4.620   1.227   0.714
 2057TIP3   OH2 6176   1.331   1.970   4.278
 2057TIP3    H1 6177   1.388   2.037   4.240
 2057TIP3    H2 6178   1.361   1.962   4.369
 2058TIP3   OH2 6179   0.512   5.201   3.940
 2058TIP3    H1 6180   0.559   5.153   3.872
 2058TIP3    H2 6181   0.535   5.292   3.925
 2059TIP3   OH2 6182   3.233   2.617   2.880
 2059TIP3    H1 6183   3.152   2.574   2.851
 2059TIP3    H2 6184   3.247   2.686   2.815
 2060TIP3   OH2 6185   4.650   2.871   4.063
 2060TIP3    H1 6186   4.620   2.959   4.084
 2060TIP3    H2 6187   4.744   2.882   4.045
 2061TIP3   OH2 6188   1.689   4.652   0.526
 2061TIP3    H1 6189   1.718   4.705   0.600
 2061TIP3    H2 6190   1.603   4.687   0.504
 2062TIP3   OH2 6191   4.809   1.854   3.799
 2062TIP3    H1 6192   4.858   1.779   3.764
 2062TIP3    H2 6193   4.755   1.818   3.868
 2063TIP3   OH2 6194   3.790   2.277   1.957
 2063TIP3    H1 6195   3.714   2.239   2.002
 2063TIP3    H2 6196   3.809   2.358   2.006
 2064TIP3   OH2 6197   1.580   5.472   1.037
 2064TIP3    H1 6198   1.525   5.541   1.075
 2064TIP3    H2 6199   1.526   5.432   0.969
 2065TIP3   OH2 6200   5.549   0.185   1.796
 2065TIP3    H1 6201   5.589   0.156   1.714
 2065TIP3    H2 6202   5.620   0.187   1.859
 2066TIP3   OH2 6203   2.917   3.983   0.770
 2066TIP3    H1 6204   2.853   3.943   0.711
 2066TIP3    H2 6205   2.895   4.076   0.770
 2067TIP3   OH2 6206   5.344   4.421   5.045
 2067TIP3    H1 6207   5.401   4.497   5.059
 2067TIP3    H2 6208   5.266   4.439   5.098
 2068TIP3   OH2 6209   5.798   4.610   3.587
 2068TIP3    H1 6210   5.729   4.544   3.580
 2068TIP3    H2 6211   5.760   4.680   3.640
 2069TIP3   OH2 6212   3.368   0.240   4.332
 2069TIP3    H1 6213   3.432   0.307   4.308
 2069TIP3    H2 6214   3.306   0.238   4.260
 2070TIP3   OH2 6215   3.858   2.313   0.329
 2070TIP3    H1 6216   3.848   2.314   0.234
 2070TIP3    H2 6217   3.932   2.371   0.346
 2071TIP3   OH2 6218   3.464   1.570   3.731
 2071TIP3    H1 6219   3.427   1.574   3.643
 2071TIP3    H2 6220   3.488   1.661   3.751
 2072TIP3   OH2 6221   0.516   3.004   0.641
 2072TIP3    H1 6222   0.583   2.957   0.692
 2072TIP3    H2 6223   0.471   2.935   0.592
 2073TIP3   OH2 6224   0.458   2.748   4.097
 2073TIP3    H1 6225   0.415   2.797   4.027
 2073TIP3    H2 6226   0.462   2.809   4.171
 2074TIP3   OH2 6227   3.862   5.902   4.140
 2074TIP3    H1 6228   3.792   5.907   4.075
 2074TIP3    H2 6229   3.923   5.971   4.114
 2075TIP3   OH2 6230   5.404   4.483   2.115
 2075TIP3    H1 6231   5.362   4.413   2.166
 2075TIP3    H2 6232   5.359   4.479   2.030
 2076TIP3   OH2 6233   1.673   2.933   4.482
 2076TIP3    H1 6234   1.725   2.943   4.562
 2076TIP3    H2 6235   1.598   2.991   4.495
 2077TIP3   OH2 6236   5.797   2.525   1.816
 2077TIP3    H1 6237   5.706   2.495   1.810
 2077TIP3    H2 6238   5.792   2.609   1.861
 2078TIP3   OH2 6239   2.948   1.099   3.263
 2078TIP3    H1 6240   3.020   1.071   3.320
 2078TIP3    H2 6241   2.937   1.192   3.282
 2079TIP3   OH2 6242   0.976   5.438   3.616
 2079TIP3    H1 6243   1.032   5.362   3.632
 2079TIP3    H2 6244   0.892   5.401   3.592
 2080TIP3   OH2 6245   2.455   1.476   3.078
 2080TIP3    H1 6246   2.490   1.441   2.996
 2080TIP3    H2 6247   2.520   1.540   3.106
 2081TIP3   OH2 6248   1.670   4.197   4.737
 2081TIP3    H1 6249   1.664   4.198   4.641
 2081TIP3    H2 6250   1.754   4.155   4.755
 2082TIP3   OH2 6251   2.464   4.958   3.125
 2082TIP3    H1 6252   2.426   5.002   3.049
 2082TIP3    H2 6253   2.481   5.028   3.187
 2083TIP3   OH2 6254   4.527   5.282   4.862
 2083TIP3    H1 6255   4.605   5.268   4.808
 2083TIP3    H2 6256   4.508   5.375   4.851
 2084TIP3   OH2 6257   0.951   2.298   5.093
 2084TIP3    H1 6258   1.000   2.221   5.124
 2084TIP3    H2 6259   0.880   2.308   5.156
 2085TIP3   OH2 6260   3.726   0.126   1.874
 2085TIP3    H1 6261   3.684   0.210   1.859
 2085TIP3    H2 6262   3.692   0.069   1.804
 2086TIP3   OH2 6263   4.619   2.472   3.354
 2086TIP3    H1 6264   4.530   2.440   3.345
 2086TIP3    H2 6265   4.646   2.445   3.442
 2087TIP3   OH2 6266   3.473   3.582   2.306
 2087TIP3    H1 6267   3.483   3.488   2.325
 2087TIP3    H2 6268   3.391   3.587   2.257
 2088TIP3   OH2 6269   5.119   1.350   1.225
 2088TIP3    H1 6270   5.170   1.425   1.194
 2088TIP3    H2 6271   5.175   1.275   1.205
 2089TIP3   OH2 6272   1.215   4.880   3.534
 2089TIP3    H1 6273   1.149   4.870   3.466
 2089TIP3    H2 6274   1.278   4.810   3.517
 2090TIP3   OH2 6275   4.922   4.738   3.483
 2090TIP3    H1 6276   4.837   4.749   3.527
 2090TIP3    H2 6277   4.899   4.716   3.393
 2091TIP3   OH2 6278   1.572   4.931   3.932
 2091TIP3    H1 6279   1.553   4.883   4.013
 2091TIP3    H2 6280   1.519   5.010   3.938
 2092TIP3   OH2 6281   3.193   1.861   4.440
 2092TIP3    H1 6282   3.178   1.949   4.474
 2092TIP3    H2 6283   3.108   1.819   4.443
 2093TIP3   OH2 6284   1.728   2.504   2.711
 2093TIP3    H1 6285   1.714   2.595   2.685
 2093TIP3    H2 6286   1.652   2.457   2.676
 2094TIP3   OH2 6287   1.779   0.499   3.421
 2094TIP3    H1 6288   1.783   0.429   3.356
 2094TIP3    H2 6289   1.740   0.458   3.498
 2095TIP3   OH2 6290   5.827   1.821   2.462
 2095TIP3    H1 6291   5.790   1.739   2.494
 2095TIP3    H2 6292   5.786   1.888   2.516
 2096TIP3   OH2 6293   2.897   3.568   0.817
 2096TIP3    H1 6294   2.923   3.501   0.880
 2096TIP3    H2 6295   2.834   3.623   0.865
 2097TIP3   OH2 6296   4.606   4.333   1.893
 2097TIP3    H1 6297   4.543   4.371   1.832
 2097TIP3    H2 6298   4.557   4.321   1.974
 2098TIP3   OH2 6299   0.676   1.058   0.165
 2098TIP3    H1 6300   0.763   1.070   0.202
 2098TIP3    H2 6301   0.656   1.143   0.123
 2099TIP3   OH2 6302   2.771   3.183   3.068
 2099TIP3    H1 6303   2.733   3.104   3.029
 2099TIP3    H2 6304   2.714   3.203   3.142
 2100TIP3   OH2 6305   3.895   5.622   0.177
 2100TIP3    H1 6306   3.977   5.664   0.149
 2100TIP3    H2 6307   3.910   5.599   0.269
 2101TIP3   OH2 6308   5.164   4.942   2.281
 2101TIP3    H1 6309   5.159   4.936   2.376
 2101TIP3    H2 6310   5.204   4.859   2.253
 2102TIP3   OH2 6311   5.261   2.082   5.060
 2102TIP3    H1 6312   5.321   2.059   4.989
 2102TIP3    H2 6313   5.315   2.133   5.121
 2103TIP3   OH2 6314   6.152   5.260   1.430
 2103TIP3    H1 6315   6.156   5.330   1.496
 2103TIP3    H2 6316   6.064   5.224   1.439
 2104TIP3   OH2 6317   4.715   5.493   1.922
 2104TIP3    H1 6318   4.787   5.542   1.882
 2104TIP3    H2 6319   4.641   5.554   1.920
 2105TIP3   OH2 6320   4.707   0.857   1.780
 2105TIP3    H1 6321   4.746   0.859   1.867
 2105TIP3    H2 6322   4.762   0.797   1.730
 2106TIP3   OH2 6323   2.070   0.111   5.149
 2106TIP3    H1 6324   2.115   0.196   5.141
 2106TIP3    H2 6325   2.117   0.066   5.219
 2107TIP3   OH2 6326   3.128   2.676   3.404
 2107TIP3    H1 6327   3.046   2.711   3.368
 2107TIP3    H2 6328   3.180   2.653   3.327
 2108TIP3   OH2 6329   1.158   0.964   2.473
 2108TIP3    H1 6330   1.202   0.879   2.484
 2108TIP3    H2 6331   1.199   1.002   2.395
 2109TIP3   OH2 6332   3.612   3.329   2.949
 2109TIP3    H1 6333   3.635   3.344   3.040
 2109TIP3    H2 6334   3.690   3.291   2.910
 2110TIP3   OH2 6335   1.998   4.651   1.806
 2110TIP3    H1 6336   2.084   4.635   1.767
 2110TIP3    H2 6337   1.938   4.594   1.757
 2111TIP3   OH2 6338   3.288   1.671   0.942
 2111TIP3    H1 6339   3.320   1.671   0.852
 2111TIP3    H2 6340   3.341   1.737   0.986
 2112TIP3   OH2 6341   6.189   5.706   4.037
 2112TIP3    H1 6342   6.242   5.709   3.957
 2112TIP3    H2 6343   6.104   5.741   4.010
 2113TIP3   OH2 6344   3.909   1.941   0.666
 2113TIP3    H1 6345   3.854   2.000   0.614
 2113TIP3    H2 6346   3.998   1.976   0.656
 2114TIP3   OH2 6347   4.805   5.230   0.711
 2114TIP3    H1 6348   4.874   5.212   0.647
 2114TIP3    H2 6349   4.749   5.152   0.707
 2115TIP3   OH2 6350   3.773   1.328   2.166
 2115TIP3    H1 6351   3.739   1.412   2.135
 2115TIP3    H2 6352   3.762   1.331   2.261
 2116TIP3   OH2 6353   4.437   1.475   4.764
 2116TIP3    H1 6354   4.417   1.563   4.733
 2116TIP3    H2 6355   4.488   1.489   4.844
 2117TIP3   OH2 6356   1.214   4.444   4.897
 2117TIP3    H1 6357   1.210   4.538   4.881
 2117TIP3    H2 6358   1.307   4.424   4.901
 2118TIP3   OH2 6359   5.277   5.505   4.758
 2118TIP3    H1 6360   5.266   5.457   4.840
 2118TIP3    H2 6361   5.334   5.578   4.781
 2119TIP3   OH2 6362   1.202   0.484   1.399
 2119TIP3    H1 6363   1.125   0.491   1.456
 2119TIP3    H2 6364   1.254   0.413   1.438
 2120TIP3   OH2 6365   4.362   0.975   2.734
 2120TIP3    H1 6366   4.405   0.889   2.741
 2120TIP3    H2 6367   4.359   1.007   2.824
 2121TIP3   OH2 6368   3.595   4.833   2.315
 2121TIP3    H1 6369   3.691   4.828   2.306
 2121TIP3    H2 6370   3.564   4.751   2.276
 2122TIP3   OH2 6371   4.588   4.848   1.733
 2122TIP3    H1 6372   4.600   4.912   1.662
 2122TIP3    H2 6373   4.498   4.817   1.723
 2123TIP3   OH2 6374   3.863   2.394   0.039
 2123TIP3    H1 6375   3.918   2.354  -0.028
 2123TIP3    H2 6376   3.796   2.441  -0.011
 2124TIP3   OH2 6377   0.231   3.166   0.700
 2124TIP3    H1 6378   0.150   3.195   0.658
 2124TIP3    H2 6379   0.300   3.210   0.650
 2125TIP3   OH2 6380   6.157   4.397   4.031
 2125TIP3    H1 6381   6.237   4.357   3.996
 2125TIP3    H2 6382   6.180   4.488   4.047
 2126TIP3   OH2 6383   3.309   4.630   1.871
 2126TIP3    H1 6384   3.219   4.654   1.850
 2126TIP3    H2 6385   3.320   4.544   1.831
 2127TIP3   OH2 6386   4.571   0.523   0.695
 2127TIP3    H1 6387   4.518   0.519   0.775
 2127TIP3    H2 6388   4.509   0.502   0.624
 2128TIP3   OH2 6389   1.805   4.359   5.042
 2128TIP3    H1 6390   1.881   4.302   5.052
 2128TIP3    H2 6391   1.783   4.386   5.132
 2129TIP3   OH2 6392   1.644   0.067   2.479
 2129TIP3    H1 6393   1.596   0.140   2.518
 2129TIP3    H2 6394   1.611  -0.010   2.525
 2130TIP3   OH2 6395   1.794   2.653   2.302
 2130TIP3    H1 6396   1.699   2.643   2.309
 2130TIP3    H2 6397   1.821   2.583   2.242
 2131TIP3   OH2 6398   5.601   3.539   2.253
 2131TIP3    H1 6399   5.534   3.471   2.244
 2131TIP3    H2 6400   5.583   3.601   2.182
 2132TIP3   OH2 6401   2.556   5.094   0.964
 2132TIP3    H1 6402   2.584   5.010   0.927
 2132TIP3    H2 6403   2.462   5.096   0.949
 2133TIP3   OH2 6404   3.396   5.526   1.970
 2133TIP3    H1 6405   3.378   5.436   1.944
 2133TIP3    H2 6406   3.394   5.524   2.065
 2134TIP3   OH2 6407   5.433   5.732   3.838
 2134TIP3    H1 6408   5.414   5.642   3.812
 2134TIP3    H2 6409   5.491   5.765   3.769
 2135TIP3   OH2 6410   0.794   4.373   4.386
 2135TIP3    H1 6411   0.798   4.460   4.426
 2135TIP3    H2 6412   0.710   4.338   4.414
 2136TIP3   OH2 6413   0.263   4.501   1.634
 2136TIP3    H1 6414   0.300   4.445   1.702
 2136TIP3    H2 6415   0.175   4.521   1.665
 2137TIP3   OH2 6416   0.434   4.697   4.174
 2137TIP3    H1 6417   0.485   4.749   4.112
 2137TIP3    H2 6418   0.479   4.612   4.177
 2138TIP3   OH2 6419   4.287   1.917   0.275
 2138TIP3    H1 6420   4.349   1.844   0.281
 2138TIP3    H2 6421   4.341   1.992   0.251
 2139TIP3   OH2 6422   0.492   1.447   3.488
 2139TIP3    H1 6423   0.482   1.534   3.527
 2139TIP3    H2 6424   0.442   1.452   3.406
 2140TIP3   OH2 6425   2.801   1.684   0.149
 2140TIP3    H1 6426   2.774   1.595   0.174
 2140TIP3    H2 6427   2.720   1.735   0.152
 2141TIP3   OH2 6428   2.586   1.384   2.847
 2141TIP3    H1 6429   2.672   1.353   2.877
 2141TIP3    H2 6430   2.588   1.370   2.753
 2142TIP3   OH2 6431   3.861   1.760   2.426
 2142TIP3    H1 6432   3.833   1.821   2.494
 2142TIP3    H2 6433   3.922   1.811   2.372
 2143TIP3   OH2 6434   4.167   2.994   0.472
 2143TIP3    H1 6435   4.223   3.070   0.488
 2143TIP3    H2 6436   4.103   2.996   0.543
 2144TIP3   OH2 6437   2.169   5.213   2.367
 2144TIP3    H1 6438   2.085   5.167   2.375
 2144TIP3    H2 6439   2.149   5.288   2.310
 2145TIP3   OH2 6440   4.603   4.423   0.303
 2145TIP3    H1 6441   4.688   4.395   0.270
 2145TIP3    H2 6442   4.606   4.518   0.301
 2146TIP3   OH2 6443   2.943   4.076   1.387
 2146TIP3    H1 6444   2.935   4.100   1.479
 2146TIP3    H2 6445   2.959   3.982   1.388
 2147TIP3   OH2 6446   1.126   0.659   5.146
 2147TIP3    H1 6447   1.068   0.650   5.222
 2147TIP3    H2 6448   1.099   0.742   5.105
 2148TIP3   OH2 6449   6.271   2.537   3.802
 2148TIP3    H1 6450   6.206   2.469   3.787
 2148TIP3    H2 6451   6.338   2.495   3.855
 2149TIP3   OH2 6452   2.826   1.121   5.027
 2149TIP3    H1 6453   2.862   1.161   4.948
 2149TIP3    H2 6454   2.837   1.027   5.013
 2150TIP3   OH2 6455   1.299   4.699   5.002
 2150TIP3    H1 6456   1.395   4.692   5.007
 2150TIP3    H2 6457   1.277   4.769   5.064
 2151TIP3   OH2 6458   2.929   5.479   1.242
 2151TIP3    H1 6459   3.006   5.475   1.298
 2151TIP3    H2 6460   2.936   5.402   1.185
 2152TIP3   OH2 6461   5.201   4.863   3.142
 2152TIP3    H1 6462   5.295   4.879   3.152
 2152TIP3    H2 6463   5.191   4.832   3.052
 2153TIP3   OH2 6464   0.869   4.558   0.269
 2153TIP3    H1 6465   0.915   4.630   0.225
 2153TIP3    H2 6466   0.808   4.526   0.202
 2154TIP3   OH2 6467   5.026   1.065   0.478
 2154TIP3    H1 6468   5.060   1.149   0.446
 2154TIP3    H2 6469   5.006   1.016   0.398
 2155TIP3   OH2 6470   5.913   0.375   4.518
 2155TIP3    H1 6471   5.934   0.424   4.598
 2155TIP3    H2 6472   5.985   0.394   4.458
 2156TIP3   OH2 6473   1.087   2.912   4.629
 2156TIP3    H1 6474   1.108   2.898   4.721
 2156TIP3    H2 6475   1.086   3.007   4.619
 2157TIP3   OH2 6476   4.064   4.828   0.775
 2157TIP3    H1 6477   4.128   4.864   0.837
 2157TIP3    H2 6478   4.070   4.733   0.785
 2158TIP3   OH2 6479   4.330   3.516   0.598
 2158TIP3    H1 6480   4.281   3.583   0.645
 2158TIP3    H2 6481   4.364   3.560   0.520
 2159TIP3   OH2 6482   3.426   0.986   0.040
 2159TIP3    H1 6483   3.387   1.073   0.045
 2159TIP3    H2 6484   3.469   0.973   0.124
 2160TIP3   OH2 6485   3.383   3.921   1.761
 2160TIP3    H1 6486   3.399   3.827   1.753
 2160TIP3    H2 6487   3.349   3.947   1.676
 2161TIP3   OH2 6488   1.524   5.014   2.027
 2161TIP3    H1 6489   1.594   5.024   2.091
 2161TIP3    H2 6490   1.556   5.059   1.949
 2162TIP3   OH2 6491   3.823   2.402   1.432
 2162TIP3    H1 6492   3.877   2.325   1.412
 2162TIP3    H2 6493   3.737   2.365   1.453
 2163TIP3   OH2 6494   5.095   5.622   0.339
 2163TIP3    H1 6495   5.085   5.637   0.433
 2163TIP3    H2 6496   5.059   5.534   0.325
 2164TIP3   OH2 6497   1.751   5.313   3.120
 2164TIP3    H1 6498   1.798   5.260   3.056
 2164TIP3    H2 6499   1.698   5.250   3.169
 2165TIP3   OH2 6500   1.433   4.976   0.334
 2165TIP3    H1 6501   1.484   5.054   0.315
 2165TIP3    H2 6502   1.446   4.919   0.258
 2166TIP3   OH2 6503   1.968   5.183   4.990
 2166TIP3    H1 6504   2.014   5.248   5.042
 2166TIP3    H2 6505   1.945   5.229   4.909
 2167TIP3   OH2 6506   3.850   3.208   2.858
 2167TIP3    H1 6507   3.888   3.127   2.893
 2167TIP3    H2 6508   3.920   3.273   2.867
 2168TIP3   OH2 6509   3.330   0.969   3.878
 2168TIP3    H1 6510   3.388   1.040   3.906
 2168TIP3    H2 6511   3.350   0.957   3.785
 2169TIP3   OH2 6512   3.732   4.154   1.118
 2169TIP3    H1 6513   3.800   4.150   1.186
 2169TIP3    H2 6514   3.697   4.243   1.124
 2170TIP3   OH2 6515   3.731   0.174   1.527
 2170TIP3    H1 6516   3.740   0.088   1.568
 2170TIP3    H2 6517   3.766   0.163   1.439
 2171TIP3   OH2 6518   4.960   1.741   1.281
 2171TIP3    H1 6519   5.045   1.737   1.325
 2171TIP3    H2 6520   4.954   1.831   1.247
 2172TIP3   OH2 6521   2.610   2.253   3.339
 2172TIP3    H1 6522   2.656   2.233   3.421
 2172TIP3    H2 6523   2.652   2.198   3.274
 2173TIP3   OH2 6524   3.588   5.046   2.503
 2173TIP3    H1 6525   3.551   4.971   2.458
 2173TIP3    H2 6526   3.682   5.042   2.483
 2174TIP3   OH2 6527   3.747   1.277  -0.064
 2174TIP3    H1 6528   3.831   1.323  -0.059
 2174TIP3    H2 6529   3.733   1.242   0.024
 2175TIP3   OH2 6530   2.733   3.075   1.255
 2175TIP3    H1 6531   2.763   3.041   1.171
 2175TIP3    H2 6532   2.679   3.004   1.291
 2176TIP3   OH2 6533   2.373   4.669   2.800
 2176TIP3    H1 6534   2.313   4.634   2.734
 2176TIP3    H2 6535   2.457   4.628   2.779
 2177TIP3   OH2 6536   2.778   2.125   1.099
 2177TIP3    H1 6537   2.800   2.146   1.190
 2177TIP3    H2 6538   2.773   2.211   1.055
 2178TIP3   OH2 6539   1.925   5.320   3.698
 2178TIP3    H1 6540   1.885   5.405   3.681
 2178TIP3    H2 6541   2.008   5.323   3.651
 2179TIP3   OH2 6542   3.897   1.491   2.505
 2179TIP3    H1 6543   3.866   1.581   2.491
 2179TIP3    H2 6544   3.825   1.436   2.474
 2180TIP3   OH2 6545   0.278   1.002   3.814
 2180TIP3    H1 6546   0.350   0.947   3.784
 2180TIP3    H2 6547   0.262   1.063   3.742
 2181TIP3   OH2 6548   4.408   5.417   0.622
 2181TIP3    H1 6549   4.435   5.401   0.713
 2181TIP3    H2 6550   4.409   5.512   0.613
 2182TIP3   OH2 6551   0.030   2.682   1.875
 2182TIP3    H1 6552  -0.005   2.667   1.963
 2182TIP3    H2 6553  -0.019   2.758   1.842
 2183TIP3   OH2 6554   2.317   4.876   4.285
 2183TIP3    H1 6555   2.255   4.806   4.265
 2183TIP3    H2 6556   2.396   4.830   4.314
 2184TIP3   OH2 6557   0.050   3.422   4.209
 2184TIP3    H1 6558   0.131   3.473   4.205
 2184TIP3    H2 6559  -0.001   3.451   4.133
 2185TIP3   OH2 6560   5.099   4.334   2.361
 2185TIP3    H1 6561   5.109   4.427   2.341
 2185TIP3    H2 6562   5.023   4.306   2.308
 2186TIP3   OH2 6563   2.729   5.324   4.282
 2186TIP3    H1 6564   2.779   5.397   4.319
 2186TIP3    H2 6565   2.677   5.291   4.356
 2187TIP3   OH2 6566   3.443   3.049   3.944
 2187TIP3    H1 6567   3.524   3.074   3.900
 2187TIP3    H2 6568   3.375   3.103   3.902
 2188TIP3   OH2 6569   3.960   5.720   1.095
 2188TIP3    H1 6570   3.899   5.737   1.023
 2188TIP3    H2 6571   3.904   5.709   1.171
 2189TIP3   OH2 6572   0.164   0.992   0.234
 2189TIP3    H1 6573   0.210   0.910   0.213
 2189TIP3    H2 6574   0.087   0.992   0.177
 2190TIP3   OH2 6575   5.198   3.744   5.103
 2190TIP3    H1 6576   5.251   3.816   5.069
 2190TIP3    H2 6577   5.241   3.719   5.185
 2191TIP3   OH2 6578   5.546   3.969   2.873
 2191TIP3    H1 6579   5.581   4.033   2.812
 2191TIP3    H2 6580   5.458   3.950   2.841
 2192TIP3   OH2 6581   1.317   4.478   0.901
 2192TIP3    H1 6582   1.261   4.403   0.918
 2192TIP3    H2 6583   1.327   4.479   0.806
 2193TIP3   OH2 6584   1.718   4.100   4.068
 2193TIP3    H1 6585   1.633   4.119   4.108
 2193TIP3    H2 6586   1.698   4.086   3.975
 2194TIP3   OH2 6587   0.650   5.830   2.375
 2194TIP3    H1 6588   0.720   5.808   2.436
 2194TIP3    H2 6589   0.680   5.910   2.332
 2195TIP3   OH2 6590   3.682   4.318   3.456
 2195TIP3    H1 6591   3.673   4.342   3.363
 2195TIP3    H2 6592   3.730   4.236   3.455
 2196TIP3   OH2 6593   2.961   4.692   0.891
 2196TIP3    H1 6594   3.049   4.655   0.882
 2196TIP3    H2 6595   2.961   4.732   0.977
 2197TIP3   OH2 6596   4.705   2.108   3.692
 2197TIP3    H1 6597   4.685   2.075   3.604
 2197TIP3    H2 6598   4.728   2.029   3.742
 2198TIP3   OH2 6599   4.344   1.010   3.065
 2198TIP3    H1 6600   4.306   0.927   3.035
 2198TIP3    H2 6601   4.323   1.013   3.159
 2199TIP3   OH2 6602   2.250   2.561   2.399
 2199TIP3    H1 6603   2.290   2.509   2.468
 2199TIP3    H2 6604   2.157   2.564   2.422
 2200TIP3   OH2 6605   0.887   1.712   4.991
 2200TIP3    H1 6606   0.873   1.760   5.073
 2200TIP3    H2 6607   0.937   1.634   5.016
 2201TIP3   OH2 6608   1.835   0.215   4.072
 2201TIP3    H1 6609   1.859   0.249   4.158
 2201TIP3    H2 6610   1.752   0.169   4.088
 2202TIP3   OH2 6611   5.728   5.295   4.649
 2202TIP3    H1 6612   5.653   5.236   4.644
 2202TIP3    H2 6613   5.693   5.376   4.686
 2203TIP3   OH2 6614   2.881   4.699   2.152
 2203TIP3    H1 6615   2.866   4.793   2.145
 2203TIP3    H2 6616   2.885   4.682   2.246
 2204TIP3   OH2 6617   3.278   2.737   1.831
 2204TIP3    H1 6618   3.262   2.706   1.741
 2204TIP3    H2 6619   3.198   2.715   1.878
 2205TIP3   OH2 6620   3.679   5.539   1.803
 2205TIP3    H1 6621   3.621   5.605   1.841
 2205TIP3    H2 6622   3.761   5.584   1.788
 2206TIP3   OH2 6623   2.027   1.100   1.349
 2206TIP3    H1 6624   2.046   1.189   1.319
 2206TIP3    H2 6625   2.046   1.045   1.273
 2207TIP3   OH2 6626   2.199   5.446   2.233
 2207TIP3    H1 6627   2.208   5.436   2.139
 2207TIP3    H2 6628   2.282   5.485   2.261
 2208TIP3   OH2 6629   4.438   2.357   0.456
 2208TIP3    H1 6630   4.405   2.289   0.514
 2208TIP3    H2 6631   4.384   2.434   0.476
 2209TIP3   OH2 6632   1.425   1.919   2.371
 2209TIP3    H1 6633   1.502   1.899   2.317
 2209TIP3    H2 6634   1.454   1.991   2.427
 2210TIP3   OH2 6635   5.393   4.604   0.256
 2210TIP3    H1 6636   5.345   4.537   0.207
 2210TIP3    H2 6637   5.384   4.577   0.348
 2211TIP3   OH2 6638   4.625   5.553   0.274
 2211TIP3    H1 6639   4.665   5.585   0.354
 2211TIP3    H2 6640   4.695   5.505   0.229
 2212TIP3   OH2 6641   1.003   0.220   0.413
 2212TIP3    H1 6642   0.927   0.173   0.378
 2212TIP3    H2 6643   1.023   0.176   0.495
 2213TIP3   OH2 6644   1.504   1.398   1.833
 2213TIP3    H1 6645   1.595   1.424   1.813
 2213TIP3    H2 6646   1.489   1.322   1.778
 2214TIP3   OH2 6647   3.803   0.692   1.427
 2214TIP3    H1 6648   3.711   0.719   1.432
 2214TIP3    H2 6649   3.824   0.664   1.516
 2215TIP3   OH2 6650   4.262   5.031   3.064
 2215TIP3    H1 6651   4.344   5.067   3.098
 2215TIP3    H2 6652   4.226   5.100   3.008
 2216TIP3   OH2 6653   1.301   2.960   2.435
 2216TIP3    H1 6654   1.280   2.978   2.526
 2216TIP3    H2 6655   1.277   2.868   2.422
 2217TIP3   OH2 6656   0.385   0.065   4.326
 2217TIP3    H1 6657   0.305   0.018   4.351
 2217TIP3    H2 6658   0.455   0.000   4.337
 2218TIP3   OH2 6659   2.265   0.714   1.195
 2218TIP3    H1 6660   2.234   0.626   1.216
 2218TIP3    H2 6661   2.358   0.713   1.215
 2219TIP3   OH2 6662   5.318   3.355   2.284
 2219TIP3    H1 6663   5.250   3.408   2.243
 2219TIP3    H2 6664   5.346   3.406   2.360
 2220TIP3   OH2 6665   0.095   1.103   2.226
 2220TIP3    H1 6666   0.115   1.193   2.250
 2220TIP3    H2 6667   0.001   1.095   2.238
 2221TIP3   OH2 6668   2.275   5.682   3.299
 2221TIP3    H1 6669   2.202   5.711   3.353
 2221TIP3    H2 6670   2.275   5.741   3.224
 2222TIP3   OH2 6671   5.253   0.829   2.541
 2222TIP3    H1 6672   5.300   0.899   2.585
 2222TIP3    H2 6673   5.305   0.810   2.463
 2223TIP3   OH2 6674   6.042   5.049   3.949
 2223TIP3    H1 6675   6.007   5.044   4.038
 2223TIP3    H2 6676   5.985   4.991   3.898
 2224TIP3   OH2 6677   1.159   2.293   2.250
 2224TIP3    H1 6678   1.170   2.198   2.248
 2224TIP3    H2 6679   1.164   2.320   2.158
 2225TIP3   OH2 6680   4.964   2.148   4.104
 2225TIP3    H1 6681   4.870   2.134   4.116
 2225TIP3    H2 6682   4.992   2.190   4.185
 2226TIP3   OH2 6683   1.091   5.192   0.529
 2226TIP3    H1 6684   1.041   5.141   0.593
 2226TIP3    H2 6685   1.179   5.155   0.534
 2227TIP3   OH2 6686   0.568   0.673   3.248
 2227TIP3    H1 6687   0.515   0.748   3.222
 2227TIP3    H2 6688   0.526   0.597   3.207
 2228TIP3   OH2 6689   2.084   2.965   0.042
 2228TIP3    H1 6690   2.007   3.005   0.003
 2228TIP3    H2 6691   2.157   3.018   0.010
 2229TIP3   OH2 6692   0.462   4.230   0.244
 2229TIP3    H1 6693   0.436   4.162   0.306
 2229TIP3    H2 6694   0.409   4.306   0.267
 2230TIP3   OH2 6695   0.903   3.104   1.755
 2230TIP3    H1 6696   0.873   3.015   1.737
 2230TIP3    H2 6697   0.956   3.127   1.678
 2231TIP3   OH2 6698   2.360   1.758   5.115
 2231TIP3    H1 6699   2.296   1.757   5.044
 2231TIP3    H2 6700   2.327   1.694   5.179
 2232TIP3   OH2 6701   5.087   3.280   1.696
 2232TIP3    H1 6702   5.170   3.249   1.659
 2232TIP3    H2 6703   5.029   3.204   1.690
 2233TIP3   OH2 6704   0.752   5.162   4.299
 2233TIP3    H1 6705   0.685   5.187   4.362
 2233TIP3    H2 6706   0.783   5.245   4.262
 2234TIP3   OH2 6707   0.267   1.290   2.954
 2234TIP3    H1 6708   0.340   1.350   2.972
 2234TIP3    H2 6709   0.189   1.344   2.965
 2235TIP3   OH2 6710   2.266   2.049   2.489
 2235TIP3    H1 6711   2.292   2.071   2.400
 2235TIP3    H2 6712   2.305   2.118   2.543
 2236TIP3   OH2 6713   0.549   2.739   3.096
 2236TIP3    H1 6714   0.635   2.732   3.138
 2236TIP3    H2 6715   0.502   2.661   3.124
 2237TIP3   OH2 6716   4.647   4.288   5.110
 2237TIP3    H1 6717   4.558   4.307   5.140
 2237TIP3    H2 6718   4.695   4.369   5.125
 2238TIP3   OH2 6719   0.539   4.193   4.102
 2238TIP3    H1 6720   0.581   4.117   4.141
 2238TIP3    H2 6721   0.543   4.176   4.008
 2239TIP3   OH2 6722   6.129   0.678   1.592
 2239TIP3    H1 6723   6.208   0.624   1.589
 2239TIP3    H2 6724   6.160   0.768   1.582
 2240TIP3   OH2 6725   5.301   2.011   2.133
 2240TIP3    H1 6726   5.278   2.091   2.084
 2240TIP3    H2 6727   5.329   1.949   2.065
 2241TIP3   OH2 6728   4.975   3.812   4.132
 2241TIP3    H1 6729   5.064   3.848   4.137
 2241TIP3    H2 6730   4.955   3.788   4.223
 2242TIP3   OH2 6731   3.895   1.624   1.979
 2242TIP3    H1 6732   3.892   1.557   1.910
 2242TIP3    H2 6733   3.803   1.641   2.000
 2243TIP3   OH2 6734   1.959   4.482   4.089
 2243TIP3    H1 6735   1.977   4.390   4.109
 2243TIP3    H2 6736   1.918   4.480   4.002
 2244TIP3   OH2 6737   0.264   2.686   2.348
 2244TIP3    H1 6738   0.201   2.749   2.381
 2244TIP3    H2 6739   0.256   2.611   2.407
 2245TIP3   OH2 6740   2.342   3.828   2.822
 2245TIP3    H1 6741   2.270   3.867   2.772
 2245TIP3    H2 6742   2.418   3.837   2.765
 2246TIP3   OH2 6743   5.715   1.016   3.463
 2246TIP3    H1 6744   5.669   0.935   3.488
 2246TIP3    H2 6745   5.668   1.085   3.509
 2247TIP3   OH2 6746   4.515   3.004   4.736
 2247TIP3    H1 6747   4.471   3.084   4.765
 2247TIP3    H2 6748   4.586   2.992   4.799
 2248TIP3   OH2 6749   3.706   4.622   4.478
 2248TIP3    H1 6750   3.632   4.577   4.518
 2248TIP3    H2 6751   3.687   4.621   4.384
 2249TIP3   OH2 6752   0.795   4.213   2.131
 2249TIP3    H1 6753   0.734   4.140   2.124
 2249TIP3    H2 6754   0.752   4.275   2.190
 2250TIP3   OH2 6755   5.584   3.946   3.842
 2250TIP3    H1 6756   5.674   3.964   3.870
 2250TIP3    H2 6757   5.594   3.892   3.763
 2251TIP3   OH2 6758   5.434   3.180   0.300
 2251TIP3    H1 6759   5.456   3.106   0.357
 2251TIP3    H2 6760   5.500   3.177   0.231
 2252TIP3   OH2 6761   2.859   4.082   0.387
 2252TIP3    H1 6762   2.836   4.171   0.360
 2252TIP3    H2 6763   2.776   4.041   0.411
 2253TIP3   OH2 6764   3.265   4.035   3.731
 2253TIP3    H1 6765   3.212   4.045   3.810
 2253TIP3    H2 6766   3.338   4.096   3.744
 2254TIP3   OH2 6767   5.400   1.647   0.883
 2254TIP3    H1 6768   5.376   1.702   0.808
 2254TIP3    H2 6769   5.333   1.579   0.886
 2255TIP3   OH2 6770   2.173   1.049   1.922
 2255TIP3    H1 6771   2.135   1.087   2.002
 2255TIP3    H2 6772   2.170   1.120   1.858
 2256TIP3   OH2 6773   1.045   0.071   2.494
 2256TIP3    H1 6774   1.055   0.055   2.588
 2256TIP3    H2 6775   1.132   0.056   2.457
 2257TIP3   OH2 6776   2.680   0.790   5.075
 2257TIP3    H1 6777   2.638   0.706   5.053
 2257TIP3    H2 6778   2.759   0.765   5.122
 2258TIP3   OH2 6779   2.374   2.642   2.858
 2258TIP3    H1 6780   2.315   2.714   2.836
 2258TIP3    H2 6781   2.427   2.631   2.778
 2259TIP3   OH2 6782   0.289   3.876   2.025
 2259TIP3    H1 6783   0.207   3.841   1.991
 2259TIP3    H2 6784   0.263   3.927   2.102
 2260TIP3   OH2 6785   4.679   5.841   2.003
 2260TIP3    H1 6786   4.697   5.921   2.053
 2260TIP3    H2 6787   4.668   5.872   1.913
 2261TIP3   OH2 6788   1.950   5.915   3.567
 2261TIP3    H1 6789   1.960   5.824   3.595
 2261TIP3    H2 6790   2.038   5.945   3.547
 2262TIP3   OH2 6791   2.485   4.364   1.599
 2262TIP3    H1 6792   2.511   4.455   1.583
 2262TIP3    H2 6793   2.466   4.329   1.512
 2263TIP3   OH2 6794   0.123   5.186   4.709
 2263TIP3    H1 6795   0.099   5.228   4.792
 2263TIP3    H2 6796   0.184   5.117   4.734
 2264TIP3   OH2 6797   5.461   1.074   3.188
 2264TIP3    H1 6798   5.446   1.139   3.257
 2264TIP3    H2 6799   5.380   1.073   3.137
 2265TIP3   OH2 6800   2.147   0.634   0.849
 2265TIP3    H1 6801   2.090   0.650   0.774
 2265TIP3    H2 6802   2.088   0.619   0.922
 2266TIP3   OH2 6803   1.661   3.483   3.385
 2266TIP3    H1 6804   1.650   3.431   3.305
 2266TIP3    H2 6805   1.724   3.433   3.437
 2267TIP3   OH2 6806   5.030   3.278   2.992
 2267TIP3    H1 6807   5.024   3.182   2.994
 2267TIP3    H2 6808   4.984   3.303   2.911
 2268TIP3   OH2 6809   0.430   4.954   4.593
 2268TIP3    H1 6810   0.479   5.033   4.619
 2268TIP3    H2 6811   0.396   4.975   4.506
 2269TIP3   OH2 6812   0.624   4.515   1.480
 2269TIP3    H1 6813   0.641   4.598   1.524
 2269TIP3    H2 6814   0.710   4.485   1.452
 2270TIP3   OH2 6815   0.080   2.276   3.633
 2270TIP3    H1 6816   0.064   2.261   3.726
 2270TIP3    H2 6817   0.016   2.221   3.588
 2271TIP3   OH2 6818   0.702   3.945   2.427
 2271TIP3    H1 6819   0.693   3.899   2.343
 2271TIP3    H2 6820   0.657   3.889   2.490
 2272TIP3   OH2 6821   2.052   5.928   1.175
 2272TIP3    H1 6822   2.142   5.955   1.191
 2272TIP3    H2 6823   2.047   5.840   1.212
 2273TIP3   OH2 6824   0.120   5.308   4.005
 2273TIP3    H1 6825   0.064   5.374   4.045
 2273TIP3    H2 6826   0.061   5.238   3.979
 2274TIP3   OH2 6827   4.122   5.938   4.312
 2274TIP3    H1 6828   4.080   5.996   4.376
 2274TIP3    H2 6829   4.103   5.979   4.227
 2275TIP3   OH2 6830   0.821   3.848   3.868
 2275TIP3    H1 6831   0.796   3.917   3.808
 2275TIP3    H2 6832   0.908   3.874   3.900
 2276TIP3   OH2 6833   3.343   2.342   4.044
 2276TIP3    H1 6834   3.255   2.362   4.011
 2276TIP3    H2 6835   3.400   2.362   3.970
 2277TIP3   OH2 6836   4.016   2.492   0.768
 2277TIP3    H1 6837   4.020   2.399   0.787
 2277TIP3    H2 6838   4.098   2.511   0.722
 2278TIP3   OH2 6839   3.842   4.127   0.255
 2278TIP3    H1 6840   3.872   4.150   0.342
 2278TIP3    H2 6841   3.804   4.039   0.265
 2279TIP3   OH2 6842   3.556   4.488   0.343
 2279TIP3    H1 6843   3.632   4.483   0.285
 2279TIP3    H2 6844   3.593   4.478   0.431
 2280TIP3   OH2 6845   0.829   1.295   4.022
 2280TIP3    H1 6846   0.837   1.390   4.009
 2280TIP3    H2 6847   0.843   1.283   4.116
 2281TIP3   OH2 6848   3.069   1.137   1.203
 2281TIP3    H1 6849   2.985   1.107   1.168
 2281TIP3    H2 6850   3.090   1.215   1.153
 2282TIP3   OH2 6851   5.207   1.672   2.179
 2282TIP3    H1 6852   5.242   1.696   2.264
 2282TIP3    H2 6853   5.217   1.577   2.175
 2283TIP3   OH2 6854   4.439   4.644   2.944
 2283TIP3    H1 6855   4.499   4.571   2.932
 2283TIP3    H2 6856   4.492   4.722   2.929
 2284TIP3   OH2 6857   5.212   1.813   3.754
 2284TIP3    H1 6858   5.143   1.794   3.691
 2284TIP3    H2 6859   5.177   1.882   3.810
 2285TIP3   OH2 6860   3.473   5.229   3.918
 2285TIP3    H1 6861   3.445   5.317   3.941
 2285TIP3    H2 6862   3.401   5.172   3.947
 2286TIP3   OH2 6863   3.123   5.202   1.758
 2286TIP3    H1 6864   3.119   5.234   1.668
 2286TIP3    H2 6865   3.098   5.110   1.752
 2287TIP3   OH2 6866   1.690   3.701   1.751
 2287TIP3    H1 6867   1.678   3.655   1.834
 2287TIP3    H2 6868   1.723   3.634   1.691
 2288TIP3   OH2 6869   3.489   3.877   4.511
 2288TIP3    H1 6870   3.531   3.963   4.516
 2288TIP3    H2 6871   3.402   3.891   4.549
 2289TIP3   OH2 6872   0.813   3.927   4.701
 2289TIP3    H1 6873   0.771   4.013   4.696
 2289TIP3    H2 6874   0.900   3.946   4.736
 2290TIP3   OH2 6875   4.464   2.880   0.444
 2290TIP3    H1 6876   4.529   2.947   0.422
 2290TIP3    H2 6877   4.422   2.912   0.524
 2291TIP3   OH2 6878   3.705   4.502   0.831
 2291TIP3    H1 6879   3.697   4.489   0.737
 2291TIP3    H2 6880   3.614   4.503   0.863
 2292TIP3   OH2 6881   1.010   2.648   2.637
 2292TIP3    H1 6882   0.957   2.590   2.691
 2292TIP3    H2 6883   1.058   2.590   2.579
 2293TIP3   OH2 6884   3.385   1.651   0.668
 2293TIP3    H1 6885   3.441   1.584   0.628
 2293TIP3    H2 6886   3.407   1.732   0.621
 2294TIP3   OH2 6887   3.550   4.058   0.765
 2294TIP3    H1 6888   3.517   4.076   0.677
 2294TIP3    H2 6889   3.472   4.034   0.815
 2295TIP3   OH2 6890   2.104   5.899   1.802
 2295TIP3    H1 6891   2.029   5.914   1.859
 2295TIP3    H2 6892   2.167   5.851   1.856
 2296TIP3   OH2 6893   5.390   3.921   4.970
 2296TIP3    H1 6894   5.432   3.952   5.051
 2296TIP3    H2 6895   5.444   3.846   4.943
 2297TIP3   OH2 6896   0.723   2.992   0.349
 2297TIP3    H1 6897   0.737   3.071   0.297
 2297TIP3    H2 6898   0.629   2.991   0.368
 2298TIP3   OH2 6899   1.268   2.334   1.135
 2298TIP3    H1 6900   1.350   2.320   1.087
 2298TIP3    H2 6901   1.204   2.280   1.090
 2299TIP3   OH2 6902   2.020   4.823   0.549
 2299TIP3    H1 6903   1.985   4.883   0.483
 2299TIP3    H2 6904   1.985   4.856   0.632
 2300TIP3   OH2 6905   1.434   2.213   4.704
 2300TIP3    H1 6906   1.529   2.215   4.708
 2300TIP3    H2 6907   1.407   2.299   4.737
 2301TIP3   OH2 6908   5.485   2.812   4.433
 2301TIP3    H1 6909   5.460   2.740   4.375
 2301TIP3    H2 6910   5.571   2.840   4.402
 2302TIP3   OH2 6911   4.221   5.457   4.243
 2302TIP3    H1 6912   4.145   5.458   4.302
 2302TIP3    H2 6913   4.208   5.379   4.189
 2303TIP3   OH2 6914   0.582   5.316   4.474
 2303TIP3    H1 6915   0.545   5.308   4.386
 2303TIP3    H2 6916   0.509   5.297   4.533
 2304TIP3   OH2 6917   0.294   1.835   3.322
 2304TIP3    H1 6918   0.214   1.810   3.276
 2304TIP3    H2 6919   0.264   1.880   3.401
 2305TIP3   OH2 6920   4.197   4.892   1.298
 2305TIP3    H1 6921   4.132   4.889   1.229
 2305TIP3    H2 6922   4.181   4.813   1.350
 2306TIP3   OH2 6923   5.361   1.818   1.964
 2306TIP3    H1 6924   5.385   1.866   1.884
 2306TIP3    H2 6925   5.348   1.728   1.934
 2307TIP3   OH2 6926   0.893   1.379   2.152
 2307TIP3    H1 6927   0.901   1.351   2.243
 2307TIP3    H2 6928   0.808   1.422   2.147
 2308TIP3   OH2 6929   4.300   2.495   1.792
 2308TIP3    H1 6930   4.362   2.553   1.749
 2308TIP3    H2 6931   4.351   2.418   1.816
 2309TIP3   OH2 6932   5.875   2.740   4.416
 2309TIP3    H1 6933   5.970   2.751   4.423
 2309TIP3    H2 6934   5.858   2.737   4.321
 2310TIP3   OH2 6935   1.340   5.231   3.815
 2310TIP3    H1 6936   1.246   5.214   3.805
 2310TIP3    H2 6937   1.364   5.185   3.895
 2311TIP3   OH2 6938   3.346   0.702   3.757
 2311TIP3    H1 6939   3.363   0.756   3.680
 2311TIP3    H2 6940   3.341   0.764   3.829
 2312TIP3   OH2 6941   4.101   2.032   3.051
 2312TIP3    H1 6942   4.021   2.077   3.023
 2312TIP3    H2 6943   4.072   1.975   3.123
 2313TIP3   OH2 6944   3.200   5.934   1.440
 2313TIP3    H1 6945   3.186   6.009   1.382
 2313TIP3    H2 6946   3.250   5.872   1.388
 2314TIP3   OH2 6947   3.695   0.894   1.826
 2314TIP3    H1 6948   3.727   0.821   1.878
 2314TIP3    H2 6949   3.621   0.857   1.776
 2315TIP3   OH2 6950   1.688   1.008   1.033
 2315TIP3    H1 6951   1.651   1.091   1.064
 2315TIP3    H2 6952   1.660   1.003   0.942
 2316TIP3   OH2 6953   1.491   5.086   0.899
 2316TIP3    H1 6954   1.461   5.173   0.872
 2316TIP3    H2 6955   1.567   5.069   0.844
 2317TIP3   OH2 6956   4.974   0.199   1.405
 2317TIP3    H1 6957   5.017   0.130   1.354
 2317TIP3    H2 6958   4.936   0.257   1.339
 2318TIP3   OH2 6959   0.389   2.073   2.434
 2318TIP3    H1 6960   0.410   1.988   2.472
 2318TIP3    H2 6961   0.304   2.061   2.393
 2319TIP3   OH2 6962   1.369   5.443   3.345
 2319TIP3    H1 6963   1.282   5.479   3.328
 2319TIP3    H2 6964   1.392   5.398   3.263
 2320TIP3   OH2 6965   5.752   0.099   1.374
 2320TIP3    H1 6966   5.795   0.121   1.457
 2320TIP3    H2 6967   5.825   0.084   1.313
 2321TIP3   OH2 6968   0.601   3.160   1.400
 2321TIP3    H1 6969   0.614   3.204   1.316
 2321TIP3    H2 6970   0.512   3.124   1.395
 2322TIP3   OH2 6971   4.702   2.769   1.809
 2322TIP3    H1 6972   4.617   2.807   1.832
 2322TIP3    H2 6973   4.701   2.765   1.713
 2323TIP3   OH2 6974   4.579   2.547   1.945
 2323TIP3    H1 6975   4.639   2.611   1.906
 2323TIP3    H2 6976   4.636   2.479   1.979
 2324TIP3   OH2 6977   1.158   4.306   3.980
 2324TIP3    H1 6978   1.071   4.345   3.977
 2324TIP3    H2 6979   1.193   4.320   3.892
 2325TIP3   OH2 6980   2.074   0.385   1.872
 2325TIP3    H1 6981   1.991   0.337   1.865
 2325TIP3    H2 6982   2.049   0.476   1.857
 2326TIP3   OH2 6983   3.024   0.393   2.242
 2326TIP3    H1 6984   2.945   0.439   2.212
 2326TIP3    H2 6985   3.065   0.361   2.162
 2327TIP3   OH2 6986   0.855   3.359   4.117
 2327TIP3    H1 6987   0.884   3.279   4.160
 2327TIP3    H2 6988   0.774   3.382   4.162
 2328TIP3   OH2 6989   5.422   3.428   1.999
 2328TIP3    H1 6990   5.467   3.361   2.051
 2328TIP3    H2 6991   5.473   3.508   2.015
 2329TIP3   OH2 6992   0.816   5.765   2.600
 2329TIP3    H1 6993   0.878   5.825   2.560
 2329TIP3    H2 6994   0.865   5.722   2.670
 2330TIP3   OH2 6995   3.125   4.180   0.494
 2330TIP3    H1 6996   3.193   4.117   0.471
 2330TIP3    H2 6997   3.043   4.135   0.471
 2331TIP3   OH2 6998   3.532   5.732   5.116
 2331TIP3    H1 6999   3.513   5.669   5.186
 2331TIP3    H2 7000   3.529   5.680   5.035
 2332TIP3   OH2 7001   0.937   5.423   0.603
 2332TIP3    H1 7002   1.002   5.360   0.573
 2332TIP3    H2 7003   0.889   5.378   0.673
 2333TIP3   OH2 7004   1.136   4.062   1.946
 2333TIP3    H1 7005   1.062   4.071   2.007
 2333TIP3    H2 7006   1.129   3.973   1.912
 2334TIP3   OH2 7007   4.178   1.579   3.893
 2334TIP3    H1 7008   4.120   1.507   3.865
 2334TIP3    H2 7009   4.150   1.599   3.982
 2335TIP3   OH2 7010   2.498   5.936   0.491
 2335TIP3    H1 7011   2.430   5.901   0.549
 2335TIP3    H2 7012   2.510   5.868   0.425
 2336TIP3   OH2 7013   5.615   1.531   4.232
 2336TIP3    H1 7014   5.558   1.459   4.259
 2336TIP3    H2 7015   5.697   1.488   4.209
 2337TIP3   OH2 7016   5.649   4.408   1.848
 2337TIP3    H1 7017   5.599   4.473   1.797
 2337TIP3    H2 7018   5.727   4.456   1.877
 2338TIP3   OH2 7019   4.256   4.363   4.113
 2338TIP3    H1 7020   4.309   4.290   4.145
 2338TIP3    H2 7021   4.241   4.417   4.191
 2339TIP3   OH2 7022   3.726   3.163   4.741
 2339TIP3    H1 7023   3.687   3.199   4.662
 2339TIP3    H2 7024   3.669   3.090   4.765
 2340TIP3   OH2 7025   5.689   1.412   2.019
 2340TIP3    H1 7026   5.761   1.356   1.989
 2340TIP3    H2 7027   5.694   1.490   1.964
 2341TIP3   OH2 7028   5.654   5.260   1.586
 2341TIP3    H1 7029   5.564   5.228   1.586
 2341TIP3    H2 7030   5.662   5.309   1.668
 2342TIP3   OH2 7031   0.789   1.409   1.521
 2342TIP3    H1 7032   0.810   1.452   1.604
 2342TIP3    H2 7033   0.693   1.411   1.517
 2343TIP3   OH2 7034   4.695   0.207   4.929
 2343TIP3    H1 7035   4.712   0.160   4.847
 2343TIP3    H2 7036   4.645   0.285   4.901
 2344TIP3   OH2 7037   4.732   3.638   4.118
 2344TIP3    H1 7038   4.749   3.732   4.115
 2344TIP3    H2 7039   4.692   3.617   4.034
 2345TIP3   OH2 7040   2.036   3.505   2.652
 2345TIP3    H1 7041   2.047   3.465   2.566
 2345TIP3    H2 7042   1.941   3.520   2.659
 2346TIP3   OH2 7043   4.523   3.996   5.114
 2346TIP3    H1 7044   4.503   4.085   5.084
 2346TIP3    H2 7045   4.437   3.957   5.133
 2347TIP3   OH2 7046   4.543   3.349   2.603
 2347TIP3    H1 7047   4.528   3.443   2.591
 2347TIP3    H2 7048   4.506   3.309   2.524
 2348TIP3   OH2 7049   1.359   2.306   1.928
 2348TIP3    H1 7050   1.411   2.284   2.005
 2348TIP3    H2 7051   1.334   2.398   1.942
 2349TIP3   OH2 7052   4.331   0.813   1.899
 2349TIP3    H1 7053   4.379   0.850   1.826
 2349TIP3    H2 7054   4.270   0.882   1.925
 2350TIP3   OH2 7055   4.825   3.072   4.813
 2350TIP3    H1 7056   4.849   3.153   4.858
 2350TIP3    H2 7057   4.865   3.081   4.726
 2351TIP3   OH2 7058   3.658   5.036   4.122
 2351TIP3    H1 7059   3.719   5.059   4.192
 2351TIP3    H2 7060   3.575   5.022   4.166
 2352TIP3   OH2 7061   1.079   3.566   5.099
 2352TIP3    H1 7062   1.171   3.561   5.126
 2352TIP3    H2 7063   1.047   3.648   5.137
 2353TIP3   OH2 7064   4.612   3.856   4.715
 2353TIP3    H1 7065   4.564   3.788   4.762
 2353TIP3    H2 7066   4.665   3.899   4.783
 2354TIP3   OH2 7067   2.201   0.633   3.818
 2354TIP3    H1 7068   2.181   0.540   3.819
 2354TIP3    H2 7069   2.131   0.673   3.870
 2355TIP3   OH2 7070   4.852   2.129   3.100
 2355TIP3    H1 7071   4.872   2.121   3.007
 2355TIP3    H2 7072   4.864   2.222   3.120
 2356TIP3   OH2 7073   0.438   2.004   4.770
 2356TIP3    H1 7074   0.419   2.097   4.779
 2356TIP3    H2 7075   0.529   1.996   4.800
 2357TIP3   OH2 7076   5.190   4.610   4.868
 2357TIP3    H1 7077   5.205   4.704   4.862
 2357TIP3    H2 7078   5.191   4.590   4.961
 2358TIP3   OH2 7079   4.699   2.316   1.314
 2358TIP3    H1 7080   4.616   2.328   1.268
 2358TIP3    H2 7081   4.765   2.315   1.246
 2359TIP3   OH2 7082   1.305   1.289   0.732
 2359TIP3    H1 7083   1.216   1.324   0.734
 2359TIP3    H2 7084   1.315   1.256   0.642
 2360TIP3   OH2 7085   3.511   0.301   4.742
 2360TIP3    H1 7086   3.460   0.226   4.772
 2360TIP3    H2 7087   3.532   0.350   4.821
 2361TIP3   OH2 7088   1.003   3.273   0.710
 2361TIP3    H1 7089   0.937   3.234   0.652
 2361TIP3    H2 7090   1.068   3.204   0.722
 2362TIP3   OH2 7091   1.708   5.116   4.531
 2362TIP3    H1 7092   1.708   5.038   4.476
 2362TIP3    H2 7093   1.650   5.177   4.487
 2363TIP3   OH2 7094   1.685   5.532   0.475
 2363TIP3    H1 7095   1.671   5.530   0.380
 2363TIP3    H2 7096   1.680   5.625   0.498
 2364TIP3   OH2 7097   1.846   5.570   3.608
 2364TIP3    H1 7098   1.818   5.621   3.684
 2364TIP3    H2 7099   1.766   5.558   3.557
 2365TIP3   OH2 7100   1.841   1.274   4.910
 2365TIP3    H1 7101   1.804   1.222   4.838
 2365TIP3    H2 7102   1.804   1.236   4.989
 2366TIP3   OH2 7103   3.882   4.018   4.937
 2366TIP3    H1 7104   3.944   4.082   4.903
 2366TIP3    H2 7105   3.802   4.033   4.888
 2367TIP3   OH2 7106   0.317   2.011   0.173
 2367TIP3    H1 7107   0.305   2.008   0.079
 2367TIP3    H2 7108   0.406   1.977   0.187
 2368TIP3   OH2 7109   1.273   1.572   1.896
 2368TIP3    H1 7110   1.364   1.549   1.882
 2368TIP3    H2 7111   1.265   1.660   1.860
 2369TIP3   OH2 7112   2.433   0.478   2.865
 2369TIP3    H1 7113   2.373   0.445   2.932
 2369TIP3    H2 7114   2.518   0.482   2.908
 2370TIP3   OH2 7115   0.090   3.675   1.927
 2370TIP3    H1 7116   0.129   3.596   1.888
 2370TIP3    H2 7117  -0.002   3.670   1.903
 2371TIP3   OH2 7118   5.778   2.463   3.427
 2371TIP3    H1 7119   5.768   2.444   3.334
 2371TIP3    H2 7120   5.861   2.421   3.450
 2372TIP3   OH2 7121   0.099   1.500   3.293
 2372TIP3    H1 7122   0.084   1.589   3.263
 2372TIP3    H2 7123   0.191   1.484   3.274
 2373TIP3   OH2 7124   3.633   4.868   5.026
 2373TIP3    H1 7125   3.538   4.854   5.027
 2373TIP3    H2 7126   3.648   4.918   4.945
 2374TIP3   OH2 7127   5.962   0.990   4.284
 2374TIP3    H1 7128   5.951   0.897   4.265
 2374TIP3    H2 7129   6.027   1.020   4.220
 2375TIP3   OH2 7130   1.281   0.802   4.099
 2375TIP3    H1 7131   1.201   0.755   4.079
 2375TIP3    H2 7132   1.290   0.797   4.194
 2376TIP3   OH2 7133   3.412   2.219   1.149
 2376TIP3    H1 7134   3.401   2.300   1.101
 2376TIP3    H2 7135   3.378   2.151   1.090
 2377TIP3   OH2 7136   5.088   5.362   1.672
 2377TIP3    H1 7137   5.074   5.268   1.669
 2377TIP3    H2 7138   5.111   5.380   1.764
 2378TIP3   OH2 7139   4.534   1.921   4.832
 2378TIP3    H1 7140   4.567   2.008   4.811
 2378TIP3    H2 7141   4.556   1.909   4.925
 2379TIP3   OH2 7142   4.417   3.078   3.326
 2379TIP3    H1 7143   4.403   3.013   3.395
 2379TIP3    H2 7144   4.330   3.093   3.289
 2380TIP3   OH2 7145   1.600   4.481   0.068
 2380TIP3    H1 7146   1.615   4.409   0.129
 2380TIP3    H2 7147   1.681   4.489   0.019
 2381TIP3   OH2 7148   0.337   5.787   4.470
 2381TIP3    H1 7149   0.298   5.820   4.550
 2381TIP3    H2 7150   0.420   5.833   4.462
 2382TIP3   OH2 7151   3.490   1.644   0.393
 2382TIP3    H1 7152   3.518   1.564   0.436
 2382TIP3    H2 7153   3.559   1.662   0.329
 2383TIP3   OH2 7154   2.005   4.245   0.015
 2383TIP3    H1 7155   1.947   4.176   0.047
 2383TIP3    H2 7156   2.065   4.262   0.087
 2384TIP3   OH2 7157   5.629   0.560   1.782
 2384TIP3    H1 7158   5.690   0.513   1.725
 2384TIP3    H2 7159   5.641   0.519   1.868
 2385TIP3   OH2 7160   0.581   0.716   2.103
 2385TIP3    H1 7161   0.642   0.679   2.039
 2385TIP3    H2 7162   0.552   0.798   2.064
 2386TIP3   OH2 7163   6.019   3.755   0.381
 2386TIP3    H1 7164   6.000   3.728   0.292
 2386TIP3    H2 7165   5.957   3.826   0.399
 2387TIP3   OH2 7166   4.658   2.097   4.096
 2387TIP3    H1 7167   4.592   2.088   4.164
 2387TIP3    H2 7168   4.636   2.029   4.032
 2388TIP3   OH2 7169   2.996   2.445   4.550
 2388TIP3    H1 7170   2.951   2.529   4.558
 2388TIP3    H2 7171   2.925   2.381   4.537
 2389TIP3   OH2 7172   0.707   4.374   3.667
 2389TIP3    H1 7173   0.616   4.401   3.654
 2389TIP3    H2 7174   0.742   4.439   3.727
 2390TIP3   OH2 7175   3.552   4.630   4.843
 2390TIP3    H1 7176   3.521   4.559   4.787
 2390TIP3    H2 7177   3.554   4.707   4.785
 2391TIP3   OH2 7178   1.256   0.764   4.385
 2391TIP3    H1 7179   1.272   0.815   4.465
 2391TIP3    H2 7180   1.205   0.689   4.414
 2392TIP3   OH2 7181   3.901   1.384   1.802
 2392TIP3    H1 7182   3.875   1.408   1.713
 2392TIP3    H2 7183   3.828   1.332   1.835
 2393TIP3   OH2 7184   2.381   3.891   0.690
 2393TIP3    H1 7185   2.343   3.840   0.618
 2393TIP3    H2 7186   2.403   3.826   0.757
 2394TIP3   OH2 7187   3.309   5.574   0.680
 2394TIP3    H1 7188   3.334   5.635   0.750
 2394TIP3    H2 7189   3.215   5.562   0.690
 2395TIP3   OH2 7190   0.554   1.692   1.892
 2395TIP3    H1 7191   0.569   1.629   1.821
 2395TIP3    H2 7192   0.596   1.773   1.861
 2396TIP3   OH2 7193   1.347   3.334   2.915
 2396TIP3    H1 7194   1.372   3.259   2.860
 2396TIP3    H2 7195   1.332   3.296   3.001
 2397TIP3   OH2 7196   2.087   4.174   2.363
 2397TIP3    H1 7197   2.038   4.103   2.322
 2397TIP3    H2 7198   2.021   4.234   2.395
 2398TIP3   OH2 7199   4.369   4.896   5.167
 2398TIP3    H1 7200   4.277   4.906   5.141
 2398TIP3    H2 7201   4.402   4.986   5.171
 2399TIP3   OH2 7202   2.204   5.881   2.801
 2399TIP3    H1 7203   2.149   5.959   2.806
 2399TIP3    H2 7204   2.241   5.884   2.712
 2400TIP3   OH2 7205   5.954   2.615   2.577
 2400TIP3    H1 7206   5.872   2.584   2.538
 2400TIP3    H2 7207   5.969   2.558   2.652
 2401TIP3   OH2 7208   0.839   2.266   4.609
 2401TIP3    H1 7209   0.793   2.337   4.655
 2401TIP3    H2 7210   0.923   2.260   4.655
 2402TIP3   OH2 7211   2.216   5.594   0.451
 2402TIP3    H1 7212   2.122   5.578   0.454
 2402TIP3    H2 7213   2.227   5.665   0.388
 2403TIP3   OH2 7214   3.051   5.636   3.692
 2403TIP3    H1 7215   3.007   5.556   3.661
 2403TIP3    H2 7216   2.984   5.704   3.683
 2404TIP3   OH2 7217   6.313   3.519   5.016
 2404TIP3    H1 7218   6.349   3.556   4.935
 2404TIP3    H2 7219   6.219   3.517   5.001
 2405TIP3   OH2 7220   1.936   3.851   1.661
 2405TIP3    H1 7221   1.915   3.772   1.610
 2405TIP3    H2 7222   1.946   3.819   1.751
 2406TIP3   OH2 7223   0.789   0.109   1.614
 2406TIP3    H1 7224   0.756   0.121   1.703
 2406TIP3    H2 7225   0.881   0.136   1.619
 2407TIP3   OH2 7226   2.478   0.927   1.212
 2407TIP3    H1 7227   2.517   0.893   1.292
 2407TIP3    H2 7228   2.388   0.948   1.236
 2408TIP3   OH2 7229   1.323   4.877   2.149
 2408TIP3    H1 7230   1.319   4.935   2.226
 2408TIP3    H2 7231   1.402   4.906   2.103
 2409TIP3   OH2 7232   1.818   0.321   5.101
 2409TIP3    H1 7233   1.758   0.273   5.157
 2409TIP3    H2 7234   1.870   0.253   5.057
 2410TIP3   OH2 7235   2.056   5.413   5.150
 2410TIP3    H1 7236   2.006   5.481   5.105
 2410TIP3    H2 7237   1.998   5.384   5.222
 2411TIP3   OH2 7238   4.803   3.993   1.565
 2411TIP3    H1 7239   4.829   3.902   1.551
 2411TIP3    H2 7240   4.802   4.003   1.661
 2412TIP3   OH2 7241   1.430   2.720   0.891
 2412TIP3    H1 7242   1.522   2.739   0.874
 2412TIP3    H2 7243   1.407   2.776   0.966
 2413TIP3   OH2 7244   0.528   3.797   5.016
 2413TIP3    H1 7245   0.476   3.749   4.952
 2413TIP3    H2 7246   0.594   3.734   5.045
 2414TIP3   OH2 7247   5.614   4.129   2.668
 2414TIP3    H1 7248   5.683   4.195   2.669
 2414TIP3    H2 7249   5.610   4.100   2.577
 2415TIP3   OH2 7250   2.585   3.862   2.643
 2415TIP3    H1 7251   2.656   3.892   2.587
 2415TIP3    H2 7252   2.528   3.938   2.652
 2416TIP3   OH2 7253   2.555   2.831   5.002
 2416TIP3    H1 7254   2.606   2.753   4.980
 2416TIP3    H2 7255   2.501   2.804   5.077
 2417TIP3   OH2 7256   0.572   5.361   5.072
 2417TIP3    H1 7257   0.550   5.454   5.074
 2417TIP3    H2 7258   0.562   5.331   5.162
 2418TIP3   OH2 7259   3.731   1.141   1.911
 2418TIP3    H1 7260   3.681   1.170   1.987
 2418TIP3    H2 7261   3.708   1.049   1.900
 2419TIP3   OH2 7262   4.602   1.843   4.032
 2419TIP3    H1 7263   4.646   1.797   4.103
 2419TIP3    H2 7264   4.518   1.799   4.023
 2420TIP3   OH2 7265   4.656   3.424   0.990
 2420TIP3    H1 7266   4.713   3.493   1.025
 2420TIP3    H2 7267   4.682   3.418   0.898
 2421TIP3   OH2 7268   5.828   1.806   1.515
 2421TIP3    H1 7269   5.858   1.896   1.503
 2421TIP3    H2 7270   5.802   1.778   1.427
 2422TIP3   OH2 7271   3.869   2.227   4.305
 2422TIP3    H1 7272   3.854   2.224   4.211
 2422TIP3    H2 7273   3.935   2.294   4.317
 2423TIP3   OH2 7274   0.712   3.438   3.361
 2423TIP3    H1 7275   0.798   3.476   3.341
 2423TIP3    H2 7276   0.726   3.344   3.360
 2424TIP3   OH2 7277   0.968   3.614   1.775
 2424TIP3    H1 7278   1.010   3.528   1.765
 2424TIP3    H2 7279   0.946   3.641   1.686
 2425TIP3   OH2 7280   4.510   1.756   0.254
 2425TIP3    H1 7281   4.523   1.666   0.227
 2425TIP3    H2 7282   4.577   1.771   0.321
 2426TIP3   OH2 7283   1.924   4.824   3.086
 2426TIP3    H1 7284   1.845   4.776   3.107
 2426TIP3    H2 7285   1.978   4.762   3.037
 2427TIP3   OH2 7286   3.908   4.463   1.982
 2427TIP3    H1 7287   3.961   4.481   1.904
 2427TIP3    H2 7288   3.881   4.372   1.972
 2428TIP3   OH2 7289   5.408   4.110   0.660
 2428TIP3    H1 7290   5.342   4.096   0.728
 2428TIP3    H2 7291   5.486   4.138   0.708
 2429TIP3   OH2 7292   2.154   4.987   3.481
 2429TIP3    H1 7293   2.213   4.968   3.554
 2429TIP3    H2 7294   2.067   4.996   3.521
 2430TIP3   OH2 7295   4.940   3.228   3.271
 2430TIP3    H1 7296   4.955   3.251   3.180
 2430TIP3    H2 7297   4.880   3.295   3.304
 2431TIP3   OH2 7298   1.410   5.188   4.528
 2431TIP3    H1 7299   1.470   5.262   4.539
 2431TIP3    H2 7300   1.328   5.228   4.500
 2432TIP3   OH2 7301   5.301   3.392   1.269
 2432TIP3    H1 7302   5.284   3.414   1.360
 2432TIP3    H2 7303   5.219   3.352   1.239
 2433TIP3   OH2 7304   1.382   5.889   0.495
 2433TIP3    H1 7305   1.432   5.920   0.420
 2433TIP3    H2 7306   1.377   5.794   0.485
 2434TIP3   OH2 7307   2.995   3.466   3.392
 2434TIP3    H1 7308   3.077   3.433   3.429
 2434TIP3    H2 7309   3.004   3.453   3.298
 2435TIP3   OH2 7310   5.948   3.092   0.323
 2435TIP3    H1 7311   5.986   3.061   0.241
 2435TIP3    H2 7312   5.924   3.183   0.304
 2436TIP3   OH2 7313   6.193   1.030   4.114
 2436TIP3    H1 7314   6.233   1.084   4.046
 2436TIP3    H2 7315   6.235   0.944   4.104
 2437TIP3   OH2 7316   0.055   2.821   0.937
 2437TIP3    H1 7317   0.106   2.859   0.865
 2437TIP3    H2 7318   0.100   2.739   0.959
 2438TIP3   OH2 7319   5.280   3.316   0.134
 2438TIP3    H1 7320   5.310   3.406   0.140
 2438TIP3    H2 7321   5.333   3.269   0.200
 2439TIP3   OH2 7322   3.274   5.358   2.718
 2439TIP3    H1 7323   3.339   5.346   2.787
 2439TIP3    H2 7324   3.317   5.329   2.638
 2440TIP3   OH2 7325   4.454   5.533   3.807
 2440TIP3    H1 7326   4.413   5.556   3.891
 2440TIP3    H2 7327   4.402   5.458   3.776
 2441TIP3   OH2 7328   1.114   4.746   2.641
 2441TIP3    H1 7329   1.082   4.661   2.611
 2441TIP3    H2 7330   1.043   4.782   2.693
 2442TIP3   OH2 7331   1.818   3.354   2.092
 2442TIP3    H1 7332   1.735   3.321   2.126
 2442TIP3    H2 7333   1.834   3.302   2.013
 2443TIP3   OH2 7334   5.692   3.501   1.121
 2443TIP3    H1 7335   5.611   3.457   1.144
 2443TIP3    H2 7336   5.675   3.539   1.034
 2444TIP3   OH2 7337   4.941   3.336   2.739
 2444TIP3    H1 7338   4.888   3.297   2.669
 2444TIP3    H2 7339   5.002   3.394   2.692
 2445TIP3   OH2 7340   0.196   1.024   0.669
 2445TIP3    H1 7341   0.264   1.072   0.717
 2445TIP3    H2 7342   0.173   0.952   0.727
 2446TIP3   OH2 7343   0.602   3.733   2.584
 2446TIP3    H1 7344   0.528   3.716   2.642
 2446TIP3    H2 7345   0.628   3.646   2.552
 2447TIP3   OH2 7346   2.132   2.547   1.034
 2447TIP3    H1 7347   2.137   2.549   0.938
 2447TIP3    H2 7348   2.169   2.463   1.058
 2448TIP3   OH2 7349   1.829   2.674   0.636
 2448TIP3    H1 7350   1.861   2.645   0.551
 2448TIP3    H2 7351   1.860   2.765   0.644
 2449TIP3   OH2 7352   5.676   3.727   0.311
 2449TIP3    H1 7353   5.607   3.788   0.284
 2449TIP3    H2 7354   5.699   3.680   0.230
 2450TIP3   OH2 7355   3.265   2.681   0.614
 2450TIP3    H1 7356   3.176   2.647   0.606
 2450TIP3    H2 7357   3.263   2.733   0.695
 2451TIP3   OH2 7358   3.602   5.446   4.840
 2451TIP3    H1 7359   3.686   5.448   4.886
 2451TIP3    H2 7360   3.577   5.538   4.829
 2452TIP3   OH2 7361   0.864   4.887   4.622
 2452TIP3    H1 7362   0.804   4.813   4.635
 2452TIP3    H2 7363   0.849   4.944   4.698
 2453TIP3   OH2 7364   2.567   1.431   4.304
 2453TIP3    H1 7365   2.509   1.506   4.316
 2453TIP3    H2 7366   2.646   1.468   4.266
 2454TIP3   OH2 7367   0.784   0.356   0.769
 2454TIP3    H1 7368   0.762   0.434   0.718
 2454TIP3    H2 7369   0.870   0.375   0.806
 2455TIP3   OH2 7370   3.714   4.143   2.620
 2455TIP3    H1 7371   3.701   4.059   2.665
 2455TIP3    H2 7372   3.625   4.171   2.596
 2456TIP3   OH2 7373   5.929   1.380   3.470
 2456TIP3    H1 7374   5.943   1.335   3.554
 2456TIP3    H2 7375   6.014   1.417   3.448
 2457TIP3   OH2 7376   5.073   4.675   3.891
 2457TIP3    H1 7377   5.002   4.633   3.940
 2457TIP3    H2 7378   5.033   4.755   3.856
 2458TIP3   OH2 7379   4.518   0.562   2.468
 2458TIP3    H1 7380   4.582   0.582   2.399
 2458TIP3    H2 7381   4.442   0.615   2.447
 2459TIP3   OH2 7382   4.296   1.557   0.164
 2459TIP3    H1 7383   4.284   1.462   0.165
 2459TIP3    H2 7384   4.386   1.571   0.193
 2460TIP3   OH2 7385   3.319   3.567   3.998
 2460TIP3    H1 7386   3.326   3.655   4.034
 2460TIP3    H2 7387   3.407   3.545   3.970
 2461TIP3   OH2 7388   4.862   5.480   4.240
 2461TIP3    H1 7389   4.827   5.530   4.166
 2461TIP3    H2 7390   4.897   5.400   4.200
 2462TIP3   OH2 7391   0.798   0.841   2.328
 2462TIP3    H1 7392   0.797   0.841   2.233
 2462TIP3    H2 7393   0.854   0.767   2.352
 2463TIP3   OH2 7394   4.167   3.564   1.133
 2463TIP3    H1 7395   4.193   3.527   1.049
 2463TIP3    H2 7396   4.093   3.511   1.160
 2464TIP3   OH2 7397   0.871   4.329   1.872
 2464TIP3    H1 7398   0.834   4.414   1.846
 2464TIP3    H2 7399   0.856   4.325   1.966
 2465TIP3   OH2 7400   0.942   1.730   4.722
 2465TIP3    H1 7401   0.954   1.737   4.817
 2465TIP3    H2 7402   0.993   1.803   4.686
 2466TIP3   OH2 7403   3.118   2.497   1.123
 2466TIP3    H1 7404   3.096   2.577   1.076
 2466TIP3    H2 7405   3.183   2.454   1.068
 2467TIP3   OH2 7406   3.801   0.138   1.260
 2467TIP3    H1 7407   3.776   0.054   1.222
 2467TIP3    H2 7408   3.813   0.195   1.184
 2468TIP3   OH2 7409   0.079   5.083   4.470
 2468TIP3    H1 7410   0.063   5.128   4.553
 2468TIP3    H2 7411   0.006   5.109   4.414
 2469TIP3   OH2 7412   2.764   5.196   2.360
 2469TIP3    H1 7413   2.789   5.187   2.268
 2469TIP3    H2 7414   2.845   5.219   2.405
 2470TIP3   OH2 7415   1.356   1.288   2.046
 2470TIP3    H1 7416   1.393   1.360   1.995
 2470TIP3    H2 7417   1.380   1.210   1.997
 2471TIP3   OH2 7418   2.425   1.252   3.282
 2471TIP3    H1 7419   2.344   1.279   3.327
 2471TIP3    H2 7420   2.485   1.325   3.296
 2472TIP3   OH2 7421   2.592   1.422   3.965
 2472TIP3    H1 7422   2.681   1.433   3.998
 2472TIP3    H2 7423   2.581   1.327   3.957
 2473TIP3   OH2 7424   4.644   0.208   3.962
 2473TIP3    H1 7425   4.591   0.138   3.925
 2473TIP3    H2 7426   4.714   0.222   3.898
 2474TIP3   OH2 7427   4.072   4.952   3.639
 2474TIP3    H1 7428   4.094   4.968   3.547
 2474TIP3    H2 7429   4.102   5.031   3.684
 2475TIP3   OH2 7430   5.329   2.647   1.886
 2475TIP3    H1 7431   5.338   2.700   1.965
 2475TIP3    H2 7432   5.314   2.558   1.917
 2476TIP3   OH2 7433   1.997   5.750   3.084
 2476TIP3    H1 7434   2.087   5.727   3.058
 2476TIP3    H2 7435   1.989   5.718   3.174
 2477TIP3   OH2 7436   1.953   2.109   2.731
 2477TIP3    H1 7437   1.976   2.031   2.781
 2477TIP3    H2 7438   1.962   2.181   2.794
 2478TIP3   OH2 7439   1.645   3.960   1.694
 2478TIP3    H1 7440   1.685   3.889   1.744
 2478TIP3    H2 7441   1.551   3.952   1.713
 2479TIP3   OH2 7442   4.112   4.993   3.355
 2479TIP3    H1 7443   4.125   5.025   3.266
 2479TIP3    H2 7444   4.160   5.054   3.411
 2480TIP3   OH2 7445   2.673   3.925   0.633
 2480TIP3    H1 7446   2.631   3.944   0.717
 2480TIP3    H2 7447   2.610   3.957   0.568
 2481TIP3   OH2 7448   3.661   2.172   5.050
 2481TIP3    H1 7449   3.653   2.264   5.073
 2481TIP3    H2 7450   3.572   2.143   5.034
 2482TIP3   OH2 7451   0.076   1.070   2.771
 2482TIP3    H1 7452   0.081   1.004   2.701
 2482TIP3    H2 7453   0.111   1.150   2.730
 2483TIP3   OH2 7454   1.949   5.391   3.984
 2483TIP3    H1 7455   1.899   5.319   3.947
 2483TIP3    H2 7456   1.888   5.436   4.043
 2484TIP3   OH2 7457   4.395   5.430   0.258
 2484TIP3    H1 7458   4.415   5.382   0.339
 2484TIP3    H2 7459   4.473   5.482   0.241
 2485TIP3   OH2 7460   2.371   1.020   2.746
 2485TIP3    H1 7461   2.462   1.002   2.722
 2485TIP3    H2 7462   2.377   1.077   2.823
 2486TIP3   OH2 7463   1.023   2.624   1.700
 2486TIP3    H1 7464   1.018   2.572   1.779
 2486TIP3    H2 7465   0.959   2.585   1.641
 2487TIP3   OH2 7466   1.694   0.373   2.419
 2487TIP3    H1 7467   1.599   0.377   2.434
 2487TIP3    H2 7468   1.703   0.360   2.325
 2488TIP3   OH2 7469   2.813   4.867   1.885
 2488TIP3    H1 7470   2.732   4.907   1.917
 2488TIP3    H2 7471   2.879   4.888   1.951
 2489TIP3   OH2 7472   5.365   4.619   3.515
 2489TIP3    H1 7473   5.430   4.550   3.505
 2489TIP3    H2 7474   5.417   4.700   3.515
 2490TIP3   OH2 7475   1.644   3.213   4.710
 2490TIP3    H1 7476   1.582   3.186   4.778
 2490TIP3    H2 7477   1.716   3.151   4.717
 2491TIP3   OH2 7478   2.636   0.856   3.959
 2491TIP3    H1 7479   2.566   0.791   3.967
 2491TIP3    H2 7480   2.716   0.809   3.983
 2492TIP3   OH2 7481   4.725   0.612   2.299
 2492TIP3    H1 7482   4.764   0.697   2.316
 2492TIP3    H2 7483   4.776   0.576   2.226
 2493TIP3   OH2 7484   2.703   3.335   3.343
 2493TIP3    H1 7485   2.679   3.424   3.317
 2493TIP3    H2 7486   2.770   3.346   3.410
 2494TIP3   OH2 7487   0.562   4.962   1.440
 2494TIP3    H1 7488   0.476   4.921   1.439
 2494TIP3    H2 7489   0.593   4.956   1.350
 2495TIP3   OH2 7490   5.808   1.243   4.974
 2495TIP3    H1 7491   5.752   1.277   4.905
 2495TIP3    H2 7492   5.874   1.311   4.988
 2496TIP3   OH2 7493   1.848   3.101   0.020
 2496TIP3    H1 7494   1.825   3.191   0.046
 2496TIP3    H2 7495   1.767   3.051   0.033
 2497TIP3   OH2 7496   2.380   5.295   2.919
 2497TIP3    H1 7497   2.380   5.355   2.993
 2497TIP3    H2 7498   2.325   5.221   2.947
 2498TIP3   OH2 7499   5.539   2.727   1.724
 2498TIP3    H1 7500   5.467   2.681   1.767
 2498TIP3    H2 7501   5.581   2.660   1.671
 2499TIP3   OH2 7502   2.072   3.966   0.744
 2499TIP3    H1 7503   2.154   3.915   0.741
 2499TIP3    H2 7504   2.004   3.902   0.726
 2500TIP3   OH2 7505   4.579   0.256   2.531
 2500TIP3    H1 7506   4.604   0.345   2.554
 2500TIP3    H2 7507   4.554   0.216   2.615
 2501TIP3   OH2 7508   1.551   5.303   4.895
 2501TIP3    H1 7509   1.622   5.248   4.862
 2501TIP3    H2 7510   1.490   5.311   4.821
 2502TIP3   OH2 7511   0.768   1.801   4.013
 2502TIP3    H1 7512   0.849   1.752   3.999
 2502TIP3    H2 7513   0.780   1.842   4.099
 2503TIP3   OH2 7514   3.294   4.576   1.408
 2503TIP3    H1 7515   3.279   4.652   1.351
 2503TIP3    H2 7516   3.378   4.595   1.451
 2504TIP3   OH2 7517   5.460   1.772   1.110
 2504TIP3    H1 7518   5.467   1.715   1.034
 2504TIP3    H2 7519   5.407   1.846   1.080
 2505TIP3   OH2 7520   2.869   5.040   3.161
 2505TIP3    H1 7521   2.869   4.958   3.210
 2505TIP3    H2 7522   2.945   5.034   3.103
 2506TIP3   OH2 7523   1.236   4.207   3.088
 2506TIP3    H1 7524   1.198   4.279   3.139
 2506TIP3    H2 7525   1.328   4.232   3.076
 2507TIP3   OH2 7526   3.922   4.040   0.705
 2507TIP3    H1 7527   3.902   4.110   0.766
 2507TIP3    H2 7528   3.841   3.989   0.699
 2508TIP3   OH2 7529   4.895   2.020   1.971
 2508TIP3    H1 7530   4.920   1.943   1.920
 2508TIP3    H2 7531   4.925   2.000   2.060
 2509TIP3   OH2 7532   4.528   0.167   3.097
 2509TIP3    H1 7533   4.572   0.127   3.022
 2509TIP3    H2 7534   4.524   0.098   3.163
 2510TIP3   OH2 7535   1.426   4.872   1.063
 2510TIP3    H1 7536   1.429   4.957   1.020
 2510TIP3    H2 7537   1.493   4.820   1.018
 2511TIP3   OH2 7538   0.819   4.522   2.830
 2511TIP3    H1 7539   0.833   4.468   2.752
 2511TIP3    H2 7540   0.726   4.545   2.827
 2512TIP3   OH2 7541   3.268   5.084   3.953
 2512TIP3    H1 7542   3.258   4.993   3.980
 2512TIP3    H2 7543   3.204   5.133   4.005
 2513TIP3   OH2 7544   1.961   3.058   1.091
 2513TIP3    H1 7545   1.889   3.083   1.032
 2513TIP3    H2 7546   1.940   3.102   1.173
 2514TIP3   OH2 7547   2.604   4.039   0.898
 2514TIP3    H1 7548   2.661   4.116   0.891
 2514TIP3    H2 7549   2.604   4.017   0.991
 2515TIP3   OH2 7550   6.250   3.622   1.577
 2515TIP3    H1 7551   6.333   3.633   1.530
 2515TIP3    H2 7552   6.228   3.529   1.565
 2516TIP3   OH2 7553   5.876   2.828   3.661
 2516TIP3    H1 7554   5.794   2.781   3.653
 2516TIP3    H2 7555   5.899   2.852   3.571
 2517TIP3   OH2 7556   5.040   2.790   0.784
 2517TIP3    H1 7557   5.048   2.832   0.870
 2517TIP3    H2 7558   5.057   2.697   0.802
 2518TIP3   OH2 7559   5.459   1.369   0.315
 2518TIP3    H1 7560   5.400   1.443   0.300
 2518TIP3    H2 7561   5.543   1.399   0.281
 2519TIP3   OH2 7562   4.884   3.648   4.334
 2519TIP3    H1 7563   4.920   3.559   4.332
 2519TIP3    H2 7564   4.809   3.645   4.275
 2520TIP3   OH2 7565   0.509   3.625   0.949
 2520TIP3    H1 7566   0.424   3.651   0.913
 2520TIP3    H2 7567   0.503   3.645   1.042
 2521TIP3   OH2 7568   1.716   2.042   4.913
 2521TIP3    H1 7569   1.696   1.951   4.935
 2521TIP3    H2 7570   1.801   2.038   4.869
 2522TIP3   OH2 7571   2.724   1.655   1.063
 2522TIP3    H1 7572   2.722   1.717   1.137
 2522TIP3    H2 7573   2.817   1.648   1.040
 2523TIP3   OH2 7574   1.810   3.371   1.074
 2523TIP3    H1 7575   1.902   3.369   1.050
 2523TIP3    H2 7576   1.767   3.413   0.999
 2524TIP3   OH2 7577   4.880   3.470   0.374
 2524TIP3    H1 7578   4.911   3.381   0.390
 2524TIP3    H2 7579   4.785   3.461   0.363
 2525TIP3   OH2 7580   4.033   0.042   0.488
 2525TIP3    H1 7581   3.987   0.034   0.572
 2525TIP3    H2 7582   4.121   0.010   0.506
 2526TIP3   OH2 7583   0.851   2.597   1.479
 2526TIP3    H1 7584   0.810   2.671   1.434
 2526TIP3    H2 7585   0.912   2.561   1.415
 2527TIP3   OH2 7586   1.297   2.302   3.073
 2527TIP3    H1 7587   1.327   2.288   2.983
 2527TIP3    H2 7588   1.360   2.254   3.127
 2528TIP3   OH2 7589   2.061   2.869   1.866
 2528TIP3    H1 7590   2.046   2.777   1.886
 2528TIP3    H2 7591   2.003   2.887   1.792
 2529TIP3   OH2 7592   5.738   3.955   3.544
 2529TIP3    H1 7593   5.789   3.923   3.618
 2529TIP3    H2 7594   5.777   3.912   3.468
 2530TIP3   OH2 7595   1.271   3.277   4.064
 2530TIP3    H1 7596   1.287   3.337   4.137
 2530TIP3    H2 7597   1.200   3.318   4.014
 2531TIP3   OH2 7598   5.942   0.081   2.787
 2531TIP3    H1 7599   5.874   0.148   2.801
 2531TIP3    H2 7600   6.001   0.120   2.723
 2532TIP3   OH2 7601   0.312   0.159   1.333
 2532TIP3    H1 7602   0.386   0.210   1.363
 2532TIP3    H2 7603   0.272   0.212   1.264
 2533TIP3   OH2 7604   5.716   4.176   1.679
 2533TIP3    H1 7605   5.666   4.225   1.744
 2533TIP3    H2 7606   5.674   4.197   1.596
 2534TIP3   OH2 7607   5.720   0.712   5.125
 2534TIP3    H1 7608   5.671   0.635   5.154
 2534TIP3    H2 7609   5.654   0.781   5.118
 2535TIP3   OH2 7610   2.583   4.053   0.372
 2535TIP3    H1 7611   2.573   4.002   0.292
 2535TIP3    H2 7612   2.560   4.142   0.347
 2536TIP3   OH2 7613   4.000   1.324   4.369
 2536TIP3    H1 7614   4.065   1.268   4.326
 2536TIP3    H2 7615   3.978   1.390   4.304
 2537TIP3   OH2 7616   6.220   2.045   4.784
 2537TIP3    H1 7617   6.310   2.011   4.779
 2537TIP3    H2 7618   6.215   2.109   4.714
 2538TIP3   OH2 7619   2.731   4.253   4.219
 2538TIP3    H1 7620   2.812   4.203   4.229
 2538TIP3    H2 7621   2.757   4.344   4.233
 2539TIP3   OH2 7622   2.238   1.549   0.449
 2539TIP3    H1 7623   2.204   1.595   0.372
 2539TIP3    H2 7624   2.170   1.485   0.470
 2540TIP3   OH2 7625   5.332   3.078   0.840
 2540TIP3    H1 7626   5.247   3.117   0.817
 2540TIP3    H2 7627   5.339   3.089   0.935
 2541TIP3   OH2 7628   1.280   5.486   2.754
 2541TIP3    H1 7629   1.203   5.457   2.705
 2541TIP3    H2 7630   1.280   5.582   2.745
 2542TIP3   OH2 7631   4.494   3.317   0.715
 2542TIP3    H1 7632   4.588   3.329   0.704
 2542TIP3    H2 7633   4.454   3.394   0.675
 2543TIP3   OH2 7634   5.585   0.856   2.145
 2543TIP3    H1 7635   5.639   0.861   2.224
 2543TIP3    H2 7636   5.621   0.924   2.088
 2544TIP3   OH2 7637   3.690   2.466   2.798
 2544TIP3    H1 7638   3.766   2.515   2.829
 2544TIP3    H2 7639   3.616   2.501   2.847
 2545TIP3   OH2 7640   0.727   2.196   0.785
 2545TIP3    H1 7641   0.680   2.261   0.733
 2545TIP3    H2 7642   0.742   2.240   0.869
 2546TIP3   OH2 7643   2.641   0.772   1.054
 2546TIP3    H1 7644   2.583   0.833   1.099
 2546TIP3    H2 7645   2.594   0.688   1.055
 2547TIP3   OH2 7646   5.647   1.752   2.775
 2547TIP3    H1 7647   5.610   1.691   2.840
 2547TIP3    H2 7648   5.633   1.838   2.814
 2548TIP3   OH2 7649   0.639   2.591   2.573
 2548TIP3    H1 7650   0.626   2.683   2.548
 2548TIP3    H2 7651   0.606   2.586   2.663
 2549TIP3   OH2 7652   1.585   0.903   2.988
 2549TIP3    H1 7653   1.511   0.858   3.029
 2549TIP3    H2 7654   1.571   0.995   3.008
 2550TIP3   OH2 7655   3.405   1.615   1.249
 2550TIP3    H1 7656   3.490   1.596   1.289
 2550TIP3    H2 7657   3.403   1.561   1.170
 2551TIP3   OH2 7658   1.652   4.995   4.282
 2551TIP3    H1 7659   1.624   5.087   4.284
 2551TIP3    H2 7660   1.576   4.947   4.250
 2552TIP3   OH2 7661   3.296   0.002   2.034
 2552TIP3    H1 7662   3.237  -0.036   2.100
 2552TIP3    H2 7663   3.372   0.030   2.084
 2553TIP3   OH2 7664   0.192   5.217   2.069
 2553TIP3    H1 7665   0.128   5.187   2.133
 2553TIP3    H2 7666   0.142   5.229   1.988
 2554TIP3   OH2 7667   2.375   0.627   0.027
 2554TIP3    H1 7668   2.454   0.649  -0.022
 2554TIP3    H2 7669   2.369   0.693   0.096
 2555TIP3   OH2 7670   4.902   5.319   1.108
 2555TIP3    H1 7671   4.866   5.310   1.020
 2555TIP3    H2 7672   4.929   5.231   1.132
 2556TIP3   OH2 7673   3.259   1.285   3.264
 2556TIP3    H1 7674   3.345   1.311   3.296
 2556TIP3    H2 7675   3.221   1.234   3.335
 2557TIP3   OH2 7676   6.040   4.949   5.020
 2557TIP3    H1 7677   6.083   4.925   5.102
 2557TIP3    H2 7678   5.952   4.911   5.028
 2558TIP3   OH2 7679   2.875   3.105   2.069
 2558TIP3    H1 7680   2.811   3.049   2.025
 2558TIP3    H2 7681   2.857   3.092   2.162
 2559TIP3   OH2 7682   5.451   2.716   3.157
 2559TIP3    H1 7683   5.446   2.798   3.207
 2559TIP3    H2 7684   5.383   2.725   3.090
 2560TIP3   OH2 7685   2.892   0.673   3.476
 2560TIP3    H1 7686   2.800   0.649   3.491
 2560TIP3    H2 7687   2.921   0.613   3.408
 2561TIP3   OH2 7688   3.104   2.430   3.904
 2561TIP3    H1 7689   3.097   2.448   3.810
 2561TIP3    H2 7690   3.057   2.502   3.945
 2562TIP3   OH2 7691   5.169   5.679   5.083
 2562TIP3    H1 7692   5.130   5.729   5.155
 2562TIP3    H2 7693   5.104   5.684   5.013
 2563TIP3   OH2 7694   3.721   1.384   3.496
 2563TIP3    H1 7695   3.808   1.406   3.463
 2563TIP3    H2 7696   3.710   1.291   3.474
 2564TIP3   OH2 7697   0.063   3.205   2.795
 2564TIP3    H1 7698   0.002   3.236   2.861
 2564TIP3    H2 7699   0.092   3.283   2.749
 2565TIP3   OH2 7700   1.287   4.747   1.523
 2565TIP3    H1 7701   1.340   4.747   1.602
 2565TIP3    H2 7702   1.313   4.667   1.476
 2566TIP3   OH2 7703   6.010   1.161   0.471
 2566TIP3    H1 7704   6.103   1.181   0.458
 2566TIP3    H2 7705   5.969   1.246   0.485
 2567TIP3   OH2 7706   5.604   4.190   2.014
 2567TIP3    H1 7707   5.510   4.176   2.002
 2567TIP3    H2 7708   5.625   4.262   1.954
 2568TIP3   OH2 7709   3.994   5.424   1.762
 2568TIP3    H1 7710   4.086   5.406   1.745
 2568TIP3    H2 7711   3.947   5.378   1.692
 2569TIP3   OH2 7712   5.760   1.639   3.268
 2569TIP3    H1 7713   5.752   1.724   3.226
 2569TIP3    H2 7714   5.821   1.590   3.213
 2570TIP3   OH2 7715   4.343   3.720   4.189
 2570TIP3    H1 7716   4.390   3.782   4.245
 2570TIP3    H2 7717   4.362   3.634   4.227
 2571TIP3   OH2 7718   4.430   1.916   2.434
 2571TIP3    H1 7719   4.448   1.832   2.393
 2571TIP3    H2 7720   4.501   1.973   2.405
 2572TIP3   OH2 7721   4.545   1.196   2.072
 2572TIP3    H1 7722   4.519   1.106   2.089
 2572TIP3    H2 7723   4.464   1.240   2.044
 2573TIP3   OH2 7724   0.174   2.685   2.951
 2573TIP3    H1 7725   0.232   2.629   2.900
 2573TIP3    H2 7726   0.127   2.624   3.008
 2574TIP3   OH2 7727   3.005   5.070   1.245
 2574TIP3    H1 7728   3.065   5.094   1.315
 2574TIP3    H2 7729   2.984   5.153   1.202
 2575TIP3   OH2 7730   4.686   4.954   5.098
 2575TIP3    H1 7731   4.619   5.005   5.053
 2575TIP3    H2 7732   4.673   4.865   5.067
 2576TIP3   OH2 7733   3.618   1.690   1.951
 2576TIP3    H1 7734   3.567   1.614   1.924
 2576TIP3    H2 7735   3.556   1.763   1.947
 2577TIP3   OH2 7736   6.380   4.686   1.301
 2577TIP3    H1 7737   6.311   4.670   1.365
 2577TIP3    H2 7738   6.381   4.781   1.291
 2578TIP3   OH2 7739   5.290   0.731   3.371
 2578TIP3    H1 7740   5.340   0.791   3.425
 2578TIP3    H2 7741   5.247   0.786   3.306
 2579TIP3   OH2 7742   4.728   4.017   4.499
 2579TIP3    H1 7743   4.669   3.965   4.554
 2579TIP3    H2 7744   4.815   4.003   4.536
 2580TIP3   OH2 7745   5.982   0.651   0.520
 2580TIP3    H1 7746   6.028   0.730   0.491
 2580TIP3    H2 7747   5.987   0.653   0.615
 2581TIP3   OH2 7748   5.246   1.779   0.671
 2581TIP3    H1 7749   5.165   1.825   0.648
 2581TIP3    H2 7750   5.314   1.846   0.669
 2582TIP3   OH2 7751   4.283   1.808   1.467
 2582TIP3    H1 7752   4.200   1.806   1.514
 2582TIP3    H2 7753   4.347   1.775   1.530
 2583TIP3   OH2 7754   1.038   3.029   3.884
 2583TIP3    H1 7755   1.017   3.123   3.889
 2583TIP3    H2 7756   0.954   2.986   3.872
 2584TIP3   OH2 7757   4.577   0.758   2.983
 2584TIP3    H1 7758   4.606   0.667   2.995
 2584TIP3    H2 7759   4.511   0.771   3.050
 2585TIP3   OH2 7760   5.390   1.307   1.073
 2585TIP3    H1 7761   5.394   1.399   1.099
 2585TIP3    H2 7762   5.396   1.309   0.977
 2586TIP3   OH2 7763   2.363   1.160   2.994
 2586TIP3    H1 7764   2.286   1.115   3.030
 2586TIP3    H2 7765   2.391   1.219   3.064
 2587TIP3   OH2 7766   0.680   1.340   5.161
 2587TIP3    H1 7767   0.717   1.356   5.074
 2587TIP3    H2 7768   0.756   1.344   5.220
 2588TIP3   OH2 7769   3.483   2.624   4.068
 2588TIP3    H1 7770   3.420   2.696   4.068
 2588TIP3    H2 7771   3.507   2.613   4.160
 2589TIP3   OH2 7772  -0.020   1.225   3.238
 2589TIP3    H1 7773   0.033   1.156   3.197
 2589TIP3    H2 7774   0.043   1.295   3.256
 2590TIP3   OH2 7775   0.747   3.465   2.981
 2590TIP3    H1 7776   0.714   3.459   2.891
 2590TIP3    H2 7777   0.744   3.375   3.013
 2591TIP3   OH2 7778   5.154   4.251   2.613
 2591TIP3    H1 7779   5.125   4.246   2.522
 2591TIP3    H2 7780   5.077   4.281   2.662
 2592TIP3   OH2 7781   4.908   4.056   2.631
 2592TIP3    H1 7782   4.868   4.100   2.557
 2592TIP3    H2 7783   4.949   3.978   2.594
 2593TIP3   OH2 7784   4.925   4.945   0.706
 2593TIP3    H1 7785   4.893   4.857   0.726
 2593TIP3    H2 7786   4.972   4.972   0.785
 2594TIP3   OH2 7787   2.569   4.970   0.585
 2594TIP3    H1 7788   2.643   5.017   0.622
 2594TIP3    H2 7789   2.527   5.032   0.526
 2595TIP3   OH2 7790   6.209   1.363   1.615
 2595TIP3    H1 7791   6.251   1.422   1.677
 2595TIP3    H2 7792   6.137   1.414   1.578
 2596TIP3   OH2 7793   4.213   5.280   2.018
 2596TIP3    H1 7794   4.216   5.240   1.930
 2596TIP3    H2 7795   4.202   5.206   2.077
 2597TIP3   OH2 7796   4.622   4.979   4.077
 2597TIP3    H1 7797   4.584   4.943   4.157
 2597TIP3    H2 7798   4.655   5.065   4.102
 2598TIP3   OH2 7799   4.943   0.805   3.841
 2598TIP3    H1 7800   4.942   0.715   3.811
 2598TIP3    H2 7801   4.856   0.819   3.879
 2599TIP3   OH2 7802   3.541   4.382   5.142
 2599TIP3    H1 7803   3.504   4.471   5.141
 2599TIP3    H2 7804   3.593   4.378   5.222
 2600TIP3   OH2 7805   0.239   0.773   4.379
 2600TIP3    H1 7806   0.292   0.820   4.443
 2600TIP3    H2 7807   0.272   0.683   4.381
 2601TIP3   OH2 7808   4.935   4.897   4.264
 2601TIP3    H1 7809   4.976   4.829   4.317
 2601TIP3    H2 7810   4.995   4.908   4.190
 2602TIP3   OH2 7811   3.380   3.723   0.628
 2602TIP3    H1 7812   3.353   3.685   0.711
 2602TIP3    H2 7813   3.476   3.726   0.633
 2603TIP3   OH2 7814   6.007   2.398   1.241
 2603TIP3    H1 7815   5.986   2.370   1.152
 2603TIP3    H2 7816   5.975   2.489   1.245
 2604TIP3   OH2 7817   1.062   5.665   4.602
 2604TIP3    H1 7818   1.014   5.582   4.603
 2604TIP3    H2 7819   0.997   5.729   4.570
 2605TIP3   OH2 7820   1.659   5.268   3.475
 2605TIP3    H1 7821   1.728   5.208   3.446
 2605TIP3    H2 7822   1.579   5.234   3.435
 2606TIP3   OH2 7823   1.849   5.003   3.866
 2606TIP3    H1 7824   1.758   4.998   3.896
 2606TIP3    H2 7825   1.883   4.915   3.878
 2607TIP3   OH2 7826   6.080   3.832   4.222
 2607TIP3    H1 7827   6.062   3.742   4.249
 2607TIP3    H2 7828   6.150   3.824   4.157
 2608TIP3   OH2 7829   4.780   1.175   2.194
 2608TIP3    H1 7830   4.702   1.125   2.173
 2608TIP3    H2 7831   4.768   1.259   2.149
 2609TIP3   OH2 7832   0.312   4.856   2.700
 2609TIP3    H1 7833   0.360   4.823   2.624
 2609TIP3    H2 7834   0.343   4.946   2.711
 2610TIP3   OH2 7835   5.387   3.817   2.500
 2610TIP3    H1 7836   5.317   3.752   2.501
 2610TIP3    H2 7837   5.461   3.771   2.460
 2611TIP3   OH2 7838   2.519   1.519   0.892
 2611TIP3    H1 7839   2.609   1.548   0.902
 2611TIP3    H2 7840   2.505   1.516   0.797
 2612TIP3   OH2 7841   3.317   1.629   3.994
 2612TIP3    H1 7842   3.318   1.719   4.027
 2612TIP3    H2 7843   3.389   1.586   4.039
 2613TIP3   OH2 7844   3.273   5.382   3.643
 2613TIP3    H1 7845   3.336   5.313   3.622
 2613TIP3    H2 7846   3.328   5.459   3.661
 2614TIP3   OH2 7847   4.785   1.127   0.685
 2614TIP3    H1 7848   4.819   1.164   0.767
 2614TIP3    H2 7849   4.861   1.085   0.645
 2615TIP3   OH2 7850   0.145   0.568   2.501
 2615TIP3    H1 7851   0.197   0.633   2.454
 2615TIP3    H2 7852   0.208   0.503   2.531
 2616TIP3   OH2 7853   5.783   4.345   3.262
 2616TIP3    H1 7854   5.808   4.369   3.172
 2616TIP3    H2 7855   5.851   4.383   3.317
 2617TIP3   OH2 7856   4.019   1.250   2.047
 2617TIP3    H1 7857   3.952   1.207   2.100
 2617TIP3    H2 7858   3.974   1.324   2.006
 2618TIP3   OH2 7859   0.324   4.660   2.898
 2618TIP3    H1 7860   0.347   4.704   2.980
 2618TIP3    H2 7861   0.305   4.732   2.837
 2619TIP3   OH2 7862   5.771   1.315   3.202
 2619TIP3    H1 7863   5.789   1.225   3.175
 2619TIP3    H2 7864   5.834   1.332   3.272
 2620TIP3   OH2 7865   2.918   0.003   0.793
 2620TIP3    H1 7866   2.904   0.035   0.883
 2620TIP3    H2 7867   2.904   0.080   0.739
 2621TIP3   OH2 7868   0.497   1.306   4.890
 2621TIP3    H1 7869   0.536   1.235   4.840
 2621TIP3    H2 7870   0.567   1.371   4.898
 2622TIP3   OH2 7871   4.586   3.251   2.307
 2622TIP3    H1 7872   4.531   3.183   2.347
 2622TIP3    H2 7873   4.574   3.238   2.213
 2623TIP3   OH2 7874   2.793   4.232   0.850
 2623TIP3    H1 7875   2.785   4.270   0.763
 2623TIP3    H2 7876   2.862   4.282   0.893
 2624TIP3   OH2 7877   5.776   5.383   4.948
 2624TIP3    H1 7878   5.867   5.364   4.969
 2624TIP3    H2 7879   5.781   5.460   4.891
 2625TIP3   OH2 7880   5.567   2.172   4.231
 2625TIP3    H1 7881   5.554   2.168   4.326
 2625TIP3    H2 7882   5.632   2.104   4.213
 2626TIP3   OH2 7883   5.233   0.299   4.958
 2626TIP3    H1 7884   5.304   0.241   4.985
 2626TIP3    H2 7885   5.206   0.266   4.872
 2627TIP3   OH2 7886   4.680   4.347   0.928
 2627TIP3    H1 7887   4.668   4.334   0.834
 2627TIP3    H2 7888   4.645   4.434   0.946
 2628TIP3   OH2 7889   3.165   3.025   0.638
 2628TIP3    H1 7890   3.215   2.974   0.702
 2628TIP3    H2 7891   3.232   3.064   0.582
 2629TIP3   OH2 7892   2.585   2.104   2.677
 2629TIP3    H1 7893   2.610   2.194   2.699
 2629TIP3    H2 7894   2.499   2.093   2.716
 2630TIP3   OH2 7895   5.413   1.780   3.465
 2630TIP3    H1 7896   5.328   1.787   3.421
 2630TIP3    H2 7897   5.394   1.734   3.547
 2631TIP3   OH2 7898   1.858   5.964   1.890
 2631TIP3    H1 7899   1.800   5.891   1.869
 2631TIP3    H2 7900   1.799   6.040   1.897
 2632TIP3   OH2 7901   0.368   2.622   4.339
 2632TIP3    H1 7902   0.272   2.629   4.337
 2632TIP3    H2 7903   0.394   2.638   4.248
 2633TIP3   OH2 7904   5.816   4.454   4.416
 2633TIP3    H1 7905   5.732   4.459   4.372
 2633TIP3    H2 7906   5.858   4.538   4.396
 2634TIP3   OH2 7907   1.884   4.436   4.778
 2634TIP3    H1 7908   1.913   4.354   4.737
 2634TIP3    H2 7909   1.841   4.408   4.859
 2635TIP3   OH2 7910   5.712   5.751   2.917
 2635TIP3    H1 7911   5.710   5.722   3.009
 2635TIP3    H2 7912   5.634   5.806   2.908
 2636TIP3   OH2 7913   0.769   2.409   4.100
 2636TIP3    H1 7914   0.863   2.393   4.092
 2636TIP3    H2 7915   0.758   2.445   4.188
 2637TIP3   OH2 7916   2.014   2.708   0.092
 2637TIP3    H1 7917   2.008   2.802   0.077
 2637TIP3    H2 7918   1.974   2.669   0.014
 2638TIP3   OH2 7919   4.705   3.418   3.899
 2638TIP3    H1 7920   4.729   3.467   3.821
 2638TIP3    H2 7921   4.682   3.331   3.867
 2639TIP3   OH2 7922   2.867   4.136   5.001
 2639TIP3    H1 7923   2.799   4.174   5.057
 2639TIP3    H2 7924   2.896   4.059   5.050
 2640TIP3   OH2 7925   3.133   3.377   2.361
 2640TIP3    H1 7926   3.157   3.384   2.454
 2640TIP3    H2 7927   3.124   3.283   2.346
 2641TIP3   OH2 7928   0.817   5.727   1.233
 2641TIP3    H1 7929   0.810   5.800   1.172
 2641TIP3    H2 7930   0.740   5.674   1.216
 2642TIP3   OH2 7931   3.141   0.019   3.731
 2642TIP3    H1 7932   3.224   0.057   3.701
 2642TIP3    H2 7933   3.074   0.075   3.692
 2643TIP3   OH2 7934   1.485   2.261   0.993
 2643TIP3    H1 7935   1.531   2.188   0.951
 2643TIP3    H2 7936   1.555   2.318   1.026
 2644TIP3   OH2 7937   3.686   5.811   4.351
 2644TIP3    H1 7938   3.761   5.805   4.291
 2644TIP3    H2 7939   3.680   5.904   4.372
 2645TIP3   OH2 7940   2.805   5.921   0.529
 2645TIP3    H1 7941   2.791   6.009   0.565
 2645TIP3    H2 7942   2.728   5.906   0.474
 2646TIP3   OH2 7943   4.466   2.131   0.302
 2646TIP3    H1 7944   4.499   2.087   0.380
 2646TIP3    H2 7945   4.437   2.217   0.334
 2647TIP3   OH2 7946   3.856   3.889   3.937
 2647TIP3    H1 7947   3.784   3.950   3.954
 2647TIP3    H2 7948   3.829   3.807   3.979
 2648TIP3   OH2 7949   6.025   3.315   2.070
 2648TIP3    H1 7950   5.968   3.382   2.109
 2648TIP3    H2 7951   6.098   3.364   2.033
 2649TIP3   OH2 7952   0.644   4.259   3.112
 2649TIP3    H1 7953   0.635   4.253   3.207
 2649TIP3    H2 7954   0.736   4.239   3.096
 2650TIP3   OH2 7955   1.577   4.718   0.896
 2650TIP3    H1 7956   1.538   4.646   0.847
 2650TIP3    H2 7957   1.621   4.772   0.831
 2651TIP3   OH2 7958   1.535   2.557   3.543
 2651TIP3    H1 7959   1.533   2.461   3.543
 2651TIP3    H2 7960   1.576   2.580   3.460
 2652TIP3   OH2 7961   5.636   5.413   1.836
 2652TIP3    H1 7962   5.715   5.405   1.889
 2652TIP3    H2 7963   5.567   5.374   1.890
 2653TIP3   OH2 7964   3.058   1.782   3.035
 2653TIP3    H1 7965   3.129   1.732   3.076
 2653TIP3    H2 7966   2.998   1.716   3.002
 2654TIP3   OH2 7967   2.146   2.919   1.275
 2654TIP3    H1 7968   2.148   2.823   1.267
 2654TIP3    H2 7969   2.084   2.947   1.208
 2655TIP3   OH2 7970   0.331   4.628   1.996
 2655TIP3    H1 7971   0.280   4.707   2.014
 2655TIP3    H2 7972   0.406   4.658   1.945
 2656TIP3   OH2 7973   4.241   5.422   4.671
 2656TIP3    H1 7974   4.164   5.455   4.625
 2656TIP3    H2 7975   4.305   5.406   4.602
 2657TIP3   OH2 7976   5.222   5.147   4.215
 2657TIP3    H1 7977   5.264   5.229   4.189
 2657TIP3    H2 7978   5.292   5.082   4.207
 2658TIP3   OH2 7979   6.134   0.908   3.797
 2658TIP3    H1 7980   6.193   0.980   3.820
 2658TIP3    H2 7981   6.140   0.848   3.872
 2659TIP3   OH2 7982   1.701   4.695   3.158
 2659TIP3    H1 7983   1.624   4.701   3.101
 2659TIP3    H2 7984   1.690   4.765   3.221
 2660TIP3   OH2 7985   4.647   1.001   1.484
 2660TIP3    H1 7986   4.731   0.955   1.475
 2660TIP3    H2 7987   4.601   0.982   1.403
 2661TIP3   OH2 7988   1.137   4.590   2.334
 2661TIP3    H1 7989   1.076   4.567   2.263
 2661TIP3    H2 7990   1.142   4.685   2.332
 2662TIP3   OH2 7991   3.927   2.589   1.597
 2662TIP3    H1 7992   3.863   2.659   1.609
 2662TIP3    H2 7993   3.878   2.518   1.556
 2663TIP3   OH2 7994   5.733   2.463   5.076
 2663TIP3    H1 7995   5.708   2.387   5.022
 2663TIP3    H2 7996   5.660   2.524   5.067
 2664TIP3   OH2 7997   4.598   0.994   4.547
 2664TIP3    H1 7998   4.591   1.088   4.564
 2664TIP3    H2 7999   4.686   0.971   4.577
 2665TIP3   OH2 8000   3.867   0.892   3.486
 2665TIP3    H1 8001   3.832   0.813   3.446
 2665TIP3    H2 8002   3.904   0.863   3.569
 2666TIP3   OH2 8003   4.579   5.019   0.977
 2666TIP3    H1 8004   4.602   4.988   0.889
 2666TIP3    H2 8005   4.633   4.966   1.035
 2667TIP3   OH2 8006   5.126   5.662   1.977
 2667TIP3    H1 8007   5.120   5.740   1.923
 2667TIP3    H2 8008   5.183   5.687   2.050
 2668TIP3   OH2 8009   4.588   5.169   3.122
 2668TIP3    H1 8010   4.601   5.222   3.043
 2668TIP3    H2 8011   4.528   5.221   3.176
 2669TIP3   OH2 8012   2.562   1.155   1.898
 2669TIP3    H1 8013   2.469   1.160   1.876
 2669TIP3    H2 8014   2.603   1.117   1.821
 2670TIP3   OH2 8015   3.370   5.469   3.975
 2670TIP3    H1 8016   3.276   5.473   3.994
 2670TIP3    H2 8017   3.412   5.489   4.058
 2671TIP3   OH2 8018   1.301   3.095   0.937
 2671TIP3    H1 8019   1.251   3.099   0.855
 2671TIP3    H2 8020   1.310   3.001   0.955
 2672TIP3   OH2 8021   4.841   4.178   1.798
 2672TIP3    H1 8022   4.870   4.211   1.713
 2672TIP3    H2 8023   4.778   4.243   1.829
 2673TIP3   OH2 8024   3.559   2.355   3.822
 2673TIP3    H1 8025   3.610   2.350   3.903
 2673TIP3    H2 8026   3.623   2.379   3.755
 2674TIP3   OH2 8027   5.054   3.294   1.203
 2674TIP3    H1 8028   4.988   3.300   1.133
 2674TIP3    H2 8029   5.006   3.317   1.283
 2675TIP3   OH2 8030   2.561   5.324   0.076
 2675TIP3    H1 8031   2.489   5.264   0.058
 2675TIP3    H2 8032   2.629   5.298   0.014
 2676TIP3   OH2 8033   6.135   2.805   4.517
 2676TIP3    H1 8034   6.163   2.767   4.600
 2676TIP3    H2 8035   6.119   2.897   4.537
 2677TIP3   OH2 8036   0.959   3.521   4.334
 2677TIP3    H1 8037   0.958   3.457   4.263
 2677TIP3    H2 8038   0.913   3.597   4.299
 2678TIP3   OH2 8039   5.784   3.348   5.171
 2678TIP3    H1 8040   5.770   3.443   5.168
 2678TIP3    H2 8041   5.878   3.338   5.183
 2679TIP3   OH2 8042   4.997   2.975   1.025
 2679TIP3    H1 8043   4.980   3.049   0.966
 2679TIP3    H2 8044   5.083   2.994   1.063
 2680TIP3   OH2 8045   1.250   5.643   4.089
 2680TIP3    H1 8046   1.241   5.737   4.105
 2680TIP3    H2 8047   1.225   5.602   4.172
 2681TIP3   OH2 8048   5.420   2.214   1.265
 2681TIP3    H1 8049   5.359   2.183   1.332
 2681TIP3    H2 8050   5.396   2.306   1.251
 2682TIP3   OH2 8051   6.147   5.193   3.747
 2682TIP3    H1 8052   6.094   5.162   3.820
 2682TIP3    H2 8053   6.135   5.127   3.679
 2683TIP3   OH2 8054   5.187   5.909   4.633
 2683TIP3    H1 8055   5.138   5.835   4.599
 2683TIP3    H2 8056   5.133   5.944   4.704
 2684TIP3   OH2 8057   2.918   2.630   3.959
 2684TIP3    H1 8058   2.836   2.646   4.006
 2684TIP3    H2 8059   2.906   2.675   3.875
 2685TIP3   OH2 8060   1.056   2.132   3.570
 2685TIP3    H1 8061   1.017   2.168   3.490
 2685TIP3    H2 8062   1.125   2.072   3.539
 2686TIP3   OH2 8063   4.968   0.400   2.823
 2686TIP3    H1 8064   4.951   0.392   2.916
 2686TIP3    H2 8065   5.058   0.367   2.812
 2687TIP3   OH2 8066   6.259   3.573   4.021
 2687TIP3    H1 8067   6.268   3.551   3.929
 2687TIP3    H2 8068   6.285   3.665   4.026
 2688TIP3   OH2 8069   0.630   3.779   1.528
 2688TIP3    H1 8070   0.693   3.747   1.463
 2688TIP3    H2 8071   0.568   3.831   1.477
 2689TIP3   OH2 8072   2.945   0.920   4.649
 2689TIP3    H1 8073   2.959   0.837   4.695
 2689TIP3    H2 8074   3.012   0.921   4.581
 2690TIP3   OH2 8075   4.358   0.331   3.824
 2690TIP3    H1 8076   4.445   0.296   3.805
 2690TIP3    H2 8077   4.304   0.254   3.842
 2691TIP3   OH2 8078   1.955   2.345   1.314
 2691TIP3    H1 8079   1.930   2.272   1.371
 2691TIP3    H2 8080   1.919   2.422   1.357
 2692TIP3   OH2 8081   1.354   3.943   0.295
 2692TIP3    H1 8082   1.367   4.032   0.264
 2692TIP3    H2 8083   1.408   3.937   0.375
 2693TIP3   OH2 8084   0.306   0.081   5.037
 2693TIP3    H1 8085   0.291   0.098   5.130
 2693TIP3    H2 8086   0.226   0.112   4.994
 2694TIP3   OH2 8087   0.070   5.122   2.751
 2694TIP3    H1 8088  -0.001   5.154   2.696
 2694TIP3    H2 8089   0.150   5.139   2.702
 2695TIP3   OH2 8090   5.292   1.172   1.608
 2695TIP3    H1 8091   5.331   1.115   1.542
 2695TIP3    H2 8092   5.200   1.182   1.581
 2696TIP3   OH2 8093   0.773   3.151   0.650
 2696TIP3    H1 8094   0.694   3.205   0.654
 2696TIP3    H2 8095   0.742   3.063   0.634
 2697TIP3   OH2 8096   1.709   5.596   4.905
 2697TIP3    H1 8097   1.649   5.524   4.925
 2697TIP3    H2 8098   1.652   5.671   4.889
 2698TIP3   OH2 8099   4.952   5.071   1.417
 2698TIP3    H1 8100   5.012   5.058   1.490
 2698TIP3    H2 8101   4.881   5.124   1.452
 2699TIP3   OH2 8102   4.464   2.353   1.200
 2699TIP3    H1 8103   4.484   2.380   1.111
 2699TIP3    H2 8104   4.397   2.285   1.190
 2700TIP3   OH2 8105   0.795   4.552   1.758
 2700TIP3    H1 8106   0.876   4.526   1.713
 2700TIP3    H2 8107   0.757   4.620   1.703
 2701TIP3   OH2 8108   0.972   4.529   1.130
 2701TIP3    H1 8109   1.061   4.544   1.100
 2701TIP3    H2 8110   0.920   4.528   1.049
 2702TIP3   OH2 8111   5.869   4.873   1.521
 2702TIP3    H1 8112   5.908   4.860   1.607
 2702TIP3    H2 8113   5.921   4.816   1.463
 2703TIP3   OH2 8114   1.251   1.022   3.890
 2703TIP3    H1 8115   1.251   0.945   3.947
 2703TIP3    H2 8116   1.164   1.061   3.903
 2704TIP3   OH2 8117   0.518   1.832   2.470
 2704TIP3    H1 8118   0.585   1.797   2.412
 2704TIP3    H2 8119   0.566   1.859   2.549
 2705TIP3   OH2 8120   0.912   0.410   2.785
 2705TIP3    H1 8121   0.942   0.499   2.802
 2705TIP3    H2 8122   0.909   0.403   2.689
 2706TIP3   OH2 8123   1.515   0.124   4.230
 2706TIP3    H1 8124   1.471   0.043   4.255
 2706TIP3    H2 8125   1.475   0.148   4.146
 2707TIP3   OH2 8126   0.308   0.371   0.190
 2707TIP3    H1 8127   0.313   0.460   0.155
 2707TIP3    H2 8128   0.307   0.384   0.285
 2708TIP3   OH2 8129   4.730   5.087   3.337
 2708TIP3    H1 8130   4.822   5.064   3.324
 2708TIP3    H2 8131   4.696   5.100   3.248
 2709TIP3   OH2 8132   5.482   1.268   2.112
 2709TIP3    H1 8133   5.558   1.320   2.087
 2709TIP3    H2 8134   5.517   1.183   2.136
 2710TIP3   OH2 8135   4.712   5.563   4.629
 2710TIP3    H1 8136   4.731   5.470   4.630
 2710TIP3    H2 8137   4.704   5.587   4.721
 2711TIP3   OH2 8138   3.791   5.005   3.058
 2711TIP3    H1 8139   3.819   4.934   3.116
 2711TIP3    H2 8140   3.856   5.074   3.070
 2712TIP3   OH2 8141   4.669   1.750   5.064
 2712TIP3    H1 8142   4.614   1.725   5.138
 2712TIP3    H2 8143   4.639   1.694   4.992
 2713TIP3   OH2 8144   0.296   1.708   2.380
 2713TIP3    H1 8145   0.383   1.719   2.420
 2713TIP3    H2 8146   0.245   1.662   2.447
 2714TIP3   OH2 8147   4.619   1.518   4.946
 2714TIP3    H1 8148   4.625   1.459   5.021
 2714TIP3    H2 8149   4.709   1.524   4.913
 2715TIP3   OH2 8150   3.209   1.000   5.112
 2715TIP3    H1 8151   3.215   1.087   5.151
 2715TIP3    H2 8152   3.298   0.965   5.118
 2716TIP3   OH2 8153   4.405   5.784   2.825
 2716TIP3    H1 8154   4.411   5.798   2.731
 2716TIP3    H2 8155   4.362   5.863   2.858
 2717TIP3   OH2 8156   5.263   0.344   3.012
 2717TIP3    H1 8157   5.173   0.322   3.035
 2717TIP3    H2 8158   5.302   0.376   3.093
 2718TIP3   OH2 8159   2.726   0.261   0.294
 2718TIP3    H1 8160   2.665   0.319   0.249
 2718TIP3    H2 8161   2.693   0.255   0.384
 2719TIP3   OH2 8162   3.580   1.940   1.270
 2719TIP3    H1 8163   3.622   2.001   1.330
 2719TIP3    H2 8164   3.652   1.889   1.233
 2720TIP3   OH2 8165   6.389   4.267   1.658
 2720TIP3    H1 8166   6.349   4.353   1.668
 2720TIP3    H2 8167   6.327   4.217   1.605
 2721TIP3   OH2 8168   3.800   4.543   2.618
 2721TIP3    H1 8169   3.708   4.544   2.592
 2721TIP3    H2 8170   3.836   4.466   2.575
 2722TIP3   OH2 8171   5.268   4.145   0.917
 2722TIP3    H1 8172   5.260   4.082   0.989
 2722TIP3    H2 8173   5.336   4.206   0.945
 2723TIP3   OH2 8174   0.312   4.328   0.569
 2723TIP3    H1 8175   0.253   4.392   0.609
 2723TIP3    H2 8176   0.306   4.251   0.625
 2724TIP3   OH2 8177   3.274   3.635   4.522
 2724TIP3    H1 8178   3.254   3.566   4.459
 2724TIP3    H2 8179   3.359   3.611   4.558
 2725TIP3   OH2 8180   6.042   1.693   3.363
 2725TIP3    H1 8181   5.951   1.664   3.373
 2725TIP3    H2 8182   6.093   1.612   3.367
 2726TIP3   OH2 8183   4.097   1.880   5.048
 2726TIP3    H1 8184   4.044   1.959   5.039
 2726TIP3    H2 8185   4.132   1.865   4.960
 2727TIP3   OH2 8186   4.262   3.613   3.488
 2727TIP3    H1 8187   4.271   3.634   3.581
 2727TIP3    H2 8188   4.203   3.680   3.454
 2728TIP3   OH2 8189   5.623   1.552   4.511
 2728TIP3    H1 8190   5.628   1.561   4.416
 2728TIP3    H2 8191   5.567   1.624   4.540
 2729TIP3   OH2 8192   0.976   5.325   2.328
 2729TIP3    H1 8193   1.017   5.360   2.249
 2729TIP3    H2 8194   0.900   5.276   2.296
 2730TIP3   OH2 8195   2.272   1.179   0.213
 2730TIP3    H1 8196   2.264   1.179   0.309
 2730TIP3    H2 8197   2.338   1.112   0.195
 2731TIP3   OH2 8198   0.154   4.303   5.116
 2731TIP3    H1 8199   0.127   4.272   5.202
 2731TIP3    H2 8200   0.175   4.224   5.067
 2732TIP3   OH2 8201   4.302   0.390   2.580
 2732TIP3    H1 8202   4.275   0.303   2.550
 2732TIP3    H2 8203   4.387   0.404   2.538
 2733TIP3   OH2 8204   0.322   3.407   3.237
 2733TIP3    H1 8205   0.395   3.466   3.217
 2733TIP3    H2 8206   0.356   3.319   3.218
 2734TIP3   OH2 8207   2.359   5.468   5.169
 2734TIP3    H1 8208   2.364   5.555   5.207
 2734TIP3    H2 8209   2.280   5.469   5.115
 2735TIP3   OH2 8210   6.158   1.227   2.550
 2735TIP3    H1 8211   6.186   1.199   2.463
 2735TIP3    H2 8212   6.074   1.271   2.536
 2736TIP3   OH2 8213   4.893   4.278   0.056
 2736TIP3    H1 8214   4.925   4.211  -0.004
 2736TIP3    H2 8215   4.914   4.243   0.143
 2737TIP3   OH2 8216   2.408   2.517   0.622
 2737TIP3    H1 8217   2.370   2.454   0.683
 2737TIP3    H2 8218   2.451   2.582   0.677
 2738TIP3   OH2 8219   6.307   5.727   3.256
 2738TIP3    H1 8220   6.315   5.729   3.161
 2738TIP3    H2 8221   6.371   5.662   3.285
 2739TIP3   OH2 8222   4.531   0.532   3.944
 2739TIP3    H1 8223   4.505   0.569   4.028
 2739TIP3    H2 8224   4.449   0.508   3.902
 2740TIP3   OH2 8225   5.557   1.489   1.638
 2740TIP3    H1 8226   5.649   1.462   1.644
 2740TIP3    H2 8227   5.512   1.437   1.704
 2741TIP3   OH2 8228   4.395   4.831   0.325
 2741TIP3    H1 8229   4.483   4.811   0.294
 2741TIP3    H2 8230   4.337   4.789   0.261
 2742TIP3   OH2 8231   5.471   0.678   1.235
 2742TIP3    H1 8232   5.471   0.684   1.140
 2742TIP3    H2 8233   5.541   0.738   1.263
 2743TIP3   OH2 8234   2.415   1.601   1.933
 2743TIP3    H1 8235   2.464   1.594   2.015
 2743TIP3    H2 8236   2.326   1.574   1.956
 2744TIP3   OH2 8237   4.869   0.150   3.405
 2744TIP3    H1 8238   4.809   0.214   3.444
 2744TIP3    H2 8239   4.943   0.148   3.466
 2745TIP3   OH2 8240   1.255   5.839   0.945
 2745TIP3    H1 8241   1.297   5.755   0.961
 2745TIP3    H2 8242   1.165   5.817   0.923
 2746TIP3   OH2 8243   2.683   2.915   3.612
 2746TIP3    H1 8244   2.691   2.969   3.690
 2746TIP3    H2 8245   2.751   2.848   3.623
 2747TIP3   OH2 8246   5.472   5.789   2.476
 2747TIP3    H1 8247   5.467   5.851   2.403
 2747TIP3    H2 8248   5.532   5.721   2.446
 2748TIP3   OH2 8249   2.079   4.247   1.668
 2748TIP3    H1 8250   2.080   4.189   1.592
 2748TIP3    H2 8251   2.000   4.221   1.717
 2749TIP3   OH2 8252   5.123   0.558   4.234
 2749TIP3    H1 8253   5.157   0.575   4.322
 2749TIP3    H2 8254   5.044   0.613   4.229
 2750TIP3   OH2 8255   1.017   2.907   2.560
 2750TIP3    H1 8256   0.924   2.923   2.541
 2750TIP3    H2 8257   1.015   2.841   2.630
 2751TIP3   OH2 8258   5.292   3.705   4.319
 2751TIP3    H1 8259   5.221   3.668   4.371
 2751TIP3    H2 8260   5.254   3.784   4.280
 2752TIP3   OH2 8261   2.840   3.336   2.446
 2752TIP3    H1 8262   2.752   3.300   2.460
 2752TIP3    H2 8263   2.832   3.387   2.365
 2753TIP3   OH2 8264   1.232   1.932   3.469
 2753TIP3    H1 8265   1.292   1.890   3.530
 2753TIP3    H2 8266   1.267   1.911   3.382
 2754TIP3   OH2 8267   4.990   2.386   3.078
 2754TIP3    H1 8268   4.978   2.474   3.114
 2754TIP3    H2 8269   4.981   2.397   2.983
 2755TIP3   OH2 8270   1.390   0.460   4.192
 2755TIP3    H1 8271   1.447   0.519   4.144
 2755TIP3    H2 8272   1.420   0.372   4.168
 2756TIP3   OH2 8273   3.838   4.922   4.596
 2756TIP3    H1 8274   3.875   4.839   4.565
 2756TIP3    H2 8275   3.911   4.966   4.639
 2757TIP3   OH2 8276   4.559   5.926   1.772
 2757TIP3    H1 8277   4.589   5.857   1.712
 2757TIP3    H2 8278   4.596   6.006   1.735
 2758TIP3   OH2 8279   5.471   1.888   0.033
 2758TIP3    H1 8280   5.519   1.968   0.056
 2758TIP3    H2 8281   5.406   1.879   0.102
 2759TIP3   OH2 8282   1.697   0.401   1.195
 2759TIP3    H1 8283   1.653   0.428   1.114
 2759TIP3    H2 8284   1.638   0.335   1.233
 2760TIP3   OH2 8285   4.964   0.903   3.543
 2760TIP3    H1 8286   5.005   0.857   3.616
 2760TIP3    H2 8287   4.976   0.996   3.565
 2761TIP3   OH2 8288   5.667   1.587   0.053
 2761TIP3    H1 8289   5.581   1.587   0.011
 2761TIP3    H2 8290   5.729   1.577  -0.019
 2762TIP3   OH2 8291   0.662   2.653   1.679
 2762TIP3    H1 8292   0.733   2.650   1.614
 2762TIP3    H2 8293   0.600   2.717   1.643
 2763TIP3   OH2 8294   2.297   4.010   2.265
 2763TIP3    H1 8295   2.253   4.079   2.315
 2763TIP3    H2 8296   2.226   3.953   2.237
 2764TIP3   OH2 8297   3.870   1.364   3.094
 2764TIP3    H1 8298   3.919   1.438   3.059
 2764TIP3    H2 8299   3.851   1.310   3.018
 2765TIP3   OH2 8300   3.980   0.256   4.297
 2765TIP3    H1 8301   4.070   0.236   4.271
 2765TIP3    H2 8302   3.966   0.347   4.270
 2766TIP3   OH2 8303   1.316   0.248   1.473
 2766TIP3    H1 8304   1.286   0.167   1.431
 2766TIP3    H2 8305   1.399   0.268   1.430
 2767TIP3   OH2 8306   1.245   0.062   0.355
 2767TIP3    H1 8307   1.249   0.150   0.316
 2767TIP3    H2 8308   1.173   0.067   0.417
 2768TIP3   OH2 8309   2.799   2.051   2.098
 2768TIP3    H1 8310   2.822   2.092   2.014
 2768TIP3    H2 8311   2.830   2.112   2.164
 2769TIP3   OH2 8312   2.146   3.360   0.397
 2769TIP3    H1 8313   2.194   3.397   0.322
 2769TIP3    H2 8314   2.056   3.350   0.366
 2770TIP3   OH2 8315   2.357   0.182   2.740
 2770TIP3    H1 8316   2.391   0.270   2.759
 2770TIP3    H2 8317   2.430   0.137   2.698
 2771TIP3   OH2 8318   1.849   0.047   3.660
 2771TIP3    H1 8319   1.908  -0.020   3.697
 2771TIP3    H2 8320   1.838   0.021   3.569
 2772TIP3   OH2 8321   1.088   0.656   3.234
 2772TIP3    H1 8322   1.097   0.714   3.309
 2772TIP3    H2 8323   0.998   0.626   3.238
 2773TIP3   OH2 8324   1.087   0.932   5.017
 2773TIP3    H1 8325   1.116   0.983   4.942
 2773TIP3    H2 8326   0.996   0.958   5.031
 2774TIP3   OH2 8327   4.572   5.179   2.153
 2774TIP3    H1 8328   4.579   5.271   2.180
 2774TIP3    H2 8329   4.657   5.158   2.116
 2775TIP3   OH2 8330   3.154   0.706   1.018
 2775TIP3    H1 8331   3.248   0.688   1.013
 2775TIP3    H2 8332   3.149   0.793   1.057
 2776TIP3   OH2 8333   2.895   5.273   3.956
 2776TIP3    H1 8334   2.972   5.249   3.905
 2776TIP3    H2 8335   2.854   5.190   3.978
 2777TIP3   OH2 8336   0.771   4.500   4.071
 2777TIP3    H1 8337   0.779   4.411   4.037
 2777TIP3    H2 8338   0.707   4.492   4.142
 2778TIP3   OH2 8339   5.591   3.613   2.526
 2778TIP3    H1 8340   5.597   3.578   2.437
 2778TIP3    H2 8341   5.661   3.678   2.530
 2779TIP3   OH2 8342   5.547   4.850   1.670
 2779TIP3    H1 8343   5.638   4.832   1.646
 2779TIP3    H2 8344   5.552   4.921   1.734
 2780TIP3   OH2 8345   0.179   4.399   4.285
 2780TIP3    H1 8346   0.188   4.494   4.296
 2780TIP3    H2 8347   0.193   4.364   4.373
 2781TIP3   OH2 8348   0.254   1.010   4.091
 2781TIP3    H1 8349   0.245   0.917   4.110
 2781TIP3    H2 8350   0.263   1.015   3.996
 2782TIP3   OH2 8351   4.922   3.790   4.962
 2782TIP3    H1 8352   5.006   3.827   4.989
 2782TIP3    H2 8353   4.877   3.863   4.919
 2783TIP3   OH2 8354   2.003   0.691   4.017
 2783TIP3    H1 8355   1.974   0.618   4.073
 2783TIP3    H2 8356   1.960   0.768   4.055
 2784TIP3   OH2 8357   3.485   1.886   0.554
 2784TIP3    H1 8358   3.537   1.856   0.479
 2784TIP3    H2 8359   3.415   1.938   0.515
 2785TIP3   OH2 8360   1.360   0.871   5.042
 2785TIP3    H1 8361   1.267   0.867   5.021
 2785TIP3    H2 8362   1.404   0.830   4.968
 2786TIP3   OH2 8363   0.305   4.950   2.017
 2786TIP3    H1 8364   0.285   5.042   2.037
 2786TIP3    H2 8365   0.234   4.923   1.958
 2787TIP3   OH2 8366   3.415   1.748   4.302
 2787TIP3    H1 8367   3.416   1.769   4.208
 2787TIP3    H2 8368   3.335   1.789   4.334
 2788TIP3   OH2 8369   4.944   3.817   0.497
 2788TIP3    H1 8370   4.984   3.828   0.583
 2788TIP3    H2 8371   4.853   3.846   0.509
 2789TIP3   OH2 8372   4.214   4.042   0.639
 2789TIP3    H1 8373   4.130   4.034   0.685
 2789TIP3    H2 8374   4.225   4.136   0.626
 2790TIP3   OH2 8375   0.722   1.914   4.833
 2790TIP3    H1 8376   0.793   1.894   4.893
 2790TIP3    H2 8377   0.760   1.901   4.746
 2791TIP3   OH2 8378   5.120   0.427   3.321
 2791TIP3    H1 8379   5.212   0.430   3.349
 2791TIP3    H2 8380   5.102   0.516   3.292
 2792TIP3   OH2 8381   4.864   5.762   0.261
 2792TIP3    H1 8382   4.777   5.738   0.293
 2792TIP3    H2 8383   4.924   5.709   0.313
 2793TIP3   OH2 8384   0.037   0.653   2.740
 2793TIP3    H1 8385   0.076   0.638   2.654
 2793TIP3    H2 8386   0.000   0.741   2.735
 2794TIP3   OH2 8387   4.627   4.220   3.073
 2794TIP3    H1 8388   4.583   4.145   3.034
 2794TIP3    H2 8389   4.559   4.267   3.120
 2795TIP3   OH2 8390   0.616   0.219   0.093
 2795TIP3    H1 8391   0.654   0.206   0.006
 2795TIP3    H2 8392   0.549   0.151   0.100
 2796TIP3   OH2 8393   0.512   2.466   4.002
 2796TIP3    H1 8394   0.498   2.542   4.058
 2796TIP3    H2 8395   0.604   2.444   4.013
 2797TIP3   OH2 8396   1.097   1.543   4.096
 2797TIP3    H1 8397   1.092   1.617   4.036
 2797TIP3    H2 8398   1.103   1.466   4.040
 2798TIP3   OH2 8399   6.243   3.411   1.854
 2798TIP3    H1 8400   6.239   3.328   1.807
 2798TIP3    H2 8401   6.336   3.424   1.873
 2799TIP3   OH2 8402   1.598   4.598   3.828
 2799TIP3    H1 8403   1.658   4.637   3.765
 2799TIP3    H2 8404   1.647   4.524   3.864
 2800TIP3   OH2 8405   6.274   4.869   4.110
 2800TIP3    H1 8406   6.230   4.951   4.131
 2800TIP3    H2 8407   6.367   4.892   4.107
 2801TIP3   OH2 8408   0.891   5.251   1.329
 2801TIP3    H1 8409   0.940   5.235   1.249
 2801TIP3    H2 8410   0.954   5.294   1.387
 2802TIP3   OH2 8411  -0.058   0.093   2.239
 2802TIP3    H1 8412   0.037   0.083   2.247
 2802TIP3    H2 8413  -0.075   0.182   2.269
 2803TIP3   OH2 8414   1.822   5.069   1.123
 2803TIP3    H1 8415   1.880   4.994   1.110
 2803TIP3    H2 8416   1.845   5.129   1.051
 2804TIP3   OH2 8417   1.797   0.374   0.127
 2804TIP3    H1 8418   1.812   0.302   0.066
 2804TIP3    H2 8419   1.757   0.333   0.204
 2805TIP3   OH2 8420   0.267   3.026   4.632
 2805TIP3    H1 8421   0.304   3.099   4.682
 2805TIP3    H2 8422   0.252   2.958   4.697
 2806TIP3   OH2 8423   1.224   0.724   1.100
 2806TIP3    H1 8424   1.141   0.762   1.128
 2806TIP3    H2 8425   1.283   0.799   1.091
 2807TIP3   OH2 8426   0.673   3.215   0.232
 2807TIP3    H1 8427   0.587   3.234   0.267
 2807TIP3    H2 8428   0.679   3.268   0.152
 2808TIP3   OH2 8429   3.744   3.640   1.656
 2808TIP3    H1 8430   3.683   3.709   1.681
 2808TIP3    H2 8431   3.707   3.560   1.693
 2809TIP3   OH2 8432   3.426   1.186   4.254
 2809TIP3    H1 8433   3.434   1.097   4.221
 2809TIP3    H2 8434   3.515   1.211   4.278
 2810TIP3   OH2 8435   2.208   4.692   4.639
 2810TIP3    H1 8436   2.115   4.701   4.659
 2810TIP3    H2 8437   2.233   4.606   4.674
 2811TIP3   OH2 8438   2.034   5.501   1.465
 2811TIP3    H1 8439   2.011   5.426   1.519
 2811TIP3    H2 8440   1.965   5.565   1.481
 2812TIP3   OH2 8441   0.758   5.015   2.539
 2812TIP3    H1 8442   0.784   4.969   2.459
 2812TIP3    H2 8443   0.840   5.031   2.586
 2813TIP3   OH2 8444   4.937   1.717   3.290
 2813TIP3    H1 8445   4.906   1.629   3.269
 2813TIP3    H2 8446   4.920   1.769   3.212
 2814TIP3   OH2 8447   1.113   5.048   1.658
 2814TIP3    H1 8448   1.176   5.117   1.679
 2814TIP3    H2 8449   1.037   5.067   1.714
 2815TIP3   OH2 8450   1.805   0.667   2.315
 2815TIP3    H1 8451   1.820   0.761   2.328
 2815TIP3    H2 8452   1.777   0.635   2.400
 2816TIP3   OH2 8453   0.444   0.918   0.515
 2816TIP3    H1 8454   0.357   0.880   0.524
 2816TIP3    H2 8455   0.460   0.921   0.421
 2817TIP3   OH2 8456   4.142   2.132   1.705
 2817TIP3    H1 8457   4.233   2.150   1.685
 2817TIP3    H2 8458   4.142   2.104   1.797
 2818TIP3   OH2 8459   3.999   2.907   3.506
 2818TIP3    H1 8460   3.946   2.983   3.529
 2818TIP3    H2 8461   4.006   2.857   3.587
 2819TIP3   OH2 8462   4.563   1.263   4.642
 2819TIP3    H1 8463   4.512   1.329   4.687
 2819TIP3    H2 8464   4.621   1.227   4.709
 2820TIP3   OH2 8465   0.931   4.204   3.064
 2820TIP3    H1 8466   1.024   4.225   3.068
 2820TIP3    H2 8467   0.928   4.109   3.052
 2821TIP3   OH2 8468   5.530   0.778   4.159
 2821TIP3    H1 8469   5.586   0.822   4.095
 2821TIP3    H2 8470   5.451   0.755   4.111
 2822TIP3   OH2 8471   1.226   2.800   3.261
 2822TIP3    H1 8472   1.229   2.771   3.352
 2822TIP3    H2 8473   1.248   2.722   3.210
 2823TIP3   OH2 8474   5.158   4.862   2.540
 2823TIP3    H1 8475   5.071   4.833   2.567
 2823TIP3    H2 8476   5.219   4.806   2.589
 2824TIP3   OH2 8477   3.345   0.560   2.977
 2824TIP3    H1 8478   3.287   0.635   2.981
 2824TIP3    H2 8479   3.333   0.515   3.060
 2825TIP3   OH2 8480   1.691   3.609   2.023
 2825TIP3    H1 8481   1.605   3.629   2.060
 2825TIP3    H2 8482   1.715   3.525   2.062
 2826TIP3   OH2 8483   3.257   2.049   0.452
 2826TIP3    H1 8484   3.211   2.063   0.536
 2826TIP3    H2 8485   3.216   2.112   0.393
 2827TIP3   OH2 8486   2.030   1.344   4.513
 2827TIP3    H1 8487   2.015   1.273   4.575
 2827TIP3    H2 8488   2.114   1.324   4.473
 2828TIP3   OH2 8489   6.179   2.897   3.581
 2828TIP3    H1 8490   6.101   2.934   3.540
 2828TIP3    H2 8491   6.248   2.905   3.515
 2829TIP3   OH2 8492   5.832   2.645   2.854
 2829TIP3    H1 8493   5.894   2.707   2.816
 2829TIP3    H2 8494   5.876   2.560   2.849
 2830TIP3   OH2 8495   2.119   1.223   4.870
 2830TIP3    H1 8496   2.045   1.274   4.903
 2830TIP3    H2 8497   2.176   1.288   4.828
 2831TIP3   OH2 8498   5.538   3.650   4.169
 2831TIP3    H1 8499   5.579   3.712   4.229
 2831TIP3    H2 8500   5.446   3.648   4.197
 2832TIP3   OH2 8501   1.327   5.599   5.065
 2832TIP3    H1 8502   1.299   5.604   4.973
 2832TIP3    H2 8503   1.260   5.649   5.113
 2833TIP3   OH2 8504   0.766   2.592   3.245
 2833TIP3    H1 8505   0.823   2.578   3.169
 2833TIP3    H2 8506   0.820   2.569   3.321
 2834TIP3   OH2 8507   0.674   0.535   2.814
 2834TIP3    H1 8508   0.741   0.467   2.826
 2834TIP3    H2 8509   0.719   0.616   2.835
 2835TIP3   OH2 8510   6.114   3.643   1.813
 2835TIP3    H1 8511   6.150   3.646   1.724
 2835TIP3    H2 8512   6.135   3.556   1.845
 2836TIP3   OH2 8513   6.194   5.234   0.972
 2836TIP3    H1 8514   6.148   5.244   0.888
 2836TIP3    H2 8515   6.156   5.155   1.011
 2837TIP3   OH2 8516   0.981   3.049   1.501
 2837TIP3    H1 8517   1.004   3.082   1.414
 2837TIP3    H2 8518   0.886   3.033   1.496
 2838TIP3   OH2 8519   3.437   2.822   1.444
 2838TIP3    H1 8520   3.467   2.746   1.494
 2838TIP3    H2 8521   3.513   2.881   1.443
 2839TIP3   OH2 8522   3.249   1.388   0.312
 2839TIP3    H1 8523   3.230   1.481   0.322
 2839TIP3    H2 8524   3.205   1.346   0.386
 2840TIP3   OH2 8525   2.376   1.920   4.828
 2840TIP3    H1 8526   2.304   1.872   4.788
 2840TIP3    H2 8527   2.449   1.858   4.831
 2841TIP3   OH2 8528   5.624   3.213   2.078
 2841TIP3    H1 8529   5.550   3.159   2.106
 2841TIP3    H2 8530   5.701   3.159   2.095
 2842TIP3   OH2 8531   2.925   0.476   1.147
 2842TIP3    H1 8532   3.006   0.504   1.104
 2842TIP3    H2 8533   2.894   0.402   1.095
 2843TIP3   OH2 8534   2.647   5.520   0.252
 2843TIP3    H1 8535   2.743   5.518   0.259
 2843TIP3    H2 8536   2.627   5.451   0.188
 2844TIP3   OH2 8537   2.660   4.833   4.932
 2844TIP3    H1 8538   2.732   4.849   4.871
 2844TIP3    H2 8539   2.669   4.740   4.955
 2845TIP3   OH2 8540   2.915   5.391   3.577
 2845TIP3    H1 8541   2.865   5.379   3.497
 2845TIP3    H2 8542   2.895   5.314   3.630
 2846TIP3   OH2 8543   0.713   5.370   1.737
 2846TIP3    H1 8544   0.681   5.323   1.815
 2846TIP3    H2 8545   0.807   5.350   1.735
 2847TIP3   OH2 8546   3.060   2.809   0.351
 2847TIP3    H1 8547   2.981   2.862   0.343
 2847TIP3    H2 8548   3.054   2.771   0.439
 2848TIP3   OH2 8549   4.398   3.467   3.749
 2848TIP3    H1 8550   4.371   3.380   3.721
 2848TIP3    H2 8551   4.487   3.476   3.715
 2849TIP3   OH2 8552   2.450   1.660   1.169
 2849TIP3    H1 8553   2.459   1.669   1.264
 2849TIP3    H2 8554   2.538   1.638   1.139
 2850TIP3   OH2 8555   0.303   0.953   4.878
 2850TIP3    H1 8556   0.218   0.997   4.879
 2850TIP3    H2 8557   0.315   0.923   4.969
 2851TIP3   OH2 8558   4.783   4.472   1.356
 2851TIP3    H1 8559   4.804   4.394   1.408
 2851TIP3    H2 8560   4.866   4.518   1.347
 2852TIP3   OH2 8561   5.820   2.906   2.694
 2852TIP3    H1 8562   5.878   2.894   2.619
 2852TIP3    H2 8563   5.789   2.996   2.687
 2853TIP3   OH2 8564   2.890   3.530   2.886
 2853TIP3    H1 8565   2.926   3.481   2.812
 2853TIP3    H2 8566   2.829   3.593   2.846
 2854TIP3   OH2 8567   2.334   1.728   1.700
 2854TIP3    H1 8568   2.362   1.817   1.723
 2854TIP3    H2 8569   2.369   1.673   1.770
 2855TIP3   OH2 8570   6.234   0.601   1.279
 2855TIP3    H1 8571   6.307   0.663   1.268
 2855TIP3    H2 8572   6.156   0.656   1.286
 2856TIP3   OH2 8573   5.851   0.710   1.595
 2856TIP3    H1 8574   5.837   0.616   1.583
 2856TIP3    H2 8575   5.945   0.722   1.580
 2857TIP3   OH2 8576   4.613   2.448   5.060
 2857TIP3    H1 8577   4.572   2.362   5.046
 2857TIP3    H2 8578   4.554   2.492   5.121
 2858TIP3   OH2 8579   4.394   3.318   2.881
 2858TIP3    H1 8580   4.420   3.287   2.968
 2858TIP3    H2 8581   4.477   3.342   2.838
 2859TIP3   OH2 8582   0.706   1.319   0.908
 2859TIP3    H1 8583   0.745   1.232   0.906
 2859TIP3    H2 8584   0.777   1.377   0.936
 2860TIP3   OH2 8585   3.988   4.867   1.100
 2860TIP3    H1 8586   3.920   4.846   1.036
 2860TIP3    H2 8587   3.973   4.959   1.123
 2861TIP3   OH2 8588   5.190   1.808   3.291
 2861TIP3    H1 8589   5.101   1.775   3.298
 2861TIP3    H2 8590   5.183   1.902   3.309
 2862TIP3   OH2 8591   1.523   4.461   0.333
 2862TIP3    H1 8592   1.613   4.478   0.305
 2862TIP3    H2 8593   1.487   4.548   0.354
 2863TIP3   OH2 8594   5.416   3.090   2.252
 2863TIP3    H1 8595   5.372   3.175   2.255
 2863TIP3    H2 8596   5.350   3.027   2.283
 2864TIP3   OH2 8597   1.755   2.458   2.121
 2864TIP3    H1 8598   1.825   2.420   2.067
 2864TIP3    H2 8599   1.693   2.494   2.058
 2865TIP3   OH2 8600   4.798   4.983   4.485
 2865TIP3    H1 8601   4.794   5.073   4.516
 2865TIP3    H2 8602   4.839   4.988   4.399
 2866TIP3   OH2 8603   1.603   0.878   2.255
 2866TIP3    H1 8604   1.606   0.889   2.350
 2866TIP3    H2 8605   1.510   0.868   2.235
 2867TIP3   OH2 8606   0.223   4.060   0.990
 2867TIP3    H1 8607   0.188   3.971   0.983
 2867TIP3    H2 8608   0.206   4.085   1.081
 2868TIP3   OH2 8609   0.312   4.409   3.166
 2868TIP3    H1 8610   0.331   4.316   3.170
 2868TIP3    H2 8611   0.266   4.421   3.083
 2869TIP3   OH2 8612   2.631   0.843   0.774
 2869TIP3    H1 8613   2.642   0.802   0.860
 2869TIP3    H2 8614   2.538   0.833   0.754
 2870TIP3   OH2 8615   0.351   3.104   1.424
 2870TIP3    H1 8616   0.328   3.018   1.389
 2870TIP3    H2 8617   0.290   3.118   1.497
 2871TIP3   OH2 8618   5.430   1.263   3.859
 2871TIP3    H1 8619   5.438   1.205   3.934
 2871TIP3    H2 8620   5.482   1.340   3.882
 2872TIP3   OH2 8621   0.608   3.852   4.529
 2872TIP3    H1 8622   0.669   3.894   4.591
 2872TIP3    H2 8623   0.597   3.763   4.562
 2873TIP3   OH2 8624   3.336   4.371   1.183
 2873TIP3    H1 8625   3.322   4.277   1.194
 2873TIP3    H2 8626   3.334   4.406   1.272
 2874TIP3   OH2 8627   2.545   3.019   4.482
 2874TIP3    H1 8628   2.620   3.076   4.469
 2874TIP3    H2 8629   2.542   2.964   4.404
 2875TIP3   OH2 8630   4.883   2.979   2.240
 2875TIP3    H1 8631   4.834   2.982   2.322
 2875TIP3    H2 8632   4.925   3.065   2.234
 2876TIP3   OH2 8633   3.532   0.282   3.490
 2876TIP3    H1 8634   3.448   0.306   3.529
 2876TIP3    H2 8635   3.513   0.206   3.435
 2877TIP3   OH2 8636   3.123   5.105   3.450
 2877TIP3    H1 8637   3.177   5.117   3.529
 2877TIP3    H2 8638   3.169   5.037   3.401
 2878TIP3   OH2 8639   0.380   5.107   4.976
 2878TIP3    H1 8640   0.362   5.015   4.957
 2878TIP3    H2 8641   0.322   5.128   5.049
 2879TIP3   OH2 8642   0.859   0.610   3.681
 2879TIP3    H1 8643   0.836   0.644   3.767
 2879TIP3    H2 8644   0.874   0.516   3.696
 2880TIP3   OH2 8645   4.892   4.246   3.076
 2880TIP3    H1 8646   4.909   4.281   3.164
 2880TIP3    H2 8647   4.803   4.211   3.082
 2881TIP3   OH2 8648   3.789   4.075   3.402
 2881TIP3    H1 8649   3.883   4.066   3.383
 2881TIP3    H2 8650   3.747   4.071   3.317
 2882TIP3   OH2 8651   2.918   0.091   4.418
 2882TIP3    H1 8652   2.905   0.163   4.356
 2882TIP3    H2 8653   2.862   0.021   4.384
 2883TIP3   OH2 8654   1.446   2.835   1.389
 2883TIP3    H1 8655   1.512   2.781   1.344
 2883TIP3    H2 8656   1.494   2.911   1.420
 2884TIP3   OH2 8657   5.136   3.926   1.513
 2884TIP3    H1 8658   5.062   3.931   1.454
 2884TIP3    H2 8659   5.106   3.872   1.586
 2885TIP3   OH2 8660   2.275   3.227   2.793
 2885TIP3    H1 8661   2.190   3.207   2.833
 2885TIP3    H2 8662   2.325   3.272   2.862
 2886TIP3   OH2 8663   1.263   0.262   2.264
 2886TIP3    H1 8664   1.190   0.282   2.206
 2886TIP3    H2 8665   1.247   0.316   2.342
 2887TIP3   OH2 8666   4.395   1.918   0.820
 2887TIP3    H1 8667   4.307   1.916   0.855
 2887TIP3    H2 8668   4.402   1.839   0.766
 2888TIP3   OH2 8669   0.655   2.316   2.870
 2888TIP3    H1 8670   0.604   2.267   2.806
 2888TIP3    H2 8671   0.642   2.269   2.952
 2889TIP3   OH2 8672   0.024   2.390   1.896
 2889TIP3    H1 8673  -0.063   2.427   1.881
 2889TIP3    H2 8674   0.059   2.374   1.809
 2890TIP3   OH2 8675   4.362   4.254   2.070
 2890TIP3    H1 8676   4.317   4.228   2.151
 2890TIP3    H2 8677   4.305   4.322   2.033
 2891TIP3   OH2 8678   4.865   1.509   1.187
 2891TIP3    H1 8679   4.903   1.581   1.238
 2891TIP3    H2 8680   4.928   1.437   1.198
 2892TIP3   OH2 8681   1.970   4.756   2.691
 2892TIP3    H1 8682   1.959   4.688   2.757
 2892TIP3    H2 8683   2.031   4.719   2.628
 2893TIP3   OH2 8684   3.814   0.893   0.133
 2893TIP3    H1 8685   3.814   0.882   0.038
 2893TIP3    H2 8686   3.865   0.973   0.148
 2894TIP3   OH2 8687   3.026   5.293   2.871
 2894TIP3    H1 8688   3.015   5.204   2.904
 2894TIP3    H2 8689   3.116   5.295   2.838
 2895TIP3   OH2 8690   2.037   1.073   4.607
 2895TIP3    H1 8691   2.113   1.060   4.664
 2895TIP3    H2 8692   1.966   1.025   4.650
 2896TIP3   OH2 8693   3.925   3.847   1.549
 2896TIP3    H1 8694   3.996   3.907   1.573
 2896TIP3    H2 8695   3.895   3.878   1.464
 2897TIP3   OH2 8696   6.198   5.298   2.051
 2897TIP3    H1 8697   6.208   5.204   2.034
 2897TIP3    H2 8698   6.283   5.336   2.025
 2898TIP3   OH2 8699   2.979   5.596   4.239
 2898TIP3    H1 8700   2.894   5.633   4.265
 2898TIP3    H2 8701   2.971   5.580   4.145
 2899TIP3   OH2 8702   5.986   0.263  -0.031
 2899TIP3    H1 8703   6.072   0.300  -0.050
 2899TIP3    H2 8704   5.990   0.238   0.061
 2900TIP3   OH2 8705   4.512   1.931   1.101
 2900TIP3    H1 8706   4.437   1.874   1.116
 2900TIP3    H2 8707   4.587   1.872   1.098
 2901TIP3   OH2 8708   2.756   1.393   1.169
 2901TIP3    H1 8709   2.728   1.465   1.112
 2901TIP3    H2 8710   2.703   1.318   1.141
 2902TIP3   OH2 8711   2.307   1.451   4.850
 2902TIP3    H1 8712   2.366   1.423   4.920
 2902TIP3    H2 8713   2.294   1.545   4.866
 2903TIP3   OH2 8714   4.409   2.744   2.126
 2903TIP3    H1 8715   4.331   2.695   2.098
 2903TIP3    H2 8716   4.474   2.677   2.144
 2904TIP3   OH2 8717   1.521   4.157   1.290
 2904TIP3    H1 8718   1.564   4.084   1.247
 2904TIP3    H2 8719   1.562   4.163   1.376
 2905TIP3   OH2 8720   4.114   1.158   4.167
 2905TIP3    H1 8721   4.108   1.199   4.081
 2905TIP3    H2 8722   4.180   1.089   4.157
 2906TIP3   OH2 8723   6.047   1.433   5.078
 2906TIP3    H1 8724   6.091   1.475   5.004
 2906TIP3    H2 8725   6.111   1.370   5.110
 2907TIP3   OH2 8726   0.876   2.580   0.040
 2907TIP3    H1 8727   0.933   2.503   0.039
 2907TIP3    H2 8728   0.880   2.612   0.131
 2908TIP3   OH2 8729   2.438   3.380   2.373
 2908TIP3    H1 8730   2.429   3.344   2.284
 2908TIP3    H2 8731   2.408   3.471   2.365
 2909TIP3   OH2 8732   3.462   1.015   1.204
 2909TIP3    H1 8733   3.481   1.006   1.298
 2909TIP3    H2 8734   3.519   1.086   1.175
 2910TIP3   OH2 8735   2.255   3.612   2.341
 2910TIP3    H1 8736   2.192   3.672   2.303
 2910TIP3    H2 8737   2.205   3.531   2.356
 2911TIP3   OH2 8738   3.529   1.343   0.322
 2911TIP3    H1 8739   3.440   1.375   0.304
 2911TIP3    H2 8740   3.586   1.402   0.272
 2912TIP3   OH2 8741   6.022   5.959   3.078
 2912TIP3    H1 8742   5.934   5.965   3.115
 2912TIP3    H2 8743   6.037   5.865   3.068
 2913TIP3   OH2 8744   1.025   5.670   2.801
 2913TIP3    H1 8745   1.050   5.757   2.770
 2913TIP3    H2 8746   1.056   5.667   2.891
 2914TIP3   OH2 8747   2.594   2.940   2.176
 2914TIP3    H1 8748   2.507   2.934   2.216
 2914TIP3    H2 8749   2.599   3.029   2.142
 2915TIP3   OH2 8750   4.236   4.674   3.691
 2915TIP3    H1 8751   4.149   4.641   3.715
 2915TIP3    H2 8752   4.229   4.769   3.699
 2916TIP3   OH2 8753   5.845   0.728   4.423
 2916TIP3    H1 8754   5.906   0.761   4.489
 2916TIP3    H2 8755   5.758   0.744   4.460
 2917TIP3   OH2 8756   0.004   0.486   1.502
 2917TIP3    H1 8757   0.093   0.476   1.467
 2917TIP3    H2 8758  -0.049   0.513   1.427
 2918TIP3   OH2 8759   6.300   0.039   1.818
 2918TIP3    H1 8760   6.355   0.011   1.745
 2918TIP3    H2 8761   6.313   0.133   1.823
 2919TIP3   OH2 8762   2.800   2.602   0.348
 2919TIP3    H1 8763   2.798   2.698   0.351
 2919TIP3    H2 8764   2.710   2.577   0.325
 2920TIP3   OH2 8765   5.391   4.063   3.527
 2920TIP3    H1 8766   5.317   4.086   3.470
 2920TIP3    H2 8767   5.465   4.113   3.492
 2921TIP3   OH2 8768   0.144   2.109   0.349
 2921TIP3    H1 8769   0.224   2.076   0.308
 2921TIP3    H2 8770   0.122   2.042   0.414
 2922TIP3   OH2 8771   4.596   1.420   1.193
 2922TIP3    H1 8772   4.599   1.435   1.098
 2922TIP3    H2 8773   4.684   1.442   1.223
 2923TIP3   OH2 8774   0.402   1.074   3.408
 2923TIP3    H1 8775   0.423   1.128   3.332
 2923TIP3    H2 8776   0.477   1.017   3.419
 2924TIP3   OH2 8777   1.827   0.427   2.177
 2924TIP3    H1 8778   1.843   0.502   2.235
 2924TIP3    H2 8779   1.805   0.466   2.093
 2925TIP3   OH2 8780   0.565   2.472   2.335
 2925TIP3    H1 8781   0.573   2.531   2.411
 2925TIP3    H2 8782   0.638   2.411   2.345
 2926TIP3   OH2 8783   5.194   5.872   1.072
 2926TIP3    H1 8784   5.227   5.830   1.151
 2926TIP3    H2 8785   5.107   5.904   1.096
 2927TIP3   OH2 8786   2.930   3.608   4.412
 2927TIP3    H1 8787   2.864   3.544   4.436
 2927TIP3    H2 8788   3.005   3.556   4.381
 2928TIP3   OH2 8789   3.556   3.745   3.964
 2928TIP3    H1 8790   3.502   3.816   3.930
 2928TIP3    H2 8791   3.611   3.720   3.890
 2929TIP3   OH2 8792   5.098   3.382   2.506
 2929TIP3    H1 8793   5.193   3.389   2.497
 2929TIP3    H2 8794   5.080   3.288   2.493
 2930TIP3   OH2 8795   3.333   2.165   2.422
 2930TIP3    H1 8796   3.385   2.230   2.470
 2930TIP3    H2 8797   3.260   2.145   2.481
 2931TIP3   OH2 8798   5.838   0.092   4.987
 2931TIP3    H1 8799   5.912   0.042   4.953
 2931TIP3    H2 8800   5.807   0.144   4.913
 2932TIP3   OH2 8801   1.233   2.269   3.728
 2932TIP3    H1 8802   1.161   2.220   3.688
 2932TIP3    H2 8803   1.198   2.357   3.741
 2933TIP3   OH2 8804   1.693   0.595   4.873
 2933TIP3    H1 8805   1.727   0.585   4.784
 2933TIP3    H2 8806   1.770   0.613   4.927
 2934TIP3   OH2 8807   2.488   3.294   0.261
 2934TIP3    H1 8808   2.523   3.207   0.277
 2934TIP3    H2 8809   2.515   3.345   0.337
 2935TIP3   OH2 8810   1.654   2.517   3.795
 2935TIP3    H1 8811   1.584   2.530   3.732
 2935TIP3    H2 8812   1.656   2.598   3.846
 2936TIP3   OH2 8813   3.875   0.305   3.120
 2936TIP3    H1 8814   3.799   0.347   3.161
 2936TIP3    H2 8815   3.891   0.355   3.041
 2937TIP3   OH2 8816   2.641   4.910   3.764
 2937TIP3    H1 8817   2.668   4.851   3.834
 2937TIP3    H2 8818   2.702   4.892   3.693
 2938TIP3   OH2 8819   0.011   2.786   0.108
 2938TIP3    H1 8820   0.002   2.871   0.065
 2938TIP3    H2 8821   0.098   2.755   0.081
 2939TIP3   OH2 8822   0.515   0.474   3.957
 2939TIP3    H1 8823   0.529   0.395   4.009
 2939TIP3    H2 8824   0.434   0.512   3.993
 2940TIP3   OH2 8825   4.405   5.431   4.452
 2940TIP3    H1 8826   4.467   5.358   4.454
 2940TIP3    H2 8827   4.361   5.423   4.367
 2941TIP3   OH2 8828   2.778   5.796   3.953
 2941TIP3    H1 8829   2.786   5.863   4.021
 2941TIP3    H2 8830   2.745   5.719   3.999
 2942TIP3   OH2 8831   1.216   1.767   4.613
 2942TIP3    H1 8832   1.264   1.841   4.576
 2942TIP3    H2 8833   1.238   1.693   4.556
 2943TIP3   OH2 8834   1.565   4.265   0.982
 2943TIP3    H1 8835   1.517   4.214   0.917
 2943TIP3    H2 8836   1.619   4.201   1.028
 2944TIP3   OH2 8837   4.409   0.971   4.340
 2944TIP3    H1 8838   4.441   0.998   4.426
 2944TIP3    H2 8839   4.386   1.054   4.297
 2945TIP3   OH2 8840   4.514   5.439   2.699
 2945TIP3    H1 8841   4.428   5.477   2.715
 2945TIP3    H2 8842   4.498   5.368   2.638
 2946TIP3   OH2 8843   2.856   5.454   4.516
 2946TIP3    H1 8844   2.856   5.445   4.611
 2946TIP3    H2 8845   2.947   5.474   4.494
 2947TIP3   OH2 8846   1.585   5.908   1.659
 2947TIP3    H1 8847   1.508   5.869   1.617
 2947TIP3    H2 8848   1.633   5.833   1.693
 2948TIP3   OH2 8849   1.863   4.147   0.242
 2948TIP3    H1 8850   1.899   4.221   0.291
 2948TIP3    H2 8851   1.780   4.179   0.207
 2949TIP3   OH2 8852   5.194   0.850   0.600
 2949TIP3    H1 8853   5.107   0.874   0.571
 2949TIP3    H2 8854   5.199   0.756   0.586
 2950TIP3   OH2 8855   4.183   1.763   2.968
 2950TIP3    H1 8856   4.189   1.766   2.872
 2950TIP3    H2 8857   4.214   1.849   2.997
 2951TIP3   OH2 8858   3.400   3.800   1.236
 2951TIP3    H1 8859   3.493   3.800   1.211
 2951TIP3    H2 8860   3.399   3.762   1.324
 2952TIP3   OH2 8861   6.014   4.527   0.401
 2952TIP3    H1 8862   5.940   4.580   0.370
 2952TIP3    H2 8863   6.013   4.538   0.496
 2953TIP3   OH2 8864   6.000   3.747   0.100
 2953TIP3    H1 8865   6.015   3.766   0.007
 2953TIP3    H2 8866   5.906   3.727   0.105
 2954TIP3   OH2 8867   5.190   4.059   0.423
 2954TIP3    H1 8868   5.229   3.982   0.463
 2954TIP3    H2 8869   5.167   4.032   0.334
 2955TIP3   OH2 8870   2.480   1.770   2.259
 2955TIP3    H1 8871   2.489   1.832   2.187
 2955TIP3    H2 8872   2.493   1.684   2.218
 2956TIP3   OH2 8873   1.491   3.890   2.627
 2956TIP3    H1 8874   1.437   3.945   2.570
 2956TIP3    H2 8875   1.554   3.951   2.666
 2957TIP3   OH2 8876   3.889   4.799   2.279
 2957TIP3    H1 8877   3.912   4.709   2.302
 2957TIP3    H2 8878   3.886   4.798   2.183
 2958TIP3   OH2 8879   0.999   1.469   5.020
 2958TIP3    H1 8880   0.956   1.414   4.955
 2958TIP3    H2 8881   1.054   1.408   5.070
 2959TIP3   OH2 8882   0.373   2.370   3.355
 2959TIP3    H1 8883   0.290   2.334   3.324
 2959TIP3    H2 8884   0.351   2.415   3.437
 2960TIP3   OH2 8885   1.226   0.507   0.812
 2960TIP3    H1 8886   1.137   0.478   0.831
 2960TIP3    H2 8887   1.215   0.589   0.765
 2961TIP3   OH2 8888   0.133   4.181   2.374
 2961TIP3    H1 8889   0.138   4.275   2.358
 2961TIP3    H2 8890   0.175   4.169   2.460
 2962TIP3   OH2 8891   1.400   0.458   1.033
 2962TIP3    H1 8892   1.360   0.453   0.946
 2962TIP3    H2 8893   1.326   0.469   1.093
 2963TIP3   OH2 8894   3.516   0.959   5.035
 2963TIP3    H1 8895   3.577   0.946   5.107
 2963TIP3    H2 8896   3.529   1.050   5.008
 2964TIP3   OH2 8897   3.268   4.510   3.082
 2964TIP3    H1 8898   3.356   4.497   3.118
 2964TIP3    H2 8899   3.266   4.455   3.004
 2965TIP3   OH2 8900   0.947   2.661   2.336
 2965TIP3    H1 8901   0.870   2.711   2.363
 2965TIP3    H2 8902   0.954   2.591   2.402
 2966TIP3   OH2 8903   3.943   0.397   1.354
 2966TIP3    H1 8904   3.966   0.482   1.393
 2966TIP3    H2 8905   3.849   0.389   1.367
 2967TIP3   OH2 8906   2.822   4.624   0.643
 2967TIP3    H1 8907   2.832   4.713   0.610
 2967TIP3    H2 8908   2.875   4.621   0.723
 2968TIP3   OH2 8909   5.515   5.231   3.886
 2968TIP3    H1 8910   5.455   5.305   3.895
 2968TIP3    H2 8911   5.561   5.227   3.970
 2969TIP3   OH2 8912   1.942   0.487   2.816
 2969TIP3    H1 8913   2.003   0.435   2.765
 2969TIP3    H2 8914   1.949   0.454   2.905
 2970TIP3   OH2 8915   4.246   0.030   3.224
 2970TIP3    H1 8916   4.183   0.101   3.214
 2970TIP3    H2 8917   4.213  -0.040   3.168
 2971TIP3   OH2 8918   0.268   0.643   0.755
 2971TIP3    H1 8919   0.340   0.589   0.724
 2971TIP3    H2 8920   0.223   0.671   0.675
 2972TIP3   OH2 8921   4.348   0.350   2.197
 2972TIP3    H1 8922   4.418   0.403   2.159
 2972TIP3    H2 8923   4.285   0.414   2.232
 2973TIP3   OH2 8924   5.704   1.463   1.088
 2973TIP3    H1 8925   5.755   1.543   1.081
 2973TIP3    H2 8926   5.638   1.470   1.019
 2974TIP3   OH2 8927   2.319   0.941   1.462
 2974TIP3    H1 8928   2.277   0.929   1.547
 2974TIP3    H2 8929   2.259   0.997   1.413
 2975TIP3   OH2 8930   3.652   0.417   3.240
 2975TIP3    H1 8931   3.686   0.364   3.312
 2975TIP3    H2 8932   3.576   0.368   3.208
 2976TIP3   OH2 8933   2.504   0.205   1.468
 2976TIP3    H1 8934   2.486   0.112   1.481
 2976TIP3    H2 8935   2.533   0.212   1.377
 2977TIP3   OH2 8936   1.425   5.374   0.803
 2977TIP3    H1 8937   1.479   5.373   0.723
 2977TIP3    H2 8938   1.336   5.390   0.771
 2978TIP3   OH2 8939   2.753   5.852   1.105
 2978TIP3    H1 8940   2.695   5.928   1.107
 2978TIP3    H2 8941   2.697   5.778   1.081
 2979TIP3   OH2 8942   4.567   1.085   2.404
 2979TIP3    H1 8943   4.644   1.124   2.444
 2979TIP3    H2 8944   4.505   1.157   2.395
 2980TIP3   OH2 8945   2.506   0.570   5.071
 2980TIP3    H1 8946   2.450   0.544   4.998
 2980TIP3    H2 8947   2.566   0.497   5.082
 2981TIP3   OH2 8948   3.694   2.493   4.910
 2981TIP3    H1 8949   3.751   2.564   4.880
 2981TIP3    H2 8950   3.647   2.465   4.831
 2982TIP3   OH2 8951   5.655   4.556   4.874
 2982TIP3    H1 8952   5.664   4.465   4.849
 2982TIP3    H2 8953   5.717   4.603   4.819
 2983TIP3   OH2 8954   4.577   4.134   0.541
 2983TIP3    H1 8955   4.590   4.044   0.511
 2983TIP3    H2 8956   4.510   4.127   0.609
 2984TIP3   OH2 8957   5.171   2.125   1.449
 2984TIP3    H1 8958   5.193   2.041   1.489
 2984TIP3    H2 8959   5.212   2.190   1.507
 2985TIP3   OH2 8960   4.319   5.262   2.929
 2985TIP3    H1 8961   4.286   5.326   2.991
 2985TIP3    H2 8962   4.282   5.289   2.845
 2986TIP3   OH2 8963   0.772   1.773   0.998
 2986TIP3    H1 8964   0.703   1.772   1.064
 2986TIP3    H2 8965   0.728   1.796   0.917
 2987TIP3   OH2 8966   3.618   4.310   4.195
 2987TIP3    H1 8967   3.526   4.293   4.175
 2987TIP3    H2 8968   3.630   4.404   4.179
 2988TIP3   OH2 8969   1.285   3.370   2.612
 2988TIP3    H1 8970   1.211   3.312   2.630
 2988TIP3    H2 8971   1.358   3.334   2.664
 2989TIP3   OH2 8972   1.408   1.590   3.115
 2989TIP3    H1 8973   1.357   1.600   3.034
 2989TIP3    H2 8974   1.343   1.564   3.180
 2990TIP3   OH2 8975   4.787   0.641   4.438
 2990TIP3    H1 8976   4.804   0.671   4.349
 2990TIP3    H2 8977   4.873   0.641   4.480
 2991TIP3   OH2 8978   0.405   2.318   0.139
 2991TIP3    H1 8979   0.346   2.380   0.097
 2991TIP3    H2 8980   0.384   2.233   0.101
 2992TIP3   OH2 8981   1.307   2.573   3.140
 2992TIP3    H1 8982   1.289   2.485   3.108
 2992TIP3    H2 8983   1.324   2.624   3.061
 2993TIP3   OH2 8984   3.296   1.127   3.007
 2993TIP3    H1 8985   3.373   1.163   2.964
 2993TIP3    H2 8986   3.291   1.175   3.091
 2994TIP3   OH2 8987   0.587   2.125   4.130
 2994TIP3    H1 8988   0.669   2.077   4.138
 2994TIP3    H2 8989   0.594   2.197   4.192
 2995TIP3   OH2 8990   4.614   5.663   3.638
 2995TIP3    H1 8991   4.573   5.647   3.553
 2995TIP3    H2 8992   4.588   5.588   3.692
 2996TIP3   OH2 8993   3.175   1.238   4.912
 2996TIP3    H1 8994   3.083   1.237   4.884
 2996TIP3    H2 8995   3.182   1.318   4.965
 2997TIP3   OH2 8996   2.072   1.045   3.332
 2997TIP3    H1 8997   2.107   1.113   3.275
 2997TIP3    H2 8998   2.062   0.969   3.275
 2998TIP3   OH2 8999   2.955   0.114   1.862
 2998TIP3    H1 9000   2.874   0.153   1.894
 2998TIP3    H2 9001   2.950   0.023   1.890
 2999TIP3   OH2 9002   1.272   3.807   4.345
 2999TIP3    H1 9003   1.338   3.818   4.276
 2999TIP3    H2 9004   1.197   3.858   4.314
 3000TIP3   OH2 9005   5.838   3.474   2.397
 3000TIP3    H1 9006   5.836   3.378   2.406
 3000TIP3    H2 9007   5.763   3.494   2.341
 3001TIP3   OH2 9008   0.713   4.033   0.691
 3001TIP3    H1 9009   0.648   4.100   0.713
 3001TIP3    H2 9010   0.708   3.971   0.763
 3002TIP3   OH2 9011   1.699   3.906   3.393
 3002TIP3    H1 9012   1.658   3.861   3.319
 3002TIP3    H2 9013   1.721   3.836   3.454
 3003TIP3   OH2 9014   5.008   4.283   4.366
 3003TIP3    H1 9015   5.080   4.266   4.305
 3003TIP3    H2 9016   5.045   4.262   4.452
 3004TIP3   OH2 9017   5.677   1.828   0.491
 3004TIP3    H1 9018   5.726   1.817   0.410
 3004TIP3    H2 9019   5.664   1.739   0.524
 3005TIP3   OH2 9020   1.307   5.190   1.800
 3005TIP3    H1 9021   1.350   5.242   1.733
 3005TIP3    H2 9022   1.378   5.156   1.854
 3006TIP3   OH2 9023   3.924   4.506   5.004
 3006TIP3    H1 9024   3.904   4.585   4.952
 3006TIP3    H2 9025   3.872   4.437   4.964
 3007TIP3   OH2 9026   3.517   1.225   3.341
 3007TIP3    H1 9027   3.492   1.225   3.433
 3007TIP3    H2 9028   3.485   1.141   3.307
 3008TIP3   OH2 9029   1.128   2.424   0.126
 3008TIP3    H1 9030   1.175   2.491   0.174
 3008TIP3    H2 9031   1.098   2.363   0.194
 3009TIP3   OH2 9032   5.338   4.215   0.091
 3009TIP3    H1 9033   5.333   4.298   0.044
 3009TIP3    H2 9034   5.380   4.237   0.174
 3010TIP3   OH2 9035   6.094   3.229   5.035
 3010TIP3    H1 9036   6.075   3.293   5.105
 3010TIP3    H2 9037   6.131   3.154   5.081
 3011TIP3   OH2 9038   6.163   2.562   4.363
 3011TIP3    H1 9039   6.220   2.638   4.354
 3011TIP3    H2 9040   6.118   2.575   4.446
 3012TIP3   OH2 9041   1.764   2.930   3.395
 3012TIP3    H1 9042   1.852   2.917   3.361
 3012TIP3    H2 9043   1.709   2.939   3.318
 3013TIP3   OH2 9044   1.227   5.869   3.120
 3013TIP3    H1 9045   1.211   5.834   3.208
 3013TIP3    H2 9046   1.149   5.922   3.101
 3014TIP3   OH2 9047   1.232   3.726   4.046
 3014TIP3    H1 9048   1.228   3.822   4.049
 3014TIP3    H2 9049   1.323   3.705   4.066
 3015TIP3   OH2 9050   3.859   0.019   4.063
 3015TIP3    H1 9051   3.881   0.007   3.971
 3015TIP3    H2 9052   3.913   0.093   4.091
 3016TIP3   OH2 9053   3.358   0.019   2.340
 3016TIP3    H1 9054   3.418   0.067   2.398
 3016TIP3    H2 9055   3.348  -0.067   2.381
 3017TIP3   OH2 9056   0.552   5.888   4.075
 3017TIP3    H1 9057   0.477   5.834   4.101
 3017TIP3    H2 9058   0.523   5.978   4.090
 3018TIP3   OH2 9059   5.954   3.280   3.681
 3018TIP3    H1 9060   5.994   3.216   3.622
 3018TIP3    H2 9061   5.884   3.320   3.630
 3019TIP3   OH2 9062   1.022   0.223   1.275
 3019TIP3    H1 9063   0.963   0.287   1.316
 3019TIP3    H2 9064   1.071   0.274   1.211
 3020TIP3   OH2 9065   0.364   5.769   4.982
 3020TIP3    H1 9066   0.458   5.781   4.995
 3020TIP3    H2 9067   0.354   5.676   4.962
 3021TIP3   OH2 9068   2.316   3.747   4.564
 3021TIP3    H1 9069   2.226   3.715   4.563
 3021TIP3    H2 9070   2.354   3.707   4.643
 3022TIP3   OH2 9071   4.216   3.498   0.199
 3022TIP3    H1 9072   4.268   3.438   0.145
 3022TIP3    H2 9073   4.166   3.441   0.257
 3023TIP3   OH2 9074   2.993   2.645   0.575
 3023TIP3    H1 9075   2.947   2.676   0.653
 3023TIP3    H2 9076   2.931   2.585   0.533
 3024TIP3   OH2 9077   2.101   1.659   4.498
 3024TIP3    H1 9078   2.029   1.596   4.499
 3024TIP3    H2 9079   2.129   1.663   4.407
 3025TIP3   OH2 9080   1.427   2.420   4.889
 3025TIP3    H1 9081   1.366   2.386   4.955
 3025TIP3    H2 9082   1.513   2.411   4.929
 3026TIP3   OH2 9083   2.118   2.758   3.685
 3026TIP3    H1 9084   2.086   2.681   3.732
 3026TIP3    H2 9085   2.039   2.799   3.650
 3027TIP3   OH2 9086   1.899   1.838   1.629
 3027TIP3    H1 9087   1.932   1.766   1.574
 3027TIP3    H2 9088   1.971   1.855   1.690
 3028TIP3   OH2 9089   3.247   1.657   3.194
 3028TIP3    H1 9090   3.329   1.608   3.188
 3028TIP3    H2 9091   3.274   1.747   3.209
 3029TIP3   OH2 9092   5.541   0.015   3.829
 3029TIP3    H1 9093   5.539   0.085   3.763
 3029TIP3    H2 9094   5.467   0.035   3.886
 3030TIP3   OH2 9095   4.140   4.624   0.549
 3030TIP3    H1 9096   4.111   4.716   0.546
 3030TIP3    H2 9097   4.235   4.629   0.536
 3031TIP3   OH2 9098   2.136   2.497   3.016
 3031TIP3    H1 9099   2.079   2.574   3.007
 3031TIP3    H2 9100   2.197   2.520   3.086
 3032TIP3   OH2 9101   1.224   1.936   4.016
 3032TIP3    H1 9102   1.255   2.019   3.980
 3032TIP3    H2 9103   1.220   1.951   4.111
 3033TIP3   OH2 9104   3.940   1.869   3.520
 3033TIP3    H1 9105   3.912   1.839   3.607
 3033TIP3    H2 9106   4.006   1.806   3.492
 3034TIP3   OH2 9107   2.797   4.518   3.091
 3034TIP3    H1 9108   2.738   4.474   3.151
 3034TIP3    H2 9109   2.754   4.601   3.071
 3035TIP3   OH2 9110   1.879   3.810   1.961
 3035TIP3    H1 9111   1.828   3.865   2.020
 3035TIP3    H2 9112   1.858   3.721   1.987
 3036TIP3   OH2 9113   2.318   4.122   3.630
 3036TIP3    H1 9114   2.411   4.127   3.606
 3036TIP3    H2 9115   2.283   4.208   3.605
 3037TIP3   OH2 9116   1.302   1.295   1.421
 3037TIP3    H1 9117   1.264   1.334   1.500
 3037TIP3    H2 9118   1.319   1.370   1.364
 3038TIP3   OH2 9119   3.127   1.652   4.699
 3038TIP3    H1 9120   3.141   1.592   4.626
 3038TIP3    H2 9121   3.215   1.685   4.720
 3039TIP3   OH2 9122   5.086  -0.011   4.460
 3039TIP3    H1 9123   5.098   0.082   4.438
 3039TIP3    H2 9124   5.100  -0.016   4.554
 3040TIP3   OH2 9125   4.955   4.978   2.795
 3040TIP3    H1 9126   4.946   5.058   2.742
 3040TIP3    H2 9127   4.969   5.010   2.884
 3041TIP3   OH2 9128   6.127   2.139   3.665
 3041TIP3    H1 9129   6.057   2.079   3.640
 3041TIP3    H2 9130   6.151   2.113   3.754
 3042TIP3   OH2 9131   1.058   4.054   0.184
 3042TIP3    H1 9132   1.031   4.094   0.101
 3042TIP3    H2 9133   0.980   4.009   0.215
 3043TIP3   OH2 9134   6.261   4.646   2.994
 3043TIP3    H1 9135   6.187   4.639   3.053
 3043TIP3    H2 9136   6.269   4.739   2.975
 3044TIP3   OH2 9137   2.638   4.644   2.728
 3044TIP3    H1 9138   2.719   4.594   2.733
 3044TIP3    H2 9139   2.609   4.636   2.637
 3045TIP3   OH2 9140   5.651   3.438   4.449
 3045TIP3    H1 9141   5.692   3.516   4.487
 3045TIP3    H2 9142   5.721   3.374   4.445
 3046TIP3   OH2 9143   2.336   1.327   0.980
 3046TIP3    H1 9144   2.384   1.402   0.948
 3046TIP3    H2 9145   2.251   1.362   1.008
 3047TIP3   OH2 9146   3.240   1.710   1.632
 3047TIP3    H1 9147   3.284   1.625   1.627
 3047TIP3    H2 9148   3.275   1.759   1.557
 3048TIP3   OH2 9149   2.868   1.592   2.990
 3048TIP3    H1 9150   2.862   1.514   3.045
 3048TIP3    H2 9151   2.800   1.650   3.024
 3049TIP3   OH2 9152   6.295   3.993   0.822
 3049TIP3    H1 9153   6.254   4.078   0.841
 3049TIP3    H2 9154   6.232   3.948   0.765
 3050TIP3   OH2 9155   6.084   1.148   1.220
 3050TIP3    H1 9156   6.127   1.138   1.306
 3050TIP3    H2 9157   5.992   1.165   1.241
 3051TIP3   OH2 9158   5.793   1.043   5.173
 3051TIP3    H1 9159   5.796   1.106   5.101
 3051TIP3    H2 9160   5.711   0.996   5.159
 3052TIP3   OH2 9161   1.937   5.755   1.613
 3052TIP3    H1 9162   1.919   5.827   1.552
 3052TIP3    H2 9163   2.001   5.792   1.674
 3053TIP3   OH2 9164   2.047   2.192   1.723
 3053TIP3    H1 9165   2.018   2.282   1.739
 3053TIP3    H2 9166   2.113   2.199   1.654
 3054TIP3   OH2 9167   0.497   4.604   0.334
 3054TIP3    H1 9168   0.540   4.544   0.396
 3054TIP3    H2 9169   0.555   4.680   0.330
 3055TIP3   OH2 9170   4.884   0.459   2.115
 3055TIP3    H1 9171   4.864   0.389   2.176
 3055TIP3    H2 9172   4.973   0.441   2.085
 3056TIP3   OH2 9173   0.859   1.519   1.743
 3056TIP3    H1 9174   0.908   1.537   1.823
 3056TIP3    H2 9175   0.798   1.593   1.736
 3057TIP3   OH2 9176   5.751   0.857   0.111
 3057TIP3    H1 9177   5.744   0.941   0.066
 3057TIP3    H2 9178   5.797   0.800   0.050
 3058TIP3   OH2 9179   2.210   4.968   4.551
 3058TIP3    H1 9180   2.212   4.879   4.586
 3058TIP3    H2 9181   2.232   5.023   4.625
 3059TIP3   OH2 9182   5.668   5.199   2.066
 3059TIP3    H1 9183   5.603   5.176   2.132
 3059TIP3    H2 9184   5.701   5.285   2.092
 3060TIP3   OH2 9185   2.511   0.472   1.160
 3060TIP3    H1 9186   2.432   0.447   1.209
 3060TIP3    H2 9187   2.559   0.529   1.221
 3061TIP3   OH2 9188   0.364   1.321   1.600
 3061TIP3    H1 9189   0.344   1.354   1.687
 3061TIP3    H2 9190   0.356   1.397   1.543
 3062TIP3   OH2 9191   2.527   5.645   3.436
 3062TIP3    H1 9192   2.563   5.559   3.412
 3062TIP3    H2 9193   2.449   5.654   3.382
 3063TIP3   OH2 9194   5.178   4.845   1.641
 3063TIP3    H1 9195   5.229   4.819   1.718
 3063TIP3    H2 9196   5.237   4.898   1.589
 3064TIP3   OH2 9197   2.535   5.576   3.834
 3064TIP3    H1 9198   2.490   5.597   3.916
 3064TIP3    H2 9199   2.609   5.521   3.860
 3065TIP3   OH2 9200   6.248   0.326   2.372
 3065TIP3    H1 9201   6.161   0.362   2.355
 3065TIP3    H2 9202   6.257   0.329   2.467
 3066TIP3   OH2 9203   6.197   5.839   5.041
 3066TIP3    H1 9204   6.218   5.932   5.051
 3066TIP3    H2 9205   6.194   5.806   5.131
 3067TIP3   OH2 9206   5.513   2.569   0.612
 3067TIP3    H1 9207   5.455   2.645   0.617
 3067TIP3    H2 9208   5.550   2.561   0.700
 3068TIP3   OH2 9209   5.601   5.296   1.088
 3068TIP3    H1 9210   5.667   5.345   1.040
 3068TIP3    H2 9211   5.635   5.289   1.177
 3069TIP3   OH2 9212   6.167   4.150   1.474
 3069TIP3    H1 9213   6.167   4.129   1.380
 3069TIP3    H2 9214   6.093   4.210   1.484
 3070TIP3   OH2 9215   5.489   2.868   0.196
 3070TIP3    H1 9216   5.436   2.878   0.275
 3070TIP3    H2 9217   5.579   2.867   0.228
 3071TIP3   OH2 9218   0.702   0.332   3.754
 3071TIP3    H1 9219   0.633   0.357   3.815
 3071TIP3    H2 9220   0.657   0.321   3.670
 3072TIP3   OH2 9221   5.957   3.597   4.027
 3072TIP3    H1 9222   5.873   3.560   3.997
 3072TIP3    H2 9223   6.021   3.563   3.965
 3073TIP3   OH2 9224   5.212   1.183   2.503
 3073TIP3    H1 9225   5.229   1.110   2.562
 3073TIP3    H2 9226   5.275   1.173   2.432
 3074TIP3   OH2 9227   3.124   2.469   4.789
 3074TIP3    H1 9228   3.213   2.433   4.786
 3074TIP3    H2 9229   3.086   2.447   4.704
 3075TIP3   OH2 9230   3.020   2.188   0.615
 3075TIP3    H1 9231   2.993   2.242   0.541
 3075TIP3    H2 9232   2.958   2.208   0.684
 3076TIP3   OH2 9233   0.112   2.109   2.292
 3076TIP3    H1 9234   0.051   2.105   2.218
 3076TIP3    H2 9235   0.117   2.202   2.315
 3077TIP3   OH2 9236   1.399   4.185   3.745
 3077TIP3    H1 9237   1.329   4.250   3.751
 3077TIP3    H2 9238   1.386   4.145   3.658
 3078TIP3   OH2 9239   5.203   4.019   3.764
 3078TIP3    H1 9240   5.276   4.045   3.707
 3078TIP3    H2 9241   5.233   3.938   3.806
 3079TIP3   OH2 9242   0.081   3.567   4.572
 3079TIP3    H1 9243   0.007   3.603   4.523
 3079TIP3    H2 9244   0.086   3.476   4.544
 3080TIP3   OH2 9245   1.202   3.486   3.879
 3080TIP3    H1 9246   1.293   3.502   3.852
 3080TIP3    H2 9247   1.175   3.566   3.923
 3081TIP3   OH2 9248   0.163   3.863   0.050
 3081TIP3    H1 9249   0.119   3.846   0.134
 3081TIP3    H2 9250   0.196   3.953   0.059
 3082TIP3   OH2 9251   1.490   3.830   4.201
 3082TIP3    H1 9252   1.531   3.838   4.115
 3082TIP3    H2 9253   1.535   3.755   4.241
 3083TIP3   OH2 9254   1.086   3.963   3.815
 3083TIP3    H1 9255   1.154   3.903   3.784
 3083TIP3    H2 9256   1.052   4.004   3.735
 3084TIP3   OH2 9257   0.856   0.012   3.180
 3084TIP3    H1 9258   0.839  -0.043   3.256
 3084TIP3    H2 9259   0.816   0.096   3.202
 3085TIP3   OH2 9260   2.630   2.570   3.629
 3085TIP3    H1 9261   2.624   2.488   3.679
 3085TIP3    H2 9262   2.545   2.579   3.587
 3086TIP3   OH2 9263   2.051   4.266   2.017
 3086TIP3    H1 9264   1.988   4.257   1.946
 3086TIP3    H2 9265   2.119   4.202   1.997
 3087TIP3   OH2 9266   2.382   1.682   3.560
 3087TIP3    H1 9267   2.295   1.718   3.543
 3087TIP3    H2 9268   2.408   1.643   3.476
 3088TIP3   OH2 9269   2.115   1.509   3.597
 3088TIP3    H1 9270   2.139   1.425   3.560
 3088TIP3    H2 9271   2.066   1.553   3.528
 3089TIP3   OH2 9272   2.154   2.225   3.940
 3089TIP3    H1 9273   2.225   2.286   3.920
 3089TIP3    H2 9274   2.196   2.139   3.942
 3090TIP3   OH2 9275   5.564   1.733   4.764
 3090TIP3    H1 9276   5.528   1.656   4.807
 3090TIP3    H2 9277   5.516   1.740   4.682
 3091TIP3   OH2 9278   1.912   5.661   4.296
 3091TIP3    H1 9279   1.922   5.750   4.262
 3091TIP3    H2 9280   1.901   5.672   4.390
 3092TIP3   OH2 9281   4.488   4.432   4.631
 3092TIP3    H1 9282   4.396   4.447   4.653
 3092TIP3    H2 9283   4.533   4.437   4.715
 3093TIP3   OH2 9284   1.797   3.398   3.702
 3093TIP3    H1 9285   1.775   3.447   3.781
 3093TIP3    H2 9286   1.770   3.308   3.721
 3094TIP3   OH2 9287   3.211   2.203   0.832
 3094TIP3    H1 9288   3.181   2.123   0.875
 3094TIP3    H2 9289   3.141   2.225   0.771
 3095TIP3   OH2 9290   1.171   2.925  -0.007
 3095TIP3    H1 9291   1.234   2.853  -0.006
 3095TIP3    H2 9292   1.116   2.910   0.070
 3096TIP3   OH2 9293   0.476   1.230   1.376
 3096TIP3    H1 9294   0.426   1.250   1.455
 3096TIP3    H2 9295   0.501   1.139   1.386
 3097TIP3   OH2 9296   6.255   4.001   4.361
 3097TIP3    H1 9297   6.187   3.965   4.304
 3097TIP3    H2 9298   6.242   4.096   4.355
 3098TIP3   OH2 9299   2.409   5.599   2.311
 3098TIP3    H1 9300   2.495   5.572   2.343
 3098TIP3    H2 9301   2.415   5.694   2.302
 3099TIP3   OH2 9302   2.035   4.834   3.717
 3099TIP3    H1 9303   2.044   4.787   3.800
 3099TIP3    H2 9304   2.103   4.797   3.661
 3100TIP3   OH2 9305   4.486   4.784   4.914
 3100TIP3    H1 9306   4.511   4.874   4.890
 3100TIP3    H2 9307   4.428   4.795   4.989
 3101TIP3   OH2 9308   1.194   2.179   4.563
 3101TIP3    H1 9309   1.151   2.207   4.643
 3101TIP3    H2 9310   1.262   2.118   4.592
 3102TIP3   OH2 9311   1.720   1.629   0.675
 3102TIP3    H1 9312   1.673   1.578   0.608
 3102TIP3    H2 9313   1.806   1.587   0.680
 3103TIP3   OH2 9314   5.654   4.821   3.674
 3103TIP3    H1 9315   5.653   4.843   3.767
 3103TIP3    H2 9316   5.651   4.905   3.629
 3104TIP3   OH2 9317   2.988   1.949   1.722
 3104TIP3    H1 9318   2.974   1.856   1.741
 3104TIP3    H2 9319   3.014   1.951   1.630
 3105TIP3   OH2 9320   3.568   2.934   0.391
 3105TIP3    H1 9321   3.556   2.850   0.434
 3105TIP3    H2 9322   3.483   2.977   0.399
 3106TIP3   OH2 9323   3.816   0.594   0.192
 3106TIP3    H1 9324   3.821   0.686   0.166
 3106TIP3    H2 9325   3.738   0.589   0.246
 3107TIP3   OH2 9326   1.573   0.715   1.090
 3107TIP3    H1 9327   1.492   0.765   1.079
 3107TIP3    H2 9328   1.630   0.771   1.142
 3108TIP3   OH2 9329   1.132   3.846   1.766
 3108TIP3    H1 9330   1.094   3.899   1.696
 3108TIP3    H2 9331   1.078   3.767   1.769
 3109TIP3   OH2 9332   3.118   0.360   1.983
 3109TIP3    H1 9333   3.099   0.266   1.990
 3109TIP3    H2 9334   3.127   0.375   1.889
 3110TIP3   OH2 9335   0.725   2.849   0.727
 3110TIP3    H1 9336   0.678   2.804   0.797
 3110TIP3    H2 9337   0.780   2.781   0.689
 3111TIP3   OH2 9338   3.721   1.291   2.462
 3111TIP3    H1 9339   3.631   1.317   2.480
 3111TIP3    H2 9340   3.748   1.242   2.539
 3112TIP3   OH2 9341   1.275   1.863   1.175
 3112TIP3    H1 9342   1.209   1.794   1.177
 3112TIP3    H2 9343   1.291   1.879   1.082
 3113TIP3   OH2 9344   6.192   3.588   3.022
 3113TIP3    H1 9345   6.134   3.648   2.974
 3113TIP3    H2 9346   6.278   3.629   3.015
 3114TIP3   OH2 9347   3.802   2.372   4.025
 3114TIP3    H1 9348   3.744   2.296   4.032
 3114TIP3    H2 9349   3.866   2.347   3.958
 3115TIP3   OH2 9350   1.206   1.180   4.196
 3115TIP3    H1 9351   1.183   1.202   4.106
 3115TIP3    H2 9352   1.130   1.134   4.230
 3116TIP3   OH2 9353   3.493   5.005   1.268
 3116TIP3    H1 9354   3.549   4.941   1.312
 3116TIP3    H2 9355   3.553   5.052   1.209
 3117TIP3   OH2 9356   1.602   3.442   4.547
 3117TIP3    H1 9357   1.611   3.380   4.620
 3117TIP3    H2 9358   1.514   3.478   4.557
 3118TIP3   OH2 9359   5.023   2.556   3.384
 3118TIP3    H1 9360   5.008   2.462   3.387
 3118TIP3    H2 9361   5.114   2.567   3.412
 3119TIP3   OH2 9362   0.699   5.540   3.128
 3119TIP3    H1 9363   0.634   5.479   3.093
 3119TIP3    H2 9364   0.761   5.485   3.175
 3120TIP3   OH2 9365   5.612   4.453   1.104
 3120TIP3    H1 9366   5.631   4.543   1.130
 3120TIP3    H2 9367   5.554   4.420   1.172
 3121TIP3   OH2 9368   0.103   3.259   5.044
 3121TIP3    H1 9369   0.068   3.198   5.109
 3121TIP3    H2 9370   0.028   3.313   5.018
 3122TIP3   OH2 9371   1.851   3.538   4.532
 3122TIP3    H1 9372   1.921   3.501   4.477
 3122TIP3    H2 9373   1.776   3.480   4.517
 3123TIP3   OH2 9374   3.631   5.058   4.827
 3123TIP3    H1 9375   3.612   5.097   4.742
 3123TIP3    H2 9376   3.722   5.082   4.844
 3124TIP3   OH2 9377   5.039   4.350   3.683
 3124TIP3    H1 9378   4.971   4.411   3.653
 3124TIP3    H2 9379   5.114   4.368   3.627
 3125TIP3   OH2 9380   4.871   1.274   3.126
 3125TIP3    H1 9381   4.925   1.257   3.048
 3125TIP3    H2 9382   4.865   1.189   3.169
 3126TIP3   OH2 9383   0.314   2.646   0.626
 3126TIP3    H1 9384   0.304   2.740   0.644
 3126TIP3    H2 9385   0.377   2.642   0.554
 3127TIP3   OH2 9386   4.927   3.643   0.156
 3127TIP3    H1 9387   4.922   3.597   0.240
 3127TIP3    H2 9388   4.890   3.730   0.174
 3128TIP3   OH2 9389   1.105   0.101   4.780
 3128TIP3    H1 9390   1.088   0.175   4.722
 3128TIP3    H2 9391   1.075   0.025   4.730
 3129TIP3   OH2 9392   5.832   5.016   3.232
 3129TIP3    H1 9393   5.815   4.986   3.143
 3129TIP3    H2 9394   5.803   4.944   3.288
 3130TIP3   OH2 9395   3.198   4.414   2.598
 3130TIP3    H1 9396   3.144   4.401   2.676
 3130TIP3    H2 9397   3.229   4.504   2.605
 3131TIP3   OH2 9398   2.285   1.502   4.051
 3131TIP3    H1 9399   2.269   1.410   4.071
 3131TIP3    H2 9400   2.296   1.504   3.956
 3132TIP3   OH2 9401   1.672   0.205   4.449
 3132TIP3    H1 9402   1.738   0.252   4.399
 3132TIP3    H2 9403   1.596   0.202   4.392
 3133TIP3   OH2 9404   3.104   3.859   1.244
 3133TIP3    H1 9405   3.166   3.790   1.222
 3133TIP3    H2 9406   3.045   3.863   1.169
 3134TIP3   OH2 9407   0.136   1.792   5.208
 3134TIP3    H1 9408   0.107   1.803   5.118
 3134TIP3    H2 9409   0.086   1.856   5.258
 3135TIP3   OH2 9410   4.812   5.470   1.618
 3135TIP3    H1 9411   4.875   5.403   1.645
 3135TIP3    H2 9412   4.843   5.551   1.659
 3136TIP3   OH2 9413   4.839   4.567   4.004
 3136TIP3    H1 9414   4.881   4.520   4.075
 3136TIP3    H2 9415   4.783   4.501   3.962
 3137TIP3   OH2 9416   1.581   3.349   3.160
 3137TIP3    H1 9417   1.520   3.276   3.159
 3137TIP3    H2 9418   1.552   3.406   3.089
 3138TIP3   OH2 9419   0.145   4.860   0.539
 3138TIP3    H1 9420   0.121   4.860   0.631
 3138TIP3    H2 9421   0.068   4.892   0.493
 3139TIP3   OH2 9422   4.335   4.299   1.111
 3139TIP3    H1 9423   4.428   4.313   1.128
 3139TIP3    H2 9424   4.330   4.212   1.070
 3140TIP3   OH2 9425   4.793   3.880   3.620
 3140TIP3    H1 9426   4.746   3.903   3.540
 3140TIP3    H2 9427   4.839   3.961   3.644
 3141TIP3   OH2 9428   3.509   0.910   4.165
 3141TIP3    H1 9429   3.461   0.837   4.206
 3141TIP3    H2 9430   3.492   0.900   4.072
 3142TIP3   OH2 9431   4.063   4.137   4.775
 3142TIP3    H1 9432   4.094   4.186   4.698
 3142TIP3    H2 9433   4.143   4.099   4.812
 3143TIP3   OH2 9434   0.486   0.868   0.240
 3143TIP3    H1 9435   0.561   0.923   0.219
 3143TIP3    H2 9436   0.421   0.889   0.172
 3144TIP3   OH2 9437   0.774   0.063   3.990
 3144TIP3    H1 9438   0.868   0.057   4.006
 3144TIP3    H2 9439   0.766   0.075   3.896
 3145TIP3   OH2 9440   4.626   1.007   3.214
 3145TIP3    H1 9441   4.562   0.939   3.235
 3145TIP3    H2 9442   4.642   0.998   3.120
 3146TIP3   OH2 9443   3.431   1.209   0.948
 3146TIP3    H1 9444   3.426   1.119   0.916
 3146TIP3    H2 9445   3.373   1.259   0.891
 3147TIP3   OH2 9446   0.317   2.201   3.939
 3147TIP3    H1 9447   0.382   2.254   3.984
 3147TIP3    H2 9448   0.323   2.228   3.847
 3148TIP3   OH2 9449   5.176   0.517   1.745
 3148TIP3    H1 9450   5.133   0.453   1.688
 3148TIP3    H2 9451   5.229   0.570   1.686
 3149TIP3   OH2 9452   2.101   4.554   0.501
 3149TIP3    H1 9453   2.128   4.541   0.592
 3149TIP3    H2 9454   2.075   4.646   0.497
 3150TIP3   OH2 9455   2.000   3.545   2.114
 3150TIP3    H1 9456   1.921   3.496   2.136
 3150TIP3    H2 9457   2.067   3.478   2.099
 3151TIP3   OH2 9458   2.027   1.839   2.762
 3151TIP3    H1 9459   2.057   1.869   2.848
 3151TIP3    H2 9460   1.974   1.762   2.781
 3152TIP3   OH2 9461   0.666   3.596   0.459
 3152TIP3    H1 9462   0.755   3.632   0.459
 3152TIP3    H2 9463   0.647   3.578   0.551
 3153TIP3   OH2 9464   4.333   5.974   1.229
 3153TIP3    H1 9465   4.391   5.904   1.260
 3153TIP3    H2 9466   4.374   6.055   1.258
 3154TIP3   OH2 9467   0.822   0.775   5.134
 3154TIP3    H1 9468   0.821   0.858   5.182
 3154TIP3    H2 9469   0.778   0.714   5.192
 3155TIP3   OH2 9470   6.219   3.953   1.720
 3155TIP3    H1 9471   6.243   3.875   1.670
 3155TIP3    H2 9472   6.179   4.012   1.655
 3156TIP3   OH2 9473   3.870   3.746   3.253
 3156TIP3    H1 9474   3.926   3.680   3.210
 3156TIP3    H2 9475   3.916   3.829   3.239
 3157TIP3   OH2 9476   5.268   3.212   1.484
 3157TIP3    H1 9477   5.216   3.136   1.460
 3157TIP3    H2 9478   5.332   3.221   1.413
 3158TIP3   OH2 9479   0.852   1.232   1.788
 3158TIP3    H1 9480   0.909   1.228   1.864
 3158TIP3    H2 9481   0.853   1.324   1.761
 3159TIP3   OH2 9482   5.829   1.367   0.547
 3159TIP3    H1 9483   5.779   1.390   0.625
 3159TIP3    H2 9484   5.772   1.392   0.474
 3160TIP3   OH2 9485   1.640   1.817   4.462
 3160TIP3    H1 9486   1.724   1.844   4.500
 3160TIP3    H2 9487   1.634   1.724   4.483
 3161TIP3   OH2 9488   5.653   5.377   2.970
 3161TIP3    H1 9489   5.570   5.423   2.978
 3161TIP3    H2 9490   5.633   5.300   2.916
 3162TIP3   OH2 9491   1.935   4.170   4.722
 3162TIP3    H1 9492   1.992   4.181   4.646
 3162TIP3    H2 9493   1.976   4.099   4.772
 3163TIP3   OH2 9494   3.939   0.947   1.714
 3163TIP3    H1 9495   3.850   0.917   1.697
 3163TIP3    H2 9496   3.936   0.985   1.802
 3164TIP3   OH2 9497   2.911   2.271   2.288
 3164TIP3    H1 9498   2.987   2.291   2.233
 3164TIP3    H2 9499   2.844   2.334   2.260
 3165TIP3   OH2 9500   5.313   4.505   1.356
 3165TIP3    H1 9501   5.335   4.473   1.444
 3165TIP3    H2 9502   5.324   4.600   1.362
 3166TIP3   OH2 9503   6.216   2.644   2.859
 3166TIP3    H1 9504   6.151   2.696   2.906
 3166TIP3    H2 9505   6.196   2.553   2.882
 3167TIP3   OH2 9506   3.812   5.678   2.648
 3167TIP3    H1 9507   3.906   5.692   2.635
 3167TIP3    H2 9508   3.790   5.730   2.726
 3168TIP3   OH2 9509   1.745   4.029   5.025
 3168TIP3    H1 9510   1.650   4.040   5.036
 3168TIP3    H2 9511   1.755   4.001   4.934
 3169TIP3   OH2 9512   1.047   5.735   3.686
 3169TIP3    H1 9513   1.011   5.824   3.679
 3169TIP3    H2 9514   1.139   5.744   3.660
 3170TIP3   OH2 9515   1.864   3.657   0.435
 3170TIP3    H1 9516   1.831   3.737   0.395
 3170TIP3    H2 9517   1.934   3.628   0.377
 3171TIP3   OH2 9518   2.399   1.009   3.540
 3171TIP3    H1 9519   2.372   0.971   3.624
 3171TIP3    H2 9520   2.437   1.094   3.563
 3172TIP3   OH2 9521   1.882   5.253   2.689
 3172TIP3    H1 9522   1.973   5.268   2.713
 3172TIP3    H2 9523   1.852   5.185   2.749
 3173TIP3   OH2 9524   0.954   4.520   2.116
 3173TIP3    H1 9525   1.010   4.452   2.078
 3173TIP3    H2 9526   0.990   4.602   2.081
 3174TIP3   OH2 9527   1.044   1.161   2.012
 3174TIP3    H1 9528   1.053   1.096   2.083
 3174TIP3    H2 9529   1.000   1.235   2.053
 3175TIP3   OH2 9530   1.725   2.245   4.660
 3175TIP3    H1 9531   1.763   2.178   4.717
 3175TIP3    H2 9532   1.775   2.324   4.681
 3176TIP3   OH2 9533   5.455   3.787   3.578
 3176TIP3    H1 9534   5.465   3.878   3.551
 3176TIP3    H2 9535   5.362   3.777   3.598
 3177TIP3   OH2 9536   0.436   1.439   5.225
 3177TIP3    H1 9537   0.427   1.510   5.162
 3177TIP3    H2 9538   0.512   1.389   5.194
 3178TIP3   OH2 9539   4.372   0.174   4.693
 3178TIP3    H1 9540   4.284   0.139   4.703
 3178TIP3    H2 9541   4.370   0.221   4.609
 3179TIP3   OH2 9542   5.547   0.120   1.213
 3179TIP3    H1 9543   5.611   0.102   1.281
 3179TIP3    H2 9544   5.586   0.190   1.161
 3180TIP3   OH2 9545   3.712   5.467   0.389
 3180TIP3    H1 9546   3.658   5.455   0.466
 3180TIP3    H2 9547   3.674   5.541   0.343
 3181TIP3   OH2 9548   0.939  -0.013   1.423
 3181TIP3    H1 9549   0.944   0.056   1.357
 3181TIP3    H2 9550   0.879   0.022   1.489
 3182TIP3   OH2 9551   5.368   2.049   4.013
 3182TIP3    H1 9552   5.312   1.973   4.030
 3182TIP3    H2 9553   5.408   2.068   4.098
 3183TIP3   OH2 9554   1.918   4.687   4.715
 3183TIP3    H1 9555   1.900   4.594   4.731
 3183TIP3    H2 9556   1.913   4.728   4.802
 3184TIP3   OH2 9557   2.357   2.538   1.968
 3184TIP3    H1 9558   2.343   2.535   1.873
 3184TIP3    H2 9559   2.424   2.472   1.984
 3185TIP3   OH2 9560   4.148   5.768   3.114
 3185TIP3    H1 9561   4.170   5.835   3.049
 3185TIP3    H2 9562   4.232   5.742   3.151
 3186TIP3   OH2 9563   0.218   0.550   1.022
 3186TIP3    H1 9564   0.186   0.588   0.940
 3186TIP3    H2 9565   0.165   0.592   1.090
 3187TIP3   OH2 9566   3.282   1.322   1.304
 3187TIP3    H1 9567   3.372   1.327   1.271
 3187TIP3    H2 9568   3.277   1.236   1.346
 3188TIP3   OH2 9569   1.197   2.197   1.376
 3188TIP3    H1 9570   1.233   2.242   1.300
 3188TIP3    H2 9571   1.266   2.135   1.402
 3189TIP3   OH2 9572   1.206   1.652   0.655
 3189TIP3    H1 9573   1.276   1.605   0.700
 3189TIP3    H2 9574   1.250   1.728   0.617
 3190TIP3   OH2 9575   3.135   5.894   4.926
 3190TIP3    H1 9576   3.205   5.908   4.990
 3190TIP3    H2 9577   3.070   5.841   4.973
 3191TIP3   OH2 9578   4.487   0.318   3.501
 3191TIP3    H1 9579   4.398   0.338   3.531
 3191TIP3    H2 9580   4.485   0.225   3.480
 3192TIP3   OH2 9581   2.682   5.863   2.457
 3192TIP3    H1 9582   2.678   5.770   2.433
 3192TIP3    H2 9583   2.645   5.866   2.545
 3193TIP3   OH2 9584   1.510   3.780   0.618
 3193TIP3    H1 9585   1.480   3.724   0.546
 3193TIP3    H2 9586   1.546   3.857   0.574
 3194TIP3   OH2 9587   2.767   1.132   3.533
 3194TIP3    H1 9588   2.788   1.224   3.517
 3194TIP3    H2 9589   2.697   1.135   3.599
 3195TIP3   OH2 9590   1.635   5.141   1.798
 3195TIP3    H1 9591   1.652   5.235   1.797
 3195TIP3    H2 9592   1.616   5.118   1.707
 3196TIP3   OH2 9593   5.147   2.770   3.856
 3196TIP3    H1 9594   5.065   2.744   3.898
 3196TIP3    H2 9595   5.206   2.695   3.868
 3197TIP3   OH2 9596   2.570   3.015   0.298
 3197TIP3    H1 9597   2.518   2.947   0.256
 3197TIP3    H2 9598   2.530   3.026   0.384
 3198TIP3   OH2 9599   2.311   3.401   1.242
 3198TIP3    H1 9600   2.371   3.376   1.311
 3198TIP3    H2 9601   2.308   3.497   1.246
 3199TIP3   OH2 9602   4.015   4.115   5.153
 3199TIP3    H1 9603   3.989   4.072   5.235
 3199TIP3    H2 9604   3.945   4.094   5.091
 3200TIP3   OH2 9605   2.612   4.397   1.153
 3200TIP3    H1 9606   2.676   4.329   1.172
 3200TIP3    H2 9607   2.658   4.479   1.169
 3201TIP3   OH2 9608   5.879   3.928   2.938
 3201TIP3    H1 9609   5.897   3.991   2.868
 3201TIP3    H2 9610   5.934   3.958   3.011
 3202TIP3   OH2 9611   3.163   0.075   3.012
 3202TIP3    H1 9612   3.087   0.105   3.062
 3202TIP3    H2 9613   3.127   0.045   2.929
 3203TIP3   OH2 9614   5.120   0.779   0.886
 3203TIP3    H1 9615   5.184   0.826   0.941
 3203TIP3    H2 9616   5.133   0.815   0.798
 3204TIP3   OH2 9617   3.995   2.870   3.235
 3204TIP3    H1 9618   4.002   2.774   3.234
 3204TIP3    H2 9619   3.998   2.893   3.328
 3205TIP3   OH2 9620   3.595   1.098   0.676
 3205TIP3    H1 9621   3.564   1.040   0.606
 3205TIP3    H2 9622   3.533   1.085   0.747
 3206TIP3   OH2 9623   5.356   2.808   2.605
 3206TIP3    H1 9624   5.383   2.872   2.670
 3206TIP3    H2 9625   5.321   2.860   2.533
 3207TIP3   OH2 9626   3.866   4.704   1.492
 3207TIP3    H1 9627   3.827   4.652   1.563
 3207TIP3    H2 9628   3.950   4.661   1.474
 3208TIP3   OH2 9629   3.821   4.681   0.575
 3208TIP3    H1 9630   3.908   4.645   0.591
 3208TIP3    H2 9631   3.790   4.635   0.497
 3209TIP3   OH2 9632   3.923   2.609   3.354
 3209TIP3    H1 9633   3.866   2.654   3.416
 3209TIP3    H2 9634   3.874   2.532   3.327
 3210TIP3   OH2 9635   4.635   2.217   2.514
 3210TIP3    H1 9636   4.639   2.184   2.603
 3210TIP3    H2 9637   4.591   2.301   2.521
 3211TIP3   OH2 9638   0.461   5.547   0.410
 3211TIP3    H1 9639   0.487   5.565   0.500
 3211TIP3    H2 9640   0.544   5.532   0.364
 3212TIP3   OH2 9641   2.752   2.953   0.667
 3212TIP3    H1 9642   2.704   3.024   0.709
 3212TIP3    H2 9643   2.812   2.997   0.607
 3213TIP3   OH2 9644   4.907   3.023   3.006
 3213TIP3    H1 9645   4.946   2.969   3.075
 3213TIP3    H2 9646   4.814   3.028   3.030
 3214TIP3   OH2 9647   4.390   3.912   0.463
 3214TIP3    H1 9648   4.337   3.982   0.500
 3214TIP3    H2 9649   4.331   3.837   0.456
 3215TIP3   OH2 9650   0.268   5.041   0.223
 3215TIP3    H1 9651   0.231   4.964   0.179
 3215TIP3    H2 9652   0.198   5.106   0.219
 3216TIP3   OH2 9653   3.054   5.639   0.797
 3216TIP3    H1 9654   2.988   5.647   0.728
 3216TIP3    H2 9655   3.005   5.650   0.879
 3217TIP3   OH2 9656   6.143   5.186   0.405
 3217TIP3    H1 9657   6.064   5.186   0.459
 3217TIP3    H2 9658   6.187   5.268   0.426
 3218TIP3   OH2 9659   1.077   1.239   5.154
 3218TIP3    H1 9660   1.008   1.202   5.210
 3218TIP3    H2 9661   1.104   1.166   5.098
 3219TIP3   OH2 9662   1.148   2.332   4.341
 3219TIP3    H1 9663   1.157   2.284   4.423
 3219TIP3    H2 9664   1.215   2.400   4.345
 3220TIP3   OH2 9665   0.608   0.567   2.510
 3220TIP3    H1 9666   0.697   0.533   2.521
 3220TIP3    H2 9667   0.609   0.650   2.558
 3221TIP3   OH2 9668   3.928   0.046   0.745
 3221TIP3    H1 9669   3.876   0.118   0.709
 3221TIP3    H2 9670   3.960   0.080   0.829
 3222TIP3   OH2 9671   4.921   5.381   2.169
 3222TIP3    H1 9672   4.846   5.384   2.228
 3222TIP3    H2 9673   4.945   5.473   2.156
 3223TIP3   OH2 9674   4.563   5.551   3.155
 3223TIP3    H1 9675   4.657   5.535   3.161
 3223TIP3    H2 9676   4.533   5.549   3.246
 3224TIP3   OH2 9677   0.455   0.459   0.669
 3224TIP3    H1 9678   0.399   0.462   0.592
 3224TIP3    H2 9679   0.544   0.464   0.634
 3225TIP3   OH2 9680   6.243   4.163   2.675
 3225TIP3    H1 9681   6.202   4.247   2.697
 3225TIP3    H2 9682   6.264   4.171   2.582
 3226TIP3   OH2 9683   1.700   0.024   1.490
 3226TIP3    H1 9684   1.657  -0.008   1.569
 3226TIP3    H2 9685   1.703   0.119   1.500
 3227TIP3   OH2 9686   2.780   5.817   0.200
 3227TIP3    H1 9687   2.743   5.800   0.113
 3227TIP3    H2 9688   2.785   5.731   0.241
 3228TIP3   OH2 9689   2.955   5.713   4.981
 3228TIP3    H1 9690   2.861   5.719   4.967
 3228TIP3    H2 9691   2.964   5.668   5.065
 3229TIP3   OH2 9692   3.754   4.450   1.156
 3229TIP3    H1 9693   3.677   4.507   1.147
 3229TIP3    H2 9694   3.792   4.448   1.068
 3230TIP3   OH2 9695   0.520   2.470   4.493
 3230TIP3    H1 9696   0.462   2.527   4.442
 3230TIP3    H2 9697   0.575   2.530   4.543
 3231TIP3   OH2 9698   2.850   3.061   4.415
 3231TIP3    H1 9699   2.828   3.100   4.500
 3231TIP3    H2 9700   2.894   2.979   4.437
 3232TIP3   OH2 9701   3.020   1.768   3.877
 3232TIP3    H1 9702   3.057   1.699   3.932
 3232TIP3    H2 9703   2.937   1.790   3.920
 3233TIP3   OH2 9704   2.524   4.971  -0.011
 3233TIP3    H1 9705   2.492   4.897   0.040
 3233TIP3    H2 9706   2.457   5.039   0.000
 3234TIP3   OH2 9707   5.954   5.690   0.794
 3234TIP3    H1 9708   5.931   5.772   0.750
 3234TIP3    H2 9709   5.977   5.717   0.884
 3235TIP3   OH2 9710   1.505   5.716   0.832
 3235TIP3    H1 9711   1.502   5.620   0.823
 3235TIP3    H2 9712   1.510   5.747   0.742
 3236TIP3   OH2 9713   5.874   1.856   1.210
 3236TIP3    H1 9714   5.899   1.790   1.146
 3236TIP3    H2 9715   5.783   1.836   1.231
 3237TIP3   OH2 9716   1.075   5.955   0.152
 3237TIP3    H1 9717   1.124   6.013   0.093
 3237TIP3    H2 9718   0.988   5.948   0.113
 3238TIP3   OH2 9719   6.176   0.119   0.667
 3238TIP3    H1 9720   6.155   0.188   0.605
 3238TIP3    H2 9721   6.227   0.055   0.616
 3239TIP3   OH2 9722   2.611   5.590   4.469
 3239TIP3    H1 9723   2.628   5.662   4.531
 3239TIP3    H2 9724   2.689   5.535   4.474
 3240TIP3   OH2 9725   1.128   2.890   4.885
 3240TIP3    H1 9726   1.153   2.806   4.922
 3240TIP3    H2 9727   1.125   2.950   4.959
 3241TIP3   OH2 9728   1.432   2.636   1.590
 3241TIP3    H1 9729   1.432   2.679   1.505
 3241TIP3    H2 9730   1.518   2.658   1.628
 3242TIP3   OH2 9731   4.063   5.537   2.871
 3242TIP3    H1 9732   4.151   5.539   2.909
 3242TIP3    H2 9733   4.075   5.565   2.780
 3243TIP3   OH2 9734   3.795   0.220   2.809
 3243TIP3    H1 9735   3.845   0.275   2.748
 3243TIP3    H2 9736   3.726   0.278   2.841
 3244TIP3   OH2 9737   1.520   5.610   1.459
 3244TIP3    H1 9738   1.478   5.621   1.544
 3244TIP3    H2 9739   1.589   5.545   1.475
 3245TIP3   OH2 9740   3.290   2.846   4.077
 3245TIP3    H1 9741   3.201   2.879   4.066
 3245TIP3    H2 9742   3.346   2.912   4.036
 3246TIP3   OH2 9743   3.465   4.203   2.285
 3246TIP3    H1 9744   3.383   4.240   2.253
 3246TIP3    H2 9745   3.469   4.115   2.246
 3247TIP3   OH2 9746   0.091   1.896   0.516
 3247TIP3    H1 9747   0.002   1.862   0.504
 3247TIP3    H2 9748   0.128   1.841   0.585
 3248TIP3   OH2 9749   2.180   0.604   4.613
 3248TIP3    H1 9750   2.090   0.629   4.633
 3248TIP3    H2 9751   2.231   0.640   4.685
 3249TIP3   OH2 9752   4.856   1.861   2.706
 3249TIP3    H1 9753   4.927   1.797   2.710
 3249TIP3    H2 9754   4.789   1.819   2.652
 3250TIP3   OH2 9755   4.933   2.484   4.210
 3250TIP3    H1 9756   4.896   2.501   4.297
 3250TIP3    H2 9757   5.021   2.452   4.228
 3251TIP3   OH2 9758   5.692   5.807   4.949
 3251TIP3    H1 9759   5.758   5.797   4.880
 3251TIP3    H2 9760   5.645   5.887   4.925
 3252TIP3   OH2 9761   3.264   4.043   4.691
 3252TIP3    H1 9762   3.219   4.092   4.622
 3252TIP3    H2 9763   3.193   4.004   4.743
 3253TIP3   OH2 9764   5.813   1.971   0.036
 3253TIP3    H1 9765   5.896   1.923   0.024
 3253TIP3    H2 9766   5.761   1.949  -0.042
 3254TIP3   OH2 9767   5.972   1.933   0.302
 3254TIP3    H1 9768   6.018   2.009   0.267
 3254TIP3    H2 9769   5.918   1.969   0.373
 3255TIP3   OH2 9770   3.493   1.747   2.471
 3255TIP3    H1 9771   3.414   1.786   2.433
 3255TIP3    H2 9772   3.549   1.727   2.396
 3256TIP3   OH2 9773   4.152   1.637   0.437
 3256TIP3    H1 9774   4.058   1.631   0.422
 3256TIP3    H2 9775   4.192   1.603   0.357
 3257TIP3   OH2 9776   3.066   5.050   0.591
 3257TIP3    H1 9777   3.083   5.109   0.518
 3257TIP3    H2 9778   3.143   4.992   0.594
 3258TIP3   OH2 9779   3.649   1.661   3.505
 3258TIP3    H1 9780   3.555   1.645   3.512
 3258TIP3    H2 9781   3.688   1.574   3.503
 3259TIP3   OH2 9782   5.305   4.867   0.309
 3259TIP3    H1 9783   5.360   4.789   0.315
 3259TIP3    H2 9784   5.272   4.880   0.398
 3260TIP3   OH2 9785   3.766   1.796   1.119
 3260TIP3    H1 9786   3.829   1.749   1.173
 3260TIP3    H2 9787   3.714   1.728   1.076
 3261TIP3   OH2 9788   3.497   1.483   5.096
 3261TIP3    H1 9789   3.577   1.518   5.057
 3261TIP3    H2 9790   3.526   1.410   5.149
 3262TIP3   OH2 9791   2.795   0.636   2.396
 3262TIP3    H1 9792   2.731   0.663   2.461
 3262TIP3    H2 9793   2.757   0.557   2.357
 3263TIP3   OH2 9794   1.474   3.293   5.016
 3263TIP3    H1 9795   1.429   3.247   4.945
 3263TIP3    H2 9796   1.567   3.284   4.995
 3264TIP3   OH2 9797   4.146   1.474   0.644
 3264TIP3    H1 9798   4.075   1.503   0.702
 3264TIP3    H2 9799   4.162   1.549   0.587
 3265TIP3   OH2 9800   0.097   5.705   1.753
 3265TIP3    H1 9801   0.132   5.631   1.703
 3265TIP3    H2 9802   0.028   5.741   1.698
 3266TIP3   OH2 9803   5.937   2.082   0.784
 3266TIP3    H1 9804   5.882   2.131   0.845
 3266TIP3    H2 9805   5.999   2.148   0.751
 3267TIP3   OH2 9806   3.645   2.128   4.034
 3267TIP3    H1 9807   3.587   2.114   4.109
 3267TIP3    H2 9808   3.599   2.088   3.960
 3268TIP3   OH2 9809   0.745   0.107   4.834
 3268TIP3    H1 9810   0.655   0.089   4.861
 3268TIP3    H2 9811   0.764   0.194   4.870
 3269TIP3   OH2 9812   6.035   0.056   2.471
 3269TIP3    H1 9813   6.125   0.025   2.482
 3269TIP3    H2 9814   6.023   0.120   2.541
 3270TIP3   OH2 9815   0.211   3.166   0.359
 3270TIP3    H1 9816   0.133   3.209   0.394
 3270TIP3    H2 9817   0.182   3.127   0.276
 3271TIP3   OH2 9818   1.302   5.617   0.563
 3271TIP3    H1 9819   1.350   5.547   0.518
 3271TIP3    H2 9820   1.227   5.572   0.602
 3272TIP3   OH2 9821   5.613   5.545   4.758
 3272TIP3    H1 9822   5.608   5.604   4.833
 3272TIP3    H2 9823   5.553   5.582   4.694
 3273TIP3   OH2 9824   3.954   4.137  -0.012
 3273TIP3    H1 9825   3.939   4.149   0.082
 3273TIP3    H2 9826   4.047   4.157  -0.023
 3274TIP3   OH2 9827   0.240   3.408   0.951
 3274TIP3    H1 9828   0.153   3.445   0.937
 3274TIP3    H2 9829   0.239   3.380   1.042
 3275TIP3   OH2 9830   0.831   5.213   0.772
 3275TIP3    H1 9831   0.873   5.129   0.789
 3275TIP3    H2 9832   0.737   5.196   0.778
 3276TIP3   OH2 9833   1.538   3.884   2.981
 3276TIP3    H1 9834   1.488   3.928   2.911
 3276TIP3    H2 9835   1.471   3.844   3.036
 3277TIP3   OH2 9836   6.193   4.130   4.680
 3277TIP3    H1 9837   6.115   4.127   4.623
 3277TIP3    H2 9838   6.218   4.222   4.681
 3278TIP3   OH2 9839   2.792   4.342   0.323
 3278TIP3    H1 9840   2.698   4.336   0.307
 3278TIP3    H2 9841   2.822   4.409   0.262
 3279TIP3   OH2 9842   5.412   0.335   2.239
 3279TIP3    H1 9843   5.395   0.245   2.267
 3279TIP3    H2 9844   5.503   0.351   2.264
 3280TIP3   OH2 9845   2.847   4.592   3.494
 3280TIP3    H1 9846   2.919   4.644   3.460
 3280TIP3    H2 9847   2.835   4.623   3.583
 3281TIP3   OH2 9848   3.952   5.550   2.299
 3281TIP3    H1 9849   3.938   5.539   2.205
 3281TIP3    H2 9850   4.013   5.623   2.306
 3282TIP3   OH2 9851   2.070   2.560   4.091
 3282TIP3    H1 9852   2.033   2.541   4.005
 3282TIP3    H2 9853   2.040   2.649   4.111
 3283TIP3   OH2 9854   0.811   1.898   2.153
 3283TIP3    H1 9855   0.738   1.924   2.096
 3283TIP3    H2 9856   0.772   1.838   2.216
 3284TIP3   OH2 9857   0.517   1.959   3.904
 3284TIP3    H1 9858   0.567   1.886   3.941
 3284TIP3    H2 9859   0.540   2.034   3.959
 3285TIP3   OH2 9860   4.487   3.817   1.685
 3285TIP3    H1 9861   4.580   3.823   1.708
 3285TIP3    H2 9862   4.477   3.874   1.609
 3286TIP3   OH2 9863   2.284   0.313   0.762
 3286TIP3    H1 9864   2.334   0.310   0.681
 3286TIP3    H2 9865   2.306   0.398   0.801
 3287TIP3   OH2 9866   1.476   5.455   2.942
 3287TIP3    H1 9867   1.400   5.466   2.885
 3287TIP3    H2 9868   1.534   5.396   2.893
 3288TIP3   OH2 9869   2.691   2.287   4.038
 3288TIP3    H1 9870   2.725   2.277   4.127
 3288TIP3    H2 9871   2.678   2.381   4.027
 3289TIP3   OH2 9872   1.159   5.293   4.514
 3289TIP3    H1 9873   1.086   5.234   4.495
 3289TIP3    H2 9874   1.144   5.323   4.603
 3290TIP3   OH2 9875   2.758   5.731   4.275
 3290TIP3    H1 9876   2.746   5.823   4.297
 3290TIP3    H2 9877   2.677   5.689   4.306
 3291TIP3   OH2 9878   6.178   4.918   1.375
 3291TIP3    H1 9879   6.244   4.895   1.440
 3291TIP3    H2 9880   6.096   4.923   1.425
 3292TIP3   OH2 9881   2.700   1.298   2.103
 3292TIP3    H1 9882   2.775   1.239   2.108
 3292TIP3    H2 9883   2.654   1.271   2.023
 3293TIP3   OH2 9884   4.381   0.818   2.357
 3293TIP3    H1 9885   4.331   0.885   2.404
 3293TIP3    H2 9886   4.317   0.748   2.342
 3294TIP3   OH2 9887   0.422   1.722   3.106
 3294TIP3    H1 9888   0.513   1.739   3.084
 3294TIP3    H2 9889   0.397   1.795   3.162
 3295TIP3   OH2 9890   1.149   4.842   4.534
 3295TIP3    H1 9891   1.198   4.762   4.553
 3295TIP3    H2 9892   1.058   4.817   4.543
 3296TIP3   OH2 9893   5.956   3.323   0.708
 3296TIP3    H1 9894   5.891   3.262   0.673
 3296TIP3    H2 9895   5.980   3.377   0.632
 3297TIP3   OH2 9896   0.337   5.270   2.311
 3297TIP3    H1 9897   0.302   5.275   2.222
 3297TIP3    H2 9898   0.413   5.327   2.310
 3298TIP3   OH2 9899   4.752   3.788   0.765
 3298TIP3    H1 9900   4.664   3.810   0.798
 3298TIP3    H2 9901   4.808   3.859   0.797
 3299TIP3   OH2 9902   3.444   0.168   1.305
 3299TIP3    H1 9903   3.476   0.151   1.216
 3299TIP3    H2 9904   3.470   0.090   1.355
 3300TIP3   OH2 9905   0.433   2.776   1.596
 3300TIP3    H1 9906   0.384   2.725   1.660
 3300TIP3    H2 9907   0.374   2.782   1.520
 3301TIP3   OH2 9908   1.905   2.154   4.041
 3301TIP3    H1 9909   1.989   2.180   4.004
 3301TIP3    H2 9910   1.890   2.216   4.113
 3302TIP3   OH2 9911   5.490   3.599   3.215
 3302TIP3    H1 9912   5.456   3.549   3.290
 3302TIP3    H2 9913   5.415   3.608   3.157
 3303TIP3   OH2 9914   2.132   2.603   0.772
 3303TIP3    H1 9915   2.219   2.640   0.787
 3303TIP3    H2 9916   2.148   2.527   0.715
 3304TIP3   OH2 9917   0.197   3.753   2.489
 3304TIP3    H1 9918   0.102   3.760   2.493
 3304TIP3    H2 9919   0.213   3.700   2.410
 3305TIP3   OH2 9920   4.266   3.738   0.024
 3305TIP3    H1 9921   4.257   3.684   0.103
 3305TIP3    H2 9922   4.301   3.679  -0.042
 3306TIP3   OH2 9923   1.748   2.956   4.750
 3306TIP3    H1 9924   1.802   2.986   4.823
 3306TIP3    H2 9925   1.706   2.876   4.782
 3307TIP3   OH2 9926   5.457   3.389   1.663
 3307TIP3    H1 9927   5.391   3.425   1.721
 3307TIP3    H2 9928   5.424   3.302   1.639
 3308TIP3   OH2 9929   3.720   3.153   0.068
 3308TIP3    H1 9930   3.649   3.216   0.055
 3308TIP3    H2 9931   3.677   3.068   0.071
 3309TIP3   OH2 9932   6.255   3.430   0.981
 3309TIP3    H1 9933   6.174   3.458   0.938
 3309TIP3    H2 9934   6.238   3.445   1.074
 3310TIP3   OH2 9935   3.329   3.738   5.169
 3310TIP3    H1 9936   3.393   3.801   5.135
 3310TIP3    H2 9937   3.326   3.669   5.104
 3311TIP3   OH2 9938   0.081   2.991   3.450
 3311TIP3    H1 9939   0.151   3.056   3.448
 3311TIP3    H2 9940   0.103   2.928   3.382
 3312TIP3   OH2 9941   5.224   5.199   0.079
 3312TIP3    H1 9942   5.299   5.247   0.043
 3312TIP3    H2 9943   5.159   5.201   0.010
 3313TIP3   OH2 9944   5.388   2.491   1.209
 3313TIP3    H1 9945   5.347   2.569   1.172
 3313TIP3    H2 9946   5.461   2.525   1.261
 3314TIP3   OH2 9947   5.005   4.647   3.218
 3314TIP3    H1 9948   5.052   4.719   3.177
 3314TIP3    H2 9949   5.067   4.611   3.282
 3315TIP3   OH2 9950   2.409   2.643   0.911
 3315TIP3    H1 9951   2.415   2.588   0.989
 3315TIP3    H2 9952   2.499   2.671   0.895
 3316TIP3   OH2 9953   2.048   0.709   2.131
 3316TIP3    H1 9954   1.953   0.721   2.123
 3316TIP3    H2 9955   2.071   0.758   2.210
 3317TIP3   OH2 9956   4.603   4.515   4.862
 3317TIP3    H1 9957   4.566   4.594   4.902
 3317TIP3    H2 9958   4.694   4.514   4.892
 3318TIP3   OH2 9959   0.451   4.302   5.038
 3318TIP3    H1 9960   0.493   4.227   5.081
 3318TIP3    H2 9961   0.378   4.325   5.095
 3319TIP3   OH2 9962   5.327   5.433   0.265
 3319TIP3    H1 9963   5.283   5.516   0.248
 3319TIP3    H2 9964   5.319   5.420   0.359
 3320TIP3   OH2 9965   4.257   0.484   3.609
 3320TIP3    H1 9966   4.313   0.448   3.678
 3320TIP3    H2 9967   4.171   0.446   3.627
 3321TIP3   OH2 9968   5.338   3.017   4.276
 3321TIP3    H1 9969   5.394   3.082   4.234
 3321TIP3    H2 9970   5.364   3.019   4.368
 3322TIP3   OH2 9971   3.844   0.345   1.063
 3322TIP3    H1 9972   3.893   0.423   1.089
 3322TIP3    H2 9973   3.826   0.358   0.970
 3323TIP3   OH2 9974   0.504   4.672   0.646
 3323TIP3    H1 9975   0.554   4.639   0.572
 3323TIP3    H2 9976   0.549   4.638   0.723
 3324TIP3   OH2 9977   0.211   0.069   3.121
 3324TIP3    H1 9978   0.210  -0.015   3.167
 3324TIP3    H2 9979   0.179   0.132   3.186
 3325TIP3   OH2 9980   2.409   5.929   4.327
 3325TIP3    H1 9981   2.495   5.959   4.298
 3325TIP3    H2 9982   2.417   5.921   4.422
 3326TIP3   OH2 9983   4.058   3.753   2.405
 3326TIP3    H1 9984   4.054   3.666   2.366
 3326TIP3    H2 9985   3.991   3.752   2.474
 3327TIP3   OH2 9986   4.207   1.520   2.495
 3327TIP3    H1 9987   4.246   1.607   2.502
 3327TIP3    H2 9988   4.115   1.536   2.473
 3328TIP3   OH2 9989   4.725   3.423   3.238
 3328TIP3    H1 9990   4.640   3.416   3.194
 3328TIP3    H2 9991   4.712   3.489   3.306
 3329TIP3   OH2 9992   1.769   4.682   2.226
 3329TIP3    H1 9993   1.679   4.698   2.255
 3329TIP3    H2 9994   1.786   4.590   2.250
 3330TIP3   OH2 9995   4.709   2.304   0.484
 3330TIP3    H1 9996   4.616   2.319   0.474
 3330TIP3    H2 9997   4.727   2.227   0.430
 3331TIP3   OH2 9998   1.128   5.806   1.569
 3331TIP3    H1 9999   1.043   5.807   1.525
 3331TIP3    H210000   1.129   5.886   1.622
 3332TIP3   OH210001   2.068   0.854   0.437
 3332TIP3    H110002   2.028   0.818   0.357
 3332TIP3    H210003   2.149   0.804   0.448
 3333TIP3   OH210004   6.155   5.035   0.135
 3333TIP3    H110005   6.090   5.064   0.199
 3333TIP3    H210006   6.115   5.056   0.050
 3334TIP3   OH210007   4.980   4.154   2.061
 3334TIP3    H110008   4.985   4.198   1.976
 3334TIP3    H210009   4.917   4.206   2.111
 3335TIP3   OH210010   5.124   1.450   1.515
 3335TIP3    H110011   5.063   1.403   1.572
 3335TIP3    H210012   5.119   1.403   1.431
 3336TIP3   OH210013   2.941   4.146   2.283
 3336TIP3    H110014   2.846   4.144   2.276
 3336TIP3    H210015   2.971   4.149   2.192
 3337TIP3   OH210016   4.717   4.271   4.765
 3337TIP3    H110017   4.728   4.265   4.670
 3337TIP3    H210018   4.752   4.357   4.788
 3338TIP3   OH210019   2.813   2.707   0.770
 3338TIP3    H110020   2.776   2.723   0.857
 3338TIP3    H210021   2.767   2.769   0.713
 3339TIP3   OH210022   2.278   0.786   2.559
 3339TIP3    H110023   2.300   0.876   2.583
 3339TIP3    H210024   2.183   0.784   2.557
 3340TIP3   OH210025   5.184   5.122   4.868
 3340TIP3    H110026   5.103   5.169   4.850
 3340TIP3    H210027   5.231   5.178   4.930
 3341TIP3   OH210028   6.304   2.177   2.064
 3341TIP3    H110029   6.227   2.213   2.109
 3341TIP3    H210030   6.340   2.251   2.016
 3342TIP3   OH210031   5.572   0.570   0.341
 3342TIP3    H110032   5.540   0.646   0.390
 3342TIP3    H210033   5.665   0.588   0.326
 3343TIP3   OH210034   1.767   0.330   4.662
 3343TIP3    H110035   1.720   0.293   4.736
 3343TIP3    H210036   1.745   0.273   4.588
 3344TIP3   OH210037   5.480   2.969   0.472
 3344TIP3    H110038   5.451   2.904   0.535
 3344TIP3    H210039   5.518   3.040   0.525
 3345TIP3   OH210040   4.565   3.116   0.061
 3345TIP3    H110041   4.642   3.153   0.105
 3345TIP3    H210042   4.531   3.052   0.124
 3346TIP3   OH210043   4.274   2.923   3.506
 3346TIP3    H110044   4.309   2.837   3.530
 3346TIP3    H210045   4.183   2.905   3.482
 3347TIP3   OH210046   0.920   2.521   3.451
 3347TIP3    H110047   1.003   2.503   3.496
 3347TIP3    H210048   0.853   2.505   3.517
 3348TIP3   OH210049   1.176  -0.047   1.864
 3348TIP3    H110050   1.213  -0.037   1.776
 3348TIP3    H210051   1.112   0.024   1.871
 3349TIP3   OH210052   5.049   4.053   4.946
 3349TIP3    H110053   5.035   4.147   4.956
 3349TIP3    H210054   5.134   4.045   4.904
 3350TIP3   OH210055   4.191   5.209   4.078
 3350TIP3    H110056   4.129   5.223   4.007
 3350TIP3    H210057   4.262   5.159   4.038
 3351TIP3   OH210058   4.691   4.000   2.770
 3351TIP3    H110059   4.763   4.032   2.716
 3351TIP3    H210060   4.648   3.934   2.714
 3352TIP3   OH210061   4.576   1.616   3.005
 3352TIP3    H110062   4.661   1.616   2.961
 3352TIP3    H210063   4.522   1.556   2.953
 3353TIP3   OH210064   1.629   3.939   4.426
 3353TIP3    H110065   1.579   3.913   4.348
 3353TIP3    H210066   1.719   3.911   4.407
 3354TIP3   OH210067   5.475   5.287   0.062
 3354TIP3    H110068   5.461   5.322   0.150
 3354TIP3    H210069   5.561   5.318   0.037
 3355TIP3   OH210070   1.262  -0.005   2.262
 3355TIP3    H110071   1.345  -0.037   2.226
 3355TIP3    H210072   1.277   0.089   2.276
 3356TIP3   OH210073   1.335   4.194   0.739
 3356TIP3    H110074   1.303   4.109   0.711
 3356TIP3    H210075   1.304   4.255   0.672
 3357TIP3   OH210076   2.580   1.743   4.844
 3357TIP3    H110077   2.605   1.657   4.876
 3357TIP3    H210078   2.647   1.766   4.780
 3358TIP3   OH210079   3.192   1.184   4.404
 3358TIP3    H110080   3.182   1.108   4.463
 3358TIP3    H210081   3.281   1.177   4.372
 3359TIP3   OH210082   2.406   4.064   2.617
 3359TIP3    H110083   2.316   4.095   2.620
 3359TIP3    H210084   2.457   4.138   2.585
 3360TIP3   OH210085   4.057   2.809   0.135
 3360TIP3    H110086   4.090   2.842   0.218
 3360TIP3    H210087   3.976   2.763   0.158
 3361TIP3   OH210088   2.171   5.652   1.251
 3361TIP3    H110089   2.137   5.596   1.322
 3361TIP3    H210090   2.120   5.625   1.174
 3362TIP3   OH210091   5.263   3.646   3.086
 3362TIP3    H110092   5.291   3.640   2.995
 3362TIP3    H210093   5.175   3.608   3.088
 3363TIP3   OH210094   6.334   5.384   0.497
 3363TIP3    H110095   6.404   5.422   0.444
 3363TIP3    H210096   6.377   5.354   0.577
 3364TIP3   OH210097   2.393   2.214   4.117
 3364TIP3    H110098   2.364   2.277   4.183
 3364TIP3    H210099   2.440   2.266   4.052
 3365TIP3   OH210100   5.959   0.017   1.198
 3365TIP3    H110101   5.990   0.003   1.109
 3365TIP3    H210102   6.039   0.032   1.249
 3366TIP3   OH210103   1.468   5.614   4.485
 3366TIP3    H110104   1.472   5.698   4.531
 3366TIP3    H210105   1.486   5.636   4.393
 3367TIP3   OH210106   4.475   3.042   2.435
 3367TIP3    H110107   4.537   2.981   2.475
 3367TIP3    H210108   4.391   2.997   2.437
 3368TIP3   OH210109   1.891   1.684   2.364
 3368TIP3    H110110   1.957   1.753   2.358
 3368TIP3    H210111   1.856   1.691   2.453
 3369TIP3   OH210112   5.335   3.535   3.945
 3369TIP3    H110113   5.277   3.494   4.009
 3369TIP3    H210114   5.423   3.520   3.979
 3370TIP3   OH210115   4.423   5.020   2.334
 3370TIP3    H110116   4.347   4.976   2.295
 3370TIP3    H210117   4.482   5.035   2.260
 3371TIP3   OH210118   0.362   3.207   4.194
 3371TIP3    H110119   0.412   3.148   4.138
 3371TIP3    H210120   0.312   3.149   4.251
 3372TIP3   OH210121   1.514   3.268   3.887
 3372TIP3    H110122   1.447   3.273   3.954
 3372TIP3    H210123   1.502   3.347   3.834
 3373TIP3   OH210124   6.059   1.977   3.308
 3373TIP3    H110125   5.965   1.982   3.293
 3373TIP3    H210126   6.070   1.901   3.365
 3374TIP3   OH210127   3.187   3.414   2.094
 3374TIP3    H110128   3.152   3.395   2.181
 3374TIP3    H210129   3.189   3.510   2.090
 3375TIP3   OH210130   0.164   3.879   3.278
 3375TIP3    H110131   0.209   3.944   3.224
 3375TIP3    H210132   0.096   3.929   3.323
 3376TIP3   OH210133   5.056   5.849   2.285
 3376TIP3    H110134   5.137   5.841   2.234
 3376TIP3    H210135   5.007   5.918   2.241
 3377TIP3   OH210136   3.592   3.042   3.180
 3377TIP3    H110137   3.650   3.097   3.233
 3377TIP3    H210138   3.519   3.022   3.237
 3378TIP3   OH210139   5.073   2.539   0.945
 3378TIP3    H110140   5.126   2.506   0.873
 3378TIP3    H210141   5.121   2.512   1.024
 3379TIP3   OH210142   0.992   0.834   4.122
 3379TIP3    H110143   0.912   0.855   4.170
 3379TIP3    H210144   0.964   0.772   4.054
 3380TIP3   OH210145   2.484   1.109   3.929
 3380TIP3    H110146   2.440   1.091   4.012
 3380TIP3    H210147   2.536   1.031   3.912
 3381TIP3   OH210148   5.121   3.081   2.528
 3381TIP3    H110149   5.079   3.088   2.614
 3381TIP3    H210150   5.215   3.085   2.547
 3382TIP3   OH210151   0.289   4.439   0.328
 3382TIP3    H110152   0.289   4.399   0.415
 3382TIP3    H210153   0.348   4.514   0.337
 3383TIP3   OH210154   0.938   2.001   0.888
 3383TIP3    H110155   0.853   2.045   0.879
 3383TIP3    H210156   0.921   1.929   0.948
 3384TIP3   OH210157   0.605   0.932   3.932
 3384TIP3    H110158   0.610   1.023   3.904
 3384TIP3    H210159   0.580   0.884   3.853
 3385TIP3   OH210160   2.163   5.491   0.097
 3385TIP3    H110161   2.253   5.510   0.069
 3385TIP3    H210162   2.119   5.462   0.017
 3386TIP3   OH210163   2.084   0.515   0.426
 3386TIP3    H110164   2.066   0.420   0.428
 3386TIP3    H210165   2.023   0.552   0.490
 3387TIP3   OH210166   1.236   1.014   1.472
 3387TIP3    H110167   1.260   1.102   1.444
 3387TIP3    H210168   1.206   1.025   1.563
 3388TIP3   OH210169   5.839   3.320   1.363
 3388TIP3    H110170   5.761   3.265   1.368
 3388TIP3    H210171   5.847   3.342   1.270
 3389TIP3   OH210172   0.423   3.116   0.019
 3389TIP3    H110173   0.454   3.122  -0.071
 3389TIP3    H210174   0.411   3.208   0.046
 3390TIP3   OH210175   1.513   4.529   0.709
 3390TIP3    H110176   1.519   4.433   0.707
 3390TIP3    H210177   1.565   4.557   0.633
 3391TIP3   OH210178   6.029   0.870   2.494
 3391TIP3    H110179   5.997   0.900   2.579
 3391TIP3    H210180   6.111   0.825   2.514
 3392TIP3   OH210181   2.929   4.479   4.710
 3392TIP3    H110182   2.970   4.551   4.661
 3392TIP3    H210183   2.991   4.460   4.780
 3393TIP3   OH210184   1.161   0.931   0.381
 3393TIP3    H110185   1.219   0.993   0.426
 3393TIP3    H210186   1.117   0.884   0.452
 3394TIP3   OH210187   5.544   2.307   3.791
 3394TIP3    H110188   5.546   2.342   3.880
 3394TIP3    H210189   5.473   2.243   3.792
 3395TIP3   OH210190   5.395   1.801   5.102
 3395TIP3    H110191   5.437   1.715   5.113
 3395TIP3    H210192   5.468   1.863   5.102
 3396TIP3   OH210193   1.253   4.304   2.307
 3396TIP3    H110194   1.209   4.288   2.224
 3396TIP3    H210195   1.205   4.376   2.347
 3397TIP3   OH210196   5.165   1.161   4.947
 3397TIP3    H110197   5.154   1.207   5.030
 3397TIP3    H210198   5.137   1.071   4.965
 3398TIP3   OH210199   2.101   1.745   3.750
 3398TIP3    H110200   2.152   1.681   3.701
 3398TIP3    H210201   2.018   1.700   3.768
 3399TIP3   OH210202   1.064   1.423   2.443
 3399TIP3    H110203   0.971   1.434   2.464
 3399TIP3    H210204   1.096   1.359   2.508
 3400TIP3   OH210205   2.757   0.298   0.717
 3400TIP3    H110206   2.691   0.250   0.666
 3400TIP3    H210207   2.820   0.329   0.651
 3401TIP3   OH210208   2.279   3.828   4.248
 3401TIP3    H110209   2.292   3.880   4.327
 3401TIP3    H210210   2.364   3.828   4.206
 3402TIP3   OH210211   1.490   1.208   2.792
 3402TIP3    H110212   1.478   1.303   2.784
 3402TIP3    H210213   1.563   1.198   2.853
 3403TIP3   OH210214   5.175   3.393   4.568
 3403TIP3    H110215   5.111   3.393   4.496
 3403TIP3    H210216   5.260   3.385   4.524
 3404TIP3   OH210217   3.280   4.550   3.879
 3404TIP3    H110218   3.205   4.526   3.824
 3404TIP3    H210219   3.342   4.478   3.866
 3405TIP3   OH210220   2.632   2.379   3.062
 3405TIP3    H110221   2.581   2.345   3.136
 3405TIP3    H210222   2.701   2.432   3.102
 3406TIP3   OH210223   0.748   0.763   0.406
 3406TIP3    H110224   0.802   0.765   0.327
 3406TIP3    H210225   0.743   0.854   0.434
 3407TIP3   OH210226   4.279   5.564   1.376
 3407TIP3    H110227   4.238   5.572   1.290
 3407TIP3    H210228   4.369   5.536   1.357
 3408TIP3   OH210229   0.961   3.942   0.603
 3408TIP3    H110230   0.945   3.905   0.515
 3408TIP3    H210231   0.875   3.973   0.631
 3409TIP3   OH210232   2.592   1.132   4.255
 3409TIP3    H110233   2.653   1.149   4.183
 3409TIP3    H210234   2.556   1.217   4.277
 3410TIP3   OH210235   2.779   2.632   1.792
 3410TIP3    H110236   2.773   2.562   1.727
 3410TIP3    H210237   2.716   2.609   1.860
 3411TIP3   OH210238   6.059   2.366   0.176
 3411TIP3    H110239   5.982   2.370   0.119
 3411TIP3    H210240   6.073   2.456   0.206
 3412TIP3   OH210241   3.334   3.876   2.805
 3412TIP3    H110242   3.287   3.929   2.741
 3412TIP3    H210243   3.408   3.839   2.757
 3413TIP3   OH210244   4.649   1.099   3.957
 3413TIP3    H110245   4.699   1.155   3.896
 3413TIP3    H210246   4.710   1.081   4.028
 3414TIP3   OH210247   3.791   3.347   2.264
 3414TIP3    H110248   3.752   3.424   2.221
 3414TIP3    H210249   3.750   3.272   2.221
 3415TIP3   OH210250   1.585   4.223   0.170
 3415TIP3    H110251   1.492   4.241   0.182
 3415TIP3    H210252   1.587   4.140   0.122
 3416TIP3   OH210253   2.659   5.616   1.902
 3416TIP3    H110254   2.727   5.627   1.967
 3416TIP3    H210255   2.649   5.703   1.862
 3417TIP3   OH210256   2.866   2.833   2.242
 3417TIP3    H110257   2.893   2.917   2.278
 3417TIP3    H210258   2.786   2.851   2.194
 3418TIP3   OH210259   5.570   2.224   2.119
 3418TIP3    H110260   5.597   2.144   2.074
 3418TIP3    H210261   5.491   2.252   2.073
 3419TIP3   OH210262   1.192   3.292   3.446
 3419TIP3    H110263   1.124   3.267   3.509
 3419TIP3    H210264   1.269   3.244   3.474
 3420TIP3   OH210265   0.574   2.169   2.609
 3420TIP3    H110266   0.651   2.221   2.584
 3420TIP3    H210267   0.522   2.164   2.529
 3421TIP3   OH210268   5.304   0.312   4.573
 3421TIP3    H110269   5.366   0.296   4.644
 3421TIP3    H210270   5.226   0.262   4.597
 3422TIP3   OH210271   4.662   2.618   3.858
 3422TIP3    H110272   4.696   2.610   3.769
 3422TIP3    H210273   4.695   2.702   3.889
 3423TIP3   OH210274   3.450   3.587   0.301
 3423TIP3    H110275   3.379   3.645   0.327
 3423TIP3    H210276   3.471   3.614   0.212
 3424TIP3   OH210277   0.542   3.866   3.298
 3424TIP3    H110278   0.531   3.799   3.230
 3424TIP3    H210279   0.518   3.821   3.379
 3425TIP3   OH210280   1.347   4.617   3.637
 3425TIP3    H110281   1.323   4.671   3.712
 3425TIP3    H210282   1.435   4.647   3.613
 3426TIP3   OH210283   5.154   1.747   2.510
 3426TIP3    H110284   5.228   1.787   2.465
 3426TIP3    H210285   5.191   1.672   2.557
 3427TIP3   OH210286   4.995   3.219   0.911
 3427TIP3    H110287   5.028   3.208   0.822
 3427TIP3    H210288   5.001   3.313   0.928
 3428TIP3   OH210289   4.009   2.780   2.082
 3428TIP3    H110290   3.980   2.762   1.993
 3428TIP3    H210291   4.078   2.716   2.098
 3429TIP3   OH210292   4.975   2.964   0.095
 3429TIP3    H110293   5.009   2.876   0.079
 3429TIP3    H210294   4.939   2.959   0.184
 3430TIP3   OH210295   3.648   0.276   3.756
 3430TIP3    H110296   3.567   0.326   3.755
 3430TIP3    H210297   3.711   0.334   3.799
 3431TIP3   OH210298   0.132   0.735   1.214
 3431TIP3    H110299   0.209   0.711   1.265
 3431TIP3    H210300   0.117   0.827   1.236
 3432TIP3   OH210301   3.548   0.133   1.047
 3432TIP3    H110302   3.567   0.201   0.982
 3432TIP3    H210303   3.479   0.080   1.007
 3433TIP3   OH210304   1.489   0.107   3.544
 3433TIP3    H110305   1.542   0.130   3.620
 3433TIP3    H210306   1.494   0.184   3.487
 3434TIP3   OH210307   1.774   3.679   3.559
 3434TIP3    H110308   1.762   3.589   3.528
 3434TIP3    H210309   1.869   3.688   3.568
 3435TIP3   OH210310   2.438   5.784   1.307
 3435TIP3    H110311   2.493   5.720   1.262
 3435TIP3    H210312   2.374   5.811   1.241
 3436TIP3   OH210313   4.187   5.038   0.557
 3436TIP3    H110314   4.098   5.015   0.582
 3436TIP3    H210315   4.242   4.979   0.608
 3437TIP3   OH210316   0.261   5.889   4.730
 3437TIP3    H110317   0.185   5.834   4.750
 3437TIP3    H210318   0.310   5.892   4.812
 3438TIP3   OH210319   2.150   2.815   4.766
 3438TIP3    H110320   2.150   2.784   4.856
 3438TIP3    H210321   2.236   2.856   4.755
 3439TIP3   OH210322   4.556   0.718   5.087
 3439TIP3    H110323   4.537   0.760   5.003
 3439TIP3    H210324   4.502   0.764   5.151
 3440TIP3   OH210325   1.797   5.927   2.708
 3440TIP3    H110326   1.888   5.899   2.702
 3440TIP3    H210327   1.768   5.932   2.616
 3441TIP3   OH210328   0.848   5.610   4.905
 3441TIP3    H110329   0.765   5.628   4.949
 3441TIP3    H210330   0.833   5.526   4.860
 3442TIP3   OH210331   2.935   3.774   3.785
 3442TIP3    H110332   2.998   3.753   3.716
 3442TIP3    H210333   2.974   3.847   3.833
 3443TIP3   OH210334   5.871   4.867   0.952
 3443TIP3    H110335   5.807   4.932   0.979
 3443TIP3    H210336   5.915   4.907   0.877
 3444TIP3   OH210337   0.052   2.482   4.049
 3444TIP3    H110338   0.129   2.474   3.994
 3444TIP3    H210339   0.066   2.563   4.099
 3445TIP3   OH210340   3.030   1.933   4.806
 3445TIP3    H110341   3.070   1.854   4.844
 3445TIP3    H210342   2.942   1.904   4.779
 3446TIP3   OH210343   3.034   4.074   0.170
 3446TIP3    H110344   2.955   4.074   0.224
 3446TIP3    H210345   3.105   4.057   0.232
 3447TIP3   OH210346   3.589   2.333   1.549
 3447TIP3    H110347   3.656   2.286   1.598
 3447TIP3    H210348   3.550   2.267   1.491
 3448TIP3   OH210349   0.630   3.214   4.725
 3448TIP3    H110350   0.632   3.278   4.654
 3448TIP3    H210351   0.720   3.181   4.729
 3449TIP3   OH210352   2.005   2.125   2.277
 3449TIP3    H110353   2.012   2.175   2.358
 3449TIP3    H210354   1.999   2.034   2.305
 3450TIP3   OH210355   2.038   4.687   3.369
 3450TIP3    H110356   2.097   4.625   3.412
 3450TIP3    H210357   2.097   4.750   3.328
 3451TIP3   OH210358   1.151   2.523   3.641
 3451TIP3    H110359   1.205   2.578   3.699
 3451TIP3    H210360   1.202   2.517   3.560
 3452TIP3   OH210361   4.056   1.141   4.604
 3452TIP3    H110362   4.065   1.165   4.512
 3452TIP3    H210363   4.060   1.224   4.651
 3453TIP3   OH210364   1.709   2.650   1.717
 3453TIP3    H110365   1.706   2.651   1.813
 3453TIP3    H210366   1.731   2.740   1.693
 3454TIP3   OH210367   5.830   0.421   1.631
 3454TIP3    H110368   5.861   0.347   1.683
 3454TIP3    H210369   5.891   0.426   1.557
 3455TIP3   OH210370   4.100   4.891   1.765
 3455TIP3    H110371   4.040   4.894   1.691
 3455TIP3    H210372   4.147   4.975   1.761
 3456TIP3   OH210373   4.629   4.016   3.449
 3456TIP3    H110374   4.644   3.948   3.383
 3456TIP3    H210375   4.536   4.037   3.440
 3457TIP3   OH210376   0.718   1.492   4.891
 3457TIP3    H110377   0.764   1.468   4.811
 3457TIP3    H210378   0.763   1.572   4.921
 3458TIP3   OH210379   4.843   2.465   0.231
 3458TIP3    H110380   4.760   2.427   0.202
 3458TIP3    H210381   4.894   2.475   0.150
 3459TIP3   OH210382   4.100   1.510   3.080
 3459TIP3    H110383   4.153   1.560   3.017
 3459TIP3    H210384   4.141   1.424   3.083
 3460TIP3   OH210385   6.205   2.397   2.989
 3460TIP3    H110386   6.129   2.368   3.039
 3460TIP3    H210387   6.243   2.315   2.955
 3461TIP3   OH210388   3.880   3.569   3.467
 3461TIP3    H110389   3.926   3.631   3.410
 3461TIP3    H210390   3.789   3.572   3.437
 3462TIP3   OH210391   5.579   5.029   0.298
 3462TIP3    H110392   5.587   4.942   0.336
 3462TIP3    H210393   5.497   5.027   0.250
 3463TIP3   OH210394   4.482   1.080   3.534
 3463TIP3    H110395   4.534   1.147   3.490
 3463TIP3    H210396   4.536   1.001   3.529
 3464TIP3   OH210397   0.171   1.592   2.586
 3464TIP3    H110398   0.146   1.515   2.637
 3464TIP3    H210399   0.091   1.645   2.582
 3465TIP3   OH210400   2.820   4.862   0.516
 3465TIP3    H110401   2.725   4.870   0.507
 3465TIP3    H210402   2.848   4.945   0.554
 3466TIP3   OH210403   2.883   2.799   1.281
 3466TIP3    H110404   2.803   2.791   1.334
 3466TIP3    H210405   2.948   2.836   1.341
 3467TIP3   OH210406   5.385   5.686   4.927
 3467TIP3    H110407   5.452   5.734   4.975
 3467TIP3    H210408   5.312   5.677   4.988
 3468TIP3   OH210409   3.306   5.072   3.664
 3468TIP3    H110410   3.345   5.002   3.612
 3468TIP3    H210411   3.346   5.063   3.751
 3469TIP3   OH210412   2.322   5.298   3.840
 3469TIP3    H110413   2.355   5.344   3.917
 3469TIP3    H210414   2.259   5.235   3.875
 3470TIP3   OH210415   3.360   1.797   4.783
 3470TIP3    H110416   3.348   1.892   4.771
 3470TIP3    H210417   3.330   1.781   4.873
 3471TIP3   OH210418   3.020   3.698   4.990
 3471TIP3    H110419   3.086   3.629   4.982
 3471TIP3    H210420   2.973   3.696   4.906
 3472TIP3   OH210421   5.547   1.303   4.618
 3472TIP3    H110422   5.542   1.376   4.556
 3472TIP3    H210423   5.625   1.254   4.591
 3473TIP3   OH210424   1.228   4.114   4.892
 3473TIP3    H110425   1.284   4.091   4.818
 3473TIP3    H210426   1.224   4.210   4.890
 3474TIP3   OH210427   4.880   1.002   2.656
 3474TIP3    H110428   4.914   1.064   2.591
 3474TIP3    H210429   4.795   0.975   2.621
 3475TIP3   OH210430   3.682   3.576   4.733
 3475TIP3    H110431   3.708   3.622   4.653
 3475TIP3    H210432   3.765   3.547   4.772
 3476TIP3   OH210433   3.491   3.496   4.945
 3476TIP3    H110434   3.549   3.508   5.020
 3476TIP3    H210435   3.549   3.495   4.869
 3477TIP3   OH210436   4.188   0.356   1.650
 3477TIP3    H110437   4.184   0.450   1.664
 3477TIP3    H210438   4.139   0.318   1.723
 3478TIP3   OH210439   4.120   4.189   2.478
 3478TIP3    H110440   4.172   4.253   2.429
 3478TIP3    H210441   4.179   4.156   2.545
 3479TIP3   OH210442   6.071   4.637   3.729
 3479TIP3    H110443   6.012   4.617   3.655
 3479TIP3    H210444   6.012   4.653   3.803
 3480TIP3   OH210445   3.070   1.340   1.034
 3480TIP3    H110446   3.145   1.337   0.974
 3480TIP3    H210447   3.047   1.433   1.038
 3481TIP3   OH210448   1.217   3.079   0.671
 3481TIP3    H110449   1.205   2.985   0.661
 3481TIP3    H210450   1.268   3.105   0.594
 3482TIP3   OH210451   1.383   0.719   2.807
 3482TIP3    H110452   1.361   0.799   2.759
 3482TIP3    H210453   1.335   0.726   2.890
 3483TIP3   OH210454   1.631   3.138   1.150
 3483TIP3    H110455   1.546   3.172   1.176
 3483TIP3    H210456   1.679   3.214   1.117
 3484TIP3   OH210457   4.172   4.084   1.479
 3484TIP3    H110458   4.191   4.055   1.390
 3484TIP3    H210459   4.171   4.180   1.474
 3485TIP3   OH210460   3.282   0.088   3.417
 3485TIP3    H110461   3.247  -0.001   3.406
 3485TIP3    H210462   3.206   0.145   3.405
 3486TIP3   OH210463   5.710   3.249   3.930
 3486TIP3    H110464   5.699   3.344   3.932
 3486TIP3    H210465   5.667   3.221   3.850
 3487TIP3   OH210466   1.558   3.373   2.180
 3487TIP3    H110467   1.489   3.336   2.125
 3487TIP3    H210468   1.514   3.395   2.262
 3488TIP3   OH210469   3.079   0.918   1.907
 3488TIP3    H110470   3.112   0.834   1.939
 3488TIP3    H210471   3.117   0.926   1.819
 3489TIP3   OH210472   1.339   2.671   4.833
 3489TIP3    H110473   1.367   2.582   4.853
 3489TIP3    H210474   1.355   2.720   4.913
 3490TIP3   OH210475   1.555   1.954   0.436
 3490TIP3    H110476   1.641   1.944   0.478
 3490TIP3    H210477   1.549   1.879   0.377
 3491TIP3   OH210478   1.120   1.176   0.950
 3491TIP3    H110479   1.108   1.266   0.919
 3491TIP3    H210480   1.209   1.153   0.924
 3492TIP3   OH210481   4.403   1.163   4.934
 3492TIP3    H110482   4.363   1.210   5.007
 3492TIP3    H210483   4.329   1.139   4.878
 3493TIP3   OH210484   1.444   2.197   2.151
 3493TIP3    H110485   1.488   2.221   2.233
 3493TIP3    H210486   1.477   2.110   2.130
 3494TIP3   OH210487   3.092   0.345   5.005
 3494TIP3    H110488   3.125   0.352   5.094
 3494TIP3    H210489   3.130   0.264   4.971
 3495TIP3   OH210490   1.739   2.196   3.122
 3495TIP3    H110491   1.658   2.172   3.168
 3495TIP3    H210492   1.797   2.227   3.190
 3496TIP3   OH210493   5.029   1.616   1.710
 3496TIP3    H110494   4.944   1.573   1.707
 3496TIP3    H210495   5.085   1.559   1.656
 3497TIP3   OH210496   1.551   1.054   4.055
 3497TIP3    H110497   1.527   1.043   4.146
 3497TIP3    H210498   1.478   1.018   4.005
 3498TIP3   OH210499   2.179   2.691   2.171
 3498TIP3    H110500   2.225   2.666   2.252
 3498TIP3    H210501   2.244   2.679   2.102
 3499TIP3   OH210502   4.992   0.166   0.263
 3499TIP3    H110503   5.085   0.169   0.285
 3499TIP3    H210504   4.948   0.204   0.338
 3500TIP3   OH210505   3.926   3.784   1.061
 3500TIP3    H110506   3.933   3.690   1.075
 3500TIP3    H210507   3.885   3.792   0.975
 3501TIP3   OH210508   3.980   4.057   2.004
 3501TIP3    H110509   3.994   4.033   2.096
 3501TIP3    H210510   3.888   4.080   1.999
 3502TIP3   OH210511   5.426   3.009   2.900
 3502TIP3    H110512   5.502   2.960   2.931
 3502TIP3    H210513   5.352   2.948   2.909
 3503TIP3   OH210514  -0.031   0.936   4.466
 3503TIP3    H110515   0.025   0.993   4.518
 3503TIP3    H210516   0.029   0.878   4.419
 3504TIP3   OH210517   5.537   0.317   3.448
 3504TIP3    H110518   5.446   0.320   3.418
 3504TIP3    H210519   5.546   0.229   3.486
 3505TIP3   OH210520   4.443   2.268   1.902
 3505TIP3    H110521   4.405   2.226   1.824
 3505TIP3    H210522   4.537   2.255   1.892
 3506TIP3   OH210523   0.944   0.455   0.299
 3506TIP3    H110524   0.957   0.381   0.358
 3506TIP3    H210525   0.849   0.466   0.294
 3507TIP3   OH210526   2.693   4.588   5.064
 3507TIP3    H110527   2.771   4.640   5.085
 3507TIP3    H210528   2.681   4.532   5.141
 3508TIP3   OH210529   5.075   0.252   1.683
 3508TIP3    H110530   5.110   0.193   1.750
 3508TIP3    H210531   5.036   0.194   1.618
 3509TIP3   OH210532   3.584   5.716   2.115
 3509TIP3    H110533   3.585   5.728   2.020
 3509TIP3    H210534   3.580   5.621   2.127
 3510TIP3   OH210535   0.851   1.098   0.938
 3510TIP3    H110536   0.941   1.124   0.918
 3510TIP3    H210537   0.853   1.072   1.030
 3511TIP3   OH210538   1.140   2.024   2.887
 3511TIP3    H110539   1.070   2.033   2.951
 3511TIP3    H210540   1.157   1.930   2.882
 3512TIP3   OH210541   2.066   3.647   4.678
 3512TIP3    H110542   1.998   3.621   4.617
 3512TIP3    H210543   2.093   3.565   4.720
 3513TIP3   OH210544   2.903   0.398   1.674
 3513TIP3    H110545   2.841   0.331   1.645
 3513TIP3    H210546   2.871   0.423   1.761
 3514TIP3   OH210547   1.798   1.016   1.424
 3514TIP3    H110548   1.883   1.053   1.399
 3514TIP3    H210549   1.804   1.004   1.519
 3515TIP3   OH210550   0.912   4.174   1.342
 3515TIP3    H110551   0.836   4.130   1.304
 3515TIP3    H210552   0.977   4.173   1.272
 3516TIP3   OH210553   3.128   0.539   4.344
 3516TIP3    H110554   3.111   0.447   4.322
 3516TIP3    H210555   3.147   0.580   4.259
 3517TIP3   OH210556   3.620   1.993   0.332
 3517TIP3    H110557   3.586   2.061   0.273
 3517TIP3    H210558   3.637   2.039   0.415
 3518TIP3   OH210559   5.809   1.188   2.888
 3518TIP3    H110560   5.823   1.260   2.950
 3518TIP3    H210561   5.810   1.230   2.802
 3519TIP3   OH210562   4.089   3.404   0.573
 3519TIP3    H110563   4.184   3.414   0.564
 3519TIP3    H210564   4.077   3.368   0.661
 3520TIP3   OH210565   3.183   1.448   2.591
 3520TIP3    H110566   3.122   1.450   2.664
 3520TIP3    H210567   3.128   1.447   2.513
 3521TIP3   OH210568   3.368   3.398   1.291
 3521TIP3    H110569   3.318   3.320   1.268
 3521TIP3    H210570   3.447   3.363   1.333
 3522TIP3   OH210571   0.638   5.208   1.240
 3522TIP3    H110572   0.660   5.115   1.239
 3522TIP3    H210573   0.715   5.250   1.280
 3523TIP3   OH210574   0.588   5.604   4.786
 3523TIP3    H110575   0.533   5.534   4.820
 3523TIP3    H210576   0.526   5.667   4.748
 3524TIP3   OH210577   5.428   3.097   4.541
 3524TIP3    H110578   5.504   3.115   4.486
 3524TIP3    H210579   5.443   3.148   4.620
 3525TIP3   OH210580   3.770   1.657   3.082
 3525TIP3    H110581   3.743   1.589   3.144
 3525TIP3    H210582   3.688   1.697   3.054
 3526TIP3   OH210583   1.233   4.676   1.060
 3526TIP3    H110584   1.298   4.746   1.069
 3526TIP3    H210585   1.274   4.613   1.001
 3527TIP3   OH210586   0.267   2.385   1.312
 3527TIP3    H110587   0.274   2.302   1.359
 3527TIP3    H210588   0.195   2.432   1.355
 3528TIP3   OH210589   5.318   0.495   0.784
 3528TIP3    H110590   5.279   0.542   0.858
 3528TIP3    H210591   5.381   0.435   0.824
 3529TIP3   OH210592   3.778   0.643   3.310
 3529TIP3    H110593   3.753   0.567   3.257
 3529TIP3    H210594   3.726   0.635   3.390
 3530TIP3   OH210595   5.607   5.516   0.385
 3530TIP3    H110596   5.566   5.601   0.401
 3530TIP3    H210597   5.698   5.527   0.411
 3531TIP3   OH210598   6.074   0.538   1.971
 3531TIP3    H110599   6.011   0.591   1.922
 3531TIP3    H210600   6.144   0.520   1.908
 3532TIP3   OH210601   2.493   3.634   4.368
 3532TIP3    H110602   2.523   3.687   4.294
 3532TIP3    H210603   2.450   3.697   4.426
 3533TIP3   OH210604   5.340   5.919   3.089
 3533TIP3    H110605   5.310   5.828   3.081
 3533TIP3    H210606   5.265   5.966   3.125
 3534TIP3   OH210607   0.589   3.782   2.958
 3534TIP3    H110608   0.587   3.696   2.915
 3534TIP3    H210609   0.567   3.844   2.888
 3535TIP3   OH210610   1.671   2.782   2.760
 3535TIP3    H110611   1.703   2.835   2.834
 3535TIP3    H210612   1.580   2.810   2.748
 3536TIP3   OH210613   0.360   0.706   5.195
 3536TIP3    H110614   0.398   0.668   5.116
 3536TIP3    H210615   0.268   0.720   5.173
 3537TIP3   OH210616   5.983   2.350   3.557
 3537TIP3    H110617   5.998   2.427   3.612
 3537TIP3    H210618   6.034   2.280   3.599
 3538TIP3   OH210619   5.948   2.156   4.828
 3538TIP3    H110620   6.038   2.123   4.830
 3538TIP3    H210621   5.933   2.177   4.735
 3539TIP3   OH210622   4.056   4.896   0.098
 3539TIP3    H110623   4.021   4.891   0.187
 3539TIP3    H210624   4.110   4.818   0.089
 3540TIP3   OH210625   3.104   4.174   1.194
 3540TIP3    H110626   3.044   4.129   1.253
 3540TIP3    H210627   3.181   4.116   1.190
 3541TIP3   OH210628   3.425   4.210   2.557
 3541TIP3    H110629   3.346   4.165   2.586
 3541TIP3    H210630   3.429   4.195   2.463
 3542TIP3   OH210631   4.079   5.046   4.751
 3542TIP3    H110632   4.151   5.025   4.692
 3542TIP3    H210633   4.113   5.116   4.806
 3543TIP3   OH210634   4.560   2.041   1.710
 3543TIP3    H110635   4.633   2.028   1.649
 3543TIP3    H210636   4.601   2.070   1.791
 3544TIP3   OH210637   4.817   0.402   0.109
 3544TIP3    H110638   4.781   0.430   0.194
 3544TIP3    H210639   4.787   0.468   0.047
 3545TIP3   OH210640   5.480   4.889   3.420
 3545TIP3    H110641   5.430   4.969   3.438
 3545TIP3    H210642   5.465   4.873   3.327
 3546TIP3   OH210643   4.155   4.694   4.012
 3546TIP3    H110644   4.104   4.627   4.057
 3546TIP3    H210645   4.141   4.676   3.919
 3547TIP3   OH210646   4.949   3.424   3.715
 3547TIP3    H110647   5.031   3.376   3.725
 3547TIP3    H210648   4.969   3.512   3.745
 3548TIP3   OH210649   3.621   3.098   2.675
 3548TIP3    H110650   3.535   3.141   2.673
 3548TIP3    H210651   3.673   3.152   2.735
 3549TIP3   OH210652   5.734   4.178   3.032
 3549TIP3    H110653   5.792   4.133   2.970
 3549TIP3    H210654   5.718   4.113   3.100
 3550TIP3   OH210655   3.626   3.377   0.381
 3550TIP3    H110656   3.544   3.426   0.382
 3550TIP3    H210657   3.688   3.431   0.430
 3551TIP3   OH210658   4.340   3.744   2.113
 3551TIP3    H110659   4.286   3.699   2.177
 3551TIP3    H210660   4.291   3.736   2.031
 3552TIP3   OH210661   1.568   2.947   0.054
 3552TIP3    H110662   1.601   3.000  -0.018
 3552TIP3    H210663   1.521   2.875   0.012
 3553TIP3   OH210664   6.023   1.571   1.492
 3553TIP3    H110665   6.028   1.563   1.397
 3553TIP3    H210666   5.976   1.653   1.507
 3554TIP3   OH210667   2.061   0.838   3.161
 3554TIP3    H110668   2.037   0.761   3.213
 3554TIP3    H210669   2.133   0.808   3.106
 3555TIP3   OH210670   1.377   4.012   1.074
 3555TIP3    H110671   1.382   4.084   1.137
 3555TIP3    H210672   1.467   3.980   1.068
 3556TIP3   OH210673   1.074   1.802   2.159
 3556TIP3    H110674   0.978   1.809   2.151
 3556TIP3    H210675   1.097   1.728   2.104
 3557TIP3   OH210676   6.181   4.403   2.796
 3557TIP3    H110677   6.223   4.454   2.865
 3557TIP3    H210678   6.210   4.444   2.714
 3558TIP3   OH210679   2.132   4.439   3.780
 3558TIP3    H110680   2.196   4.440   3.852
 3558TIP3    H210681   2.081   4.359   3.795
 3559TIP3   OH210682   4.998   2.458   2.801
 3559TIP3    H110683   4.975   2.390   2.737
 3559TIP3    H210684   5.000   2.539   2.750
 3560TIP3   OH210685   3.488   2.567   2.939
 3560TIP3    H110686   3.495   2.638   3.002
 3560TIP3    H210687   3.394   2.556   2.924
 3561TIP3   OH210688   4.091   3.831   3.454
 3561TIP3    H110689   4.082   3.912   3.404
 3561TIP3    H210690   4.049   3.850   3.538
 3562TIP3   OH210691   0.928   1.626   0.696
 3562TIP3    H110692   1.010   1.660   0.659
 3562TIP3    H210693   0.861   1.685   0.664
 3563TIP3   OH210694   1.133   3.314   4.975
 3563TIP3    H110695   1.093   3.376   5.035
 3563TIP3    H210696   1.118   3.228   5.014
 3564TIP3   OH210697   5.121   2.179   0.792
 3564TIP3    H110698   5.044   2.219   0.752
 3564TIP3    H210699   5.166   2.252   0.834
 3565TIP3   OH210700   0.685   2.017   5.102
 3565TIP3    H110701   0.702   1.981   5.015
 3565TIP3    H210702   0.590   2.012   5.111
 3566TIP3   OH210703   1.075   2.890   1.987
 3566TIP3    H110704   1.090   2.882   1.893
 3566TIP3    H210705   1.043   2.804   2.014
 3567TIP3   OH210706   5.272   0.508   1.079
 3567TIP3    H110707   5.183   0.473   1.088
 3567TIP3    H210708   5.329   0.437   1.110
 3568TIP3   OH210709   2.988   0.237   2.543
 3568TIP3    H110710   2.938   0.282   2.475
 3568TIP3    H210711   2.929   0.231   2.617
 3569TIP3   OH210712   5.827   1.667   0.988
 3569TIP3    H110713   5.902   1.634   0.938
 3569TIP3    H210714   5.782   1.727   0.928
 3570TIP3   OH210715   3.401   0.117   3.672
 3570TIP3    H110716   3.389   0.086   3.583
 3570TIP3    H210717   3.492   0.096   3.693
 3571TIP3   OH210718   6.256   1.355   0.551
 3571TIP3    H110719   6.315   1.292   0.510
 3571TIP3    H210720   6.272   1.437   0.504
 3572TIP3   OH210721   4.251   1.076   3.323
 3572TIP3    H110722   4.177   1.136   3.312
 3572TIP3    H210723   4.326   1.134   3.341
 3573TIP3   OH210724   5.540   3.271   4.179
 3573TIP3    H110725   5.610   3.258   4.114
 3573TIP3    H210726   5.583   3.319   4.250
 3574TIP3   OH210727   4.887   2.097   5.027
 3574TIP3    H110728   4.885   2.185   4.990
 3574TIP3    H210729   4.923   2.043   4.957
 3575TIP3   OH210730   5.135   1.503   5.007
 3575TIP3    H110731   5.070   1.572   5.017
 3575TIP3    H210732   5.160   1.507   4.914
 3576TIP3   OH210733   4.793   5.878   2.959
 3576TIP3    H110734   4.857   5.948   2.968
 3576TIP3    H210735   4.839   5.809   2.910
 3577TIP3   OH210736   5.076   5.659   4.614
 3577TIP3    H110737   5.070   5.591   4.547
 3577TIP3    H210738   5.139   5.624   4.678
 3578TIP3   OH210739   0.733   2.873   0.033
 3578TIP3    H110740   0.699   2.872  -0.056
 3578TIP3    H210741   0.797   2.944   0.034
 3579TIP3   OH210742   5.894   2.815   4.153
 3579TIP3    H110743   5.936   2.893   4.118
 3579TIP3    H210744   5.910   2.747   4.087
 3580TIP3   OH210745   0.745   3.174   3.324
 3580TIP3    H110746   0.755   3.092   3.371
 3580TIP3    H210747   0.810   3.170   3.253
 3581TIP3   OH210748   0.335   0.818   2.697
 3581TIP3    H110749   0.374   0.890   2.747
 3581TIP3    H210750   0.255   0.855   2.661
 3582TIP3   OH210751   4.159   4.104   4.386
 3582TIP3    H110752   4.101   4.155   4.443
 3582TIP3    H210753   4.211   4.051   4.447
 3583TIP3   OH210754   2.582   3.577   1.854
 3583TIP3    H110755   2.516   3.509   1.838
 3583TIP3    H210756   2.535   3.659   1.841
 3584TIP3   OH210757   5.741   3.703   1.563
 3584TIP3    H110758   5.720   3.611   1.580
 3584TIP3    H210759   5.824   3.701   1.516
 3585TIP3   OH210760   5.975   2.944   2.297
 3585TIP3    H110761   5.999   2.936   2.389
 3585TIP3    H210762   5.880   2.958   2.298
 3586TIP3   OH210763   0.352   5.177   1.184
 3586TIP3    H110764   0.448   5.178   1.192
 3586TIP3    H210765   0.329   5.267   1.161
 3587TIP3   OH210766   0.281   2.947   1.919
 3587TIP3    H110767   0.202   2.974   1.967
 3587TIP3    H210768   0.311   2.869   1.966
 3588TIP3   OH210769   1.903   4.004   2.203
 3588TIP3    H110770   1.867   4.076   2.152
 3588TIP3    H210771   1.827   3.949   2.223
 3589TIP3   OH210772   4.292   3.358   1.641
 3589TIP3    H110773   4.291   3.323   1.552
 3589TIP3    H210774   4.307   3.452   1.630
 3590TIP3   OH210775   4.572   0.454   2.799
 3590TIP3    H110776   4.630   0.430   2.871
 3590TIP3    H210777   4.626   0.510   2.743
 3591TIP3   OH210778   6.046   2.221   4.305
 3591TIP3    H110779   6.013   2.273   4.232
 3591TIP3    H210780   5.978   2.155   4.320
 3592TIP3   OH210781   0.742   3.014   4.945
 3592TIP3    H110782   0.734   3.059   5.029
 3592TIP3    H210783   0.825   3.046   4.909
 3593TIP3   OH210784   6.037   3.898   1.933
 3593TIP3    H110785   6.038   3.802   1.926
 3593TIP3    H210786   6.096   3.927   1.864
 3594TIP3   OH210787   2.677   3.051   2.575
 3594TIP3    H110788   2.674   3.110   2.651
 3594TIP3    H210789   2.617   2.980   2.598
 3595TIP3   OH210790   1.789   5.507   4.651
 3595TIP3    H110791   1.753   5.552   4.728
 3595TIP3    H210792   1.852   5.445   4.687
 3596TIP3   OH210793   6.043   3.399   0.089
 3596TIP3    H110794   6.022   3.451   0.012
 3596TIP3    H210795   6.007   3.449   0.162
 3597TIP3   OH210796   5.724   3.369   3.522
 3597TIP3    H110797   5.780   3.362   3.444
 3597TIP3    H210798   5.719   3.462   3.540
 3598TIP3   OH210799   4.739   1.087   0.376
 3598TIP3    H110800   4.752   1.175   0.342
 3598TIP3    H210801   4.771   1.091   0.467
 3599TIP3   OH210802   0.074   3.500   3.301
 3599TIP3    H110803   0.137   3.433   3.275
 3599TIP3    H210804  -0.008   3.452   3.312
 3600TIP3   OH210805   6.071   4.226   3.414
 3600TIP3    H110806   6.092   4.222   3.507
 3600TIP3    H210807   6.023   4.308   3.403
 3601TIP3   OH210808   0.164   2.183   1.107
 3601TIP3    H110809   0.119   2.222   1.183
 3601TIP3    H210810   0.248   2.153   1.142
 3602TIP3   OH210811   2.150  -0.023   1.011
 3602TIP3    H110812   2.126   0.059   0.967
 3602TIP3    H210813   2.158   0.002   1.103
 3603TIP3   OH210814   5.982   1.166   0.095
 3603TIP3    H110815   5.996   1.116   0.015
 3603TIP3    H210816   6.051   1.233   0.093
 3604TIP3   OH210817   1.698   4.155   1.525
 3604TIP3    H110818   1.654   4.237   1.546
 3604TIP3    H210819   1.687   4.102   1.604
 3605TIP3   OH210820   1.146   4.979   1.393
 3605TIP3    H110821   1.138   5.040   1.466
 3605TIP3    H210822   1.236   4.947   1.397
 3606TIP3   OH210823   3.705   5.801   1.604
 3606TIP3    H110824   3.721   5.895   1.596
 3606TIP3    H210825   3.771   5.770   1.665
 3607TIP3   OH210826   6.288   4.848   2.530
 3607TIP3    H110827   6.339   4.774   2.497
 3607TIP3    H210828   6.204   4.810   2.555
 3608TIP3   OH210829   3.440   5.914   1.615
 3608TIP3    H110830   3.362   5.892   1.564
 3608TIP3    H210831   3.504   5.945   1.551
 3609TIP3   OH210832   6.130   5.906   2.036
 3609TIP3    H110833   6.089   5.993   2.040
 3609TIP3    H210834   6.223   5.924   2.021
 3610TIP3   OH210835   2.307   5.584   1.545
 3610TIP3    H110836   2.360   5.505   1.545
 3610TIP3    H210837   2.217   5.553   1.533
 3611TIP3   OH210838   1.585   2.648   1.264
 3611TIP3    H110839   1.678   2.641   1.285
 3611TIP3    H210840   1.578   2.609   1.176
 3612TIP3   OH210841   2.466   5.024   5.057
 3612TIP3    H110842   2.478   4.969   4.980
 3612TIP3    H210843   2.481   5.113   5.025
 3613TIP3   OH210844   4.988   3.489   0.991
 3613TIP3    H110845   5.039   3.547   1.046
 3613TIP3    H210846   4.971   3.539   0.912
 3614TIP3   OH210847   3.990   0.410   3.694
 3614TIP3    H110848   3.917   0.384   3.638
 3614TIP3    H210849   3.976   0.362   3.776
 3615TIP3   OH210850   5.246   5.167   0.655
 3615TIP3    H110851   5.341   5.162   0.647
 3615TIP3    H210852   5.231   5.238   0.718
 3616TIP3   OH210853   1.919   5.262   4.329
 3616TIP3    H110854   1.858   5.268   4.403
 3616TIP3    H210855   1.887   5.326   4.266
 3617TIP3   OH210856   4.787   5.873   2.585
 3617TIP3    H110857   4.874   5.907   2.602
 3617TIP3    H210858   4.749   5.858   2.672
 3618TIP3   OH210859   1.004   0.177   0.882
 3618TIP3    H110860   1.064   0.128   0.939
 3618TIP3    H210861   1.002   0.126   0.801
 3619TIP3   OH210862   1.744   5.077   2.180
 3619TIP3    H110863   1.779   5.158   2.144
 3619TIP3    H210864   1.818   5.036   2.226
 3620TIP3   OH210865   4.794   1.424   4.070
 3620TIP3    H110866   4.699   1.429   4.057
 3620TIP3    H210867   4.805   1.425   4.165
 3621TIP3   OH210868   1.170   5.501   0.794
 3621TIP3    H110869   1.080   5.517   0.824
 3621TIP3    H210870   1.225   5.528   0.867
 3622TIP3   OH210871   2.152   4.016   1.978
 3622TIP3    H110872   2.162   4.003   1.884
 3622TIP3    H210873   2.116   3.933   2.010
 3623TIP3   OH210874   3.877   5.598   3.593
 3623TIP3    H110875   3.952   5.621   3.539
 3623TIP3    H210876   3.803   5.598   3.532
 3624TIP3   OH210877   3.748   0.490   0.830
 3624TIP3    H110878   3.728   0.583   0.835
 3624TIP3    H210879   3.799   0.481   0.749
 3625TIP3   OH210880   6.218   5.672   1.274
 3625TIP3    H110881   6.211   5.578   1.258
 3625TIP3    H210882   6.311   5.691   1.258
 3626TIP3   OH210883   4.864   1.336   0.331
 3626TIP3    H110884   4.853   1.429   0.312
 3626TIP3    H210885   4.951   1.314   0.299
 3627TIP3   OH210886   3.201   0.399   3.603
 3627TIP3    H110887   3.134   0.334   3.582
 3627TIP3    H210888   3.153   0.469   3.646
 3628TIP3   OH210889   5.515   3.988   1.382
 3628TIP3    H110890   5.519   3.892   1.384
 3628TIP3    H210891   5.524   4.010   1.290
 3629TIP3   OH210892   2.601   3.702   4.818
 3629TIP3    H110893   2.679   3.659   4.786
 3629TIP3    H210894   2.599   3.681   4.912
 3630TIP3   OH210895   5.598   5.661   3.168
 3630TIP3    H110896   5.618   5.641   3.259
 3630TIP3    H210897   5.523   5.605   3.147
 3631TIP3   OH210898   1.521   2.326   2.605
 3631TIP3    H110899   1.450   2.266   2.625
 3631TIP3    H210900   1.568   2.285   2.533
 3632TIP3   OH210901   3.244   5.477   4.237
 3632TIP3    H110902   3.157   5.518   4.237
 3632TIP3    H210903   3.289   5.517   4.311
 3633TIP3   OH210904   5.856   0.340   0.302
 3633TIP3    H110905   5.854   0.429   0.269
 3633TIP3    H210906   5.929   0.299   0.257
 3634TIP3   OH210907   5.075   0.286   1.064
 3634TIP3    H110908   5.153   0.232   1.075
 3634TIP3    H210909   5.048   0.271   0.973
 3635TIP3   OH210910   6.042   0.258   1.741
 3635TIP3    H110911   6.115   0.312   1.712
 3635TIP3    H210912   6.042   0.267   1.837
 3636TIP3   OH210913   3.812   2.704   2.264
 3636TIP3    H110914   3.823   2.609   2.274
 3636TIP3    H210915   3.862   2.726   2.185
 3637TIP3   OH210916   5.852   5.796   4.687
 3637TIP3    H110917   5.812   5.879   4.660
 3637TIP3    H210918   5.936   5.821   4.726
 3638TIP3   OH210919   1.197   5.608   2.222
 3638TIP3    H110920   1.211   5.519   2.189
 3638TIP3    H210921   1.149   5.652   2.152
 3639TIP3   OH210922   4.515   0.200   2.797
 3639TIP3    H110923   4.545   0.284   2.833
 3639TIP3    H210924   4.419   0.208   2.795
 3640TIP3   OH210925   6.048   0.431   3.008
 3640TIP3    H110926   5.999   0.366   3.059
 3640TIP3    H210927   6.139   0.415   3.031
 3641TIP3   OH210928   1.608   2.287   1.492
 3641TIP3    H110929   1.555   2.235   1.552
 3641TIP3    H210930   1.666   2.224   1.450
 3642TIP3   OH210931   6.065   0.937   5.132
 3642TIP3    H110932   6.108   0.951   5.048
 3642TIP3    H210933   5.991   0.880   5.112
 3643TIP3   OH210934   3.554   3.635   3.088
 3643TIP3    H110935   3.566   3.547   3.051
 3643TIP3    H210936   3.600   3.692   3.026
 3644TIP3   OH210937   2.206   4.644   3.611
 3644TIP3    H110938   2.302   4.640   3.608
 3644TIP3    H210939   2.181   4.561   3.652
 3645TIP3   OH210940   1.792   3.970   0.492
 3645TIP3    H110941   1.829   3.994   0.407
 3645TIP3    H210942   1.722   4.034   0.507
 3646TIP3   OH210943   0.261   0.772   3.273
 3646TIP3    H110944   0.246   0.685   3.237
 3646TIP3    H210945   0.290   0.825   3.199
 3647TIP3   OH210946   0.507   2.470   3.155
 3647TIP3    H110947   0.595   2.486   3.187
 3647TIP3    H210948   0.455   2.453   3.234
 3648TIP3   OH210949   2.659   3.679   2.839
 3648TIP3    H110950   2.644   3.756   2.784
 3648TIP3    H210951   2.586   3.621   2.818
 3649TIP3   OH210952   3.071   2.870   4.512
 3649TIP3    H110953   3.117   2.924   4.448
 3649TIP3    H210954   3.141   2.833   4.566
 3650TIP3   OH210955   4.913   3.996   0.874
 3650TIP3    H110956   4.930   3.916   0.924
 3650TIP3    H210957   4.881   4.059   0.938
 3651TIP3   OH210958   2.647   4.070   4.608
 3651TIP3    H110959   2.679   4.006   4.544
 3651TIP3    H210960   2.713   4.139   4.608
 3652TIP3   OH210961   1.378   2.113   2.679
 3652TIP3    H110962   1.401   2.036   2.731
 3652TIP3    H210963   1.282   2.113   2.677
 3653TIP3   OH210964   2.037   0.231   0.363
 3653TIP3    H110965   2.064   0.213   0.273
 3653TIP3    H210966   2.041   0.146   0.407
 3654TIP3   OH210967   2.692   3.256   4.227
 3654TIP3    H110968   2.705   3.168   4.191
 3654TIP3    H210969   2.645   3.303   4.158
 3655TIP3   OH210970   2.294   4.856   2.336
 3655TIP3    H110971   2.332   4.906   2.263
 3655TIP3    H210972   2.226   4.803   2.296
 3656TIP3   OH210973   0.089   1.221   0.890
 3656TIP3    H110974   0.166   1.200   0.837
 3656TIP3    H210975   0.117   1.203   0.980
 3657TIP3   OH210976   3.396   3.206   3.069
 3657TIP3    H110977   3.453   3.265   3.019
 3657TIP3    H210978   3.456   3.145   3.111
 3658TIP3   OH210979   1.958   2.382   4.935
 3658TIP3    H110980   2.027   2.322   4.908
 3658TIP3    H210981   1.987   2.468   4.904
 3659TIP3   OH210982   0.309   0.115   0.406
 3659TIP3    H110983   0.318   0.042   0.346
 3659TIP3    H210984   0.292   0.074   0.491
 3660TIP3   OH210985   1.701   5.083   4.795
 3660TIP3    H110986   1.688   5.081   4.700
 3660TIP3    H210987   1.640   5.018   4.830
 3661TIP3   OH210988   4.554   3.221   4.473
 3661TIP3    H110989   4.612   3.245   4.546
 3661TIP3    H210990   4.598   3.255   4.395
 3662TIP3   OH210991   0.579   1.539   4.609
 3662TIP3    H110992   0.666   1.572   4.588
 3662TIP3    H210993   0.520   1.592   4.555
 3663TIP3   OH210994   5.059   0.333   3.592
 3663TIP3    H110995   5.108   0.251   3.584
 3663TIP3    H210996   5.032   0.353   3.502
 3664TIP3   OH210997   2.810   2.609   2.532
 3664TIP3    H110998   2.764   2.684   2.493
 3664TIP3    H210999   2.902   2.622   2.507
 3665TIP3   OH211000   3.596   3.112   2.043
 3665TIP3    H111001   3.571   3.050   1.974
 3665TIP3    H211002   3.685   3.137   2.021
 3666TIP3   OH211003   4.321   0.722   1.103
 3666TIP3    H111004   4.306   0.675   1.186
 3666TIP3    H211005   4.234   0.726   1.062
 3667TIP3   OH211006   4.158   4.737   3.397
 3667TIP3    H111007   4.090   4.712   3.460
 3667TIP3    H211008   4.128   4.821   3.362
 3668TIP3   OH211009   5.841   1.172   1.519
 3668TIP3    H111010   5.904   1.100   1.522
 3668TIP3    H211011   5.769   1.144   1.575
 3669TIP3   OH211012   3.542   2.521   0.690
 3669TIP3    H111013   3.492   2.602   0.679
 3669TIP3    H211014   3.596   2.516   0.611
 3670TIP3   OH211015   4.672   4.831   3.197
 3670TIP3    H111016   4.691   4.738   3.182
 3670TIP3    H211017   4.609   4.830   3.270
 3671TIP3   OH211018   4.449   0.820   3.255
 3671TIP3    H111019   4.405   0.762   3.193
 3671TIP3    H211020   4.445   0.773   3.339
 3672TIP3   OH211021   1.826   2.873   1.410
 3672TIP3    H111022   1.850   2.958   1.373
 3672TIP3    H211023   1.837   2.812   1.338
 3673TIP3   OH211024   1.340   4.583   4.466
 3673TIP3    H111025   1.271   4.617   4.409
 3673TIP3    H211026   1.421   4.606   4.422
 3674TIP3   OH211027   3.048   4.926   2.951
 3674TIP3    H111028   3.021   4.842   2.989
 3674TIP3    H211029   3.140   4.936   2.978
 3675TIP3   OH211030   5.739   2.911   4.596
 3675TIP3    H111031   5.806   2.881   4.534
 3675TIP3    H211032   5.696   2.831   4.626
 3676TIP3   OH211033   5.884   2.174   2.284
 3676TIP3    H111034   5.815   2.158   2.220
 3676TIP3    H211035   5.844   2.234   2.348
 3677TIP3   OH211036   5.344   2.983   3.915
 3677TIP3    H111037   5.300   2.902   3.890
 3677TIP3    H211038   5.290   3.018   3.987
 3678TIP3   OH211039   3.580   2.935   1.159
 3678TIP3    H111040   3.632   2.871   1.110
 3678TIP3    H211041   3.623   2.941   1.244
 3679TIP3   OH211042   4.749   0.661   2.691
 3679TIP3    H111043   4.678   0.717   2.661
 3679TIP3    H211044   4.828   0.697   2.650
 3680TIP3   OH211045   3.027   4.901   4.040
 3680TIP3    H111046   2.967   4.965   4.078
 3680TIP3    H211047   3.085   4.876   4.113
 3681TIP3   OH211048   1.632   4.784   4.752
 3681TIP3    H111049   1.607   4.702   4.708
 3681TIP3    H211050   1.726   4.793   4.735
 3682TIP3   OH211051   0.937   3.001   2.857
 3682TIP3    H111052   0.878   2.931   2.829
 3682TIP3    H211053   0.977   2.968   2.937
 3683TIP3   OH211054   1.433   1.009   1.911
 3683TIP3    H111055   1.405   0.942   1.973
 3683TIP3    H211056   1.370   1.003   1.839
 3684TIP3   OH211057   1.536   0.960   1.328
 3684TIP3    H111058   1.470   0.956   1.398
 3684TIP3    H211059   1.614   0.994   1.372
 3685TIP3   OH211060   5.643   3.250   0.132
 3685TIP3    H111061   5.712   3.245   0.066
 3685TIP3    H211062   5.563   3.227   0.086
 3686TIP3   OH211063   4.407   3.212   3.682
 3686TIP3    H111064   4.353   3.142   3.719
 3686TIP3    H211065   4.485   3.168   3.649
 3687TIP3   OH211066   0.313   3.136   2.937
 3687TIP3    H111067   0.270   3.064   2.891
 3687TIP3    H211068   0.261   3.214   2.914
 3688TIP3   OH211069   3.508   0.806   1.013
 3688TIP3    H111070   3.486   0.723   1.054
 3688TIP3    H211071   3.485   0.872   1.079
 3689TIP3   OH211072   6.042   2.441   4.146
 3689TIP3    H111073   6.098   2.493   4.204
 3689TIP3    H211074   6.061   2.474   4.058
 3690TIP3   OH211075   1.474   2.749   2.190
 3690TIP3    H111076   1.494   2.832   2.145
 3690TIP3    H211077   1.419   2.775   2.263
 3691TIP3   OH211078   3.677   3.886   2.684
 3691TIP3    H111079   3.619   3.830   2.631
 3691TIP3    H211080   3.765   3.862   2.657
 3692TIP3   OH211081   5.744   3.243   1.815
 3692TIP3    H111082   5.741   3.309   1.745
 3692TIP3    H211083   5.663   3.257   1.864
 3693TIP3   OH211084   3.963   1.509   0.889
 3693TIP3    H111085   4.013   1.571   0.942
 3693TIP3    H211086   3.922   1.563   0.822
 3694TIP3   OH211087   1.764   0.591   0.337
 3694TIP3    H111088   1.805   0.623   0.256
 3694TIP3    H211089   1.672   0.616   0.329
 3695TIP3   OH211090   1.473   0.412   4.897
 3695TIP3    H111091   1.552   0.464   4.900
 3695TIP3    H211092   1.487   0.342   4.961
 3696TIP3   OH211093   3.920   1.417   4.967
 3696TIP3    H111094   3.950   1.501   5.003
 3696TIP3    H211095   3.898   1.436   4.876
 3697TIP3   OH211096   2.575   4.018   2.315
 3697TIP3    H111097   2.548   4.104   2.349
 3697TIP3    H211098   2.493   3.969   2.306
 3698TIP3   OH211099   3.077   4.312   0.957
 3698TIP3    H111100   3.089   4.246   1.026
 3698TIP3    H211101   3.094   4.395   1.001
 3699TIP3   OH211102   3.595   1.451   3.199
 3699TIP3    H111103   3.666   1.393   3.171
 3699TIP3    H211104   3.553   1.405   3.272
 3700TIP3   OH211105   4.948   5.244   4.528
 3700TIP3    H111106   5.022   5.231   4.587
 3700TIP3    H211107   4.968   5.326   4.483
 3701TIP3   OH211108   4.366   0.849   4.642
 3701TIP3    H111109   4.311   0.779   4.606
 3701TIP3    H211110   4.437   0.858   4.579
 3702TIP3   OH211111   1.130   2.291   2.774
 3702TIP3    H111112   1.221   2.306   2.751
 3702TIP3    H211113   1.129   2.204   2.816
 3703TIP3   OH211114   5.940   3.097   3.923
 3703TIP3    H111115   5.857   3.053   3.901
 3703TIP3    H211116   5.928   3.187   3.894
 3704TIP3   OH211117   1.459   5.082   3.480
 3704TIP3    H111118   1.524   5.048   3.541
 3704TIP3    H211119   1.391   5.015   3.477
 3705TIP3   OH211120   2.451   1.884   3.308
 3705TIP3    H111121   2.387   1.825   3.347
 3705TIP3    H211122   2.523   1.887   3.371
 3706TIP3   OH211123   6.374   2.948   2.031
 3706TIP3    H111124   6.329   2.999   2.098
 3706TIP3    H211125   6.313   2.945   1.958
 3707TIP3   OH211126   4.006   4.834   4.294
 3707TIP3    H111127   4.097   4.860   4.279
 3707TIP3    H211128   3.955   4.914   4.279
 3708TIP3   OH211129   4.689   3.355   4.659
 3708TIP3    H111130   4.685   3.387   4.750
 3708TIP3    H211131   4.685   3.435   4.606
 3709TIP3   OH211132   4.307   3.236   4.638
 3709TIP3    H111133   4.395   3.228   4.601
 3709TIP3    H211134   4.254   3.174   4.587
 3710TIP3   OH211135   3.629   5.545   2.949
 3710TIP3    H111136   3.547   5.505   2.978
 3710TIP3    H211137   3.646   5.505   2.863
 3711TIP3   OH211138   3.186   1.498   2.274
 3711TIP3    H111139   3.249   1.566   2.296
 3711TIP3    H211140   3.100   1.537   2.291
 3712TIP3   OH211141   2.377   3.942   3.389
 3712TIP3    H111142   2.392   3.848   3.402
 3712TIP3    H211143   2.295   3.959   3.437
 3713TIP3   OH211144   3.227   5.868   0.573
 3713TIP3    H111145   3.242   5.800   0.638
 3713TIP3    H211146   3.221   5.949   0.623
 3714TIP3   OH211147   3.023   5.199   4.879
 3714TIP3    H111148   3.098   5.249   4.911
 3714TIP3    H211149   3.018   5.123   4.937
 3715TIP3   OH211150   0.573   2.788   3.752
 3715TIP3    H111151   0.506   2.783   3.684
 3715TIP3    H211152   0.525   2.781   3.835
 3716TIP3   OH211153   4.049   1.079   0.971
 3716TIP3    H111154   4.001   1.052   0.893
 3716TIP3    H211155   4.000   1.040   1.043
 3717TIP3   OH211156   2.538   2.011   0.193
 3717TIP3    H111157   2.472   1.942   0.190
 3717TIP3    H211158   2.573   2.015   0.104
 3718TIP3   OH211159   0.847   2.611   0.523
 3718TIP3    H111160   0.783   2.585   0.457
 3718TIP3    H211161   0.894   2.684   0.484
 3719TIP3   OH211162   0.068   0.125   0.837
 3719TIP3    H111163   0.006   0.156   0.771
 3719TIP3    H211164   0.027   0.147   0.921
 3720TIP3   OH211165   1.910   2.964   3.944
 3720TIP3    H111166   1.922   2.895   4.009
 3720TIP3    H211167   1.999   2.994   3.924
 3721TIP3   OH211168   5.469   5.808   3.413
 3721TIP3    H111169   5.482   5.852   3.497
 3721TIP3    H211170   5.483   5.876   3.348
 3722TIP3   OH211171   1.889   1.899   3.605
 3722TIP3    H111172   1.910   1.849   3.683
 3722TIP3    H211173   1.920   1.988   3.623
 3723TIP3   OH211174   3.826   2.396   2.582
 3723TIP3    H111175   3.783   2.400   2.667
 3723TIP3    H211176   3.841   2.487   2.558
 3724TIP3   OH211177   1.951   4.332   0.443
 3724TIP3    H111178   2.028   4.282   0.467
 3724TIP3    H211179   1.979   4.424   0.445
 3725TIP3   OH211180   2.950   3.818   4.681
 3725TIP3    H111181   2.934   3.908   4.711
 3725TIP3    H211182   2.981   3.829   4.591
 3726TIP3   OH211183   2.780   3.825   1.330
 3726TIP3    H111184   2.845   3.824   1.260
 3726TIP3    H211185   2.717   3.892   1.303
 3727TIP3   OH211186   2.768   1.480   1.679
 3727TIP3    H111187   2.800   1.495   1.768
 3727TIP3    H211188   2.827   1.532   1.624
 3728TIP3   OH211189   3.624   5.084   0.684
 3728TIP3    H111190   3.569   5.039   0.748
 3728TIP3    H211191   3.643   5.018   0.618
 3729TIP3   OH211192   1.071   1.299   1.214
 3729TIP3    H111193   1.062   1.228   1.150
 3729TIP3    H211194   1.047   1.259   1.297
 3730TIP3   OH211195   2.415   5.363   0.386
 3730TIP3    H111196   2.449   5.380   0.298
 3730TIP3    H211197   2.344   5.427   0.397
 3731TIP3   OH211198   4.235   5.404   3.716
 3731TIP3    H111199   4.203   5.464   3.649
 3731TIP3    H211200   4.155   5.369   3.757
 3732TIP3   OH211201   4.696   0.823   3.931
 3732TIP3    H111202   4.671   0.912   3.955
 3732TIP3    H211203   4.661   0.769   4.002
 3733TIP3   OH211204   1.161   2.027   2.301
 3733TIP3    H111205   1.110   1.977   2.238
 3733TIP3    H211206   1.233   1.968   2.325
 3734TIP3   OH211207   0.795   0.027   2.642
 3734TIP3    H111208   0.833   0.055   2.725
 3734TIP3    H211209   0.870   0.021   2.582
 3735TIP3   OH211210   5.788   1.736   0.269
 3735TIP3    H111211   5.766   1.714   0.178
 3735TIP3    H211212   5.877   1.772   0.264
 3736TIP3   OH211213   4.373   1.290   2.395
 3736TIP3    H111214   4.298   1.231   2.390
 3736TIP3    H211215   4.335   1.374   2.420
 3737TIP3   OH211216   1.865   5.906   3.843
 3737TIP3    H111217   1.850   5.813   3.827
 3737TIP3    H211218   1.900   5.938   3.760
 3738TIP3   OH211219   0.079   3.220   3.219
 3738TIP3    H111220   0.013   3.225   3.150
 3738TIP3    H211221   0.036   3.256   3.296
 3739TIP3   OH211222   1.888   4.233   3.168
 3739TIP3    H111223   1.813   4.173   3.168
 3739TIP3    H211224   1.851   4.317   3.140
 3740TIP3   OH211225   4.421   0.817   1.634
 3740TIP3    H111226   4.511   0.849   1.632
 3740TIP3    H211227   4.390   0.826   1.544
 3741TIP3   OH211228   5.477   0.482   3.932
 3741TIP3    H111229   5.563   0.517   3.957
 3741TIP3    H211230   5.491   0.445   3.844
 3742TIP3   OH211231   0.233   5.640   2.530
 3742TIP3    H111232   0.164   5.620   2.466
 3742TIP3    H211233   0.198   5.714   2.580
 3743TIP3   OH211234   5.974   3.024   4.871
 3743TIP3    H111235   5.933   3.037   4.785
 3743TIP3    H211236   5.975   3.111   4.910
 3744TIP3   OH211237   3.990   3.259   1.195
 3744TIP3    H111238   3.973   3.322   1.126
 3744TIP3    H211239   4.050   3.196   1.157
 3745TIP3   OH211240   4.400   2.326   3.226
 3745TIP3    H111241   4.345   2.375   3.165
 3745TIP3    H211242   4.460   2.276   3.171
 3746TIP3   OH211243   3.059   0.017   2.333
 3746TIP3    H111244   2.991   0.084   2.321
 3746TIP3    H211245   3.134   0.065   2.368
 3747TIP3   OH211246   3.041   1.660   1.048
 3747TIP3    H111247   3.131   1.672   1.017
 3747TIP3    H211248   3.038   1.708   1.130
 3748TIP3   OH211249   1.504   2.834   0.584
 3748TIP3    H111250   1.548   2.759   0.624
 3748TIP3    H211251   1.507   2.816   0.490
 3749TIP3   OH211252   0.072   1.156   0.447
 3749TIP3    H111253   0.106   1.104   0.374
 3749TIP3    H211254   0.117   1.121   0.524
 3750TIP3   OH211255   0.288   1.131   1.125
 3750TIP3    H111256   0.270   1.082   1.205
 3750TIP3    H211257   0.382   1.119   1.110
 3751TIP3   OH211258   1.672   1.267   0.753
 3751TIP3    H111259   1.693   1.317   0.833
 3751TIP3    H211260   1.590   1.222   0.774
 3752TIP3   OH211261   2.852   4.692   3.746
 3752TIP3    H111262   2.935   4.738   3.740
 3752TIP3    H211263   2.827   4.697   3.838
 3753TIP3   OH211264   6.022   3.726   2.797
 3753TIP3    H111265   5.970   3.795   2.837
 3753TIP3    H211266   6.011   3.739   2.703
 3754TIP3   OH211267   4.547   1.609   4.445
 3754TIP3    H111268   4.608   1.576   4.511
 3754TIP3    H211269   4.600   1.662   4.387
 3755TIP3   OH211270   4.856   1.489   4.343
 3755TIP3    H111271   4.837   1.545   4.417
 3755TIP3    H211272   4.853   1.400   4.379
 3756TIP3   OH211273   5.136   5.099   3.912
 3756TIP3    H111274   5.048   5.062   3.910
 3756TIP3    H211275   5.191   5.032   3.871
 3757TIP3   OH211276   6.184   4.665   5.112
 3757TIP3    H111277   6.206   4.735   5.174
 3757TIP3    H211278   6.132   4.603   5.162
 3758TIP3   OH211279   2.893   0.796   2.634
 3758TIP3    H111280   2.844   0.718   2.661
 3758TIP3    H211281   2.911   0.782   2.541
 3759TIP3   OH211282   1.690   5.845   0.518
 3759TIP3    H111283   1.658   5.915   0.575
 3759TIP3    H211284   1.738   5.890   0.449
 3760TIP3   OH211285   4.988   2.614   2.552
 3760TIP3    H111286   4.971   2.528   2.513
 3760TIP3    H211287   4.966   2.677   2.484
 3761TIP3   OH211288   2.030   1.343   0.470
 3761TIP3    H111289   2.078   1.261   0.461
 3761TIP3    H211290   1.938   1.317   0.478
 3762TIP3   OH211291   2.257   5.908   2.522
 3762TIP3    H111292   2.320   5.883   2.454
 3762TIP3    H211293   2.189   5.956   2.475
 3763TIP3   OH211294   2.410   5.225   2.655
 3763TIP3    H111295   2.322   5.244   2.623
 3763TIP3    H211296   2.408   5.248   2.748
 3764TIP3   OH211297   5.064   5.193   3.639
 3764TIP3    H111298   5.082   5.243   3.718
 3764TIP3    H211299   4.981   5.228   3.606
 3765TIP3   OH211300   6.232   5.145   4.987
 3765TIP3    H111301   6.276   5.100   5.059
 3765TIP3    H211302   6.159   5.088   4.963
 3766TIP3   OH211303   5.352   2.390   3.377
 3766TIP3    H111304   5.429   2.404   3.321
 3766TIP3    H211305   5.379   2.320   3.437
 3767TIP3   OH211306   6.235   1.562   2.409
 3767TIP3    H111307   6.159   1.517   2.371
 3767TIP3    H211308   6.211   1.577   2.500
 3768TIP3   OH211309   4.752   2.983   1.422
 3768TIP3    H111310   4.729   2.899   1.462
 3768TIP3    H211311   4.750   2.965   1.328
 3769TIP3   OH211312   1.897   2.500   4.399
 3769TIP3    H111313   1.967   2.564   4.411
 3769TIP3    H211314   1.822   2.553   4.368
 3770TIP3   OH211315   3.327   2.526   5.053
 3770TIP3    H111316   3.382   2.546   5.129
 3770TIP3    H211317   3.302   2.434   5.066
 3771TIP3   OH211318   5.632   3.149   5.050
 3771TIP3    H111319   5.686   3.213   5.098
 3771TIP3    H211320   5.684   3.069   5.053
 3772TIP3   OH211321   5.659   4.242   0.088
 3772TIP3    H111322   5.703   4.157   0.086
 3772TIP3    H211323   5.729   4.304   0.107
 3773TIP3   OH211324   0.264   4.152   1.497
 3773TIP3    H111325   0.341   4.205   1.518
 3773TIP3    H211326   0.198   4.180   1.560
 3774TIP3   OH211327   3.775   3.170   3.979
 3774TIP3    H111328   3.812   3.087   4.010
 3774TIP3    H211329   3.695   3.182   4.031
 3775TIP3   OH211330   0.613   5.595   4.477
 3775TIP3    H111331   0.558   5.647   4.419
 3775TIP3    H211332   0.579   5.506   4.469
 3776TIP3   OH211333   1.416   5.383   2.019
 3776TIP3    H111334   1.322   5.371   2.002
 3776TIP3    H211335   1.432   5.339   2.102
 3777TIP3   OH211336   2.279   4.377   2.419
 3777TIP3    H111337   2.252   4.427   2.342
 3777TIP3    H211338   2.241   4.290   2.406
 3778TIP3   OH211339   4.378   2.034   2.174
 3778TIP3    H111340   4.329   2.108   2.138
 3778TIP3    H211341   4.462   2.072   2.201
 3779TIP3   OH211342   0.068   5.487   1.031
 3779TIP3    H111343   0.038   5.561   0.979
 3779TIP3    H211344   0.006   5.482   1.103
 3780TIP3   OH211345   0.266   2.548   5.093
 3780TIP3    H111346   0.297   2.458   5.106
 3780TIP3    H211347   0.326   2.585   5.028
 3781TIP3   OH211348   2.417   0.582   0.733
 3781TIP3    H111349   2.370   0.629   0.802
 3781TIP3    H211350   2.504   0.568   0.769
 3782TIP3   OH211351   4.817   5.190   1.989
 3782TIP3    H111352   4.869   5.168   1.912
 3782TIP3    H211353   4.873   5.249   2.040
 3783TIP3   OH211354   1.826   3.522   5.033
 3783TIP3    H111355   1.853   3.459   4.967
 3783TIP3    H211356   1.810   3.470   5.112
 3784TIP3   OH211357   3.209   2.243   4.948
 3784TIP3    H111358   3.118   2.220   4.967
 3784TIP3    H211359   3.227   2.200   4.865
 3785TIP3   OH211360   5.001   0.188  -0.007
 3785TIP3    H111361   4.941   0.260   0.014
 3785TIP3    H211362   5.020   0.148   0.078
 3786TIP3   OH211363   4.424   2.562   4.595
 3786TIP3    H111364   4.421   2.645   4.548
 3786TIP3    H211365   4.466   2.584   4.679
 3787TIP3   OH211366   3.062   5.130   4.627
 3787TIP3    H111367   3.152   5.100   4.644
 3787TIP3    H211368   3.029   5.159   4.712
 3788TIP3   OH211369   0.460   1.615   5.011
 3788TIP3    H111370   0.456   1.671   4.934
 3788TIP3    H211371   0.538   1.561   4.999
 3789TIP3   OH211372   0.727   1.670   3.345
 3789TIP3    H111373   0.649   1.688   3.398
 3789TIP3    H211374   0.693   1.627   3.267
 3790TIP3   OH211375   3.650   4.806   3.429
 3790TIP3    H111376   3.620   4.836   3.343
 3790TIP3    H211377   3.719   4.868   3.453
 3791TIP3   OH211378   0.263   2.550   0.328
 3791TIP3    H111379   0.312   2.472   0.303
 3791TIP3    H211380   0.174   2.518   0.345
 3792TIP3   OH211381   3.876   1.663   0.682
 3792TIP3    H111382   3.874   1.617   0.598
 3792TIP3    H211383   3.902   1.753   0.659
 3793TIP3   OH211384   5.540   5.629   1.686
 3793TIP3    H111385   5.538   5.538   1.717
 3793TIP3    H211386   5.449   5.649   1.664
 3794TIP3   OH211387   5.098   0.847   4.987
 3794TIP3    H111388   5.169   0.796   5.027
 3794TIP3    H211389   5.018   0.805   5.018
 3795TIP3   OH211390   3.125   3.620   0.209
 3795TIP3    H111391   3.033   3.632   0.186
 3795TIP3    H211392   3.144   3.689   0.272
 3796TIP3   OH211393   2.002   3.083   3.624
 3796TIP3    H111394   2.004   3.098   3.719
 3796TIP3    H211395   2.092   3.058   3.603
 3797TIP3   OH211396   3.942   5.695   1.728
 3797TIP3    H111397   3.987   5.720   1.647
 3797TIP3    H211398   3.958   5.601   1.736
 3798TIP3   OH211399   0.812   4.950   0.911
 3798TIP3    H111400   0.883   4.887   0.898
 3798TIP3    H211401   0.749   4.930   0.841
 3799TIP3   OH211402   5.955   1.810   2.751
 3799TIP3    H111403   5.888   1.757   2.794
 3799TIP3    H211404   5.950   1.895   2.795
 3800TIP3   OH211405   3.852   2.546   4.439
 3800TIP3    H111406   3.910   2.492   4.492
 3800TIP3    H211407   3.778   2.488   4.418
 3801TIP3   OH211408   4.756   0.664   4.881
 3801TIP3    H111409   4.778   0.757   4.893
 3801TIP3    H211410   4.714   0.639   4.963
 3802TIP3   OH211411   2.572   5.336   4.734
 3802TIP3    H111412   2.578   5.299   4.822
 3802TIP3    H211413   2.663   5.343   4.705
 3803TIP3   OH211414   3.405   0.430   3.768
 3803TIP3    H111415   3.392   0.525   3.758
 3803TIP3    H211416   3.349   0.391   3.701
 3804TIP3   OH211417   4.605   1.710   3.264
 3804TIP3    H111418   4.596   1.693   3.170
 3804TIP3    H211419   4.646   1.632   3.299
 3805TIP3   OH211420   2.301   1.072   4.243
 3805TIP3    H111421   2.261   1.140   4.297
 3805TIP3    H211422   2.393   1.071   4.271
 3806TIP3   OH211423   3.924   2.654   2.555
 3806TIP3    H111424   3.867   2.713   2.505
 3806TIP3    H211425   4.005   2.651   2.504
 3807TIP3   OH211426   3.149   4.847   4.665
 3807TIP3    H111427   3.199   4.766   4.664
 3807TIP3    H211428   3.213   4.915   4.686
 3808TIP3   OH211429   2.662   3.219   2.807
 3808TIP3    H111430   2.638   3.254   2.893
 3808TIP3    H211431   2.629   3.284   2.745
 3809TIP3   OH211432   3.382   3.188   4.932
 3809TIP3    H111433   3.417   3.101   4.917
 3809TIP3    H211434   3.457   3.240   4.961
 3810TIP3   OH211435   3.387   5.224   4.345
 3810TIP3    H111436   3.417   5.164   4.276
 3810TIP3    H211437   3.355   5.300   4.297
 3811TIP3   OH211438   2.139   5.390   0.940
 3811TIP3    H111439   2.154   5.438   1.022
 3811TIP3    H211440   2.095   5.452   0.883
 3812TIP3   OH211441   2.030   2.440   2.688
 3812TIP3    H111442   1.940   2.460   2.716
 3812TIP3    H211443   2.051   2.507   2.624
 3813TIP3   OH211444   2.780   4.182   1.188
 3813TIP3    H111445   2.842   4.154   1.254
 3813TIP3    H211446   2.814   4.147   1.106
 3814TIP3   OH211447   2.024   3.935   1.225
 3814TIP3    H111448   2.037   3.842   1.208
 3814TIP3    H211449   2.035   3.977   1.140
 3815TIP3   OH211450   6.080   1.973   2.354
 3815TIP3    H111451   6.013   1.916   2.392
 3815TIP3    H211452   6.032   2.047   2.319
 3816TIP3   OH211453   0.883   2.220   3.368
 3816TIP3    H111454   0.798   2.241   3.406
 3816TIP3    H211455   0.929   2.304   3.364
 3817TIP3   OH211456   4.605   3.228   1.558
 3817TIP3    H111457   4.515   3.239   1.527
 3817TIP3    H211458   4.640   3.156   1.505
 3818TIP3   OH211459   5.364   4.563   4.427
 3818TIP3    H111460   5.382   4.541   4.519
 3818TIP3    H211461   5.367   4.479   4.381
 3819TIP3   OH211462   0.913   1.674   0.356
 3819TIP3    H111463   0.941   1.607   0.294
 3819TIP3    H211464   0.836   1.637   0.398
 3820TIP3   OH211465   6.186   4.545   1.475
 3820TIP3    H111466   6.137   4.464   1.490
 3820TIP3    H211467   6.231   4.561   1.558
 3821TIP3   OH211468   4.102   2.302   1.157
 3821TIP3    H111469   4.139   2.214   1.155
 3821TIP3    H211470   4.009   2.289   1.136
 3822TIP3   OH211471   6.001   4.156   0.977
 3822TIP3    H111472   5.978   4.072   0.937
 3822TIP3    H211473   5.957   4.221   0.923
 3823TIP3   OH211474   0.426   4.117   1.939
 3823TIP3    H111475   0.501   4.078   1.982
 3823TIP3    H211476   0.366   4.044   1.924
 3824TIP3   OH211477   4.998   3.861   2.479
 3824TIP3    H111478   4.987   3.869   2.384
 3824TIP3    H211479   5.060   3.788   2.490
 3825TIP3   OH211480   3.463   4.696   1.639
 3825TIP3    H111481   3.538   4.637   1.637
 3825TIP3    H211482   3.406   4.661   1.707
 3826TIP3   OH211483   5.382   4.284   1.170
 3826TIP3    H111484   5.352   4.196   1.195
 3826TIP3    H211485   5.361   4.339   1.245
 3827TIP3   OH211486   4.048   2.085   1.999
 3827TIP3    H111487   4.090   2.116   2.079
 3827TIP3    H211488   3.987   2.155   1.975
 3828TIP3   OH211489   5.888   4.303   4.024
 3828TIP3    H111490   5.887   4.245   3.948
 3828TIP3    H211491   5.976   4.296   4.059
 3829TIP3   OH211492   6.027   0.979   1.495
 3829TIP3    H111493   6.119   0.998   1.514
 3829TIP3    H211494   6.030   0.901   1.439
 3830TIP3   OH211495   2.125   0.364   2.655
 3830TIP3    H111496   2.123   0.296   2.587
 3830TIP3    H211497   2.203   0.416   2.635
 3831TIP3   OH211498   2.981   5.759   3.337
 3831TIP3    H111499   2.899   5.770   3.385
 3831TIP3    H211500   3.020   5.679   3.372
 3832TIP3   OH211501   1.888   3.775   0.689
 3832TIP3    H111502   1.844   3.827   0.622
 3832TIP3    H211503   1.829   3.702   0.706
 3833TIP3   OH211504   1.067   3.053   5.116
 3833TIP3    H111505   0.999   2.991   5.143
 3833TIP3    H211506   1.062   3.124   5.180
 3834TIP3   OH211507   6.295   4.116   0.510
 3834TIP3    H111508   6.224   4.056   0.535
 3834TIP3    H211509   6.275   4.196   0.558
 3835TIP3   OH211510   0.525   5.117   0.092
 3835TIP3    H111511   0.545   5.091   0.002
 3835TIP3    H211512   0.430   5.131   0.093
 3836TIP3   OH211513   5.850   1.595   1.871
 3836TIP3    H111514   5.932   1.587   1.919
 3836TIP3    H211515   5.866   1.552   1.787
 3837TIP3   OH211516   5.229   2.325   4.189
 3837TIP3    H111517   5.301   2.388   4.188
 3837TIP3    H211518   5.216   2.301   4.097
 3838TIP3   OH211519   2.792   2.264   3.556
 3838TIP3    H111520   2.842   2.250   3.475
 3838TIP3    H211521   2.822   2.195   3.615
 3839TIP3   OH211522   0.414   3.476   0.022
 3839TIP3    H111523   0.382   3.549  -0.031
 3839TIP3    H211524   0.404   3.505   0.112
 3840TIP3   OH211525   1.611   5.415   3.751
 3840TIP3    H111526   1.542   5.359   3.785
 3840TIP3    H211527   1.627   5.383   3.662
 3841TIP3   OH211528   5.060   4.546   2.628
 3841TIP3    H111529   4.979   4.598   2.625
 3841TIP3    H211530   5.039   4.466   2.581
 3842TIP3   OH211531   3.731   1.160   0.201
 3842TIP3    H111532   3.656   1.110   0.232
 3842TIP3    H211533   3.752   1.219   0.274
 3843TIP3   OH211534   5.344   1.958   1.703
 3843TIP3    H111535   5.253   1.935   1.683
 3843TIP3    H211536   5.394   1.881   1.675
 3844TIP3   OH211537   2.852   2.718   3.660
 3844TIP3    H111538   2.919   2.653   3.640
 3844TIP3    H211539   2.769   2.671   3.650
 3845TIP3   OH211540   5.017   0.683   2.557
 3845TIP3    H111541   5.015   0.766   2.509
 3845TIP3    H211542   5.102   0.682   2.600
 3846TIP3   OH211543   3.735   0.152   0.591
 3846TIP3    H111544   3.720   0.236   0.548
 3846TIP3    H211545   3.652   0.134   0.636
 3847TIP3   OH211546   5.738   1.132   4.546
 3847TIP3    H111547   5.823   1.089   4.556
 3847TIP3    H211548   5.728   1.145   4.451
 3848TIP3   OH211549   0.853   1.634   4.245
 3848TIP3    H111550   0.946   1.616   4.232
 3848TIP3    H211551   0.846   1.729   4.245
 3849TIP3   OH211552   3.684   2.735   1.768
 3849TIP3    H111553   3.620   2.799   1.800
 3849TIP3    H211554   3.638   2.688   1.698
 3850TIP3   OH211555   2.580   2.759   2.422
 3850TIP3    H111556   2.557   2.839   2.377
 3850TIP3    H211557   2.557   2.775   2.514
 3851TIP3   OH211558   0.790   5.435   4.235
 3851TIP3    H111559   0.794   5.516   4.185
 3851TIP3    H211560   0.733   5.455   4.309
 3852TIP3   OH211561   6.260   2.233   1.569
 3852TIP3    H111562   6.234   2.236   1.661
 3852TIP3    H211563   6.346   2.277   1.567
 3853TIP3   OH211564   5.244   3.738   3.760
 3853TIP3    H111565   5.159   3.741   3.805
 3853TIP3    H211566   5.291   3.666   3.802
 3854TIP3   OH211567   1.677   0.085   4.896
 3854TIP3    H111568   1.614   0.099   4.825
 3854TIP3    H211569   1.625   0.047   4.967
 3855TIP3   OH211570   3.467   2.966   0.717
 3855TIP3    H111571   3.538   2.903   0.705
 3855TIP3    H211572   3.415   2.931   0.789
 3856TIP3   OH211573   0.934   0.593   4.838
 3856TIP3    H111574   0.892   0.675   4.812
 3856TIP3    H211575   0.873   0.553   4.900
 3857TIP3   OH211576   3.147   1.973   0.983
 3857TIP3    H111577   3.096   1.926   1.048
 3857TIP3    H211578   3.232   1.988   1.025
 3858TIP3   OH211579   1.948   5.325   1.864
 3858TIP3    H111580   1.937   5.230   1.864
 3858TIP3    H211581   1.938   5.350   1.772
 3859TIP3   OH211582   0.792   3.412   0.931
 3859TIP3    H111583   0.728   3.418   0.860
 3859TIP3    H211584   0.774   3.487   0.987
 3860TIP3   OH211585   4.939   3.095   1.577
 3860TIP3    H111586   4.983   3.045   1.646
 3860TIP3    H211587   4.904   3.029   1.517
 3861TIP3   OH211588   2.975   4.397   4.385
 3861TIP3    H111589   2.992   4.422   4.294
 3861TIP3    H211590   2.982   4.479   4.434
 3862TIP3   OH211591   4.908   2.294   3.394
 3862TIP3    H111592   4.927   2.235   3.467
 3862TIP3    H211593   4.851   2.243   3.336
 3863TIP3   OH211594   2.708   4.993   1.175
 3863TIP3    H111595   2.786   5.043   1.200
 3863TIP3    H211596   2.667   5.045   1.106
 3864TIP3   OH211597   0.066   2.730   5.068
 3864TIP3    H111598  -0.013   2.677   5.056
 3864TIP3    H211599   0.137   2.666   5.075
 3865TIP3   OH211600   2.853   5.040   4.419
 3865TIP3    H111601   2.777   5.041   4.478
 3865TIP3    H211602   2.926   5.070   4.473
 3866TIP3   OH211603   0.285   4.703   0.120
 3866TIP3    H111604   0.328   4.712   0.205
 3866TIP3    H211605   0.201   4.662   0.139
 3867TIP3   OH211606   4.833   2.352   4.915
 3867TIP3    H111607   4.908   2.412   4.909
 3867TIP3    H211608   4.771   2.398   4.971
 3868TIP3   OH211609   2.018   3.096   3.186
 3868TIP3    H111610   2.080   3.169   3.183
 3868TIP3    H211611   1.965   3.113   3.263
 3869TIP3   OH211612   4.001   0.414   1.892
 3869TIP3    H111613   4.040   0.327   1.899
 3869TIP3    H211614   4.070   0.474   1.920
 3870TIP3   OH211615   3.174   1.033   0.612
 3870TIP3    H111616   3.083   1.044   0.638
 3870TIP3    H211617   3.210   0.969   0.674
 3871TIP3   OH211618   1.177   4.661   4.255
 3871TIP3    H111619   1.183   4.744   4.207
 3871TIP3    H211620   1.085   4.652   4.277
 3872TIP3   OH211621   3.616   1.943   2.944
 3872TIP3    H111622   3.522   1.954   2.960
 3872TIP3    H211623   3.624   1.939   2.849
 3873TIP3   OH211624   5.727   1.132   4.237
 3873TIP3    H111625   5.791   1.062   4.252
 3873TIP3    H211626   5.779   1.209   4.216
 3874TIP3   OH211627   5.369   4.960   0.044
 3874TIP3    H111628   5.321   5.040   0.064
 3874TIP3    H211629   5.369   4.911   0.126
 3875TIP3   OH211630   3.706   4.545   1.694
 3875TIP3    H111631   3.730   4.485   1.624
 3875TIP3    H211632   3.678   4.488   1.766
 3876TIP3   OH211633   2.428   3.895   1.502
 3876TIP3    H111634   2.428   3.801   1.523
 3876TIP3    H211635   2.516   3.913   1.468
 3877TIP3   OH211636   3.350   2.914   0.034
 3877TIP3    H111637   3.281   2.958   0.083
 3877TIP3    H211638   3.345   2.950  -0.054
 3878TIP3   OH211639   5.254   4.755   2.003
 3878TIP3    H111640   5.228   4.663   2.004
 3878TIP3    H211641   5.350   4.753   1.998
 3879TIP3   OH211642   6.014   0.792   1.305
 3879TIP3    H111643   6.021   0.853   1.231
 3879TIP3    H211644   5.920   0.774   1.311
 3880TIP3   OH211645   4.576   3.585   3.426
 3880TIP3    H111646   4.597   3.523   3.495
 3880TIP3    H211647   4.482   3.601   3.435
 3881TIP3   OH211648   3.237   3.144   2.836
 3881TIP3    H111649   3.271   3.168   2.922
 3881TIP3    H211650   3.145   3.122   2.851
 3882TIP3   OH211651   6.204   0.186   3.720
 3882TIP3    H111652   6.232   0.275   3.701
 3882TIP3    H211653   6.271   0.153   3.781
 3883TIP3   OH211654   0.285   2.414   0.772
 3883TIP3    H111655   0.201   2.370   0.757
 3883TIP3    H211656   0.281   2.493   0.719
 3884TIP3   OH211657   1.800   1.656   2.830
 3884TIP3    H111658   1.784   1.579   2.884
 3884TIP3    H211659   1.744   1.724   2.867
 3885TIP3   OH211660   5.085   4.078   0.134
 3885TIP3    H111661   5.154   4.141   0.111
 3885TIP3    H211662   5.069   4.029   0.054
 3886TIP3   OH211663   2.313   5.275   1.715
 3886TIP3    H111664   2.399   5.312   1.737
 3886TIP3    H211665   2.311   5.273   1.619
 3887TIP3   OH211666   5.045   0.769   2.250
 3887TIP3    H111667   5.073   0.839   2.191
 3887TIP3    H211668   5.126   0.721   2.270
 3888TIP3   OH211669   3.751   2.770   1.014
 3888TIP3    H111670   3.837   2.784   0.975
 3888TIP3    H211671   3.768   2.719   1.093
 3889TIP3   OH211672   5.666   0.442   2.339
 3889TIP3    H111673   5.744   0.463   2.391
 3889TIP3    H211674   5.593   0.455   2.399
 3890TIP3   OH211675   4.825   5.404   3.655
 3890TIP3    H111676   4.796   5.320   3.620
 3890TIP3    H211677   4.802   5.468   3.587
 3891TIP3   OH211678   4.717   3.912   4.064
 3891TIP3    H111679   4.715   3.997   4.021
 3891TIP3    H211680   4.807   3.901   4.095
 3892TIP3   OH211681   5.113   4.703   4.379
 3892TIP3    H111682   5.108   4.663   4.465
 3892TIP3    H211683   5.206   4.725   4.368
 3893TIP3   OH211684   1.092   3.180   4.599
 3893TIP3    H111685   1.105   3.190   4.505
 3893TIP3    H211686   1.130   3.258   4.638
 3894TIP3   OH211687   5.228   3.498   1.827
 3894TIP3    H111688   5.188   3.416   1.797
 3894TIP3    H211689   5.296   3.470   1.888
 3895TIP3   OH211690   1.371   0.386   4.483
 3895TIP3    H111691   1.343   0.295   4.471
 3895TIP3    H211692   1.358   0.426   4.397
 3896TIP3   OH211693   1.154   2.244   0.337
 3896TIP3    H111694   1.211   2.227   0.412
 3896TIP3    H211695   1.087   2.303   0.371
 3897TIP3   OH211696   5.530   5.129   0.661
 3897TIP3    H111697   5.507   5.052   0.713
 3897TIP3    H211698   5.611   5.104   0.617
 3898TIP3   OH211699   0.480   3.945   0.065
 3898TIP3    H111700   0.442   3.873   0.015
 3898TIP3    H211701   0.413   4.013   0.064
 3899TIP3   OH211702   1.311   2.554   1.320
 3899TIP3    H111703   1.312   2.474   1.267
 3899TIP3    H211704   1.399   2.590   1.311
 3900TIP3   OH211705   1.826   1.453   1.310
 3900TIP3    H111706   1.818   1.495   1.224
 3900TIP3    H211707   1.752   1.393   1.315
 3901TIP3   OH211708   6.243   1.371   1.274
 3901TIP3    H111709   6.330   1.377   1.235
 3901TIP3    H211710   6.258   1.337   1.362
 3902TIP3   OH211711   2.081   2.044   1.046
 3902TIP3    H111712   2.152   2.097   1.081
 3902TIP3    H211713   2.102   2.033   0.953
 3903TIP3   OH211714   3.739   0.083   3.040
 3903TIP3    H111715   3.649   0.073   3.071
 3903TIP3    H211716   3.762   0.174   3.062
 3904TIP3   OH211717   3.395   5.802   1.296
 3904TIP3    H111718   3.475   5.854   1.292
 3904TIP3    H211719   3.379   5.775   1.206
 3905TIP3   OH211720   3.434   0.648   2.704
 3905TIP3    H111721   3.480   0.719   2.748
 3905TIP3    H211722   3.376   0.611   2.771
 3906TIP3   OH211723   4.999   0.871   4.703
 3906TIP3    H111724   4.920   0.890   4.754
 3906TIP3    H211725   5.063   0.935   4.734
 3907TIP3   OH211726   6.307   4.264   3.185
 3907TIP3    H111727   6.224   4.290   3.145
 3907TIP3    H211728   6.328   4.333   3.247
 3908TIP3   OH211729   1.942   4.912   2.463
 3908TIP3    H111730   1.943   5.008   2.461
 3908TIP3    H211731   1.937   4.890   2.556
 3909TIP3   OH211732   2.964   4.835   0.059
 3909TIP3    H111733   2.912   4.909   0.028
 3909TIP3    H211734   2.906   4.791   0.122
 3910TIP3   OH211735   4.165   1.374   4.787
 3910TIP3    H111736   4.247   1.422   4.779
 3910TIP3    H211737   4.139   1.384   4.879
 3911TIP3   OH211738   1.680   4.428   3.608
 3911TIP3    H111739   1.731   4.501   3.571
 3911TIP3    H211740   1.699   4.355   3.549
 3912TIP3   OH211741   1.619   0.567   3.962
 3912TIP3    H111742   1.679   0.604   4.028
 3912TIP3    H211743   1.570   0.642   3.929
 3913TIP3   OH211744   1.628   4.655   4.389
 3913TIP3    H111745   1.643   4.603   4.468
 3913TIP3    H211746   1.684   4.615   4.323
 3914TIP3   OH211747   0.393   0.496   3.465
 3914TIP3    H111748   0.385   0.492   3.370
 3914TIP3    H211749   0.303   0.507   3.497
 3915TIP3   OH211750   5.667   4.923   2.260
 3915TIP3    H111751   5.698   4.929   2.350
 3915TIP3    H211752   5.732   4.868   2.215
 3916TIP3   OH211753   4.167   1.819   2.231
 3916TIP3    H111754   4.102   1.888   2.242
 3916TIP3    H211755   4.249   1.857   2.265
 3917TIP3   OH211756   0.932   5.408   2.776
 3917TIP3    H111757   0.928   5.382   2.868
 3917TIP3    H211758   0.975   5.493   2.776
 3918TIP3   OH211759   0.397   5.884   1.507
 3918TIP3    H111760   0.391   5.791   1.489
 3918TIP3    H211761   0.490   5.904   1.504
 3919TIP3   OH211762   5.046   0.669   4.514
 3919TIP3    H111763   5.141   0.657   4.524
 3919TIP3    H211764   5.027   0.751   4.561
 3920TIP3   OH211765   4.203   0.488   3.335
 3920TIP3    H111766   4.227   0.515   3.424
 3920TIP3    H211767   4.147   0.558   3.302
 3921TIP3   OH211768   0.579   1.990   3.553
 3921TIP3    H111769   0.508   2.052   3.568
 3921TIP3    H211770   0.652   2.025   3.605
 3922TIP3   OH211771   3.945   2.763   4.292
 3922TIP3    H111772   3.976   2.825   4.357
 3922TIP3    H211773   3.903   2.693   4.343
 3923TIP3   OH211774   2.729   2.950   1.885
 3923TIP3    H111775   2.648   2.938   1.935
 3923TIP3    H211776   2.721   2.889   1.811
 3924TIP3   OH211777   2.408   4.155   3.221
 3924TIP3    H111778   2.338   4.218   3.238
 3924TIP3    H211779   2.397   4.088   3.288
 3925TIP3   OH211780   5.319   5.783   1.567
 3925TIP3    H111781   5.397   5.839   1.575
 3925TIP3    H211782   5.255   5.836   1.520
 3926TIP3   OH211783   0.981   1.775   1.259
 3926TIP3    H111784   0.961   1.851   1.205
 3926TIP3    H211785   0.906   1.717   1.247
 3927TIP3   OH211786   5.563   4.729   3.155
 3927TIP3    H111787   5.584   4.813   3.114
 3927TIP3    H211788   5.514   4.681   3.088
 3928TIP3   OH211789   2.427  -0.018   3.788
 3928TIP3    H111790   2.477   0.021   3.716
 3928TIP3    H211791   2.363   0.050   3.811
 3929TIP3   OH211792   0.566   1.844   1.167
 3929TIP3    H111793   0.482   1.879   1.138
 3929TIP3    H211794   0.544   1.766   1.217
 3930TIP3   OH211795   2.563   2.801   2.703
 3930TIP3    H111796   2.544   2.859   2.777
 3930TIP3    H211797   2.624   2.737   2.739
 3931TIP3   OH211798   5.396   1.889   0.352
 3931TIP3    H111799   5.324   1.860   0.295
 3931TIP3    H211800   5.358   1.959   0.404
 3932TIP3   OH211801   4.157   0.482   4.167
 3932TIP3    H111802   4.064   0.481   4.189
 3932TIP3    H211803   4.180   0.575   4.168
 3933TIP3   OH211804   4.429   1.267   4.350
 3933TIP3    H111805   4.505   1.247   4.295
 3933TIP3    H211806   4.462   1.261   4.439
 3934TIP3   OH211807   0.027   3.137   2.397
 3934TIP3    H111808  -0.014   3.134   2.310
 3934TIP3    H211809   0.088   3.210   2.392
 3935TIP3   OH211810   5.452   4.320   4.114
 3935TIP3    H111811   5.504   4.243   4.138
 3935TIP3    H211812   5.516   4.387   4.091
 3936TIP3   OH211813   1.124   2.136   1.768
 3936TIP3    H111814   1.073   2.083   1.707
 3936TIP3    H211815   1.104   2.100   1.854
 3937TIP3   OH211816   2.651   0.116   3.658
 3937TIP3    H111817   2.660   0.136   3.751
 3937TIP3    H211818   2.740   0.124   3.624
 3938TIP3   OH211819   2.918   1.181   4.779
 3938TIP3    H111820   2.875   1.230   4.709
 3938TIP3    H211821   2.919   1.090   4.747
 3939TIP3   OH211822   6.142   1.721   4.108
 3939TIP3    H111823   6.179   1.749   4.024
 3939TIP3    H211824   6.161   1.628   4.112
 3940TIP3   OH211825   4.549   5.151   1.848
 3940TIP3    H111826   4.554   5.139   1.943
 3940TIP3    H211827   4.627   5.200   1.824
 3941TIP3   OH211828   0.730   0.627   4.289
 3941TIP3    H111829   0.643   0.602   4.318
 3941TIP3    H211830   0.780   0.545   4.290
 3942TIP3   OH211831   3.727   3.930   1.747
 3942TIP3    H111832   3.659   3.988   1.783
 3942TIP3    H211833   3.723   3.944   1.653
 3943TIP3   OH211834   5.224   3.088   1.129
 3943TIP3    H111835   5.214   3.037   1.209
 3943TIP3    H211836   5.166   3.163   1.140
 3944TIP3   OH211837   0.479   5.914   0.600
 3944TIP3    H111838   0.512   5.834   0.641
 3944TIP3    H211839   0.465   5.975   0.673
 3945TIP3   OH211840   0.074   2.570   1.366
 3945TIP3    H111841  -0.015   2.536   1.375
 3945TIP3    H211842   0.075   2.648   1.422
 3946TIP3   OH211843   1.938   3.953   2.551
 3946TIP3    H111844   1.865   3.939   2.611
 3946TIP3    H211845   1.903   3.929   2.465
 3947TIP3   OH211846   3.712   5.596  -0.015
 3947TIP3    H111847   3.776   5.623   0.051
 3947TIP3    H211848   3.721   5.501  -0.021
 3948TIP3   OH211849   3.286   4.672   2.643
 3948TIP3    H111850   3.311   4.759   2.675
 3948TIP3    H211851   3.229   4.690   2.568
 3949TIP3   OH211852   0.621   2.276   5.034
 3949TIP3    H111853   0.572   2.246   4.958
 3949TIP3    H211854   0.656   2.195   5.072
 3950TIP3   OH211855   2.838   0.195   0.034
 3950TIP3    H111856   2.914   0.143   0.012
 3950TIP3    H211857   2.795   0.146   0.104
 3951TIP3   OH211858   3.432   3.326   2.359
 3951TIP3    H111859   3.418   3.243   2.313
 3951TIP3    H211860   3.438   3.301   2.451
 3952TIP3   OH211861   5.721   2.432   1.148
 3952TIP3    H111862   5.762   2.515   1.127
 3952TIP3    H211863   5.668   2.450   1.226
 3953TIP3   OH211864   4.730   4.027   4.891
 3953TIP3    H111865   4.685   4.035   4.975
 3953TIP3    H211866   4.723   4.114   4.852
 3954TIP3   OH211867   0.534   4.513   2.759
 3954TIP3    H111868   0.456   4.533   2.811
 3954TIP3    H211869   0.542   4.586   2.698
 3955TIP3   OH211870   5.532   0.449   4.704
 3955TIP3    H111871   5.465   0.517   4.697
 3955TIP3    H211872   5.529   0.421   4.795
 3956TIP3   OH211873   4.866   1.372   0.867
 3956TIP3    H111874   4.817   1.384   0.949
 3956TIP3    H211875   4.948   1.332   0.895
 3957TIP3   OH211876   6.293   3.307   0.040
 3957TIP3    H111877   6.312   3.352  -0.042
 3957TIP3    H211878   6.213   3.349   0.072
 3958TIP3   OH211879   5.854   3.793   5.054
 3958TIP3    H111880   5.786   3.740   5.096
 3958TIP3    H211881   5.813   3.824   4.973
 3959TIP3   OH211882   0.666   5.657   2.172
 3959TIP3    H111883   0.650   5.721   2.241
 3959TIP3    H211884   0.703   5.708   2.100
 3960TIP3   OH211885   2.437   2.059   1.170
 3960TIP3    H111886   2.528   2.046   1.144
 3960TIP3    H211887   2.432   2.026   1.260
 3961TIP3   OH211888   0.985   5.418   1.604
 3961TIP3    H111889   1.074   5.438   1.574
 3961TIP3    H211890   0.944   5.504   1.614
 3962TIP3   OH211891   3.211   4.911   3.285
 3962TIP3    H111892   3.248   4.894   3.198
 3962TIP3    H211893   3.275   4.876   3.346
 3963TIP3   OH211894   1.501   1.689   3.880
 3963TIP3    H111895   1.458   1.766   3.843
 3963TIP3    H211896   1.469   1.685   3.970
 3964TIP3   OH211897   0.226   3.635   4.127
 3964TIP3    H111898   0.194   3.725   4.136
 3964TIP3    H211899   0.288   3.624   4.199
 3965TIP3   OH211900   0.165   1.715   0.764
 3965TIP3    H111901   0.143   1.624   0.783
 3965TIP3    H211902   0.092   1.766   0.798
 3966TIP3   OH211903   4.204   5.670   0.407
 3966TIP3    H111904   4.132   5.615   0.438
 3966TIP3    H211905   4.278   5.646   0.462
 3967TIP3   OH211906   5.061   2.718   4.523
 3967TIP3    H111907   5.102   2.756   4.445
 3967TIP3    H211908   5.089   2.774   4.595
 3968TIP3   OH211909   4.069   0.905   0.312
 3968TIP3    H111910   4.054   0.997   0.288
 3968TIP3    H211911   4.132   0.874   0.246
 3969TIP3   OH211912   5.738   5.153   2.665
 3969TIP3    H111913   5.665   5.156   2.727
 3969TIP3    H211914   5.708   5.206   2.591
 3970TIP3   OH211915   4.241   4.590   4.332
 3970TIP3    H111916   4.154   4.590   4.292
 3970TIP3    H211917   4.229   4.632   4.417
 3971TIP3   OH211918   2.963   2.859   0.100
 3971TIP3    H111919   2.908   2.937   0.109
 3971TIP3    H211920   3.019   2.860   0.177
 3972TIP3   OH211921   4.625   3.138   3.511
 3972TIP3    H111922   4.559   3.151   3.442
 3972TIP3    H211923   4.664   3.053   3.492
 3973TIP3   OH211924   0.988   0.156   1.824
 3973TIP3    H111925   1.070   0.195   1.795
 3973TIP3    H211926   0.937   0.230   1.856
 3974TIP3   OH211927   4.705   4.678   4.240
 3974TIP3    H111928   4.754   4.635   4.170
 3974TIP3    H211929   4.728   4.771   4.232
 3975TIP3   OH211930   0.945   3.519   3.203
 3975TIP3    H111931   0.982   3.607   3.197
 3975TIP3    H211932   0.919   3.498   3.114
 3976TIP3   OH211933   4.746   1.393   1.992
 3976TIP3    H111934   4.686   1.462   1.964
 3976TIP3    H211935   4.701   1.311   1.970
 3977TIP3   OH211936   5.246   3.717   2.119
 3977TIP3    H111937   5.279   3.768   2.044
 3977TIP3    H211938   5.169   3.766   2.148
 3978TIP3   OH211939   0.815   5.314   4.921
 3978TIP3    H111940   0.861   5.330   5.004
 3978TIP3    H211941   0.722   5.309   4.945
 3979TIP3   OH211942   0.576   0.843   3.492
 3979TIP3    H111943   0.543   0.790   3.419
 3979TIP3    H211944   0.662   0.873   3.463
 3980TIP3   OH211945   2.654   4.515   2.348
 3980TIP3    H111946   2.605   4.587   2.388
 3980TIP3    H211947   2.744   4.528   2.376
 3981TIP3   OH211948   0.574   4.050   5.082
 3981TIP3    H111949   0.664   4.075   5.061
 3981TIP3    H211950   0.562   3.966   5.039
 3982TIP3   OH211951   3.438   0.704   1.244
 3982TIP3    H111952   3.483   0.620   1.241
 3982TIP3    H211953   3.380   0.698   1.320
 3983TIP3   OH211954   2.431   3.747   3.700
 3983TIP3    H111955   2.461   3.704   3.620
 3983TIP3    H211956   2.375   3.682   3.743
 3984TIP3   OH211957   0.822   1.517   3.853
 3984TIP3    H111958   0.852   1.443   3.801
 3984TIP3    H211959   0.727   1.508   3.855
 3985TIP3   OH211960   5.350   0.092   4.748
 3985TIP3    H111961   5.316   0.027   4.811
 3985TIP3    H211962   5.367   0.041   4.669
 3986TIP3   OH211963   4.660   3.101   0.915
 3986TIP3    H111964   4.710   3.145   0.846
 3986TIP3    H211965   4.669   3.008   0.896
 3987TIP3   OH211966   4.877   4.333   2.705
 3987TIP3    H111967   4.840   4.246   2.721
 3987TIP3    H211968   4.872   4.377   2.790
 3988TIP3   OH211969   3.859   1.107   1.393
 3988TIP3    H111970   3.927   1.056   1.437
 3988TIP3    H211971   3.778   1.079   1.434
 3989TIP3   OH211972   1.120   5.688   0.163
 3989TIP3    H111973   1.112   5.781   0.141
 3989TIP3    H211974   1.062   5.676   0.238
 3990TIP3   OH211975   4.213   1.034   3.602
 3990TIP3    H111976   4.210   1.029   3.507
 3990TIP3    H211977   4.306   1.038   3.623
 3991TIP3   OH211978   3.483   5.648   1.502
 3991TIP3    H111979   3.566   5.692   1.518
 3991TIP3    H211980   3.451   5.686   1.420
 3992TIP3   OH211981   4.991   5.349   4.808
 3992TIP3    H111982   5.054   5.409   4.769
 3992TIP3    H211983   4.925   5.406   4.848
 3993TIP3   OH211984   4.520   1.398   4.030
 3993TIP3    H111985   4.455   1.448   4.078
 3993TIP3    H211986   4.473   1.322   3.997
 3994TIP3   OH211987   5.802   3.148   0.581
 3994TIP3    H111988   5.709   3.157   0.603
 3994TIP3    H211989   5.803   3.089   0.506
 3995TIP3   OH211990   0.031   2.545   3.149
 3995TIP3    H111991   0.051   2.468   3.201
 3995TIP3    H211992  -0.035   2.516   3.086
 3996TIP3   OH211993   6.315   1.564   0.423
 3996TIP3    H111994   6.331   1.581   0.330
 3996TIP3    H211995   6.266   1.640   0.454
 3997TIP3   OH211996   0.630   2.562   0.361
 3997TIP3    H111997   0.578   2.482   0.366
 3997TIP3    H211998   0.582   2.619   0.300
 3998TIP3   OH211999   0.941   2.559   3.039
 3998TIP3    H112000   0.923   2.513   2.957
 3998TIP3    H212001   0.975   2.491   3.097
 3999TIP3   OH212002   0.732   5.449   1.463
 3999TIP3    H112003   0.812   5.398   1.450
 3999TIP3    H212004   0.714   5.441   1.557
 4000TIP3   OH212005   4.470   5.085   2.764
 4000TIP3    H112006   4.412   5.137   2.819
 4000TIP3    H212007   4.421   5.072   2.683
 4001TIP3   OH212008   4.636   1.753   0.570
 4001TIP3    H112009   4.674   1.668   0.548
 4001TIP3    H212010   4.650   1.762   0.664
 4002TIP3   OH212011   4.901   0.354   5.156
 4002TIP3    H112012   4.813   0.391   5.167
 4002TIP3    H212013   4.897   0.307   5.073
 4003TIP3   OH212014   4.789   3.269   0.086
 4003TIP3    H112015   4.812   3.299  -0.003
 4003TIP3    H212016   4.873   3.262   0.131
 4004TIP3   OH212017   2.196   5.084   0.731
 4004TIP3    H112018   2.219   5.174   0.707
 4004TIP3    H212019   2.128   5.059   0.668
 4005TIP3   OH212020   5.009   2.008   2.462
 4005TIP3    H112021   5.036   1.918   2.481
 4005TIP3    H212022   5.061   2.062   2.522
 4006TIP3   OH212023   4.260   4.667   0.953
 4006TIP3    H112024   4.253   4.579   0.916
 4006TIP3    H212025   4.340   4.703   0.915
 4007TIP3   OH212026   5.233   2.803   2.968
 4007TIP3    H112027   5.185   2.815   2.887
 4007TIP3    H212028   5.165   2.785   3.034
 4008TIP3   OH212029   1.518   4.386   2.376
 4008TIP3    H112030   1.478   4.461   2.419
 4008TIP3    H212031   1.446   4.343   2.330
 4009TIP3   OH212032   2.194   1.313   3.414
 4009TIP3    H112033   2.196   1.239   3.475
 4009TIP3    H212034   2.130   1.288   3.348
 4010TIP3   OH212035   0.556   5.470   3.845
 4010TIP3    H112036   0.480   5.488   3.900
 4010TIP3    H212037   0.525   5.486   3.756
 4011TIP3   OH212038   4.865   4.768   2.631
 4011TIP3    H112039   4.875   4.839   2.694
 4011TIP3    H212040   4.774   4.741   2.640
 4012TIP3   OH212041   4.084   2.233   3.387
 4012TIP3    H112042   4.099   2.251   3.294
 4012TIP3    H212043   4.161   2.183   3.413
 4013TIP3   OH212044   5.913   0.251   3.862
 4013TIP3    H112045   5.937   0.252   3.954
 4013TIP3    H212046   5.993   0.224   3.817
 4014TIP3   OH212047   0.163   1.296   3.812
 4014TIP3    H112048   0.240   1.323   3.861
 4014TIP3    H212049   0.150   1.365   3.747
 4015TIP3   OH212050   2.829   0.960   1.360
 4015TIP3    H112051   2.895   0.992   1.422
 4015TIP3    H212052   2.753   0.938   1.414
 4016TIP3   OH212053   3.764   1.921   1.744
 4016TIP3    H112054   3.793   1.898   1.832
 4016TIP3    H212055   3.680   1.966   1.758
 4017TIP3   OH212056   3.242   2.969   4.784
 4017TIP3    H112057   3.225   2.970   4.878
 4017TIP3    H212058   3.214   2.882   4.754
 4018TIP3   OH212059   6.092   5.492   2.366
 4018TIP3    H112060   6.103   5.586   2.382
 4018TIP3    H212061   6.121   5.479   2.276
 4019TIP3   OH212062   5.772   3.180   2.815
 4019TIP3    H112063   5.802   3.270   2.825
 4019TIP3    H212064   5.685   3.188   2.777
 4020TIP3   OH212065   4.964   4.094   3.690
 4020TIP3    H112066   4.982   4.188   3.698
 4020TIP3    H212067   5.038   4.051   3.733
 4021TIP3   OH212068   5.632   2.066   0.214
 4021TIP3    H112069   5.711   2.023   0.183
 4021TIP3    H212070   5.595   2.006   0.279
 4022TIP3   OH212071   0.849   3.067   2.352
 4022TIP3    H112072   0.829   3.154   2.387
 4022TIP3    H212073   0.940   3.073   2.325
 4023TIP3   OH212074   3.544   5.094   3.009
 4023TIP3    H112075   3.638   5.079   2.999
 4023TIP3    H212076   3.534   5.190   3.003
 4024TIP3   OH212077   0.355   1.502   3.242
 4024TIP3    H112078   0.401   1.460   3.169
 4024TIP3    H212079   0.352   1.594   3.219
 4025TIP3   OH212080   3.994   5.175   3.104
 4025TIP3    H112081   4.001   5.206   3.013
 4025TIP3    H212082   3.998   5.255   3.156
 4026TIP3   OH212083   2.454   0.416   2.143
 4026TIP3    H112084   2.502   0.473   2.083
 4026TIP3    H212085   2.363   0.444   2.136
 4027TIP3   OH212086   2.188   2.257   1.981
 4027TIP3    H112087   2.209   2.208   1.902
 4027TIP3    H212088   2.267   2.307   2.000
 4028TIP3   OH212089   1.024   2.426   2.450
 4028TIP3    H112090   1.060   2.420   2.361
 4028TIP3    H212091   1.058   2.349   2.495
 4029TIP3   OH212092   2.520   1.686   4.434
 4029TIP3    H112093   2.497   1.694   4.342
 4029TIP3    H212094   2.435   1.680   4.479
 4030TIP3   OH212095   2.389   4.884   0.773
 4030TIP3    H112096   2.454   4.929   0.719
 4030TIP3    H212097   2.312   4.939   0.769
 4031TIP3   OH212098   1.144   5.183   3.271
 4031TIP3    H112099   1.086   5.200   3.196
 4031TIP3    H212100   1.232   5.201   3.238
 4032TIP3   OH212101   4.132   0.361   4.666
 4032TIP3    H112102   4.050   0.348   4.618
 4032TIP3    H212103   4.119   0.441   4.716
 4033TIP3   OH212104   2.809   1.028   0.683
 4033TIP3    H112105   2.745   0.970   0.725
 4033TIP3    H212106   2.876   1.041   0.751
 4034TIP3   OH212107   3.490   5.801   4.159
 4034TIP3    H112108   3.562   5.791   4.222
 4034TIP3    H212109   3.493   5.893   4.134
 4035TIP3   OH212110   0.370   5.004   0.468
 4035TIP3    H112111   0.289   4.960   0.492
 4035TIP3    H212112   0.352   5.044   0.383
 4036TIP3   OH212113   3.344   2.453   0.984
 4036TIP3    H112114   3.421   2.509   0.995
 4036TIP3    H212115   3.364   2.399   0.909
 4037TIP3   OH212116   0.834   4.665   3.493
 4037TIP3    H112117   0.856   4.616   3.572
 4037TIP3    H212118   0.804   4.598   3.431
 4038TIP3   OH212119   0.173   0.865   0.889
 4038TIP3    H112120   0.226   0.898   0.961
 4038TIP3    H212121   0.228   0.799   0.846
 4039TIP3   OH212122   5.408   2.201   0.124
 4039TIP3    H112123   5.498   2.180   0.149
 4039TIP3    H212124   5.416   2.236   0.035
 4040TIP3   OH212125   2.155   0.897   2.857
 4040TIP3    H112126   2.189   0.834   2.921
 4040TIP3    H212127   2.230   0.918   2.802
 4041TIP3   OH212128   2.615   5.336   0.584
 4041TIP3    H112129   2.570   5.359   0.665
 4041TIP3    H212130   2.549   5.350   0.516
 4042TIP3   OH212131   5.010   5.972   0.569
 4042TIP3    H112132   4.934   6.024   0.593
 4042TIP3    H212133   5.029   5.998   0.478
 4043TIP3   OH212134   0.384   4.150   3.209
 4043TIP3    H112135   0.420   4.127   3.294
 4043TIP3    H212136   0.453   4.126   3.147
 4044TIP3   OH212137   4.163   1.790   2.689
 4044TIP3    H112138   4.070   1.806   2.670
 4044TIP3    H212139   4.209   1.832   2.616
 4045TIP3   OH212140   1.170   1.186   4.856
 4045TIP3    H112141   1.153   1.176   4.763
 4045TIP3    H212142   1.241   1.250   4.861
 4046TIP3   OH212143   1.875   0.764   4.666
 4046TIP3    H112144   1.918   0.821   4.731
 4046TIP3    H212145   1.805   0.819   4.630
 4047TIP3   OH212146   5.630   2.119   0.808
 4047TIP3    H112147   5.688   2.142   0.881
 4047TIP3    H212148   5.631   2.196   0.751
 4048TIP3   OH212149   3.958   1.450   3.763
 4048TIP3    H112150   3.999   1.418   3.683
 4048TIP3    H212151   3.944   1.371   3.815
 4049TIP3   OH212152   2.401   4.482   4.275
 4049TIP3    H112153   2.416   4.407   4.332
 4049TIP3    H212154   2.476   4.482   4.215
 4050TIP3   OH212155   0.590   4.972   4.914
 4050TIP3    H112156   0.651   4.990   4.986
 4050TIP3    H212157   0.527   5.044   4.918
 4051TIP3   OH212158   3.516   2.427   0.319
 4051TIP3    H112159   3.552   2.339   0.307
 4051TIP3    H212160   3.474   2.447   0.235
 4052TIP3   OH212161   5.764   1.041   3.209
 4052TIP3    H112162   5.679   1.066   3.175
 4052TIP3    H212163   5.752   1.038   3.304
 4053TIP3   OH212164   2.940   0.198   4.673
 4053TIP3    H112165   2.941   0.168   4.583
 4053TIP3    H212166   2.934   0.118   4.726
 4054TIP3   OH212167   4.887   0.176   1.927
 4054TIP3    H112168   4.872   0.258   1.880
 4054TIP3    H212169   4.812   0.168   1.986
 4055TIP3   OH212170   5.073   5.691   0.606
 4055TIP3    H112171   5.049   5.783   0.601
 4055TIP3    H212172   4.995   5.647   0.640
 4056TIP3   OH212173   3.875   1.554   0.432
 4056TIP3    H112174   3.872   1.460   0.449
 4056TIP3    H212175   3.815   1.568   0.358
 4057TIP3   OH212176   0.017   4.823   4.530
 4057TIP3    H112177   0.070   4.903   4.525
 4057TIP3    H212178  -0.028   4.829   4.614
 4058TIP3   OH212179   2.621   2.848   1.382
 4058TIP3    H112180   2.587   2.766   1.346
 4058TIP3    H212181   2.543   2.900   1.400
 4059TIP3   OH212182   0.591   3.383   4.229
 4059TIP3    H112183   0.509   3.333   4.235
 4059TIP3    H212184   0.566   3.472   4.252
 4060TIP3   OH212185   4.575   2.928   2.868
 4060TIP3    H112186   4.579   2.977   2.950
 4060TIP3    H212187   4.482   2.932   2.842
 4061TIP3   OH212188   5.673   3.301   3.229
 4061TIP3    H112189   5.767   3.281   3.234
 4061TIP3    H212190   5.669   3.395   3.214
 4062TIP3   OH212191   4.881   1.480   4.827
 4062TIP3    H112192   4.909   1.557   4.876
 4062TIP3    H212193   4.957   1.456   4.775
 4063TIP3   OH212194   2.301   1.538   2.717
 4063TIP3    H112195   2.339   1.604   2.659
 4063TIP3    H212196   2.345   1.457   2.693
 4064TIP3   OH212197   3.307   4.057   3.419
 4064TIP3    H112198   3.293   4.137   3.368
 4064TIP3    H212199   3.284   4.082   3.509
 4065TIP3   OH212200   0.068   1.979   1.589
 4065TIP3    H112201   0.035   1.985   1.679
 4065TIP3    H212202   0.020   2.046   1.541
 4066TIP3   OH212203   2.523   2.831   4.289
 4066TIP3    H112204   2.475   2.831   4.206
 4066TIP3    H212205   2.576   2.751   4.285
 4067TIP3   OH212206   5.282   1.362   0.031
 4067TIP3    H112207   5.369   1.357  -0.009
 4067TIP3    H212208   5.222   1.328  -0.036
 4068TIP3   OH212209   0.211   2.867   1.420
 4068TIP3    H112210   0.200   2.864   1.324
 4068TIP3    H212211   0.123   2.885   1.453
 4069TIP3   OH212212   4.287   3.660   1.605
 4069TIP3    H112213   4.274   3.717   1.528
 4069TIP3    H212214   4.358   3.701   1.653
 4070TIP3   OH212215   2.308   1.932   0.430
 4070TIP3    H112216   2.283   1.877   0.356
 4070TIP3    H212217   2.340   1.871   0.496
 4071TIP3   OH212218   4.799   3.902   3.093
 4071TIP3    H112219   4.786   3.850   3.172
 4071TIP3    H212220   4.818   3.837   3.025
 4072TIP3   OH212221   4.246   4.370   2.336
 4072TIP3    H112222   4.338   4.383   2.315
 4072TIP3    H212223   4.219   4.453   2.375
 4073TIP3   OH212224   4.519   4.416   2.641
 4073TIP3    H112225   4.577   4.428   2.716
 4073TIP3    H212226   4.478   4.501   2.628
 4074TIP3   OH212227   3.629   5.822   1.136
 4074TIP3    H112228   3.641   5.912   1.107
 4074TIP3    H212229   3.695   5.811   1.205
 4075TIP3   OH212230   3.621   3.417   1.764
 4075TIP3    H112231   3.544   3.443   1.815
 4075TIP3    H212232   3.599   3.330   1.730
 4076TIP3   OH212233   1.474   5.380   0.532
 4076TIP3    H112234   1.498   5.296   0.493
 4076TIP3    H212235   1.551   5.435   0.520
 4077TIP3   OH212236   2.933   5.285   1.065
 4077TIP3    H112237   2.864   5.285   0.998
 4077TIP3    H212238   3.015   5.290   1.015
 4078TIP3   OH212239   3.848   1.886   2.026
 4078TIP3    H112240   3.924   1.934   1.994
 4078TIP3    H212241   3.879   1.796   2.036
 4079TIP3   OH212242   3.252   0.417   0.885
 4079TIP3    H112243   3.332   0.450   0.845
 4079TIP3    H212244   3.279   0.387   0.972
 4080TIP3   OH212245   2.526   4.279   2.491
 4080TIP3    H112246   2.579   4.350   2.454
 4080TIP3    H212247   2.436   4.312   2.489
 4081TIP3   OH212248   1.284   5.262   1.096
 4081TIP3    H112249   1.218   5.209   1.140
 4081TIP3    H212250   1.367   5.215   1.110
 4082TIP3   OH212251   3.695   3.346   4.529
 4082TIP3    H112252   3.660   3.426   4.568
 4082TIP3    H212253   3.788   3.348   4.552
 4083TIP3   OH212254   1.162   2.781   2.829
 4083TIP3    H112255   1.103   2.787   2.904
 4083TIP3    H212256   1.110   2.739   2.761
 4084TIP3   OH212257   4.223   3.856   2.924
 4084TIP3    H112258   4.213   3.845   2.829
 4084TIP3    H212259   4.316   3.874   2.937
 4085TIP3   OH212260   1.302   5.651   3.563
 4085TIP3    H112261   1.366   5.670   3.631
 4085TIP3    H212262   1.262   5.569   3.591
 4086TIP3   OH212263   5.326   5.562   4.358
 4086TIP3    H112264   5.362   5.651   4.365
 4086TIP3    H212265   5.324   5.545   4.264
 4087TIP3   OH212266   3.191   5.056  -0.006
 4087TIP3    H112267   3.167   4.974   0.037
 4087TIP3    H212268   3.259   5.093   0.050
 4088TIP3   OH212269   0.018   1.553   1.769
 4088TIP3    H112270   0.010   1.589   1.680
 4088TIP3    H212271   0.014   1.630   1.826
 4089TIP3   OH212272   3.729   2.909   2.486
 4089TIP3    H112273   3.675   2.964   2.542
 4089TIP3    H212274   3.666   2.861   2.433
 4090TIP3   OH212275   0.696   1.014   0.521
 4090TIP3    H112276   0.666   1.099   0.490
 4090TIP3    H212277   0.616   0.964   0.534
 4091TIP3   OH212278   1.996   4.797   1.115
 4091TIP3    H112279   2.002   4.706   1.087
 4091TIP3    H212280   1.997   4.792   1.211
 4092TIP3   OH212281   2.770   2.262   4.659
 4092TIP3    H112282   2.740   2.172   4.648
 4092TIP3    H212283   2.743   2.286   4.747
 4093TIP3   OH212284   2.712   0.326   2.601
 4093TIP3    H112285   2.680   0.238   2.619
 4093TIP3    H212286   2.675   0.348   2.515
 4094TIP3   OH212287   3.877   2.985   4.966
 4094TIP3    H112288   3.897   3.070   5.003
 4094TIP3    H212289   3.914   2.922   5.028
 4095TIP3   OH212290   2.152   2.175   4.877
 4095TIP3    H112291   2.129   2.224   4.799
 4095TIP3    H212292   2.247   2.162   4.870
 4096TIP3   OH212293   4.361   2.058   1.372
 4096TIP3    H112294   4.348   1.976   1.420
 4096TIP3    H212295   4.344   2.035   1.281
 4097TIP3   OH212296   1.995   2.624   2.494
 4097TIP3    H112297   2.049   2.702   2.481
 4097TIP3    H212298   1.914   2.644   2.445
 4098TIP3   OH212299   0.888   3.498   0.613
 4098TIP3    H112300   0.873   3.455   0.529
 4098TIP3    H212301   0.879   3.428   0.678
 4099TIP3   OH212302   4.714   5.616   2.776
 4099TIP3    H112303   4.630   5.573   2.759
 4099TIP3    H212304   4.695   5.678   2.846
 4100TIP3   OH212305   2.066   4.497   1.461
 4100TIP3    H112306   2.099   4.431   1.522
 4100TIP3    H212307   2.032   4.446   1.387
 4101TIP3   OH212308   2.191   2.180   1.478
 4101TIP3    H112309   2.269   2.236   1.476
 4101TIP3    H212310   2.226   2.091   1.480
 4102TIP3   OH212311   6.016  -0.008   0.886
 4102TIP3    H112312   6.045   0.047   0.812
 4102TIP3    H212313   6.090  -0.007   0.947
 4103TIP3   OH212314   1.343   3.252   1.144
 4103TIP3    H112315   1.324   3.195   1.069
 4103TIP3    H212316   1.327   3.340   1.111
 4104TIP3   OH212317   3.928   4.229   1.298
 4104TIP3    H112318   3.962   4.260   1.381
 4104TIP3    H212319   3.958   4.294   1.234
 4105TIP3   OH212320   6.163   2.443   4.715
 4105TIP3    H112321   6.195   2.394   4.639
 4105TIP3    H212322   6.072   2.462   4.694
 4106TIP3   OH212323   0.861   2.276   0.120
 4106TIP3    H112324   0.884   2.198   0.069
 4106TIP3    H212325   0.854   2.246   0.210
 4107TIP3   OH212326   5.857   5.758   1.949
 4107TIP3    H112327   5.898   5.766   2.036
 4107TIP3    H212328   5.763   5.754   1.967
 4108TIP3   OH212329   6.174   4.394   2.448
 4108TIP3    H112330   6.219   4.403   2.364
 4108TIP3    H212331   6.085   4.425   2.431
 4109TIP3   OH212332   2.123   0.872   2.342
 4109TIP3    H112333   2.068   0.937   2.385
 4109TIP3    H212334   2.212   0.905   2.355
 4110TIP3   OH212335   0.950   0.348   3.888
 4110TIP3    H112336   0.857   0.351   3.867
 4110TIP3    H212337   0.960   0.267   3.938
 4111TIP3   OH212338   0.738   0.079   4.472
 4111TIP3    H112339   0.727  -0.005   4.427
 4111TIP3    H212340   0.650   0.100   4.504
 4112TIP3   OH212341   1.819   1.299   1.908
 4112TIP3    H112342   1.768   1.380   1.895
 4112TIP3    H212343   1.891   1.307   1.846
 4113TIP3   OH212344   0.323   0.061   0.958
 4113TIP3    H112345   0.378   0.134   0.987
 4113TIP3    H212346   0.237   0.100   0.942
 4114TIP3   OH212347   5.513   4.742   2.747
 4114TIP3    H112348   5.431   4.719   2.702
 4114TIP3    H212349   5.578   4.746   2.677
 4115TIP3   OH212350   1.755   3.328   0.128
 4115TIP3    H112351   1.734   3.421   0.138
 4115TIP3    H212352   1.799   3.305   0.210
 4116TIP3   OH212353   3.428   3.964   2.136
 4116TIP3    H112354   3.359   3.986   2.073
 4116TIP3    H212355   3.399   3.880   2.174
 4117TIP3   OH212356   4.588   1.672   3.578
 4117TIP3    H112357   4.517   1.623   3.536
 4117TIP3    H212358   4.569   1.666   3.672
 4118TIP3   OH212359   1.709   0.655   2.585
 4118TIP3    H112360   1.671   0.593   2.648
 4118TIP3    H212361   1.780   0.697   2.634
 4119TIP3   OH212362   0.510   5.451   3.540
 4119TIP3    H112363   0.427   5.497   3.553
 4119TIP3    H212364   0.490   5.385   3.474
 4120TIP3   OH212365   4.887   0.732   1.620
 4120TIP3    H112366   4.916   0.642   1.608
 4120TIP3    H212367   4.864   0.762   1.532
 4121TIP3   OH212368   4.918   0.468   4.758
 4121TIP3    H112369   4.847   0.512   4.805
 4121TIP3    H212370   4.989   0.533   4.756
 4122TIP3   OH212371   4.183   0.661   4.593
 4122TIP3    H112372   4.104   0.713   4.581
 4122TIP3    H212373   4.176   0.627   4.682
 4123TIP3   OH212374   3.090   0.552   0.377
 4123TIP3    H112375   3.073   0.533   0.470
 4123TIP3    H212376   3.011   0.521   0.332
 4124TIP3   OH212377   2.032   1.028   4.340
 4124TIP3    H112378   2.040   1.044   4.434
 4124TIP3    H212379   2.122   1.038   4.307
 4125TIP3   OH212380   5.125   3.820   3.518
 4125TIP3    H112381   5.170   3.820   3.603
 4125TIP3    H212382   5.156   3.899   3.474
 4126TIP3   OH212383   0.258   2.896   0.761
 4126TIP3    H112384   0.334   2.935   0.804
 4126TIP3    H212385   0.225   2.965   0.704
 4127TIP3   OH212386   3.194   1.091   3.471
 4127TIP3    H112387   3.116   1.044   3.500
 4127TIP3    H212388   3.257   1.080   3.542
 4128TIP3   OH212389   4.322   3.025   2.132
 4128TIP3    H112390   4.270   3.052   2.207
 4128TIP3    H212391   4.353   2.937   2.154
 4129TIP3   OH212392   3.460   5.688   4.858
 4129TIP3    H112393   3.365   5.703   4.855
 4129TIP3    H212394   3.493   5.725   4.776
 4130TIP3   OH212395   1.766   3.617   2.635
 4130TIP3    H112396   1.768   3.691   2.695
 4130TIP3    H212397   1.707   3.645   2.565
 4131TIP3   OH212398   3.524   0.770   1.643
 4131TIP3    H112399   3.460   0.741   1.709
 4131TIP3    H212400   3.533   0.695   1.584
 4132TIP3   OH212401   2.610   4.980   4.591
 4132TIP3    H112402   2.538   4.956   4.649
 4132TIP3    H212403   2.626   4.901   4.539
 4133TIP3   OH212404   4.131   1.697   1.013
 4133TIP3    H112405   4.128   1.790   0.995
 4133TIP3    H212406   4.211   1.684   1.063
 4134TIP3   OH212407   5.283   5.546   2.380
 4134TIP3    H112408   5.362   5.593   2.354
 4134TIP3    H212409   5.228   5.613   2.422
 4135TIP3   OH212410   2.425   4.159   0.630
 4135TIP3    H112411   2.401   4.076   0.671
 4135TIP3    H212412   2.479   4.134   0.555
 4136TIP3   OH212413   1.643   2.694   4.382
 4136TIP3    H112414   1.590   2.655   4.452
 4136TIP3    H212415   1.657   2.784   4.411
 4137TIP3   OH212416   2.802   2.664   2.824
 4137TIP3    H112417   2.805   2.606   2.749
 4137TIP3    H212418   2.841   2.613   2.895
 4138TIP3   OH212419   2.927   0.443   0.164
 4138TIP3    H112420   2.885   0.363   0.194
 4138TIP3    H212421   2.855   0.500   0.136
 4139TIP3   OH212422   3.669   2.669   3.415
 4139TIP3    H112423   3.690   2.687   3.507
 4139TIP3    H212424   3.656   2.756   3.376
 4140TIP3   OH212425   4.751   3.287   1.827
 4140TIP3    H112426   4.741   3.201   1.867
 4140TIP3    H212427   4.708   3.280   1.742
 4141TIP3   OH212428   4.844   2.749   1.023
 4141TIP3    H112429   4.909   2.684   0.998
 4141TIP3    H212430   4.889   2.833   1.015
 4142TIP3   OH212431   4.434   3.480   1.904
 4142TIP3    H112432   4.371   3.468   1.833
 4142TIP3    H212433   4.463   3.391   1.925
 4143TIP3   OH212434   2.039   1.244   2.520
 4143TIP3    H112435   2.024   1.325   2.569
 4143TIP3    H212436   1.953   1.202   2.517
 4144TIP3   OH212437   3.229   3.541   2.655
 4144TIP3    H112438   3.197   3.621   2.615
 4144TIP3    H212439   3.158   3.478   2.644
 4145TIP3   OH212440   3.948   2.116   5.053
 4145TIP3    H112441   3.951   2.210   5.074
 4145TIP3    H212442   3.856   2.100   5.033
 4146TIP3   OH212443   1.247   3.942   0.633
 4146TIP3    H112444   1.152   3.934   0.624
 4146TIP3    H212445   1.277   3.851   0.642
 4147TIP3   OH212446   1.512   4.272   3.085
 4147TIP3    H112447   1.564   4.203   3.126
 4147TIP3    H212448   1.576   4.342   3.066
 4148TIP3   OH212449   4.912   1.570   2.142
 4148TIP3    H112450   4.896   1.514   2.066
 4148TIP3    H212451   4.901   1.513   2.218
 4149TIP3   OH212452   1.711   2.929   2.500
 4149TIP3    H112453   1.705   2.839   2.530
 4149TIP3    H212454   1.788   2.965   2.544
 4150TIP3   OH212455   1.743   1.562   1.828
 4150TIP3    H112456   1.827   1.607   1.836
 4150TIP3    H212457   1.679   1.625   1.862
 4151TIP3   OH212458   0.874   2.139   2.292
 4151TIP3    H112459   0.887   2.063   2.235
 4151TIP3    H212460   0.793   2.179   2.260
 4152TIP3   OH212461   5.378   4.057   3.999
 4152TIP3    H112462   5.329   4.081   3.921
 4152TIP3    H212463   5.455   4.011   3.966
 4153TIP3   OH212464   2.848   2.588   3.117
 4153TIP3    H112465   2.930   2.612   3.161
 4153TIP3    H212466   2.782   2.590   3.187
 4154TIP3   OH212467   3.458   3.826   3.445
 4154TIP3    H112468   3.398   3.806   3.516
 4154TIP3    H212469   3.428   3.910   3.410
 4155TIP3   OH212470   2.833   4.850   1.388
 4155TIP3    H112471   2.742   4.846   1.360
 4155TIP3    H212472   2.881   4.878   1.310
 4156TIP3   OH212473   2.785   2.886   2.979
 4156TIP3    H112474   2.790   2.811   2.919
 4156TIP3    H212475   2.785   2.846   3.066
 4157TIP3   OH212476   2.715   4.667   1.139
 4157TIP3    H112477   2.637   4.722   1.133
 4157TIP3    H212478   2.788   4.728   1.132
 4158TIP3   OH212479   0.997   5.789   0.852
 4158TIP3    H112480   1.047   5.812   0.774
 4158TIP3    H212481   0.920   5.847   0.849
 4159TIP3   OH212482   3.122   1.496   3.558
 4159TIP3    H112483   3.148   1.467   3.645
 4159TIP3    H212484   3.065   1.571   3.573
 4160TIP3   OH212485   6.253   4.631   3.943
 4160TIP3    H112486   6.196   4.641   3.867
 4160TIP3    H212487   6.257   4.718   3.982
 4161TIP3   OH212488   5.286   2.961   4.960
 4161TIP3    H112489   5.264   2.967   4.867
 4161TIP3    H212490   5.369   2.914   4.963
 4162TIP3   OH212491   1.055   0.093   3.518
 4162TIP3    H112492   1.091   0.010   3.485
 4162TIP3    H212493   1.070   0.155   3.447
 4163TIP3   OH212494   1.095   3.830   2.532
 4163TIP3    H112495   1.066   3.908   2.487
 4163TIP3    H212496   1.018   3.799   2.580
 4164TIP3   OH212497   4.398   4.619   1.961
 4164TIP3    H112498   4.321   4.591   2.011
 4164TIP3    H212499   4.379   4.591   1.871
 4165TIP3   OH212500   5.924   5.446   2.953
 4165TIP3    H112501   5.836   5.413   2.970
 4165TIP3    H212502   5.919   5.540   2.973
 4166TIP3   OH212503   1.357   5.012   4.724
 4166TIP3    H112504   1.314   4.950   4.664
 4166TIP3    H212505   1.379   5.087   4.669
 4167TIP3   OH212506   4.664   5.272   2.842
 4167TIP3    H112507   4.623   5.341   2.790
 4167TIP3    H212508   4.612   5.193   2.823
 4168TIP3   OH212509   6.125   2.642   3.388
 4168TIP3    H112510   6.093   2.660   3.476
 4168TIP3    H212511   6.218   2.665   3.392
 4169TIP3   OH212512   2.084   3.601   5.179
 4169TIP3    H112513   2.015   3.540   5.155
 4169TIP3    H212514   2.061   3.683   5.135
 4170TIP3   OH212515   0.022   2.635   2.632
 4170TIP3    H112516  -0.028   2.642   2.713
 4170TIP3    H212517   0.091   2.700   2.641
 4171TIP3   OH212518   0.072   0.064   2.534
 4171TIP3    H112519   0.100   0.084   2.445
 4171TIP3    H212520   0.144   0.013   2.571
 4172TIP3   OH212521   3.149   3.209   3.952
 4172TIP3    H112522   3.209   3.245   4.018
 4172TIP3    H212523   3.075   3.270   3.952
 4173TIP3   OH212524   6.045   1.436   0.142
 4173TIP3    H112525   6.050   1.531   0.148
 4173TIP3    H212526   6.072   1.404   0.228
 4174TIP3   OH212527   4.007   1.201   3.296
 4174TIP3    H112528   3.929   1.162   3.335
 4174TIP3    H212529   3.976   1.241   3.215
 4175TIP3   OH212530   1.863   1.558   0.305
 4175TIP3    H112531   1.835   1.474   0.343
 4175TIP3    H212532   1.907   1.534   0.223
 4176TIP3   OH212533   0.422   2.692   4.925
 4176TIP3    H112534   0.415   2.770   4.869
 4176TIP3    H212535   0.434   2.620   4.865
 4177TIP3   OH212536   1.045   4.787   0.898
 4177TIP3    H112537   1.079   4.819   0.815
 4177TIP3    H212538   1.123   4.765   0.949
 4178TIP3   OH212539   4.001   1.806   3.181
 4178TIP3    H112540   3.911   1.773   3.171
 4178TIP3    H212541   4.051   1.759   3.115
 4179TIP3   OH212542   6.299   1.151   1.455
 4179TIP3    H112543   6.391   1.137   1.477
 4179TIP3    H212544   6.266   1.207   1.526
 4180TIP3   OH212545   5.142   2.311   3.913
 4180TIP3    H112546   5.071   2.343   3.857
 4180TIP3    H212547   5.138   2.216   3.905
 4181TIP3   OH212548   2.589   0.884   1.497
 4181TIP3    H112549   2.496   0.904   1.487
 4181TIP3    H212550   2.624   0.958   1.546
 4182TIP3   OH212551   4.827   1.186   1.278
 4182TIP3    H112552   4.805   1.109   1.226
 4182TIP3    H212553   4.922   1.187   1.281
 4183TIP3   OH212554   4.942   1.429   2.694
 4183TIP3    H112555   4.957   1.373   2.770
 4183TIP3    H212556   4.904   1.371   2.628
 4184TIP3   OH212557   0.213   0.469   4.017
 4184TIP3    H112558   0.169   0.441   3.937
 4184TIP3    H212559   0.275   0.399   4.037
 4185TIP3   OH212560   5.367   4.278   2.768
 4185TIP3    H112561   5.434   4.217   2.736
 4185TIP3    H212562   5.291   4.262   2.712
 4186TIP3   OH212563   4.718   2.620   1.247
 4186TIP3    H112564   4.646   2.618   1.184
 4186TIP3    H212565   4.785   2.675   1.206
 4187TIP3   OH212566   2.841   3.576   4.739
 4187TIP3    H112567   2.904   3.513   4.705
 4187TIP3    H212568   2.868   3.660   4.703
 4188TIP3   OH212569   1.436   3.527   3.733
 4188TIP3    H112570   1.372   3.558   3.669
 4188TIP3    H212571   1.504   3.595   3.732
 4189TIP3   OH212572   1.536   0.904   2.534
 4189TIP3    H112573   1.467   0.838   2.537
 4189TIP3    H212574   1.583   0.894   2.617
 4190TIP3   OH212575   4.798   1.633   4.595
 4190TIP3    H112576   4.811   1.728   4.598
 4190TIP3    H212577   4.805   1.606   4.687
 4191TIP3   OH212578   0.349   0.063   2.746
 4191TIP3    H112579   0.294   0.138   2.767
 4191TIP3    H212580   0.360   0.017   2.829
 4192TIP3   OH212581   2.205   2.890   3.918
 4192TIP3    H112582   2.264   2.825   3.958
 4192TIP3    H212583   2.184   2.852   3.833
 4193TIP3   OH212584   3.402   0.318   0.308
 4193TIP3    H112585   3.456   0.397   0.315
 4193TIP3    H212586   3.342   0.336   0.235
 4194TIP3   OH212587   4.308   1.300   3.067
 4194TIP3    H112588   4.320   1.206   3.081
 4194TIP3    H212589   4.373   1.342   3.123
 4195TIP3   OH212590   5.170   3.141   3.368
 4195TIP3    H112591   5.090   3.142   3.315
 4195TIP3    H212592   5.175   3.228   3.406
 4196TIP3   OH212593   1.435   2.905   1.088
 4196TIP3    H112594   1.519   2.948   1.072
 4196TIP3    H212595   1.448   2.857   1.170
 4197TIP3   OH212596   3.338   0.045   1.749
 4197TIP3    H112597   3.298   0.036   1.836
 4197TIP3    H212598   3.399   0.118   1.758
 4198TIP3   OH212599   6.251   5.768   2.761
 4198TIP3    H112600   6.290   5.738   2.678
 4198TIP3    H212601   6.277   5.860   2.766
 4199TIP3   OH212602   0.095   2.349   4.827
 4199TIP3    H112603   0.039   2.313   4.759
 4199TIP3    H212604   0.034   2.380   4.894
 4200TIP3   OH212605   5.404   1.020   2.657
 4200TIP3    H112606   5.474   0.979   2.708
 4200TIP3    H212607   5.438   1.023   2.568
 4201TIP3   OH212608   5.386   1.107   0.216
 4201TIP3    H112609   5.297   1.083   0.188
 4201TIP3    H212610   5.407   1.185   0.165
 4202TIP3   OH212611   0.634   4.065   1.199
 4202TIP3    H112612   0.620   4.158   1.181
 4202TIP3    H212613   0.646   4.025   1.113
 4203TIP3   OH212614   5.216   3.213   2.032
 4203TIP3    H112615   5.235   3.305   2.053
 4203TIP3    H212616   5.188   3.214   1.941
 4204TIP3   OH212617   3.633   4.846   1.443
 4204TIP3    H112618   3.596   4.820   1.528
 4204TIP3    H212619   3.710   4.790   1.432
 4205TIP3   OH212620   2.752   1.936   5.064
 4205TIP3    H112621   2.847   1.946   5.064
 4205TIP3    H212622   2.737   1.846   5.092
 4206TIP3   OH212623   2.544   0.739   2.827
 4206TIP3    H112624   2.468   0.698   2.870
 4206TIP3    H212625   2.554   0.823   2.872
 4207TIP3   OH212626   5.143   0.259   2.429
 4207TIP3    H112627   5.083   0.315   2.478
 4207TIP3    H212628   5.101   0.249   2.344
 4208TIP3   OH212629   4.028   3.336   0.315
 4208TIP3    H112630   4.028   3.241   0.305
 4208TIP3    H212631   4.058   3.352   0.404
 4209TIP3   OH212632   5.978   4.201   0.354
 4209TIP3    H112633   5.956   4.249   0.434
 4209TIP3    H212634   6.040   4.257   0.309
 4210TIP3   OH212635   4.605   3.929   0.227
 4210TIP3    H112636   4.700   3.933   0.237
 4210TIP3    H212637   4.573   3.906   0.314
 4211TIP3   OH212638   2.762   0.997   1.798
 4211TIP3    H112639   2.775   1.067   1.734
 4211TIP3    H212640   2.834   1.008   1.860
 4212TIP3   OH212641   3.868   4.750   4.875
 4212TIP3    H112642   3.779   4.759   4.842
 4212TIP3    H212643   3.888   4.835   4.914
 4213TIP3   OH212644   2.328   2.661   3.992
 4213TIP3    H112645   2.329   2.586   3.933
 4213TIP3    H212646   2.271   2.634   4.064
 4214TIP3   OH212647   4.316   0.280   2.999
 4214TIP3    H112648   4.399   0.249   3.034
 4214TIP3    H212649   4.251   0.259   3.066
 4215TIP3   OH212650   4.303   3.798   3.696
 4215TIP3    H112651   4.319   3.881   3.652
 4215TIP3    H212652   4.371   3.794   3.764
 4216TIP3   OH212653   1.447   0.477   0.217
 4216TIP3    H112654   1.403   0.562   0.216
 4216TIP3    H212655   1.507   0.480   0.142
 4217TIP3   OH212656   6.087   3.999   2.194
 4217TIP3    H112657   6.068   3.995   2.100
 4217TIP3    H212658   6.180   4.017   2.199
 4218TIP3   OH212659   1.328   0.998   2.794
 4218TIP3    H112660   1.409   1.048   2.803
 4218TIP3    H212661   1.273   1.026   2.867
 4219TIP3   OH212662   1.351   1.615   4.372
 4219TIP3    H112663   1.399   1.649   4.298
 4219TIP3    H212664   1.412   1.555   4.415
 4220TIP3   OH212665   0.372   4.046   2.279
 4220TIP3    H112666   0.291   4.097   2.280
 4220TIP3    H212667   0.382   4.014   2.369
 4221TIP3   OH212668   3.449   5.773   2.381
 4221TIP3    H112669   3.470   5.716   2.307
 4221TIP3    H212670   3.367   5.738   2.416
 4222TIP3   OH212671   6.303   3.708   2.196
 4222TIP3    H112672   6.226   3.765   2.202
 4222TIP3    H212673   6.356   3.747   2.126
 4223TIP3   OH212674   0.258   0.982   1.362
 4223TIP3    H112675   0.348   0.951   1.356
 4223TIP3    H212676   0.251   1.019   1.450
 4224TIP3   OH212677   3.822   5.737   1.338
 4224TIP3    H112678   3.779   5.747   1.423
 4224TIP3    H212679   3.915   5.729   1.359
 4225TIP3   OH212680   5.483   5.717   1.032
 4225TIP3    H112681   5.439   5.698   1.115
 4225TIP3    H212682   5.575   5.727   1.056
 4226TIP3   OH212683   2.391   2.946   2.361
 4226TIP3    H112684   2.318   2.892   2.394
 4226TIP3    H212685   2.381   3.030   2.406
 4227TIP3   OH212686   4.669   4.414   3.840
 4227TIP3    H112687   4.582   4.444   3.866
 4227TIP3    H212688   4.653   4.342   3.779
 4228TIP3   OH212689   5.429   4.715   0.974
 4228TIP3    H112690   5.408   4.759   1.057
 4228TIP3    H212691   5.513   4.673   0.990
 4229TIP3   OH212692   3.475   2.252   0.763
 4229TIP3    H112693   3.381   2.232   0.770
 4229TIP3    H212694   3.480   2.316   0.692
 4230TIP3   OH212695  -0.014   4.910   0.775
 4230TIP3    H112696   0.034   4.964   0.839
 4230TIP3    H212697  -0.012   4.822   0.812
 4231TIP3   OH212698   6.109   0.515   2.718
 4231TIP3    H112699   6.100   0.457   2.794
 4231TIP3    H212700   6.122   0.602   2.756
 4232TIP3   OH212701   0.106   3.663   3.075
 4232TIP3    H112702   0.135   3.743   3.120
 4232TIP3    H212703   0.085   3.602   3.146
 4233TIP3   OH212704   5.362   0.302   0.101
 4233TIP3    H112705   5.413   0.280   0.179
 4233TIP3    H212706   5.416   0.365   0.054
 4234TIP3   OH212707   2.491   0.859   1.812
 4234TIP3    H112708   2.469   0.872   1.904
 4234TIP3    H212709   2.583   0.885   1.806
 4235TIP3   OH212710   2.048   0.900   3.614
 4235TIP3    H112711   2.024   0.808   3.607
 4235TIP3    H212712   2.097   0.919   3.534
 4236TIP3   OH212713   5.367   0.710   2.033
 4236TIP3    H112714   5.364   0.653   2.110
 4236TIP3    H212715   5.438   0.772   2.053
 4237TIP3   OH212716   2.701   4.173   3.927
 4237TIP3    H112717   2.714   4.181   4.021
 4237TIP3    H212718   2.653   4.091   3.916
 4238TIP3   OH212719   1.554   0.707   3.536
 4238TIP3    H112720   1.613   0.732   3.465
 4238TIP3    H212721   1.578   0.617   3.558
 4239TIP3   OH212722   4.698   0.619   3.355
 4239TIP3    H112723   4.641   0.577   3.292
 4239TIP3    H212724   4.639   0.661   3.418
 4240TIP3   OH212725   1.635   1.217   3.063
 4240TIP3    H112726   1.713   1.167   3.085
 4240TIP3    H212727   1.668   1.293   3.015
 4241TIP3   OH212728   0.944   3.731   1.517
 4241TIP3    H112729   0.926   3.814   1.561
 4241TIP3    H212730   0.889   3.733   1.439
 4242TIP3   OH212731   5.917   2.485   2.285
 4242TIP3    H112732   5.946   2.570   2.253
 4242TIP3    H212733   5.822   2.495   2.294
 4243TIP3   OH212734   1.113   3.525   1.288
 4243TIP3    H112735   1.159   3.608   1.292
 4243TIP3    H212736   1.025   3.547   1.260
 4244TIP3   OH212737   4.130   3.549   2.674
 4244TIP3    H112738   4.111   3.498   2.596
 4244TIP3    H212739   4.086   3.502   2.745
 4245TIP3   OH212740   4.201   2.924   1.757
 4245TIP3    H112741   4.117   2.889   1.786
 4245TIP3    H212742   4.181   3.011   1.723
 4246TIP3   OH212743   0.294   5.748   3.947
 4246TIP3    H112744   0.240   5.780   4.019
 4246TIP3    H212745   0.327   5.826   3.904
 4247TIP3   OH212746   0.254   4.181   4.144
 4247TIP3    H112747   0.349   4.177   4.139
 4247TIP3    H212748   0.236   4.264   4.187
 4248TIP3   OH212749   5.830   5.016   0.108
 4248TIP3    H112750   5.815   5.057   0.023
 4248TIP3    H212751   5.761   5.050   0.164
 4249TIP3   OH212752   0.603   5.781   3.563
 4249TIP3    H112753   0.626   5.824   3.645
 4249TIP3    H212754   0.576   5.693   3.589
 4250TIP3   OH212755   2.320   3.698   1.252
 4250TIP3    H112756   2.280   3.772   1.206
 4250TIP3    H212757   2.315   3.721   1.345
 4251TIP3   OH212758   4.032   1.023   5.004
 4251TIP3    H112759   4.095   1.018   4.932
 4251TIP3    H212760   3.948   1.042   4.962
 4252TIP3   OH212761   5.106   5.484   3.312
 4252TIP3    H112762   5.025   5.449   3.349
 4252TIP3    H212763   5.157   5.407   3.288
 4253TIP3   OH212764   5.860   1.203   2.476
 4253TIP3    H112765   5.818   1.251   2.547
 4253TIP3    H212766   5.791   1.145   2.442
 4254TIP3   OH212767   2.322   3.076   0.116
 4254TIP3    H112768   2.291   3.036   0.197
 4254TIP3    H212769   2.369   3.155   0.144
 4255TIP3   OH212770   4.932   4.154   0.601
 4255TIP3    H112771   4.927   4.103   0.682
 4255TIP3    H212772   5.021   4.139   0.569
 4256TIP3   OH212773   5.762   1.122   1.042
 4256TIP3    H112774   5.728   1.199   0.998
 4256TIP3    H212775   5.808   1.156   1.119
 4257TIP3   OH212776   4.277   5.114   1.780
 4257TIP3    H112777   4.371   5.126   1.793
 4257TIP3    H212778   4.268   5.094   1.687
 4258TIP3   OH212779   1.215   2.717   2.400
 4258TIP3    H112780   1.239   2.638   2.351
 4258TIP3    H212781   1.122   2.705   2.420
 4259TIP3   OH212782   5.167   1.527   3.212
 4259TIP3    H112783   5.139   1.616   3.233
 4259TIP3    H212784   5.130   1.474   3.283
 4260TIP3   OH212785   5.440   1.304   1.804
 4260TIP3    H112786   5.419   1.242   1.874
 4260TIP3    H212787   5.402   1.265   1.725
 4261TIP3   OH212788   2.796   1.491   0.729
 4261TIP3    H112789   2.862   1.479   0.797
 4261TIP3    H212790   2.809   1.417   0.670
 4262TIP3   OH212791   1.453   3.992   5.030
 4262TIP3    H112792   1.467   3.921   4.968
 4262TIP3    H212793   1.373   4.035   4.999
 4263TIP3   OH212794   1.348   5.566   0.251
 4263TIP3    H112795   1.391   5.650   0.231
 4263TIP3    H212796   1.255   5.583   0.235
 4264TIP3   OH212797   4.798   2.468   0.830
 4264TIP3    H112798   4.865   2.515   0.881
 4264TIP3    H212799   4.789   2.519   0.750
 4265TIP3   OH212800   0.192   3.494   1.725
 4265TIP3    H112801   0.249   3.437   1.777
 4265TIP3    H212802   0.197   3.458   1.636
 4266TIP3   OH212803   2.650   2.378   4.443
 4266TIP3    H112804   2.728   2.347   4.396
 4266TIP3    H212805   2.662   2.347   4.533
 4267TIP3   OH212806   0.235   2.856   2.726
 4267TIP3    H112807   0.145   2.887   2.739
 4267TIP3    H212808   0.259   2.818   2.811
 4268TIP3   OH212809   4.390   3.043   4.334
 4268TIP3    H112810   4.382   3.053   4.239
 4268TIP3    H212811   4.408   3.131   4.366
 4269TIP3   OH212812   0.201   2.885   4.861
 4269TIP3    H112813   0.261   2.918   4.928
 4269TIP3    H212814   0.142   2.826   4.908
 4270TIP3   OH212815   4.367   2.387   2.639
 4270TIP3    H112816   4.419   2.467   2.648
 4270TIP3    H212817   4.307   2.389   2.714
 4271TIP3   OH212818   2.889   4.815   4.773
 4271TIP3    H112819   2.958   4.857   4.722
 4271TIP3    H212820   2.922   4.817   4.863
 4272TIP3   OH212821   2.063   2.751   4.418
 4272TIP3    H112822   2.064   2.715   4.507
 4272TIP3    H212823   2.110   2.834   4.424
 4273TIP3   OH212824   2.586   0.535   1.930
 4273TIP3    H112825   2.622   0.601   1.871
 4273TIP3    H212826   2.533   0.479   1.874
 4274TIP3   OH212827   3.487   5.501   3.441
 4274TIP3    H112828   3.547   5.471   3.510
 4274TIP3    H212829   3.473   5.593   3.460
 4275TIP3   OH212830   1.496   4.693   2.239
 4275TIP3    H112831   1.433   4.761   2.213
 4275TIP3    H212832   1.458   4.652   2.316
 4276TIP3   OH212833   4.208   1.251   1.475
 4276TIP3    H112834   4.194   1.318   1.542
 4276TIP3    H212835   4.298   1.263   1.447
 4277TIP3   OH212836   5.155   2.704   4.861
 4277TIP3    H112837   5.228   2.763   4.840
 4277TIP3    H212838   5.078   2.760   4.857
 4278TIP3   OH212839   4.890   2.218   1.112
 4278TIP3    H112840   4.925   2.153   1.173
 4278TIP3    H212841   4.856   2.167   1.039
 4279TIP3   OH212842   0.982   0.723   0.180
 4279TIP3    H112843   1.059   0.735   0.126
 4279TIP3    H212844   1.005   0.651   0.239
 4280TIP3   OH212845   5.209   0.419   0.303
 4280TIP3    H112846   5.226   0.389   0.213
 4280TIP3    H212847   5.113   0.420   0.310
 4281TIP3   OH212848   1.828   5.904   2.221
 4281TIP3    H112849   1.921   5.889   2.239
 4281TIP3    H212850   1.828   5.961   2.144
 4282TIP3   OH212851   0.783   2.580   3.708
 4282TIP3    H112852   0.873   2.613   3.715
 4282TIP3    H212853   0.728   2.657   3.720
 4283TIP3   OH212854   4.648   1.281   2.909
 4283TIP3    H112855   4.646   1.188   2.932
 4283TIP3    H212856   4.707   1.320   2.973
 4284TIP3   OH212857   2.456   0.199   3.197
 4284TIP3    H112858   2.448   0.104   3.204
 4284TIP3    H212859   2.550   0.215   3.198
 4285TIP3   OH212860   4.888   4.188   1.093
 4285TIP3    H112861   4.826   4.140   1.148
 4285TIP3    H212862   4.842   4.271   1.073
 4286TIP3   OH212863   2.223   0.523   3.505
 4286TIP3    H112864   2.215   0.483   3.592
 4286TIP3    H212865   2.280   0.599   3.520
 4287TIP3   OH212866   1.558   2.593   1.974
 4287TIP3    H112867   1.515   2.613   2.058
 4287TIP3    H212868   1.502   2.633   1.908
 4288TIP3   OH212869   3.228   1.258   0.761
 4288TIP3    H112870   3.216   1.206   0.681
 4288TIP3    H212871   3.186   1.342   0.742
 4289TIP3   OH212872   2.805   3.027   1.000
 4289TIP3    H112873   2.782   3.064   0.915
 4289TIP3    H212874   2.901   3.021   0.998
 4290TIP3   OH212875   2.644   2.569   4.037
 4290TIP3    H112876   2.649   2.574   4.132
 4290TIP3    H212877   2.600   2.650   4.010
 4291TIP3   OH212878   0.171   4.130   0.106
 4291TIP3    H112879   0.172   4.220   0.075
 4291TIP3    H212880   0.083   4.117   0.140
 4292TIP3   OH212881   1.418   2.386   4.353
 4292TIP3    H112882   1.434   2.404   4.445
 4292TIP3    H212883   1.474   2.310   4.333
 4293TIP3   OH212884   1.357   2.164   3.957
 4293TIP3    H112885   1.328   2.210   3.878
 4293TIP3    H212886   1.400   2.232   4.009
 4294TIP3   OH212887   5.371   1.431   3.487
 4294TIP3    H112888   5.381   1.517   3.528
 4294TIP3    H212889   5.326   1.378   3.553
 4295TIP3   OH212890   5.870   0.703   1.893
 4295TIP3    H112891   5.791   0.658   1.923
 4295TIP3    H212892   5.856   0.717   1.800
 4296TIP3   OH212893   3.728   3.770   0.245
 4296TIP3    H112894   3.733   3.725   0.161
 4296TIP3    H212895   3.817   3.761   0.281
 4297TIP3   OH212896   5.263   4.019   1.154
 4297TIP3    H112897   5.179   4.021   1.201
 4297TIP3    H212898   5.291   3.928   1.159
 4298TIP3   OH212899   2.933   5.141   0.155
 4298TIP3    H112900   2.870   5.155   0.226
 4298TIP3    H212901   2.882   5.102   0.084
 4299TIP3   OH212902   0.517   1.076   4.377
 4299TIP3    H112903   0.545   1.164   4.351
 4299TIP3    H212904   0.550   1.019   4.307
 4300TIP3   OH212905   4.590   2.700   4.309
 4300TIP3    H112906   4.549   2.719   4.394
 4300TIP3    H212907   4.619   2.785   4.277
 4301TIP3   OH212908   0.414   4.835   3.637
 4301TIP3    H112909   0.330   4.792   3.617
 4301TIP3    H212910   0.468   4.765   3.674
 4302TIP3   OH212911   4.482   5.691   2.099
 4302TIP3    H112912   4.530   5.642   2.166
 4302TIP3    H212913   4.549   5.744   2.056
 4303TIP3   OH212914   3.599   0.371   2.916
 4303TIP3    H112915   3.594   0.464   2.895
 4303TIP3    H212916   3.533   0.358   2.984
 4304TIP3   OH212917   2.135   3.862   3.230
 4304TIP3    H112918   2.219   3.846   3.187
 4304TIP3    H212919   2.149   3.943   3.279
 4305TIP3   OH212920   2.571   4.059   3.010
 4305TIP3    H112921   2.495   4.078   3.066
 4305TIP3    H212922   2.566   4.123   2.940
 4306TIP3   OH212923   3.809  -0.007   2.460
 4306TIP3    H112924   3.774   0.082   2.452
 4306TIP3    H212925   3.846  -0.026   2.374
 4307TIP3   OH212926   0.195   5.035   3.105
 4307TIP3    H112927   0.246   5.065   3.030
 4307TIP3    H212928   0.230   5.086   3.179
 4308TIP3   OH212929   4.387   3.615   3.145
 4308TIP3    H112930   4.403   3.705   3.171
 4308TIP3    H212931   4.456   3.596   3.081
 4309TIP3   OH212932   5.343   3.798   0.820
 4309TIP3    H112933   5.381   3.729   0.765
 4309TIP3    H212934   5.405   3.807   0.892
 4310TIP3   OH212935   0.041   2.215   3.905
 4310TIP3    H112936  -0.004   2.260   3.976
 4310TIP3    H212937   0.131   2.203   3.937
 4311TIP3   OH212938   1.678   1.709   3.625
 4311TIP3    H112939   1.728   1.789   3.607
 4311TIP3    H212940   1.697   1.690   3.717
 4312TIP3   OH212941   3.898   0.935   1.130
 4312TIP3    H112942   3.877   0.971   1.216
 4312TIP3    H212943   3.863   0.846   1.132
 4313TIP3   OH212944   3.356   2.018   3.559
 4313TIP3    H112945   3.269   1.983   3.580
 4313TIP3    H212946   3.414   1.942   3.563
 4314TIP3   OH212947   0.445   4.432   3.549
 4314TIP3    H112948   0.422   4.472   3.465
 4314TIP3    H212949   0.453   4.507   3.609
 4315TIP3   OH212950   5.894   5.115   4.780
 4315TIP3    H112951   5.914   5.108   4.873
 4315TIP3    H212952   5.843   5.195   4.772
 4316TIP3   OH212953   5.493   1.291   2.737
 4316TIP3    H112954   5.449   1.214   2.701
 4316TIP3    H212955   5.454   1.302   2.823
 4317TIP3   OH212956   2.275   5.931   1.587
 4317TIP3    H112957   2.288   6.024   1.603
 4317TIP3    H212958   2.198   5.908   1.639
 4318TIP3   OH212959   4.565   4.348   1.221
 4318TIP3    H112960   4.648   4.355   1.269
 4318TIP3    H212961   4.513   4.422   1.253
 4319TIP3   OH212962   6.130   3.057   4.601
 4319TIP3    H112963   6.173   3.086   4.681
 4319TIP3    H212964   6.154   3.124   4.536
 4320TIP3   OH212965   4.479   1.945   4.337
 4320TIP3    H112966   4.399   1.951   4.388
 4320TIP3    H212967   4.472   1.862   4.290
 4321TIP3   OH212968   2.170   0.178   2.473
 4321TIP3    H112969   2.245   0.121   2.485
 4321TIP3    H212970   2.163   0.190   2.378
 4322TIP3   OH212971   6.176   3.841   1.322
 4322TIP3    H112972   6.167   3.918   1.267
 4322TIP3    H212973   6.246   3.862   1.383
 4323TIP3   OH212974   2.088   3.789   2.195
 4323TIP3    H112975   2.025   3.722   2.171
 4323TIP3    H212976   2.037   3.870   2.200
 4324TIP3   OH212977   4.583   0.397   3.256
 4324TIP3    H112978   4.553   0.383   3.346
 4324TIP3    H212979   4.559   0.316   3.210
 4325TIP3   OH212980   1.459   4.789   3.369
 4325TIP3    H112981   1.512   4.845   3.425
 4325TIP3    H212982   1.440   4.844   3.292
 4326TIP3   OH212983   1.430   4.724   0.475
 4326TIP3    H112984   1.364   4.672   0.521
 4326TIP3    H212985   1.382   4.799   0.442
 4327TIP3   OH212986   2.539   2.325   1.966
 4327TIP3    H112987   2.516   2.236   1.939
 4327TIP3    H212988   2.600   2.312   2.038
 4328TIP3   OH212989   2.168   1.119   0.463
 4328TIP3    H112990   2.120   1.037   0.449
 4328TIP3    H212991   2.224   1.102   0.539
 4329TIP3   OH212992   4.860   2.095   2.835
 4329TIP3    H112993   4.850   2.015   2.783
 4329TIP3    H212994   4.873   2.165   2.770
 4330TIP3   OH212995   3.801   1.614   2.797
 4330TIP3    H112996   3.808   1.613   2.893
 4330TIP3    H212997   3.829   1.526   2.771
 4331TIP3   OH212998   0.206   1.401   1.256
 4331TIP3    H112999   0.172   1.460   1.189
 4331TIP3    H213000   0.245   1.329   1.206
 4332TIP3   OH213001   4.654   5.752   4.813
 4332TIP3    H113002   4.717   5.802   4.864
 4332TIP3    H213003   4.646   5.802   4.731
 4333TIP3   OH213004   5.005   2.302   2.071
 4333TIP3    H113005   5.098   2.319   2.056
 4333TIP3    H213006   4.984   2.232   2.010
 4334TIP3   OH213007   3.630   5.424   1.353
 4334TIP3    H113008   3.561   5.358   1.357
 4334TIP3    H213009   3.587   5.505   1.382
 4335TIP3   OH213010   4.952   2.239   2.611
 4335TIP3    H113011   4.969   2.304   2.542
 4335TIP3    H213012   4.952   2.155   2.565
 4336TIP3   OH213013   3.117   3.784   2.499
 4336TIP3    H113014   3.161   3.831   2.428
 4336TIP3    H213015   3.042   3.839   2.521
 4337TIP3   OH213016   5.283   5.251   2.379
 4337TIP3    H113017   5.289   5.345   2.398
 4337TIP3    H213018   5.190   5.232   2.375
 4338TIP3   OH213019   2.268   1.369  -0.017
 4338TIP3    H113020   2.253   1.333   0.070
 4338TIP3    H213021   2.213   1.447  -0.021
 4339TIP3   OH213022   6.152   1.459   4.101
 4339TIP3    H113023   6.147   1.418   4.015
 4339TIP3    H213024   6.198   1.395   4.155
 4340TIP3   OH213025   3.625   0.993   1.482
 4340TIP3    H113026   3.569   1.052   1.531
 4340TIP3    H213027   3.619   0.910   1.529
 4341TIP3   OH213028   4.502   2.654   4.852
 4341TIP3    H113029   4.535   2.576   4.897
 4341TIP3    H213030   4.534   2.727   4.904
 4342TIP3   OH213031   2.041   1.916   2.457
 4342TIP3    H113032   1.999   1.905   2.542
 4342TIP3    H213033   2.120   1.967   2.475
 4343TIP3   OH213034   5.962   5.001   4.209
 4343TIP3    H113035   5.921   5.018   4.294
 4343TIP3    H213036   5.945   4.908   4.193
 4344TIP3   OH213037   4.980   5.246   4.130
 4344TIP3    H113038   4.938   5.169   4.092
 4344TIP3    H213039   5.063   5.214   4.165
 4345TIP3   OH213040   5.275   4.883   0.593
 4345TIP3    H113041   5.268   4.822   0.667
 4345TIP3    H213042   5.250   4.968   0.629
 4346TIP3   OH213043   2.631   0.241   1.241
 4346TIP3    H113044   2.668   0.203   1.161
 4346TIP3    H213045   2.616   0.333   1.219
 4347TIP3   OH213046   6.314   1.931   2.476
 4347TIP3    H113047   6.386   1.981   2.439
 4347TIP3    H213048   6.244   1.938   2.411
 4348TIP3   OH213049   5.405   0.470   3.227
 4348TIP3    H113050   5.493   0.492   3.197
 4348TIP3    H213051   5.383   0.539   3.290
 4349TIP3   OH213052   4.165   2.745   0.370
 4349TIP3    H113053   4.160   2.818   0.431
 4349TIP3    H213054   4.192   2.670   0.424
 4350TIP3   OH213055   5.117   5.856   1.788
 4350TIP3    H113056   5.113   5.951   1.799
 4350TIP3    H213057   5.207   5.839   1.762
 4351TIP3   OH213058   4.234   5.179   1.133
 4351TIP3    H113059   4.256   5.117   1.203
 4351TIP3    H213060   4.163   5.232   1.170
 4352TIP3   OH213061   2.751   3.341   1.104
 4352TIP3    H113062   2.666   3.361   1.066
 4352TIP3    H213063   2.782   3.265   1.055
 4353TIP3   OH213064   5.535   5.938   3.668
 4353TIP3    H113065   5.597   6.001   3.632
 4353TIP3    H213066   5.491   5.985   3.739
 4354TIP3   OH213067   3.501   0.885   2.826
 4354TIP3    H113068   3.489   0.970   2.783
 4354TIP3    H213069   3.475   0.900   2.917
 4355TIP3   OH213070   1.248   2.557   2.032
 4355TIP3    H113071   1.293   2.625   1.982
 4355TIP3    H213072   1.156   2.583   2.031
 4356TIP3   OH213073   6.313   0.391   0.585
 4356TIP3    H113074   6.230   0.367   0.545
 4356TIP3    H213075   6.299   0.378   0.679
 4357TIP3   OH213076   0.317   3.683   1.357
 4357TIP3    H113077   0.279   3.656   1.273
 4357TIP3    H213078   0.333   3.777   1.347
 4358TIP3   OH213079   0.417   4.054   4.398
 4358TIP3    H113080   0.495   4.003   4.422
 4358TIP3    H213081   0.379   4.006   4.324
 4359TIP3   OH213082   5.844   2.019   4.185
 4359TIP3    H113083   5.883   2.051   4.104
 4359TIP3    H213084   5.901   1.947   4.212
 4360TIP3   OH213085   5.670   3.639   3.587
 4360TIP3    H113086   5.734   3.688   3.638
 4360TIP3    H213087   5.596   3.699   3.577
 4361TIP3   OH213088   0.666   4.907   2.849
 4361TIP3    H113089   0.691   4.849   2.921
 4361TIP3    H213090   0.647   4.847   2.776
 4362TIP3   OH213091   1.024   0.642   2.374
 4362TIP3    H113092   1.094   0.608   2.429
 4362TIP3    H213093   1.069   0.687   2.302
 4363TIP3   OH213094   4.642   3.343   4.215
 4363TIP3    H113095   4.665   3.393   4.137
 4363TIP3    H213096   4.566   3.389   4.251
 4364TIP3   OH213097   3.051   1.196   2.422
 4364TIP3    H113098   2.982   1.137   2.391
 4364TIP3    H213099   3.029   1.214   2.513
 4365TIP3   OH213100   6.135   4.563   2.022
 4365TIP3    H113101   6.130   4.468   2.010
 4365TIP3    H213102   6.181   4.594   1.944
 4366TIP3   OH213103   2.334   3.055   3.582
 4366TIP3    H113104   2.391   3.129   3.563
 4366TIP3    H213105   2.346   3.038   3.675
 4367TIP3   OH213106   0.564   1.554   4.173
 4367TIP3    H113107   0.646   1.564   4.125
 4367TIP3    H213108   0.562   1.627   4.234
 4368TIP3   OH213109   6.069   5.453   4.055
 4368TIP3    H113110   6.154   5.495   4.068
 4368TIP3    H213111   6.070   5.425   3.964
 4369TIP3   OH213112   3.735   5.482   3.936
 4369TIP3    H113113   3.677   5.479   4.012
 4369TIP3    H213114   3.731   5.573   3.906
 4370TIP3   OH213115   1.685   6.004   3.470
 4370TIP3    H113116   1.775   5.974   3.485
 4370TIP3    H213117   1.638   5.925   3.442
 4371TIP3   OH213118   0.750   2.897   4.068
 4371TIP3    H113119   0.735   2.851   4.150
 4371TIP3    H213120   0.725   2.835   4.000
 4372TIP3   OH213121   6.306   4.406   0.314
 4372TIP3    H113122   6.248   4.479   0.291
 4372TIP3    H213123   6.388   4.426   0.269
 4373TIP3   OH213124   5.233   3.959   3.077
 4373TIP3    H113125   5.265   3.868   3.081
 4373TIP3    H213126   5.160   3.956   3.015
 4374TIP3   OH213127   4.433   3.470   4.344
 4374TIP3    H113128   4.416   3.494   4.435
 4374TIP3    H213129   4.347   3.450   4.308
 4375TIP3   OH213130   4.036   4.701   2.579
 4375TIP3    H113131   3.942   4.684   2.575
 4375TIP3    H213132   4.076   4.615   2.581
 4376TIP3   OH213133   0.414   0.395   2.418
 4376TIP3    H113134   0.480   0.459   2.445
 4376TIP3    H213135   0.408   0.406   2.323
 4377TIP3   OH213136   0.329   3.316   1.204
 4377TIP3    H113137   0.380   3.367   1.268
 4377TIP3    H213138   0.307   3.235   1.251
 4378TIP3   OH213139   4.868   3.648   2.160
 4378TIP3    H113140   4.837   3.572   2.110
 4378TIP3    H213141   4.791   3.678   2.209
 4379TIP3   OH213142   5.269   0.867   0.006
 4379TIP3    H113143   5.364   0.878   0.014
 4379TIP3    H213144   5.238   0.855   0.095
 4380TIP3   OH213145   4.674   5.102   3.719
 4380TIP3    H113146   4.600   5.064   3.766
 4380TIP3    H213147   4.636   5.135   3.637
 4381TIP3   OH213148   5.011   1.228   1.659
 4381TIP3    H113149   5.025   1.145   1.613
 4381TIP3    H213150   4.926   1.216   1.703
 4382TIP3   OH213151   4.964   3.617   3.443
 4382TIP3    H113152   4.974   3.706   3.477
 4382TIP3    H213153   4.971   3.560   3.520
 4383TIP3   OH213154   0.575   5.885   0.330
 4383TIP3    H113155   0.538   5.896   0.418
 4383TIP3    H213156   0.668   5.866   0.345
 4384TIP3   OH213157   4.653   0.231   1.748
 4384TIP3    H113158   4.714   0.298   1.777
 4384TIP3    H213159   4.643   0.173   1.824
 4385TIP3   OH213160   3.872   3.110   3.688
 4385TIP3    H113161   3.860   3.100   3.782
 4385TIP3    H213162   3.910   3.198   3.678
 4386TIP3   OH213163   0.253   5.809   4.214
 4386TIP3    H113164   0.277   5.803   4.306
 4386TIP3    H213165   0.179   5.870   4.213
 4387TIP3   OH213166   5.499   5.529   2.780
 4387TIP3    H113167   5.549   5.593   2.831
 4387TIP3    H213168   5.428   5.580   2.740
 4388TIP3   OH213169   1.983   1.943   4.867
 4388TIP3    H113170   2.006   1.874   4.930
 4388TIP3    H213171   2.056   2.005   4.870
 4389TIP3   OH213172   2.968   5.264   1.529
 4389TIP3    H113173   2.915   5.210   1.588
 4389TIP3    H213174   2.913   5.340   1.511
 4390TIP3   OH213175   3.636   3.930   1.486
 4390TIP3    H113176   3.562   3.869   1.476
 4390TIP3    H213177   3.697   3.905   1.417
 4391TIP3   OH213178   2.921   1.148   1.996
 4391TIP3    H113179   2.979   1.072   1.994
 4391TIP3    H213180   2.979   1.222   2.017
 4392TIP3   OH213181   6.326   5.621   3.533
 4392TIP3    H113182   6.232   5.605   3.524
 4392TIP3    H213183   6.333   5.691   3.598
 4393TIP3   OH213184   0.599   4.562   0.880
 4393TIP3    H113185   0.509   4.531   0.884
 4393TIP3    H213186   0.623   4.581   0.971
 4394TIP3   OH213187   2.866   1.543   1.368
 4394TIP3    H113188   2.960   1.561   1.359
 4394TIP3    H213189   2.845   1.489   1.291
 4395TIP3   OH213190   0.157   4.982   1.255
 4395TIP3    H113191   0.228   5.045   1.249
 4395TIP3    H213192   0.100   5.003   1.181
 4396TIP3   OH213193   6.104   4.269   1.977
 4396TIP3    H113194   6.186   4.227   1.952
 4396TIP3    H213195   6.060   4.287   1.894
 4397TIP3   OH213196   5.018   2.103   3.559
 4397TIP3    H113197   4.985   2.021   3.594
 4397TIP3    H213198   5.105   2.082   3.526
 4398TIP3   OH213199   6.379   1.337   2.684
 4398TIP3    H113200   6.294   1.320   2.644
 4398TIP3    H213201   6.359   1.363   2.774
 4399TIP3   OH213202   0.774   4.934   3.231
 4399TIP3    H113203   0.802   5.014   3.186
 4399TIP3    H213204   0.688   4.957   3.268
 4400TIP3   OH213205   5.851   4.085   1.202
 4400TIP3    H113206   5.915   4.032   1.250
 4400TIP3    H213207   5.899   4.117   1.125
 4401TIP3   OH213208   4.717   3.041   1.966
 4401TIP3    H113209   4.758   2.992   2.037
 4401TIP3    H213210   4.672   2.975   1.914
 4402TIP3   OH213211   3.430   5.261   1.867
 4402TIP3    H113212   3.404   5.169   1.859
 4402TIP3    H213213   3.525   5.259   1.867
 4403TIP3   OH213214   1.680   3.864   1.428
 4403TIP3    H113215   1.709   3.799   1.492
 4403TIP3    H213216   1.650   3.938   1.480
 4404TIP3   OH213217   0.537   0.400   5.150
 4404TIP3    H113218   0.515   0.422   5.241
 4404TIP3    H213219   0.486   0.463   5.098
 4405TIP3   OH213220   2.975   3.196   5.081
 4405TIP3    H113221   3.048   3.247   5.117
 4405TIP3    H213222   2.927   3.257   5.025
 4406TIP3   OH213223   0.935   2.126   3.100
 4406TIP3    H113224   0.948   2.189   3.171
 4406TIP3    H213225   0.843   2.138   3.074
 4407TIP3   OH213226   2.069   0.237   1.024
 4407TIP3    H113227   2.147   0.272   0.980
 4407TIP3    H213228   1.995   0.267   0.972
 4408TIP3   OH213229   4.709   0.506   0.333
 4408TIP3    H113230   4.762   0.571   0.379
 4408TIP3    H213231   4.619   0.535   0.345
 4409TIP3   OH213232   5.940   5.417   0.170
 4409TIP3    H113233   5.909   5.389   0.084
 4409TIP3    H213234   5.873   5.385   0.231
 4410TIP3   OH213235   2.277   5.764   3.022
 4410TIP3    H113236   2.244   5.812   2.945
 4410TIP3    H213237   2.348   5.711   2.988
 4411TIP3   OH213238   1.364   3.409   1.387
 4411TIP3    H113239   1.284   3.459   1.373
 4411TIP3    H213240   1.356   3.334   1.328
 4412TIP3   OH213241   3.815   0.355   4.806
 4412TIP3    H113242   3.806   0.399   4.721
 4412TIP3    H213243   3.835   0.264   4.785
 4413TIP3   OH213244   1.067   3.945   4.210
 4413TIP3    H113245   1.132   3.976   4.146
 4413TIP3    H213246   1.021   4.024   4.238
 4414TIP3   OH213247   2.650   2.306   0.289
 4414TIP3    H113248   2.582   2.370   0.309
 4414TIP3    H213249   2.668   2.319   0.196
 4415TIP3   OH213250   5.550   4.926   3.915
 4415TIP3    H113251   5.468   4.942   3.871
 4415TIP3    H213252   5.525   4.889   4.000
 4416TIP3   OH213253   0.175   5.503   0.076
 4416TIP3    H113254   0.086   5.475   0.097
 4416TIP3    H213255   0.168   5.598   0.064
 4417TIP3   OH213256   3.177   4.932   1.728
 4417TIP3    H113257   3.121   4.855   1.722
 4417TIP3    H213258   3.183   4.964   1.638
 4418TIP3   OH213259   1.600   1.466   0.169
 4418TIP3    H113260   1.603   1.558   0.141
 4418TIP3    H213261   1.689   1.447   0.197
 4419TIP3   OH213262   3.680   0.980   4.397
 4419TIP3    H113263   3.627   0.945   4.325
 4419TIP3    H213264   3.743   1.039   4.355
 4420TIP3   OH213265   0.017   5.657   3.004
 4420TIP3    H113266   0.068   5.575   3.009
 4420TIP3    H213267  -0.018   5.659   2.915
 4421TIP3   OH213268   6.017   1.073   4.542
 4421TIP3    H113269   6.016   1.091   4.448
 4421TIP3    H213270   6.038   0.980   4.549
 4422TIP3   OH213271   5.954   1.536   3.069
 4422TIP3    H113272   5.992   1.522   2.982
 4422TIP3    H213273   5.959   1.451   3.111
 4423TIP3   OH213274   0.862   2.693   4.776
 4423TIP3    H113275   0.952   2.662   4.768
 4423TIP3    H213276   0.870   2.788   4.785
 4424TIP3   OH213277   2.171   5.356   2.714
 4424TIP3    H113278   2.182   5.442   2.673
 4424TIP3    H213279   2.170   5.374   2.808
 4425TIP3   OH213280   4.370   3.993   0.090
 4425TIP3    H113281   4.448   3.969   0.140
 4425TIP3    H213282   4.327   3.910   0.070
 4426TIP3   OH213283   5.837   2.360   2.531
 4426TIP3    H113284   5.906   2.412   2.489
 4426TIP3    H213285   5.882   2.284   2.566
 4427TIP3   OH213286   5.526   4.554   3.810
 4427TIP3    H113287   5.443   4.590   3.840
 4427TIP3    H213288   5.554   4.613   3.740
 4428TIP3   OH213289   0.636   3.535   5.038
 4428TIP3    H113290   0.591   3.463   4.994
 4428TIP3    H213291   0.726   3.531   5.004
 4429TIP3   OH213292   5.761   3.157   4.717
 4429TIP3    H113293   5.673   3.184   4.742
 4429TIP3    H213294   5.748   3.076   4.667
 4430TIP3   OH213295   1.360   4.685   3.924
 4430TIP3    H113296   1.429   4.624   3.900
 4430TIP3    H213297   1.388   4.721   4.008
 4431TIP3   OH213298   3.126   1.559   1.333
 4431TIP3    H113299   3.144   1.466   1.317
 4431TIP3    H213300   3.199   1.605   1.290
 4432TIP3   OH213301   3.657   1.615   2.217
 4432TIP3    H113302   3.621   1.642   2.133
 4432TIP3    H213303   3.726   1.679   2.236
 4433TIP3   OH213304   0.599   2.387   1.690
 4433TIP3    H113305   0.510   2.379   1.724
 4433TIP3    H213306   0.619   2.480   1.695
 4434TIP3   OH213307   5.147   2.446   4.498
 4434TIP3    H113308   5.077   2.417   4.440
 4434TIP3    H213309   5.129   2.538   4.514
 4435TIP3   OH213310   5.240   1.097   1.148
 4435TIP3    H113311   5.289   1.162   1.098
 4435TIP3    H213312   5.259   1.014   1.103
 4436TIP3   OH213313   6.278   3.801   0.214
 4436TIP3    H113314   6.240   3.729   0.163
 4436TIP3    H213315   6.202   3.847   0.250
 4437TIP3   OH213316   0.787   4.109   3.698
 4437TIP3    H113317   0.850   4.089   3.629
 4437TIP3    H213318   0.785   4.204   3.703
 4438TIP3   OH213319   0.673   5.205   1.954
 4438TIP3    H113320   0.611   5.132   1.944
 4438TIP3    H213321   0.633   5.261   2.021
 4439TIP3   OH213322   1.669   3.609   0.147
 4439TIP3    H113323   1.735   3.675   0.169
 4439TIP3    H213324   1.611   3.653   0.085
 4440TIP3   OH213325   0.951   5.949   4.026
 4440TIP3    H113326   1.004   5.967   3.948
 4440TIP3    H213327   0.899   6.029   4.039
 4441TIP3   OH213328   3.279   3.641   2.938
 4441TIP3    H113329   3.255   3.605   2.853
 4441TIP3    H213330   3.324   3.723   2.917
 4442TIP3   OH213331   3.558   0.670   3.098
 4442TIP3    H113332   3.576   0.586   3.141
 4442TIP3    H213333   3.477   0.655   3.049
 4443TIP3   OH213334   2.305   3.245   4.613
 4443TIP3    H113335   2.315   3.298   4.534
 4443TIP3    H213336   2.395   3.236   4.647
 4444TIP3   OH213337   3.638   3.556   4.220
 4444TIP3    H113338   3.620   3.554   4.314
 4444TIP3    H213339   3.641   3.649   4.198
 4445TIP3   OH213340   4.151   0.572   4.851
 4445TIP3    H113341   4.176   0.647   4.905
 4445TIP3    H213342   4.199   0.498   4.888
 4446TIP3   OH213343   5.169   4.600   2.226
 4446TIP3    H113344   5.100   4.630   2.285
 4446TIP3    H213345   5.248   4.643   2.257
 4447TIP3   OH213346   3.574   5.710   0.299
 4447TIP3    H113347   3.492   5.731   0.254
 4447TIP3    H213348   3.627   5.790   0.292
 4448TIP3   OH213349   1.464   2.090   3.191
 4448TIP3    H113350   1.502   2.030   3.256
 4448TIP3    H213351   1.393   2.041   3.151
 4449TIP3   OH213352   0.675   1.079   2.842
 4449TIP3    H113353   0.736   1.073   2.769
 4449TIP3    H213354   0.697   1.161   2.886
 4450TIP3   OH213355   2.286   4.959   2.598
 4450TIP3    H113356   2.287   4.922   2.510
 4450TIP3    H213357   2.360   5.019   2.600
 4451TIP3   OH213358   5.978   2.977   3.378
 4451TIP3    H113359   6.036   2.987   3.302
 4451TIP3    H213360   5.907   2.921   3.346
 4452TIP3   OH213361   0.564   4.621   3.728
 4452TIP3    H113362   0.659   4.634   3.732
 4452TIP3    H213363   0.542   4.578   3.812
 4453TIP3   OH213364   4.876   3.912   0.250
 4453TIP3    H113365   4.907   3.898   0.339
 4453TIP3    H213366   4.899   4.003   0.230
 4454TIP3   OH213367   4.418   3.675   1.026
 4454TIP3    H113368   4.428   3.598   0.969
 4454TIP3    H213369   4.376   3.641   1.105
 4455TIP3   OH213370   5.914   0.880   2.151
 4455TIP3    H113371   5.955   0.814   2.207
 4455TIP3    H213372   5.935   0.851   2.062
 4456TIP3   OH213373   5.593   5.740   1.964
 4456TIP3    H113374   5.538   5.808   1.925
 4456TIP3    H213375   5.584   5.665   1.906
 4457TIP3   OH213376   0.600   1.290   0.027
 4457TIP3    H113377   0.515   1.257  -0.004
 4457TIP3    H213378   0.578   1.352   0.096
 4458TIP3   OH213379   3.423   0.414   1.860
 4458TIP3    H113380   3.473   0.391   1.781
 4458TIP3    H213381   3.335   0.431   1.828
 4459TIP3   OH213382   5.467   3.847   4.596
 4459TIP3    H113383   5.413   3.769   4.614
 4459TIP3    H213384   5.501   3.872   4.681
 4460TIP3   OH213385   2.543   5.335   2.427
 4460TIP3    H113386   2.500   5.288   2.498
 4460TIP3    H213387   2.626   5.289   2.414
 4461TIP3   OH213388   1.257   2.465   3.387
 4461TIP3    H113389   1.279   2.526   3.316
 4461TIP3    H213390   1.342   2.430   3.416
 4462TIP3   OH213391   1.949   5.629   5.026
 4462TIP3    H113392   1.960   5.721   5.051
 4462TIP3    H213393   1.866   5.627   4.978
 4463TIP3   OH213394   2.490   5.403   3.605
 4463TIP3    H113395   2.496   5.380   3.697
 4463TIP3    H213396   2.487   5.499   3.604
 4464TIP3   OH213397   1.074   0.039   0.595
 4464TIP3    H113398   1.024  -0.040   0.573
 4464TIP3    H213399   1.130   0.013   0.667
 4465TIP3   OH213400   2.842   5.369   4.765
 4465TIP3    H113401   2.903   5.320   4.820
 4465TIP3    H213402   2.790   5.421   4.826
 4466TIP3   OH213403   4.219   0.757   5.028
 4466TIP3    H113404   4.284   0.790   5.091
 4466TIP3    H213405   4.168   0.834   5.004
 4467TIP3   OH213406   0.391   1.113   5.155
 4467TIP3    H113407   0.466   1.171   5.141
 4467TIP3    H213408   0.316   1.162   5.121
 4468TIP3   OH213409   2.537   0.116   4.205
 4468TIP3    H113410   2.442   0.117   4.194
 4468TIP3    H213411   2.561   0.208   4.211
 4469TIP3   OH213412   2.884   0.762   4.009
 4469TIP3    H113413   2.927   0.837   4.051
 4469TIP3    H213414   2.936   0.746   3.930
 4470TIP3   OH213415   6.259   1.068   0.679
 4470TIP3    H113416   6.339   1.016   0.690
 4470TIP3    H213417   6.286   1.158   0.697
 4471TIP3   OH213418   2.410   3.683   3.422
 4471TIP3    H113419   2.436   3.619   3.355
 4471TIP3    H213420   2.330   3.646   3.460
 4472TIP3   OH213421   6.068   1.567   0.921
 4472TIP3    H113422   6.149   1.604   0.957
 4472TIP3    H213423   6.082   1.473   0.924
 4473TIP3   OH213424   1.787   3.849   0.217
 4473TIP3    H113425   1.722   3.916   0.239
 4473TIP3    H213426   1.829   3.882   0.138
 4474TIP3   OH213427   2.975   4.515   1.273
 4474TIP3    H113428   2.907   4.568   1.231
 4474TIP3    H213429   2.933   4.480   1.352
 4475TIP3   OH213430   4.664   2.470   4.152
 4475TIP3    H113431   4.754   2.442   4.169
 4475TIP3    H213432   4.651   2.546   4.209
 4476TIP3   OH213433   5.900   4.467   4.680
 4476TIP3    H113434   5.863   4.554   4.665
 4476TIP3    H213435   5.883   4.420   4.598
 4477TIP3   OH213436   3.025   4.779   0.359
 4477TIP3    H113437   2.971   4.734   0.294
 4477TIP3    H213438   2.962   4.821   0.418
 4478TIP3   OH213439   1.405   3.903   2.213
 4478TIP3    H113440   1.368   3.844   2.147
 4478TIP3    H213441   1.425   3.983   2.165
 4479TIP3   OH213442   5.482   4.676   5.055
 4479TIP3    H113443   5.462   4.756   5.007
 4479TIP3    H213444   5.557   4.638   5.008
 4480TIP3   OH213445   0.303   5.450   4.356
 4480TIP3    H113446   0.232   5.506   4.326
 4480TIP3    H213447   0.304   5.377   4.294
 4481TIP3   OH213448   3.251   2.062   4.748
 4481TIP3    H113449   3.164   2.027   4.767
 4481TIP3    H213450   3.237   2.121   4.674
 4482TIP3   OH213451   0.754   0.339   4.602
 4482TIP3    H113452   0.836   0.388   4.614
 4482TIP3    H213453   0.781   0.247   4.601
 4483TIP3   OH213454   4.383   3.067   0.798
 4483TIP3    H113455   4.464   3.040   0.841
 4483TIP3    H213456   4.386   3.163   0.800
 4484TIP3   OH213457   4.871   4.507   4.763
 4484TIP3    H113458   4.962   4.500   4.734
 4484TIP3    H213459   4.836   4.581   4.714
 4485TIP3   OH213460   6.115   5.382   2.665
 4485TIP3    H113461   6.170   5.308   2.639
 4485TIP3    H213462   6.097   5.428   2.583
 4486TIP3   OH213463   5.781   3.622   4.731
 4486TIP3    H113464   5.717   3.579   4.788
 4486TIP3    H213465   5.835   3.550   4.698
 4487TIP3   OH213466   3.525   2.800   2.301
 4487TIP3    H113467   3.473   2.756   2.234
 4487TIP3    H213468   3.614   2.768   2.288
 4488TIP3   OH213469   6.195   2.976   4.193
 4488TIP3    H113470   6.198   2.996   4.286
 4488TIP3    H213471   6.166   3.057   4.152
 4489TIP3   OH213472   3.635   2.925   4.283
 4489TIP3    H113473   3.592   2.852   4.238
 4489TIP3    H213474   3.690   2.884   4.349
 4490TIP3   OH213475   4.359   4.586   1.204
 4490TIP3    H113476   4.282   4.588   1.260
 4490TIP3    H213477   4.329   4.619   1.120
 4491TIP3   OH213478   1.535   3.520   1.202
 4491TIP3    H113479   1.487   3.586   1.152
 4491TIP3    H213480   1.469   3.480   1.259
 4492TIP3   OH213481   3.345   1.235   0.092
 4492TIP3    H113482   3.268   1.261   0.042
 4492TIP3    H213483   3.335   1.277   0.177
 4493TIP3   OH213484   4.942   0.433   2.489
 4493TIP3    H113485   4.914   0.416   2.579
 4493TIP3    H213486   4.976   0.522   2.491
 4494TIP3   OH213487   0.936   1.008   0.259
 4494TIP3    H113488   1.024   0.974   0.267
 4494TIP3    H213489   0.932   1.079   0.324
 4495TIP3   OH213490   1.188   0.289   1.712
 4495TIP3    H113491   1.240   0.250   1.641
 4495TIP3    H213492   1.242   0.361   1.744
 4496TIP3   OH213493   2.527   5.797   1.607
 4496TIP3    H113494   2.508   5.834   1.694
 4496TIP3    H213495   2.613   5.832   1.584
 4497TIP3   OH213496   4.758   0.379   3.523
 4497TIP3    H113497   4.774   0.454   3.465
 4497TIP3    H213498   4.664   0.382   3.541
 4498TIP3   OH213499   6.084   3.200   2.473
 4498TIP3    H113500   6.077   3.260   2.548
 4498TIP3    H213501   6.179   3.186   2.463
 4499TIP3   OH213502   6.073   0.347   0.531
 4499TIP3    H113503   6.066   0.442   0.535
 4499TIP3    H213504   6.020   0.321   0.456
 4500TIP3   OH213505   4.214   5.734   2.057
 4500TIP3    H113506   4.305   5.707   2.068
 4500TIP3    H213507   4.171   5.657   2.019
 4501TIP3   OH213508   2.690   2.761   1.019
 4501TIP3    H113509   2.711   2.854   1.017
 4501TIP3    H213510   2.652   2.746   1.105
 4502TIP3   OH213511   2.809   3.358   4.915
 4502TIP3    H113512   2.811   3.433   4.855
 4502TIP3    H213513   2.727   3.369   4.964
 4503TIP3   OH213514   6.213   0.846   0.321
 4503TIP3    H113515   6.212   0.763   0.274
 4503TIP3    H213516   6.120   0.870   0.328
 4504TIP3   OH213517   5.819   1.075   1.942
 4504TIP3    H113518   5.896   1.018   1.941
 4504TIP3    H213519   5.798   1.088   1.849
 4505TIP3   OH213520   0.513   5.574   1.802
 4505TIP3    H113521   0.578   5.521   1.756
 4505TIP3    H213522   0.564   5.641   1.847
 4506TIP3   OH213523   4.644   4.690   0.276
 4506TIP3    H113524   4.650   4.768   0.330
 4506TIP3    H213525   4.701   4.708   0.201
 4507TIP3   OH213526   0.217   3.235   3.466
 4507TIP3    H113527   0.208   3.307   3.403
 4507TIP3    H213528   0.302   3.197   3.447
 4508TIP3   OH213529   1.691   2.697   4.870
 4508TIP3    H113530   1.629   2.640   4.914
 4508TIP3    H213531   1.737   2.742   4.941
 4509TIP3   OH213532   2.065   1.247   3.116
 4509TIP3    H113533   2.008   1.315   3.153
 4509TIP3    H213534   2.090   1.280   3.030
 4510TIP3   OH213535   2.735   1.605   2.408
 4510TIP3    H113536   2.669   1.672   2.393
 4510TIP3    H213537   2.787   1.638   2.481
 4511TIP3   OH213538   4.957   0.523   3.747
 4511TIP3    H113539   5.010   0.458   3.700
 4511TIP3    H213540   4.965   0.498   3.839
 4512TIP3   OH213541   0.347   3.693   2.710
 4512TIP3    H113542   0.309   3.728   2.791
 4512TIP3    H213543   0.279   3.706   2.644
 4513TIP3   OH213544   0.433   2.189   1.119
 4513TIP3    H113545   0.522   2.205   1.151
 4513TIP3    H213546   0.391   2.275   1.121
 4514TIP3   OH213547   5.051   2.408   1.792
 4514TIP3    H113548   4.992   2.480   1.817
 4514TIP3    H213549   5.114   2.403   1.864
 4515TIP3   OH213550   2.611   2.854   1.665
 4515TIP3    H113551   2.630   2.855   1.572
 4515TIP3    H213552   2.515   2.854   1.670
 4516TIP3   OH213553   3.834   2.266   1.687
 4516TIP3    H113554   3.879   2.182   1.682
 4516TIP3    H213555   3.819   2.280   1.780
 4517TIP3   OH213556   4.955   3.016   2.720
 4517TIP3    H113557   4.928   3.024   2.812
 4517TIP3    H213558   4.894   3.072   2.672
 4518TIP3   OH213559   0.066   0.519   4.852
 4518TIP3    H113560   0.096   0.584   4.788
 4518TIP3    H213561  -0.021   0.550   4.878
 4519TIP3   OH213562   4.736   2.881   3.593
 4519TIP3    H113563   4.801   2.944   3.625
 4519TIP3    H213564   4.656   2.902   3.641
 4520TIP3   OH213565   4.795   0.467   1.823
 4520TIP3    H113566   4.724   0.529   1.809
 4520TIP3    H213567   4.825   0.484   1.912
 4521TIP3   OH213568   2.261   3.799   5.018
 4521TIP3    H113569   2.286   3.755   4.937
 4521TIP3    H213570   2.314   3.878   5.021
 4522TIP3   OH213571   3.446   1.351   2.488
 4522TIP3    H113572   3.361   1.369   2.529
 4522TIP3    H213573   3.424   1.317   2.402
 4523TIP3   OH213574   5.627   2.962   1.876
 4523TIP3    H113575   5.589   2.881   1.841
 4523TIP3    H213576   5.553   3.023   1.879
 4524TIP3   OH213577   4.102   4.201   1.804
 4524TIP3    H113578   4.069   4.136   1.867
 4524TIP3    H213579   4.146   4.149   1.737
 4525TIP3   OH213580   2.415   0.797   0.229
 4525TIP3    H113581   2.472   0.874   0.231
 4525TIP3    H213582   2.419   0.762   0.317
 4526TIP3   OH213583   3.235   3.778   3.632
 4526TIP3    H113584   3.190   3.835   3.570
 4526TIP3    H213585   3.271   3.838   3.697
 4527TIP3   OH213586   2.960   0.875   5.049
 4527TIP3    H113587   2.964   0.834   4.963
 4527TIP3    H213588   3.048   0.910   5.063
 4528TIP3   OH213589   3.239   0.399   1.168
 4528TIP3    H113590   3.277   0.349   1.240
 4528TIP3    H213591   3.175   0.456   1.210
 4529TIP3   OH213592   0.080   5.488   1.985
 4529TIP3    H113593   0.171   5.458   1.982
 4529TIP3    H213594   0.086   5.583   1.977
 4530TIP3   OH213595   2.822   3.636   0.191
 4530TIP3    H113596   2.809   3.551   0.233
 4530TIP3    H213597   2.767   3.696   0.241
 4531TIP3   OH213598   3.040   2.960   4.014
 4531TIP3    H113599   3.097   3.036   4.004
 4531TIP3    H213600   3.021   2.931   3.925
 4532TIP3   OH213601   4.709   2.713   1.515
 4532TIP3    H113602   4.699   2.695   1.421
 4532TIP3    H213603   4.757   2.638   1.549
 4533TIP3   OH213604   2.349   4.634   0.677
 4533TIP3    H113605   2.395   4.585   0.746
 4533TIP3    H213606   2.355   4.725   0.705
 4534TIP3   OH213607   4.722   0.304   2.313
 4534TIP3    H113608   4.724   0.395   2.341
 4534TIP3    H213609   4.713   0.254   2.394
 4535TIP3   OH213610   2.084   3.393   3.690
 4535TIP3    H113611   1.995   3.390   3.655
 4535TIP3    H213612   2.098   3.306   3.728
 4536TIP3   OH213613   2.579   1.001   0.153
 4536TIP3    H113614   2.661   1.032   0.114
 4536TIP3    H213615   2.515   1.006   0.082
 4537TIP3   OH213616   0.535   1.201   3.625
 4537TIP3    H113617   0.510   1.286   3.589
 4537TIP3    H213618   0.483   1.137   3.576
 4538TIP3   OH213619   2.627   4.637   0.460
 4538TIP3    H113620   2.559   4.607   0.520
 4538TIP3    H213621   2.707   4.637   0.512
 4539TIP3   OH213622   4.854   1.973   1.568
 4539TIP3    H113623   4.856   2.058   1.611
 4539TIP3    H213624   4.819   1.991   1.480
 4540TIP3   OH213625   4.121   0.496   2.301
 4540TIP3    H113626   4.118   0.582   2.344
 4540TIP3    H213627   4.120   0.517   2.208
 4541TIP3   OH213628   3.345   4.070   1.201
 4541TIP3    H113629   3.346   3.979   1.232
 4541TIP3    H213630   3.437   4.089   1.183
 4542TIP3   OH213631   5.907   4.732   3.910
 4542TIP3    H113632   5.883   4.711   4.001
 4542TIP3    H213633   5.867   4.818   3.895
 4543TIP3   OH213634   4.953   4.685   2.354
 4543TIP3    H113635   4.932   4.732   2.435
 4543TIP3    H213636   4.896   4.724   2.288
 4544TIP3   OH213637   1.197   5.529   4.325
 4544TIP3    H113638   1.186   5.572   4.410
 4544TIP3    H213639   1.191   5.435   4.345
 4545TIP3   OH213640   5.064   3.795   1.730
 4545TIP3    H113641   5.071   3.700   1.730
 4545TIP3    H213642   4.979   3.814   1.769
 4546TIP3   OH213643   0.068   1.890   4.216
 4546TIP3    H113644   0.047   1.821   4.153
 4546TIP3    H213645  -0.007   1.891   4.276
 4547TIP3   OH213646   0.995   2.074   2.525
 4547TIP3    H113647   0.911   2.092   2.483
 4547TIP3    H213648   1.057   2.064   2.453
 4548TIP3   OH213649   2.329   2.306   3.579
 4548TIP3    H113650   2.394   2.242   3.607
 4548TIP3    H213651   2.361   2.336   3.494
 4549TIP3   OH213652   3.912   2.871   1.837
 4549TIP3    H113653   3.916   2.966   1.841
 4549TIP3    H213654   3.818   2.852   1.832
 4550TIP3   OH213655   4.400   1.910   5.152
 4550TIP3    H113656   4.308   1.884   5.157
 4550TIP3    H213657   4.448   1.832   5.179
 4551TIP3   OH213658   5.029   4.989   0.939
 4551TIP3    H113659   5.123   4.980   0.959
 4551TIP3    H213660   4.985   4.949   1.014
 4552TIP3   OH213661   4.733   5.938   0.073
 4552TIP3    H113662   4.789   5.889   0.132
 4552TIP3    H213663   4.771   5.923  -0.014
 4553TIP3   OH213664   4.284   1.335   2.048
 4553TIP3    H113665   4.228   1.398   2.092
 4553TIP3    H213666   4.228   1.259   2.032
 4554TIP3   OH213667   5.625   4.054   1.082
 4554TIP3    H113668   5.603   4.144   1.060
 4554TIP3    H213669   5.709   4.060   1.128
 4555TIP3   OH213670   6.292   3.093   0.688
 4555TIP3    H113671   6.274   3.010   0.731
 4555TIP3    H213672   6.258   3.082   0.599
 4556TIP3   OH213673   5.216   3.353   5.125
 4556TIP3    H113674   5.184   3.356   5.215
 4556TIP3    H213675   5.180   3.431   5.083
 4557TIP3   OH213676   3.822   3.328   4.230
 4557TIP3    H113677   3.766   3.392   4.274
 4557TIP3    H213678   3.837   3.365   4.143
 4558TIP3   OH213679   5.230   1.759   1.399
 4558TIP3    H113680   5.297   1.784   1.464
 4558TIP3    H213681   5.186   1.683   1.438
 4559TIP3   OH213682   1.103   5.529   3.353
 4559TIP3    H113683   1.071   5.450   3.310
 4559TIP3    H213684   1.071   5.522   3.443
 4560TIP3   OH213685   1.258   0.147   4.500
 4560TIP3    H113686   1.273   0.077   4.436
 4560TIP3    H213687   1.168   0.175   4.484
 4561TIP3   OH213688   4.763   5.822   4.522
 4561TIP3    H113689   4.724   5.735   4.534
 4561TIP3    H213690   4.847   5.805   4.480
 4562TIP3   OH213691   3.188   1.730   2.533
 4562TIP3    H113692   3.207   1.799   2.597
 4562TIP3    H213693   3.233   1.653   2.568
 4563TIP3   OH213694   3.164   5.688   2.186
 4563TIP3    H113695   3.181   5.595   2.197
 4563TIP3    H213696   3.128   5.716   2.270
 4564TIP3   OH213697   1.860   3.790   3.070
 4564TIP3    H113698   1.780   3.751   3.105
 4564TIP3    H213699   1.904   3.826   3.146
 4565TIP3   OH213700   0.222   0.920   2.057
 4565TIP3    H113701   0.198   0.977   2.130
 4565TIP3    H213702   0.317   0.924   2.054
 4566TIP3   OH213703   4.160   5.794   2.320
 4566TIP3    H113704   4.192   5.751   2.241
 4566TIP3    H213705   4.155   5.886   2.297
 4567TIP3   OH213706   3.165   4.628   0.566
 4567TIP3    H113707   3.106   4.675   0.506
 4567TIP3    H213708   3.235   4.691   0.584
 4568TIP3   OH213709   2.807   1.199   1.618
 4568TIP3    H113710   2.781   1.290   1.606
 4568TIP3    H213711   2.890   1.192   1.571
 4569TIP3   OH213712   3.146   3.131   0.142
 4569TIP3    H113713   3.190   3.216   0.153
 4569TIP3    H213714   3.100   3.139   0.058
 4570TIP3   OH213715   1.556   1.093   4.964
 4570TIP3    H113716   1.627   1.040   5.001
 4570TIP3    H213717   1.476   1.052   4.997
 4571TIP3   OH213718   2.737   0.588   2.696
 4571TIP3    H113719   2.714   0.497   2.677
 4571TIP3    H213720   2.663   0.621   2.747
 4572TIP3   OH213721   0.490   0.101   2.399
 4572TIP3    H113722   0.492   0.181   2.452
 4572TIP3    H213723   0.543   0.038   2.448
 4573TIP3   OH213724   1.365   2.741   4.123
 4573TIP3    H113725   1.405   2.824   4.099
 4573TIP3    H213726   1.271   2.756   4.115
 4574TIP3   OH213727   4.303   2.104   2.604
 4574TIP3    H113728   4.348   2.188   2.598
 4574TIP3    H213729   4.364   2.041   2.566
 4575TIP3   OH213730   3.057   0.701   2.390
 4575TIP3    H113731   2.964   0.686   2.371
 4575TIP3    H213732   3.080   0.632   2.452
 4576TIP3   OH213733   2.014   3.000   4.890
 4576TIP3    H113734   2.058   2.935   4.835
 4576TIP3    H213735   2.084   3.037   4.944
 4577TIP3   OH213736   5.638   5.665   2.229
 4577TIP3    H113737   5.587   5.695   2.154
 4577TIP3    H213738   5.705   5.733   2.242
 4578TIP3   OH213739   1.295   1.508   5.095
 4578TIP3    H113740   1.273   1.517   5.188
 4578TIP3    H213741   1.214   1.529   5.049
 4579TIP3   OH213742   3.095   4.775   3.764
 4579TIP3    H113743   3.089   4.798   3.857
 4579TIP3    H213744   3.175   4.816   3.734
 4580TIP3   OH213745   3.198   1.900   2.737
 4580TIP3    H113746   3.146   1.980   2.736
 4580TIP3    H213747   3.200   1.873   2.828
 4581TIP3   OH213748   0.189   1.997   4.462
 4581TIP3    H113749   0.200   1.998   4.367
 4581TIP3    H213750   0.276   2.015   4.497
 4582TIP3   OH213751   0.285   3.521   0.682
 4582TIP3    H113752   0.302   3.473   0.764
 4582TIP3    H213753   0.192   3.507   0.665
 4583TIP3   OH213754   2.065   5.046   4.260
 4583TIP3    H113755   1.996   5.109   4.280
 4583TIP3    H213756   2.017   4.965   4.238
 4584TIP3   OH213757   0.139   3.393   2.006
 4584TIP3    H113758   0.172   3.310   2.041
 4584TIP3    H213759   0.156   3.456   2.076
 4585TIP3   OH213760   4.045   4.610   1.754
 4585TIP3    H113761   4.098   4.621   1.675
 4585TIP3    H213762   4.027   4.699   1.785
 4586TIP3   OH213763   1.407   4.125   4.684
 4586TIP3    H113764   1.369   4.200   4.637
 4586TIP3    H213765   1.501   4.141   4.682
 4587TIP3   OH213766   5.975   3.383   1.108
 4587TIP3    H113767   5.995   3.298   1.069
 4587TIP3    H213768   5.913   3.423   1.048
 4588TIP3   OH213769   5.768   5.489   0.981
 4588TIP3    H113770   5.828   5.466   1.052
 4588TIP3    H213771   5.804   5.570   0.944
 4589TIP3   OH213772   2.934   2.172   3.913
 4589TIP3    H113773   2.982   2.254   3.917
 4589TIP3    H213774   2.954   2.127   3.995
 4590TIP3   OH213775   5.750   2.249   3.046
 4590TIP3    H113776   5.657   2.268   3.051
 4590TIP3    H213777   5.793   2.335   3.057
 4591TIP3   OH213778   3.146   4.425   0.381
 4591TIP3    H113779   3.129   4.342   0.426
 4591TIP3    H213780   3.154   4.489   0.452
 4592TIP3   OH213781   6.195   5.109   2.582
 4592TIP3    H113782   6.232   5.022   2.566
 4592TIP3    H213783   6.123   5.117   2.519
 4593TIP3   OH213784   0.784   5.635   3.791
 4593TIP3    H113785   0.760   5.726   3.804
 4593TIP3    H213786   0.701   5.588   3.790
 4594TIP3   OH213787   2.861   4.390   1.493
 4594TIP3    H113788   2.823   4.429   1.571
 4594TIP3    H213789   2.817   4.306   1.484
 4595TIP3   OH213790   2.585   0.781   2.530
 4595TIP3    H113791   2.600   0.873   2.549
 4595TIP3    H213792   2.556   0.743   2.613
 4596TIP3   OH213793   0.348   4.314   4.760
 4596TIP3    H113794   0.361   4.221   4.776
 4596TIP3    H213795   0.365   4.355   4.844
 4597TIP3   OH213796   3.298   0.908   2.572
 4597TIP3    H113797   3.243   0.858   2.511
 4597TIP3    H213798   3.360   0.844   2.607
 4598TIP3   OH213799   6.225   3.174   3.561
 4598TIP3    H113800   6.255   3.169   3.652
 4598TIP3    H213801   6.293   3.129   3.511
 4599TIP3   OH213802   2.236   5.402   0.659
 4599TIP3    H113803   2.144   5.411   0.684
 4599TIP3    H213804   2.243   5.448   0.575
 4600TIP3   OH213805   4.341   2.863   3.039
 4600TIP3    H113806   4.412   2.840   3.099
 4600TIP3    H213807   4.330   2.784   2.985
 4601TIP3   OH213808   5.968   4.683   1.366
 4601TIP3    H113809   5.945   4.654   1.277
 4601TIP3    H213810   6.053   4.644   1.382
 4602TIP3   OH213811   5.288   2.328   0.978
 4602TIP3    H113812   5.381   2.337   0.956
 4602TIP3    H213813   5.287   2.270   1.054
 4603TIP3   OH213814   2.359   4.458   3.415
 4603TIP3    H113815   2.414   4.535   3.402
 4603TIP3    H213816   2.311   4.448   3.333
 4604TIP3   OH213817   1.759   4.583   2.573
 4604TIP3    H113818   1.693   4.650   2.555
 4604TIP3    H213819   1.823   4.592   2.502
 4605TIP3   OH213820   3.863   4.860   3.777
 4605TIP3    H113821   3.926   4.895   3.714
 4605TIP3    H213822   3.912   4.854   3.859
 4606TIP3   OH213823   5.113   5.183   2.116
 4606TIP3    H113824   5.045   5.238   2.154
 4606TIP3    H213825   5.152   5.138   2.191
 4607TIP3   OH213826   1.362   3.198   2.296
 4607TIP3    H113827   1.321   3.118   2.329
 4607TIP3    H213828   1.290   3.246   2.254
 4608TIP3   OH213829   1.410   1.870   5.162
 4608TIP3    H113830   1.357   1.915   5.096
 4608TIP3    H213831   1.499   1.903   5.147
 4609TIP3   OH213832   4.975   1.831   0.433
 4609TIP3    H113833   4.972   1.802   0.342
 4609TIP3    H213834   5.012   1.757   0.481
 4610TIP3   OH213835   2.865   1.749   2.107
 4610TIP3    H113836   2.848   1.843   2.119
 4610TIP3    H213837   2.924   1.727   2.179
 4611TIP3   OH213838   1.643   2.538   3.284
 4611TIP3    H113839   1.647   2.573   3.195
 4611TIP3    H213840   1.721   2.483   3.291
 4612TIP3   OH213841   2.275   0.951   3.785
 4612TIP3    H113842   2.186   0.922   3.768
 4612TIP3    H213843   2.285   0.944   3.880
 4613TIP3   OH213844   3.585   0.060   4.994
 4613TIP3    H113845   3.651   0.117   5.032
 4613TIP3    H213846   3.521   0.046   5.063
 4614TIP3   OH213847   0.430   1.636   0.717
 4614TIP3    H113848   0.444   1.596   0.803
 4614TIP3    H213849   0.341   1.671   0.721
 4615TIP3   OH213850   1.676   4.047   3.153
 4615TIP3    H113851   1.635   4.048   3.240
 4615TIP3    H213852   1.650   3.963   3.115
 4616TIP3   OH213853   0.990   0.609   0.912
 4616TIP3    H113854   1.046   0.611   0.989
 4616TIP3    H213855   1.025   0.678   0.855
 4617TIP3   OH213856   4.315   2.044   4.627
 4617TIP3    H113857   4.374   1.997   4.685
 4617TIP3    H213858   4.231   1.998   4.635
 4618TIP3   OH213859   2.037   0.212   0.665
 4618TIP3    H113860   2.122   0.242   0.699
 4618TIP3    H213861   1.978   0.285   0.683
 4619TIP3   OH213862   1.581   3.398   2.670
 4619TIP3    H113863   1.552   3.354   2.591
 4619TIP3    H213864   1.644   3.465   2.640
 4620TIP3   OH213865   5.768   3.013   1.622
 4620TIP3    H113866   5.848   3.060   1.599
 4620TIP3    H213867   5.760   3.025   1.717
 4621TIP3   OH213868   2.501   2.652   4.662
 4621TIP3    H113869   2.475   2.743   4.675
 4621TIP3    H213870   2.590   2.647   4.698
 4622TIP3   OH213871   1.856   1.498   4.648
 4622TIP3    H113872   1.868   1.486   4.742
 4622TIP3    H213873   1.923   1.443   4.608
 4623TIP3   OH213874   4.919   4.775   4.677
 4623TIP3    H113875   4.998   4.828   4.687
 4623TIP3    H213876   4.858   4.831   4.629
 4624TIP3   OH213877   5.996   3.680   1.449
 4624TIP3    H113878   6.068   3.667   1.511
 4624TIP3    H213879   6.027   3.749   1.390
 4625TIP3   OH213880   4.538   4.939   3.490
 4625TIP3    H113881   4.598   4.987   3.432
 4625TIP3    H213882   4.568   4.849   3.486
 4626TIP3   OH213883   2.661   5.583   1.252
 4626TIP3    H113884   2.745   5.554   1.215
 4626TIP3    H213885   2.683   5.610   1.341
 4627TIP3   OH213886   4.427   0.719   2.737
 4627TIP3    H113887   4.449   0.709   2.830
 4627TIP3    H213888   4.463   0.642   2.694
 4628TIP3   OH213889   4.537   0.181   0.941
 4628TIP3    H113890   4.559   0.188   0.848
 4628TIP3    H213891   4.442   0.176   0.944
 4629TIP3   OH213892   1.355   4.361   1.164
 4629TIP3    H113893   1.362   4.393   1.074
 4629TIP3    H213894   1.443   4.329   1.184
 4630TIP3   OH213895   3.960   3.038   2.553
 4630TIP3    H113896   3.997   2.970   2.610
 4630TIP3    H213897   3.871   3.007   2.534
 4631TIP3   OH213898   4.418   4.643   0.525
 4631TIP3    H113899   4.510   4.635   0.549
 4631TIP3    H213900   4.412   4.726   0.478
 4632TIP3   OH213901   2.111   4.126   3.340
 4632TIP3    H113902   2.032   4.145   3.291
 4632TIP3    H213903   2.113   4.192   3.409
 4633TIP3   OH213904   4.060   4.353   3.371
 4633TIP3    H113905   4.006   4.427   3.399
 4633TIP3    H213906   4.150   4.384   3.384
 4634TIP3   OH213907   2.855   5.001   1.651
 4634TIP3    H113908   2.813   4.944   1.715
 4634TIP3    H213909   2.848   4.954   1.568
 4635TIP3   OH213910   3.190   5.657   4.781
 4635TIP3    H113911   3.170   5.574   4.738
 4635TIP3    H213912   3.111   5.677   4.833
 4636TIP3   OH213913   5.492   5.924   2.861
 4636TIP3    H113914   5.430   5.963   2.799
 4636TIP3    H213915   5.445   5.924   2.945
 4637TIP3   OH213916   2.194   1.643   4.252
 4637TIP3    H113917   2.207   1.580   4.182
 4637TIP3    H213918   2.280   1.684   4.263
 4638TIP3   OH213919   1.486   5.791   3.380
 4638TIP3    H113920   1.496   5.725   3.312
 4638TIP3    H213921   1.428   5.750   3.444
 4639TIP3   OH213922   2.125   3.931   0.165
 4639TIP3    H113923   2.101   3.845   0.198
 4639TIP3    H213924   2.072   3.992   0.215
 4640TIP3   OH213925   0.547   2.157   1.516
 4640TIP3    H113926   0.597   2.134   1.438
 4640TIP3    H213927   0.598   2.225   1.559
 4641TIP3   OH213928   0.023   0.350   2.746
 4641TIP3    H113929  -0.011   0.439   2.744
 4641TIP3    H213930   0.118   0.360   2.746
 4642TIP3   OH213931   0.360   1.795   4.169
 4642TIP3    H113932   0.275   1.820   4.134
 4642TIP3    H213933   0.352   1.702   4.188
 4643TIP3   OH213934   4.749   2.377   2.120
 4643TIP3    H113935   4.755   2.444   2.188
 4643TIP3    H213936   4.840   2.358   2.097
 4644TIP3   OH213937   6.237   2.501   0.731
 4644TIP3    H113938   6.202   2.413   0.715
 4644TIP3    H213939   6.299   2.489   0.804
 4645TIP3   OH213940   1.049   2.339   4.062
 4645TIP3    H113941   1.118   2.284   4.024
 4645TIP3    H213942   1.053   2.321   4.156
 4646TIP3   OH213943   2.165   1.762   0.728
 4646TIP3    H113944   2.231   1.758   0.659
 4646TIP3    H213945   2.214   1.758   0.809
 4647TIP3   OH213946   3.578   3.437   1.021
 4647TIP3    H113947   3.548   3.346   1.023
 4647TIP3    H213948   3.562   3.466   0.930
 4648TIP3   OH213949   0.298   3.296   4.525
 4648TIP3    H113950   0.270   3.209   4.498
 4648TIP3    H213951   0.256   3.310   4.610
 4649TIP3   OH213952   5.862   0.001   0.381
 4649TIP3    H113953   5.823   0.005   0.294
 4649TIP3    H213954   5.791   0.025   0.441
 4650TIP3   OH213955   5.042   1.944   5.185
 4650TIP3    H113956   5.118   1.964   5.130
 4650TIP3    H213957   4.968   1.981   5.137
 4651TIP3   OH213958   0.736   5.857   3.129
 4651TIP3    H113959   0.744   5.762   3.121
 4651TIP3    H213960   0.772   5.878   3.215
 4652TIP3   OH213961   4.789   2.576   0.578
 4652TIP3    H113962   4.702   2.610   0.558
 4652TIP3    H213963   4.794   2.493   0.531
 4653TIP3   OH213964   5.875   3.176   0.002
 4653TIP3    H113965   5.950   3.236   0.011
 4653TIP3    H213966   5.912   3.089   0.017
 4654TIP3   OH213967   3.844   3.265   4.961
 4654TIP3    H113968   3.825   3.223   4.877
 4654TIP3    H213969   3.769   3.243   5.017
 4655TIP3   OH213970   1.936   0.637   0.637
 4655TIP3    H113971   1.887   0.718   0.655
 4655TIP3    H213972   1.873   0.567   0.650
 4656TIP3   OH213973   1.712   0.934   2.734
 4656TIP3    H113974   1.652   0.902   2.801
 4656TIP3    H213975   1.778   0.984   2.782
 4657TIP3   OH213976   2.923   1.175   4.353
 4657TIP3    H113977   3.005   1.212   4.387
 4657TIP3    H213978   2.858   1.195   4.420
 4658TIP3   OH213979   5.229   2.539   2.213
 4658TIP3    H113980   5.252   2.471   2.150
 4658TIP3    H213981   5.311   2.584   2.232
 4659TIP3   OH213982   6.256   1.736   1.912
 4659TIP3    H113983   6.273   1.739   2.006
 4659TIP3    H213984   6.212   1.819   1.893
 4660TIP3   OH213985   2.209   1.909   3.530
 4660TIP3    H113986   2.172   1.997   3.521
 4660TIP3    H213987   2.138   1.858   3.568
 4661TIP3   OH213988   4.207   4.099   2.738
 4661TIP3    H113989   4.243   4.150   2.811
 4661TIP3    H213990   4.113   4.098   2.753
 4662TIP3   OH213991   5.804   4.864   2.511
 4662TIP3    H113992   5.796   4.925   2.584
 4662TIP3    H213993   5.877   4.807   2.536
 4663TIP3   OH213994   0.457   3.176   3.156
 4663TIP3    H113995   0.404   3.169   3.077
 4663TIP3    H213996   0.547   3.186   3.124
 4664TIP3   OH213997   5.440   4.978   4.180
 4664TIP3    H113998   5.488   5.047   4.226
 4664TIP3    H213999   5.414   4.917   4.249
 4665TIP3   OH214000   3.435  -0.056   4.129
 4665TIP3    H114001   3.402  -0.006   4.204
 4665TIP3    H214002   3.446   0.010   4.060
 4666TIP3   OH214003   0.026   3.168   1.342
 4666TIP3    H114004  -0.058   3.157   1.385
 4666TIP3    H214005   0.028   3.100   1.274
 4667TIP3   OH214006   4.255   0.067   3.831
 4667TIP3    H114007   4.261  -0.026   3.854
 4667TIP3    H214008   4.299   0.073   3.746
 4668TIP3   OH214009   2.254   3.338   0.661
 4668TIP3    H114010   2.195   3.350   0.736
 4668TIP3    H214011   2.198   3.348   0.584
 4669TIP3   OH214012   0.094   0.284   1.934
 4669TIP3    H114013   0.079   0.338   2.012
 4669TIP3    H214014   0.148   0.211   1.965
 4670TIP3   OH214015   4.128   4.308   4.568
 4670TIP3    H114016   4.188   4.383   4.566
 4670TIP3    H214017   4.042   4.346   4.582
 4671TIP3   OH214018   4.136   4.494   3.045
 4671TIP3    H114019   4.052   4.459   3.074
 4671TIP3    H214020   4.129   4.588   3.058
 4672TIP3   OH214021   3.759   3.085   0.882
 4672TIP3    H114022   3.752   2.989   0.875
 4672TIP3    H214023   3.682   3.111   0.932
 4673TIP3   OH214024   1.844   4.150   1.303
 4673TIP3    H114025   1.812   4.138   1.392
 4673TIP3    H214026   1.904   4.077   1.289
 4674TIP3   OH214027   0.039   0.058   2.875
 4674TIP3    H114028   0.096   0.084   2.948
 4674TIP3    H214029   0.029   0.137   2.822
 4675TIP3   OH214030   0.503   2.928   2.907
 4675TIP3    H114031   0.539   3.015   2.924
 4675TIP3    H214032   0.523   2.878   2.986
 4676TIP3   OH214033   3.528   4.231   1.512
 4676TIP3    H114034   3.581   4.298   1.469
 4676TIP3    H214035   3.560   4.148   1.476
 4677TIP3   OH214036   1.344   3.491   5.161
 4677TIP3    H114037   1.378   3.417   5.111
 4677TIP3    H214038   1.400   3.496   5.238
 4678TIP3   OH214039   2.295   3.476   4.219
 4678TIP3    H114040   2.278   3.383   4.232
 4678TIP3    H214041   2.335   3.504   4.301
 4679TIP3   OH214042   3.521   2.964   4.737
 4679TIP3    H114043   3.518   2.870   4.718
 4679TIP3    H214044   3.429   2.991   4.736
 4680TIP3   OH214045   4.870   5.084   4.846
 4680TIP3    H114046   4.793   5.059   4.795
 4680TIP3    H214047   4.900   5.166   4.806
 4681TIP3   OH214048   0.383   2.899   0.437
 4681TIP3    H114049   0.405   2.885   0.344
 4681TIP3    H214050   0.288   2.906   0.438
 4682TIP3   OH214051   4.407   5.675   4.574
 4682TIP3    H114052   4.416   5.594   4.524
 4682TIP3    H214053   4.403   5.743   4.507
 4683TIP3   OH214054   1.819   3.489   1.603
 4683TIP3    H114055   1.910   3.490   1.631
 4683TIP3    H214056   1.823   3.480   1.508
 4684TIP3   OH214057   5.330   5.287   1.312
 4684TIP3    H114058   5.304   5.298   1.221
 4684TIP3    H214059   5.285   5.358   1.359
 4685TIP3   OH214060   2.900   5.634   2.065
 4685TIP3    H114061   2.922   5.725   2.086
 4685TIP3    H214062   2.982   5.586   2.075
 4686TIP3   OH214063   6.030   3.164   0.942
 4686TIP3    H114064   6.019   3.217   0.863
 4686TIP3    H214065   6.101   3.103   0.921
 4687TIP3   OH214066   1.461   2.400   4.064
 4687TIP3    H114067   1.424   2.382   4.150
 4687TIP3    H214068   1.536   2.456   4.081
 4688TIP3   OH214069   5.951   2.162   2.701
 4688TIP3    H114070   5.979   2.131   2.787
 4688TIP3    H214071   5.892   2.095   2.668
 4689TIP3   OH214072   0.153   2.365   1.656
 4689TIP3    H114073   0.190   2.449   1.629
 4689TIP3    H214074   0.228   2.315   1.690
 4690TIP3   OH214075   0.608   2.165   3.098
 4690TIP3    H114076   0.554   2.244   3.099
 4690TIP3    H214077   0.576   2.114   3.172
 4691TIP3   OH214078   0.182   3.068   1.683
 4691TIP3    H114079   0.192   3.010   1.759
 4691TIP3    H214080   0.235   3.144   1.704
 4692TIP3   OH214081   1.003   4.819   3.350
 4692TIP3    H114082   0.962   4.744   3.394
 4692TIP3    H214083   0.930   4.868   3.313
 4693TIP3   OH214084   6.088   4.852   4.733
 4693TIP3    H114085   6.073   4.928   4.789
 4693TIP3    H214086   6.043   4.872   4.651
 4694TIP3   OH214087   4.659   2.079   2.220
 4694TIP3    H114088   4.681   1.988   2.202
 4694TIP3    H214089   4.730   2.110   2.278
 4695TIP3   OH214090   2.836   2.265   2.842
 4695TIP3    H114091   2.742   2.262   2.863
 4695TIP3    H214092   2.839   2.277   2.747
 4696TIP3   OH214093   2.276   0.359   1.568
 4696TIP3    H114094   2.364   0.324   1.557
 4696TIP3    H214095   2.274   0.394   1.657
 4697TIP3   OH214096   5.775   5.165   4.403
 4697TIP3    H114097   5.777   5.214   4.485
 4697TIP3    H214098   5.812   5.226   4.339
 4698TIP3   OH214099   3.932   2.965   2.948
 4698TIP3    H114100   3.850   2.933   2.908
 4698TIP3    H214101   3.928   2.933   3.038
 4699TIP3   OH214102   3.827   1.065   2.208
 4699TIP3    H114103   3.809   1.158   2.219
 4699TIP3    H214104   3.748   1.021   2.239
 4700TIP3   OH214105   3.225   0.135   0.386
 4700TIP3    H114106   3.228   0.061   0.325
 4700TIP3    H214107   3.293   0.194   0.354
 4701TIP3   OH214108   2.653   4.487   4.795
 4701TIP3    H114109   2.667   4.500   4.888
 4701TIP3    H214110   2.741   4.491   4.757
 4702TIP3   OH214111   0.473   0.902   3.119
 4702TIP3    H114112   0.567   0.915   3.133
 4702TIP3    H214113   0.457   0.938   3.032
 4703TIP3   OH214114   6.288   0.409   0.851
 4703TIP3    H114115   6.330   0.494   0.862
 4703TIP3    H214116   6.204   0.418   0.896
 4704TIP3   OH214117   0.189   4.303   4.540
 4704TIP3    H114118   0.230   4.350   4.613
 4704TIP3    H214119   0.171   4.216   4.575
 4705TIP3   OH214120   3.667   1.083   3.107
 4705TIP3    H114121   3.694   1.021   3.039
 4705TIP3    H214122   3.625   1.155   3.059
 4706TIP3   OH214123   5.389   1.874   3.109
 4706TIP3    H114124   5.316   1.864   3.169
 4706TIP3    H214125   5.349   1.880   3.022
 4707TIP3   OH214126   4.495   4.211   3.671
 4707TIP3    H114127   4.545   4.134   3.646
 4707TIP3    H214128   4.418   4.176   3.716
 4708TIP3   OH214129   5.851   1.405   4.145
 4708TIP3    H114130   5.893   1.345   4.084
 4708TIP3    H214131   5.924   1.443   4.195
 4709TIP3   OH214132   1.103   0.831   3.454
 4709TIP3    H114133   1.163   0.904   3.443
 4709TIP3    H214134   1.066   0.843   3.541
 4710TIP3   OH214135   5.930   0.561   4.231
 4710TIP3    H114136   6.009   0.524   4.270
 4710TIP3    H214137   5.894   0.618   4.300
 4711TIP3   OH214138   3.249   1.312   4.042
 4711TIP3    H114139   3.312   1.240   4.043
 4711TIP3    H214140   3.272   1.365   4.118
 4712TIP3   OH214141   2.736   5.631   2.293
 4712TIP3    H114142   2.757   5.606   2.203
 4712TIP3    H214143   2.787   5.571   2.347
 4713TIP3   OH214144   1.661   1.601   3.169
 4713TIP3    H114145   1.585   1.624   3.116
 4713TIP3    H214146   1.686   1.682   3.213
 4714TIP3   OH214147   0.830   0.067   3.707
 4714TIP3    H114148   0.904   0.033   3.656
 4714TIP3    H214149   0.793   0.137   3.653
 4715TIP3   OH214150   0.382   5.445   2.786
 4715TIP3    H114151   0.475   5.435   2.767
 4715TIP3    H214152   0.344   5.470   2.701
 4716TIP3   OH214153   1.174   5.132   0.840
 4716TIP3    H114154   1.218   5.182   0.909
 4716TIP3    H214155   1.120   5.196   0.794
 4717TIP3   OH214156   5.814   2.226   3.819
 4717TIP3    H114157   5.721   2.246   3.809
 4717TIP3    H214158   5.817   2.131   3.834
 4718TIP3   OH214159   6.014   3.170   1.651
 4718TIP3    H114160   6.109   3.167   1.655
 4718TIP3    H214161   5.987   3.195   1.740
 4719TIP3   OH214162   1.527   0.686   4.525
 4719TIP3    H114163   1.511   0.738   4.603
 4719TIP3    H214164   1.473   0.607   4.537
 4720TIP3   OH214165   3.999   4.421   0.086
 4720TIP3    H114166   4.056   4.493   0.116
 4720TIP3    H214167   4.059   4.360   0.043
 4721TIP3   OH214168   4.727   1.710   4.215
 4721TIP3    H114169   4.795   1.772   4.245
 4721TIP3    H214170   4.776   1.631   4.194
 4722TIP3   OH214171   5.734   3.622   0.074
 4722TIP3    H114172   5.718   3.646  -0.017
 4722TIP3    H214173   5.747   3.527   0.072
 4723TIP3   OH214174   5.385   5.280   1.920
 4723TIP3    H114175   5.304   5.328   1.938
 4723TIP3    H214176   5.371   5.193   1.959
 4724TIP3   OH214177   1.097   2.082   0.676
 4724TIP3    H114178   1.047   2.031   0.740
 4724TIP3    H214179   1.160   2.020   0.639
 4725TIP3   OH214180   0.105   4.476   2.916
 4725TIP3    H114181   0.193   4.514   2.909
 4725TIP3    H214182   0.057   4.537   2.972
 4726TIP3   OH214183   6.149   0.594   3.372
 4726TIP3    H114184   6.142   0.604   3.467
 4726TIP3    H214185   6.183   0.678   3.342
 4727TIP3   OH214186   0.097   4.068   3.786
 4727TIP3    H114187   0.167   4.113   3.738
 4727TIP3    H214188   0.121   3.975   3.782
 4728TIP3   OH214189   0.566   4.770   2.608
 4728TIP3    H114190   0.554   4.703   2.541
 4728TIP3    H214191   0.624   4.834   2.567
 4729TIP3   OH214192   1.309   1.946   0.914
 4729TIP3    H114193   1.371   1.972   0.845
 4729TIP3    H214194   1.243   1.894   0.869
 4730TIP3   OH214195   4.206   2.558   2.057
 4730TIP3    H114196   4.239   2.557   1.967
 4730TIP3    H214197   4.148   2.482   2.063
 4731TIP3   OH214198   3.626   1.688   0.853
 4731TIP3    H114199   3.612   1.781   0.839
 4731TIP3    H214200   3.697   1.665   0.794
 4732TIP3   OH214201   1.302   4.194   0.186
 4732TIP3    H114202   1.265   4.281   0.167
 4732TIP3    H214203   1.226   4.140   0.209
 4733TIP3   OH214204   1.912   3.790   3.888
 4733TIP3    H114205   1.922   3.810   3.795
 4733TIP3    H214206   1.982   3.839   3.931
 4734TIP3   OH214207   1.957   5.646   0.502
 4734TIP3    H114208   2.002   5.729   0.513
 4734TIP3    H214209   1.900   5.659   0.426
 4735TIP3   OH214210   2.052   5.404   2.954
 4735TIP3    H114211   2.112   5.441   3.017
 4735TIP3    H214212   2.007   5.334   3.002
 4736TIP3   OH214213   0.641   4.179   2.578
 4736TIP3    H114214   0.608   4.130   2.653
 4736TIP3    H214215   0.658   4.112   2.511
 4737TIP3   OH214216   0.136   0.180   1.614
 4737TIP3    H114217   0.204   0.180   1.546
 4737TIP3    H214218   0.120   0.273   1.631
 4738TIP3   OH214219   1.611   2.920   3.161
 4738TIP3    H114220   1.602   2.971   3.080
 4738TIP3    H214221   1.654   2.839   3.133
 4739TIP3   OH214222   0.809   2.306   1.430
 4739TIP3    H114223   0.754   2.324   1.354
 4739TIP3    H214224   0.825   2.392   1.469
 4740TIP3   OH214225   2.317   2.512   1.671
 4740TIP3    H114226   2.222   2.504   1.675
 4740TIP3    H214227   2.332   2.580   1.604
 4741TIP3   OH214228   5.919   3.068   1.911
 4741TIP3    H114229   5.852   3.123   1.870
 4741TIP3    H214230   5.959   3.124   1.978
 4742TIP3   OH214231   0.943   3.795   0.364
 4742TIP3    H114232   1.021   3.758   0.321
 4742TIP3    H214233   0.903   3.850   0.297
 4743TIP3   OH214234   5.130   4.494   1.147
 4743TIP3    H114235   5.219   4.529   1.151
 4743TIP3    H214236   5.115   4.456   1.234
 4744TIP3   OH214237   5.128   0.490   5.101
 4744TIP3    H114238   5.043   0.453   5.124
 4744TIP3    H214239   5.167   0.426   5.041
 4745TIP3   OH214240   0.259   4.602   0.601
 4745TIP3    H114241   0.232   4.680   0.553
 4745TIP3    H214242   0.346   4.624   0.634
 4746TIP3   OH214243   0.293   3.185   2.111
 4746TIP3    H114244   0.384   3.215   2.118
 4746TIP3    H214245   0.296   3.094   2.142
 4747TIP3   OH214246   4.617   0.627   4.660
 4747TIP3    H114247   4.662   0.642   4.743
 4747TIP3    H214248   4.685   0.642   4.594
 4748TIP3   OH214249   2.662   4.430   3.805
 4748TIP3    H114250   2.659   4.345   3.850
 4748TIP3    H214251   2.697   4.409   3.718
 4749TIP3   OH214252   5.910   0.840   3.549
 4749TIP3    H114253   5.861   0.922   3.543
 4749TIP3    H214254   5.940   0.823   3.460
 4750TIP3   OH214255   4.332   3.912   4.563
 4750TIP3    H114256   4.320   3.919   4.658
 4750TIP3    H214257   4.422   3.882   4.553
 4751TIP3   OH214258   2.841   2.245   4.282
 4751TIP3    H114259   2.923   2.237   4.233
 4751TIP3    H214260   2.831   2.162   4.327
 4752TIP3   OH214261   1.494   3.180   4.462
 4752TIP3    H114262   1.535   3.144   4.540
 4752TIP3    H214263   1.505   3.274   4.470
 4753TIP3   OH214264   0.711   2.798   1.361
 4753TIP3    H114265   0.767   2.816   1.286
 4753TIP3    H214266   0.636   2.752   1.324
 4754TIP3   OH214267   0.874   0.434   2.495
 4754TIP3    H114268   0.937   0.487   2.446
 4754TIP3    H214269   0.874   0.350   2.448
 4755TIP3   OH214270   2.760   5.737   2.825
 4755TIP3    H114271   2.718   5.824   2.826
 4755TIP3    H214272   2.701   5.682   2.774
 4756TIP3   OH214273   2.828   0.481   3.837
 4756TIP3    H114274   2.765   0.500   3.768
 4756TIP3    H214275   2.908   0.527   3.809
 4757TIP3   OH214276   2.930   2.698   1.562
 4757TIP3    H114277   2.863   2.700   1.630
 4757TIP3    H214278   2.950   2.790   1.545
 4758TIP3   OH214279   4.026   0.770   4.270
 4758TIP3    H114280   3.963   0.700   4.251
 4758TIP3    H214281   4.031   0.772   4.366
 4759TIP3   OH214282   3.082   0.484   0.647
 4759TIP3    H114283   3.024   0.548   0.687
 4759TIP3    H214284   3.138   0.454   0.719
 4760TIP3   OH214285   0.465   0.836   3.730
 4760TIP3    H114286   0.403   0.763   3.729
 4760TIP3    H214287   0.510   0.830   3.645
 4761TIP3   OH214288   4.504   5.257   1.120
 4761TIP3    H114289   4.412   5.239   1.098
 4761TIP3    H214290   4.551   5.179   1.090
 4762TIP3   OH214291   1.830   1.619   1.047
 4762TIP3    H114292   1.753   1.641   1.099
 4762TIP3    H214293   1.895   1.685   1.071
 4763TIP3   OH214294   3.361   1.751   5.060
 4763TIP3    H114295   3.368   1.801   5.142
 4763TIP3    H214296   3.406   1.669   5.078
 4764TIP3   OH214297   3.424   2.659   2.104
 4764TIP3    H114298   3.339   2.687   2.071
 4764TIP3    H214299   3.451   2.589   2.045
 4765TIP3   OH214300   2.576   4.130   1.733
 4765TIP3    H114301   2.492   4.085   1.738
 4765TIP3    H214302   2.563   4.200   1.671
 4766TIP3   OH214303   2.049   5.278   3.312
 4766TIP3    H114304   2.090   5.278   3.398
 4766TIP3    H214305   2.091   5.206   3.264
 4767TIP3   OH214306   3.249   4.886   0.232
 4767TIP3    H114307   3.295   4.824   0.175
 4767TIP3    H214308   3.166   4.843   0.251
 4768TIP3   OH214309   4.571   4.717   3.794
 4768TIP3    H114310   4.511   4.660   3.840
 4768TIP3    H214311   4.657   4.694   3.828
 4769TIP3   OH214312   3.199   5.866   0.979
 4769TIP3    H114313   3.162   5.902   0.899
 4769TIP3    H214314   3.126   5.820   1.021
 4770TIP3   OH214315   5.783   0.426   0.798
 4770TIP3    H114316   5.877   0.425   0.777
 4770TIP3    H214317   5.740   0.408   0.714
 4771TIP3   OH214318   6.182   4.231   4.972
 4771TIP3    H114319   6.153   4.299   4.912
 4771TIP3    H214320   6.212   4.160   4.916
 4772TIP3   OH214321   1.616   4.648   5.017
 4772TIP3    H114322   1.622   4.617   4.927
 4772TIP3    H214323   1.694   4.702   5.030
 4773TIP3   OH214324   5.387   2.317   2.335
 4773TIP3    H114325   5.378   2.324   2.240
 4773TIP3    H214326   5.353   2.400   2.368
 4774TIP3   OH214327   3.879   2.888   4.693
 4774TIP3    H114328   3.962   2.920   4.658
 4774TIP3    H214329   3.856   2.950   4.762
 4775TIP3   OH214330   1.587   4.481   4.678
 4775TIP3    H114331   1.668   4.431   4.692
 4775TIP3    H214332   1.519   4.414   4.669
 4776TIP3   OH214333   6.260   1.677   1.296
 4776TIP3    H114334   6.189   1.615   1.275
 4776TIP3    H214335   6.326   1.661   1.228
 4777TIP3   OH214336   4.576   3.686   1.372
 4777TIP3    H114337   4.485   3.710   1.351
 4777TIP3    H214338   4.568   3.626   1.446
 4778TIP3   OH214339   1.745   4.158   3.502
 4778TIP3    H114340   1.729   4.075   3.458
 4778TIP3    H214341   1.837   4.156   3.525
 4779TIP3   OH214342   3.712   4.016   3.155
 4779TIP3    H114343   3.749   3.928   3.169
 4779TIP3    H214344   3.729   4.034   3.063
 4780TIP3   OH214345   3.453   3.750   2.582
 4780TIP3    H114346   3.450   3.656   2.596
 4780TIP3    H214347   3.438   3.761   2.488
 4781TIP3   OH214348   4.791   0.354   1.044
 4781TIP3    H114349   4.878   0.313   1.043
 4781TIP3    H214350   4.805   0.441   1.007
 4782TIP3   OH214351   6.286   2.750   4.064
 4782TIP3    H114352   6.251   2.825   4.111
 4782TIP3    H214353   6.224   2.737   3.992
 4783TIP3   OH214354   2.259   2.987   2.081
 4783TIP3    H114355   2.177   2.959   2.041
 4783TIP3    H214356   2.249   2.964   2.174
 4784TIP3   OH214357   4.220   4.128   3.642
 4784TIP3    H114358   4.190   4.217   3.620
 4784TIP3    H214359   4.141   4.075   3.640
 4785TIP3   OH214360   3.381   2.815   2.525
 4785TIP3    H114361   3.445   2.791   2.458
 4785TIP3    H214362   3.304   2.844   2.475
 4786TIP3   OH214363   3.542   5.200   0.447
 4786TIP3    H114364   3.465   5.241   0.488
 4786TIP3    H214365   3.608   5.200   0.515
 4787TIP3   OH214366   0.077   3.927   1.442
 4787TIP3    H114367   0.130   3.867   1.494
 4787TIP3    H214368   0.103   4.014   1.472
 4788TIP3   OH214369   0.640   3.294   1.135
 4788TIP3    H114370   0.591   3.224   1.091
 4788TIP3    H214371   0.719   3.305   1.081
 4789TIP3   OH214372   3.999   0.363   2.621
 4789TIP3    H114373   4.059   0.392   2.553
 4789TIP3    H214374   3.924   0.422   2.614
 4790TIP3   OH214375   1.641   3.714   3.229
 4790TIP3    H114376   1.554   3.721   3.191
 4790TIP3    H214377   1.639   3.633   3.279
 4791TIP3   OH214378   6.123   0.033   3.030
 4791TIP3    H114379   6.051   0.049   2.970
 4791TIP3    H214380   6.201   0.033   2.975
 4792TIP3   OH214381   4.665   0.196   2.075
 4792TIP3    H114382   4.687   0.221   2.165
 4792TIP3    H214383   4.571   0.180   2.077
 4793TIP3   OH214384   4.888   2.767   0.340
 4793TIP3    H114385   4.812   2.757   0.282
 4793TIP3    H214386   4.939   2.687   0.327
 4794TIP3   OH214387   0.386   5.785   2.169
 4794TIP3    H114388   0.379   5.700   2.127
 4794TIP3    H214389   0.476   5.789   2.201
 4795TIP3   OH214390   5.324   1.428   3.012
 4795TIP3    H114391   5.394   1.406   3.073
 4795TIP3    H214392   5.255   1.465   3.066
 4796TIP3   OH214393   5.687   4.466   3.006
 4796TIP3    H114394   5.595   4.488   3.015
 4796TIP3    H214395   5.687   4.373   2.981
 4797TIP3   OH214396   0.314   5.804   3.450
 4797TIP3    H114397   0.245   5.858   3.411
 4797TIP3    H214398   0.396   5.845   3.420
 4798TIP3   OH214399   6.175   1.794   0.494
 4798TIP3    H114400   6.122   1.828   0.421
 4798TIP3    H214401   6.125   1.817   0.572
 4799TIP3   OH214402   0.235   5.455   0.352
 4799TIP3    H114403   0.318   5.495   0.376
 4799TIP3    H214404   0.229   5.469   0.257
 4800TIP3   OH214405   3.966   5.511   0.707
 4800TIP3    H114406   3.907   5.484   0.776
 4800TIP3    H214407   4.014   5.432   0.683
 4801TIP3   OH214408   0.283   2.722   0.117
 4801TIP3    H114409   0.295   2.703   0.210
 4801TIP3    H214410   0.357   2.779   0.095
 4802TIP3   OH214411   5.633   4.922   2.988
 4802TIP3    H114412   5.576   4.882   2.922
 4802TIP3    H214413   5.719   4.926   2.945
 4803TIP3   OH214414   5.151   5.404   1.941
 4803TIP3    H114415   5.127   5.496   1.952
 4803TIP3    H214416   5.096   5.357   2.003
 4804TIP3   OH214417   5.155   0.031   0.804
 4804TIP3    H114418   5.107   0.110   0.828
 4804TIP3    H214419   5.228   0.062   0.751
 4805TIP3   OH214420   3.069   2.121   2.846
 4805TIP3    H114421   3.083   2.158   2.759
 4805TIP3    H214422   2.988   2.163   2.876
 4806TIP3   OH214423   5.614   1.966   5.162
 4806TIP3    H114424   5.648   1.891   5.211
 4806TIP3    H214425   5.678   1.978   5.091
 4807TIP3   OH214426   5.302   4.402   1.891
 4807TIP3    H114427   5.210   4.410   1.917
 4807TIP3    H214428   5.335   4.327   1.940
 4808TIP3   OH214429   6.273   5.553   5.047
 4808TIP3    H114430   6.295   5.644   5.066
 4808TIP3    H214431   6.180   5.555   5.023
 4809TIP3   OH214432   4.190   0.486   2.839
 4809TIP3    H114433   4.235   0.473   2.755
 4809TIP3    H214434   4.215   0.410   2.891
 4810TIP3   OH214435   3.225   1.379   1.801
 4810TIP3    H114436   3.144   1.374   1.852
 4810TIP3    H214437   3.295   1.379   1.867
 4811TIP3   OH214438   0.929   1.708   2.482
 4811TIP3    H114439   0.909   1.768   2.554
 4811TIP3    H214440   1.024   1.708   2.477
 4812TIP3   OH214441   0.086   5.338   4.940
 4812TIP3    H114442   0.023   5.269   4.959
 4812TIP3    H214443   0.061   5.410   4.998
 4813TIP3   OH214444   1.424   4.575   2.525
 4813TIP3    H114445   1.336   4.543   2.545
 4813TIP3    H214446   1.429   4.659   2.571
 4814TIP3   OH214447   4.180   3.115   1.057
 4814TIP3    H114448   4.270   3.148   1.065
 4814TIP3    H214449   4.188   3.021   1.075
 4815TIP3   OH214450   0.623   2.385   1.218
 4815TIP3    H114451   0.579   2.437   1.287
 4815TIP3    H214452   0.621   2.442   1.141
 4816TIP3   OH214453   6.157   2.596   0.243
 4816TIP3    H114454   6.236   2.621   0.194
 4816TIP3    H214455   6.129   2.677   0.287
 4817TIP3   OH214456   3.449   1.202   4.840
 4817TIP3    H114457   3.443   1.272   4.774
 4817TIP3    H214458   3.361   1.199   4.879
 4818TIP3   OH214459   0.129   1.583   1.059
 4818TIP3    H114460   0.145   1.673   1.031
 4818TIP3    H214461   0.115   1.535   0.977
 4819TIP3   OH214462   1.882   1.344   3.829
 4819TIP3    H114463   1.935   1.336   3.908
 4819TIP3    H214464   1.857   1.254   3.807
 4820TIP3   OH214465   1.937   0.257   3.814
 4820TIP3    H114466   1.895   0.187   3.764
 4820TIP3    H214467   1.895   0.254   3.899
 4821TIP3   OH214468   3.721   4.140   3.964
 4821TIP3    H114469   3.691   4.186   3.884
 4821TIP3    H214470   3.795   4.192   3.994
 4822TIP3   OH214471   3.967   4.539   2.265
 4822TIP3    H114472   3.914   4.487   2.325
 4822TIP3    H214473   3.922   4.531   2.181
 4823TIP3   OH214474   1.510   0.809   4.824
 4823TIP3    H114475   1.581   0.873   4.826
 4823TIP3    H214476   1.554   0.724   4.833
 4824TIP3   OH214477   5.917   5.727   0.063
 4824TIP3    H114478   5.885   5.644   0.099
 4824TIP3    H214479   5.978   5.701  -0.006
 4825TIP3   OH214480   5.418   3.580   0.672
 4825TIP3    H114481   5.347   3.520   0.648
 4825TIP3    H214482   5.476   3.528   0.727
 4826TIP3   OH214483   3.204   3.284   1.710
 4826TIP3    H114484   3.191   3.348   1.640
 4826TIP3    H214485   3.117   3.274   1.750
 4827TIP3   OH214486   1.318   1.028   3.448
 4827TIP3    H114487   1.308   1.101   3.387
 4827TIP3    H214488   1.348   1.069   3.529
 4828TIP3   OH214489   0.387   0.476   3.174
 4828TIP3    H114490   0.422   0.390   3.150
 4828TIP3    H214491   0.305   0.483   3.126
 4829TIP3   OH214492   1.219   1.078   2.226
 4829TIP3    H114493   1.236   1.116   2.139
 4829TIP3    H214494   1.248   0.987   2.218
 4830TIP3   OH214495   2.984   2.783   1.902
 4830TIP3    H114496   2.908   2.751   1.853
 4830TIP3    H214497   2.953   2.864   1.944
 4831TIP3   OH214498   2.047   2.735   2.988
 4831TIP3    H114499   2.034   2.770   2.900
 4831TIP3    H214500   2.124   2.781   3.021
 4832TIP3   OH214501   2.788   1.701   4.378
 4832TIP3    H114502   2.818   1.611   4.366
 4832TIP3    H214503   2.694   1.693   4.395
 4833TIP3   OH214504   3.017   1.549   0.002
 4833TIP3    H114505   2.941   1.565   0.058
 4833TIP3    H214506   3.088   1.600   0.041
 4834TIP3   OH214507   0.508   1.509   0.989
 4834TIP3    H114508   0.516   1.496   1.083
 4834TIP3    H214509   0.561   1.439   0.950
 4835TIP3   OH214510   4.546   3.131   4.066
 4835TIP3    H114511   4.590   3.208   4.102
 4835TIP3    H214512   4.455   3.159   4.056
 4836TIP3   OH214513   3.813   2.073   3.128
 4836TIP3    H114514   3.738   2.071   3.070
 4836TIP3    H214515   3.786   2.022   3.205
 4837TIP3   OH214516   4.043   1.946   4.647
 4837TIP3    H114517   3.965   2.001   4.655
 4837TIP3    H214518   4.022   1.868   4.699
 4838TIP3   OH214519   6.207   0.854   3.287
 4838TIP3    H114520   6.227   0.863   3.380
 4838TIP3    H214521   6.111   0.851   3.284
 4839TIP3   OH214522   4.137   1.955   0.904
 4839TIP3    H114523   4.046   1.968   0.874
 4839TIP3    H214524   4.136   1.987   0.994
 4840TIP3   OH214525   3.543   1.943   0.798
 4840TIP3    H114526   3.506   2.031   0.797
 4840TIP3    H214527   3.534   1.912   0.708
 4841TIP3   OH214528   1.276   3.588   2.839
 4841TIP3    H114529   1.272   3.583   2.744
 4841TIP3    H214530   1.321   3.507   2.865
 4842TIP3   OH214531   4.144   1.013   1.986
 4842TIP3    H114532   4.107   0.954   2.051
 4842TIP3    H214533   4.097   1.096   1.998
 4843TIP3   OH214534   5.577   4.445   3.530
 4843TIP3    H114535   5.593   4.374   3.592
 4843TIP3    H214536   5.577   4.403   3.444
 4844TIP3   OH214537   5.458   1.476   1.384
 4844TIP3    H114538   5.449   1.381   1.375
 4844TIP3    H214539   5.494   1.489   1.472
 4845TIP3   OH214540   4.850   5.034   3.061
 4845TIP3    H114541   4.892   4.994   3.137
 4845TIP3    H214542   4.759   5.005   3.066
 4846TIP3   OH214543   1.543   0.282   2.159
 4846TIP3    H114544   1.477   0.219   2.189
 4846TIP3    H214545   1.508   0.367   2.185
 4847TIP3   OH214546   0.901   1.316   4.737
 4847TIP3    H114547   0.923   1.384   4.672
 4847TIP3    H214548   0.863   1.246   4.685
 4848TIP3   OH214549   3.384   4.849   3.509
 4848TIP3    H114550   3.471   4.825   3.477
 4848TIP3    H214551   3.332   4.770   3.498
 4849TIP3   OH214552   0.459   3.994   2.780
 4849TIP3    H114553   0.476   4.071   2.834
 4849TIP3    H214554   0.370   3.967   2.803
 4850TIP3   OH214555   0.909   4.629   4.314
 4850TIP3    H114556   0.843   4.692   4.343
 4850TIP3    H214557   0.879   4.600   4.228
 4851TIP3   OH214558   2.509   1.969   2.069
 4851TIP3    H114559   2.604   1.985   2.072
 4851TIP3    H214560   2.487   1.972   1.976
 4852TIP3   OH214561   3.662   2.340   4.429
 4852TIP3    H114562   3.714   2.263   4.404
 4852TIP3    H214563   3.578   2.328   4.386
 4853TIP3   OH214564   3.888   4.674   2.984
 4853TIP3    H114565   3.911   4.737   3.053
 4853TIP3    H214566   3.930   4.710   2.906
 4854TIP3   OH214567   5.282   5.840   2.123
 4854TIP3    H114568   5.330   5.860   2.042
 4854TIP3    H214569   5.334   5.880   2.192
 4855TIP3   OH214570   3.470   4.052   3.941
 4855TIP3    H114571   3.410   4.073   4.013
 4855TIP3    H214572   3.556   4.074   3.976
 4856TIP3   OH214573   3.039   5.523   3.970
 4856TIP3    H114574   2.961   5.468   3.960
 4856TIP3    H214575   3.047   5.569   3.886
 4857TIP3   OH214576   1.088   5.290   3.030
 4857TIP3    H114577   1.156   5.230   2.999
 4857TIP3    H214578   1.117   5.377   3.003
 4858TIP3   OH214579   4.859   5.028   3.920
 4858TIP3    H114580   4.787   5.005   3.979
 4858TIP3    H214581   4.817   5.045   3.836
 4859TIP3   OH214582   5.575   1.212   3.636
 4859TIP3    H114583   5.505   1.212   3.702
 4859TIP3    H214584   5.549   1.280   3.574
 4860TIP3   OH214585   4.770   3.209   2.550
 4860TIP3    H114586   4.689   3.255   2.528
 4860TIP3    H214587   4.741   3.125   2.585
 4861TIP3   OH214588   4.016   4.919   4.007
 4861TIP3    H114589   4.022   4.964   4.091
 4861TIP3    H214590   4.052   4.832   4.023
 4862TIP3   OH214591   2.274   2.891   3.103
 4862TIP3    H114592   2.278   2.910   3.197
 4862TIP3    H214593   2.354   2.841   3.086
 4863TIP3   OH214594   1.707   0.381   1.781
 4863TIP3    H114595   1.764   0.447   1.820
 4863TIP3    H214596   1.644   0.360   1.850
 4864TIP3   OH214597   5.817   2.444   0.806
 4864TIP3    H114598   5.872   2.433   0.884
 4864TIP3    H214599   5.728   2.450   0.841
 4865TIP3   OH214600   2.817   0.133   2.291
 4865TIP3    H114601   2.835   0.193   2.219
 4865TIP3    H214602   2.724   0.145   2.309
 4866TIP3   OH214603   5.397   2.604   4.276
 4866TIP3    H114604   5.447   2.566   4.204
 4866TIP3    H214605   5.404   2.540   4.346
 4867TIP3   OH214606   6.274   2.150   5.133
 4867TIP3    H114607   6.197   2.190   5.093
 4867TIP3    H214608   6.256   2.056   5.132
 4868TIP3   OH214609   3.798   1.056   3.735
 4868TIP3    H114610   3.834   1.039   3.648
 4868TIP3    H214611   3.872   1.050   3.794
 4869TIP3   OH214612   4.055   3.549   1.684
 4869TIP3    H114613   4.143   3.577   1.659
 4869TIP3    H214614   4.063   3.528   1.777
 4870TIP3   OH214615   0.917   1.869   2.741
 4870TIP3    H114616   0.980   1.825   2.797
 4870TIP3    H214617   0.964   1.946   2.708
 4871TIP3   OH214618   1.337   4.941   3.172
 4871TIP3    H114619   1.251   4.910   3.141
 4871TIP3    H214620   1.385   4.962   3.093
 4872TIP3   OH214621   1.058   5.717   5.054
 4872TIP3    H114622   0.992   5.670   5.004
 4872TIP3    H214623   1.025   5.806   5.061
 4873TIP3   OH214624   2.341   4.834   0.469
 4873TIP3    H114625   2.303   4.759   0.514
 4873TIP3    H214626   2.432   4.836   0.498
 4874TIP3   OH214627   2.343   2.412   3.857
 4874TIP3    H114628   2.322   2.421   3.764
 4874TIP3    H214629   2.432   2.376   3.858
 4875TIP3   OH214630   0.543   2.370   0.670
 4875TIP3    H114631   0.456   2.379   0.711
 4875TIP3    H214632   0.525   2.330   0.585
 4876TIP3   OH214633   3.078   4.002   3.946
 4876TIP3    H114634   3.088   4.089   3.985
 4876TIP3    H214635   3.093   3.942   4.020
 4877TIP3   OH214636   0.517   2.263   4.780
 4877TIP3    H114637   0.451   2.331   4.767
 4877TIP3    H214638   0.552   2.246   4.692
 4878TIP3   OH214639   2.231   5.709   1.950
 4878TIP3    H114640   2.222   5.614   1.958
 4878TIP3    H214641   2.325   5.724   1.942
 4879TIP3   OH214642   1.509  -0.026   2.143
 4879TIP3    H114643   1.595  -0.045   2.180
 4879TIP3    H214644   1.526   0.029   2.067
 4880TIP3   OH214645   3.244   2.280   3.515
 4880TIP3    H114646   3.318   2.331   3.482
 4880TIP3    H214647   3.277   2.190   3.518
 4881TIP3   OH214648   6.167   1.447   3.400
 4881TIP3    H114649   6.237   1.426   3.338
 4881TIP3    H214650   6.212   1.483   3.476
 4882TIP3   OH214651   2.261   1.101   2.489
 4882TIP3    H114652   2.334   1.154   2.521
 4882TIP3    H214653   2.184   1.157   2.498
 4883TIP3   OH214654   2.953   3.117   2.851
 4883TIP3    H114655   2.939   3.039   2.905
 4883TIP3    H214656   2.868   3.161   2.851
 4884TIP3   OH214657   5.282   4.676   0.750
 4884TIP3    H114658   5.204   4.648   0.798
 4884TIP3    H214659   5.348   4.690   0.817
 4885TIP3   OH214660   1.650   3.634   4.272
 4885TIP3    H114661   1.690   3.575   4.209
 4885TIP3    H214662   1.707   3.630   4.349
 4886TIP3   OH214663   1.759   1.348   2.857
 4886TIP3    H114664   1.803   1.264   2.869
 4886TIP3    H214665   1.784   1.376   2.769
 4887TIP3   OH214666   5.804   2.750   1.494
 4887TIP3    H114667   5.792   2.832   1.541
 4887TIP3    H214668   5.899   2.746   1.478
 4888TIP3   OH214669   4.379   2.140   0.031
 4888TIP3    H114670   4.414   2.131   0.120
 4888TIP3    H214671   4.306   2.202   0.041
 4889TIP3   OH214672   0.243   0.075   3.612
 4889TIP3    H114673   0.332   0.053   3.585
 4889TIP3    H214674   0.205  -0.008   3.640
 4890TIP3   OH214675   4.668   0.083   1.196
 4890TIP3    H114676   4.693   0.109   1.285
 4890TIP3    H214677   4.592   0.025   1.209
 4891TIP3   OH214678   2.233   2.885   2.733
 4891TIP3    H114679   2.210   2.966   2.778
 4891TIP3    H214680   2.321   2.899   2.700
 4892TIP3   OH214681   1.289   5.266   5.060
 4892TIP3    H114682   1.254   5.354   5.051
 4892TIP3    H214683   1.384   5.278   5.066
 4893TIP3   OH214684   5.101   4.228   1.358
 4893TIP3    H114685   5.159   4.197   1.427
 4893TIP3    H214686   5.040   4.156   1.343
 4894TIP3   OH214687   4.933   3.438   4.054
 4894TIP3    H114688   4.959   3.384   3.979
 4894TIP3    H214689   4.846   3.470   4.030
 4895TIP3   OH214690   2.695   3.828   3.076
 4895TIP3    H114691   2.694   3.765   3.004
 4895TIP3    H214692   2.677   3.912   3.034
 4896TIP3   OH214693   1.777   5.032   1.377
 4896TIP3    H114694   1.781   5.064   1.287
 4896TIP3    H214695   1.822   4.947   1.373
 4897TIP3   OH214696   3.597   4.888   3.861
 4897TIP3    H114697   3.682   4.900   3.819
 4897TIP3    H214698   3.603   4.938   3.943
 4898TIP3   OH214699   4.160   5.141   0.270
 4898TIP3    H114700   4.231   5.103   0.219
 4898TIP3    H214701   4.172   5.105   0.358
 4899TIP3   OH214702   5.925   4.970   4.523
 4899TIP3    H114703   5.966   5.028   4.587
 4899TIP3    H214704   5.859   5.025   4.481
 4900TIP3   OH214705   5.487   1.129   4.071
 4900TIP3    H114706   5.556   1.130   4.138
 4900TIP3    H214707   5.408   1.156   4.118
 4901TIP3   OH214708   5.487   2.310   4.768
 4901TIP3    H114709   5.436   2.333   4.846
 4901TIP3    H214710   5.550   2.246   4.799
 4902TIP3   OH214711   4.936   1.605   3.717
 4902TIP3    H114712   5.008   1.553   3.753
 4902TIP3    H214713   4.889   1.544   3.660
 4903TIP3   OH214714   3.900   5.151   1.958
 4903TIP3    H114715   3.874   5.217   2.022
 4903TIP3    H214716   3.842   5.166   1.883
 4904TIP3   OH214717   1.172   3.501   0.562
 4904TIP3    H114718   1.101   3.564   0.575
 4904TIP3    H214719   1.134   3.416   0.585
 4905TIP3   OH214720   1.382   0.305   5.163
 4905TIP3    H114721   1.289   0.282   5.163
 4905TIP3    H214722   1.383   0.400   5.173
 4906TIP3   OH214723   5.617   2.402   0.267
 4906TIP3    H114724   5.660   2.436   0.189
 4906TIP3    H214725   5.688   2.362   0.317
 4907TIP3   OH214726   5.670   3.138   4.432
 4907TIP3    H114727   5.696   3.060   4.482
 4907TIP3    H214728   5.713   3.128   4.347
 4908TIP3   OH214729   4.569   4.856   2.005
 4908TIP3    H114730   4.503   4.787   2.000
 4908TIP3    H214731   4.594   4.872   1.914
 4909TIP3   OH214732   5.439   1.004   1.444
 4909TIP3    H114733   5.381   0.938   1.405
 4909TIP3    H214734   5.492   1.035   1.371
 4910TIP3   OH214735   3.835   3.546   0.504
 4910TIP3    H114736   3.854   3.555   0.410
 4910TIP3    H214737   3.917   3.517   0.543
 4911TIP3   OH214738   1.753   4.386   3.886
 4911TIP3    H114739   1.838   4.343   3.883
 4911TIP3    H214740   1.714   4.367   3.800
 4912TIP3   OH214741   6.289   4.448   3.631
 4912TIP3    H114742   6.361   4.460   3.693
 4912TIP3    H214743   6.221   4.509   3.661
 4913TIP3   OH214744   6.235   3.287   4.810
 4913TIP3    H114745   6.172   3.285   4.882
 4913TIP3    H214746   6.201   3.353   4.749
 4914TIP3   OH214747   4.183   2.559   1.158
 4914TIP3    H114748   4.148   2.471   1.173
 4914TIP3    H214749   4.157   2.609   1.235
 4915TIP3   OH214750   2.812   4.540   4.192
 4915TIP3    H114751   2.812   4.621   4.244
 4915TIP3    H214752   2.890   4.547   4.137
 4916TIP3   OH214753   4.270   4.870   4.209
 4916TIP3    H114754   4.361   4.891   4.229
 4916TIP3    H214755   4.272   4.839   4.118
 4917TIP3   OH214756   5.707   0.584   4.009
 4917TIP3    H114757   5.741   0.583   4.098
 4917TIP3    H214758   5.782   0.608   3.955
 4918TIP3   OH214759   5.733   2.388   4.350
 4918TIP3    H114760   5.748   2.482   4.336
 4918TIP3    H214761   5.725   2.352   4.262
 4919TIP3   OH214762   2.666   3.091   4.942
 4919TIP3    H114763   2.759   3.068   4.950
 4919TIP3    H214764   2.620   3.014   4.976
 4920TIP3   OH214765   2.403   5.897   4.616
 4920TIP3    H114766   2.344   5.930   4.683
 4920TIP3    H214767   2.419   5.806   4.642
 4921TIP3   OH214768   3.145   2.872   2.445
 4921TIP3    H114769   3.110   2.792   2.406
 4921TIP3    H214770   3.094   2.883   2.526
 4922TIP3   OH214771   0.831   0.656   4.541
 4922TIP3    H114772   0.833   0.665   4.445
 4922TIP3    H214773   0.862   0.741   4.573
 4923TIP3   OH214774   5.896   5.054   2.035
 4923TIP3    H114775   5.825   5.118   2.035
 4923TIP3    H214776   5.903   5.027   2.127
 4924TIP3   OH214777   2.557   1.072   2.404
 4924TIP3    H114778   2.584   1.160   2.379
 4924TIP3    H214779   2.588   1.061   2.493
 4925TIP3   OH214780   0.259   0.464   1.406
 4925TIP3    H114781   0.310   0.535   1.365
 4925TIP3    H214782   0.325   0.397   1.427
 4926TIP3   OH214783   0.593   4.746   1.949
 4926TIP3    H114784   0.654   4.690   1.901
 4926TIP3    H214785   0.576   4.819   1.890
 4927TIP3   OH214786   5.536   4.817   4.646
 4927TIP3    H114787   5.499   4.728   4.650
 4927TIP3    H214788   5.619   4.810   4.693
 4928TIP3   OH214789   3.871   0.619   2.237
 4928TIP3    H114790   3.919   0.702   2.235
 4928TIP3    H214791   3.882   0.587   2.326
 4929TIP3   OH214792   6.033   1.403   2.334
 4929TIP3    H114793   5.953   1.375   2.378
 4929TIP3    H214794   6.015   1.391   2.241
 4930TIP3   OH214795   3.718   0.088   4.390
 4930TIP3    H114796   3.659   0.115   4.321
 4930TIP3    H214797   3.803   0.123   4.364
 4931TIP3   OH214798   2.525   5.883   2.724
 4931TIP3    H114799   2.457   5.945   2.699
 4931TIP3    H214800   2.480   5.814   2.771
 4932TIP3   OH214801   3.162   5.967   3.280
 4932TIP3    H114802   3.171   5.980   3.185
 4932TIP3    H214803   3.092   5.902   3.288
 4933TIP3   OH214804   4.490   2.540   1.580
 4933TIP3    H114805   4.498   2.450   1.611
 4933TIP3    H214806   4.579   2.563   1.551
 4934TIP3   OH214807   1.189   0.766   4.794
 4934TIP3    H114808   1.197   0.671   4.796
 4934TIP3    H214809   1.101   0.783   4.828
 4935TIP3   OH214810   3.458   4.628   5.098
 4935TIP3    H114811   3.465   4.720   5.125
 4935TIP3    H214812   3.493   4.626   5.009
 4936TIP3   OH214813   3.937   5.151   1.015
 4936TIP3    H114814   4.020   5.111   0.989
 4936TIP3    H214815   3.963   5.221   1.075
 4937TIP3   OH214816   5.974   1.811   3.093
 4937TIP3    H114817   6.040   1.829   3.160
 4937TIP3    H214818   5.971   1.715   3.088
 4938TIP3   OH214819   1.326   2.634   4.375
 4938TIP3    H114820   1.343   2.669   4.287
 4938TIP3    H214821   1.409   2.596   4.402
 4939TIP3   OH214822   3.539   0.930   3.281
 4939TIP3    H114823   3.531   0.849   3.230
 4939TIP3    H214824   3.589   0.989   3.225
 4940TIP3   OH214825   0.850   3.762   2.029
 4940TIP3    H114826   0.845   3.777   1.934
 4940TIP3    H214827   0.893   3.840   2.064
 4941TIP3   OH214828   0.038   2.397   0.945
 4941TIP3    H114829   0.048   2.425   1.035
 4941TIP3    H214830   0.096   2.321   0.936
 4942TIP3   OH214831   5.954   5.191   2.431
 4942TIP3    H114832   5.969   5.285   2.416
 4942TIP3    H214833   5.883   5.188   2.495
 4943TIP3   OH214834   5.943   0.065   1.585
 4943TIP3    H114835   6.003   0.020   1.526
 4943TIP3    H214836   6.000   0.111   1.646
 4944TIP3   OH214837   4.587   1.422   2.305
 4944TIP3    H114838   4.585   1.394   2.214
 4944TIP3    H214839   4.514   1.375   2.346
 4945TIP3   OH214840   6.092   3.373   2.724
 4945TIP3    H114841   6.114   3.466   2.721
 4945TIP3    H214842   5.997   3.371   2.739
 4946TIP3   OH214843   3.299   2.449   4.559
 4946TIP3    H114844   3.365   2.424   4.494
 4946TIP3    H214845   3.216   2.442   4.512
 4947TIP3   OH214846   0.110   0.813   5.080
 4947TIP3    H114847   0.056   0.836   5.156
 4947TIP3    H214848   0.072   0.732   5.047
 4948TIP3   OH214849   2.335   2.877   3.379
 4948TIP3    H114850   2.351   2.793   3.421
 4948TIP3    H214851   2.347   2.941   3.449
 4949TIP3   OH214852   3.013   2.617   2.299
 4949TIP3    H114853   3.023   2.565   2.220
 4949TIP3    H214854   2.968   2.697   2.270
 4950TIP3   OH214855   1.152   4.261   3.434
 4950TIP3    H114856   1.144   4.330   3.368
 4950TIP3    H214857   1.246   4.246   3.442
 4951TIP3   OH214858   5.092   5.716   2.532
 4951TIP3    H114859   5.070   5.783   2.467
 4951TIP3    H214860   5.008   5.678   2.557
 4952TIP3   OH214861   2.992   5.706   1.081
 4952TIP3    H114862   2.965   5.628   1.130
 4952TIP3    H214863   2.921   5.768   1.095
 4953TIP3   OH214864   0.589   3.561   1.225
 4953TIP3    H114865   0.618   3.476   1.190
 4953TIP3    H214866   0.546   3.539   1.308
 4954TIP3   OH214867   1.649   0.462   2.795
 4954TIP3    H114868   1.743   0.458   2.811
 4954TIP3    H214869   1.617   0.374   2.814
 4955TIP3   OH214870   5.243   0.097   1.819
 4955TIP3    H114871   5.331   0.134   1.809
 4955TIP3    H214872   5.253   0.027   1.883
 4956TIP3   OH214873   3.948   3.593   1.951
 4956TIP3    H114874   3.988   3.677   1.925
 4956TIP3    H214875   3.862   3.617   1.985
 4957TIP3   OH214876   3.066   1.983   1.463
 4957TIP3    H114877   3.158   1.957   1.462
 4957TIP3    H214878   3.068   2.076   1.483
 4958TIP3   OH214879   4.494   5.306   2.426
 4958TIP3    H114880   4.460   5.368   2.361
 4958TIP3    H214881   4.471   5.220   2.391
 4959TIP3   OH214882   5.816   0.545   4.725
 4959TIP3    H114883   5.878   0.600   4.678
 4959TIP3    H214884   5.730   0.582   4.704
 4960TIP3   OH214885   5.242   2.067   3.395
 4960TIP3    H114886   5.236   2.114   3.312
 4960TIP3    H214887   5.322   2.100   3.436
 4961TIP3   OH214888   4.981   2.735   4.066
 4961TIP3    H114889   4.968   2.641   4.073
 4961TIP3    H214890   5.037   2.758   4.140
 4962TIP3   OH214891   2.470   3.559   3.177
 4962TIP3    H114892   2.564   3.543   3.167
 4962TIP3    H214893   2.458   3.649   3.149
 4963TIP3   OH214894   5.887   3.877   2.350
 4963TIP3    H114895   5.974   3.900   2.317
 4963TIP3    H214896   5.829   3.890   2.274
 4964TIP3   OH214897   0.182   2.930   2.459
 4964TIP3    H114898   0.208   2.924   2.551
 4964TIP3    H214899   0.145   3.018   2.451
 4965TIP3   OH214900   4.194   0.445   1.168
 4965TIP3    H114901   4.189   0.355   1.202
 4965TIP3    H214902   4.249   0.491   1.232
 4966TIP3   OH214903   6.062   5.919   4.350
 4966TIP3    H114904   6.015   5.838   4.333
 4966TIP3    H214905   6.003   5.970   4.406
 4967TIP3   OH214906   5.532   1.855   3.979
 4967TIP3    H114907   5.481   1.936   3.975
 4967TIP3    H214908   5.589   1.859   3.902
 4968TIP3   OH214909   4.549   0.660   0.008
 4968TIP3    H114910   4.539   0.605  -0.069
 4968TIP3    H214911   4.481   0.629   0.068
 4969TIP3   OH214912   1.422   1.957   4.536
 4969TIP3    H114913   1.506   1.916   4.520
 4969TIP3    H214914   1.443   2.047   4.561
 4970TIP3   OH214915   2.792   3.267   4.609
 4970TIP3    H114916   2.875   3.302   4.642
 4970TIP3    H214917   2.776   3.316   4.528
 4971TIP3   OH214918   1.280   4.846   0.795
 4971TIP3    H114919   1.375   4.847   0.802
 4971TIP3    H214920   1.255   4.938   0.802
 4972TIP3   OH214921   6.005   1.100   3.659
 4972TIP3    H114922   6.043   1.014   3.681
 4972TIP3    H214923   6.065   1.135   3.593
 4973TIP3   OH214924   2.229   2.967   4.454
 4973TIP3    H114925   2.306   2.912   4.463
 4973TIP3    H214926   2.248   3.043   4.509
 4974TIP3   OH214927   1.021   1.016   4.358
 4974TIP3    H114928   1.059   0.938   4.318
 4974TIP3    H214929   0.977   0.984   4.437
 4975TIP3   OH214930   2.241   4.405   4.660
 4975TIP3    H114931   2.328   4.406   4.620
 4975TIP3    H214932   2.184   4.367   4.592
 4976TIP3   OH214933   3.017   4.082   1.646
 4976TIP3    H114934   3.110   4.079   1.620
 4976TIP3    H214935   3.019   4.085   1.741
 4977TIP3   OH214936   3.565   4.859   3.167
 4977TIP3    H114937   3.577   4.799   3.093
 4977TIP3    H214938   3.559   4.945   3.126
 4978TIP3   OH214939   4.015   4.872   2.802
 4978TIP3    H114940   4.096   4.847   2.849
 4978TIP3    H214941   4.021   4.825   2.719
 4979TIP3   OH214942   0.754   3.526   2.443
 4979TIP3    H114943   0.795   3.455   2.394
 4979TIP3    H214944   0.758   3.601   2.383
 4980TIP3   OH214945   6.158   0.688   4.883
 4980TIP3    H114946   6.089   0.669   4.947
 4980TIP3    H214947   6.155   0.783   4.872
 4981TIP3   OH214948   1.682   4.569   1.441
 4981TIP3    H114949   1.722   4.519   1.370
 4981TIP3    H214950   1.617   4.624   1.398
 4982TIP3   OH214951   4.929   4.542   2.936
 4982TIP3    H114952   4.928   4.554   3.030
 4982TIP3    H214953   5.002   4.482   2.920
 4983TIP3   OH214954   0.961   4.051   2.443
 4983TIP3    H114955   0.869   4.024   2.439
 4983TIP3    H214956   0.960   4.132   2.493
 4984TIP3   OH214957   5.371   3.089   2.637
 4984TIP3    H114958   5.452   3.125   2.600
 4984TIP3    H214959   5.388   3.087   2.731
 4985TIP3   OH214960   3.081   3.197   4.314
 4985TIP3    H114961   3.140   3.123   4.330
 4985TIP3    H214962   2.996   3.157   4.300
 4986TIP3   OH214963   2.752   3.523   1.502
 4986TIP3    H114964   2.804   3.499   1.578
 4986TIP3    H214965   2.731   3.440   1.459
 4987TIP3   OH214966   1.544   3.070   1.448
 4987TIP3    H114967   1.453   3.069   1.479
 4987TIP3    H214968   1.575   3.159   1.468
 4988TIP3   OH214969   0.689   1.710   2.296
 4988TIP3    H114970   0.656   1.641   2.239
 4988TIP3    H214971   0.762   1.669   2.343
 4989TIP3   OH214972   5.297   5.673   1.261
 4989TIP3    H114973   5.378   5.628   1.284
 4989TIP3    H214974   5.228   5.617   1.296
 4990TIP3   OH214975   4.784   1.802   2.209
 4990TIP3    H114976   4.701   1.772   2.172
 4990TIP3    H214977   4.812   1.732   2.267
 4991TIP3   OH214978   4.224   2.659   4.864
 4991TIP3    H114979   4.193   2.660   4.774
 4991TIP3    H214980   4.320   2.665   4.856
 4992TIP3   OH214981   2.393   3.327   4.927
 4992TIP3    H114982   2.447   3.356   5.001
 4992TIP3    H214983   2.454   3.325   4.853
 4993TIP3   OH214984   1.449   2.761   3.730
 4993TIP3    H114985   1.460   2.721   3.644
 4993TIP3    H214986   1.538   2.785   3.757
 4994TIP3   OH214987   5.833   4.575   0.177
 4994TIP3    H114988   5.865   4.632   0.106
 4994TIP3    H214989   5.853   4.486   0.147
 4995TIP3   OH214990   2.205   1.794   2.247
 4995TIP3    H114991   2.171   1.866   2.301
 4995TIP3    H214992   2.285   1.830   2.208
 4996TIP3   OH214993   6.066   0.259   2.635
 4996TIP3    H114994   6.156   0.261   2.667
 4996TIP3    H214995   6.040   0.351   2.628
 4997TIP3   OH214996   0.108   4.025   4.627
 4997TIP3    H114997   0.023   4.070   4.623
 4997TIP3    H214998   0.095   3.945   4.576
 4998TIP3   OH214999   3.213   0.884   1.670
 4998TIP3    H115000   3.284   0.821   1.660
 4998TIP3    H215001   3.254   0.969   1.660
 4999TIP3   OH215002   2.754   5.577   3.056
 4999TIP3    H115003   2.772   5.623   2.974
 4999TIP3    H215004   2.720   5.492   3.028
 5000TIP3   OH215005   6.094   5.906   4.788
 5000TIP3    H115006   6.039   5.980   4.816
 5000TIP3    H215007   6.125   5.867   4.870
 5001TIP3   OH215008   3.265   4.420   0.788
 5001TIP3    H115009   3.214   4.362   0.843
 5001TIP3    H215010   3.207   4.442   0.715
 5002TIP3   OH215011   2.364   4.446   0.487
 5002TIP3    H115012   2.371   4.489   0.573
 5002TIP3    H215013   2.271   4.445   0.468
 5003TIP3   OH215014   4.453   5.756   4.201
 5003TIP3    H115015   4.533   5.706   4.218
 5003TIP3    H215016   4.396   5.737   4.275
 5004TIP3   OH215017   0.305   1.469   4.010
 5004TIP3    H115018   0.357   1.470   4.091
 5004TIP3    H215019   0.214   1.472   4.041
 5005TIP3   OH215020   1.272   4.349   4.623
 5005TIP3    H115021   1.334   4.398   4.568
 5005TIP3    H215022   1.206   4.414   4.647
 5006TIP3   OH215023   2.723   5.899   4.953
 5006TIP3    H115024   2.647   5.844   4.974
 5006TIP3    H215025   2.689   5.966   4.893
 5007TIP3   OH215026   5.234   0.872   0.289
 5007TIP3    H115027   5.323   0.906   0.278
 5007TIP3    H215028   5.245   0.796   0.346
 5008TIP3   OH215029   5.920   3.271   3.336
 5008TIP3    H115030   5.994   3.324   3.306
 5008TIP3    H215031   5.952   3.181   3.331
 5009TIP3   OH215032   4.031   1.635   1.256
 5009TIP3    H115033   4.080   1.649   1.175
 5009TIP3    H215034   4.033   1.541   1.270
 5010TIP3   OH215035   5.519   4.484   0.657
 5010TIP3    H115036   5.577   4.459   0.586
 5010TIP3    H215037   5.437   4.508   0.614
 5011TIP3   OH215038   2.328   2.445   4.884
 5011TIP3    H115039   2.361   2.361   4.852
 5011TIP3    H215040   2.396   2.508   4.860
 5012TIP3   OH215041   5.185   1.499   0.817
 5012TIP3    H115042   5.169   1.555   0.741
 5012TIP3    H215043   5.113   1.519   0.877
 5013TIP3   OH215044   3.961   0.763   0.668
 5013TIP3    H115045   3.968   0.680   0.621
 5013TIP3    H215046   3.892   0.747   0.733
 5014TIP3   OH215047   4.791   1.908   4.583
 5014TIP3    H115048   4.697   1.925   4.579
 5014TIP3    H215049   4.825   1.943   4.500
 5015TIP3   OH215050   2.141   2.654   4.978
 5015TIP3    H115051   2.120   2.639   5.070
 5015TIP3    H215052   2.190   2.577   4.951
 5016TIP3   OH215053   1.816   1.557   4.965
 5016TIP3    H115054   1.805   1.463   4.956
 5016TIP3    H215055   1.771   1.579   5.046
 5017TIP3   OH215056   0.481   2.416   2.089
 5017TIP3    H115057   0.497   2.482   2.157
 5017TIP3    H215058   0.518   2.336   2.125
 5018TIP3   OH215059   5.665   5.519   4.201
 5018TIP3    H115060   5.595   5.569   4.159
 5018TIP3    H215061   5.678   5.563   4.285
 5019TIP3   OH215062   5.107   2.019   3.901
 5019TIP3    H115063   5.084   2.058   3.985
 5019TIP3    H215064   5.024   2.006   3.856
 5020TIP3   OH215065   2.082   3.411   1.060
 5020TIP3    H115066   2.160   3.413   1.114
 5020TIP3    H215067   2.092   3.333   1.005
 5021TIP3   OH215068   0.618   5.911   1.116
 5021TIP3    H115069   0.618   5.993   1.068
 5021TIP3    H215070   0.636   5.936   1.207
 5022TIP3   OH215071   5.987   1.704   2.170
 5022TIP3    H115072   5.946   1.787   2.143
 5022TIP3    H215073   6.031   1.725   2.253
 5023TIP3   OH215074   3.755   2.648   3.970
 5023TIP3    H115075   3.783   2.572   4.021
 5023TIP3    H215076   3.663   2.660   3.992
 5024TIP3   OH215077   2.251   5.066   2.998
 5024TIP3    H115078   2.182   5.025   2.947
 5024TIP3    H215079   2.218   5.066   3.088
 5025TIP3   OH215080   3.130   5.223   3.201
 5025TIP3    H115081   3.215   5.267   3.197
 5025TIP3    H215082   3.133   5.174   3.282
 5026TIP3   OH215083   4.886   3.325   1.415
 5026TIP3    H115084   4.888   3.260   1.486
 5026TIP3    H215085   4.817   3.295   1.357
 5027TIP3   OH215086   1.664   0.950   4.615
 5027TIP3    H115087   1.577   0.928   4.581
 5027TIP3    H215088   1.658   1.043   4.637
 5028TIP3   OH215089   1.898   0.347   4.327
 5028TIP3    H115090   1.902   0.420   4.389
 5028TIP3    H215091   1.955   0.373   4.255
 5029TIP3   OH215092   4.756   0.697   1.224
 5029TIP3    H115093   4.728   0.681   1.314
 5029TIP3    H215094   4.680   0.738   1.183
 5030TIP3   OH215095   2.552   1.361   1.354
 5030TIP3    H115096   2.559   1.289   1.291
 5030TIP3    H215097   2.635   1.408   1.346
 5031TIP3   OH215098   5.546   2.405   1.794
 5031TIP3    H115099   5.469   2.410   1.850
 5031TIP3    H215100   5.556   2.312   1.775
 5032TIP3   OH215101   1.409   3.917   1.828
 5032TIP3    H115102   1.337   3.869   1.785
 5032TIP3    H215103   1.371   4.002   1.850
 5033TIP3   OH215104   1.948   5.193   0.907
 5033TIP3    H115105   2.017   5.251   0.877
 5033TIP3    H215106   1.982   5.104   0.892
 5034TIP3   OH215107   6.335   5.529   4.157
 5034TIP3    H115108   6.293   5.494   4.236
 5034TIP3    H215109   6.286   5.608   4.136
 5035TIP3   OH215110   0.235   5.602   0.645
 5035TIP3    H115111   0.223   5.520   0.692
 5035TIP3    H215112   0.273   5.576   0.561
 5036TIP3   OH215113   0.155   0.419   5.135
 5036TIP3    H115114   0.104   0.357   5.082
 5036TIP3    H215115   0.163   0.496   5.080
 5037TIP3   OH215116   4.797   5.952   0.968
 5037TIP3    H115117   4.803   5.859   0.947
 5037TIP3    H215118   4.703   5.970   0.968
 5038TIP3   OH215119   5.522   3.082   1.080
 5038TIP3    H115120   5.481   3.057   1.162
 5038TIP3    H215121   5.608   3.039   1.082
 5039TIP3   OH215122   2.945   2.488   5.005
 5039TIP3    H115123   3.018   2.480   4.943
 5039TIP3    H215124   2.907   2.400   5.009
 5040TIP3   OH215125   5.700   1.636   3.784
 5040TIP3    H115126   5.707   1.732   3.783
 5040TIP3    H215127   5.706   1.610   3.692
 5041TIP3   OH215128   0.183   4.476   1.195
 5041TIP3    H115129   0.257   4.509   1.245
 5041TIP3    H215130   0.114   4.541   1.207
 5042TIP3   OH215131   2.408   4.362   0.817
 5042TIP3    H115132   2.483   4.419   0.806
 5042TIP3    H215133   2.429   4.284   0.766
 5043TIP3   OH215134   0.131   5.354   0.783
 5043TIP3    H115135   0.220   5.350   0.818
 5043TIP3    H215136   0.076   5.370   0.860
 5044TIP3   OH215137   0.356   4.057   4.765
 5044TIP3    H115138   0.294   4.022   4.701
 5044TIP3    H215139   0.437   4.010   4.749
 5045TIP3   OH215140   4.474   3.212   2.021
 5045TIP3    H115141   4.542   3.154   1.987
 5045TIP3    H215142   4.405   3.153   2.050
 5046TIP3   OH215143   1.240   5.695   4.810
 5046TIP3    H115144   1.224   5.689   4.716
 5046TIP3    H215145   1.156   5.674   4.850
 5047TIP3   OH215146   3.601   6.007   4.548
 5047TIP3    H115147   3.588   5.914   4.565
 5047TIP3    H215148   3.521   6.034   4.501
 5048TIP3   OH215149   4.232   5.332   2.690
 5048TIP3    H115150   4.268   5.296   2.609
 5048TIP3    H215151   4.145   5.364   2.666
 5049TIP3   OH215152   2.078   5.873   0.834
 5049TIP3    H115153   2.147   5.807   0.846
 5049TIP3    H215154   2.000   5.833   0.871
 5050TIP3   OH215155   6.170   1.300   0.989
 5050TIP3    H115156   6.245   1.254   0.952
 5050TIP3    H215157   6.145   1.248   1.065
 5051TIP3   OH215158   2.321   5.164   0.044
 5051TIP3    H115159   2.289   5.121   0.124
 5051TIP3    H215160   2.244   5.168  -0.013
 5052TIP3   OH215161   1.061   4.804   3.082
 5052TIP3    H115162   1.054   4.833   3.173
 5052TIP3    H215163   1.024   4.715   3.083
 5053TIP3   OH215164   4.641   4.545   1.588
 5053TIP3    H115165   4.690   4.552   1.506
 5053TIP3    H215166   4.553   4.518   1.561
 5054TIP3   OH215167   5.305   5.457   0.528
 5054TIP3    H115168   5.243   5.523   0.558
 5054TIP3    H215169   5.391   5.492   0.551
 5055TIP3   OH215170   1.525   4.312   4.989
 5055TIP3    H115171   1.563   4.243   4.935
 5055TIP3    H215172   1.600   4.356   5.029
 5056TIP3   OH215173   0.853   4.711   4.979
 5056TIP3    H115174   0.766   4.688   4.946
 5056TIP3    H215175   0.865   4.803   4.954
 5057TIP3   OH215176   6.108   0.500   4.685
 5057TIP3    H115177   6.121   0.413   4.723
 5057TIP3    H215178   6.104   0.559   4.760
 5058TIP3   OH215179   1.563   3.189   2.483
 5058TIP3    H115180   1.517   3.176   2.400
 5058TIP3    H215181   1.623   3.115   2.489
 5059TIP3   OH215182   4.513   3.963   2.256
 5059TIP3    H115183   4.433   3.914   2.238
 5059TIP3    H215184   4.484   4.040   2.305
 5060TIP3   OH215185   3.261   0.433   4.605
 5060TIP3    H115186   3.200   0.467   4.539
 5060TIP3    H215187   3.245   0.339   4.606
 5061TIP3   OH215188   1.922   3.127   1.964
 5061TIP3    H115189   1.910   3.132   1.869
 5061TIP3    H215190   1.923   3.033   1.983
 5062TIP3   OH215191   1.119   3.726   4.740
 5062TIP3    H115192   1.076   3.781   4.806
 5062TIP3    H215193   1.180   3.785   4.696
 5063TIP3   OH215194   2.724   5.482   4.005
 5063TIP3    H115195   2.781   5.409   3.981
 5063TIP3    H215196   2.682   5.453   4.087
 5064TIP3   OH215197   3.682   4.562   3.259
 5064TIP3    H115198   3.620   4.524   3.197
 5064TIP3    H215199   3.649   4.650   3.276
 5065TIP3   OH215200   3.660   2.330   2.276
 5065TIP3    H115201   3.569   2.356   2.261
 5065TIP3    H215202   3.655   2.249   2.326
 5066TIP3   OH215203   1.853   0.899   0.610
 5066TIP3    H115204   1.906   0.969   0.647
 5066TIP3    H215205   1.901   0.870   0.533
 5067TIP3   OH215206   1.976   4.902   0.844
 5067TIP3    H115207   2.067   4.882   0.822
 5067TIP3    H215208   1.970   4.887   0.938
 5068TIP3   OH215209   1.550   5.215   1.194
 5068TIP3    H115210   1.626   5.160   1.171
 5068TIP3    H215211   1.585   5.304   1.193
 5069TIP3   OH215212   5.138   1.611   4.734
 5069TIP3    H115213   5.202   1.542   4.714
 5069TIP3    H215214   5.130   1.661   4.653
 5070TIP3   OH215215   1.777   0.924   5.029
 5070TIP3    H115216   1.804   0.989   5.095
 5070TIP3    H215217   1.737   0.854   5.080
 5071TIP3   OH215218   5.185   2.800   4.263
 5071TIP3    H115219   5.242   2.877   4.272
 5071TIP3    H215220   5.246   2.727   4.249
 5072TIP3   OH215221   1.612   2.524   1.025
 5072TIP3    H115222   1.584   2.563   0.942
 5072TIP3    H215223   1.693   2.478   1.003
 5073TIP3   OH215224   0.093   0.453   2.175
 5073TIP3    H115225   0.045   0.427   2.253
 5073TIP3    H215226   0.111   0.546   2.188
 5074TIP3   OH215227   4.204   2.277   5.098
 5074TIP3    H115228   4.138   2.336   5.062
 5074TIP3    H215229   4.177   2.263   5.189
 5075TIP3   OH215230   3.988   0.100   1.010
 5075TIP3    H115231   3.986   0.163   1.082
 5075TIP3    H215232   4.064   0.045   1.027
 5076TIP3   OH215233   0.758   1.113   4.622
 5076TIP3    H115234   0.695   1.122   4.694
 5076TIP3    H215235   0.719   1.159   4.549
 5077TIP3   OH215236   3.308   2.084   2.146
 5077TIP3    H115237   3.313   2.099   2.240
 5077TIP3    H215238   3.238   2.141   2.116
 5078TIP3   OH215239   0.722   0.240   3.227
 5078TIP3    H115240   0.637   0.225   3.187
 5078TIP3    H215241   0.703   0.285   3.309
 5079TIP3   OH215242   5.720   0.233   2.844
 5079TIP3    H115243   5.742   0.232   2.937
 5079TIP3    H215244   5.627   0.208   2.841
 5080TIP3   OH215245   2.363   4.512   1.246
 5080TIP3    H115246   2.445   4.465   1.230
 5080TIP3    H215247   2.348   4.503   1.340
 5081TIP3   OH215248   3.844   5.719   0.838
 5081TIP3    H115249   3.858   5.814   0.832
 5081TIP3    H215250   3.895   5.683   0.766
 5082TIP3   OH215251   4.388   4.274   0.731
 5082TIP3    H115252   4.315   4.325   0.766
 5082TIP3    H215253   4.396   4.303   0.639
 5083TIP3   OH215254   0.245   5.536   3.415
 5083TIP3    H115255   0.277   5.627   3.411
 5083TIP3    H215256   0.166   5.541   3.469
 5084TIP3   OH215257   3.228   4.640   3.497
 5084TIP3    H115258   3.243   4.546   3.500
 5084TIP3    H215259   3.144   4.652   3.541
 5085TIP3   OH215260   3.214   2.987   1.715
 5085TIP3    H115261   3.171   3.040   1.782
 5085TIP3    H215262   3.228   2.902   1.757
 5086TIP3   OH215263   0.819   1.911   4.249
 5086TIP3    H115264   0.752   1.910   4.317
 5086TIP3    H215265   0.883   1.977   4.279
 5087TIP3   OH215266   2.707   0.385   5.018
 5087TIP3    H115267   2.713   0.320   4.947
 5087TIP3    H215268   2.754   0.461   4.984
 5088TIP3   OH215269   5.537   3.279   2.906
 5088TIP3    H115270   5.495   3.193   2.902
 5088TIP3    H215271   5.618   3.264   2.954
 5089TIP3   OH215272   2.481   4.755   0.185
 5089TIP3    H115273   2.443   4.766   0.273
 5089TIP3    H215274   2.405   4.742   0.128
 5090TIP3   OH215275   3.667   0.905   3.947
 5090TIP3    H115276   3.667   0.984   3.894
 5090TIP3    H215277   3.684   0.834   3.884
 5091TIP3   OH215278   3.184   3.595   1.195
 5091TIP3    H115279   3.109   3.547   1.230
 5091TIP3    H215280   3.259   3.540   1.216
 5092TIP3   OH215281   0.516   4.608   2.355
 5092TIP3    H115282   0.501   4.689   2.306
 5092TIP3    H215283   0.430   4.565   2.356
 5093TIP3   OH215284   4.115   0.996   1.523
 5093TIP3    H115285   4.146   1.085   1.508
 5093TIP3    H215286   4.065   1.002   1.605
 5094TIP3   OH215287   2.546   0.132   4.536
 5094TIP3    H115288   2.455   0.136   4.567
 5094TIP3    H215289   2.548   0.189   4.460
 5095TIP3   OH215290   3.025   3.345   2.651
 5095TIP3    H115291   3.023   3.265   2.703
 5095TIP3    H215292   2.944   3.344   2.601
 5096TIP3   OH215293   2.310   3.092   4.151
 5096TIP3    H115294   2.321   3.051   4.237
 5096TIP3    H215295   2.386   3.062   4.101
 5097TIP3   OH215296   4.735   6.016   3.509
 5097TIP3    H115297   4.740   5.973   3.423
 5097TIP3    H215298   4.772   5.952   3.570
 5098TIP3   OH215299   5.607   3.199   2.590
 5098TIP3    H115300   5.677   3.185   2.526
 5098TIP3    H215301   5.591   3.294   2.586
 5099TIP3   OH215302   4.816   5.423   0.119
 5099TIP3    H115303   4.891   5.405   0.175
 5099TIP3    H215304   4.814   5.350   0.057
 5100TIP3   OH215305   3.286   5.041   3.005
 5100TIP3    H115306   3.377   5.069   2.995
 5100TIP3    H215307   3.253   5.092   3.079
 5101TIP3   OH215308   4.824   0.857   2.336
 5101TIP3    H115309   4.904   0.811   2.311
 5101TIP3    H215310   4.854   0.942   2.368
 5102TIP3   OH215311   0.916   3.181   4.826
 5102TIP3    H115312   0.980   3.162   4.758
 5102TIP3    H215313   0.919   3.277   4.836
 5103TIP3   OH215314   0.241   2.988   3.169
 5103TIP3    H115315   0.187   3.062   3.194
 5103TIP3    H215316   0.298   3.022   3.100
 5104TIP3   OH215317   1.163   1.149   1.710
 5104TIP3    H115318   1.175   1.241   1.683
 5104TIP3    H215319   1.126   1.155   1.798
 5105TIP3   OH215320   4.757   2.203   0.107
 5105TIP3    H115321   4.762   2.152   0.188
 5105TIP3    H215322   4.665   2.229   0.101
 5106TIP3   OH215323   2.645   0.544   3.631
 5106TIP3    H115324   2.566   0.592   3.655
 5106TIP3    H215325   2.647   0.546   3.535
 5107TIP3   OH215326   3.508   0.688   4.999
 5107TIP3    H115327   3.544   0.676   4.910
 5107TIP3    H215328   3.507   0.783   5.011
 5108TIP3   OH215329   3.574   0.986   2.301
 5108TIP3    H115330   3.571   0.900   2.258
 5108TIP3    H215331   3.493   1.029   2.274
 5109TIP3   OH215332   3.482   4.162   3.183
 5109TIP3    H115333   3.456   4.127   3.097
 5109TIP3    H215334   3.551   4.104   3.212
 5110TIP3   OH215335   2.451   1.688   4.184
 5110TIP3    H115336   2.421   1.622   4.122
 5110TIP3    H215337   2.426   1.771   4.144
 5111TIP3   OH215338   4.826   4.200   0.332
 5111TIP3    H115339   4.861   4.223   0.418
 5111TIP3    H215340   4.731   4.191   0.346
 5112TIP3   OH215341   2.444   5.464   1.891
 5112TIP3    H115342   2.441   5.416   1.973
 5112TIP3    H215343   2.530   5.506   1.891
 5113TIP3   OH215344   0.623   5.879   4.985
 5113TIP3    H115345   0.676   5.945   5.029
 5113TIP3    H215346   0.662   5.869   4.899
 5114TIP3   OH215347   0.201   4.579   5.040
 5114TIP3    H115348   0.194   4.486   5.065
 5114TIP3    H215349   0.132   4.622   5.091
 5115TIP3   OH215350   1.886   1.371   4.286
 5115TIP3    H115351   1.829   1.294   4.282
 5115TIP3    H215352   1.939   1.358   4.365
 5116TIP3   OH215353   2.292   1.757   0.206
 5116TIP3    H115354   2.352   1.706   0.152
 5116TIP3    H215355   2.244   1.812   0.144
 5117TIP3   OH215356   2.681   4.596   1.961
 5117TIP3    H115357   2.670   4.507   1.993
 5117TIP3    H215358   2.755   4.631   2.012
 5118TIP3   OH215359   1.787   2.712   3.079
 5118TIP3    H115360   1.797   2.659   3.001
 5118TIP3    H215361   1.872   2.755   3.090
 5119TIP3   OH215362   3.023   5.751   0.446
 5119TIP3    H115363   2.956   5.819   0.441
 5119TIP3    H215364   3.097   5.794   0.488
 5120TIP3   OH215365   2.507   2.548   0.367
 5120TIP3    H115366   2.438   2.580   0.309
 5120TIP3    H215367   2.471   2.557   0.455
 5121TIP3   OH215368   5.804   5.968   3.235
 5121TIP3    H115369   5.712   5.992   3.237
 5121TIP3    H215370   5.819   5.922   3.318
 5122TIP3   OH215371   5.933   4.332   1.438
 5122TIP3    H115372   5.932   4.380   1.355
 5122TIP3    H215373   5.842   4.303   1.450
 5123TIP3   OH215374   5.729   3.688   0.576
 5123TIP3    H115375   5.672   3.612   0.589
 5123TIP3    H215376   5.742   3.693   0.482
 5124TIP3   OH215377   3.749   2.269   0.788
 5124TIP3    H115378   3.739   2.363   0.775
 5124TIP3    H215379   3.661   2.238   0.807
 5125TIP3   OH215380   4.266   1.193   0.624
 5125TIP3    H115381   4.219   1.265   0.665
 5125TIP3    H215382   4.199   1.124   0.615
 5126TIP3   OH215383   2.565   3.568   2.146
 5126TIP3    H115384   2.652   3.527   2.143
 5126TIP3    H215385   2.557   3.610   2.060
 5127TIP3   OH215386   4.752   3.653   5.143
 5127TIP3    H115387   4.768   3.688   5.231
 5127TIP3    H215388   4.813   3.700   5.086
 5128TIP3   OH215389   3.515   1.430   0.591
 5128TIP3    H115390   3.590   1.396   0.640
 5128TIP3    H215391   3.483   1.356   0.540
 5129TIP3   OH215392   1.914   3.188   2.329
 5129TIP3    H115393   1.916   3.228   2.242
 5129TIP3    H215394   1.845   3.122   2.324
 5130TIP3   OH215395   0.521   1.366   1.871
 5130TIP3    H115396   0.545   1.396   1.783
 5130TIP3    H215397   0.430   1.392   1.881
 5131TIP3   OH215398   2.412   1.788   0.621
 5131TIP3    H115399   2.417   1.692   0.615
 5131TIP3    H215400   2.481   1.812   0.682
 5132TIP3   OH215401   3.520   5.749   0.571
 5132TIP3    H115402   3.537   5.725   0.480
 5132TIP3    H215403   3.524   5.666   0.619
 5133TIP3   OH215404   0.648   3.936   0.433
 5133TIP3    H115405   0.688   3.963   0.516
 5133TIP3    H215406   0.572   3.884   0.458
 5134TIP3   OH215407   1.619   1.109   3.358
 5134TIP3    H115408   1.664   1.026   3.373
 5134TIP3    H215409   1.656   1.142   3.276
 5135TIP3   OH215410   4.782   2.453   1.556
 5135TIP3    H115411   4.771   2.414   1.470
 5135TIP3    H215412   4.808   2.379   1.612
 5136TIP3   OH215413   4.321   2.788   1.536
 5136TIP3    H115414   4.286   2.822   1.619
 5136TIP3    H215415   4.373   2.712   1.562
 5137TIP3   OH215416   2.240   0.881   4.058
 5137TIP3    H115417   2.236   0.962   4.108
 5137TIP3    H215418   2.167   0.828   4.090
 5138TIP3   OH215419   2.392   5.173   4.264
 5138TIP3    H115420   2.396   5.241   4.197
 5138TIP3    H215421   2.454   5.202   4.331
 5139TIP3   OH215422  -0.027   2.735   4.735
 5139TIP3    H115423   0.009   2.660   4.687
 5139TIP3    H215424   0.049   2.780   4.770
 5140TIP3   OH215425   3.694   1.433   1.012
 5140TIP3    H115426   3.697   1.515   0.961
 5140TIP3    H215427   3.777   1.389   0.991
 5141TIP3   OH215428   2.508   4.317   0.309
 5141TIP3    H115429   2.505   4.369   0.229
 5141TIP3    H215430   2.457   4.367   0.373
 5142TIP3   OH215431   2.217   1.767   1.292
 5142TIP3    H115432   2.280   1.716   1.241
 5142TIP3    H215433   2.272   1.829   1.340
 5143TIP3   OH215434   1.074   0.117   2.774
 5143TIP3    H115435   1.066   0.131   2.868
 5143TIP3    H215436   1.095   0.203   2.738
 5144TIP3   OH215437   2.177   5.822   0.318
 5144TIP3    H115438   2.261   5.821   0.271
 5144TIP3    H215439   2.190   5.884   0.389
 5145TIP3   OH215440   4.152   5.680   3.783
 5145TIP3    H115441   4.195   5.632   3.854
 5145TIP3    H215442   4.069   5.709   3.820
 5146TIP3   OH215443   5.025   4.864   2.056
 5146TIP3    H115444   5.093   4.805   2.025
 5146TIP3    H215445   5.063   4.905   2.134
 5147TIP3   OH215446   4.311   0.076   4.244
 5147TIP3    H115447   4.327   0.149   4.304
 5147TIP3    H215448   4.374   0.009   4.271
 5148TIP3   OH215449   3.935   5.408   3.273
 5148TIP3    H115450   3.920   5.383   3.365
 5148TIP3    H215451   3.892   5.493   3.264
 5149TIP3   OH215452   5.713   2.974   2.306
 5149TIP3    H115453   5.622   3.003   2.303
 5149TIP3    H215454   5.707   2.878   2.312
 5150TIP3   OH215455   5.392   3.777   1.182
 5150TIP3    H115456   5.453   3.755   1.111
 5150TIP3    H215457   5.430   3.735   1.259
 5151TIP3   OH215458   3.454   0.575   0.685
 5151TIP3    H115459   3.440   0.484   0.658
 5151TIP3    H215460   3.477   0.621   0.604
 5152TIP3   OH215461   0.950   2.827   3.719
 5152TIP3    H115462   1.042   2.852   3.719
 5152TIP3    H215463   0.926   2.824   3.626
 5153TIP3   OH215464   5.381   2.809   0.886
 5153TIP3    H115465   5.387   2.761   0.803
 5153TIP3    H215466   5.368   2.900   0.861
 5154TIP3   OH215467   2.634   4.075   1.411
 5154TIP3    H115468   2.696   4.026   1.463
 5154TIP3    H215469   2.686   4.112   1.340
 5155TIP3   OH215470   6.186   5.397   4.339
 5155TIP3    H115471   6.091   5.395   4.347
 5155TIP3    H215472   6.217   5.417   4.427
 5156TIP3   OH215473   3.409   4.967   1.940
 5156TIP3    H115474   3.372   4.928   1.861
 5156TIP3    H215475   3.501   4.940   1.939
 5157TIP3   OH215476   1.179   1.406   1.667
 5157TIP3    H115477   1.242   1.472   1.696
 5157TIP3    H215478   1.097   1.455   1.655
 5158TIP3   OH215479   4.849   0.471   0.657
 5158TIP3    H115480   4.912   0.542   0.658
 5158TIP3    H215481   4.766   0.512   0.684
 5159TIP3   OH215482   0.230   4.062   5.016
 5159TIP3    H115483   0.291   4.064   4.942
 5159TIP3    H215484   0.280   4.023   5.088
 5160TIP3   OH215485   6.055   1.527   2.615
 5160TIP3    H115486   5.963   1.547   2.598
 5160TIP3    H215487   6.092   1.610   2.648
 5161TIP3   OH215488   0.950   4.592   0.561
 5161TIP3    H115489   0.909   4.583   0.475
 5161TIP3    H215490   1.032   4.639   0.545
 5162TIP3   OH215491   5.694   0.051   3.280
 5162TIP3    H115492   5.622   0.007   3.326
 5162TIP3    H215493   5.768   0.045   3.340
 5163TIP3   OH215494   4.621   3.822   2.026
 5163TIP3    H115495   4.605   3.901   2.077
 5163TIP3    H215496   4.545   3.766   2.043
 5164TIP3   OH215497   4.428   3.975   2.675
 5164TIP3    H115498   4.395   3.889   2.648
 5164TIP3    H215499   4.349   4.027   2.692
 5165TIP3   OH215500   3.548   3.435   3.998
 5165TIP3    H115501   3.595   3.462   4.077
 5165TIP3    H215502   3.615   3.428   3.931
 5166TIP3   OH215503   4.106   0.973   2.326
 5166TIP3    H115504   4.171   1.021   2.377
 5166TIP3    H215505   4.042   1.039   2.300
 5167TIP3   OH215506   1.529   3.230   0.799
 5167TIP3    H115507   1.465   3.186   0.855
 5167TIP3    H215508   1.486   3.312   0.775
 5168TIP3   OH215509   0.483   2.340   3.728
 5168TIP3    H115510   0.509   2.430   3.711
 5168TIP3    H215511   0.550   2.307   3.788
 5169TIP3   OH215512   5.336   4.679   3.988
 5169TIP3    H115513   5.250   4.689   3.946
 5169TIP3    H215514   5.316   4.664   4.080
 5170TIP3   OH215515   4.193   3.697   4.963
 5170TIP3    H115516   4.246   3.651   5.028
 5170TIP3    H215517   4.255   3.720   4.893
 5171TIP3   OH215518   5.712   1.542   3.515
 5171TIP3    H115519   5.787   1.483   3.509
 5171TIP3    H215520   5.705   1.580   3.427
 5172TIP3   OH215521   4.130   4.030   4.125
 5172TIP3    H115522   4.140   4.037   4.220
 5172TIP3    H215523   4.048   4.077   4.107
 5173TIP3   OH215524   3.418   0.588   4.052
 5173TIP3    H115525   3.469   0.542   4.117
 5173TIP3    H215526   3.446   0.551   3.968
 5174TIP3   OH215527   2.381   3.735   0.938
 5174TIP3    H115528   2.320   3.675   0.894
 5174TIP3    H215529   2.330   3.815   0.950
 5175TIP3   OH215530   1.473   1.743   4.155
 5175TIP3    H115531   1.561   1.779   4.166
 5175TIP3    H215532   1.415   1.812   4.186
 5176TIP3   OH215533   5.102   5.404   4.381
 5176TIP3    H115534   5.030   5.432   4.323
 5176TIP3    H215535   5.179   5.449   4.347
 5177TIP3   OH215536   5.055   1.199   3.972
 5177TIP3    H115537   5.106   1.137   3.919
 5177TIP3    H215538   4.986   1.230   3.914
 5178TIP3   OH215539   2.231   2.238   3.247
 5178TIP3    H115540   2.313   2.193   3.227
 5178TIP3    H215541   2.166   2.169   3.258
 5179TIP3   OH215542   3.535   3.834   4.845
 5179TIP3    H115543   3.440   3.827   4.839
 5179TIP3    H215544   3.568   3.754   4.805
 5180TIP3   OH215545   5.188   3.652   2.543
 5180TIP3    H115546   5.126   3.595   2.498
 5180TIP3    H215547   5.196   3.614   2.630
 5181TIP3   OH215548   5.777   1.107   3.799
 5181TIP3    H115549   5.857   1.107   3.745
 5181TIP3    H215550   5.711   1.148   3.743
 5182TIP3   OH215551   1.774   5.462   4.172
 5182TIP3    H115552   1.679   5.476   4.180
 5182TIP3    H215553   1.813   5.534   4.222
 5183TIP3   OH215554   1.608   2.045   0.053
 5183TIP3    H115555   1.576   1.992  -0.021
 5183TIP3    H215556   1.531   2.092   0.084
 5184TIP3   OH215557   6.011   4.604   0.720
 5184TIP3    H115558   5.943   4.610   0.787
 5184TIP3    H215559   6.089   4.642   0.761
 5185TIP3   OH215560   1.576   0.876   0.661
 5185TIP3    H115561   1.548   0.785   0.649
 5185TIP3    H215562   1.667   0.877   0.634
 5186TIP3   OH215563   0.987   5.131   3.472
 5186TIP3    H115564   1.043   5.155   3.546
 5186TIP3    H215565   1.047   5.126   3.397
 5187TIP3   OH215566   5.067   1.253   2.943
 5187TIP3    H115567   5.130   1.322   2.965
 5187TIP3    H215568   5.116   1.171   2.955
 5188TIP3   OH215569   3.489   3.470   0.755
 5188TIP3    H115570   3.395   3.476   0.772
 5188TIP3    H215571   3.505   3.376   0.742
 5189TIP3   OH215572   0.314   2.020   3.006
 5189TIP3    H115573   0.306   2.114   2.993
 5189TIP3    H215574   0.263   2.002   3.085
 5190TIP3   OH215575   5.669   5.500   3.431
 5190TIP3    H115576   5.756   5.460   3.432
 5190TIP3    H215577   5.609   5.427   3.418
 5191TIP3   OH215578   3.929   5.278   3.521
 5191TIP3    H115579   4.023   5.274   3.539
 5191TIP3    H215580   3.890   5.298   3.607
 5192TIP3   OH215581   5.100   1.597   0.033
 5192TIP3    H115582   5.117   1.502   0.032
 5192TIP3    H215583   5.102   1.622  -0.059
 5193TIP3   OH215584   4.502   3.521   2.274
 5193TIP3    H115585   4.546   3.444   2.309
 5193TIP3    H215586   4.556   3.595   2.301
 5194TIP3   OH215587   2.364   5.032   3.723
 5194TIP3    H115588   2.362   4.964   3.790
 5194TIP3    H215589   2.329   5.109   3.766
 5195TIP3   OH215590   4.389   5.752   2.555
 5195TIP3    H115591   4.303   5.739   2.595
 5195TIP3    H215592   4.370   5.762   2.462
 5196TIP3   OH215593   5.596   3.441   0.489
 5196TIP3    H115594   5.573   3.454   0.397
 5196TIP3    H215595   5.512   3.434   0.534
 5197TIP3   OH215596   1.224   5.124   2.506
 5197TIP3    H115597   1.233   5.218   2.520
 5197TIP3    H215598   1.134   5.104   2.534
 5198TIP3   OH215599   5.146   4.539   4.606
 5198TIP3    H115600   5.175   4.448   4.596
 5198TIP3    H215601   5.164   4.560   4.697
 5199TIP3   OH215602   1.238   0.297   0.233
 5199TIP3    H115603   1.292   0.373   0.252
 5199TIP3    H215604   1.154   0.316   0.274
 5200TIP3   OH215605   2.002   1.488   2.667
 5200TIP3    H115606   1.912   1.517   2.647
 5200TIP3    H215607   2.057   1.560   2.638
 5201TIP3   OH215608   2.778   4.351   3.558
 5201TIP3    H115609   2.790   4.423   3.496
 5201TIP3    H215610   2.832   4.280   3.523
 5202TIP3   OH215611   0.287   0.355   2.679
 5202TIP3    H115612   0.332   0.329   2.599
 5202TIP3    H215613   0.331   0.435   2.707
 5203TIP3   OH215614   3.370   4.294   3.844
 5203TIP3    H115615   3.456   4.254   3.855
 5203TIP3    H215616   3.361   4.305   3.749
 5204TIP3   OH215617   1.675   1.812   0.879
 5204TIP3    H115618   1.684   1.753   0.953
 5204TIP3    H215619   1.691   1.757   0.802
 5205TIP3   OH215620   5.025   1.641   0.991
 5205TIP3    H115621   4.973   1.611   1.065
 5205TIP3    H215622   5.037   1.735   1.007
 5206TIP3   OH215623   3.063   1.442   3.261
 5206TIP3    H115624   3.101   1.529   3.253
 5206TIP3    H215625   3.134   1.382   3.237
 5207TIP3   OH215626   2.537   5.150   3.483
 5207TIP3    H115627   2.562   5.241   3.496
 5207TIP3    H215628   2.550   5.135   3.389
 5208TIP3   OH215629   5.527   2.433   2.917
 5208TIP3    H115630   5.458   2.485   2.875
 5208TIP3    H215631   5.588   2.413   2.846
 5209TIP3   OH215632   4.290   0.373   4.963
 5209TIP3    H115633   4.379   0.400   4.940
 5209TIP3    H215634   4.282   0.285   4.926
 5210TIP3   OH215635   5.458   5.745   4.609
 5210TIP3    H115636   5.486   5.799   4.535
 5210TIP3    H215637   5.382   5.791   4.644
 5211TIP3   OH215638   5.640   1.725   1.307
 5211TIP3    H115639   5.582   1.745   1.234
 5211TIP3    H215640   5.641   1.629   1.312
 5212TIP3   OH215641   1.629   3.809   3.941
 5212TIP3    H115642   1.723   3.792   3.937
 5212TIP3    H215643   1.599   3.802   3.850
 5213TIP3   OH215644   0.579   3.679   3.507
 5213TIP3    H115645   0.589   3.693   3.601
 5213TIP3    H215646   0.618   3.592   3.491
 5214TIP3   OH215647   5.191   0.368   1.966
 5214TIP3    H115648   5.283   0.348   1.954
 5214TIP3    H215649   5.176   0.448   1.915
 5215TIP3   OH215650   0.184   5.743   1.176
 5215TIP3    H115651   0.169   5.822   1.228
 5215TIP3    H215652   0.191   5.776   1.086
 5216TIP3   OH215653   3.845   3.027   0.453
 5216TIP3    H115654   3.907   3.017   0.381
 5216TIP3    H215655   3.762   3.049   0.409
 5217TIP3   OH215656   0.661   4.444   0.520
 5217TIP3    H115657   0.712   4.384   0.465
 5217TIP3    H215658   0.633   4.391   0.594
 5218TIP3   OH215659   5.168   4.801   3.541
 5218TIP3    H115660   5.075   4.784   3.550
 5218TIP3    H215661   5.209   4.714   3.539
 5219TIP3   OH215662   3.769   5.222   2.701
 5219TIP3    H115663   3.739   5.306   2.666
 5219TIP3    H215664   3.694   5.163   2.690
 5220TIP3   OH215665   5.189   3.355   3.520
 5220TIP3    H115666   5.241   3.297   3.575
 5220TIP3    H215667   5.248   3.426   3.497
 5221TIP3   OH215668   5.015   4.309   5.014
 5221TIP3    H115669   5.058   4.385   5.052
 5221TIP3    H215670   4.938   4.344   4.970
 5222TIP3   OH215671   0.062   4.841   3.787
 5222TIP3    H115672   0.115   4.822   3.864
 5222TIP3    H215673   0.114   4.808   3.713
 5223TIP3   OH215674   2.452   5.686   4.119
 5223TIP3    H115675   2.507   5.765   4.119
 5223TIP3    H215676   2.363   5.719   4.108
 5224TIP3   OH215677   1.219   2.398   5.118
 5224TIP3    H115678   1.235   2.344   5.195
 5224TIP3    H215679   1.136   2.366   5.083
 5225TIP3   OH215680   4.799   1.587   0.396
 5225TIP3    H115681   4.838   1.543   0.472
 5225TIP3    H215682   4.873   1.631   0.354
 5226TIP3   OH215683   1.531   2.535   4.565
 5226TIP3    H115684   1.480   2.547   4.645
 5226TIP3    H215685   1.611   2.491   4.594
 5227TIP3   OH215686   3.156   4.056   2.644
 5227TIP3    H115687   3.088   4.081   2.707
 5227TIP3    H215688   3.109   4.045   2.562
 5228TIP3   OH215689   2.792   4.025   3.703
 5228TIP3    H115690   2.846   3.963   3.752
 5228TIP3    H215691   2.761   4.087   3.768
 5229TIP3   OH215692   3.468   1.670   4.583
 5229TIP3    H115693   3.465   1.730   4.658
 5229TIP3    H215694   3.458   1.727   4.507
 5230TIP3   OH215695   1.542   1.760   0.219
 5230TIP3    H115696   1.482   1.758   0.145
 5230TIP3    H215697   1.629   1.772   0.180
 5231TIP3   OH215698   2.526   0.413   2.409
 5231TIP3    H115699   2.494   0.413   2.318
 5231TIP3    H215700   2.452   0.446   2.460
 5232TIP3   OH215701   4.048   3.396   2.934
 5232TIP3    H115702   4.050   3.375   3.028
 5232TIP3    H215703   4.117   3.342   2.896
 5233TIP3   OH215704   0.165   1.041   3.535
 5233TIP3    H115705   0.168   0.946   3.535
 5233TIP3    H215706   0.229   1.068   3.469
 5234TIP3   OH215707   1.663   5.246   5.157
 5234TIP3    H115708   1.638   5.161   5.194
 5234TIP3    H215709   1.626   5.246   5.069
 5235TIP3   OH215710   0.807   0.065   0.284
 5235TIP3    H115711   0.767  -0.022   0.279
 5235TIP3    H215712   0.748   0.122   0.234
 5236TIP3   OH215713   3.829   3.129   1.364
 5236TIP3    H115714   3.873   3.167   1.289
 5236TIP3    H215715   3.839   3.194   1.434
 5237TIP3   OH215716   2.556   3.418   3.696
 5237TIP3    H115717   2.645   3.426   3.730
 5237TIP3    H215718   2.552   3.331   3.656
 5238TIP3   OH215719   5.032   5.160   2.407
 5238TIP3    H115720   4.939   5.185   2.409
 5238TIP3    H215721   5.034   5.083   2.351
 5239TIP3   OH215722   1.141   5.869   2.649
 5239TIP3    H115723   1.215   5.864   2.710
 5239TIP3    H215724   1.180   5.856   2.563
 5240TIP3   OH215725   1.228   5.731   1.920
 5240TIP3    H115726   1.143   5.688   1.917
 5240TIP3    H215727   1.208   5.823   1.940
 5241TIP3   OH215728   5.825   1.420   1.613
 5241TIP3    H115729   5.887   1.475   1.564
 5241TIP3    H215730   5.832   1.334   1.572
 5242TIP3   OH215731   2.767   0.281   3.320
 5242TIP3    H115732   2.828   0.252   3.251
 5242TIP3    H215733   2.808   0.252   3.402
 5243TIP3   OH215734   4.226   5.182   3.535
 5243TIP3    H115735   4.306   5.131   3.545
 5243TIP3    H215736   4.234   5.254   3.597
 5244TIP3   OH215737   2.281   0.615   4.341
 5244TIP3    H115738   2.224   0.543   4.315
 5244TIP3    H215739   2.253   0.637   4.430
 5245TIP3   OH215740   1.984   2.864   2.172
 5245TIP3    H115741   1.914   2.800   2.159
 5245TIP3    H215742   2.064   2.814   2.165
 5246TIP3   OH215743   2.317   5.251   4.781
 5246TIP3    H115744   2.405   5.277   4.754
 5246TIP3    H215745   2.259   5.303   4.726
 5247TIP3   OH215746   4.792   2.767   4.618
 5247TIP3    H115747   4.751   2.852   4.600
 5247TIP3    H215748   4.855   2.756   4.547
 5248TIP3   OH215749   2.042   3.318   5.133
 5248TIP3    H115750   2.090   3.249   5.086
 5248TIP3    H215751   2.111   3.378   5.163
 5249TIP3   OH215752   2.086   4.562   5.162
 5249TIP3    H115753   2.100   4.630   5.095
 5249TIP3    H215754   2.088   4.480   5.113
 5250TIP3   OH215755   5.620   4.250   2.294
 5250TIP3    H115756   5.617   4.241   2.198
 5250TIP3    H215757   5.642   4.342   2.309
 5251TIP3   OH215758   5.902   5.352   3.503
 5251TIP3    H115759   5.967   5.314   3.444
 5251TIP3    H215760   5.873   5.280   3.557
 5252TIP3   OH215761   5.751   2.529   0.067
 5252TIP3    H115762   5.809   2.489   0.003
 5252TIP3    H215763   5.684   2.573   0.015
 5253TIP3   OH215764   3.026   3.392   4.685
 5253TIP3    H115765   3.014   3.380   4.779
 5253TIP3    H215766   3.119   3.373   4.670
 5254TIP3   OH215767   2.992   1.671   0.573
 5254TIP3    H115768   3.064   1.682   0.512
 5254TIP3    H215769   3.007   1.737   0.641
 5255TIP3   OH215770   1.129   4.434   0.163
 5255TIP3    H115771   1.116   4.510   0.221
 5255TIP3    H215772   1.041   4.414   0.131
 5256TIP3   OH215773   1.145   2.373   0.793
 5256TIP3    H115774   1.119   2.281   0.786
 5256TIP3    H215775   1.084   2.410   0.857
 5257TIP3   OH215776   0.008   3.198   4.401
 5257TIP3    H115777   0.020   3.244   4.318
 5257TIP3    H215778   0.053   3.114   4.389
 5258TIP3   OH215779   2.703   4.279   2.218
 5258TIP3    H115780   2.673   4.287   2.128
 5258TIP3    H215781   2.678   4.361   2.260
 5259TIP3   OH215782   4.963   3.243   2.185
 5259TIP3    H115783   5.030   3.311   2.178
 5259TIP3    H215784   4.882   3.287   2.161
 5260TIP3   OH215785   3.301   4.015   0.853
 5260TIP3    H115786   3.228   4.052   0.802
 5260TIP3    H215787   3.279   3.923   0.862
 5261TIP3   OH215788   5.058   1.360   3.404
 5261TIP3    H115789   4.971   1.335   3.434
 5261TIP3    H215790   5.116   1.292   3.439
 5262TIP3   OH215791   2.964   0.690   1.337
 5262TIP3    H115792   2.947   0.637   1.259
 5262TIP3    H215793   2.975   0.779   1.304
 5263TIP3   OH215794   0.327   5.487   4.008
 5263TIP3    H115795   0.248   5.435   3.992
 5263TIP3    H215796   0.300   5.577   3.991
 5264TIP3   OH215797   6.279   2.257   4.141
 5264TIP3    H115798   6.306   2.348   4.127
 5264TIP3    H215799   6.202   2.264   4.198
 5265TIP3   OH215800   1.068   2.716   4.096
 5265TIP3    H115801   1.033   2.630   4.073
 5265TIP3    H215802   1.050   2.771   4.019
 5266TIP3   OH215803   0.053   3.153   0.984
 5266TIP3    H115804   0.065   3.153   0.889
 5266TIP3    H215805   0.036   3.245   1.005
 5267TIP3   OH215806   1.315   2.517   2.283
 5267TIP3    H115807   1.310   2.530   2.189
 5267TIP3    H215808   1.294   2.424   2.296
 5268TIP3   OH215809   1.527   0.566   2.215
 5268TIP3    H115810   1.490   0.620   2.145
 5268TIP3    H215811   1.613   0.603   2.232
 5269TIP3   OH215812   4.434   2.236   4.223
 5269TIP3    H115813   4.409   2.325   4.245
 5269TIP3    H215814   4.520   2.224   4.262
 5270TIP3   OH215815   1.909   0.013   1.242
 5270TIP3    H115816   1.916  -0.030   1.327
 5270TIP3    H215817   1.930   0.105   1.259
 5271TIP3   OH215818   5.591   1.041   0.386
 5271TIP3    H115819   5.658   1.060   0.320
 5271TIP3    H215820   5.509   1.067   0.344
 5272TIP3   OH215821   1.816   1.932   4.649
 5272TIP3    H115822   1.887   1.899   4.703
 5272TIP3    H215823   1.737   1.912   4.700
 5273TIP3   OH215824   3.025   4.673   1.795
 5273TIP3    H115825   2.990   4.674   1.706
 5273TIP3    H215826   2.953   4.706   1.849
 5274TIP3   OH215827   3.799   5.867   2.170
 5274TIP3    H115828   3.724   5.809   2.160
 5274TIP3    H215829   3.848   5.858   2.089
 5275TIP3   OH215830   2.663   4.704   4.633
 5275TIP3    H115831   2.740   4.731   4.683
 5275TIP3    H215832   2.625   4.633   4.685
 5276TIP3   OH215833   1.417   2.801   2.698
 5276TIP3    H115834   1.324   2.803   2.722
 5276TIP3    H215835   1.423   2.731   2.633
 5277TIP3   OH215836   2.737   3.429   4.416
 5277TIP3    H115837   2.734   3.373   4.339
 5277TIP3    H215838   2.694   3.510   4.388
 5278TIP3   OH215839   0.065   0.774   0.557
 5278TIP3    H115840   0.003   0.831   0.512
 5278TIP3    H215841   0.124   0.743   0.488
 5279TIP3   OH215842   3.021   0.223   0.604
 5279TIP3    H115843   3.060   0.297   0.557
 5279TIP3    H215844   3.072   0.147   0.577
 5280TIP3   OH215845   1.595   3.512   2.938
 5280TIP3    H115846   1.648   3.582   2.899
 5280TIP3    H215847   1.546   3.475   2.864
 5281TIP3   OH215848   1.678   1.773   4.828
 5281TIP3    H115849   1.730   1.719   4.887
 5281TIP3    H215850   1.608   1.716   4.798
 5282TIP3   OH215851   0.989   0.993   3.005
 5282TIP3    H115852   1.049   0.936   3.052
 5282TIP3    H215853   1.039   1.073   2.989
 5283TIP3   OH215854   3.604   5.151   0.013
 5283TIP3    H115855   3.571   5.106  -0.064
 5283TIP3    H215856   3.526   5.180   0.060
 5284TIP3   OH215857   1.129   0.528   4.213
 5284TIP3    H115858   1.223   0.515   4.215
 5284TIP3    H215859   1.103   0.532   4.305
 5285TIP3   OH215860   3.113   0.516   2.589
 5285TIP3    H115861   3.073   0.437   2.553
 5285TIP3    H215862   3.154   0.486   2.671
 5286TIP3   OH215863   5.200   5.116   2.954
 5286TIP3    H115864   5.200   5.153   2.866
 5286TIP3    H215865   5.266   5.046   2.950
 5287TIP3   OH215866   5.835   3.584   1.837
 5287TIP3    H115867   5.928   3.606   1.834
 5287TIP3    H215868   5.810   3.574   1.745
 5288TIP3   OH215869   3.395   5.394   3.020
 5288TIP3    H115870   3.411   5.337   3.095
 5288TIP3    H215871   3.351   5.471   3.057
 5289TIP3   OH215872   6.174   5.432   1.653
 5289TIP3    H115873   6.265   5.459   1.642
 5289TIP3    H215874   6.149   5.467   1.739
 5290TIP3   OH215875   5.205   4.249   4.576
 5290TIP3    H115876   5.268   4.204   4.519
 5290TIP3    H215877   5.215   4.206   4.661
 5291TIP3   OH215878   1.959   1.050   4.002
 5291TIP3    H115879   1.921   0.989   4.064
 5291TIP3    H215880   1.904   1.042   3.924
 5292TIP3   OH215881   3.168   5.423   4.648
 5292TIP3    H115882   3.254   5.393   4.678
 5292TIP3    H215883   3.128   5.345   4.609
 5293TIP3   OH215884   5.031   4.415   0.593
 5293TIP3    H115885   4.963   4.350   0.574
 5293TIP3    H215886   5.070   4.384   0.676
 5294TIP3   OH215887   4.315   1.472   0.954
 5294TIP3    H115888   4.303   1.379   0.973
 5294TIP3    H215889   4.276   1.485   0.868
 5295TIP3   OH215890   4.101   5.692   2.583
 5295TIP3    H115891   4.112   5.747   2.505
 5295TIP3    H215892   4.115   5.603   2.551
 5296TIP3   OH215893   4.679   1.773   1.451
 5296TIP3    H115894   4.673   1.867   1.435
 5296TIP3    H215895   4.768   1.749   1.426
 5297TIP3   OH215896   1.607   3.443   0.354
 5297TIP3    H115897   1.688   3.396   0.376
 5297TIP3    H215898   1.635   3.510   0.291
 5298TIP3   OH215899   6.205   3.296   2.991
 5298TIP3    H115900   6.139   3.265   2.928
 5298TIP3    H215901   6.177   3.385   3.012
 5299TIP3   OH215902   3.940   3.314   2.588
 5299TIP3    H115903   4.015   3.297   2.531
 5299TIP3    H215904   3.919   3.228   2.625
 5300TIP3   OH215905   0.750   5.161   2.852
 5300TIP3    H115906   0.701   5.211   2.786
 5300TIP3    H215907   0.721   5.071   2.840
 5301TIP3   OH215908   0.034   0.021   3.899
 5301TIP3    H115909   0.042  -0.041   3.826
 5301TIP3    H215910   0.123   0.031   3.932
 5302TIP3   OH215911   2.758   3.865   4.434
 5302TIP3    H115912   2.818   3.795   4.461
 5302TIP3    H215913   2.748   3.853   4.340
 5303TIP3   OH215914   2.543   0.153   2.290
 5303TIP3    H115915   2.523   0.237   2.332
 5303TIP3    H215916   2.474   0.142   2.224
 5304TIP3   OH215917   5.831   4.676   1.779
 5304TIP3    H115918   5.779   4.672   1.860
 5304TIP3    H215919   5.791   4.611   1.721
 5305TIP3   OH215920   2.641   1.461   5.006
 5305TIP3    H115921   2.721   1.419   5.039
 5305TIP3    H215922   2.572   1.396   5.019
 5306TIP3   OH215923   3.090   2.508   3.619
 5306TIP3    H115924   3.109   2.425   3.576
 5306TIP3    H215925   3.127   2.574   3.560
 5307TIP3   OH215926   3.364   4.319   3.581
 5307TIP3    H115927   3.458   4.318   3.561
 5307TIP3    H215928   3.322   4.316   3.495
 5308TIP3   OH215929   4.400   4.386   0.484
 5308TIP3    H115930   4.379   4.479   0.491
 5308TIP3    H215931   4.470   4.382   0.419
 5309TIP3   OH215932   4.932   3.804   1.053
 5309TIP3    H115933   4.980   3.747   1.112
 5309TIP3    H215934   4.844   3.766   1.049
 5310TIP3   OH215935   5.589   2.837   3.856
 5310TIP3    H115936   5.539   2.912   3.887
 5310TIP3    H215937   5.614   2.859   3.767
 5311TIP3   OH215938   0.333   5.645   2.961
 5311TIP3    H115939   0.364   5.585   2.893
 5311TIP3    H215940   0.297   5.587   3.029
 5312TIP3   OH215941   0.095   2.717   4.323
 5312TIP3    H115942   0.133   2.797   4.360
 5312TIP3    H215943   0.049   2.747   4.244
 5313TIP3   OH215944   5.374   0.208   2.592
 5313TIP3    H115945   5.315   0.234   2.522
 5313TIP3    H215946   5.421   0.132   2.557
 5314TIP3   OH215947   5.291   4.552   0.503
 5314TIP3    H115948   5.212   4.503   0.524
 5314TIP3    H215949   5.268   4.643   0.519
 5315TIP3   OH215950   2.656   1.484   3.681
 5315TIP3    H115951   2.606   1.482   3.762
 5315TIP3    H215952   2.748   1.484   3.710
 5316TIP3   OH215953   0.447   3.295   0.348
 5316TIP3    H115954   0.356   3.278   0.370
 5316TIP3    H215955   0.456   3.390   0.354
 5317TIP3   OH215956   0.518   5.018   1.846
 5317TIP3    H115957   0.447   4.998   1.906
 5317TIP3    H215958   0.475   5.048   1.765
 5318TIP3   OH215959   3.841   5.215   4.856
 5318TIP3    H115960   3.884   5.273   4.919
 5318TIP3    H215961   3.843   5.264   4.774
 5319TIP3   OH215962   4.462   5.835   0.268
 5319TIP3    H115963   4.489   5.774   0.199
 5319TIP3    H215964   4.407   5.782   0.326
 5320TIP3   OH215965   3.352   4.403   1.725
 5320TIP3    H115966   3.310   4.370   1.646
 5320TIP3    H215967   3.418   4.338   1.747
 5321TIP3   OH215968   2.645   0.505   0.882
 5321TIP3    H115969   2.696   0.430   0.851
 5321TIP3    H215970   2.601   0.473   0.961
 5322TIP3   OH215971   3.870   3.154   2.011
 5322TIP3    H115972   3.880   3.085   2.076
 5322TIP3    H215973   3.952   3.203   2.014
 5323TIP3   OH215974   6.091   1.984  -0.006
 5323TIP3    H115975   6.138   2.047  -0.060
 5323TIP3    H215976   6.103   2.015   0.084
 5324TIP3   OH215977   2.350   4.344   4.918
 5324TIP3    H115978   2.309   4.382   4.841
 5324TIP3    H215979   2.320   4.253   4.919
 5325TIP3   OH215980   4.111   3.314   3.236
 5325TIP3    H115981   4.147   3.230   3.208
 5325TIP3    H215982   4.153   3.331   3.320
 5326TIP3   OH215983   0.190   3.316   1.503
 5326TIP3    H115984   0.138   3.271   1.437
 5326TIP3    H215985   0.281   3.300   1.477
 5327TIP3   OH215986   4.562   2.933   3.799
 5327TIP3    H115987   4.579   2.969   3.886
 5327TIP3    H215988   4.473   2.961   3.778
 5328TIP3   OH215989   1.399   4.966   2.899
 5328TIP3    H115990   1.422   4.905   2.829
 5328TIP3    H215991   1.415   5.053   2.861
 5329TIP3   OH215992   5.451   2.342   0.487
 5329TIP3    H115993   5.487   2.423   0.524
 5329TIP3    H215994   5.485   2.340   0.397
 5330TIP3   OH215995   3.032   0.941   4.183
 5330TIP3    H115996   3.025   1.025   4.229
 5330TIP3    H215997   3.078   0.884   4.244
 5331TIP3   OH215998   1.521   2.960   2.026
 5331TIP3    H115999   1.589   2.992   2.086
 5331TIP3    H216000   1.543   3.001   1.942
 5332TIP3   OH216001   3.024   4.199   3.007
 5332TIP3    H116002   2.973   4.178   2.929
 5332TIP3    H216003   3.067   4.281   2.986
 5333TIP3   OH216004   2.130   2.881   2.455
 5333TIP3    H116005   2.152   2.898   2.546
 5333TIP3    H216006   2.049   2.930   2.439
 5334TIP3   OH216007   3.260   3.755   0.961
 5334TIP3    H116008   3.308   3.790   1.036
 5334TIP3    H216009   3.205   3.686   0.997
 5335TIP3   OH216010   0.848   4.114   5.030
 5335TIP3    H116011   0.894   4.179   4.976
 5335TIP3    H216012   0.879   4.030   4.996
 5336TIP3   OH216013   4.292   5.591   4.015
 5336TIP3    H116014   4.332   5.671   4.048
 5336TIP3    H216015   4.267   5.542   4.093
 5337TIP3   OH216016   2.544   1.332   1.638
 5337TIP3    H116017   2.619   1.388   1.658
 5337TIP3    H216018   2.526   1.348   1.545
 5338TIP3   OH216019   2.500   2.970   2.887
 5338TIP3    H116020   2.463   3.058   2.895
 5338TIP3    H216021   2.513   2.941   2.977
 5339TIP3   OH216022   4.789   4.877   2.199
 5339TIP3    H116023   4.717   4.900   2.141
 5339TIP3    H216024   4.864   4.862   2.140
 5340TIP3   OH216025   3.863   3.337   1.579
 5340TIP3    H116026   3.951   3.305   1.602
 5340TIP3    H216027   3.805   3.291   1.639
 5341TIP3   OH216028   1.798   5.543   3.229
 5341TIP3    H116029   1.743   5.539   3.308
 5341TIP3    H216030   1.791   5.455   3.191
 5342TIP3   OH216031   6.275   5.782   2.273
 5342TIP3    H116032   6.332   5.846   2.231
 5342TIP3    H216033   6.220   5.834   2.332
 5343TIP3   OH216034   0.337   3.680   0.481
 5343TIP3    H116035   0.367   3.766   0.510
 5343TIP3    H216036   0.330   3.629   0.562
 5344TIP3   OH216037   6.093   5.030   1.127
 5344TIP3    H116038   6.128   4.984   1.203
 5344TIP3    H216039   6.035   4.966   1.085
 5345TIP3   OH216040   4.419   2.842   4.539
 5345TIP3    H116041   4.463   2.890   4.610
 5345TIP3    H216042   4.427   2.900   4.463
 5346TIP3   OH216043   2.092   4.035   1.501
 5346TIP3    H116044   2.040   3.983   1.561
 5346TIP3    H216045   2.088   3.987   1.418
 5347TIP3   OH216046   1.783   3.116   0.850
 5347TIP3    H116047   1.736   3.046   0.894
 5347TIP3    H216048   1.715   3.176   0.821
 5348TIP3   OH216049   5.332   4.953   3.748
 5348TIP3    H116050   5.287   4.901   3.682
 5348TIP3    H216051   5.397   5.003   3.699
 5349TIP3   OH216052   0.234   2.981   4.354
 5349TIP3    H116053   0.322   2.946   4.346
 5349TIP3    H216054   0.211   2.969   4.447
 5350TIP3   OH216055   5.385   4.829   4.396
 5350TIP3    H116056   5.444   4.867   4.462
 5350TIP3    H216057   5.378   4.737   4.421
 5351TIP3   OH216058   1.969   2.266   4.298
 5351TIP3    H116059   2.059   2.275   4.265
 5351TIP3    H216060   1.945   2.355   4.324
 5352TIP3   OH216061   2.904   1.401   3.817
 5352TIP3    H116062   2.997   1.421   3.830
 5352TIP3    H216063   2.896   1.307   3.832
 5353TIP3   OH216064   5.902   5.128   1.494
 5353TIP3    H116065   5.886   5.041   1.530
 5353TIP3    H216066   5.832   5.183   1.531
 5354TIP3   OH216067   4.678   4.442   3.477
 5354TIP3    H116068   4.760   4.408   3.443
 5354TIP3    H216069   4.629   4.365   3.504
 5355TIP3   OH216070   3.082   0.833   3.825
 5355TIP3    H116071   3.159   0.885   3.849
 5355TIP3    H216072   3.034   0.889   3.764
 5356TIP3   OH216073   5.531   5.098   3.648
 5356TIP3    H116074   5.490   5.170   3.600
 5356TIP3    H216075   5.538   5.130   3.738
 5357TIP3   OH216076   3.880   3.593   1.399
 5357TIP3    H116077   3.791   3.590   1.363
 5357TIP3    H216078   3.905   3.501   1.408
 5358TIP3   OH216079   1.355   1.422   4.070
 5358TIP3    H116080   1.304   1.348   4.037
 5358TIP3    H216081   1.289   1.486   4.097
 5359TIP3   OH216082   4.644   4.462   2.899
 5359TIP3    H116083   4.656   4.394   2.965
 5359TIP3    H216084   4.719   4.521   2.912
 5360TIP3   OH216085   0.387   3.089   3.721
 5360TIP3    H116086   0.407   3.072   3.629
 5360TIP3    H216087   0.396   3.183   3.731
 5361TIP3   OH216088   2.553   1.700   3.900
 5361TIP3    H116089   2.507   1.714   3.817
 5361TIP3    H216090   2.535   1.608   3.922
 5362TIP3   OH216091   0.998   4.762   0.120
 5362TIP3    H116092   1.044   4.788   0.040
 5362TIP3    H216093   0.908   4.790   0.106
 5363TIP3   OH216094   2.227   4.150   2.982
 5363TIP3    H116095   2.194   4.062   2.965
 5363TIP3    H216096   2.261   4.147   3.072
 5364TIP3   OH216097   2.286   5.705   0.789
 5364TIP3    H116098   2.374   5.718   0.825
 5364TIP3    H216099   2.300   5.661   0.706
 5365TIP3   OH216100   3.588   5.768   3.166
 5365TIP3    H116101   3.514   5.746   3.223
 5365TIP3    H216102   3.617   5.854   3.198
 5366TIP3   OH216103   2.126   0.672   1.869
 5366TIP3    H116104   2.176   0.740   1.824
 5366TIP3    H216105   2.123   0.700   1.960
 5367TIP3   OH216106   5.476   5.453   3.727
 5367TIP3    H116107   5.459   5.440   3.633
 5367TIP3    H216108   5.571   5.455   3.734
 5368TIP3   OH216109   0.987   5.527   1.884
 5368TIP3    H116110   0.955   5.513   1.794
 5368TIP3    H216111   0.936   5.601   1.916
 5369TIP3   OH216112   4.160   1.676   4.795
 5369TIP3    H116113   4.247   1.684   4.755
 5369TIP3    H216114   4.107   1.633   4.728
 5370TIP3   OH216115   5.672   4.201   1.414
 5370TIP3    H116116   5.732   4.181   1.341
 5370TIP3    H216117   5.601   4.138   1.405
 5371TIP3   OH216118   3.720   0.489   3.962
 5371TIP3    H116119   3.782   0.500   4.034
 5371TIP3    H216120   3.733   0.567   3.907
 5372TIP3   OH216121   5.581   2.424   2.637
 5372TIP3    H116122   5.670   2.409   2.604
 5372TIP3    H216123   5.539   2.478   2.569
 5373TIP3   OH216124   4.334   5.568   2.989
 5373TIP3    H116125   4.404   5.556   3.054
 5373TIP3    H216126   4.339   5.660   2.966
 5374TIP3   OH216127   4.078   3.638   4.214
 5374TIP3    H116128   4.065   3.668   4.304
 5374TIP3    H216129   4.133   3.705   4.175
 5375TIP3   OH216130   1.910  -0.002   2.439
 5375TIP3    H116131   1.971   0.071   2.447
 5375TIP3    H216132   1.825   0.035   2.459
 5376TIP3   OH216133   3.397   5.275   4.769
 5376TIP3    H116134   3.373   5.225   4.847
 5376TIP3    H216135   3.473   5.327   4.797
 5377TIP3   OH216136   3.786   1.335   0.723
 5377TIP3    H116137   3.723   1.269   0.753
 5377TIP3    H216138   3.851   1.339   0.793
 5378TIP3   OH216139   0.424   1.809   0.487
 5378TIP3    H116140   0.478   1.783   0.561
 5378TIP3    H216141   0.358   1.740   0.479
 5379TIP3   OH216142   5.722   1.383   2.619
 5379TIP3    H116143   5.632   1.356   2.636
 5379TIP3    H216144   5.717   1.478   2.609
 5380TIP3   OH216145   4.827   3.907   1.855
 5380TIP3    H116146   4.850   3.998   1.872
 5380TIP3    H216147   4.757   3.887   1.916
 5381TIP3   OH216148   1.768   5.906   4.709
 5381TIP3    H116149   1.730   5.852   4.778
 5381TIP3    H216150   1.703   5.976   4.695
 5382TIP3   OH216151   1.367   1.295   3.088
 5382TIP3    H116152   1.456   1.261   3.098
 5382TIP3    H216153   1.374   1.389   3.104
 5383TIP3   OH216154   2.587   0.092   2.618
 5383TIP3    H116155   2.570   0.067   2.527
 5383TIP3    H216156   2.600   0.008   2.663
 5384TIP3   OH216157   0.443   0.196   3.121
 5384TIP3    H116158   0.471   0.191   3.030
 5384TIP3    H216159   0.362   0.145   3.124
 5385TIP3   OH216160   1.793   0.921   3.453
 5385TIP3    H116161   1.781   0.966   3.536
 5385TIP3    H216162   1.867   0.861   3.469
 5386TIP3   OH216163   5.144   3.298   3.882
 5386TIP3    H116164   5.225   3.273   3.837
 5386TIP3    H216165   5.171   3.314   3.972
 5387TIP3   OH216166   0.283   5.175   2.584
 5387TIP3    H116167   0.368   5.146   2.617
 5387TIP3    H216168   0.287   5.158   2.490
 5388TIP3   OH216169   5.666   5.581   2.522
 5388TIP3    H116170   5.728   5.526   2.474
 5388TIP3    H216171   5.605   5.518   2.561
 5389TIP3   OH216172   2.547   4.593   0.884
 5389TIP3    H116173   2.599   4.669   0.859
 5389TIP3    H216174   2.584   4.564   0.967
 5390TIP3   OH216175   1.334   3.525   4.587
 5390TIP3    H116176   1.276   3.593   4.621
 5390TIP3    H216177   1.326   3.453   4.650
 5391TIP3   OH216178   4.232   5.394   1.580
 5391TIP3    H116179   4.246   5.469   1.523
 5391TIP3    H216180   4.320   5.373   1.614
 5392TIP3   OH216181   4.161   2.425   2.838
 5392TIP3    H116182   4.141   2.390   2.925
 5392TIP3    H216183   4.100   2.381   2.779
 5393TIP3   OH216184   5.966   4.497   3.412
 5393TIP3    H116185   5.904   4.554   3.457
 5393TIP3    H216186   5.991   4.545   3.333
 5394TIP3   OH216187   5.060   1.740   2.827
 5394TIP3    H116188   5.130   1.805   2.832
 5394TIP3    H216189   5.104   1.657   2.843
 5395TIP3   OH216190   2.476   5.390   0.809
 5395TIP3    H116191   2.461   5.415   0.901
 5395TIP3    H216192   2.391   5.357   0.780
 5396TIP3   OH216193   1.849   3.902   4.245
 5396TIP3    H116194   1.892   3.839   4.187
 5396TIP3    H216195   1.801   3.959   4.187
 5397TIP3   OH216196   2.911   4.264   2.758
 5397TIP3    H116197   2.819   4.271   2.783
 5397TIP3    H216198   2.930   4.347   2.713
 5398TIP3   OH216199   2.646   0.535   3.062
 5398TIP3    H116200   2.643   0.547   3.156
 5398TIP3    H216201   2.644   0.440   3.049
 5399TIP3   OH216202   6.222   4.604   0.895
 5399TIP3    H116203   6.312   4.634   0.884
 5399TIP3    H216204   6.222   4.514   0.863
 5400TIP3   OH216205   2.264   0.415   1.291
 5400TIP3    H116206   2.173   0.393   1.271
 5400TIP3    H216207   2.272   0.399   1.385
 5401TIP3   OH216208   3.940   3.577   3.989
 5401TIP3    H116209   3.985   3.596   4.072
 5401TIP3    H216210   4.011   3.552   3.929
 5402TIP3   OH216211   3.722   4.423   1.448
 5402TIP3    H116212   3.735   4.450   1.357
 5402TIP3    H216213   3.795   4.365   1.467
 5403TIP3   OH216214   3.088   5.321   0.686
 5403TIP3    H116215   3.039   5.382   0.631
 5403TIP3    H216216   3.065   5.235   0.653
 5404TIP3   OH216217   6.000   1.283   4.705
 5404TIP3    H116218   6.008   1.208   4.646
 5404TIP3    H216219   6.090   1.311   4.720
 5405TIP3   OH216220   0.033   3.712   1.184
 5405TIP3    H116221  -0.021   3.634   1.196
 5405TIP3    H216222  -0.021   3.783   1.219
 5406TIP3   OH216223   3.214   4.264   2.172
 5406TIP3    H116224   3.199   4.222   2.087
 5406TIP3    H216225   3.159   4.342   2.171
 5407TIP3   OH216226   6.125   0.679   2.193
 5407TIP3    H116227   6.184   0.744   2.153
 5407TIP3    H216228   6.126   0.605   2.132
 5408TIP3   OH216229   4.298   2.578   3.129
 5408TIP3    H116230   4.215   2.571   3.081
 5408TIP3    H216231   4.272   2.579   3.222
 5409TIP3   OH216232   4.389   0.831   0.509
 5409TIP3    H116233   4.336   0.881   0.571
 5409TIP3    H216234   4.390   0.885   0.430
 5410TIP3   OH216235   2.355   4.249   1.370
 5410TIP3    H116236   2.377   4.230   1.279
 5410TIP3    H216237   2.345   4.163   1.411
 5411TIP3   OH216238   3.692   5.266   1.810
 5411TIP3    H116239   3.691   5.359   1.791
 5411TIP3    H216240   3.688   5.223   1.725
 5412TIP3   OH216241   4.403   2.540   3.973
 5412TIP3    H116242   4.318   2.497   3.965
 5412TIP3    H216243   4.381   2.630   3.998
 5413TIP3   OH216244   0.825   5.826   0.498
 5413TIP3    H116245   0.909   5.840   0.541
 5413TIP3    H216246   0.788   5.914   0.487
 5414TIP3   OH216247   5.031   0.222   4.730
 5414TIP3    H116248   4.967   0.150   4.727
 5414TIP3    H216249   4.978   0.301   4.726
 5415TIP3   OH216250   4.544   3.895   4.304
 5415TIP3    H116251   4.578   3.922   4.219
 5415TIP3    H216252   4.608   3.928   4.367
 5416TIP3   OH216253   4.668   3.395   3.613
 5416TIP3    H116254   4.664   3.305   3.579
 5416TIP3    H216255   4.762   3.412   3.624
 5417TIP3   OH216256   1.625   0.913   3.727
 5417TIP3    H116257   1.592   0.856   3.658
 5417TIP3    H216258   1.584   0.880   3.807
 5418TIP3   OH216259   4.804   0.541   3.999
 5418TIP3    H116260   4.849   0.459   4.018
 5418TIP3    H216261   4.718   0.513   3.965
 5419TIP3   OH216262   3.093   5.226   3.778
 5419TIP3    H116263   3.165   5.165   3.762
 5419TIP3    H216264   3.122   5.308   3.737
 5420TIP3   OH216265   0.026   3.735   0.751
 5420TIP3    H116266   0.011   3.823   0.784
 5420TIP3    H216267   0.001   3.739   0.659
 5421TIP3   OH216268   6.146   1.930   1.200
 5421TIP3    H116269   6.052   1.913   1.194
 5421TIP3    H216270   6.180   1.854   1.248
 5422TIP3   OH216271   1.051   0.327   2.109
 5422TIP3    H116272   0.995   0.326   2.187
 5422TIP3    H216273   0.990   0.331   2.036
 5423TIP3   OH216274   1.893   2.239   2.498
 5423TIP3    H116275   1.908   2.324   2.538
 5423TIP3    H216276   1.919   2.176   2.566
 5424TIP3   OH216277   5.217   1.809   0.159
 5424TIP3    H116278   5.188   1.898   0.137
 5424TIP3    H216279   5.179   1.753   0.091
 5425TIP3   OH216280   5.775   5.060   3.842
 5425TIP3    H116281   5.773   5.151   3.872
 5425TIP3    H216282   5.704   5.018   3.891
 5426TIP3   OH216283   1.561   2.567   0.604
 5426TIP3    H116284   1.654   2.546   0.619
 5426TIP3    H216285   1.513   2.494   0.644
 5427TIP3   OH216286   1.723   1.280   4.063
 5427TIP3    H116287   1.674   1.208   4.023
 5427TIP3    H216288   1.770   1.321   3.991
 5428TIP3   OH216289   2.600   4.603   3.373
 5428TIP3    H116290   2.604   4.513   3.339
 5428TIP3    H216291   2.671   4.608   3.436
 5429TIP3   OH216292   5.268   3.331   0.482
 5429TIP3    H116293   5.242   3.411   0.437
 5429TIP3    H216294   5.314   3.279   0.416
 5430TIP3   OH216295   3.507   2.790   3.083
 5430TIP3    H116296   3.537   2.874   3.118
 5430TIP3    H216297   3.414   2.786   3.107
 5431TIP3   OH216298   0.250   2.493   3.873
 5431TIP3    H116299   0.255   2.489   3.778
 5431TIP3    H216300   0.340   2.514   3.901
 5432TIP3   OH216301   0.668   1.724   2.970
 5432TIP3    H116302   0.624   1.749   2.888
 5432TIP3    H216303   0.719   1.801   2.994
 5433TIP3   OH216304   4.365   2.926   1.285
 5433TIP3    H116305   4.371   2.891   1.374
 5433TIP3    H216306   4.304   2.868   1.241
 5434TIP3   OH216307   1.922   4.394   1.213
 5434TIP3    H116308   1.848   4.431   1.165
 5434TIP3    H216309   1.897   4.303   1.230
 5435TIP3   OH216310   2.558   0.470   0.209
 5435TIP3    H116311   2.494   0.509   0.150
 5435TIP3    H216312   2.587   0.543   0.265
 5436TIP3   OH216313   0.583   0.450   2.180
 5436TIP3    H116314   0.563   0.539   2.154
 5436TIP3    H216315   0.612   0.457   2.271
 5437TIP3   OH216316   2.594   4.999   2.006
 5437TIP3    H116317   2.526   4.979   2.071
 5437TIP3    H216318   2.593   5.094   1.999
 5438TIP3   OH216319   1.998   0.353   3.281
 5438TIP3    H116320   2.004   0.311   3.195
 5438TIP3    H216321   1.905   0.346   3.304
 5439TIP3   OH216322   2.038   2.316   0.499
 5439TIP3    H116323   2.004   2.232   0.468
 5439TIP3    H216324   2.134   2.304   0.499
 5440TIP3   OH216325   5.811   4.042   2.112
 5440TIP3    H116326   5.741   4.094   2.073
 5440TIP3    H216327   5.854   4.000   2.037
 5441TIP3   OH216328   2.326   4.071   1.683
 5441TIP3    H116329   2.343   4.010   1.611
 5441TIP3    H216330   2.248   4.120   1.655
 5442TIP3   OH216331   5.075   0.922   2.838
 5442TIP3    H116332   5.009   0.965   2.783
 5442TIP3    H216333   5.024   0.866   2.897
 5443TIP3   OH216334   1.356   0.749   0.226
 5443TIP3    H116335   1.304   0.754   0.145
 5443TIP3    H216336   1.324   0.822   0.279
 5444TIP3   OH216337   0.994   2.843   3.069
 5444TIP3    H116338   0.968   2.757   3.102
 5444TIP3    H216339   1.055   2.876   3.136
 5445TIP3   OH216340   2.787   0.648   0.602
 5445TIP3    H116341   2.702   0.671   0.639
 5445TIP3    H216342   2.839   0.621   0.677
 5446TIP3   OH216343   4.255   2.823   0.826
 5446TIP3    H116344   4.266   2.766   0.750
 5446TIP3    H216345   4.292   2.907   0.797
 5447TIP3   OH216346   2.036   3.158   4.158
 5447TIP3    H116347   1.977   3.098   4.203
 5447TIP3    H216348   2.124   3.129   4.184
 5448TIP3   OH216349   2.137   0.528   3.074
 5448TIP3    H116350   2.113   0.497   3.161
 5448TIP3    H216351   2.164   0.448   3.027
 5449TIP3   OH216352   4.355   2.653   0.207
 5449TIP3    H116353   4.277   2.672   0.261
 5449TIP3    H216354   4.345   2.709   0.130
 5450TIP3   OH216355   5.594   4.095   0.399
 5450TIP3    H116356   5.531   4.138   0.340
 5450TIP3    H216357   5.541   4.066   0.473
 5451TIP3   OH216358   3.761   1.874   4.529
 5451TIP3    H116359   3.779   1.830   4.612
 5451TIP3    H216360   3.690   1.935   4.549
 5452TIP3   OH216361   2.119   3.773   2.664
 5452TIP3    H116362   2.055   3.812   2.605
 5452TIP3    H216363   2.106   3.678   2.654
 5453TIP3   OH216364   4.795   1.227   4.811
 5453TIP3    H116365   4.799   1.323   4.816
 5453TIP3    H216366   4.835   1.198   4.893
 5454TIP3   OH216367   3.335   0.917   4.814
 5454TIP3    H116368   3.401   0.967   4.863
 5454TIP3    H216369   3.269   0.894   4.880
 5455TIP3   OH216370   5.293   0.570   2.255
 5455TIP3    H116371   5.295   0.543   2.347
 5455TIP3    H216372   5.297   0.488   2.206
 5456TIP3   OH216373   4.544   2.850   3.223
 5456TIP3    H116374   4.632   2.869   3.191
 5456TIP3    H216375   4.513   2.934   3.259
 5457TIP3   OH216376   2.324   1.537   4.551
 5457TIP3    H116377   2.305   1.518   4.643
 5457TIP3    H216378   2.243   1.575   4.517
 5458TIP3   OH216379   1.095   5.664   1.209
 5458TIP3    H116380   1.003   5.685   1.222
 5458TIP3    H216381   1.124   5.722   1.138
 5459TIP3   OH216382   4.695   1.242   3.387
 5459TIP3    H116383   4.645   1.222   3.308
 5459TIP3    H216384   4.781   1.202   3.372
 5460TIP3   OH216385   6.226   0.774   4.049
 5460TIP3    H116386   6.292   0.748   4.113
 5460TIP3    H216387   6.195   0.692   4.011
 5461TIP3   OH216388   2.585   3.619   1.259
 5461TIP3    H116389   2.637   3.620   1.339
 5461TIP3    H216390   2.501   3.656   1.285
 5462TIP3   OH216391   6.030   4.310   3.065
 5462TIP3    H116392   5.966   4.240   3.049
 5462TIP3    H216393   6.062   4.333   2.977
 5463TIP3   OH216394   5.357   0.148   0.661
 5463TIP3    H116395   5.415   0.143   0.737
 5463TIP3    H216396   5.371   0.235   0.625
 5464TIP3   OH216397   5.210   2.920   4.638
 5464TIP3    H116398   5.140   2.985   4.630
 5464TIP3    H216399   5.285   2.959   4.593
 5465TIP3   OH216400   0.773   5.691   4.122
 5465TIP3    H116401   0.827   5.767   4.144
 5465TIP3    H216402   0.698   5.728   4.076
 5466TIP3   OH216403   5.180   0.563   0.554
 5466TIP3    H116404   5.202   0.510   0.477
 5466TIP3    H216405   5.220   0.516   0.627
 5467TIP3   OH216406   3.970   2.772   0.846
 5467TIP3    H116407   4.050   2.821   0.864
 5467TIP3    H216408   4.001   2.683   0.826
 5468TIP3   OH216409   2.734   5.282   0.885
 5468TIP3    H116410   2.676   5.219   0.928
 5468TIP3    H216411   2.675   5.346   0.846
 5469TIP3   OH216412   3.996   1.874   0.308
 5469TIP3    H116413   3.994   1.932   0.384
 5469TIP3    H216414   4.088   1.848   0.300
 5470TIP3   OH216415   5.534   2.049   2.358
 5470TIP3    H116416   5.482   2.118   2.399
 5470TIP3    H216417   5.560   2.085   2.273
 5471TIP3   OH216418   0.622   1.599   0.390
 5471TIP3    H116419   0.646   1.532   0.454
 5471TIP3    H216420   0.625   1.681   0.439
 5472TIP3   OH216421   3.171   5.106   2.022
 5472TIP3    H116422   3.238   5.038   2.013
 5472TIP3    H216423   3.160   5.142   1.934
 5473TIP3   OH216424   4.971   3.381   4.313
 5473TIP3    H116425   4.902   3.315   4.310
 5473TIP3    H216426   4.983   3.407   4.221
 5474TIP3   OH216427   3.718   5.715   3.803
 5474TIP3    H116428   3.755   5.783   3.861
 5474TIP3    H216429   3.783   5.706   3.733
 5475TIP3   OH216430   6.338   1.447   2.942
 5475TIP3    H116431   6.244   1.433   2.951
 5475TIP3    H216432   6.347   1.541   2.927
 5476TIP3   OH216433   2.455   1.628   0.032
 5476TIP3    H116434   2.479   1.552   0.085
 5476TIP3    H216435   2.516   1.626  -0.042
 5477TIP3   OH216436   2.778   3.175   3.681
 5477TIP3    H116437   2.848   3.152   3.620
 5477TIP3    H216438   2.823   3.222   3.751
 5478TIP3   OH216439   3.623   1.536   4.354
 5478TIP3    H116440   3.543   1.581   4.382
 5478TIP3    H216441   3.694   1.596   4.377
 5479TIP3   OH216442   1.954   4.198   4.125
 5479TIP3    H116443   1.868   4.158   4.110
 5479TIP3    H216444   1.992   4.147   4.197
 5480TIP3   OH216445   5.631   2.591   1.372
 5480TIP3    H116446   5.696   2.628   1.432
 5480TIP3    H216447   5.567   2.549   1.429
 5481TIP3   OH216448   4.019   1.023   2.836
 5481TIP3    H116449   4.106   1.053   2.862
 5481TIP3    H216450   4.014   0.933   2.870
 5482TIP3   OH216451   2.418   0.621   4.098
 5482TIP3    H116452   2.354   0.673   4.048
 5482TIP3    H216453   2.388   0.628   4.189
 5483TIP3   OH216454   2.030   1.254   0.815
 5483TIP3    H116455   1.987   1.332   0.780
 5483TIP3    H216456   2.123   1.267   0.796
 5484TIP3   OH216457   2.112   5.107   3.878
 5484TIP3    H116458   2.079   5.016   3.877
 5484TIP3    H216459   2.036   5.159   3.904
 5485TIP3   OH216460   4.764   1.511   1.642
 5485TIP3    H116461   4.759   1.422   1.608
 5485TIP3    H216462   4.688   1.556   1.605
 5486TIP3   OH216463   4.724   2.761   3.016
 5486TIP3    H116464   4.660   2.696   3.045
 5486TIP3    H216465   4.684   2.800   2.938
 5487TIP3   OH216466   1.817   1.910   1.300
 5487TIP3    H116467   1.755   1.953   1.241
 5487TIP3    H216468   1.888   1.881   1.243
 5488TIP3   OH216469   4.138   2.732   4.564
 5488TIP3    H116470   4.119   2.820   4.532
 5488TIP3    H216471   4.228   2.738   4.597
 5489TIP3   OH216472   2.405   1.950   4.086
 5489TIP3    H116473   2.394   2.045   4.095
 5489TIP3    H216474   2.318   1.918   4.064
 5490TIP3   OH216475   3.990   3.734   0.306
 5490TIP3    H116476   4.049   3.680   0.253
 5490TIP3    H216477   4.044   3.764   0.379
 5491TIP3   OH216478   4.605   2.934   1.180
 5491TIP3    H116479   4.515   2.940   1.211
 5491TIP3    H216480   4.602   2.869   1.111
 5492TIP3   OH216481   4.374   1.109   3.992
 5492TIP3    H116482   4.469   1.106   4.006
 5492TIP3    H216483   4.346   1.018   4.002
 5493TIP3   OH216484   4.948   1.951   4.795
 5493TIP3    H116485   4.876   1.909   4.747
 5493TIP3    H216486   5.010   1.977   4.727
 5494TIP3   OH216487   5.014   2.515   0.443
 5494TIP3    H116488   4.966   2.545   0.522
 5494TIP3    H216489   4.951   2.461   0.396
 5495TIP3   OH216490   6.256   3.018   2.636
 5495TIP3    H116491   6.289   3.072   2.707
 5495TIP3    H216492   6.303   3.048   2.558
 5496TIP3   OH216493   1.092   3.162   1.961
 5496TIP3    H116494   1.114   3.084   2.011
 5496TIP3    H216495   1.010   3.140   1.916
 5497TIP3   OH216496   5.062   4.213   3.963
 5497TIP3    H116497   5.122   4.139   3.955
 5497TIP3    H216498   5.085   4.270   3.889
 5498TIP3   OH216499   5.235   1.046   3.046
 5498TIP3    H116500   5.203   0.987   3.114
 5498TIP3    H216501   5.228   0.996   2.965
 5499TIP3   OH216502   5.549   3.405   0.821
 5499TIP3    H116503   5.639   3.428   0.846
 5499TIP3    H216504   5.506   3.383   0.904
 5500TIP3   OH216505   3.982   3.084   0.207
 5500TIP3    H116506   4.033   3.046   0.136
 5500TIP3    H216507   3.911   3.130   0.163
 5501TIP3   OH216508   4.783   0.937   4.847
 5501TIP3    H116509   4.775   1.031   4.832
 5501TIP3    H216510   4.694   0.908   4.867
 5502TIP3   OH216511   5.160   1.313   0.328
 5502TIP3    H116512   5.249   1.285   0.350
 5502TIP3    H216513   5.133   1.252   0.258
 5503TIP3   OH216514   3.046   5.668   0.066
 5503TIP3    H116515   2.997   5.643  -0.013
 5503TIP3    H216516   3.006   5.750   0.094
 5504TIP3   OH216517   5.209   5.655   0.915
 5504TIP3    H116518   5.261   5.669   0.836
 5504TIP3    H216519   5.233   5.727   0.973
 5505TIP3   OH216520   6.244   2.027   1.841
 5505TIP3    H116521   6.256   2.079   1.921
 5505TIP3    H216522   6.157   2.051   1.809
 5506TIP3   OH216523   0.437   4.588   3.306
 5506TIP3    H116524   0.375   4.657   3.330
 5506TIP3    H216525   0.384   4.525   3.256
 5507TIP3   OH216526   4.745   4.120   2.381
 5507TIP3    H116527   4.746   4.113   2.285
 5507TIP3    H216528   4.653   4.137   2.403
 5508TIP3   OH216529   3.905   5.476   4.186
 5508TIP3    H116530   3.858   5.415   4.130
 5508TIP3    H216531   3.844   5.495   4.258
 5509TIP3   OH216532   3.503   0.621   0.029
 5509TIP3    H116533   3.547   0.673   0.096
 5509TIP3    H216534   3.410   0.626   0.050
 5510TIP3   OH216535   3.267   5.104   1.358
 5510TIP3    H116536   3.284   5.150   1.440
 5510TIP3    H216537   3.353   5.079   1.325
 5511TIP3   OH216538   6.160   0.049   1.413
 5511TIP3    H116539   6.227  -0.018   1.429
 5511TIP3    H216540   6.207   0.119   1.367
 5512TIP3   OH216541   0.795   4.999   1.552
 5512TIP3    H116542   0.849   5.056   1.497
 5512TIP3    H216543   0.707   5.004   1.514
 5513TIP3   OH216544   3.392   2.969   3.363
 5513TIP3    H116545   3.408   2.876   3.379
 5513TIP3    H216546   3.338   2.998   3.436
 5514TIP3   OH216547   2.565   5.231   4.473
 5514TIP3    H116548   2.557   5.146   4.516
 5514TIP3    H216549   2.578   5.294   4.544
 5515TIP3   OH216550   0.317   3.541   4.380
 5515TIP3    H116551   0.239   3.576   4.424
 5515TIP3    H216552   0.333   3.457   4.423
 5516TIP3   OH216553   2.386   0.437   3.294
 5516TIP3    H116554   2.300   0.439   3.335
 5516TIP3    H216555   2.393   0.350   3.255
 5517TIP3   OH216556   1.911   4.806   2.023
 5517TIP3    H116557   1.842   4.764   2.076
 5517TIP3    H216558   1.925   4.745   1.951
 5518TIP3   OH216559   6.254   3.921   2.770
 5518TIP3    H116560   6.265   4.009   2.733
 5518TIP3    H216561   6.209   3.935   2.853
 5519TIP3   OH216562   2.396   0.248   0.099
 5519TIP3    H116563   2.478   0.295   0.110
 5519TIP3    H216564   2.418   0.176   0.039
 5520TIP3   OH216565   2.383   0.050   2.060
 5520TIP3    H116566   2.446  -0.003   2.108
 5520TIP3    H216567   2.387   0.017   1.970
 5521TIP3   OH216568   0.826   2.250   0.385
 5521TIP3    H116569   0.873   2.289   0.459
 5521TIP3    H216570   0.738   2.288   0.391
 5522TIP3   OH216571   1.862   3.137   1.333
 5522TIP3    H116572   1.779   3.184   1.340
 5522TIP3    H216573   1.928   3.203   1.349
 5523TIP3   OH216574   6.238   4.377   0.576
 5523TIP3    H116575   6.272   4.389   0.487
 5523TIP3    H216576   6.156   4.426   0.577
 5524TIP3   OH216577   5.043   1.762   1.946
 5524TIP3    H116578   5.021   1.704   1.873
 5524TIP3    H216579   5.110   1.820   1.910
 5525TIP3   OH216580   4.139   1.906   3.772
 5525TIP3    H116581   4.061   1.851   3.779
 5525TIP3    H216582   4.108   1.987   3.733
 5526TIP3   OH216583   0.138   0.717   4.135
 5526TIP3    H116584   0.194   0.644   4.108
 5526TIP3    H216585   0.145   0.718   4.231
 5527TIP3   OH216586   0.767   1.588   1.260
 5527TIP3    H116587   0.674   1.567   1.267
 5527TIP3    H216588   0.805   1.556   1.341
 5528TIP3   OH216589   3.831   0.694   4.746
 5528TIP3    H116590   3.854   0.742   4.667
 5528TIP3    H216591   3.735   0.687   4.743
 5529TIP3   OH216592   3.299   4.393   4.348
 5529TIP3    H116593   3.290   4.484   4.321
 5529TIP3    H216594   3.364   4.395   4.418
 5530TIP3   OH216595   3.579   3.219   1.330
 5530TIP3    H116596   3.551   3.195   1.242
 5530TIP3    H216597   3.665   3.178   1.340
 5531TIP3   OH216598   5.818   3.419   0.298
 5531TIP3    H116599   5.786   3.444   0.385
 5531TIP3    H216600   5.752   3.359   0.264
 5532TIP3   OH216601   5.519   2.178   4.493
 5532TIP3    H116602   5.460   2.108   4.522
 5532TIP3    H216603   5.521   2.240   4.565
 5533TIP3   OH216604   3.733   5.377   4.596
 5533TIP3    H116605   3.683   5.403   4.673
 5533TIP3    H216606   3.717   5.283   4.588
 5534TIP3   OH216607   1.796   3.847   2.790
 5534TIP3    H116608   1.726   3.868   2.852
 5534TIP3    H216609   1.876   3.847   2.843
 5535TIP3   OH216610   3.477   2.669   0.452
 5535TIP3    H116611   3.487   2.580   0.418
 5535TIP3    H216612   3.400   2.665   0.508
 5536TIP3   OH216613   3.641   0.587   3.532
 5536TIP3    H116614   3.548   0.588   3.510
 5536TIP3    H216615   3.669   0.497   3.518
 5537TIP3   OH216616   5.228   5.345   3.962
 5537TIP3    H116617   5.206   5.254   3.942
 5537TIP3    H216618   5.151   5.395   3.936
 5538TIP3   OH216619   0.169   1.901   3.560
 5538TIP3    H116620   0.246   1.957   3.554
 5538TIP3    H216621   0.174   1.862   3.648
 5539TIP3   OH216622   0.521   5.028   0.974
 5539TIP3    H116623   0.539   5.121   0.986
 5539TIP3    H216624   0.605   4.990   0.949
 5540TIP3   OH216625   2.339   5.288   1.214
 5540TIP3    H116626   2.249   5.286   1.248
 5540TIP3    H216627   2.348   5.207   1.165
 5541TIP3   OH216628   5.641   4.969   1.333
 5541TIP3    H116629   5.693   4.920   1.397
 5541TIP3    H216630   5.609   5.046   1.381
 5542TIP3   OH216631   3.525   4.326   0.972
 5542TIP3    H116632   3.471   4.347   1.048
 5542TIP3    H216633   3.465   4.287   0.910
 5543TIP3   OH216634   5.721   3.430   1.581
 5543TIP3    H116635   5.629   3.412   1.562
 5543TIP3    H216636   5.769   3.392   1.506
 5544TIP3   OH216637   1.219   3.444   2.357
 5544TIP3    H116638   1.234   3.539   2.357
 5544TIP3    H216639   1.228   3.419   2.449
 5545TIP3   OH216640   5.063   4.584   0.884
 5545TIP3    H116641   5.051   4.501   0.838
 5545TIP3    H216642   5.081   4.559   0.974
 5546TIP3   OH216643   6.280   1.542   3.641
 5546TIP3    H116644   6.368   1.525   3.674
 5546TIP3    H216645   6.229   1.466   3.671
 5547TIP3   OH216646   2.352   0.285   0.390
 5547TIP3    H116647   2.268   0.328   0.376
 5547TIP3    H216648   2.395   0.288   0.304
 5548TIP3   OH216649   3.708   3.916   3.592
 5548TIP3    H116650   3.615   3.916   3.570
 5548TIP3    H216651   3.750   3.959   3.517
 5549TIP3   OH216652   0.700   3.688   4.764
 5549TIP3    H116653   0.741   3.774   4.777
 5549TIP3    H216654   0.760   3.626   4.806
 5550TIP3   OH216655   0.847   4.251   3.958
 5550TIP3    H116656   0.872   4.229   4.048
 5550TIP3    H216657   0.834   4.167   3.915
 5551TIP3   OH216658   4.366   1.780   3.804
 5551TIP3    H116659   4.316   1.707   3.841
 5551TIP3    H216660   4.300   1.846   3.781
 5552TIP3   OH216661   6.050   5.271   3.274
 5552TIP3    H116662   6.129   5.300   3.229
 5552TIP3    H216663   6.039   5.180   3.247
 5553TIP3   OH216664   1.873   2.799   5.065
 5553TIP3    H116665   1.909   2.866   5.007
 5553TIP3    H216666   1.923   2.808   5.146
 5554TIP3   OH216667   1.362   2.141   0.129
 5554TIP3    H116668   1.289   2.178   0.080
 5554TIP3    H216669   1.338   2.153   0.221
 5555TIP3   OH216670   2.415   5.570   4.701
 5555TIP3    H116671   2.329   5.530   4.693
 5555TIP3    H216672   2.472   5.499   4.730
 5556TIP3   OH216673   0.339   1.421   4.599
 5556TIP3    H116674   0.286   1.418   4.678
 5556TIP3    H216675   0.425   1.453   4.628
 5557TIP3   OH216676   4.893   1.176   5.064
 5557TIP3    H116677   4.982   1.187   5.097
 5557TIP3    H216678   4.856   1.105   5.116
 5558TIP3   OH216679   0.005   4.134   1.909
 5558TIP3    H116680  -0.020   4.065   1.847
 5558TIP3    H216681   0.062   4.191   1.860
 5559TIP3   OH216682   6.126   5.640   1.879
 5559TIP3    H116683   6.207   5.671   1.919
 5559TIP3    H216684   6.061   5.707   1.901
 5560TIP3   OH216685   6.041   1.823   0.759
 5560TIP3    H116686   6.000   1.906   0.782
 5560TIP3    H216687   5.968   1.764   0.740
 5561TIP3   OH216688   5.711   1.481   0.311
 5561TIP3    H116689   5.692   1.572   0.336
 5561TIP3    H216690   5.728   1.485   0.217
 5562TIP3   OH216691   2.633   5.157   3.186
 5562TIP3    H116692   2.711   5.106   3.162
 5562TIP3    H216693   2.627   5.225   3.119
 5563TIP3   OH216694   2.133   5.507   2.489
 5563TIP3    H116695   2.161   5.494   2.399
 5563TIP3    H216696   2.093   5.424   2.514
 5564TIP3   OH216697   4.035   1.629   5.106
 5564TIP3    H116698   4.069   1.700   5.052
 5564TIP3    H216699   3.981   1.672   5.172
 5565TIP3   OH216700   0.949   3.994   2.169
 5565TIP3    H116701   0.896   4.073   2.163
 5565TIP3    H216702   0.979   3.992   2.260
 5566TIP3   OH216703   4.242   3.981   1.701
 5566TIP3    H116704   4.333   3.965   1.726
 5566TIP3    H216705   4.245   4.004   1.608
 5567TIP3   OH216706   4.470   2.150   5.053
 5567TIP3    H116707   4.385   2.179   5.087
 5567TIP3    H216708   4.479   2.060   5.085
 5568TIP3   OH216709   2.288   3.980   1.056
 5568TIP3    H116710   2.344   4.057   1.056
 5568TIP3    H216711   2.199   4.016   1.047
 5569TIP3   OH216712   3.761   1.842   0.155
 5569TIP3    H116713   3.841   1.840   0.207
 5569TIP3    H216714   3.701   1.898   0.204
 5570TIP3   OH216715   1.603   4.354   2.658
 5570TIP3    H116716   1.533   4.388   2.601
 5570TIP3    H216717   1.675   4.415   2.646
 5571TIP3   OH216718   3.130   3.475   4.285
 5571TIP3    H116719   3.092   3.388   4.299
 5571TIP3    H216720   3.213   3.458   4.241
 5572TIP3   OH216721   3.025   5.927   0.143
 5572TIP3    H116722   3.063   5.973   0.218
 5572TIP3    H216723   2.934   5.911   0.169
 5573TIP3   OH216724   0.942   2.990   0.858
 5573TIP3    H116725   0.887   3.029   0.790
 5573TIP3    H216726   0.962   2.902   0.826
 5574TIP3   OH216727   3.749   2.530   1.995
 5574TIP3    H116728   3.843   2.546   2.005
 5574TIP3    H216729   3.724   2.581   1.918
 5575TIP3   OH216730   2.152   5.534   3.839
 5575TIP3    H116731   2.068   5.496   3.866
 5575TIP3    H216732   2.209   5.459   3.827
 5576TIP3   OH216733   1.032   4.577   1.616
 5576TIP3    H116734   1.044   4.656   1.668
 5576TIP3    H216735   1.076   4.596   1.533
 5577TIP3   OH216736   6.197   5.143   4.243
 5577TIP3    H116737   6.186   5.237   4.260
 5577TIP3    H216738   6.118   5.118   4.195
 5578TIP3   OH216739   6.088   3.399   1.513
 5578TIP3    H116740   6.025   3.344   1.560
 5578TIP3    H216741   6.040   3.428   1.435
 5579TIP3   OH216742   5.572   5.608   0.105
 5579TIP3    H116743   5.605   5.577   0.190
 5579TIP3    H216744   5.512   5.679   0.127
 5580TIP3   OH216745   2.384   1.161   2.130
 5580TIP3    H116746   2.434   1.210   2.064
 5580TIP3    H216747   2.441   1.087   2.153
 5581TIP3   OH216748   6.031   2.675   0.701
 5581TIP3    H116749   5.960   2.635   0.650
 5581TIP3    H216750   6.100   2.609   0.701
 5582TIP3   OH216751   0.440   3.454   1.426
 5582TIP3    H116752   0.482   3.466   1.512
 5582TIP3    H216753   0.409   3.541   1.402
 5583TIP3   OH216754   5.940   3.389   4.269
 5583TIP3    H116755   5.998   3.397   4.194
 5583TIP3    H216756   5.909   3.478   4.286
 5584TIP3   OH216757   4.198   2.523   3.368
 5584TIP3    H116758   4.207   2.495   3.459
 5584TIP3    H216759   4.104   2.536   3.356
 5585TIP3   OH216760   0.206   1.894   1.291
 5585TIP3    H116761   0.127   1.946   1.275
 5585TIP3    H216762   0.256   1.900   1.209
 5586TIP3   OH216763   3.834   5.680   4.586
 5586TIP3    H116764   3.862   5.770   4.601
 5586TIP3    H216765   3.903   5.627   4.627
 5587TIP3   OH216766   1.433   2.326   0.716
 5587TIP3    H116767   1.455   2.287   0.800
 5587TIP3    H216768   1.348   2.368   0.730
 5588TIP3   OH216769   4.115   2.347   3.114
 5588TIP3    H116770   4.151   2.387   3.193
 5588TIP3    H216771   4.023   2.372   3.113
 5589TIP3   OH216772   6.155   3.029   3.130
 5589TIP3    H116773   6.227   2.983   3.087
 5589TIP3    H216774   6.133   3.100   3.070
 5590TIP3   OH216775   4.259   3.325   3.457
 5590TIP3    H116776   4.293   3.283   3.537
 5590TIP3    H216777   4.241   3.415   3.484
 5591TIP3   OH216778   6.168   2.108   0.258
 5591TIP3    H116779   6.262   2.123   0.264
 5591TIP3    H216780   6.130   2.196   0.251
 5592TIP3   OH216781   1.684   2.121   2.872
 5592TIP3    H116782   1.770   2.116   2.830
 5592TIP3    H216783   1.702   2.154   2.960
 5593TIP3   OH216784   4.997   4.969   3.302
 5593TIP3    H116785   5.086   4.954   3.268
 5593TIP3    H216786   4.989   4.908   3.375
 5594TIP3   OH216787   5.396   1.334   0.818
 5594TIP3    H116788   5.305   1.365   0.809
 5594TIP3    H216789   5.413   1.288   0.736
 5595TIP3   OH216790   3.653   3.657   0.679
 5595TIP3    H116791   3.697   3.620   0.602
 5595TIP3    H216792   3.586   3.592   0.702
 5596TIP3   OH216793   3.652   3.605   1.219
 5596TIP3    H116794   3.593   3.546   1.172
 5596TIP3    H216795   3.656   3.683   1.165
 5597TIP3   OH216796   4.270   4.444   4.823
 5597TIP3    H116797   4.271   4.493   4.905
 5597TIP3    H216798   4.292   4.354   4.848
 5598TIP3   OH216799   5.417   4.603   2.973
 5598TIP3    H116800   5.327   4.636   2.977
 5598TIP3    H216801   5.439   4.607   2.879
 5599TIP3   OH216802   0.096   4.167   1.230
 5599TIP3    H116803   0.150   4.132   1.301
 5599TIP3    H216804   0.128   4.257   1.218
 5600TIP3   OH216805   5.780   4.370   2.618
 5600TIP3    H116806   5.721   4.429   2.571
 5600TIP3    H216807   5.836   4.332   2.549
 5601TIP3   OH216808   4.129   2.627   1.410
 5601TIP3    H116809   4.191   2.689   1.449
 5601TIP3    H216810   4.061   2.616   1.477
 5602TIP3   OH216811   5.807   0.792   0.822
 5602TIP3    H116812   5.841   0.865   0.771
 5602TIP3    H216813   5.757   0.740   0.759
 5603TIP3   OH216814   4.477   3.992   1.484
 5603TIP3    H116815   4.552   3.969   1.429
 5603TIP3    H216816   4.500   4.076   1.524
 5604TIP3   OH216817   2.081   2.015   2.963
 5604TIP3    H116818   2.053   2.107   2.960
 5604TIP3    H216819   2.072   1.990   3.055
 5605TIP3   OH216820   1.113   2.881   1.696
 5605TIP3    H116821   1.078   2.792   1.693
 5605TIP3    H216822   1.061   2.930   1.631
 5606TIP3   OH216823   1.992   1.422   1.532
 5606TIP3    H116824   2.029   1.511   1.532
 5606TIP3    H216825   1.930   1.423   1.459
 5607TIP3   OH216826   0.304   2.887   3.906
 5607TIP3    H116827   0.211   2.875   3.890
 5607TIP3    H216828   0.325   2.970   3.864
 5608TIP3   OH216829   3.816   0.340   3.487
 5608TIP3    H116830   3.884   0.282   3.453
 5608TIP3    H216831   3.747   0.281   3.516
 5609TIP3   OH216832   5.694   4.742   1.154
 5609TIP3    H116833   5.773   4.783   1.119
 5609TIP3    H216834   5.651   4.812   1.202
 5610TIP3   OH216835   4.270   2.712   2.790
 5610TIP3    H116836   4.206   2.783   2.793
 5610TIP3    H216837   4.223   2.636   2.824
 5611TIP3   OH216838   4.251   5.807   0.764
 5611TIP3    H116839   4.239   5.767   0.850
 5611TIP3    H216840   4.297   5.889   0.783
 5612TIP3   OH216841   0.169   1.448   5.095
 5612TIP3    H116842   0.235   1.481   5.155
 5612TIP3    H216843   0.098   1.418   5.151
 5613TIP3   OH216844   4.754   0.080   4.693
 5613TIP3    H116845   4.747   0.160   4.641
 5613TIP3    H216846   4.711   0.013   4.639
 5614TIP3   OH216847   0.952   0.978   3.620
 5614TIP3    H116848   1.015   1.049   3.604
 5614TIP3    H216849   0.882   1.019   3.671
 5615TIP3   OH216850   5.822   3.797   3.335
 5615TIP3    H116851   5.730   3.778   3.316
 5615TIP3    H216852   5.865   3.712   3.338
 5616TIP3   OH216853   4.422   1.412   3.353
 5616TIP3    H116854   4.461   1.499   3.354
 5616TIP3    H216855   4.354   1.415   3.420
 5617TIP3   OH216856   2.676   0.952   4.469
 5617TIP3    H116857   2.758   0.994   4.497
 5617TIP3    H216858   2.653   0.996   4.388
 5618TIP3   OH216859   2.451   3.954   4.780
 5618TIP3    H116860   2.500   4.004   4.715
 5618TIP3    H216861   2.496   3.869   4.783
 5619TIP3   OH216862   5.268   2.936   1.987
 5619TIP3    H116863   5.273   3.020   2.033
 5619TIP3    H216864   5.327   2.879   2.035
 5620TIP3   OH216865   0.888   5.869   4.807
 5620TIP3    H116866   0.905   5.794   4.863
 5620TIP3    H216867   0.904   5.837   4.718
 5621TIP3   OH216868   0.963   3.175   4.304
 5621TIP3    H116869   0.942   3.087   4.274
 5621TIP3    H216870   1.058   3.175   4.313
 5622TIP3   OH216871   3.486   1.655   2.965
 5622TIP3    H116872   3.547   1.596   3.008
 5622TIP3    H216873   3.476   1.620   2.877
 5623TIP3   OH216874   1.859   1.861   3.340
 5623TIP3    H116875   1.763   1.862   3.337
 5623TIP3    H216876   1.880   1.853   3.433
 5624TIP3   OH216877   3.861   4.244   4.321
 5624TIP3    H116878   3.779   4.280   4.287
 5624TIP3    H216879   3.877   4.294   4.401
 5625TIP3   OH216880   3.526   1.298   1.180
 5625TIP3    H116881   3.483   1.264   1.102
 5625TIP3    H216882   3.576   1.373   1.149
 5626TIP3   OH216883   5.015   3.885   2.170
 5626TIP3    H116884   4.947   3.825   2.138
 5626TIP3    H216885   5.000   3.966   2.121
 5627TIP3   OH216886   1.472   0.349   3.410
 5627TIP3    H116887   1.395   0.367   3.356
 5627TIP3    H216888   1.478   0.424   3.470
 5628TIP3   OH216889   3.087   2.259   1.467
 5628TIP3    H116890   2.999   2.282   1.438
 5628TIP3    H216891   3.141   2.334   1.441
 5629TIP3   OH216892   4.075   4.460   3.812
 5629TIP3    H116893   4.084   4.372   3.848
 5629TIP3    H216894   3.993   4.493   3.849
 5630TIP3   OH216895   1.656   1.903   2.233
 5630TIP3    H116896   1.722   1.836   2.215
 5630TIP3    H216897   1.707   1.980   2.260
 5631TIP3   OH216898   3.844   1.369   1.328
 5631TIP3    H116899   3.843   1.274   1.341
 5631TIP3    H216900   3.864   1.380   1.235
 5632TIP3   OH216901   0.290   1.521   0.446
 5632TIP3    H116902   0.198   1.545   0.459
 5632TIP3    H216903   0.297   1.497   0.354
 5633TIP3   OH216904   2.290   0.164   4.661
 5633TIP3    H116905   2.260   0.231   4.722
 5633TIP3    H216906   2.318   0.091   4.716
 5634TIP3   OH216907   2.566   4.989   2.396
 5634TIP3    H116908   2.629   5.060   2.409
 5634TIP3    H216909   2.503   5.023   2.333
 5635TIP3   OH216910   3.243   2.346   1.792
 5635TIP3    H116911   3.195   2.420   1.756
 5635TIP3    H216912   3.325   2.384   1.824
 5636TIP3   OH216913   4.856   2.613   3.598
 5636TIP3    H116914   4.907   2.608   3.517
 5636TIP3    H216915   4.790   2.680   3.581
 5637TIP3   OH216916   5.828   3.208   2.405
 5637TIP3    H116917   5.807   3.124   2.365
 5637TIP3    H216918   5.920   3.202   2.429
 5638TIP3   OH216919   3.443   2.738   4.864
 5638TIP3    H116920   3.477   2.798   4.930
 5638TIP3    H216921   3.408   2.663   4.913
 5639TIP3   OH216922   0.734   3.356   1.525
 5639TIP3    H116923   0.675   3.416   1.570
 5639TIP3    H216924   0.676   3.296   1.478
 5640TIP3   OH216925   5.989   1.035   2.688
 5640TIP3    H116926   6.065   1.058   2.742
 5640TIP3    H216927   5.995   1.093   2.612
 5641TIP3   OH216928   3.651   3.885   4.193
 5641TIP3    H116929   3.601   3.853   4.117
 5641TIP3    H216930   3.651   3.980   4.182
 5642TIP3   OH216931   3.285   5.922   2.974
 5642TIP3    H116932   3.197   5.930   2.937
 5642TIP3    H216933   3.332   5.998   2.940
 5643TIP3   OH216934   1.965   2.816   4.157
 5643TIP3    H116935   2.010   2.807   4.241
 5643TIP3    H216936   1.894   2.877   4.174
 5644TIP3   OH216937   6.040   2.689   1.684
 5644TIP3    H116938   5.946   2.674   1.695
 5644TIP3    H216939   6.081   2.634   1.751
 5645TIP3   OH216940   0.536   5.980   3.397
 5645TIP3    H116941   0.506   6.054   3.451
 5645TIP3    H216942   0.571   5.917   3.459
 5646TIP3   OH216943   5.789   4.291   4.852
 5646TIP3    H116944   5.864   4.341   4.820
 5646TIP3    H216945   5.811   4.270   4.943
 5647TIP3   OH216946   3.360   0.737   1.884
 5647TIP3    H116947   3.270   0.704   1.891
 5647TIP3    H216948   3.394   0.733   1.973
 5648TIP3   OH216949   0.495   2.904   0.191
 5648TIP3    H116950   0.589   2.891   0.177
 5648TIP3    H216951   0.475   2.985   0.143
 5649TIP3   OH216952   0.269   0.097   0.671
 5649TIP3    H116953   0.322   0.175   0.684
 5649TIP3    H216954   0.206   0.098   0.742
 5650TIP3   OH216955   1.011   2.038   0.181
 5650TIP3    H116956   1.065   2.102   0.228
 5650TIP3    H216957   1.058   1.955   0.190
 5651TIP3   OH216958   2.179   4.419   2.921
 5651TIP3    H116959   2.212   4.330   2.935
 5651TIP3    H216960   2.105   4.408   2.861
 5652TIP3   OH216961   2.444   2.356   2.281
 5652TIP3    H116962   2.382   2.285   2.264
 5652TIP3    H216963   2.390   2.427   2.316
 5653TIP3   OH216964   1.602   3.136   1.807
 5653TIP3    H116965   1.675   3.090   1.765
 5653TIP3    H216966   1.567   3.192   1.738
 5654TIP3   OH216967   6.221   5.282   2.921
 5654TIP3    H116968   6.274   5.211   2.884
 5654TIP3    H216969   6.239   5.278   3.015
 5655TIP3   OH216970  -0.015   5.335   3.183
 5655TIP3    H116971   0.064   5.337   3.128
 5655TIP3    H216972   0.009   5.277   3.255
 5656TIP3   OH216973   4.864   2.267   4.654
 5656TIP3    H116974   4.952   2.259   4.692
 5656TIP3    H216975   4.805   2.271   4.729
 5657TIP3   OH216976   0.781   3.923   0.168
 5657TIP3    H116977   0.739   3.927   0.082
 5657TIP3    H216978   0.707   3.925   0.230
 5658TIP3   OH216979   2.236   4.092   4.859
 5658TIP3    H116980   2.171   4.024   4.874
 5658TIP3    H216981   2.308   4.048   4.815
 5659TIP3   OH216982   5.167   1.793   4.541
 5659TIP3    H116983   5.149   1.785   4.447
 5659TIP3    H216984   5.118   1.870   4.568
 5660TIP3   OH216985   1.091   5.587   3.077
 5660TIP3    H116986   1.167   5.646   3.080
 5660TIP3    H216987   1.065   5.578   3.169
 5661TIP3   OH216988   1.862   0.601   1.525
 5661TIP3    H116989   1.767   0.597   1.521
 5661TIP3    H216990   1.891   0.561   1.443
 5662TIP3   OH216991   3.256   3.977   0.341
 5662TIP3    H116992   3.240   3.904   0.401
 5662TIP3    H216993   3.301   3.937   0.267
 5663TIP3   OH216994   0.550   3.492   1.673
 5663TIP3    H116995   0.596   3.575   1.658
 5663TIP3    H216996   0.485   3.513   1.740
 5664TIP3   OH216997   5.157   4.406   2.942
 5664TIP3    H116998   5.188   4.365   3.023
 5664TIP3    H216999   5.213   4.370   2.874
 5665TIP3   OH217000   3.893   5.679   3.013
 5665TIP3    H117001   3.900   5.597   2.966
 5665TIP3    H217002   3.980   5.693   3.051
 5666TIP3   OH217003   3.228   4.317   1.463
 5666TIP3    H117004   3.132   4.311   1.463
 5666TIP3    H217005   3.246   4.409   1.442
 5667TIP3   OH217006   3.007   1.798   2.331
 5667TIP3    H117007   2.997   1.885   2.370
 5667TIP3    H217008   3.071   1.754   2.387
 5668TIP3   OH217009   0.736   5.243   0.263
 5668TIP3    H117010   0.678   5.169   0.242
 5668TIP3    H217011   0.823   5.203   0.268
 5669TIP3   OH217012   3.518   0.378   2.101
 5669TIP3    H117013   3.470   0.387   2.019
 5669TIP3    H217014   3.610   0.392   2.076
 5670TIP3   OH217015   4.441   4.212   4.415
 5670TIP3    H117016   4.481   4.163   4.342
 5670TIP3    H217017   4.348   4.189   4.411
 5671TIP3   OH217018   4.243   5.257   4.872
 5671TIP3    H117019   4.228   5.324   4.806
 5671TIP3    H217020   4.294   5.301   4.940
 5672TIP3   OH217021   1.381   0.583   5.193
 5672TIP3    H117022   1.438   0.627   5.130
 5672TIP3    H217023   1.297   0.627   5.185
 5673TIP3   OH217024   0.632   2.805   1.008
 5673TIP3    H117025   0.571   2.842   1.071
 5673TIP3    H217026   0.718   2.814   1.050
 5674TIP3   OH217027   0.051   2.196   2.954
 5674TIP3    H117028   0.133   2.231   2.989
 5674TIP3    H217029   0.073   2.165   2.866
 5675TIP3   OH217030   0.006   3.200   3.826
 5675TIP3    H117031   0.089   3.200   3.777
 5675TIP3    H217032   0.011   3.123   3.881
 5676TIP3   OH217033   1.388   4.657   3.027
 5676TIP3    H117034   1.434   4.701   2.956
 5676TIP3    H217035   1.333   4.592   2.983
 5677TIP3   OH217036  -0.009   1.105   3.869
 5677TIP3    H117037   0.062   1.043   3.851
 5677TIP3    H217038   0.031   1.191   3.857
 5678TIP3   OH217039   6.298   0.360   3.419
 5678TIP3    H117040   6.215   0.330   3.458
 5678TIP3    H217041   6.280   0.450   3.391
 5679TIP3   OH217042   1.522   0.206   1.267
 5679TIP3    H117043   1.531   0.118   1.304
 5679TIP3    H217044   1.501   0.192   1.175
 5680TIP3   OH217045   6.066   0.900   1.836
 5680TIP3    H117046   6.042   0.810   1.859
 5680TIP3    H217047   6.060   0.903   1.740
 5681TIP3   OH217048   4.261   3.437   0.900
 5681TIP3    H117049   4.326   3.367   0.899
 5681TIP3    H217050   4.185   3.400   0.857
 5682TIP3   OH217051   1.997   0.652   3.412
 5682TIP3    H117052   2.079   0.610   3.435
 5682TIP3    H217053   1.931   0.582   3.419
 5683TIP3   OH217054   0.704   3.158   3.014
 5683TIP3    H117055   0.787   3.133   3.055
 5683TIP3    H217056   0.715   3.137   2.922
 5684TIP3   OH217057   0.132   1.924   4.801
 5684TIP3    H117058   0.198   1.966   4.745
 5684TIP3    H217059   0.174   1.843   4.830
 5685TIP3   OH217060   1.738   1.164   2.408
 5685TIP3    H117061   1.652   1.149   2.369
 5685TIP3    H217062   1.769   1.077   2.432
 5686TIP3   OH217063   2.986   4.818   1.149
 5686TIP3    H117064   2.993   4.904   1.192
 5686TIP3    H217065   3.076   4.791   1.134
 5687TIP3   OH217066   1.394   0.453   2.998
 5687TIP3    H117067   1.460   0.385   3.006
 5687TIP3    H217068   1.436   0.523   2.948
 5688TIP3   OH217069   0.267   5.758   0.892
 5688TIP3    H117070   0.239   5.688   0.834
 5688TIP3    H217071   0.349   5.726   0.931
 5689TIP3   OH217072   2.587   1.233   0.434
 5689TIP3    H117073   2.591   1.142   0.406
 5689TIP3    H217074   2.666   1.245   0.488
 5690TIP3   OH217075   6.165   5.606   0.637
 5690TIP3    H117076   6.122   5.644   0.713
 5690TIP3    H217077   6.252   5.583   0.667
 5691TIP3   OH217078   4.293   2.173   3.966
 5691TIP3    H117079   4.321   2.154   3.877
 5691TIP3    H217080   4.369   2.153   4.020
 5692TIP3   OH217081   6.235   3.049   0.423
 5692TIP3    H117082   6.305   2.997   0.383
 5692TIP3    H217083   6.154   3.007   0.395
 5693TIP3   OH217084   1.642   4.808   2.489
 5693TIP3    H117085   1.709   4.837   2.426
 5693TIP3    H217086   1.587   4.885   2.502
 5694TIP3   OH217087   0.308   1.946   1.880
 5694TIP3    H117088   0.281   2.022   1.931
 5694TIP3    H217089   0.291   1.871   1.937
 5695TIP3   OH217090   4.910   0.730   4.189
 5695TIP3    H117091   4.892   0.800   4.127
 5695TIP3    H217092   4.871   0.652   4.150
 5696TIP3   OH217093   2.422   1.364   2.520
 5696TIP3    H117094   2.465   1.318   2.448
 5696TIP3    H217095   2.394   1.447   2.482
 5697TIP3   OH217096   5.059   0.989   2.073
 5697TIP3    H117097   5.060   1.079   2.041
 5697TIP3    H217098   5.077   0.936   1.996
 5698TIP3   OH217099   1.319   2.082   4.993
 5698TIP3    H117100   1.230   2.112   4.976
 5698TIP3    H217101   1.351   2.054   4.907
 5699TIP3   OH217102   3.025   2.920   3.692
 5699TIP3    H117103   2.975   2.846   3.656
 5699TIP3    H217104   3.105   2.880   3.726
 5700TIP3   OH217105   3.048   4.472   3.757
 5700TIP3    H117106   2.989   4.408   3.716
 5700TIP3    H217107   2.999   4.554   3.757
 5701TIP3   OH217108   1.007   0.713   0.516
 5701TIP3    H117109   0.991   0.625   0.550
 5701TIP3    H217110   0.925   0.739   0.476
 5702TIP3   OH217111   1.725   4.383   1.958
 5702TIP3    H117112   1.766   4.398   1.873
 5702TIP3    H217113   1.666   4.457   1.971
 5703TIP3   OH217114   3.570   4.142   4.454
 5703TIP3    H117115   3.642   4.190   4.413
 5703TIP3    H217116   3.515   4.210   4.493
 5704TIP3   OH217117   5.852   2.309   0.410
 5704TIP3    H117118   5.943   2.316   0.380
 5704TIP3    H217119   5.846   2.222   0.449
 5705TIP3   OH217120   1.676   1.178   4.379
 5705TIP3    H117121   1.621   1.165   4.302
 5705TIP3    H217122   1.700   1.090   4.407
 5706TIP3   OH217123   3.187   0.326   4.128
 5706TIP3    H117124   3.214   0.282   4.048
 5706TIP3    H217125   3.201   0.419   4.111
 5707TIP3   OH217126   5.320   5.735   2.696
 5707TIP3    H117127   5.233   5.740   2.656
 5707TIP3    H217128   5.378   5.773   2.630
 5708TIP3   OH217129   2.370   0.376   1.825
 5708TIP3    H117130   2.282   0.411   1.838
 5708TIP3    H217131   2.364   0.284   1.851
 5709TIP3   OH217132   6.171   1.125   2.875
 5709TIP3    H117133   6.184   1.113   2.970
 5709TIP3    H217134   6.257   1.107   2.837
 5710TIP3   OH217135   0.288   5.021   1.643
 5710TIP3    H117136   0.302   4.959   1.572
 5710TIP3    H217137   0.223   5.083   1.608
 5711TIP3   OH217138   3.695   1.103   4.655
 5711TIP3    H117139   3.649   1.057   4.584
 5711TIP3    H217140   3.737   1.178   4.611
 5712TIP3   OH217141   2.413   2.794   0.187
 5712TIP3    H117142   2.323   2.765   0.199
 5712TIP3    H217143   2.422   2.807   0.092
 5713TIP3   OH217144   5.617   0.007   2.167
 5713TIP3    H117145   5.644  -0.083   2.153
 5713TIP3    H217146   5.593   0.038   2.079
 5714TIP3   OH217147   0.788   2.098   3.684
 5714TIP3    H117148   0.764   2.174   3.736
 5714TIP3    H217149   0.876   2.118   3.651
 5715TIP3   OH217150   1.058   4.761   2.081
 5715TIP3    H117151   1.060   4.773   1.986
 5715TIP3    H217152   1.127   4.819   2.114
 5716TIP3   OH217153   5.495   0.126   0.277
 5716TIP3    H117154   5.543   0.118   0.359
 5716TIP3    H217155   5.546   0.076   0.213
 5717TIP3   OH217156   4.029   0.911   3.194
 5717TIP3    H117157   3.949   0.941   3.238
 5717TIP3    H217158   4.098   0.927   3.259
 5718TIP3   OH217159   5.859   3.990   4.299
 5718TIP3    H117160   5.949   3.959   4.294
 5718TIP3    H217161   5.848   4.017   4.390
 5719TIP3   OH217162   4.091   3.205   1.733
 5719TIP3    H117163   4.062   3.246   1.814
 5719TIP3    H217164   4.170   3.253   1.709
 5720TIP3   OH217165   6.085   5.257   0.709
 5720TIP3    H117166   6.034   5.317   0.656
 5720TIP3    H217167   6.156   5.227   0.652
 5721TIP3   OH217168   1.549   0.337   0.463
 5721TIP3    H117169   1.503   0.392   0.398
 5721TIP3    H217170   1.634   0.319   0.423
 5722TIP3   OH217171   3.038   2.045   3.168
 5722TIP3    H117172   3.103   2.107   3.135
 5722TIP3    H217173   3.057   1.963   3.122
 5723TIP3   OH217174   0.012   1.720   2.909
 5723TIP3    H117175   0.048   1.808   2.921
 5723TIP3    H217176  -0.037   1.725   2.827
 5724TIP3   OH217177   4.689   3.704   1.103
 5724TIP3    H117178   4.603   3.701   1.061
 5724TIP3    H217179   4.670   3.725   1.195
 5725TIP3   OH217180   1.877   5.612   2.885
 5725TIP3    H117181   1.928   5.672   2.939
 5725TIP3    H217182   1.905   5.525   2.915
 5726TIP3   OH217183   2.325   2.391   0.124
 5726TIP3    H117184   2.316   2.303   0.163
 5726TIP3    H217185   2.292   2.450   0.191
 5727TIP3   OH217186   4.135   1.561   2.095
 5727TIP3    H117187   4.056   1.588   2.049
 5727TIP3    H217188   4.159   1.637   2.148
 5728TIP3   OH217189   5.752   5.741   3.699
 5728TIP3    H117190   5.682   5.805   3.697
 5728TIP3    H217191   5.800   5.754   3.617
 5729TIP3   OH217192   5.687   5.263   0.265
 5729TIP3    H117193   5.635   5.343   0.273
 5729TIP3    H217194   5.627   5.193   0.291
 5730TIP3   OH217195   5.108   3.493   2.184
 5730TIP3    H117196   5.167   3.563   2.156
 5730TIP3    H217197   5.029   3.538   2.213
 5731TIP3   OH217198   1.027   0.375   0.040
 5731TIP3    H117199   1.101   0.333   0.083
 5731TIP3    H217200   0.965   0.392   0.111
 5732TIP3   OH217201   3.135   5.065   2.690
 5732TIP3    H117202   3.120   5.063   2.785
 5732TIP3    H217203   3.222   5.026   2.679
 5733TIP3   OH217204   6.260   2.835   2.354
 5733TIP3    H117205   6.347   2.855   2.389
 5733TIP3    H217206   6.202   2.842   2.429
 5734TIP3   OH217207   2.475   2.040   4.352
 5734TIP3    H117208   2.425   2.089   4.287
 5734TIP3    H217209   2.541   1.994   4.301
 5735TIP3   OH217210   2.258   3.524   0.197
 5735TIP3    H117211   2.279   3.464   0.125
 5735TIP3    H217212   2.341   3.568   0.216
 5736TIP3   OH217213   5.701   5.321   1.336
 5736TIP3    H117214   5.794   5.305   1.321
 5736TIP3    H217215   5.688   5.305   1.429
 5737TIP3   OH217216   2.003   0.800   0.173
 5737TIP3    H117217   2.000   0.707   0.150
 5737TIP3    H217218   2.059   0.840   0.106
 5738TIP3   OH217219   1.435   3.519   1.835
 5738TIP3    H117220   1.397   3.557   1.756
 5738TIP3    H217221   1.445   3.426   1.815
 5739TIP3   OH217222   5.667   3.533   3.948
 5739TIP3    H117223   5.612   3.573   3.880
 5739TIP3    H217224   5.634   3.570   4.030
 5740TIP3   OH217225   0.748   4.409   4.761
 5740TIP3    H117226   0.683   4.414   4.831
 5740TIP3    H217227   0.738   4.491   4.713
 5741TIP3   OH217228   3.144   3.994   3.148
 5741TIP3    H117229   3.168   4.035   3.231
 5741TIP3    H217230   3.076   4.051   3.113
 5742TIP3   OH217231   1.813   2.505   4.710
 5742TIP3    H117232   1.785   2.576   4.768
 5742TIP3    H217233   1.889   2.540   4.664
 5743TIP3   OH217234   5.260   1.072   4.529
 5743TIP3    H117235   5.182   1.028   4.495
 5743TIP3    H217236   5.324   1.066   4.457
 5744TIP3   OH217237   2.089   2.254   4.647
 5744TIP3    H117238   2.173   2.231   4.606
 5744TIP3    H217239   2.045   2.309   4.582
 5745TIP3   OH217240   3.731   1.353   1.569
 5745TIP3    H117241   3.798   1.346   1.501
 5745TIP3    H217242   3.700   1.444   1.562
 5746TIP3   OH217243   1.600   1.302   1.441
 5746TIP3    H117244   1.573   1.249   1.516
 5746TIP3    H217245   1.533   1.286   1.374
 5747TIP3   OH217246   5.099   0.057   2.904
 5747TIP3    H117247   5.077   0.010   2.984
 5747TIP3    H217248   5.015   0.088   2.871
 5748TIP3   OH217249   0.816   5.868   3.415
 5748TIP3    H117250   0.738   5.821   3.443
 5748TIP3    H217251   0.793   5.961   3.426
 5749TIP3   OH217252   1.433   4.750   1.764
 5749TIP3    H117253   1.476   4.833   1.742
 5749TIP3    H217254   1.485   4.714   1.835
 5750TIP3   OH217255   0.578   1.038   4.830
 5750TIP3    H117256   0.493   0.995   4.822
 5750TIP3    H217257   0.602   1.027   4.922
 5751TIP3   OH217258   4.423   0.245   1.548
 5751TIP3    H117259   4.482   0.261   1.622
 5751TIP3    H217260   4.344   0.295   1.570
 5752TIP3   OH217261   2.110   0.357   4.745
 5752TIP3    H117262   2.109   0.449   4.721
 5752TIP3    H217263   2.031   0.320   4.704
 5753TIP3   OH217264   2.167   4.619   4.249
 5753TIP3    H117265   2.085   4.572   4.235
 5753TIP3    H217266   2.231   4.550   4.269
 5754TIP3   OH217267   4.149   0.494   0.905
 5754TIP3    H117268   4.143   0.469   0.997
 5754TIP3    H217269   4.110   0.581   0.901
 5755TIP3   OH217270   1.535   1.321   3.514
 5755TIP3    H117271   1.594   1.387   3.478
 5755TIP3    H217272   1.555   1.241   3.464
 5756TIP3   OH217273   5.406   2.844   1.506
 5756TIP3    H117274   5.344   2.771   1.507
 5756TIP3    H217275   5.453   2.836   1.590
 5757TIP3   OH217276   0.534   3.029   1.806
 5757TIP3    H117277   0.603   2.992   1.751
 5757TIP3    H217278   0.456   2.977   1.786
 5758TIP3   OH217279   4.887   0.954   1.123
 5758TIP3    H117280   4.905   0.977   1.032
 5758TIP3    H217281   4.804   0.906   1.120
 5759TIP3   OH217282   1.487   4.554   1.997
 5759TIP3    H117283   1.509   4.587   2.085
 5759TIP3    H217284   1.414   4.495   2.012
 5760TIP3   OH217285   0.673   3.738   2.223
 5760TIP3    H117286   0.748   3.740   2.164
 5760TIP3    H217287   0.630   3.655   2.205
 5761TIP3   OH217288   5.934   0.765   3.289
 5761TIP3    H117289   5.931   0.671   3.270
 5761TIP3    H217290   5.843   0.793   3.279
 5762TIP3   OH217291   5.919   2.649   1.111
 5762TIP3    H117292   5.901   2.723   1.053
 5762TIP3    H217293   5.912   2.685   1.200
 5763TIP3   OH217294   3.966   3.450   4.571
 5763TIP3    H117295   3.974   3.513   4.499
 5763TIP3    H217296   3.974   3.503   4.650
 5764TIP3   OH217297   4.836   3.713   1.532
 5764TIP3    H117298   4.770   3.674   1.474
 5764TIP3    H217299   4.873   3.639   1.580
 5765TIP3   OH217300   1.632   1.934   1.740
 5765TIP3    H117301   1.661   2.022   1.765
 5765TIP3    H217302   1.711   1.892   1.703
 5766TIP3   OH217303   1.111   5.835   0.575
 5766TIP3    H117304   1.193   5.788   0.590
 5766TIP3    H217305   1.123   5.879   0.491
 5767TIP3   OH217306   5.209   1.410   2.119
 5767TIP3    H117307   5.284   1.352   2.128
 5767TIP3    H217308   5.138   1.353   2.087
 5768TIP3   OH217309   2.709   5.533   4.947
 5768TIP3    H117310   2.620   5.568   4.945
 5768TIP3    H217311   2.718   5.497   5.035
 5769TIP3   OH217312   4.368   1.742   0.581
 5769TIP3    H117313   4.449   1.748   0.531
 5769TIP3    H217314   4.299   1.735   0.515
 5770TIP3   OH217315   2.162   5.109   1.482
 5770TIP3    H117316   2.145   5.015   1.474
 5770TIP3    H217317   2.100   5.150   1.422
 5771TIP3   OH217318   4.189   1.090   2.558
 5771TIP3    H117319   4.227   1.044   2.632
 5771TIP3    H217320   4.120   1.144   2.596
 5772TIP3   OH217321   3.661   5.114   4.540
 5772TIP3    H117322   3.579   5.083   4.502
 5772TIP3    H217323   3.712   5.034   4.554
 5773TIP3   OH217324   5.453   0.189   2.869
 5773TIP3    H117325   5.395   0.171   2.795
 5773TIP3    H217326   5.415   0.266   2.912
 5774TIP3   OH217327   0.485   3.382   2.534
 5774TIP3    H117328   0.476   3.288   2.548
 5774TIP3    H217329   0.558   3.390   2.473
 5775TIP3   OH217330   5.469   3.542   2.887
 5775TIP3    H117331   5.542   3.601   2.870
 5775TIP3    H217332   5.509   3.459   2.911
 5776TIP3   OH217333   4.522   0.373   4.802
 5776TIP3    H117334   4.469   0.301   4.769
 5776TIP3    H217335   4.542   0.427   4.725
 5777TIP3   OH217336   5.602   4.177   3.339
 5777TIP3    H117337   5.677   4.233   3.318
 5777TIP3    H217338   5.612   4.101   3.282
 5778TIP3   OH217339   0.498   4.135   0.919
 5778TIP3    H117340   0.531   4.193   0.987
 5778TIP3    H217341   0.411   4.109   0.948
 5779TIP3   OH217342   1.865   1.398   3.244
 5779TIP3    H117343   1.813   1.438   3.175
 5779TIP3    H217344   1.821   1.424   3.325
 5780TIP3   OH217345   5.375   0.777   3.796
 5780TIP3    H117346   5.337   0.720   3.863
 5780TIP3    H217347   5.461   0.801   3.831
 5781TIP3   OH217348   5.426   1.634   3.720
 5781TIP3    H117349   5.367   1.704   3.747
 5781TIP3    H217350   5.499   1.640   3.782
 5782TIP3   OH217351   3.280   4.046   1.501
 5782TIP3    H117352   3.280   4.140   1.481
 5782TIP3    H217353   3.248   4.005   1.421
 5783TIP3   OH217354   1.395   5.266   3.138
 5783TIP3    H117355   1.467   5.204   3.153
 5783TIP3    H217356   1.420   5.312   3.059
 5784TIP3   OH217357   5.386   0.649   4.872
 5784TIP3    H117358   5.442   0.724   4.849
 5784TIP3    H217359   5.380   0.653   4.968
 5785TIP3   OH217360   4.384   2.153   1.047
 5785TIP3    H117361   4.438   2.208   0.990
 5785TIP3    H217362   4.437   2.074   1.061
 5786TIP3   OH217363   0.730   0.544   1.031
 5786TIP3    H117364   0.734   0.598   1.110
 5786TIP3    H217365   0.796   0.581   0.973
 5787TIP3   OH217366   2.404   2.035   2.855
 5787TIP3    H117367   2.309   2.022   2.865
 5787TIP3    H217368   2.437   2.034   2.945
 5788TIP3   OH217369   5.936   0.575   5.001
 5788TIP3    H117370   5.863   0.620   5.044
 5788TIP3    H217371   5.896   0.534   4.924
 5789TIP3   OH217372   6.047   4.059   0.076
 5789TIP3    H117373   6.099   4.052   0.156
 5789TIP3    H217374   6.111   4.051   0.005
 5790TIP3   OH217375   5.058   2.771   2.747
 5790TIP3    H117376   5.043   2.700   2.684
 5790TIP3    H217377   5.014   2.847   2.708
 5791TIP3   OH217378   5.402   0.072   2.333
 5791TIP3    H117379   5.476   0.044   2.279
 5791TIP3    H217380   5.338   0.001   2.325
 5792TIP3   OH217381   3.313   1.124   2.354
 5792TIP3    H117382   3.328   1.076   2.435
 5792TIP3    H217383   3.226   1.164   2.365
 5793TIP3   OH217384   4.932   1.111   2.407
 5793TIP3    H117385   5.014   1.159   2.407
 5793TIP3    H217386   4.897   1.122   2.319
 5794TIP3   OH217387   5.586   1.992   2.906
 5794TIP3    H117388   5.548   2.053   2.969
 5794TIP3    H217389   5.680   1.995   2.923
 5795TIP3   OH217390   0.472   5.156   0.669
 5795TIP3    H117391   0.538   5.208   0.622
 5795TIP3    H217392   0.422   5.112   0.601
 5796TIP3   OH217393   5.854   3.775   3.743
 5796TIP3    H117394   5.940   3.746   3.713
 5796TIP3    H217395   5.867   3.800   3.834
 5797TIP3   OH217396   0.860   4.831   2.353
 5797TIP3    H117397   0.884   4.740   2.337
 5797TIP3    H217398   0.860   4.872   2.267
 5798TIP3   OH217399   2.852   0.733   1.974
 5798TIP3    H117400   2.840   0.801   1.908
 5798TIP3    H217401   2.795   0.758   2.046
 5799TIP3   OH217402   4.153   0.296   0.708
 5799TIP3    H117403   4.226   0.313   0.649
 5799TIP3    H217404   4.152   0.370   0.769
 5800TIP3   OH217405   2.726   4.934   3.504
 5800TIP3    H117406   2.754   5.013   3.459
 5800TIP3    H217407   2.792   4.869   3.483
 5801TIP3   OH217408   2.405   5.940   3.896
 5801TIP3    H117409   2.455   5.892   3.830
 5801TIP3    H217410   2.345   5.874   3.933
 5802TIP3   OH217411   3.809   1.127   4.915
 5802TIP3    H117412   3.746   1.153   4.847
 5802TIP3    H217413   3.846   1.209   4.946
 5803TIP3   OH217414   4.767   0.298   4.525
 5803TIP3    H117415   4.796   0.380   4.564
 5803TIP3    H217416   4.737   0.322   4.437
 5804TIP3   OH217417   0.019   3.670   0.461
 5804TIP3    H117418   0.111   3.675   0.484
 5804TIP3    H217419   0.011   3.722   0.381
 5805TIP3   OH217420   5.840   1.028   4.824
 5805TIP3    H117421   5.817   1.081   4.748
 5805TIP3    H217422   5.824   1.085   4.899
 5806TIP3   OH217423   6.269   1.895   4.469
 5806TIP3    H117424   6.293   1.826   4.531
 5806TIP3    H217425   6.351   1.939   4.450
 5807TIP3   OH217426   3.512   1.610   2.704
 5807TIP3    H117427   3.583   1.662   2.741
 5807TIP3    H217428   3.502   1.642   2.615
 5808TIP3   OH217429   1.128   4.015   0.961
 5808TIP3    H117430   1.140   4.017   0.866
 5808TIP3    H217431   1.217   4.015   0.996
 5809TIP3   OH217432   1.555   1.421   4.250
 5809TIP3    H117433   1.634   1.398   4.201
 5809TIP3    H217434   1.485   1.422   4.185
 5810TIP3   OH217435   2.683   0.207   1.669
 5810TIP3    H117436   2.618   0.207   1.599
 5810TIP3    H217437   2.726   0.121   1.661
 5811TIP3   OH217438   3.028   0.075   1.541
 5811TIP3    H117439   2.942   0.056   1.503
 5811TIP3    H217440   3.008   0.115   1.626
 5812TIP3   OH217441   2.936   0.211   3.108
 5812TIP3    H117442   2.878   0.148   3.064
 5812TIP3    H217443   2.952   0.278   3.042
 5813TIP3   OH217444   6.001   2.765   4.914
 5813TIP3    H117445   5.995   2.859   4.931
 5813TIP3    H217446   6.077   2.756   4.856
 5814TIP3   OH217447   4.879   1.505   0.632
 5814TIP3    H117448   4.859   1.472   0.719
 5814TIP3    H217449   4.974   1.513   0.630
 5815TIP3   OH217450   4.606   0.917   0.038
 5815TIP3    H117451   4.679   0.929  -0.023
 5815TIP3    H217452   4.564   0.836   0.010
 5816TIP3   OH217453   0.425   3.138   0.955
 5816TIP3    H117454   0.402   3.210   1.013
 5816TIP3    H217455   0.362   3.145   0.882
 5817TIP3   OH217456   5.217   5.245   3.203
 5817TIP3    H117457   5.229   5.201   3.119
 5817TIP3    H217458   5.241   5.180   3.268
 5818TIP3   OH217459   5.004   5.787   4.340
 5818TIP3    H117460   4.953   5.754   4.266
 5818TIP3    H217461   5.087   5.816   4.301
 5819TIP3   OH217462   3.844   5.062   2.386
 5819TIP3    H117463   3.906   5.085   2.455
 5819TIP3    H217464   3.872   4.977   2.354
 5820TIP3   OH217465   5.623   2.804   2.946
 5820TIP3    H117466   5.566   2.734   2.978
 5820TIP3    H217467   5.700   2.759   2.913
 5821TIP3   OH217468   4.425   5.294   3.288
 5821TIP3    H117469   4.335   5.292   3.255
 5821TIP3    H217470   4.435   5.382   3.325
 5822TIP3   OH217471   4.647   5.619   4.330
 5822TIP3    H117472   4.723   5.581   4.287
 5822TIP3    H217473   4.646   5.579   4.417
 5823TIP3   OH217474   5.331   1.876   2.832
 5823TIP3    H117475   5.334   1.792   2.787
 5823TIP3    H217476   5.421   1.909   2.827
 5824TIP3   OH217477   4.403   1.788   2.051
 5824TIP3    H117478   4.414   1.873   2.094
 5824TIP3    H217479   4.360   1.809   1.968
 5825TIP3   OH217480   4.253   0.633   1.703
 5825TIP3    H117481   4.248   0.673   1.790
 5825TIP3    H217482   4.288   0.701   1.647
 5826TIP3   OH217483   2.390   5.844   0.095
 5826TIP3    H117484   2.426   5.914   0.042
 5826TIP3    H217485   2.324   5.803   0.039
 5827TIP3   OH217486   0.096   1.056   3.038
 5827TIP3    H117487   0.086   1.075   2.945
 5827TIP3    H217488   0.184   1.086   3.060
 5828TIP3   OH217489   2.629   0.482   4.729
 5828TIP3    H117490   2.630   0.554   4.666
 5828TIP3    H217491   2.711   0.436   4.714
 5829TIP3   OH217492   2.121   3.677   1.464
 5829TIP3    H117493   2.125   3.614   1.536
 5829TIP3    H217494   2.173   3.751   1.494
 5830TIP3   OH217495   2.017   2.607   3.411
 5830TIP3    H117496   2.029   2.681   3.352
 5830TIP3    H217497   1.961   2.641   3.482
 5831TIP3   OH217498   0.103   2.669   3.636
 5831TIP3    H117499   0.097   2.762   3.660
 5831TIP3    H217500   0.031   2.628   3.685
 5832TIP3   OH217501   3.322   5.815   0.219
 5832TIP3    H117502   3.257   5.818   0.149
 5832TIP3    H217503   3.281   5.861   0.292
 5833TIP3   OH217504   1.555   5.736   2.486
 5833TIP3    H117505   1.602   5.695   2.558
 5833TIP3    H217506   1.595   5.822   2.476
 5834TIP3   OH217507   4.195   2.992   5.042
 5834TIP3    H117508   4.123   2.960   4.988
 5834TIP3    H217509   4.206   3.084   5.016
 5835TIP3   OH217510   2.081   5.014   3.222
 5835TIP3    H117511   2.026   4.946   3.183
 5835TIP3    H217512   2.093   4.986   3.313
 5836TIP3   OH217513   5.338   4.318   3.849
 5836TIP3    H117514   5.394   4.378   3.799
 5836TIP3    H217515   5.356   4.341   3.941
 5837TIP3   OH217516   1.868   2.667   1.248
 5837TIP3    H117517   1.959   2.644   1.266
 5837TIP3    H217518   1.868   2.698   1.158
 5838TIP3   OH217519   0.825   1.572   4.510
 5838TIP3    H117520   0.895   1.565   4.446
 5838TIP3    H217521   0.860   1.629   4.579
 5839TIP3   OH217522   1.656   4.142   2.364
 5839TIP3    H117523   1.582   4.085   2.387
 5839TIP3    H217524   1.617   4.228   2.348
 5840TIP3   OH217525   1.984   4.761   3.989
 5840TIP3    H117526   2.005   4.669   4.002
 5840TIP3    H217527   1.961   4.793   4.077
 5841TIP3   OH217528   5.899   5.436   0.592
 5841TIP3    H117529   5.870   5.508   0.536
 5841TIP3    H217530   5.894   5.472   0.681
 5842TIP3   OH217531   1.159   1.206   2.921
 5842TIP3    H117532   1.183   1.226   2.830
 5842TIP3    H217533   1.228   1.247   2.973
 5843TIP3   OH217534   5.371   4.292   0.381
 5843TIP3    H117535   5.353   4.364   0.441
 5843TIP3    H217536   5.306   4.225   0.404
 5844TIP3   OH217537   5.142   0.978   3.787
 5844TIP3    H117538   5.225   0.931   3.797
 5844TIP3    H217539   5.075   0.915   3.814
 5845TIP3   OH217540   4.503   0.632   2.092
 5845TIP3    H117541   4.576   0.620   2.153
 5845TIP3    H217542   4.502   0.726   2.075
 5846TIP3   OH217543   1.859   3.064   0.452
 5846TIP3    H117544   1.763   3.070   0.452
 5846TIP3    H217545   1.879   2.996   0.388
 5847TIP3   OH217546   2.122   3.337   1.975
 5847TIP3    H117547   2.108   3.380   1.890
 5847TIP3    H217548   2.060   3.265   1.976
 5848TIP3   OH217549   0.783   1.171   3.772
 5848TIP3    H117550   0.801   1.220   3.853
 5848TIP3    H217551   0.690   1.187   3.754
 5849TIP3   OH217552   0.433   3.359   3.733
 5849TIP3    H117553   0.376   3.412   3.677
 5849TIP3    H217554   0.389   3.357   3.818
 5850TIP3   OH217555   5.575   4.004   2.426
 5850TIP3    H117556   5.481   3.988   2.426
 5850TIP3    H217557   5.593   4.040   2.339
 5851TIP3   OH217558   2.609   0.702   4.520
 5851TIP3    H117559   2.663   0.774   4.489
 5851TIP3    H217560   2.524   0.717   4.480
 5852TIP3   OH217561   0.437   0.391   0.941
 5852TIP3    H117562   0.363   0.448   0.962
 5852TIP3    H217563   0.449   0.401   0.847
 5853TIP3   OH217564   4.117   0.135   2.769
 5853TIP3    H117565   4.086   0.209   2.717
 5853TIP3    H217566   4.055   0.129   2.842
 5854TIP3   OH217567   0.167   4.960   2.381
 5854TIP3    H117568   0.128   5.038   2.343
 5854TIP3    H217569   0.097   4.923   2.436
 5855TIP3   OH217570   3.913   4.356   3.151
 5855TIP3    H117571   3.849   4.414   3.193
 5855TIP3    H217572   3.976   4.336   3.219
 5856TIP3   OH217573   1.864   2.086   0.163
 5856TIP3    H117574   1.777   2.060   0.129
 5856TIP3    H217575   1.863   2.181   0.161
 5857TIP3   OH217576   4.353   1.896   1.795
 5857TIP3    H117577   4.433   1.947   1.786
 5857TIP3    H217578   4.367   1.819   1.739
 5858TIP3   OH217579   1.825   0.844   1.195
 5858TIP3    H117580   1.808   0.883   1.281
 5858TIP3    H217581   1.792   0.909   1.133
 5859TIP3   OH217582   1.937   2.063   0.422
 5859TIP3    H117583   1.945   1.968   0.435
 5859TIP3    H217584   1.933   2.074   0.327
 5860TIP3   OH217585   2.208   3.161   1.012
 5860TIP3    H117586   2.128   3.112   1.031
 5860TIP3    H217587   2.273   3.126   1.073
 5861TIP3   OH217588   4.011   5.354   1.179
 5861TIP3    H117589   4.072   5.426   1.196
 5861TIP3    H217590   3.928   5.398   1.158
 5862TIP3   OH217591   4.413   4.408   0.084
 5862TIP3    H117592   4.343   4.473   0.091
 5862TIP3    H217593   4.468   4.422   0.161
 5863TIP3   OH217594   2.656   5.838   2.123
 5863TIP3    H117595   2.744   5.868   2.098
 5863TIP3    H217596   2.672   5.773   2.192
 5864TIP3   OH217597   2.774   1.418   0.166
 5864TIP3    H117598   2.684   1.405   0.195
 5864TIP3    H217599   2.827   1.363   0.223
 5865TIP3   OH217600   4.439   0.679   3.494
 5865TIP3    H117601   4.431   0.734   3.572
 5865TIP3    H217602   4.389   0.600   3.516
 5866TIP3   OH217603   5.314   2.026   4.636
 5866TIP3    H117604   5.278   2.109   4.667
 5866TIP3    H217605   5.294   1.964   4.705
 5867TIP3   OH217606   3.361   2.715   3.515
 5867TIP3    H117607   3.268   2.730   3.501
 5867TIP3    H217608   3.370   2.705   3.610
 5868TIP3   OH217609   4.356   2.795   5.155
 5868TIP3    H117610   4.441   2.839   5.143
 5868TIP3    H217611   4.294   2.851   5.109
 5869TIP3   OH217612   6.102   0.486   1.040
 5869TIP3    H117613   6.129   0.527   1.122
 5869TIP3    H217614   6.047   0.551   0.997
 5870TIP3   OH217615   5.542   0.369   0.911
 5870TIP3    H117616   5.553   0.409   0.997
 5870TIP3    H217617   5.628   0.377   0.870
 5871TIP3   OH217618   5.798   0.240   3.109
 5871TIP3    H117619   5.871   0.270   3.163
 5871TIP3    H217620   5.749   0.180   3.166
 5872TIP3   OH217621   1.496   1.051   0.838
 5872TIP3    H117622   1.539   1.014   0.761
 5872TIP3    H217623   1.424   1.103   0.802
 5873TIP3   OH217624   4.259   0.825   0.126
 5873TIP3    H117625   4.249   0.846   0.033
 5873TIP3    H217626   4.263   0.730   0.129
 5874TIP3   OH217627   6.067   2.985   0.094
 5874TIP3    H117628   5.992   2.929   0.074
 5874TIP3    H217629   6.133   2.961   0.029
 5875TIP3   OH217630   1.284   3.279   3.189
 5875TIP3    H117631   1.326   3.194   3.198
 5875TIP3    H217632   1.246   3.297   3.275
 5876TIP3   OH217633   2.271   1.606   2.433
 5876TIP3    H117634   2.281   1.676   2.368
 5876TIP3    H217635   2.180   1.579   2.425
 5877TIP3   OH217636   0.585   5.036   3.727
 5877TIP3    H117637   0.661   5.006   3.678
 5877TIP3    H217638   0.512   4.985   3.691
 5878TIP3   OH217639   1.272   1.828   1.764
 5878TIP3    H117640   1.188   1.845   1.722
 5878TIP3    H217641   1.319   1.771   1.703
 5879TIP3   OH217642   2.379   5.494   4.383
 5879TIP3    H117643   2.461   5.530   4.417
 5879TIP3    H217644   2.354   5.553   4.312
 5880TIP3   OH217645   0.845   0.853   4.863
 5880TIP3    H117646   0.793   0.934   4.858
 5880TIP3    H217647   0.834   0.824   4.953
 5881TIP3   OH217648   4.399   5.087   3.947
 5881TIP3    H117649   4.387   5.021   3.879
 5881TIP3    H217650   4.478   5.059   3.994
 5882TIP3   OH217651   2.714   2.408   1.066
 5882TIP3    H117652   2.668   2.457   1.134
 5882TIP3    H217653   2.785   2.466   1.038
 5883TIP3   OH217654   0.960   4.796   1.304
 5883TIP3    H117655   1.017   4.722   1.285
 5883TIP3    H217656   1.013   4.854   1.359
 5884TIP3   OH217657   0.150   4.081   3.082
 5884TIP3    H117658   0.223   4.117   3.132
 5884TIP3    H217659   0.076   4.139   3.102
 5885TIP3   OH217660   2.272   2.325   2.813
 5885TIP3    H117661   2.243   2.379   2.886
 5885TIP3    H217662   2.200   2.328   2.750
 5886TIP3   OH217663   2.591   3.889   0.162
 5886TIP3    H117664   2.578   3.807   0.114
 5886TIP3    H217665   2.575   3.958   0.098
 5887TIP3   OH217666   3.747   4.371   0.171
 5887TIP3    H117667   3.820   4.382   0.111
 5887TIP3    H217668   3.773   4.299   0.229
 5888TIP3   OH217669   3.704   3.398   3.791
 5888TIP3    H117670   3.798   3.398   3.775
 5888TIP3    H217671   3.672   3.479   3.750
 5889TIP3   OH217672   3.300   3.527   3.699
 5889TIP3    H117673   3.309   3.522   3.794
 5889TIP3    H217674   3.249   3.607   3.685
 5890TIP3   OH217675   2.785   1.766   2.643
 5890TIP3    H117676   2.743   1.842   2.603
 5890TIP3    H217677   2.813   1.796   2.729
 5891TIP3   OH217678   0.483   0.197   4.826
 5891TIP3    H117679   0.454   0.132   4.763
 5891TIP3    H217680   0.424   0.186   4.901
 5892TIP3   OH217681   2.958   1.704   5.056
 5892TIP3    H117682   2.970   1.626   5.110
 5892TIP3    H217683   2.914   1.671   4.977
 5893TIP3   OH217684   5.181   2.100   0.234
 5893TIP3    H117685   5.134   2.129   0.313
 5893TIP3    H217686   5.253   2.163   0.224
 5894TIP3   OH217687   3.972   5.279   2.863
 5894TIP3    H117688   3.991   5.372   2.851
 5894TIP3    H217689   3.896   5.262   2.809
 5895TIP3   OH217690   5.027   5.801   3.401
 5895TIP3    H117691   5.004   5.829   3.490
 5895TIP3    H217692   5.068   5.715   3.413
 5896TIP3   OH217693   0.104   2.123   2.658
 5896TIP3    H117694   0.048   2.200   2.645
 5896TIP3    H217695   0.063   2.054   2.606
 5897TIP3   OH217696   2.432   5.876   2.327
 5897TIP3    H117697   2.504   5.896   2.388
 5897TIP3    H217698   2.455   5.923   2.247
 5898TIP3   OH217699   1.024   0.358   4.727
 5898TIP3    H117700   0.968   0.426   4.766
 5898TIP3    H217701   1.111   0.398   4.725
 5899TIP3   OH217702   0.182   0.283   4.376
 5899TIP3    H117703   0.247   0.220   4.346
 5899TIP3    H217704   0.170   0.265   4.469
 5900TIP3   OH217705   1.433   0.201   2.860
 5900TIP3    H117706   1.410   0.109   2.871
 5900TIP3    H217707   1.528   0.203   2.872
 5901TIP3   OH217708   3.891   4.865   0.349
 5901TIP3    H117709   3.801   4.889   0.327
 5901TIP3    H217710   3.897   4.772   0.326
 5902TIP3   OH217711   1.561   4.084   0.548
 5902TIP3    H117712   1.481   4.136   0.536
 5902TIP3    H217713   1.624   4.145   0.585
 5903TIP3   OH217714   1.194   4.719   0.284
 5903TIP3    H117715   1.150   4.767   0.354
 5903TIP3    H217716   1.139   4.732   0.208
 5904TIP3   OH217717   4.152   0.590   2.047
 5904TIP3    H117718   4.234   0.628   2.016
 5904TIP3    H217719   4.094   0.665   2.060
 5905TIP3   OH217720   5.663   3.802   4.360
 5905TIP3    H117721   5.693   3.893   4.354
 5905TIP3    H217722   5.599   3.803   4.432
 5906TIP3   OH217723   5.590   0.737   4.564
 5906TIP3    H117724   5.600   0.791   4.642
 5906TIP3    H217725   5.498   0.708   4.567
 5907TIP3   OH217726   1.208   4.051   1.392
 5907TIP3    H117727   1.176   4.107   1.321
 5907TIP3    H217728   1.139   4.053   1.458
 5908TIP3   OH217729   5.313   5.340   4.986
 5908TIP3    H117730   5.405   5.316   4.972
 5908TIP3    H217731   5.309   5.368   5.078
 5909TIP3   OH217732   1.270   3.752   1.218
 5909TIP3    H117733   1.298   3.779   1.305
 5909TIP3    H217734   1.249   3.834   1.172
 5910TIP3   OH217735   4.397   0.067   1.285
 5910TIP3    H117736   4.337   0.141   1.290
 5910TIP3    H217737   4.417   0.046   1.377
 5911TIP3   OH217738   0.277   2.440   2.540
 5911TIP3    H117739   0.204   2.411   2.486
 5911TIP3    H217740   0.351   2.386   2.511
 5912TIP3   OH217741   0.391   1.004   2.868
 5912TIP3    H117742   0.357   1.093   2.880
 5912TIP3    H217743   0.484   1.017   2.850
 5913TIP3   OH217744   1.123   5.386   2.571
 5913TIP3    H117745   1.095   5.402   2.480
 5913TIP3    H217746   1.053   5.333   2.608
 5914TIP3   OH217747   3.571   5.729   4.601
 5914TIP3    H117748   3.656   5.689   4.586
 5914TIP3    H217749   3.516   5.697   4.529
 5915TIP3   OH217750   4.053   2.473   4.612
 5915TIP3    H117751   4.107   2.547   4.583
 5915TIP3    H217752   4.094   2.396   4.572
 5916TIP3   OH217753   0.141   4.682   0.819
 5916TIP3    H117754   0.219   4.712   0.865
 5916TIP3    H217755   0.172   4.619   0.755
 5917TIP3   OH217756   4.052   1.536   4.591
 5917TIP3    H117757   4.103   1.463   4.627
 5917TIP3    H217758   4.095   1.557   4.508
 5918TIP3   OH217759   0.239   4.785   3.985
 5918TIP3    H117760   0.300   4.744   4.047
 5918TIP3    H217761   0.250   4.879   4.000
 5919TIP3   OH217762   2.828   5.028   0.741
 5919TIP3    H117763   2.921   5.046   0.726
 5919TIP3    H217764   2.793   5.110   0.776
 5920TIP3   OH217765   4.351   0.312   4.417
 5920TIP3    H117766   4.384   0.388   4.369
 5920TIP3    H217767   4.276   0.345   4.467
 5921TIP3   OH217768   1.435   3.778   0.872
 5921TIP3    H117769   1.410   3.849   0.932
 5921TIP3    H217770   1.470   3.822   0.795
 5922TIP3   OH217771   2.908   4.590   2.428
 5922TIP3    H117772   2.985   4.643   2.448
 5922TIP3    H217773   2.934   4.500   2.451
 5923TIP3   OH217774   4.652   1.676   2.559
 5923TIP3    H117775   4.599   1.692   2.481
 5923TIP3    H217776   4.594   1.694   2.632
 5924TIP3   OH217777   5.638   2.014   1.966
 5924TIP3    H117778   5.706   1.963   1.921
 5924TIP3    H217779   5.611   1.958   2.039
 5925TIP3   OH217780   2.398   4.239   1.070
 5925TIP3    H117781   2.372   4.281   0.988
 5925TIP3    H217782   2.475   4.288   1.098
 5926TIP3   OH217783   3.883   2.661   2.845
 5926TIP3    H117784   3.806   2.708   2.877
 5926TIP3    H217785   3.883   2.677   2.751
 5927TIP3   OH217786   4.151   2.420   3.965
 5927TIP3    H117787   4.101   2.459   4.037
 5927TIP3    H217788   4.164   2.329   3.991
 5928TIP3   OH217789   3.403   2.394   2.248
 5928TIP3    H117790   3.383   2.487   2.256
 5928TIP3    H217791   3.356   2.367   2.169
 5929TIP3   OH217792   0.161   0.567   3.051
 5929TIP3    H117793   0.088   0.629   3.056
 5929TIP3    H217794   0.190   0.571   2.960
 5930TIP3   OH217795   4.619   0.261   4.251
 5930TIP3    H117796   4.615   0.275   4.156
 5930TIP3    H217797   4.528   0.257   4.279
 5931TIP3   OH217798   3.174   5.429   1.370
 5931TIP3    H117799   3.266   5.431   1.345
 5931TIP3    H217800   3.161   5.341   1.406
 5932TIP3   OH217801   0.510   0.262   2.873
 5932TIP3    H117802   0.576   0.331   2.866
 5932TIP3    H217803   0.458   0.270   2.793
 5933TIP3   OH217804   6.211   5.827   1.522
 5933TIP3    H117805   6.179   5.760   1.461
 5933TIP3    H217806   6.149   5.826   1.595
 5934TIP3   OH217807   3.828   0.651   1.144
 5934TIP3    H117808   3.763   0.588   1.114
 5934TIP3    H217809   3.826   0.644   1.240
 5935TIP3   OH217810   3.175   1.453   3.819
 5935TIP3    H117811   3.192   1.397   3.895
 5935TIP3    H217812   3.228   1.531   3.834
 5936TIP3   OH217813   6.093   4.116   3.895
 5936TIP3    H117814   6.111   4.149   3.807
 5936TIP3    H217815   6.154   4.163   3.952
 5937TIP3   OH217816   5.346   1.631   2.723
 5937TIP3    H117817   5.379   1.598   2.807
 5937TIP3    H217818   5.334   1.553   2.669
 5938TIP3   OH217819   3.268   3.689   2.144
 5938TIP3    H117820   3.188   3.693   2.196
 5938TIP3    H217821   3.255   3.755   2.075
 5939TIP3   OH217822   3.698   0.400   0.459
 5939TIP3    H117823   3.762   0.442   0.517
 5939TIP3    H217824   3.661   0.472   0.408
 5940TIP3   OH217825   1.067   4.920   3.761
 5940TIP3    H117826   1.107   4.890   3.679
 5940TIP3    H217827   1.074   4.845   3.819
 5941TIP3   OH217828   3.817   4.807   0.896
 5941TIP3    H117829   3.737   4.824   0.847
 5941TIP3    H217830   3.887   4.815   0.831
 5942TIP3   OH217831   2.066   1.956   4.515
 5942TIP3    H117832   2.086   1.865   4.498
 5942TIP3    H217833   1.984   1.953   4.565
 5943TIP3   OH217834   4.834   0.417   1.538
 5943TIP3    H117835   4.846   0.434   1.631
 5943TIP3    H217836   4.920   0.391   1.506
 5944TIP3   OH217837   1.314   5.620   1.644
 5944TIP3    H117838   1.243   5.676   1.615
 5944TIP3    H217839   1.319   5.634   1.739
 5945TIP3   OH217840   4.724   3.260   1.206
 5945TIP3    H117841   4.740   3.173   1.168
 5945TIP3    H217842   4.720   3.319   1.131
 5946TIP3   OH217843   2.001   0.165   3.050
 5946TIP3    H117844   1.923   0.117   3.077
 5946TIP3    H217845   2.062   0.098   3.019
 5947TIP3   OH217846   4.642   4.693   3.510
 5947TIP3    H117847   4.620   4.605   3.480
 5947TIP3    H217848   4.632   4.690   3.605
 5948TIP3   OH217849   2.535   4.234   3.551
 5948TIP3    H117850   2.514   4.284   3.472
 5948TIP3    H217851   2.629   4.247   3.562
 5949TIP3   OH217852   6.034   2.821   2.980
 5949TIP3    H117853   6.080   2.837   3.062
 5949TIP3    H217854   5.958   2.879   2.983
 5950TIP3   OH217855   1.461   4.794   4.167
 5950TIP3    H117856   1.400   4.832   4.230
 5950TIP3    H217857   1.493   4.715   4.211
 5951TIP3   OH217858   4.376   4.023   3.966
 5951TIP3    H117859   4.297   4.016   4.019
 5951TIP3    H217860   4.383   3.938   3.922
 5952TIP3   OH217861   4.346   2.023   2.890
 5952TIP3    H117862   4.280   2.035   2.959
 5952TIP3    H217863   4.299   2.038   2.808
 5953TIP3   OH217864   0.758   2.342   2.531
 5953TIP3    H117865   0.853   2.355   2.532
 5953TIP3    H217866   0.722   2.431   2.534
 5954TIP3   OH217867   3.493   2.928   1.853
 5954TIP3    H117868   3.441   2.852   1.880
 5954TIP3    H217869   3.430   2.986   1.811
 5955TIP3   OH217870   4.104   1.932   0.057
 5955TIP3    H117871   4.039   1.931   0.127
 5955TIP3    H217872   4.183   1.967   0.098
 5956TIP3   OH217873   3.886   4.236   0.500
 5956TIP3    H117874   3.882   4.164   0.564
 5956TIP3    H217875   3.980   4.256   0.493
 5957TIP3   OH217876   2.032   2.858   3.298
 5957TIP3    H117877   2.032   2.922   3.227
 5957TIP3    H217878   2.122   2.860   3.332
 5958TIP3   OH217879   6.252   4.275   4.302
 5958TIP3    H117880   6.227   4.328   4.226
 5958TIP3    H217881   6.341   4.304   4.322
 5959TIP3   OH217882   4.748   3.782   3.327
 5959TIP3    H117883   4.696   3.711   3.365
 5959TIP3    H217884   4.834   3.772   3.367
 5960TIP3   OH217885   1.915   5.733   0.241
 5960TIP3    H117886   1.999   5.763   0.275
 5960TIP3    H217887   1.926   5.638   0.230
 5961TIP3   OH217888   5.374   5.546   3.450
 5961TIP3    H117889   5.406   5.636   3.458
 5961TIP3    H217890   5.294   5.553   3.398
 5962TIP3   OH217891   3.934   3.766   5.040
 5962TIP3    H117892   4.015   3.745   4.993
 5962TIP3    H217893   3.914   3.855   5.013
 5963TIP3   OH217894   5.125   1.059   1.394
 5963TIP3    H117895   5.176   0.983   1.422
 5963TIP3    H217896   5.147   1.069   1.301
 5964TIP3   OH217897   3.420   2.620   3.788
 5964TIP3    H117898   3.458   2.647   3.872
 5964TIP3    H217899   3.452   2.531   3.774
 5965TIP3   OH217900   4.070   2.483   0.355
 5965TIP3    H117901   4.110   2.462   0.439
 5965TIP3    H217902   4.065   2.578   0.353
 5966TIP3   OH217903   3.568   5.536   4.165
 5966TIP3    H117904   3.527   5.622   4.166
 5966TIP3    H217905   3.620   5.533   4.245
 5967TIP3   OH217906   2.179   5.021   4.896
 5967TIP3    H117907   2.132   5.081   4.953
 5967TIP3    H217908   2.249   5.074   4.857
 5968TIP3   OH217909   1.272   0.465   4.726
 5968TIP3    H117910   1.327   0.424   4.793
 5968TIP3    H217911   1.320   0.452   4.644
 5969TIP3   OH217912   4.839   3.134   4.259
 5969TIP3    H117913   4.769   3.169   4.203
 5969TIP3    H217914   4.905   3.101   4.199
 5970TIP3   OH217915   3.467   2.710   4.387
 5970TIP3    H117916   3.405   2.693   4.458
 5970TIP3    H217917   3.551   2.720   4.431
 5971TIP3   OH217918   1.108   1.126   0.042
 5971TIP3    H117919   1.045   1.058   0.019
 5971TIP3    H217920   1.182   1.112  -0.017
 5972TIP3   OH217921   3.282   1.766   2.227
 5972TIP3    H117922   3.267   1.755   2.133
 5972TIP3    H217923   3.208   1.819   2.257
 5973TIP3   OH217924   6.171   1.356   3.813
 5973TIP3    H117925   6.080   1.384   3.808
 5973TIP3    H217926   6.170   1.266   3.780
 5974TIP3   OH217927   0.688   3.968   4.244
 5974TIP3    H117928   0.725   3.893   4.197
 5974TIP3    H217929   0.653   3.931   4.325
 5975TIP3   OH217930   0.462   5.345   1.468
 5975TIP3    H117931   0.431   5.256   1.447
 5975TIP3    H217932   0.519   5.368   1.395
 5976TIP3   OH217933   2.749   3.948   1.627
 5976TIP3    H117934   2.828   3.976   1.673
 5976TIP3    H217935   2.677   3.988   1.676
 5977TIP3   OH217936   2.636   3.884   3.471
 5977TIP3    H117937   2.637   3.906   3.564
 5977TIP3    H217938   2.551   3.915   3.440
 5978TIP3   OH217939   6.062   5.732   2.496
 5978TIP3    H117940   5.985   5.731   2.554
 5978TIP3    H217941   6.090   5.823   2.494
 5979TIP3   OH217942   1.108   3.354   0.182
 5979TIP3    H117943   1.115   3.368   0.088
 5979TIP3    H217944   1.198   3.360   0.214
 5980TIP3   OH217945   2.297   0.744   3.013
 5980TIP3    H117946   2.341   0.770   3.094
 5980TIP3    H217947   2.245   0.668   3.037
 5981TIP3   OH217948   3.496   2.060   4.270
 5981TIP3    H117949   3.434   1.992   4.243
 5981TIP3    H217950   3.510   2.043   4.364
 5982TIP3   OH217951   2.841   5.206   3.398
 5982TIP3    H117952   2.932   5.185   3.422
 5982TIP3    H217953   2.835   5.182   3.306
 5983TIP3   OH217954   5.372   5.373   4.529
 5983TIP3    H117955   5.363   5.415   4.615
 5983TIP3    H217956   5.362   5.445   4.467
 5984TIP3   OH217957   5.701   4.606   1.489
 5984TIP3    H117958   5.796   4.600   1.480
 5984TIP3    H217959   5.668   4.605   1.399
 5985TIP3   OH217960   2.994   3.791   3.471
 5985TIP3    H117961   3.032   3.714   3.428
 5985TIP3    H217962   2.915   3.810   3.419
 5986TIP3   OH217963   0.939   4.775   2.836
 5986TIP3    H117964   0.964   4.780   2.928
 5986TIP3    H217965   0.904   4.687   2.826
 5987TIP3   OH217966   0.093   2.023   3.186
 5987TIP3    H117967   0.037   2.082   3.135
 5987TIP3    H217968   0.058   2.027   3.275
 5988TIP3   OH217969   3.973   3.621   0.765
 5988TIP3    H117970   3.955   3.665   0.848
 5988TIP3    H217971   3.913   3.546   0.764
 5989TIP3   OH217972   3.958   0.848   2.087
 5989TIP3    H117973   3.912   0.925   2.120
 5989TIP3    H217974   3.888   0.786   2.065
 5990TIP3   OH217975   3.598   0.089   3.289
 5990TIP3    H117976   3.665   0.104   3.356
 5990TIP3    H217977   3.567   0.000   3.306
 5991TIP3   OH217978   1.807   5.605   2.627
 5991TIP3    H117979   1.865   5.668   2.584
 5991TIP3    H217980   1.833   5.606   2.719
 5992TIP3   OH217981   2.142   4.113   2.673
 5992TIP3    H117982   2.119   4.097   2.765
 5992TIP3    H217983   2.092   4.049   2.624
 5993TIP3   OH217984   3.897   1.035   0.741
 5993TIP3    H117985   3.809   1.012   0.712
 5993TIP3    H217986   3.952   0.963   0.711
 5994TIP3   OH217987   2.584   2.069   3.910
 5994TIP3    H117988   2.556   2.002   3.972
 5994TIP3    H217989   2.609   2.143   3.964
 5995TIP3   OH217990   5.983   5.614   1.506
 5995TIP3    H117991   5.917   5.616   1.576
 5995TIP3    H217992   6.059   5.571   1.546
 5996TIP3   OH217993   4.602   4.962   0.677
 5996TIP3    H117994   4.552   5.012   0.613
 5996TIP3    H217995   4.667   4.914   0.625
 5997TIP3   OH217996   0.198   4.358  -0.029
 5997TIP3    H117997   0.180   4.438   0.019
 5997TIP3    H217998   0.293   4.349  -0.027
 5998TIP3   OH217999   6.305   0.701   0.808
 5998TIP3    H118000   6.341   0.773   0.860
 5998TIP3    H218001   6.342   0.714   0.721
 5999TIP3   OH218002   6.261   4.804   0.211
 5999TIP3    H118003   6.273   4.822   0.304
 5999TIP3    H218004   6.211   4.880   0.179
 6000TIP3   OH218005   2.807   1.282   0.566
 6000TIP3    H118006   2.884   1.268   0.512
 6000TIP3    H218007   2.802   1.205   0.622
 6001TIP3   OH218008   3.242   1.172   2.691
 6001TIP3    H118009   3.159   1.218   2.683
 6001TIP3    H218010   3.236   1.100   2.629
 6002TIP3   OH218011   1.199   5.488   1.404
 6002TIP3    H118012   1.145   5.542   1.346
 6002TIP3    H218013   1.273   5.543   1.427
 6003TIP3   OH218014   3.326   3.717   3.229
 6003TIP3    H118015   3.400   3.689   3.175
 6003TIP3    H218016   3.367   3.753   3.308
 6004TIP3   OH218017   5.769   2.168   1.046
 6004TIP3    H118018   5.786   2.118   1.126
 6004TIP3    H218019   5.756   2.258   1.078
 6005TIP3   OH218020   3.659   1.583   1.356
 6005TIP3    H118021   3.722   1.512   1.338
 6005TIP3    H218022   3.664   1.596   1.451
 6006TIP3   OH218023   2.980   3.936   5.147
 6006TIP3    H118024   2.991   3.863   5.087
 6006TIP3    H218025   2.972   3.896   5.233
 6007TIP3   OH218026   3.531   4.409   3.088
 6007TIP3    H118027   3.509   4.327   3.133
 6007TIP3    H218028   3.547   4.383   2.997
 6008TIP3   OH218029   1.312   1.861   0.059
 6008TIP3    H118030   1.253   1.813   0.118
 6008TIP3    H218031   1.294   1.953   0.078
 6009TIP3   OH218032   1.819   4.963   0.310
 6009TIP3    H118033   1.769   4.907   0.251
 6009TIP3    H218034   1.800   5.052   0.279
 6010TIP3   OH218035   4.895   1.837   3.077
 6010TIP3    H118036   4.915   1.905   3.142
 6010TIP3    H218037   4.846   1.883   3.009
 6011TIP3   OH218038   2.175   5.419   1.946
 6011TIP3    H118039   2.091   5.378   1.924
 6011TIP3    H218040   2.233   5.398   1.873
 6012TIP3   OH218041   1.870   3.367   3.037
 6012TIP3    H118042   1.925   3.382   3.114
 6012TIP3    H218043   1.788   3.412   3.057
 6013TIP3   OH218044   2.334   3.270   2.154
 6013TIP3    H118045   2.245   3.300   2.134
 6013TIP3    H218046   2.327   3.174   2.155
 6014TIP3   OH218047   1.107   2.540   4.718
 6014TIP3    H118048   1.085   2.546   4.625
 6014TIP3    H218049   1.191   2.587   4.726
 6015TIP3   OH218050   3.013   0.994   0.867
 6015TIP3    H118051   2.969   0.975   0.949
 6015TIP3    H218052   3.104   1.012   0.892
 6016TIP3   OH218053   6.277   1.010   0.057
 6016TIP3    H118054   6.239   0.983   0.141
 6016TIP3    H218055   6.230   0.957  -0.008
 6017TIP3   OH218056   3.697   5.536   4.387
 6017TIP3    H118057   3.726   5.614   4.434
 6017TIP3    H218058   3.692   5.468   4.454
 6018TIP3   OH218059   2.243   0.869   1.721
 6018TIP3    H118060   2.336   0.860   1.742
 6018TIP3    H218061   2.214   0.942   1.776
 6019TIP3   OH218062   1.369   3.623   0.408
 6019TIP3    H118063   1.428   3.560   0.367
 6019TIP3    H218064   1.299   3.570   0.444
 6020TIP3   OH218065   3.873   5.343   0.219
 6020TIP3    H118066   3.790   5.343   0.266
 6020TIP3    H218067   3.884   5.433   0.189
 6021TIP3   OH218068   4.107   0.150   4.040
 6021TIP3    H118069   4.183   0.194   4.077
 6021TIP3    H218070   4.133   0.128   3.951
 6022TIP3   OH218071   1.655   0.555   0.900
 6022TIP3    H118072   1.595   0.578   0.829
 6022TIP3    H218073   1.625   0.606   0.975
 6023TIP3   OH218074   3.590   4.833   0.550
 6023TIP3    H118075   3.592   4.851   0.456
 6023TIP3    H218076   3.662   4.772   0.564
 6024TIP3   OH218077   3.221   3.178   1.231
 6024TIP3    H118078   3.250   3.126   1.306
 6024TIP3    H218079   3.141   3.221   1.261
 6025TIP3   OH218080   1.414   3.179   3.570
 6025TIP3    H118081   1.447   3.175   3.660
 6025TIP3    H218082   1.493   3.179   3.516
 6026TIP3   OH218083   4.660   5.840   0.672
 6026TIP3    H118084   4.640   5.928   0.705
 6026TIP3    H218085   4.692   5.793   0.750
 6027TIP3   OH218086   3.328   4.092   2.970
 6027TIP3    H118087   3.297   4.040   3.044
 6027TIP3    H218088   3.308   4.038   2.893
 6028TIP3   OH218089   0.873   4.317   2.551
 6028TIP3    H118090   0.785   4.294   2.582
 6028TIP3    H218091   0.858   4.367   2.471
 6029TIP3   OH218092   5.792   1.459   4.765
 6029TIP3    H118093   5.876   1.414   4.753
 6029TIP3    H218094   5.770   1.490   4.677
 6030TIP3   OH218095   0.713   2.262   4.360
 6030TIP3    H118096   0.788   2.240   4.415
 6030TIP3    H218097   0.666   2.329   4.408
 6031TIP3   OH218098   2.906   1.178   0.249
 6031TIP3    H118099   2.881   1.103   0.302
 6031TIP3    H218100   2.891   1.149   0.159
 6032TIP3   OH218101   2.872   1.516   1.934
 6032TIP3    H118102   2.828   1.579   1.992
 6032TIP3    H218103   2.856   1.431   1.975
 6033TIP3   OH218104   1.370   0.935   4.589
 6033TIP3    H118105   1.377   1.030   4.595
 6033TIP3    H218106   1.305   0.911   4.655
 6034TIP3   OH218107   2.503   3.943   3.909
 6034TIP3    H118108   2.487   3.897   3.826
 6034TIP3    H218109   2.531   3.874   3.969
 6035TIP3   OH218110   4.902   2.811   4.857
 6035TIP3    H118111   4.868   2.900   4.852
 6035TIP3    H218112   4.869   2.768   4.777
 6036TIP3   OH218113   3.610   2.069   2.373
 6036TIP3    H118114   3.515   2.079   2.378
 6036TIP3    H218115   3.624   2.012   2.297
 6037TIP3   OH218116   4.390   0.589   3.133
 6037TIP3    H118117   4.344   0.540   3.201
 6037TIP3    H218118   4.349   0.561   3.051
 6038TIP3   OH218119   0.036   1.711   1.550
 6038TIP3    H118120   0.058   1.804   1.556
 6038TIP3    H218121  -0.008   1.702   1.465
 6039TIP3   OH218122   4.688   0.575   3.711
 6039TIP3    H118123   4.645   0.533   3.786
 6039TIP3    H218124   4.781   0.552   3.721
 6040TIP3   OH218125   5.050   0.935   1.690
 6040TIP3    H118126   5.075   0.885   1.768
 6040TIP3    H218127   4.985   0.879   1.647
 6041TIP3   OH218128   2.942   0.294   4.237
 6041TIP3    H118129   2.900   0.369   4.195
 6041TIP3    H218130   3.034   0.299   4.208
 6042TIP3   OH218131   5.845   1.791   4.697
 6042TIP3    H118132   5.771   1.736   4.722
 6042TIP3    H218133   5.819   1.831   4.614
 6043TIP3   OH218134   5.422   2.751   2.166
 6043TIP3    H118135   5.507   2.710   2.180
 6043TIP3    H218136   5.415   2.816   2.236
 6044TIP3   OH218137   0.442   2.925   1.163
 6044TIP3    H118138   0.426   3.008   1.117
 6044TIP3    H218139   0.358   2.881   1.162
 6045TIP3   OH218140   2.485   2.785   0.619
 6045TIP3    H118141   2.568   2.828   0.637
 6045TIP3    H218142   2.432   2.854   0.577
 6046TIP3   OH218143   3.490   5.558   3.746
 6046TIP3    H118144   3.550   5.624   3.779
 6046TIP3    H218145   3.437   5.533   3.822
 6047TIP3   OH218146   3.695   3.690   4.463
 6047TIP3    H118147   3.630   3.760   4.469
 6047TIP3    H218148   3.767   3.728   4.413
 6048TIP3   OH218149   2.190   3.726   0.567
 6048TIP3    H118150   2.099   3.704   0.584
 6048TIP3    H218151   2.219   3.660   0.504
 6049TIP3   OH218152   0.474   3.553   2.144
 6049TIP3    H118153   0.448   3.615   2.076
 6049TIP3    H218154   0.398   3.547   2.201
 6050TIP3   OH218155   1.865   1.356   2.281
 6050TIP3    H118156   1.792   1.301   2.310
 6050TIP3    H218157   1.942   1.300   2.290
 6051TIP3   OH218158   3.703   1.825   4.048
 6051TIP3    H118159   3.753   1.872   4.115
 6051TIP3    H218160   3.759   1.751   4.023
 6052TIP3   OH218161   1.557   3.323   1.563
 6052TIP3    H118162   1.491   3.356   1.502
 6052TIP3    H218163   1.626   3.389   1.561
 6053TIP3   OH218164   3.922   0.430   0.607
 6053TIP3    H118165   3.967   0.473   0.535
 6053TIP3    H218166   3.988   0.373   0.646
 6054TIP3   OH218167   1.007   5.782   2.134
 6054TIP3    H118168   0.970   5.820   2.214
 6054TIP3    H218169   0.932   5.771   2.076
 6055TIP3   OH218170   0.840   4.228   0.429
 6055TIP3    H118171   0.810   4.143   0.461
 6055TIP3    H218172   0.902   4.259   0.496
 6056TIP3   OH218173   5.745   3.812   2.566
 6056TIP3    H118174   5.689   3.889   2.553
 6056TIP3    H218175   5.818   3.825   2.505
 6057TIP3   OH218176   5.835   4.841   0.619
 6057TIP3    H118177   5.871   4.770   0.565
 6057TIP3    H218178   5.911   4.894   0.643
 6058TIP3   OH218179   3.246   4.949   4.959
 6058TIP3    H118180   3.274   4.878   4.900
 6058TIP3    H218181   3.159   4.923   4.988
 6059TIP3   OH218182   0.090   1.272   0.137
 6059TIP3    H118183   0.114   1.249   0.227
 6059TIP3    H218184   0.012   1.220   0.119
 6060TIP3   OH218185   2.217   2.391   4.264
 6060TIP3    H118186   2.238   2.439   4.344
 6060TIP3    H218187   2.171   2.454   4.209
 6061TIP3   OH218188   2.157   5.005   1.758
 6061TIP3    H118189   2.171   5.088   1.712
 6061TIP3    H218190   2.063   5.004   1.776
 6062TIP3   OH218191   2.175   4.753   1.516
 6062TIP3    H118192   2.138   4.665   1.504
 6062TIP3    H218193   2.240   4.741   1.585
 6063TIP3   OH218194   3.488   2.425   1.920
 6063TIP3    H118195   3.501   2.330   1.919
 6063TIP3    H218196   3.567   2.459   1.962
 6064TIP3   OH218197   4.087   1.798   4.090
 6064TIP3    H118198   4.038   1.864   4.139
 6064TIP3    H218199   4.179   1.825   4.100
 6065TIP3   OH218200   1.393   2.001   1.385
 6065TIP3    H118201   1.347   1.976   1.306
 6065TIP3    H218202   1.474   1.949   1.384
 6066TIP3   OH218203   1.682   3.173   3.531
 6066TIP3    H118204   1.698   3.113   3.459
 6066TIP3    H218205   1.714   3.127   3.609
 6067TIP3   OH218206   3.479   0.552   1.511
 6067TIP3    H118207   3.464   0.490   1.582
 6067TIP3    H218208   3.395   0.559   1.466
 6068TIP3   OH218209   4.055   5.188   4.457
 6068TIP3    H118210   4.064   5.131   4.533
 6068TIP3    H218211   4.022   5.270   4.493
 6069TIP3   OH218212   2.845   1.966   4.342
 6069TIP3    H118213   2.812   1.974   4.252
 6069TIP3    H218214   2.835   1.873   4.362
 6070TIP3   OH218215   1.111   2.262   4.818
 6070TIP3    H118216   1.059   2.219   4.886
 6070TIP3    H218217   1.122   2.352   4.850
 6071TIP3   OH218218   2.312   2.507   4.493
 6071TIP3    H118219   2.299   2.443   4.563
 6071TIP3    H218220   2.396   2.548   4.513
 6072TIP3   OH218221   0.550   1.946   4.344
 6072TIP3    H118222   0.525   1.957   4.252
 6072TIP3    H218223   0.529   2.030   4.385
 6073TIP3   OH218224   1.130   5.028   2.928
 6073TIP3    H118225   1.206   4.973   2.912
 6073TIP3    H218226   1.066   4.968   2.968
 6074TIP3   OH218227   2.761   4.717   0.225
 6074TIP3    H118228   2.686   4.727   0.167
 6074TIP3    H218229   2.726   4.673   0.302
 6075TIP3   OH218230   1.621   4.465   4.131
 6075TIP3    H118231   1.648   4.424   4.048
 6075TIP3    H218232   1.526   4.453   4.134
 6076TIP3   OH218233   0.439   0.810   1.047
 6076TIP3    H118234   0.471   0.762   0.971
 6076TIP3    H218235   0.502   0.881   1.060
 6077TIP3   OH218236   0.793   2.590   5.033
 6077TIP3    H118237   0.793   2.496   5.011
 6077TIP3    H218238   0.780   2.634   4.950
 6078TIP3   OH218239   1.419   5.332   0.140
 6078TIP3    H118240   1.351   5.390   0.173
 6078TIP3    H218241   1.460   5.380   0.069
 6079TIP3   OH218242   2.827   1.067   2.325
 6079TIP3    H118243   2.738   1.093   2.348
 6079TIP3    H218244   2.817   1.014   2.246
 6080TIP3   OH218245   3.025   4.687   3.102
 6080TIP3    H118246   2.954   4.625   3.088
 6080TIP3    H218247   3.103   4.633   3.115
 6081TIP3   OH218248   1.960   2.931   0.677
 6081TIP3    H118249   2.025   2.985   0.721
 6081TIP3    H218250   1.926   2.986   0.607
 6082TIP3   OH218251   1.281   0.572   3.594
 6082TIP3    H118252   1.194   0.612   3.592
 6082TIP3    H218253   1.340   0.641   3.565
 6083TIP3   OH218254   0.598   0.281   3.464
 6083TIP3    H118255   0.562   0.193   3.480
 6083TIP3    H218256   0.521   0.335   3.447
 6084TIP3   OH218257   5.611   5.403   5.192
 6084TIP3    H118258   5.595   5.498   5.197
 6084TIP3    H218259   5.634   5.387   5.101
 6085TIP3   OH218260   2.046   5.002   2.181
 6085TIP3    H118261   2.114   5.029   2.119
 6085TIP3    H218262   1.999   4.931   2.136
 6086TIP3   OH218263   2.220   3.115   5.034
 6086TIP3    H118264   2.288   3.169   4.995
 6086TIP3    H218265   2.254   3.094   5.122
 6087TIP3   OH218266   2.744   4.524   1.708
 6087TIP3    H118267   2.673   4.562   1.657
 6087TIP3    H218268   2.728   4.554   1.798
 6088TIP3   OH218269   2.322   1.215   1.373
 6088TIP3    H118270   2.282   1.245   1.292
 6088TIP3    H218271   2.392   1.279   1.390
 6089TIP3   OH218272   2.881   2.188   1.883
 6089TIP3    H118273   2.904   2.127   1.813
 6089TIP3    H218274   2.820   2.249   1.842
 6090TIP3   OH218275   0.457   1.706   4.444
 6090TIP3    H118276   0.380   1.711   4.387
 6090TIP3    H218277   0.509   1.783   4.420
 6091TIP3   OH218278   1.301   2.384   1.632
 6091TIP3    H118279   1.215   2.404   1.595
 6091TIP3    H218280   1.356   2.457   1.605
 6092TIP3   OH218281   0.786   0.783   2.841
 6092TIP3    H118282   0.790   0.862   2.896
 6092TIP3    H218283   0.760   0.815   2.755
 6093TIP3   OH218284   3.300   0.493   2.290
 6093TIP3    H118285   3.205   0.478   2.293
 6093TIP3    H218286   3.335   0.417   2.244
 6094TIP3   OH218287   3.324   1.860   1.378
 6094TIP3    H118288   3.405   1.908   1.358
 6094TIP3    H218289   3.325   1.786   1.317
 6095TIP3   OH218290   1.446   0.519   2.622
 6095TIP3    H118291   1.399   0.592   2.663
 6095TIP3    H218292   1.522   0.504   2.679
 6096TIP3   OH218293   5.096   2.939   1.710
 6096TIP3    H118294   5.098   2.911   1.802
 6096TIP3    H218295   5.129   2.863   1.662
 6097TIP3   OH218296   0.896   3.379   0.387
 6097TIP3    H118297   0.972   3.379   0.328
 6097TIP3    H218298   0.826   3.339   0.335
 6098TIP3   OH218299   5.002   5.102   1.768
 6098TIP3    H118300   5.086   5.087   1.811
 6098TIP3    H218301   4.965   5.014   1.756
 6099TIP3   OH218302   2.797   5.062   4.107
 6099TIP3    H118303   2.785   5.099   4.195
 6099TIP3    H218304   2.716   5.014   4.090
 6100TIP3   OH218305   3.498   1.172   3.616
 6100TIP3    H118306   3.583   1.165   3.660
 6100TIP3    H218307   3.470   1.262   3.632
 6101TIP3   OH218308   0.424   5.910   3.140
 6101TIP3    H118309   0.467   5.848   3.082
 6101TIP3    H218310   0.485   5.921   3.213
 6102TIP3   OH218311   3.761   3.787   1.998
 6102TIP3    H118312   3.765   3.812   1.905
 6102TIP3    H218313   3.753   3.870   2.045
 6103TIP3   OH218314   0.488   5.649   4.232
 6103TIP3    H118315   0.502   5.574   4.173
 6103TIP3    H218316   0.401   5.682   4.209
 6104TIP3   OH218317   2.554   2.534   0.015
 6104TIP3    H118318   2.477   2.490   0.053
 6104TIP3    H218319   2.521   2.619  -0.013
 6105TIP3   OH218320   5.711   0.495   3.335
 6105TIP3    H118321   5.656   0.418   3.342
 6105TIP3    H218322   5.688   0.533   3.250
 6106TIP3   OH218323   2.520   4.358   4.587
 6106TIP3    H118324   2.571   4.406   4.652
 6106TIP3    H218325   2.561   4.272   4.582
 6107TIP3   OH218326   4.030   2.180   2.696
 6107TIP3    H118327   4.113   2.145   2.664
 6107TIP3    H218328   3.969   2.107   2.690
 6108TIP3   OH218329   3.569   5.460   0.617
 6108TIP3    H118330   3.481   5.470   0.653
 6108TIP3    H218331   3.625   5.453   0.694
 6109TIP3   OH218332   5.419   5.823   0.181
 6109TIP3    H118333   5.324   5.811   0.189
 6109TIP3    H218334   5.438   5.898   0.237
 6110TIP3   OH218335   2.404   1.765   3.042
 6110TIP3    H118336   2.331   1.752   2.981
 6110TIP3    H218337   2.362   1.787   3.125
 6111TIP3   OH218338   4.417   5.784   3.215
 6111TIP3    H118339   4.419   5.723   3.289
 6111TIP3    H218340   4.496   5.763   3.164
 6112TIP3   OH218341   4.008   4.283   4.040
 6112TIP3    H118342   3.943   4.343   4.075
 6112TIP3    H218343   4.092   4.319   4.068
 6113TIP3   OH218344   3.686   5.823   2.847
 6113TIP3    H118345   3.603   5.819   2.799
 6113TIP3    H218346   3.724   5.908   2.822
 6114TIP3   OH218347   4.673   0.831   3.591
 6114TIP3    H118348   4.685   0.739   3.612
 6114TIP3    H218349   4.762   0.867   3.588
 6115TIP3   OH218350   5.830   5.726   3.415
 6115TIP3    H118351   5.875   5.669   3.352
 6115TIP3    H218352   5.737   5.713   3.398
 6116TIP3   OH218353   0.086   4.804   1.958
 6116TIP3    H118354   0.005   4.847   1.987
 6116TIP3    H218355   0.062   4.762   1.875
 6117TIP3   OH218356   0.057   2.360   2.358
 6117TIP3    H118357   0.074   2.392   2.269
 6117TIP3    H218358  -0.030   2.395   2.380
 6118TIP3   OH218359   3.956   5.925   4.891
 6118TIP3    H118360   3.949   5.926   4.796
 6118TIP3    H218361   4.027   5.864   4.910
 6119TIP3   OH218362   4.352   2.107   3.418
 6119TIP3    H118363   4.400   2.173   3.369
 6119TIP3    H218364   4.378   2.024   3.379
 6120TIP3   OH218365   2.605   5.487   2.696
 6120TIP3    H118366   2.663   5.414   2.716
 6120TIP3    H218367   2.564   5.463   2.613
 6121TIP3   OH218368   6.102   2.489   1.874
 6121TIP3    H118369   6.008   2.473   1.864
 6121TIP3    H218370   6.115   2.495   1.968
 6122TIP3   OH218371   5.954   3.562   3.263
 6122TIP3    H118372   5.887   3.533   3.201
 6122TIP3    H218373   6.034   3.567   3.211
 6123TIP3   OH218374   0.505   1.440   3.034
 6123TIP3    H118375   0.599   1.460   3.038
 6123TIP3    H218376   0.466   1.516   2.990
 6124TIP3   OH218377   4.710   3.453   4.934
 6124TIP3    H118378   4.729   3.525   4.994
 6124TIP3    H218379   4.772   3.384   4.958
 6125TIP3   OH218380   5.546   4.915   0.825
 6125TIP3    H118381   5.619   4.930   0.886
 6125TIP3    H218382   5.496   4.844   0.865
 6126TIP3   OH218383   1.909   3.460   0.651
 6126TIP3    H118384   1.879   3.475   0.741
 6126TIP3    H218385   1.862   3.525   0.599
 6127TIP3   OH218386   4.269   1.413   4.141
 6127TIP3    H118387   4.216   1.391   4.064
 6127TIP3    H218388   4.268   1.333   4.194
 6128TIP3   OH218389   1.787   4.747   3.658
 6128TIP3    H118390   1.870   4.756   3.704
 6128TIP3    H218391   1.809   4.699   3.578
 6129TIP3   OH218392   0.631   2.344   3.446
 6129TIP3    H118393   0.598   2.434   3.448
 6129TIP3    H218394   0.554   2.292   3.422
 6130TIP3   OH218395   0.559   2.597   3.451
 6130TIP3    H118396   0.504   2.672   3.474
 6130TIP3    H218397   0.627   2.633   3.394
 6131TIP3   OH218398   5.822   2.990   3.002
 6131TIP3    H118399   5.751   2.929   2.983
 6131TIP3    H218400   5.805   3.064   2.943
 6132TIP3   OH218401   5.384   0.648   1.642
 6132TIP3    H118402   5.382   0.723   1.702
 6132TIP3    H218403   5.463   0.601   1.666
 6133TIP3   OH218404   4.722   4.907   0.442
 6133TIP3    H118405   4.817   4.906   0.435
 6133TIP3    H218406   4.697   4.995   0.412
 6134TIP3   OH218407   5.552   1.807   4.283
 6134TIP3    H118408   5.559   1.713   4.301
 6134TIP3    H218409   5.538   1.813   4.189
 6135TIP3   OH218410   1.280   3.108   1.526
 6135TIP3    H118411   1.198   3.061   1.537
 6135TIP3    H218412   1.260   3.176   1.462
 6136TIP3   OH218413   3.425   5.288   3.267
 6136TIP3    H118414   3.468   5.216   3.314
 6136TIP3    H218415   3.448   5.366   3.317
 6137TIP3   OH218416   0.680   4.628   4.557
 6137TIP3    H118417   0.679   4.692   4.485
 6137TIP3    H218418   0.591   4.631   4.592
 6138TIP3   OH218419   3.925   4.617   4.175
 6138TIP3    H118420   3.952   4.696   4.222
 6138TIP3    H218421   3.835   4.602   4.204
 6139TIP3   OH218422   2.134   2.645   1.281
 6139TIP3    H118423   2.227   2.634   1.303
 6139TIP3    H218424   2.126   2.606   1.194
 6140TIP3   OH218425   3.569   0.403   4.183
 6140TIP3    H118426   3.638   0.444   4.235
 6140TIP3    H218427   3.606   0.396   4.095
 6141TIP3   OH218428   5.840   1.276   1.252
 6141TIP3    H118429   5.830   1.264   1.347
 6141TIP3    H218430   5.772   1.338   1.228
 6142TIP3   OH218431   6.275   4.548   3.383
 6142TIP3    H118432   6.283   4.485   3.455
 6142TIP3    H218433   6.182   4.565   3.376
 6143TIP3   OH218434   1.808   4.398   4.376
 6143TIP3    H118435   1.727   4.347   4.385
 6143TIP3    H218436   1.803   4.436   4.289
 6144TIP3   OH218437   4.662   1.935   3.467
 6144TIP3    H118438   4.638   1.884   3.390
 6144TIP3    H218439   4.669   1.870   3.538
 6145TIP3   OH218440   4.370   2.235   1.632
 6145TIP3    H118441   4.433   2.163   1.622
 6145TIP3    H218442   4.339   2.251   1.543
 6146TIP3   OH218443   0.259   0.662   0.071
 6146TIP3    H118444   0.302   0.724   0.013
 6146TIP3    H218445   0.176   0.641   0.027
 6147TIP3   OH218446   5.721   2.227   4.939
 6147TIP3    H118447   5.806   2.217   4.897
 6147TIP3    H218448   5.673   2.148   4.916
 6148TIP3   OH218449   5.458   2.459   1.516
 6148TIP3    H118450   5.366   2.436   1.529
 6148TIP3    H218451   5.505   2.407   1.582
 6149TIP3   OH218452   2.929   3.888   1.048
 6149TIP3    H118453   2.937   3.929   0.962
 6149TIP3    H218454   2.850   3.834   1.042
 6150TIP3   OH218455   1.145   4.339   2.032
 6150TIP3    H118456   1.122   4.251   2.000
 6150TIP3    H218457   1.180   4.384   1.956
 6151TIP3   OH218458   1.398   3.210   2.004
 6151TIP3    H118459   1.397   3.135   2.064
 6151TIP3    H218460   1.469   3.190   1.942
 6152TIP3   OH218461   0.913   0.907   4.600
 6152TIP3    H118462   0.880   0.997   4.596
 6152TIP3    H218463   0.923   0.890   4.694
 6153TIP3   OH218464   5.822   5.656   1.712
 6153TIP3    H118465   5.726   5.648   1.713
 6153TIP3    H218466   5.844   5.695   1.796
 6154TIP3   OH218467   0.864   3.460   2.006
 6154TIP3    H118468   0.878   3.543   1.960
 6154TIP3    H218469   0.824   3.403   1.940
 6155TIP3   OH218470   4.446   3.250   1.021
 6155TIP3    H118471   4.508   3.322   1.008
 6155TIP3    H218472   4.499   3.171   1.012
 6156TIP3   OH218473   5.780   4.137   4.569
 6156TIP3    H118474   5.760   4.099   4.655
 6156TIP3    H218475   5.871   4.165   4.576
 6157TIP3   OH218476   5.954   2.159   5.122
 6157TIP3    H118477   5.914   2.089   5.071
 6157TIP3    H218478   5.912   2.239   5.091
 6158TIP3   OH218479   6.080   5.775   1.053
 6158TIP3    H118480   6.085   5.864   1.089
 6158TIP3    H218481   6.100   5.718   1.127
 6159TIP3   OH218482   4.905   1.225   4.462
 6159TIP3    H118483   4.958   1.149   4.438
 6159TIP3    H218484   4.933   1.246   4.551
 6160TIP3   OH218485   1.655   5.724   1.871
 6160TIP3    H118486   1.681   5.633   1.889
 6160TIP3    H218487   1.594   5.746   1.941
 6161TIP3   OH218488   0.658   2.403  -0.009
 6161TIP3    H118489   0.711   2.475   0.025
 6161TIP3    H218490   0.682   2.328   0.045
 6162TIP3   OH218491   1.162   5.147   4.871
 6162TIP3    H118492   1.214   5.169   4.948
 6162TIP3    H218493   1.222   5.095   4.816
 6163TIP3   OH218494   0.643   1.943   0.782
 6163TIP3    H118495   0.555   1.972   0.803
 6163TIP3    H218496   0.697   2.023   0.785
 6164TIP3   OH218497   4.812   0.134   2.815
 6164TIP3    H118498   4.727   0.103   2.785
 6164TIP3    H218499   4.802   0.229   2.821
 6165TIP3   OH218500   2.616   2.027   4.638
 6165TIP3    H118501   2.648   1.938   4.627
 6165TIP3    H218502   2.558   2.041   4.562
 6166TIP3   OH218503   3.314   4.877   0.563
 6166TIP3    H118504   3.409   4.889   0.574
 6166TIP3    H218505   3.303   4.868   0.468
 6167TIP3   OH218506   2.481   5.480   1.070
 6167TIP3    H118507   2.541   5.506   1.140
 6167TIP3    H218508   2.423   5.416   1.110
 6168TIP3   OH218509   0.744   0.668   3.922
 6168TIP3    H118510   0.717   0.760   3.920
 6168TIP3    H218511   0.662   0.620   3.910
 6169TIP3   OH218512   2.557   3.216   4.740
 6169TIP3    H118513   2.617   3.244   4.671
 6169TIP3    H218514   2.613   3.182   4.809
 6170TIP3   OH218515   2.952   4.806   3.359
 6170TIP3    H118516   3.045   4.826   3.343
 6170TIP3    H218517   2.926   4.752   3.284
 6171TIP3   OH218518   1.637   0.450   3.671
 6171TIP3    H118519   1.681   0.477   3.751
 6171TIP3    H218520   1.546   0.438   3.697
 6172TIP3   OH218521   5.458   0.191   5.070
 6172TIP3    H118522   5.452   0.107   5.116
 6172TIP3    H218523   5.490   0.167   4.983
 6173TIP3   OH218524   0.831   0.361   1.924
 6173TIP3    H118525   0.862   0.451   1.921
 6173TIP3    H218526   0.745   0.363   1.880
 6174TIP3   OH218527   3.280   3.013   0.377
 6174TIP3    H118528   3.259   3.052   0.292
 6174TIP3    H218529   3.227   2.933   0.381
 6175TIP3   OH218530   5.058   1.934   2.189
 6175TIP3    H118531   5.153   1.927   2.185
 6175TIP3    H218532   5.041   1.986   2.268
 6176TIP3   OH218533   6.149   1.685   0.178
 6176TIP3    H118534   6.215   1.645   0.121
 6176TIP3    H218535   6.154   1.779   0.159
 6177TIP3   OH218536   4.729   1.274   1.521
 6177TIP3    H118537   4.788   1.273   1.446
 6177TIP3    H218538   4.706   1.183   1.536
 6178TIP3   OH218539   3.026   5.901   1.648
 6178TIP3    H118540   3.065   5.960   1.712
 6178TIP3    H218541   3.076   5.917   1.567
 6179TIP3   OH218542   3.970   3.687   2.918
 6179TIP3    H118543   3.954   3.600   2.954
 6179TIP3    H218544   4.065   3.700   2.929
 6180TIP3   OH218545   0.728   2.322   3.857
 6180TIP3    H118546   0.759   2.399   3.810
 6180TIP3    H218547   0.740   2.344   3.949
 6181TIP3   OH218548   5.821   2.788   0.872
 6181TIP3    H118549   5.890   2.793   0.805
 6181TIP3    H218550   5.805   2.880   0.895
 6182TIP3   OH218551   2.630   3.688   5.097
 6182TIP3    H118552   2.609   3.776   5.129
 6182TIP3    H218553   2.699   3.658   5.155
 6183TIP3   OH218554   2.710   1.782   1.542
 6183TIP3    H118555   2.696   1.858   1.599
 6183TIP3    H218556   2.783   1.735   1.583
 6184TIP3   OH218557   5.277   2.542   3.941
 6184TIP3    H118558   5.340   2.507   4.004
 6184TIP3    H218559   5.215   2.470   3.925
 6185TIP3   OH218560   5.711   5.650   4.459
 6185TIP3    H118561   5.673   5.724   4.411
 6185TIP3    H218562   5.725   5.684   4.547
 6186TIP3   OH218563   5.471   3.688   4.854
 6186TIP3    H118564   5.524   3.613   4.884
 6186TIP3    H218565   5.399   3.648   4.806
 6187TIP3   OH218566   3.013   2.481   2.766
 6187TIP3    H118567   3.032   2.439   2.682
 6187TIP3    H218568   2.963   2.415   2.815
 6188TIP3   OH218569   5.300   2.579   2.801
 6188TIP3    H118570   5.245   2.652   2.772
 6188TIP3    H218571   5.256   2.546   2.879
 6189TIP3   OH218572   1.245   3.316   1.739
 6189TIP3    H118573   1.232   3.385   1.674
 6189TIP3    H218574   1.258   3.236   1.688
 6190TIP3   OH218575   2.946   5.363   1.881
 6190TIP3    H118576   3.004   5.304   1.834
 6190TIP3    H218577   2.995   5.445   1.887
 6191TIP3   OH218578   0.404   0.545   4.937
 6191TIP3    H118579   0.315   0.537   4.903
 6191TIP3    H218580   0.460   0.521   4.863
 6192TIP3   OH218581   5.130   1.131   0.127
 6192TIP3    H118582   5.061   1.074   0.159
 6192TIP3    H218583   5.102   1.154   0.038
 6193TIP3   OH218584   2.182   4.361   3.203
 6193TIP3    H118585   2.194   4.398   3.116
 6193TIP3    H218586   2.089   4.340   3.208
 6194TIP3   OH218587   1.249   4.531   1.799
 6194TIP3    H118588   1.178   4.575   1.753
 6194TIP3    H218589   1.313   4.601   1.816
 6195TIP3   OH218590   2.198   3.564   0.854
 6195TIP3    H118591   2.137   3.585   0.783
 6195TIP3    H218592   2.146   3.517   0.919
 6196TIP3   OH218593   0.881   2.779   1.151
 6196TIP3    H118594   0.928   2.702   1.182
 6196TIP3    H218595   0.948   2.847   1.143
 6197TIP3   OH218596   4.507   5.013   4.768
 6197TIP3    H118597   4.476   5.104   4.768
 6197TIP3    H218598   4.448   4.967   4.709
 6198TIP3   OH218599   3.579   4.346   2.828
 6198TIP3    H118600   3.670   4.349   2.858
 6198TIP3    H218601   3.583   4.308   2.741
 6199TIP3   OH218602   3.163   4.663   5.152
 6199TIP3    H118603   3.145   4.596   5.218
 6199TIP3    H218604   3.257   4.656   5.135
 6200TIP3   OH218605   0.035   5.227   1.804
 6200TIP3    H118606  -0.060   5.221   1.795
 6200TIP3    H218607   0.066   5.139   1.784
 6201TIP3   OH218608   3.822   1.009   4.155
 6201TIP3    H118609   3.779   0.946   4.097
 6201TIP3    H218610   3.912   0.978   4.162
 6202TIP3   OH218611   4.405   1.398   2.831
 6202TIP3    H118612   4.492   1.361   2.817
 6202TIP3    H218613   4.378   1.363   2.916
 6203TIP3   OH218614   4.107   2.371   4.311
 6203TIP3    H118615   4.177   2.367   4.376
 6203TIP3    H218616   4.139   2.432   4.245
 6204TIP3   OH218617   4.380   0.093   2.101
 6204TIP3    H118618   4.361   0.028   2.169
 6204TIP3    H218619   4.351   0.176   2.138
 6205TIP3   OH218620   0.307   3.918   3.512
 6205TIP3    H118621   0.297   3.871   3.430
 6205TIP3    H218622   0.304   3.850   3.579
 6206TIP3   OH218623   4.120   3.794   1.887
 6206TIP3    H118624   4.082   3.861   1.944
 6206TIP3    H218625   4.168   3.844   1.820
 6207TIP3   OH218626   3.273   5.202   2.273
 6207TIP3    H118627   3.354   5.162   2.242
 6207TIP3    H218628   3.212   5.192   2.200
 6208TIP3   OH218629   4.180   0.202   1.925
 6208TIP3    H118630   4.260   0.181   1.972
 6208TIP3    H218631   4.168   0.128   1.865
 6209TIP3   OH218632   2.443   4.954   2.825
 6209TIP3    H118633   2.388   4.993   2.758
 6209TIP3    H218634   2.407   4.866   2.838
 6210TIP3   OH218635   3.759   5.319   0.795
 6210TIP3    H118636   3.815   5.275   0.858
 6210TIP3    H218637   3.720   5.249   0.744
 6211TIP3   OH218638   4.917   0.967   0.202
 6211TIP3    H118639   4.836   1.000   0.242
 6211TIP3    H218640   4.891   0.885   0.161
 6212TIP3   OH218641   3.666   4.387   0.576
 6212TIP3    H118642   3.748   4.363   0.534
 6212TIP3    H218643   3.620   4.304   0.588
 6213TIP3   OH218644   1.477   3.785   4.832
 6213TIP3    H118645   1.393   3.783   4.788
 6213TIP3    H218646   1.541   3.759   4.765
 6214TIP3   OH218647   1.917   5.744   4.566
 6214TIP3    H118648   1.857   5.798   4.618
 6214TIP3    H218649   1.885   5.655   4.577
 6215TIP3   OH218650   6.291   4.374   2.202
 6215TIP3    H118651   6.340   4.423   2.137
 6215TIP3    H218652   6.230   4.320   2.152
 6216TIP3   OH218653   0.708   5.888   3.859
 6216TIP3    H118654   0.640   5.888   3.926
 6216TIP3    H218655   0.758   5.968   3.876
 6217TIP3   OH218656   6.377   3.384   0.643
 6217TIP3    H118657   6.342   3.318   0.702
 6217TIP3    H218658   6.334   3.368   0.559
 6218TIP3   OH218659   4.352   3.958   3.396
 6218TIP3    H118660   4.350   3.971   3.302
 6218TIP3    H218661   4.265   3.925   3.418
 6219TIP3   OH218662   0.780   1.395   0.595
 6219TIP3    H118663   0.719   1.358   0.658
 6219TIP3    H218664   0.820   1.469   0.640
 6220TIP3   OH218665   1.826   0.254   2.643
 6220TIP3    H118666   1.901   0.313   2.633
 6220TIP3    H218667   1.772   0.271   2.566
 6221TIP3   OH218668   1.373   4.088   2.455
 6221TIP3    H118669   1.337   4.167   2.414
 6221TIP3    H218670   1.356   4.019   2.390
 6222TIP3   OH218671   4.313   5.110   0.885
 6222TIP3    H118672   4.398   5.066   0.887
 6222TIP3    H218673   4.298   5.138   0.975
 6223TIP3   OH218674   6.082   4.692   3.209
 6223TIP3    H118675   6.017   4.686   3.140
 6223TIP3    H218676   6.059   4.771   3.257
 6224TIP3   OH218677   1.301   2.578   3.864
 6224TIP3    H118678   1.365   2.644   3.839
 6224TIP3    H218679   1.333   2.544   3.948
 6225TIP3   OH218680   2.045   5.941   5.025
 6225TIP3    H118681   2.001   6.025   5.017
 6225TIP3    H218682   2.107   5.939   4.953
 6226TIP3   OH218683   2.854   3.061   2.364
 6226TIP3    H118684   2.885   3.145   2.397
 6226TIP3    H218685   2.780   3.039   2.422
 6227TIP3   OH218686   1.893   4.857   4.218
 6227TIP3    H118687   1.802   4.882   4.201
 6227TIP3    H218688   1.888   4.803   4.297
 6228TIP3   OH218689   0.361   2.323   1.856
 6228TIP3    H118690   0.407   2.371   1.925
 6228TIP3    H218691   0.326   2.245   1.899
 6229TIP3   OH218692   5.093   1.027   4.323
 6229TIP3    H118693   5.151   0.950   4.323
 6229TIP3    H218694   5.141   1.093   4.273
 6230TIP3   OH218695   5.724   3.591   3.114
 6230TIP3    H118696   5.637   3.590   3.154
 6230TIP3    H218697   5.712   3.642   3.034
 6231TIP3   OH218698   5.010   2.379   2.381
 6231TIP3    H118699   4.962   2.320   2.324
 6231TIP3    H218700   5.059   2.436   2.321
 6232TIP3   OH218701   0.439   4.696   4.655
 6232TIP3    H118702   0.345   4.683   4.669
 6232TIP3    H218703   0.447   4.788   4.630
 6233TIP3   OH218704   0.865   5.072   1.796
 6233TIP3    H118705   0.792   5.092   1.854
 6233TIP3    H218706   0.824   5.049   1.712
 6234TIP3   OH218707   3.204   3.262   3.671
 6234TIP3    H118708   3.251   3.345   3.664
 6234TIP3    H218709   3.200   3.245   3.765
 6235TIP3   OH218710   3.446   4.138   5.069
 6235TIP3    H118711   3.407   4.153   4.983
 6235TIP3    H218712   3.498   4.216   5.086
 6236TIP3   OH218713   3.479   2.019   1.708
 6236TIP3    H118714   3.460   2.038   1.616
 6236TIP3    H218715   3.393   2.021   1.751
 6237TIP3   OH218716   1.620   1.499   4.531
 6237TIP3    H118717   1.637   1.456   4.447
 6237TIP3    H218718   1.703   1.493   4.578
 6238TIP3   OH218719   3.972   2.224   4.789
 6238TIP3    H118720   4.018   2.214   4.873
 6238TIP3    H218721   4.013   2.300   4.749
 6239TIP3   OH218722   1.070   1.406   0.799
 6239TIP3    H118723   1.049   1.469   0.729
 6239TIP3    H218724   1.035   1.447   0.878
 6240TIP3   OH218725   4.069   3.252   0.819
 6240TIP3    H118726   4.115   3.213   0.893
 6240TIP3    H218727   4.053   3.179   0.759
 6241TIP3   OH218728   2.839   3.410   0.607
 6241TIP3    H118729   2.923   3.386   0.568
 6241TIP3    H218730   2.862   3.443   0.694
 6242TIP3   OH218731   2.696   5.354   1.647
 6242TIP3    H118732   2.698   5.433   1.594
 6242TIP3    H218733   2.731   5.382   1.732
 6243TIP3   OH218734   4.061   3.336   1.983
 6243TIP3    H118735   4.125   3.354   2.051
 6243TIP3    H218736   4.007   3.415   1.979
 6244TIP3   OH218737   3.524   1.126   2.701
 6244TIP3    H118738   3.441   1.167   2.674
 6244TIP3    H218739   3.569   1.194   2.750
 6245TIP3   OH218740   3.647   4.374   1.895
 6245TIP3    H118741   3.655   4.365   1.990
 6245TIP3    H218742   3.606   4.293   1.867
 6246TIP3   OH218743   4.683   0.166   1.445
 6246TIP3    H118744   4.634   0.201   1.519
 6246TIP3    H218745   4.775   0.186   1.464
 6247TIP3   OH218746   1.028   2.388   0.529
 6247TIP3    H118747   0.978   2.470   0.532
 6247TIP3    H218748   1.073   2.385   0.614
 6248TIP3   OH218749   2.721   1.848   1.265
 6248TIP3    H118750   2.685   1.934   1.287
 6248TIP3    H218751   2.733   1.805   1.350
 6249TIP3   OH218752   5.688   4.149   4.173
 6249TIP3    H118753   5.734   4.073   4.210
 6249TIP3    H218754   5.755   4.198   4.127
 6250TIP3   OH218755   2.033   2.531   1.994
 6250TIP3    H118756   2.107   2.471   1.980
 6250TIP3    H218757   2.046   2.566   2.082
 6251TIP3   OH218758   1.513   5.784   4.868
 6251TIP3    H118759   1.496   5.874   4.898
 6251TIP3    H218760   1.426   5.748   4.851
 6252TIP3   OH218761   1.118   5.398   4.784
 6252TIP3    H118762   1.103   5.310   4.818
 6252TIP3    H218763   1.030   5.436   4.775
 6253TIP3   OH218764   2.263   0.115   4.164
 6253TIP3    H118765   2.182   0.064   4.163
 6253TIP3    H218766   2.252   0.176   4.237
 6254TIP3   OH218767   3.006   3.189   3.201
 6254TIP3    H118768   2.967   3.185   3.288
 6254TIP3    H218769   2.931   3.193   3.142
 6255TIP3   OH218770   1.455   0.247   2.577
 6255TIP3    H118771   1.435   0.192   2.653
 6255TIP3    H218772   1.413   0.331   2.597
 6256TIP3   OH218773   5.168   0.362   3.885
 6256TIP3    H118774   5.165   0.266   3.878
 6256TIP3    H218775   5.250   0.387   3.843
 6257TIP3   OH218776   4.668   1.000   2.884
 6257TIP3    H118777   4.634   0.911   2.878
 6257TIP3    H218778   4.755   0.995   2.846
 6258TIP3   OH218779   0.393   3.010   5.052
 6258TIP3    H118780   0.429   3.076   4.992
 6258TIP3    H218781   0.470   2.967   5.089
 6259TIP3   OH218782   3.275   2.716   4.640
 6259TIP3    H118783   3.344   2.718   4.706
 6259TIP3    H218784   3.267   2.623   4.617
 6260TIP3   OH218785   4.765   3.364   0.672
 6260TIP3    H118786   4.797   3.317   0.595
 6260TIP3    H218787   4.824   3.439   0.681
 6261TIP3   OH218788   4.502   1.689   2.318
 6261TIP3    H118789   4.522   1.596   2.324
 6261TIP3    H218790   4.469   1.701   2.228
 6262TIP3   OH218791   5.475   0.541   4.288
 6262TIP3    H118792   5.524   0.619   4.262
 6262TIP3    H218793   5.524   0.504   4.361
 6263TIP3   OH218794   5.522   5.218   4.323
 6263TIP3    H118795   5.478   5.272   4.389
 6263TIP3    H218796   5.613   5.212   4.354
 6264TIP3   OH218797   2.094   3.176   3.879
 6264TIP3    H118798   2.186   3.153   3.889
 6264TIP3    H218799   2.057   3.168   3.967
 6265TIP3   OH218800   0.601   4.007   2.153
 6265TIP3    H118801   0.618   3.915   2.131
 6265TIP3    H218802   0.515   4.006   2.194
 6266TIP3   OH218803   5.203   2.476   0.675
 6266TIP3    H118804   5.140   2.452   0.607
 6266TIP3    H218805   5.285   2.437   0.646
 6267TIP3   OH218806   1.852   4.410   2.200
 6267TIP3    H118807   1.941   4.388   2.171
 6267TIP3    H218808   1.796   4.385   2.126
 6268TIP3   OH218809   0.987   5.125   2.679
 6268TIP3    H118810   0.917   5.187   2.700
 6268TIP3    H218811   1.038   5.118   2.760
 6269TIP3   OH218812   3.556   2.445   4.677
 6269TIP3    H118813   3.465   2.423   4.656
 6269TIP3    H218814   3.608   2.395   4.613
 6270TIP3   OH218815   2.054   4.700   2.353
 6270TIP3    H118816   2.034   4.790   2.379
 6270TIP3    H218817   2.003   4.686   2.273
 6271TIP3   OH218818   5.634   0.491   1.121
 6271TIP3    H118819   5.612   0.494   1.214
 6271TIP3    H218820   5.705   0.554   1.111
 6272TIP3   OH218821   3.662   4.337   3.754
 6272TIP3    H118822   3.705   4.345   3.668
 6272TIP3    H218823   3.631   4.425   3.774
 6273TIP3   OH218824   4.910   2.613   1.885
 6273TIP3    H118825   4.960   2.656   1.953
 6273TIP3    H218826   4.845   2.678   1.858
 6274TIP3   OH218827   2.181   2.303   1.151
 6274TIP3    H118828   2.252   2.323   1.213
 6274TIP3    H218829   2.102   2.299   1.204
 6275TIP3   OH218830   6.010   3.679   2.492
 6275TIP3    H118831   5.952   3.606   2.514
 6275TIP3    H218832   5.956   3.739   2.441
 6276TIP3   OH218833   0.278   3.372   3.980
 6276TIP3    H118834   0.280   3.464   4.006
 6276TIP3    H218835   0.322   3.326   4.050
 6277TIP3   OH218836   0.289   5.531   4.611
 6277TIP3    H118837   0.339   5.491   4.540
 6277TIP3    H218838   0.278   5.622   4.585
 6278TIP3   OH218839   3.422   1.827   3.326
 6278TIP3    H118840   3.418   1.921   3.338
 6278TIP3    H218841   3.515   1.807   3.315
 6279TIP3   OH218842   1.435   1.348   2.323
 6279TIP3    H118843   1.429   1.276   2.385
 6279TIP3    H218844   1.435   1.306   2.237
 6280TIP3   OH218845   3.837   4.354   4.607
 6280TIP3    H118846   3.822   4.365   4.701
 6280TIP3    H218847   3.756   4.383   4.566
 6281TIP3   OH218848   4.658   0.097   3.610
 6281TIP3    H118849   4.670   0.011   3.650
 6281TIP3    H218850   4.723   0.153   3.653
 6282TIP3   OH218851   4.398   0.596   1.337
 6282TIP3    H118852   4.480   0.609   1.385
 6282TIP3    H218853   4.352   0.680   1.345
 6283TIP3   OH218854   3.512   1.469   1.830
 6283TIP3    H118855   3.506   1.383   1.871
 6283TIP3    H218856   3.445   1.467   1.762
 6284TIP3   OH218857   5.572   5.014   5.136
 6284TIP3    H118858   5.488   5.021   5.182
 6284TIP3    H218859   5.560   5.063   5.055
 6285TIP3   OH218860   5.799   0.154   2.330
 6285TIP3    H118861   5.846   0.230   2.295
 6285TIP3    H218862   5.720   0.148   2.277
 6286TIP3   OH218863   4.001   3.999   2.270
 6286TIP3    H118864   4.033   4.053   2.343
 6286TIP3    H218865   3.995   3.911   2.307
 6287TIP3   OH218866   4.740   4.568   3.211
 6287TIP3    H118867   4.835   4.581   3.207
 6287TIP3    H218868   4.726   4.516   3.291
 6288TIP3   OH218869   2.238   3.071   0.759
 6288TIP3    H118870   2.258   3.107   0.845
 6288TIP3    H218871   2.186   3.139   0.716
 6289TIP3   OH218872   6.185   3.959   3.030
 6289TIP3    H118873   6.129   4.033   3.053
 6289TIP3    H218874   6.249   3.954   3.101
 6290TIP3   OH218875   2.059   1.350   1.780
 6290TIP3    H118876   2.147   1.313   1.777
 6290TIP3    H218877   2.046   1.387   1.693
 6291TIP3   OH218878   0.521   5.085   2.999
 6291TIP3    H118879   0.568   5.016   2.952
 6291TIP3    H218880   0.453   5.113   2.938
 6292TIP3   OH218881   3.512   2.314   2.571
 6292TIP3    H118882   3.605   2.323   2.592
 6292TIP3    H218883   3.475   2.400   2.589
 6293TIP3   OH218884   3.888   2.636   4.755
 6293TIP3    H118885   3.937   2.581   4.694
 6293TIP3    H218886   3.898   2.725   4.720
 6294TIP3   OH218887   5.614   0.068   0.523
 6294TIP3    H118888   5.624  -0.024   0.548
 6294TIP3    H218889   5.540   0.099   0.575
 6295TIP3   OH218890   2.348   2.647   3.566
 6295TIP3    H118891   2.269   2.696   3.591
 6295TIP3    H218892   2.320   2.594   3.491
 6296TIP3   OH218893   4.624   0.176   0.700
 6296TIP3    H118894   4.646   0.143   0.613
 6296TIP3    H218895   4.619   0.271   0.689
 6297TIP3   OH218896   4.415   1.724   4.674
 6297TIP3    H118897   4.409   1.748   4.582
 6297TIP3    H218898   4.465   1.795   4.714
 6298TIP3   OH218899   1.273   4.005   4.027
 6298TIP3    H118900   1.254   4.099   4.030
 6298TIP3    H218901   1.299   3.989   3.936
 6299TIP3   OH218902   1.089   3.181   2.651
 6299TIP3    H118903   1.073   3.162   2.743
 6299TIP3    H218904   1.045   3.110   2.604
 6300TIP3   OH218905   1.143   0.415   5.006
 6300TIP3    H118906   1.117   0.494   5.053
 6300TIP3    H218907   1.191   0.447   4.930
 6301TIP3   OH218908   0.791   1.962   0.361
 6301TIP3    H118909   0.863   1.899   0.348
 6301TIP3    H218910   0.832   2.047   0.347
 6302TIP3   OH218911   1.418   1.342   4.900
 6302TIP3    H118912   1.406   1.392   4.980
 6302TIP3    H218913   1.472   1.267   4.926
 6303TIP3   OH218914   4.966   1.933   0.698
 6303TIP3    H118915   4.933   2.022   0.688
 6303TIP3    H218916   4.922   1.883   0.629
 6304TIP3   OH218917   2.916   0.574   3.023
 6304TIP3    H118918   2.820   0.574   3.019
 6304TIP3    H218919   2.937   0.619   3.105
 6305TIP3   OH218920   1.871   3.322   0.388
 6305TIP3    H118921   1.880   3.230   0.415
 6305TIP3    H218922   1.888   3.372   0.468
 6306TIP3   OH218923   4.878   5.504   0.701
 6306TIP3    H118924   4.816   5.431   0.707
 6306TIP3    H218925   4.944   5.484   0.767
 6307TIP3   OH218926   5.166   5.470   2.692
 6307TIP3    H118927   5.080   5.475   2.651
 6307TIP3    H218928   5.206   5.555   2.677
 6308TIP3   OH218929   5.118   3.753   2.850
 6308TIP3    H118930   5.089   3.844   2.847
 6308TIP3    H218931   5.197   3.751   2.796
 6309TIP3   OH218932   2.481   1.426   0.254
 6309TIP3    H118933   2.437   1.487   0.313
 6309TIP3    H218934   2.514   1.356   0.311
 6310TIP3   OH218935   4.780   5.607   4.027
 6310TIP3    H118936   4.775   5.563   3.942
 6310TIP3    H218937   4.774   5.700   4.006
 6311TIP3   OH218938   0.377   4.815   3.101
 6311TIP3    H118939   0.321   4.891   3.109
 6311TIP3    H218940   0.462   4.850   3.075
 6312TIP3   OH218941   3.439   0.194   2.561
 6312TIP3    H118942   3.415   0.151   2.644
 6312TIP3    H218943   3.414   0.285   2.574
 6313TIP3   OH218944   0.851   5.647   1.652
 6313TIP3    H118945   0.767   5.653   1.607
 6313TIP3    H218946   0.841   5.703   1.729
 6314TIP3   OH218947   2.041   1.305   4.050
 6314TIP3    H118948   2.034   1.209   4.044
 6314TIP3    H218949   1.995   1.327   4.131
 6315TIP3   OH218950   5.383   3.451   2.554
 6315TIP3    H118951   5.438   3.529   2.552
 6315TIP3    H218952   5.360   3.440   2.646
 6316TIP3   OH218953   2.978   0.929   3.551
 6316TIP3    H118954   2.912   0.997   3.561
 6316TIP3    H218955   2.928   0.852   3.521
 6317TIP3   OH218956   0.530   3.075   4.002
 6317TIP3    H118957   0.534   3.082   3.906
 6317TIP3    H218958   0.610   3.028   4.026
 6318TIP3   OH218959   2.560   3.191   3.502
 6318TIP3    H118960   2.604   3.240   3.433
 6318TIP3    H218961   2.630   3.145   3.548
 6319TIP3   OH218962   1.990   5.687   3.366
 6319TIP3    H118963   1.920   5.644   3.318
 6319TIP3    H218964   1.983   5.651   3.455
 6320TIP3   OH218965   3.540   0.342   0.870
 6320TIP3    H118966   3.619   0.396   0.871
 6320TIP3    H218967   3.521   0.328   0.778
 6321TIP3   OH218968   0.534   1.198   4.106
 6321TIP3    H118969   0.459   1.234   4.153
 6321TIP3    H218970   0.512   1.106   4.094
 6322TIP3   OH218971   4.458   4.757   0.783
 6322TIP3    H118972   4.497   4.839   0.751
 6322TIP3    H218973   4.465   4.697   0.708
 6323TIP3   OH218974   1.828   0.573   1.944
 6323TIP3    H118975   1.900   0.605   1.890
 6323TIP3    H218976   1.773   0.650   1.960
 6324TIP3   OH218977   1.552   3.644   2.483
 6324TIP3    H118978   1.536   3.708   2.552
 6324TIP3    H218979   1.465   3.626   2.446
 6325TIP3   OH218980   2.222   2.592   0.249
 6325TIP3    H118981   2.215   2.614   0.342
 6325TIP3    H218982   2.149   2.639   0.209
 6326TIP3   OH218983   4.062   3.715   4.477
 6326TIP3    H118984   4.144   3.762   4.493
 6326TIP3    H218985   4.003   3.782   4.441
 6327TIP3   OH218986   2.744   2.061   3.194
 6327TIP3    H118987   2.746   1.978   3.240
 6327TIP3    H218988   2.814   2.055   3.129
 6328TIP3   OH218989   4.239   5.565   0.074
 6328TIP3    H118990   4.286   5.517   0.142
 6328TIP3    H218991   4.227   5.653   0.111
 6329TIP3   OH218992   2.534   1.224   3.659
 6329TIP3    H118993   2.475   1.213   3.733
 6329TIP3    H218994   2.554   1.318   3.657
 6330TIP3   OH218995   2.316   4.264   2.065
 6330TIP3    H118996   2.322   4.169   2.059
 6330TIP3    H218997   2.237   4.280   2.116
 6331TIP3   OH218998   1.394   1.826   2.812
 6331TIP3    H118999   1.408   1.789   2.725
 6331TIP3    H219000   1.326   1.771   2.851
 6332TIP3   OH219001   2.213   2.078   0.669
 6332TIP3    H119002   2.127   2.061   0.708
 6332TIP3    H219003   2.226   2.006   0.608
 6333TIP3   OH219004   4.878   0.715   0.099
 6333TIP3    H119005   4.784   0.730   0.112
 6333TIP3    H219006   4.882   0.648   0.031
 6334TIP3   OH219007   2.840   4.351   1.936
 6334TIP3    H119008   2.851   4.421   1.871
 6334TIP3    H219009   2.751   4.319   1.922
 6335TIP3   OH219010   1.969   1.929   4.199
 6335TIP3    H119011   1.990   1.957   4.288
 6335TIP3    H219012   1.962   2.010   4.149
 6336TIP3   OH219013   3.225   1.483   5.114
 6336TIP3    H119014   3.320   1.488   5.108
 6336TIP3    H219015   3.199   1.563   5.160
 6337TIP3   OH219016   1.954   2.115   3.731
 6337TIP3    H119017   2.009   2.154   3.798
 6337TIP3    H219018   1.865   2.137   3.756
 6338TIP3   OH219019   0.127   5.964   3.043
 6338TIP3    H119020   0.220   5.955   3.064
 6338TIP3    H219021   0.108   5.888   2.987
 6339TIP3   OH219022   1.910   2.823   0.329
 6339TIP3    H119023   1.907   2.743   0.381
 6339TIP3    H219024   1.947   2.797   0.245
 6340TIP3   OH219025   5.005   5.143   0.543
 6340TIP3    H119026   4.973   5.059   0.578
 6340TIP3    H219027   5.097   5.146   0.569
 6341TIP3   OH219028   5.870   3.649   4.281
 6341TIP3    H119029   5.796   3.701   4.311
 6341TIP3    H219030   5.868   3.655   4.186
 6342TIP3   OH219031   4.704   5.681   0.912
 6342TIP3    H119032   4.677   5.593   0.885
 6342TIP3    H219033   4.800   5.679   0.910
 6343TIP3   OH219034   2.104   0.066   2.760
 6343TIP3    H119035   2.185   0.116   2.752
 6343TIP3    H219036   2.049   0.096   2.687
 6344TIP3   OH219037   5.571   3.806   0.963
 6344TIP3    H119038   5.640   3.797   0.897
 6344TIP3    H219039   5.601   3.876   1.020
 6345TIP3   OH219040   4.305   2.179   0.649
 6345TIP3    H119041   4.352   2.130   0.716
 6345TIP3    H219042   4.229   2.217   0.694
 6346TIP3   OH219043   0.168   0.188   3.362
 6346TIP3    H119044   0.105   0.260   3.374
 6346TIP3    H219045   0.186   0.157   3.450
 6347TIP3   OH219046   6.274   0.887   2.058
 6347TIP3    H119047   6.359   0.926   2.037
 6347TIP3    H219048   6.229   0.881   1.974
 6348TIP3   OH219049   2.637   0.647   1.673
 6348TIP3    H119050   2.569   0.713   1.666
 6348TIP3    H219051   2.715   0.688   1.635
 6349TIP3   OH219052   5.945   4.699   4.465
 6349TIP3    H119053   5.940   4.793   4.479
 6349TIP3    H219054   6.034   4.684   4.433
 6350TIP3   OH219055   3.545   0.366   5.015
 6350TIP3    H119056   3.513   0.449   5.051
 6350TIP3    H219057   3.638   0.364   5.038
 6351TIP3   OH219058   3.135   2.452   2.498
 6351TIP3    H119059   3.219   2.495   2.513
 6351TIP3    H219060   3.088   2.511   2.440
 6352TIP3   OH219061   0.867   1.071   2.611
 6352TIP3    H119062   0.881   1.165   2.615
 6352TIP3    H219063   0.949   1.036   2.576
 6353TIP3   OH219064   4.026   2.616   3.068
 6353TIP3    H119065   4.003   2.633   2.977
 6353TIP3    H219066   3.943   2.628   3.116
 6354TIP3   OH219067   1.115   0.234   3.312
 6354TIP3    H119068   1.174   0.309   3.317
 6354TIP3    H219069   1.048   0.259   3.248
 6355TIP3   OH219070   0.320   1.820   1.607
 6355TIP3    H119071   0.241   1.871   1.594
 6355TIP3    H219072   0.354   1.849   1.692
 6356TIP3   OH219073   1.933   3.148   1.676
 6356TIP3    H119074   1.997   3.218   1.687
 6356TIP3    H219075   1.964   3.100   1.598
 6357TIP3   OH219076   5.804   2.230   1.353
 6357TIP3    H119077   5.852   2.279   1.419
 6357TIP3    H219078   5.795   2.291   1.280
 6358TIP3   OH219079   4.281   4.020   4.891
 6358TIP3    H119080   4.257   3.975   4.971
 6358TIP3    H219081   4.346   4.085   4.920
 6359TIP3   OH219082   2.296   0.680   0.471
 6359TIP3    H119083   2.344   0.655   0.550
 6359TIP3    H219084   2.226   0.615   0.464
 6360TIP3   OH219085   2.665   0.293   2.888
 6360TIP3    H119086   2.715   0.323   2.812
 6360TIP3    H219087   2.686   0.199   2.895
 6361TIP3   OH219088   6.168   3.520   1.247
 6361TIP3    H119089   6.133   3.571   1.320
 6361TIP3    H219090   6.091   3.479   1.208
 6362TIP3   OH219091   2.441   4.880   4.767
 6362TIP3    H119092   2.522   4.861   4.813
 6362TIP3    H219093   2.384   4.806   4.788
 6363TIP3   OH219094   1.764   0.972   0.191
 6363TIP3    H119095   1.849   0.933   0.213
 6363TIP3    H219096   1.714   0.900   0.152
 6364TIP3   OH219097   3.282   4.657   4.223
 6364TIP3    H119098   3.276   4.750   4.242
 6364TIP3    H219099   3.373   4.644   4.195
 6365TIP3   OH219100   2.836   2.109   0.215
 6365TIP3    H119101   2.835   2.147   0.127
 6365TIP3    H219102   2.895   2.034   0.208
 6366TIP3   OH219103   1.874   1.033   1.918
 6366TIP3    H119104   1.829   1.117   1.919
 6366TIP3    H219105   1.922   1.032   1.835
 6367TIP3   OH219106   6.167   3.216   4.059
 6367TIP3    H119107   6.154   3.209   3.965
 6367TIP3    H219108   6.257   3.248   4.069
 6368TIP3   OH219109   4.512   4.885   4.347
 6368TIP3    H119110   4.573   4.922   4.411
 6368TIP3    H219111   4.474   4.809   4.391
 6369TIP3   OH219112   3.719   3.791   2.927
 6369TIP3    H119113   3.702   3.827   2.840
 6369TIP3    H219114   3.804   3.747   2.919
 6370TIP3   OH219115   1.606   5.393   4.477
 6370TIP3    H119116   1.540   5.461   4.486
 6370TIP3    H219117   1.667   5.409   4.549
 6371TIP3   OH219118   1.755   0.200   0.335
 6371TIP3    H119119   1.813   0.205   0.412
 6371TIP3    H219120   1.758   0.108   0.309
 6372TIP3   OH219121   0.705   3.431   3.906
 6372TIP3    H119122   0.677   3.362   3.846
 6372TIP3    H219123   0.745   3.385   3.979
 6373TIP3   OH219124   2.974   0.308   0.936
 6373TIP3    H119125   3.061   0.348   0.940
 6373TIP3    H219126   2.944   0.325   0.847
 6374TIP3   OH219127   2.726   4.763   3.988
 6374TIP3    H119128   2.772   4.801   4.063
 6374TIP3    H219129   2.636   4.750   4.019
 6375TIP3   OH219130   1.331   0.803   1.700
 6375TIP3    H119131   1.403   0.757   1.743
 6375TIP3    H219132   1.334   0.774   1.609
 6376TIP3   OH219133   2.551   3.793   4.135
 6376TIP3    H119134   2.639   3.762   4.116
 6376TIP3    H219135   2.563   3.884   4.165
 6377TIP3   OH219136   0.860   3.916   3.339
 6377TIP3    H119137   0.768   3.903   3.360
 6377TIP3    H219138   0.860   3.944   3.247
 6378TIP3   OH219139   1.458   0.997   4.319
 6378TIP3    H119140   1.387   1.059   4.307
 6378TIP3    H219141   1.426   0.935   4.384
 6379TIP3   OH219142   2.820   3.725   1.765
 6379TIP3    H119143   2.745   3.667   1.779
 6379TIP3    H219144   2.791   3.783   1.694
 6380TIP3   OH219145   0.664   4.556   1.160
 6380TIP3    H119146   0.643   4.583   1.249
 6380TIP3    H219147   0.756   4.580   1.149
 6381TIP3   OH219148   5.382   4.744   1.437
 6381TIP3    H119149   5.347   4.830   1.413
 6381TIP3    H219150   5.445   4.763   1.507
 6382TIP3   OH219151   5.392   3.444   4.409
 6382TIP3    H119152   5.390   3.531   4.368
 6382TIP3    H219153   5.481   3.435   4.442
 6383TIP3   OH219154   1.897   5.031   1.874
 6383TIP3    H119155   1.804   5.050   1.888
 6383TIP3    H219156   1.917   4.959   1.933
 6384TIP3   OH219157   2.261   0.294   3.011
 6384TIP3    H119158   2.349   0.277   3.045
 6384TIP3    H219159   2.215   0.211   3.019
 6385TIP3   OH219160   0.716   0.891   4.198
 6385TIP3    H119161   0.693   0.912   4.108
 6385TIP3    H219162   0.692   0.798   4.208
 6386TIP3   OH219163   1.962   4.042   3.642
 6386TIP3    H119164   2.038   3.987   3.622
 6386TIP3    H219165   1.887   3.983   3.637
 6387TIP3   OH219166   5.232   3.200   4.781
 6387TIP3    H119167   5.178   3.198   4.860
 6387TIP3    H219168   5.180   3.248   4.717
 6388TIP3   OH219169   0.099   5.141   1.481
 6388TIP3    H119170   0.116   5.082   1.408
 6388TIP3    H219171   0.009   5.170   1.468
 6389TIP3   OH219172   5.248   0.838   1.303
 6389TIP3    H119173   5.316   0.780   1.268
 6389TIP3    H219174   5.166   0.796   1.278
 6390TIP3   OH219175   2.708   0.686   0.329
 6390TIP3    H119176   2.701   0.781   0.318
 6390TIP3    H219177   2.750   0.675   0.414
 6391TIP3   OH219178   3.827   4.409   2.907
 6391TIP3    H119179   3.864   4.494   2.883
 6391TIP3    H219180   3.860   4.392   2.995
 6392TIP3   OH219181   4.525   0.942   2.178
 6392TIP3    H119182   4.477   0.860   2.195
 6392TIP3    H219183   4.544   0.977   2.265
 6393TIP3   OH219184   5.654   4.213   3.663
 6393TIP3    H119185   5.716   4.162   3.611
 6393TIP3    H219186   5.608   4.148   3.715
 6394TIP3   OH219187   2.131   3.657   4.093
 6394TIP3    H119188   2.155   3.729   4.152
 6394TIP3    H219189   2.194   3.587   4.114
 6395TIP3   OH219190   1.309   4.222   2.711
 6395TIP3    H119191   1.369   4.174   2.654
 6395TIP3    H219192   1.266   4.154   2.763
 6396TIP3   OH219193   4.675   3.723   2.337
 6396TIP3    H119194   4.668   3.735   2.432
 6396TIP3    H219195   4.623   3.795   2.301
 6397TIP3   OH219196   4.822   5.120   0.108
 6397TIP3    H119197   4.775   5.131   0.191
 6397TIP3    H219198   4.900   5.069   0.131
 6398TIP3   OH219199   3.393   3.376   4.509
 6398TIP3    H119200   3.351   3.344   4.589
 6398TIP3    H219201   3.371   3.311   4.443
 6399TIP3   OH219202   0.826   5.391   0.015
 6399TIP3    H119203   0.765   5.317   0.017
 6399TIP3    H219204   0.898   5.364   0.072
 6400TIP3   OH219205   3.012   5.247   2.514
 6400TIP3    H119206   3.086   5.282   2.564
 6400TIP3    H219207   2.993   5.162   2.555
 6401TIP3   OH219208   0.929   0.863   2.081
 6401TIP3    H119209   0.888   0.783   2.048
 6401TIP3    H219210   1.023   0.844   2.081
 6402TIP3   OH219211   3.876   3.874   4.366
 6402TIP3    H119212   3.820   3.874   4.288
 6402TIP3    H219213   3.869   3.963   4.401
 6403TIP3   OH219214   6.261   0.929   1.628
 6403TIP3    H119215   6.297   0.939   1.716
 6403TIP3    H219216   6.328   0.968   1.571
 6404TIP3   OH219217   4.825   4.696   0.846
 6404TIP3    H119218   4.785   4.657   0.924
 6404TIP3    H219219   4.915   4.664   0.847
 6405TIP3   OH219220   1.177   3.757   3.541
 6405TIP3    H119221   1.228   3.681   3.515
 6405TIP3    H219222   1.104   3.721   3.591
 6406TIP3   OH219223   5.858   4.559   2.808
 6406TIP3    H119224   5.814   4.544   2.892
 6406TIP3    H219225   5.804   4.512   2.744
 6407TIP3   OH219226   5.121   1.252   4.669
 6407TIP3    H119227   5.121   1.240   4.764
 6407TIP3    H219228   5.181   1.184   4.637
 6408TIP3   OH219229   2.794   2.417   0.032
 6408TIP3    H119230   2.860   2.477   0.068
 6408TIP3    H219231   2.721   2.474   0.007
 6409TIP3   OH219232   0.847   5.833   4.539
 6409TIP3    H119233   0.758   5.803   4.524
 6409TIP3    H219234   0.847   5.924   4.509
 6410TIP3   OH219235   2.101   5.831   2.183
 6410TIP3    H119236   2.113   5.755   2.239
 6410TIP3    H219237   2.135   5.805   2.098
 6411TIP3   OH219238   0.029   1.319   4.242
 6411TIP3    H119239   0.117   1.280   4.241
 6411TIP3    H219240  -0.008   1.291   4.326
 6412TIP3   OH219241   2.507   3.331   0.813
 6412TIP3    H119242   2.518   3.396   0.882
 6412TIP3    H219243   2.415   3.340   0.786
 6413TIP3   OH219244   1.711   2.187   1.833
 6413TIP3    H119245   1.753   2.250   1.774
 6413TIP3    H219246   1.764   2.190   1.913
 6414TIP3   OH219247   2.752   4.997   5.160
 6414TIP3    H119248   2.729   4.952   5.241
 6414TIP3    H219249   2.683   4.971   5.098
 6415TIP3   OH219250   2.869   5.845   3.702
 6415TIP3    H119251   2.828   5.809   3.781
 6415TIP3    H219252   2.918   5.921   3.733
 6416TIP3   OH219253   4.035   3.505   2.286
 6416TIP3    H119254   4.093   3.459   2.225
 6416TIP3    H219255   3.963   3.443   2.301
 6417TIP3   OH219256   1.904   2.376   3.290
 6417TIP3    H119257   1.942   2.454   3.330
 6417TIP3    H219258   1.944   2.303   3.338
 6418TIP3   OH219259   3.528   3.199   4.330
 6418TIP3    H119260   3.581   3.243   4.396
 6418TIP3    H219261   3.576   3.118   4.311
 6419TIP3   OH219262   4.289   5.037   1.514
 6419TIP3    H119263   4.383   5.045   1.501
 6419TIP3    H219264   4.258   4.989   1.437
 6420TIP3   OH219265   3.761   4.222   0.836
 6420TIP3    H119266   3.722   4.305   0.861
 6420TIP3    H219267   3.686   4.166   0.813
 6421TIP3   OH219268   3.092   3.722   1.747
 6421TIP3    H119269   3.020   3.699   1.806
 6421TIP3    H219270   3.050   3.734   1.662
 6422TIP3   OH219271   6.038   5.601   3.520
 6422TIP3    H119272   5.976   5.665   3.487
 6422TIP3    H219273   5.988   5.520   3.528
 6423TIP3   OH219274   0.433   3.937   1.368
 6423TIP3    H119275   0.503   3.978   1.318
 6423TIP3    H219276   0.402   4.006   1.427
 6424TIP3   OH219277   1.922   2.736   0.990
 6424TIP3    H119278   1.990   2.668   0.981
 6424TIP3    H219279   1.958   2.812   0.944
 6425TIP3   OH219280   6.176   4.698   4.300
 6425TIP3    H119281   6.196   4.743   4.218
 6425TIP3    H219282   6.261   4.690   4.345
 6426TIP3   OH219283   4.117   3.085   2.356
 6426TIP3    H119284   4.037   3.064   2.307
 6426TIP3    H219285   4.093   3.075   2.448
 6427TIP3   OH219286   5.307   0.467   3.536
 6427TIP3    H119287   5.228   0.454   3.589
 6427TIP3    H219288   5.310   0.561   3.520
 6428TIP3   OH219289   2.745   1.972   2.869
 6428TIP3    H119290   2.676   1.981   2.803
 6428TIP3    H219291   2.799   2.050   2.859
 6429TIP3   OH219292   3.225   2.059   1.786
 6429TIP3    H119293   3.146   2.022   1.747
 6429TIP3    H219294   3.219   2.153   1.769
 6430TIP3   OH219295   2.725   5.056   2.882
 6430TIP3    H119296   2.632   5.037   2.871
 6430TIP3    H219297   2.765   4.970   2.893
 6431TIP3   OH219298   5.551   2.726   4.689
 6431TIP3    H119299   5.526   2.641   4.654
 6431TIP3    H219300   5.522   2.789   4.622
 6432TIP3   OH219301   2.366   5.437   4.090
 6432TIP3    H119302   2.284   5.447   4.139
 6432TIP3    H219303   2.422   5.507   4.122
 6433TIP3   OH219304   4.024   2.261   2.370
 6433TIP3    H119305   4.102   2.315   2.361
 6433TIP3    H219306   4.005   2.263   2.464
 6434TIP3   OH219307   3.873   3.228   3.323
 6434TIP3    H119308   3.953   3.251   3.275
 6434TIP3    H219309   3.898   3.238   3.415
 6435TIP3   OH219310   3.828   3.393   0.761
 6435TIP3    H119311   3.895   3.326   0.778
 6435TIP3    H219312   3.755   3.346   0.722
 6436TIP3   OH219313   5.998   4.667   1.091
 6436TIP3    H119314   6.070   4.644   1.033
 6436TIP3    H219315   5.959   4.744   1.051
 6437TIP3   OH219316   2.457   0.056   0.826
 6437TIP3    H119317   2.424  -0.032   0.844
 6437TIP3    H219318   2.379   0.108   0.807
 6438TIP3   OH219319   2.750   1.431   3.246
 6438TIP3    H119320   2.690   1.493   3.288
 6438TIP3    H219321   2.824   1.425   3.307
 6439TIP3   OH219322   0.791   4.457   2.336
 6439TIP3    H119323   0.721   4.521   2.325
 6439TIP3    H219324   0.841   4.462   2.255
 6440TIP3   OH219325   3.794   0.987   0.439
 6440TIP3    H119326   3.828   0.941   0.363
 6440TIP3    H219327   3.775   0.918   0.502
 6441TIP3   OH219328   1.937   3.067   2.628
 6441TIP3    H119329   1.975   3.145   2.588
 6441TIP3    H219330   1.895   3.099   2.708
 6442TIP3   OH219331   5.289   2.725   1.116
 6442TIP3    H119332   5.306   2.812   1.154
 6442TIP3    H219333   5.301   2.738   1.022
 6443TIP3   OH219334   2.733   3.611   3.947
 6443TIP3    H119335   2.828   3.624   3.954
 6443TIP3    H219336   2.709   3.653   3.865
 6444TIP3   OH219337   0.568   1.068   1.099
 6444TIP3    H119338   0.527   1.042   1.182
 6444TIP3    H219339   0.638   1.128   1.124
 6445TIP3   OH219340   0.931   3.719   0.788
 6445TIP3    H119341   0.957   3.789   0.728
 6445TIP3    H219342   0.900   3.649   0.731
 6446TIP3   OH219343   2.011   1.787   1.130
 6446TIP3    H119344   2.073   1.767   1.200
 6446TIP3    H219345   2.038   1.873   1.098
 6447TIP3   OH219346   6.129   3.892   0.620
 6447TIP3    H119347   6.104   3.823   0.559
 6447TIP3    H219348   6.056   3.896   0.683
 6448TIP3   OH219349   4.017   0.208   4.965
 6448TIP3    H119350   3.977   0.281   4.919
 6448TIP3    H219351   4.057   0.248   5.043
 6449TIP3   OH219352   2.891   4.101   3.425
 6449TIP3    H119353   2.930   4.025   3.381
 6449TIP3    H219354   2.834   4.063   3.491
 6450TIP3   OH219355   0.611   4.864   0.199
 6450TIP3    H119356   0.694   4.881   0.154
 6450TIP3    H219357   0.556   4.938   0.175
 6451TIP3   OH219358   1.508   0.616   0.657
 6451TIP3    H119359   1.500   0.528   0.619
 6451TIP3    H219360   1.418   0.646   0.668
 6452TIP3   OH219361   0.120   0.285   3.818
 6452TIP3    H119362   0.171   0.255   3.893
 6452TIP3    H219363   0.154   0.234   3.744
 6453TIP3   OH219364   1.642   5.159   0.209
 6453TIP3    H119365   1.572   5.219   0.184
 6453TIP3    H219366   1.691   5.144   0.128
 6454TIP3   OH219367   1.758   2.145   4.409
 6454TIP3    H119368   1.746   2.202   4.485
 6454TIP3    H219369   1.842   2.171   4.372
 6455TIP3   OH219370   0.043   2.366   0.340
 6455TIP3    H119371   0.041   2.357   0.245
 6455TIP3    H219372   0.075   2.281   0.371
 6456TIP3   OH219373   1.219   0.010   1.177
 6456TIP3    H119374   1.205  -0.055   1.109
 6456TIP3    H219375   1.134   0.051   1.190
 6457TIP3   OH219376   1.006   1.561   1.977
 6457TIP3    H119377   1.096   1.541   1.952
 6457TIP3    H219378   0.990   1.508   2.055
 6458TIP3   OH219379   0.755   0.456   4.993
 6458TIP3    H119380   0.690   0.459   4.922
 6458TIP3    H219381   0.702   0.454   5.073
 6459TIP3   OH219382   1.991   0.741   2.682
 6459TIP3    H119383   2.034   0.801   2.743
 6459TIP3    H219384   2.001   0.655   2.723
 6460TIP3   OH219385   0.306   4.843   5.021
 6460TIP3    H119386   0.235   4.889   4.977
 6460TIP3    H219387   0.286   4.750   5.009
 6461TIP3   OH219388   1.398   2.927   4.645
 6461TIP3    H119389   1.304   2.909   4.640
 6461TIP3    H219390   1.438   2.842   4.663
 6462TIP3   OH219391   6.117   1.807   4.863
 6462TIP3    H119392   6.039   1.792   4.809
 6462TIP3    H219393   6.158   1.885   4.825
 6463TIP3   OH219394   1.290   4.955   4.321
 6463TIP3    H119395   1.329   5.013   4.387
 6463TIP3    H219396   1.204   4.933   4.357
 6464TIP3   OH219397   3.534   2.158   1.996
 6464TIP3    H119398   3.476   2.137   2.068
 6464TIP3    H219399   3.518   2.089   1.931
 6465TIP3   OH219400   0.083   2.333   4.410
 6465TIP3    H119401   0.130   2.270   4.355
 6465TIP3    H219402  -0.009   2.314   4.396
 6466TIP3   OH219403   2.818   2.229   0.823
 6466TIP3    H119404   2.735   2.182   0.812
 6466TIP3    H219405   2.792   2.318   0.846
 6467TIP3   OH219406   0.926   3.997   1.617
 6467TIP3    H119407   0.854   4.028   1.671
 6467TIP3    H219408   0.969   4.077   1.585
 6468TIP3   OH219409   3.416   2.059   5.013
 6468TIP3    H119410   3.374   1.989   5.064
 6468TIP3    H219411   3.345   2.122   4.996
 6469TIP3   OH219412   5.356   2.469   0.223
 6469TIP3    H119413   5.352   2.387   0.174
 6469TIP3    H219414   5.444   2.472   0.259
 6470TIP3   OH219415   3.916   4.595   0.295
 6470TIP3    H119416   3.922   4.560   0.206
 6470TIP3    H219417   4.000   4.574   0.335
 6471TIP3   OH219418   1.646   3.048   2.918
 6471TIP3    H119419   1.706   3.115   2.886
 6471TIP3    H219420   1.579   3.041   2.850
 6472TIP3   OH219421   1.315   5.053   0.569
 6472TIP3    H119422   1.339   5.023   0.482
 6472TIP3    H219423   1.397   5.080   0.610
 6473TIP3   OH219424   0.901   1.520   0.974
 6473TIP3    H119425   0.858   1.534   1.058
 6473TIP3    H219426   0.877   1.597   0.922
 6474TIP3   OH219427   0.876   3.366   2.258
 6474TIP3    H119428   0.964   3.329   2.247
 6474TIP3    H219429   0.862   3.417   2.179
 6475TIP3   OH219430   5.774   5.270   4.028
 6475TIP3    H119431   5.749   5.301   4.115
 6475TIP3    H219432   5.833   5.338   3.995
 6476TIP3   OH219433   5.420   2.558   3.720
 6476TIP3    H119434   5.354   2.577   3.787
 6476TIP3    H219435   5.444   2.467   3.736
 6477TIP3   OH219436   3.930   4.976   5.013
 6477TIP3    H119437   3.904   5.018   5.095
 6477TIP3    H219438   3.955   5.048   4.956
 6478TIP3   OH219439   2.637   2.691   2.102
 6478TIP3    H119440   2.621   2.780   2.134
 6478TIP3    H219441   2.552   2.662   2.069
 6479TIP3   OH219442   2.589   3.193   2.067
 6479TIP3    H119443   2.555   3.269   2.115
 6479TIP3    H219444   2.531   3.186   1.991
 6480TIP3   OH219445   3.153   2.960   3.181
 6480TIP3    H119446   3.104   3.038   3.154
 6480TIP3    H219447   3.240   2.994   3.204
 6481TIP3   OH219448   0.720   4.693   3.059
 6481TIP3    H119449   0.692   4.633   3.127
 6481TIP3    H219450   0.739   4.775   3.105
 6482TIP3   OH219451   0.226   3.755   0.970
 6482TIP3    H119452   0.188   3.727   1.053
 6482TIP3    H219453   0.165   3.724   0.903
 6483TIP3   OH219454   5.328   0.506   2.531
 6483TIP3    H119455   5.368   0.540   2.611
 6483TIP3    H219456   5.315   0.413   2.549
 6484TIP3   OH219457   4.178   0.243   1.360
 6484TIP3    H119458   4.182   0.219   1.453
 6484TIP3    H219459   4.087   0.267   1.345
 6485TIP3   OH219460   3.707   1.244   4.279
 6485TIP3    H119461   3.745   1.189   4.210
 6485TIP3    H219462   3.733   1.333   4.256
 6486TIP3   OH219463   3.569   5.156   3.475
 6486TIP3    H119464   3.650   5.104   3.469
 6486TIP3    H219465   3.572   5.195   3.562
 6487TIP3   OH219466   6.256   1.264   1.975
 6487TIP3    H119467   6.176   1.273   2.026
 6487TIP3    H219468   6.291   1.353   1.967
 6488TIP3   OH219469   3.750   2.380   3.227
 6488TIP3    H119470   3.786   2.292   3.215
 6488TIP3    H219471   3.656   2.370   3.216
 6489TIP3   OH219472   1.535   5.646   3.149
 6489TIP3    H119473   1.515   5.574   3.088
 6489TIP3    H219474   1.627   5.633   3.171
 6490TIP3   OH219475   6.011   5.714   2.967
 6490TIP3    H119476   5.955   5.771   2.915
 6490TIP3    H219477   6.085   5.695   2.910
 6491TIP3   OH219478   2.130   5.790   4.737
 6491TIP3    H119479   2.112   5.883   4.729
 6491TIP3    H219480   2.078   5.749   4.668
 6492TIP3   OH219481   1.669   4.115   3.764
 6492TIP3    H119482   1.690   4.116   3.671
 6492TIP3    H219483   1.593   4.172   3.773
 6493TIP3   OH219484   0.582   2.724   5.145
 6493TIP3    H119485   0.644   2.676   5.090
 6493TIP3    H219486   0.502   2.728   5.093
 6494TIP3   OH219487   5.884   0.678   3.783
 6494TIP3    H119488   5.808   0.640   3.739
 6494TIP3    H219489   5.906   0.755   3.731
 6495TIP3   OH219490   0.209   2.638   1.689
 6495TIP3    H119491   0.135   2.675   1.641
 6495TIP3    H219492   0.182   2.640   1.781
 6496TIP3   OH219493   5.434   1.220   0.568
 6496TIP3    H119494   5.448   1.289   0.503
 6496TIP3    H219495   5.490   1.149   0.539
 6497TIP3   OH219496   5.504   2.467   3.184
 6497TIP3    H119497   5.521   2.446   3.092
 6497TIP3    H219498   5.511   2.562   3.187
 6498TIP3   OH219499   1.151   1.307   0.270
 6498TIP3    H119500   1.156   1.247   0.196
 6498TIP3    H219501   1.237   1.303   0.310
 6499TIP3   OH219502   4.672   4.592   1.062
 6499TIP3    H119503   4.718   4.534   1.123
 6499TIP3    H219504   4.659   4.673   1.110
 6500TIP3   OH219505  -0.013   4.950   3.406
 6500TIP3    H119506  -0.089   4.901   3.439
 6500TIP3    H219507   0.044   4.883   3.368
 6501TIP3   OH219508   0.420   3.674   1.881
 6501TIP3    H119509   0.505   3.718   1.873
 6501TIP3    H219510   0.357   3.744   1.895
 6502TIP3   OH219511   0.066   5.530   2.335
 6502TIP3    H119512   0.002   5.593   2.301
 6502TIP3    H219513   0.117   5.505   2.258
 6503TIP3   OH219514   0.044   1.327   2.391
 6503TIP3    H119515   0.055   1.337   2.486
 6503TIP3    H219516   0.014   1.412   2.361
 6504TIP3   OH219517   1.671   2.248   2.302
 6504TIP3    H119518   1.688   2.317   2.238
 6504TIP3    H219519   1.758   2.225   2.336
 6505TIP3   OH219520   4.425   1.684   2.740
 6505TIP3    H119521   4.359   1.750   2.756
 6505TIP3    H219522   4.394   1.607   2.788
 6506TIP3   OH219523   0.845   0.887   3.379
 6506TIP3    H119524   0.907   0.898   3.451
 6506TIP3    H219525   0.827   0.793   3.377
 6507TIP3   OH219526   4.840   5.804   3.664
 6507TIP3    H119527   4.757   5.766   3.637
 6507TIP3    H219528   4.895   5.729   3.686
 6508TIP3   OH219529   6.098   3.555   0.535
 6508TIP3    H119530   6.193   3.563   0.541
 6508TIP3    H219531   6.071   3.631   0.484
 6509TIP3   OH219532   0.562   3.109   2.274
 6509TIP3    H119533   0.559   3.186   2.216
 6509TIP3    H219534   0.651   3.076   2.265
 6510TIP3   OH219535   1.453   2.307   3.547
 6510TIP3    H119536   1.396   2.287   3.621
 6510TIP3    H219537   1.478   2.221   3.513
 6511TIP3   OH219538   3.896   3.745   2.639
 6511TIP3    H119539   3.850   3.665   2.614
 6511TIP3    H219540   3.950   3.719   2.714
 6512TIP3   OH219541   3.657   0.941   2.551
 6512TIP3    H119542   3.643   0.962   2.459
 6512TIP3    H219543   3.604   1.005   2.599
 6513TIP3   OH219544   4.057   4.894   2.030
 6513TIP3    H119545   4.102   4.883   1.946
 6513TIP3    H219546   4.001   4.971   2.017
 6514TIP3   OH219547   3.725   3.613   2.224
 6514TIP3    H119548   3.739   3.678   2.155
 6514TIP3    H219549   3.633   3.623   2.247
 6515TIP3   OH219550   4.258   2.294   4.552
 6515TIP3    H119551   4.310   2.336   4.620
 6515TIP3    H219552   4.283   2.201   4.557
 6516TIP3   OH219553   3.831   1.931   4.259
 6516TIP3    H119554   3.803   1.909   4.348
 6516TIP3    H219555   3.817   2.025   4.253
 6517TIP3   OH219556   5.485   0.859   3.040
 6517TIP3    H119557   5.537   0.894   2.967
 6517TIP3    H219558   5.473   0.933   3.099
 6518TIP3   OH219559   4.201   5.189   2.456
 6518TIP3    H119560   4.118   5.154   2.487
 6518TIP3    H219561   4.245   5.114   2.417
 6519TIP3   OH219562   2.758   5.807   3.471
 6519TIP3    H119563   2.738   5.858   3.550
 6519TIP3    H219564   2.712   5.724   3.485
 6520TIP3   OH219565   0.522   3.099   2.529
 6520TIP3    H119566   0.518   3.009   2.562
 6520TIP3    H219567   0.546   3.091   2.437
 6521TIP3   OH219568   3.517   2.195   2.824
 6521TIP3    H119569   3.496   2.214   2.732
 6521TIP3    H219570   3.612   2.205   2.830
 6522TIP3   OH219571   0.423   5.220   3.378
 6522TIP3    H119572   0.454   5.130   3.372
 6522TIP3    H219573   0.328   5.213   3.380
 6523TIP3   OH219574   6.339   5.180   2.275
 6523TIP3    H119575   6.263   5.209   2.225
 6523TIP3    H219576   6.324   5.215   2.363
 6524TIP3   OH219577   2.997   4.966   5.072
 6524TIP3    H119578   3.035   4.975   5.159
 6524TIP3    H219579   2.904   4.985   5.084
 6525TIP3   OH219580   6.096   5.017   2.276
 6525TIP3    H119581   6.154   4.957   2.323
 6525TIP3    H219582   6.037   5.051   2.343
 6526TIP3   OH219583   2.924   1.671   3.556
 6526TIP3    H119584   2.849   1.621   3.522
 6526TIP3    H219585   2.886   1.731   3.619
 6527TIP3   OH219586   5.857   4.490   1.997
 6527TIP3    H119587   5.928   4.554   1.990
 6527TIP3    H219588   5.887   4.428   2.064
 6528TIP3   OH219589   0.559   2.177   2.220
 6528TIP3    H119590   0.574   2.111   2.153
 6528TIP3    H219591   0.503   2.134   2.284
 6529TIP3   OH219592   4.989   2.497   1.266
 6529TIP3    H119593   4.992   2.425   1.202
 6529TIP3    H219594   4.898   2.501   1.293
 6530TIP3   OH219595   1.189   2.706   5.107
 6530TIP3    H119596   1.102   2.723   5.144
 6530TIP3    H219597   1.201   2.612   5.118
 6531TIP3   OH219598   5.523   2.829   4.937
 6531TIP3    H119599   5.606   2.843   4.982
 6531TIP3    H219600   5.548   2.802   4.849
 6532TIP3   OH219601   4.708   0.809   0.441
 6532TIP3    H119602   4.617   0.821   0.465
 6532TIP3    H219603   4.735   0.893   0.404
 6533TIP3   OH219604   5.723   0.333   0.530
 6533TIP3    H119605   5.716   0.238   0.521
 6533TIP3    H219606   5.749   0.363   0.443
 6534TIP3   OH219607   1.905   3.785   5.069
 6534TIP3    H119608   1.869   3.697   5.056
 6534TIP3    H219609   1.829   3.840   5.084
 6535TIP3   OH219610   0.545   4.978   3.369
 6535TIP3    H119611   0.503   4.892   3.367
 6535TIP3    H219612   0.592   4.979   3.453
 6536TIP3   OH219613   2.340   1.085   4.592
 6536TIP3    H119614   2.349   0.990   4.584
 6536TIP3    H219615   2.406   1.109   4.657
 6537TIP3   OH219616   6.189   2.511   2.438
 6537TIP3    H119617   6.254   2.542   2.501
 6537TIP3    H219618   6.108   2.557   2.463
 6538TIP3   OH219619   5.895   3.750   1.117
 6538TIP3    H119620   5.832   3.680   1.133
 6538TIP3    H219621   5.981   3.710   1.133
 6539TIP3   OH219622   2.931   0.401   2.802
 6539TIP3    H119623   2.944   0.453   2.881
 6539TIP3    H219624   2.880   0.458   2.744
 6540TIP3   OH219625   5.776   0.072   0.986
 6540TIP3    H119626   5.804   0.150   1.035
 6540TIP3    H219627   5.856   0.041   0.944
 6541TIP3   OH219628   0.349   3.669   3.641
 6541TIP3    H119629   0.410   3.689   3.712
 6541TIP3    H219630   0.404   3.651   3.566
 6542TIP3   OH219631   2.082   1.102   1.599
 6542TIP3    H119632   2.064   1.039   1.530
 6542TIP3    H219633   2.069   1.187   1.558
 6543TIP3   OH219634   2.414   0.871   2.297
 6543TIP3    H119635   2.404   0.795   2.354
 6543TIP3    H219636   2.446   0.940   2.355
 6544TIP3   OH219637   5.158   4.766   2.881
 6544TIP3    H119638   5.104   4.843   2.869
 6544TIP3    H219639   5.112   4.696   2.834
 6545TIP3   OH219640   4.502   4.452   2.224
 6545TIP3    H119641   4.577   4.505   2.199
 6545TIP3    H219642   4.500   4.381   2.160
 6546TIP3   OH219643   4.446   0.564   0.414
 6546TIP3    H119644   4.460   0.646   0.462
 6546TIP3    H219645   4.410   0.590   0.330
 6547TIP3   OH219646   5.966   4.267   0.678
 6547TIP3    H119647   5.915   4.298   0.753
 6547TIP3    H219648   5.900   4.254   0.609
 6548TIP3   OH219649   3.229   1.734   0.401
 6548TIP3    H119650   3.316   1.718   0.439
 6548TIP3    H219651   3.217   1.829   0.407
 6549TIP3   OH219652   0.109   1.593   4.178
 6549TIP3    H119653   0.186   1.579   4.233
 6549TIP3    H219654   0.054   1.516   4.194
 6550TIP3   OH219655   1.610   5.789   2.917
 6550TIP3    H119656   1.658   5.709   2.894
 6550TIP3    H219657   1.546   5.760   2.981
 6551TIP3   OH219658   1.562   5.843   1.069
 6551TIP3    H119659   1.518   5.928   1.063
 6551TIP3    H219660   1.517   5.789   1.004
 6552TIP3   OH219661   0.970   3.001   3.461
 6552TIP3    H119662   1.051   2.958   3.488
 6552TIP3    H219663   0.984   3.093   3.481
 6553TIP3   OH219664   0.960   1.007   0.617
 6553TIP3    H119665   0.867   0.985   0.607
 6553TIP3    H219666   0.978   1.067   0.545
 6554TIP3   OH219667   2.324   2.118   2.217
 6554TIP3    H119668   2.254   2.131   2.153
 6554TIP3    H219669   2.385   2.059   2.174
 6555TIP3   OH219670   1.132   4.213   1.174
 6555TIP3    H119671   1.081   4.242   1.099
 6555TIP3    H219672   1.212   4.266   1.170
 6556TIP3   OH219673   1.228   1.518   2.188
 6556TIP3    H119674   1.266   1.438   2.150
 6556TIP3    H219675   1.183   1.488   2.267
 6557TIP3   OH219676   5.162   1.486   3.815
 6557TIP3    H119677   5.151   1.399   3.776
 6557TIP3    H219678   5.254   1.508   3.798
 6558TIP3   OH219679   1.976   2.731   1.597
 6558TIP3    H119680   1.952   2.638   1.601
 6558TIP3    H219681   1.909   2.770   1.541
 6559TIP3   OH219682   4.886   0.887   1.395
 6559TIP3    H119683   4.970   0.922   1.424
 6559TIP3    H219684   4.896   0.876   1.301
 6560TIP3   OH219685   3.894   1.741   3.772
 6560TIP3    H119686   3.937   1.656   3.775
 6560TIP3    H219687   3.828   1.737   3.841
 6561TIP3   OH219688   3.969   0.687   3.673
 6561TIP3    H119689   4.021   0.732   3.740
 6561TIP3    H219690   4.010   0.601   3.666
 6562TIP3   OH219691   4.714   4.632   4.512
 6562TIP3    H119692   4.804   4.657   4.535
 6562TIP3    H219693   4.717   4.620   4.417
 6563TIP3   OH219694   5.351   2.713   3.500
 6563TIP3    H119695   5.340   2.665   3.582
 6563TIP3    H219696   5.363   2.645   3.434
 6564TIP3   OH219697   6.080   4.834   1.746
 6564TIP3    H119698   6.158   4.779   1.753
 6564TIP3    H219699   6.007   4.775   1.768
 6565TIP3   OH219700   4.079   3.579   3.182
 6565TIP3    H119701   4.079   3.486   3.202
 6565TIP3    H219702   4.170   3.606   3.189
 6566TIP3   OH219703   0.151   0.719   2.229
 6566TIP3    H119704   0.170   0.779   2.158
 6566TIP3    H219705   0.222   0.732   2.292
 6567TIP3   OH219706   0.218   4.929   4.772
 6567TIP3    H119707   0.195   4.837   4.781
 6567TIP3    H219708   0.302   4.929   4.725
 6568TIP3   OH219709   4.601   4.875   2.938
 6568TIP3    H119710   4.566   4.962   2.922
 6568TIP3    H219711   4.621   4.875   3.032
 6569TIP3   OH219712   4.931   3.295   4.960
 6569TIP3    H119713   4.944   3.257   5.047
 6569TIP3    H219714   4.994   3.366   4.955
 6570TIP3   OH219715   3.310   3.439   3.186
 6570TIP3    H119716   3.369   3.420   3.258
 6570TIP3    H219717   3.313   3.361   3.130
 6571TIP3   OH219718   1.504   0.076   4.637
 6571TIP3    H119719   1.414   0.064   4.607
 6571TIP3    H219720   1.536   0.153   4.590
 6572TIP3   OH219721   3.149   4.968   4.318
 6572TIP3    H119722   3.118   5.059   4.325
 6572TIP3    H219723   3.240   4.976   4.289
 6573TIP3   OH219724   1.596   3.103   0.535
 6573TIP3    H119725   1.587   3.010   0.556
 6573TIP3    H219726   1.544   3.148   0.601
 6574TIP3   OH219727   3.096   0.306   3.305
 6574TIP3    H119728   3.046   0.302   3.386
 6574TIP3    H219729   3.046   0.251   3.244
 6575TIP3   OH219730   3.907   4.979   1.559
 6575TIP3    H119731   3.862   4.926   1.494
 6575TIP3    H219732   3.965   5.035   1.508
 6576TIP3   OH219733   4.583   2.177   2.801
 6576TIP3    H119734   4.664   2.147   2.843
 6576TIP3    H219735   4.513   2.144   2.858
 6577TIP3   OH219736   3.338   5.079   1.001
 6577TIP3    H119737   3.380   5.092   1.087
 6577TIP3    H219738   3.285   5.157   0.989
 6578TIP3   OH219739   0.423   3.648   4.787
 6578TIP3    H119740   0.407   3.555   4.767
 6578TIP3    H219741   0.510   3.665   4.751
 6579TIP3   OH219742   3.031   3.604   4.056
 6579TIP3    H119743   3.077   3.599   4.141
 6579TIP3    H219744   3.097   3.575   3.993
 6580TIP3   OH219745   0.373   5.520   2.039
 6580TIP3    H119746   0.409   5.533   1.951
 6580TIP3    H219747   0.443   5.478   2.089
 6581TIP3   OH219748   5.210   3.938   4.167
 6581TIP3    H119749   5.282   3.948   4.105
 6581TIP3    H219750   5.225   4.007   4.232
 6582TIP3   OH219751   4.647   2.047   1.389
 6582TIP3    H119752   4.565   2.047   1.340
 6582TIP3    H219753   4.681   2.136   1.378
 6583TIP3   OH219754   5.230   1.208   4.178
 6583TIP3    H119755   5.186   1.225   4.095
 6583TIP3    H219756   5.201   1.280   4.235
 6584TIP3   OH219757   4.972   5.296   3.076
 6584TIP3    H119758   5.059   5.276   3.110
 6584TIP3    H219759   4.932   5.211   3.060
 6585TIP3   OH219760   5.742   3.896   0.767
 6585TIP3    H119761   5.727   3.839   0.691
 6585TIP3    H219762   5.714   3.983   0.738
 6586TIP3   OH219763   1.853   5.962   2.985
 6586TIP3    H119764   1.782   5.981   3.047
 6586TIP3    H219765   1.894   5.882   3.019
 6587TIP3   OH219766   2.646   4.318   2.900
 6587TIP3    H119767   2.716   4.367   2.943
 6587TIP3    H219768   2.570   4.376   2.905
 6588TIP3   OH219769   5.513   1.423   3.204
 6588TIP3    H119770   5.465   1.427   3.286
 6588TIP3    H219771   5.601   1.397   3.229
 6589TIP3   OH219772   1.630   5.351   2.739
 6589TIP3    H119773   1.596   5.420   2.681
 6589TIP3    H219774   1.719   5.336   2.707
 6590TIP3   OH219775   0.877   4.560   3.803
 6590TIP3    H119776   0.965   4.596   3.813
 6590TIP3    H219777   0.847   4.546   3.893
 6591TIP3   OH219778   0.130   5.446   1.644
 6591TIP3    H119779   0.194   5.408   1.584
 6591TIP3    H219780   0.107   5.374   1.703
 6592TIP3   OH219781   2.445   5.997   3.374
 6592TIP3    H119782   2.490   5.927   3.326
 6592TIP3    H219783   2.503   6.016   3.448
 6593TIP3   OH219784   0.168   2.463   2.129
 6593TIP3    H119785   0.134   2.466   2.040
 6593TIP3    H219786   0.261   2.484   2.120
 6594TIP3   OH219787   0.095   5.823   0.535
 6594TIP3    H119788   0.117   5.770   0.612
 6594TIP3    H219789   0.161   5.799   0.470
 6595TIP3   OH219790   2.099   3.368   2.427
 6595TIP3    H119791   2.029   3.320   2.382
 6595TIP3    H219792   2.166   3.301   2.445
 6596TIP3   OH219793   5.315   2.143   3.719
 6596TIP3    H119794   5.244   2.095   3.676
 6596TIP3    H219795   5.323   2.102   3.805
 6597TIP3   OH219796   3.459   1.436   2.189
 6597TIP3    H119797   3.373   1.476   2.198
 6597TIP3    H219798   3.519   1.499   2.230
 6598TIP3   OH219799   1.309   4.287   5.149
 6598TIP3    H119800   1.362   4.236   5.211
 6598TIP3    H219801   1.365   4.294   5.071
 6599TIP3   OH219802   1.918   4.324   0.907
 6599TIP3    H119803   1.876   4.408   0.926
 6599TIP3    H219804   1.998   4.348   0.860
 6600TIP3   OH219805   6.077   0.783   4.579
 6600TIP3    H119806   6.147   0.780   4.514
 6600TIP3    H219807   6.121   0.811   4.659
 6601TIP3   OH219808   2.563   5.275   5.000
 6601TIP3    H119809   2.637   5.294   5.058
 6601TIP3    H219810   2.489   5.321   5.040
 6602TIP3   OH219811  -0.002   4.869   1.577
 6602TIP3    H119812   0.088   4.895   1.594
 6602TIP3    H219813  -0.010   4.782   1.618
 6603TIP3   OH219814   1.768   1.458   3.511
 6603TIP3    H119815   1.752   1.547   3.540
 6603TIP3    H219816   1.814   1.417   3.585
 6604TIP3   OH219817   3.990   5.440   4.518
 6604TIP3    H119818   4.017   5.529   4.492
 6604TIP3    H219819   3.898   5.448   4.542
 6605TIP3   OH219820   6.030   1.872   4.288
 6605TIP3    H119821   6.090   1.887   4.361
 6605TIP3    H219822   6.074   1.806   4.235
 6606TIP3   OH219823   1.559   2.430   2.942
 6606TIP3    H119824   1.615   2.424   2.864
 6606TIP3    H219825   1.592   2.361   3.000
 6607TIP3   OH219826   5.498   5.128   4.641
 6607TIP3    H119827   5.502   5.033   4.650
 6607TIP3    H219828   5.418   5.145   4.592
 6608TIP3   OH219829   3.533   5.810   1.864
 6608TIP3    H119830   3.533   5.844   1.775
 6608TIP3    H219831   3.441   5.789   1.882
 6609TIP3   OH219832   2.631   1.565   2.122
 6609TIP3    H119833   2.652   1.473   2.109
 6609TIP3    H219834   2.713   1.605   2.150
 6610TIP3   OH219835   3.910   5.049   0.558
 6610TIP3    H119836   3.849   5.045   0.632
 6610TIP3    H219837   3.885   4.975   0.503
 6611TIP3   OH219838   6.242   4.663   4.838
 6611TIP3    H119839   6.229   4.654   4.933
 6611TIP3    H219840   6.179   4.729   4.811
 6612TIP3   OH219841   4.107   3.080   4.717
 6612TIP3    H119842   4.024   3.120   4.693
 6612TIP3    H219843   4.150   3.144   4.774
 6613TIP3   OH219844   2.242   3.213   3.316
 6613TIP3    H119845   2.219   3.293   3.362
 6613TIP3    H219846   2.256   3.149   3.386
 6614TIP3   OH219847   5.335   2.392   4.999
 6614TIP3    H119848   5.362   2.318   5.054
 6614TIP3    H219849   5.385   2.466   5.032
 6615TIP3   OH219850   2.686   0.163   0.965
 6615TIP3    H119851   2.613   0.111   0.931
 6615TIP3    H219852   2.723   0.205   0.887
 6616TIP3   OH219853   4.549   0.856   1.149
 6616TIP3    H119854   4.530   0.946   1.121
 6616TIP3    H219855   4.463   0.816   1.161
 6617TIP3   OH219856   2.315   4.219   4.200
 6617TIP3    H119857   2.343   4.221   4.108
 6617TIP3    H219858   2.235   4.272   4.202
 6618TIP3   OH219859   5.336   3.124   1.741
 6618TIP3    H119860   5.334   3.115   1.646
 6618TIP3    H219861   5.299   3.042   1.774
 6619TIP3   OH219862   2.853   5.488   2.478
 6619TIP3    H119863   2.791   5.418   2.499
 6619TIP3    H219864   2.900   5.504   2.561
 6620TIP3   OH219865   5.300   4.143   1.558
 6620TIP3    H119866   5.379   4.101   1.526
 6620TIP3    H219867   5.244   4.071   1.587
 6621TIP3   OH219868   4.220   4.589   4.593
 6621TIP3    H119869   4.253   4.630   4.673
 6621TIP3    H219870   4.125   4.599   4.598
 6622TIP3   OH219871   2.731   3.672   0.470
 6622TIP3    H119872   2.778   3.613   0.528
 6622TIP3    H219873   2.724   3.754   0.520
 6623TIP3   OH219874   0.945   5.593   0.387
 6623TIP3    H119875   0.873   5.655   0.397
 6623TIP3    H219876   0.955   5.553   0.473
 6624TIP3   OH219877   3.186   3.710   0.453
 6624TIP3    H119878   3.259   3.698   0.514
 6624TIP3    H219879   3.112   3.733   0.510
 6625TIP3   OH219880   2.058   2.446   1.598
 6625TIP3    H119881   2.081   2.368   1.547
 6625TIP3    H219882   1.968   2.466   1.573
 6626TIP3   OH219883   2.642   1.871   3.520
 6626TIP3    H119884   2.724   1.908   3.552
 6626TIP3    H219885   2.574   1.914   3.572
 6627TIP3   OH219886   3.595   3.150   3.729
 6627TIP3    H119887   3.676   3.121   3.688
 6627TIP3    H219888   3.608   3.244   3.746
 6628TIP3   OH219889   6.047   5.906   0.243
 6628TIP3    H119890   6.001   5.834   0.202
 6628TIP3    H219891   6.121   5.865   0.289
 6629TIP3   OH219892   4.976   0.015   3.191
 6629TIP3    H119893   4.990  -0.072   3.229
 6629TIP3    H219894   4.933   0.065   3.259
 6630TIP3   OH219895   6.137   2.320   2.219
 6630TIP3    H119896   6.135   2.406   2.262
 6630TIP3    H219897   6.055   2.278   2.245
 6631TIP3   OH219898   2.696   4.845   0.895
 6631TIP3    H119899   2.787   4.818   0.910
 6631TIP3    H219900   2.691   4.860   0.801
 6632TIP3   OH219901   0.322   5.015   4.316
 6632TIP3    H119902   0.325   4.997   4.222
 6632TIP3    H219903   0.232   5.046   4.331
 6633TIP3   OH219904   0.724   3.308   1.836
 6633TIP3    H119905   0.686   3.351   1.759
 6633TIP3    H219906   0.731   3.216   1.811
 6634TIP3   OH219907   6.083   4.945   2.919
 6634TIP3    H119908   6.124   4.985   2.996
 6634TIP3    H219909   6.154   4.898   2.876
 6635TIP3   OH219910   4.592   3.502   1.548
 6635TIP3    H119911   4.601   3.536   1.637
 6635TIP3    H219912   4.617   3.410   1.555
 6636TIP3   OH219913   5.443   5.949   0.815
 6636TIP3    H119914   5.537   5.964   0.812
 6636TIP3    H219915   5.434   5.860   0.850
 6637TIP3   OH219916   2.451   0.703   3.690
 6637TIP3    H119917   2.374   0.668   3.736
 6637TIP3    H219918   2.442   0.798   3.699
 6638TIP3   OH219919   0.873   5.143   3.093
 6638TIP3    H119920   0.811   5.144   3.019
 6638TIP3    H219921   0.954   5.179   3.057
 6639TIP3   OH219922   5.093   2.944   5.159
 6639TIP3    H119923   5.155   2.952   5.086
 6639TIP3    H219924   5.087   2.850   5.175
 6640TIP3   OH219925   1.325   1.589   0.410
 6640TIP3    H119926   1.295   1.588   0.501
 6640TIP3    H219927   1.304   1.501   0.377
 6641TIP3   OH219928   1.870   0.867   4.187
 6641TIP3    H119929   1.786   0.859   4.232
 6641TIP3    H219930   1.924   0.920   4.245
 6642TIP3   OH219931   4.489   3.951   2.950
 6642TIP3    H119932   4.573   3.954   2.995
 6642TIP3    H219933   4.510   3.958   2.857
 6643TIP3   OH219934   2.091   1.335   1.197
 6643TIP3    H119935   2.121   1.419   1.161
 6643TIP3    H219936   1.996   1.336   1.185
 6644TIP3   OH219937   4.446   0.947   0.265
 6644TIP3    H119938   4.389   0.889   0.216
 6644TIP3    H219939   4.527   0.951   0.213
 6645TIP3   OH219940   5.439   3.499   3.478
 6645TIP3    H119941   5.430   3.587   3.515
 6645TIP3    H219942   5.532   3.478   3.489
   6.33736   5.97492   5.17444   0.00000   0.00000  -2.11246   0.00000  -2.11246  -2.98746
