Title t= 377.00000 step= 188500
29212
    1ASP      N    1   3.203   1.493   2.744
    1ASP    HT1    2   3.150   1.576   2.778
    1ASP    HT2    3   3.299   1.529   2.724
    1ASP    HT3    4   3.218   1.425   2.821
    1ASP     CA    5   3.158   1.433   2.612
    1ASP     HA    6   3.141   1.520   2.551
    1ASP     CB    7   3.262   1.340   2.546
    1ASP    HB1    8   3.230   1.302   2.447
    1ASP    HB2    9   3.284   1.245   2.601
    1ASP     CG   10   3.394   1.416   2.523
    1ASP    OD1   11   3.418   1.525   2.574
    1ASP    OD2   12   3.478   1.365   2.447
    1ASP      C   13   3.016   1.372   2.619
    1ASP      O   14   2.918   1.433   2.669
    2GLY      N   15   3.001   1.249   2.566
    2GLY     HN   16   3.080   1.192   2.543
    2GLY     CA   17   2.868   1.188   2.561
    2GLY    HA1   18   2.834   1.172   2.662
    2GLY    HA2   19   2.873   1.097   2.504
    2GLY      C   20   2.754   1.260   2.498
    2GLY      O   21   2.778   1.336   2.406
    3ASP      N   22   2.629   1.233   2.545
    3ASP     HN   23   2.628   1.155   2.607
    3ASP     CA   24   2.511   1.307   2.510
    3ASP     HA   25   2.490   1.294   2.405
    3ASP     CB   26   2.396   1.264   2.600
    3ASP    HB1   27   2.315   1.333   2.569
    3ASP    HB2   28   2.410   1.280   2.709
    3ASP     CG   29   2.355   1.121   2.568
    3ASP    OD1   30   2.275   1.057   2.640
    3ASP    OD2   31   2.390   1.073   2.457
    3ASP      C   32   2.520   1.456   2.530
    3ASP      O   33   2.542   1.504   2.638
    4GLY      N   34   2.486   1.530   2.422
    4GLY     HN   35   2.466   1.481   2.336
    4GLY     CA   36   2.445   1.671   2.437
    4GLY    HA1   37   2.430   1.717   2.340
    4GLY    HA2   38   2.536   1.713   2.478
    4GLY      C   39   2.313   1.686   2.517
    4GLY      O   40   2.240   1.588   2.538
    5PRO      N   41   2.290   1.807   2.577
    5PRO     CD   42   2.383   1.914   2.583
    5PRO    HD1   43   2.379   1.974   2.490
    5PRO    HD2   44   2.485   1.881   2.615
    5PRO     CA   45   2.169   1.837   2.653
    5PRO     HA   46   2.181   1.782   2.746
    5PRO     CB   47   2.174   1.986   2.677
    5PRO    HB1   48   2.118   2.018   2.767
    5PRO    HB2   49   2.149   2.042   2.585
    5PRO     CG   50   2.325   2.005   2.688
    5PRO    HG1   51   2.363   2.109   2.681
    5PRO    HG2   52   2.359   1.971   2.788
    5PRO      C   53   2.038   1.794   2.590
    5PRO      O   54   2.019   1.812   2.467
    6GLY      N   55   1.942   1.748   2.668
    6GLY     HN   56   1.975   1.732   2.761
    6GLY     CA   57   1.809   1.705   2.624
    6GLY    HA1   58   1.779   1.632   2.698
    6GLY    HA2   59   1.829   1.666   2.525
    6GLY      C   60   1.713   1.817   2.605
    6GLY      O   61   1.743   1.935   2.615
    7ASP      N   62   1.585   1.782   2.578
    7ASP     HN   63   1.560   1.687   2.563
    7ASP     CA   64   1.474   1.878   2.581
    7ASP     HA   65   1.496   1.960   2.513
    7ASP     CB   66   1.347   1.802   2.538
    7ASP    HB1   67   1.254   1.857   2.566
    7ASP    HB2   68   1.335   1.702   2.585
    7ASP     CG   69   1.336   1.799   2.391
    7ASP    OD1   70   1.272   1.712   2.317
    7ASP    OD2   71   1.375   1.902   2.329
    7ASP      C   72   1.454   1.950   2.714
    7ASP      O   73   1.500   1.906   2.821
    8PRO      N   74   1.380   2.064   2.719
    8PRO     CD   75   1.344   2.146   2.601
    8PRO    HD1   76   1.259   2.109   2.539
    8PRO    HD2   77   1.433   2.157   2.535
    8PRO     CA   78   1.339   2.128   2.842
    8PRO     HA   79   1.433   2.169   2.876
    8PRO     CB   80   1.244   2.236   2.792
    8PRO    HB1   81   1.240   2.310   2.875
    8PRO    HB2   82   1.145   2.192   2.771
    8PRO     CG   83   1.302   2.280   2.661
    8PRO    HG1   84   1.230   2.338   2.600
    8PRO    HG2   85   1.402   2.326   2.682
    8PRO      C   86   1.277   2.045   2.957
    8PRO      O   87   1.174   1.981   2.928
    9GLY      N   88   1.323   2.037   3.086
    9GLY     HN   89   1.413   2.076   3.105
    9GLY     CA   90   1.274   1.945   3.187
    9GLY    HA1   91   1.358   1.903   3.240
    9GLY    HA2   92   1.205   1.873   3.146
    9GLY      C   93   1.194   2.016   3.299
    9GLY      O   94   1.203   2.136   3.314
   10ASP      N   95   1.109   1.946   3.378
   10ASP     HN   96   1.097   1.847   3.387
   10ASP     CA   97   1.022   2.001   3.477
   10ASP     HA   98   1.044   2.105   3.498
   10ASP     CB   99   0.873   1.973   3.436
   10ASP    HB1  100   0.806   2.005   3.519
   10ASP    HB2  101   0.840   1.868   3.427
   10ASP     CG  102   0.834   2.036   3.303
   10ASP    OD1  103   0.819   2.162   3.298
   10ASP    OD2  104   0.825   1.963   3.200
   10ASP      C  105   1.054   1.928   3.610
   10ASP      O  106   1.130   1.827   3.621
   11GLY      N  107   0.990   1.981   3.716
   11GLY     HN  108   0.926   2.055   3.695
   11GLY     CA  109   0.985   1.925   3.844
   11GLY    HA1  110   1.023   1.825   3.831
   11GLY    HA2  111   0.887   1.923   3.890
   11GLY      C  112   1.063   2.006   3.947
   11GLY    OT1  113   1.007   2.066   4.039
   11GLY    OT2  114   1.185   1.988   3.950
   12LIT    LIT  115   4.913   6.699   0.911
   13LIT    LIT  116   6.427   0.967   0.696
   14LIT    LIT  117   5.097   1.186   5.645
   15LIT    LIT  118   0.189   4.254   3.535
   16LIT    LIT  119   1.194   2.069   4.129
   17LIT    LIT  120   3.979   5.674   4.114
   18LIT    LIT  121   2.536   2.517   2.803
   19LIT    LIT  122   2.295   3.587   0.149
   20LIT    LIT  123   1.445   1.389   5.510
   21LIT    LIT  124   1.001   6.092   4.542
   22LIT    LIT  125   5.709   0.796   3.996
   23LIT    LIT  126   2.702   6.780   1.718
   24LIT    LIT  127   6.740   3.338   5.816
   25LIT    LIT  128   0.507   3.445   2.551
   26LIT    LIT  129   0.790   2.125   3.104
   27LIT    LIT  130   1.207   0.083   3.460
   28LIT    LIT  131   5.951   3.094   0.163
   29LIT    LIT  132   6.540   2.576   2.947
   30LIT    LIT  133   0.935   0.786   2.675
   31LIT    LIT  134   6.332   2.840   1.944
   32LIT    LIT  135   5.832   4.539   5.504
   33LIT    LIT  136   3.061   4.355   3.611
   34LIT    LIT  137   6.254   1.914   4.805
   35LIT    LIT  138   0.909   1.496   2.298
   36LIT    LIT  139   6.604   5.658   1.826
   37LIT    LIT  140   2.527   5.129   3.912
   38LIT    LIT  141   0.142   1.007   0.131
   39LIT    LIT  142   3.594   1.564   2.486
   40LIT    LIT  143   3.578   5.259   1.885
   41LIT    LIT  144   2.725   1.543   3.564
   42LIT    LIT  145   2.271   0.911   2.517
   43CLA    CLA  146   3.446   5.253   2.075
   44CLA    CLA  147   0.230   6.199   4.622
   45CLA    CLA  148   2.028   2.777   3.550
   46CLA    CLA  149   5.512   3.534   1.045
   47CLA    CLA  150   0.342   1.645   3.361
   48CLA    CLA  151   7.041   0.317   1.002
   49CLA    CLA  152   1.390   3.977   3.075
   50CLA    CLA  153   0.599   3.827   2.421
   51CLA    CLA  154   6.692   0.498   1.501
   52CLA    CLA  155   1.826   5.905   4.249
   53CLA    CLA  156   2.867   0.873   2.830
   54CLA    CLA  157   2.559   2.167   0.613
   55CLA    CLA  158   7.129   1.503   3.975
   56CLA    CLA  159   1.773   1.215   4.478
   57CLA    CLA  160   2.537   1.570   5.205
   58CLA    CLA  161   3.042   4.512   3.426
   59CLA    CLA  162   5.005   0.150   2.173
   60CLA    CLA  163   2.235   6.119   2.136
   61CLA    CLA  164   0.768   1.402   2.138
   62CLA    CLA  165   6.084   6.747   1.676
   63CLA    CLA  166   2.020   5.814   5.395
   64CLA    CLA  167   6.824   1.501   5.730
   65CLA    CLA  168   1.194   6.752   0.453
   66CLA    CLA  169   1.145   5.220   2.267
   67CLA    CLA  170   1.247   4.792   5.272
   68CLA    CLA  171   5.733   3.435   4.260
   69CLA    CLA  172   2.857   5.182   4.268
   70TIP3   OH2  173   2.422   4.931   1.627
   70TIP3    H1  174   2.419   4.862   1.560
   70TIP3    H2  175   2.507   4.972   1.616
   71TIP3   OH2  176   2.078   1.226   0.433
   71TIP3    H1  177   2.143   1.264   0.374
   71TIP3    H2  178   2.046   1.148   0.386
   72TIP3   OH2  179   1.335   6.646   3.731
   72TIP3    H1  180   1.294   6.595   3.800
   72TIP3    H2  181   1.424   6.611   3.724
   73TIP3   OH2  182   2.909   5.835   3.730
   73TIP3    H1  183   2.818   5.808   3.745
   73TIP3    H2  184   2.930   5.890   3.805
   74TIP3   OH2  185   3.708   3.608   5.243
   74TIP3    H1  186   3.792   3.584   5.282
   74TIP3    H2  187   3.643   3.577   5.307
   75TIP3   OH2  188   4.166   3.701   0.961
   75TIP3    H1  189   4.190   3.784   0.920
   75TIP3    H2  190   4.234   3.686   1.027
   76TIP3   OH2  191   2.754   5.758   5.029
   76TIP3    H1  192   2.729   5.850   5.027
   76TIP3    H2  193   2.671   5.710   5.023
   77TIP3   OH2  194   4.114   1.598   0.149
   77TIP3    H1  195   4.047   1.565   0.209
   77TIP3    H2  196   4.176   1.526   0.141
   78TIP3   OH2  197   0.320   2.530   4.418
   78TIP3    H1  198   0.260   2.594   4.456
   78TIP3    H2  199   0.300   2.533   4.324
   79TIP3   OH2  200   4.027   1.322   0.404
   79TIP3    H1  201   4.068   1.312   0.490
   79TIP3    H2  202   4.041   1.238   0.360
   80TIP3   OH2  203   3.020   0.996   4.376
   80TIP3    H1  204   2.931   1.010   4.343
   80TIP3    H2  205   3.077   1.030   4.307
   81TIP3   OH2  206   6.802   4.155   1.505
   81TIP3    H1  207   6.779   4.091   1.438
   81TIP3    H2  208   6.760   4.236   1.476
   82TIP3   OH2  209   2.392   3.764   4.341
   82TIP3    H1  210   2.342   3.753   4.260
   82TIP3    H2  211   2.480   3.733   4.319
   83TIP3   OH2  212   0.965   1.174   0.366
   83TIP3    H1  213   1.043   1.118   0.370
   83TIP3    H2  214   0.980   1.241   0.433
   84TIP3   OH2  215   3.158   0.742   3.999
   84TIP3    H1  216   3.072   0.784   4.005
   84TIP3    H2  217   3.151   0.665   4.056
   85TIP3   OH2  218   1.002   1.136   2.389
   85TIP3    H1  219   0.914   1.101   2.401
   85TIP3    H2  220   0.992   1.231   2.399
   86TIP3   OH2  221   0.838   6.427   0.525
   86TIP3    H1  222   0.840   6.405   0.432
   86TIP3    H2  223   0.807   6.517   0.528
   87TIP3   OH2  224   1.073   1.277   1.152
   87TIP3    H1  225   0.985   1.251   1.180
   87TIP3    H2  226   1.132   1.216   1.197
   88TIP3   OH2  227   1.356   3.920   4.186
   88TIP3    H1  228   1.367   4.015   4.189
   88TIP3    H2  229   1.371   3.891   4.276
   89TIP3   OH2  230   0.495   5.741   0.223
   89TIP3    H1  231   0.554   5.681   0.177
   89TIP3    H2  232   0.523   5.736   0.314
   90TIP3   OH2  233   3.262   2.582   2.913
   90TIP3    H1  234   3.314   2.503   2.928
   90TIP3    H2  235   3.233   2.608   3.000
   91TIP3   OH2  236   0.298   3.000   0.527
   91TIP3    H1  237   0.310   3.075   0.586
   91TIP3    H2  238   0.338   2.926   0.573
   92TIP3   OH2  239   5.431   4.131   5.508
   92TIP3    H1  240   5.418   4.070   5.581
   92TIP3    H2  241   5.524   4.152   5.510
   93TIP3   OH2  242   3.175   0.986   3.460
   93TIP3    H1  243   3.151   0.956   3.372
   93TIP3    H2  244   3.131   1.071   3.469
   94TIP3   OH2  245   1.076   1.574   5.560
   94TIP3    H1  246   1.068   1.667   5.542
   94TIP3    H2  247   1.110   1.570   5.650
   95TIP3   OH2  248   0.739   0.966   0.127
   95TIP3    H1  249   0.783   0.988   0.208
   95TIP3    H2  250   0.684   1.042   0.107
   96TIP3   OH2  251   5.870   3.171   4.281
   96TIP3    H1  252   5.823   3.252   4.262
   96TIP3    H2  253   5.925   3.155   4.204
   97TIP3   OH2  254   0.321   5.914   3.891
   97TIP3    H1  255   0.324   5.825   3.926
   97TIP3    H2  256   0.343   5.969   3.966
   98TIP3   OH2  257   0.682   4.299   0.695
   98TIP3    H1  258   0.752   4.358   0.722
   98TIP3    H2  259   0.668   4.317   0.602
   99TIP3   OH2  260   2.352   2.881   3.301
   99TIP3    H1  261   2.327   2.880   3.393
   99TIP3    H2  262   2.276   2.843   3.256
  100TIP3   OH2  263   1.612   2.620   3.433
  100TIP3    H1  264   1.631   2.534   3.471
  100TIP3    H2  265   1.618   2.681   3.506
  101TIP3   OH2  266   5.809   4.408   1.461
  101TIP3    H1  267   5.811   4.364   1.546
  101TIP3    H2  268   5.900   4.431   1.443
  102TIP3   OH2  269   4.279   0.511   5.456
  102TIP3    H1  270   4.241   0.546   5.537
  102TIP3    H2  271   4.345   0.448   5.485
  103TIP3   OH2  272   0.349   1.808   1.722
  103TIP3    H1  273   0.415   1.827   1.655
  103TIP3    H2  274   0.269   1.791   1.672
  104TIP3   OH2  275   7.147   3.044   3.119
  104TIP3    H1  276   7.215   3.058   3.185
  104TIP3    H2  277   7.078   2.996   3.166
  105TIP3   OH2  278   5.304   6.642   2.920
  105TIP3    H1  279   5.350   6.578   2.972
  105TIP3    H2  280   5.303   6.722   2.973
  106TIP3   OH2  281   2.729   3.187   0.633
  106TIP3    H1  282   2.730   3.105   0.683
  106TIP3    H2  283   2.793   3.174   0.564
  107TIP3   OH2  284   7.186   4.379   4.222
  107TIP3    H1  285   7.277   4.364   4.195
  107TIP3    H2  286   7.166   4.466   4.189
  108TIP3   OH2  287   1.535   5.287   0.897
  108TIP3    H1  288   1.528   5.269   0.803
  108TIP3    H2  289   1.621   5.329   0.906
  109TIP3   OH2  290   2.317   5.269   0.996
  109TIP3    H1  291   2.327   5.182   1.035
  109TIP3    H2  292   2.313   5.328   1.071
  110TIP3   OH2  293   5.989   6.552   3.732
  110TIP3    H1  294   5.935   6.526   3.657
  110TIP3    H2  295   5.968   6.488   3.800
  111TIP3   OH2  296   3.301   6.408   5.618
  111TIP3    H1  297   3.382   6.432   5.572
  111TIP3    H2  298   3.294   6.314   5.606
  112TIP3   OH2  299   4.010   4.489   2.845
  112TIP3    H1  300   3.988   4.571   2.889
  112TIP3    H2  301   4.050   4.515   2.763
  113TIP3   OH2  302   3.300   0.012   1.966
  113TIP3    H1  303   3.377   0.058   2.002
  113TIP3    H2  304   3.314   0.015   1.872
  114TIP3   OH2  305   2.944   5.914   0.489
  114TIP3    H1  306   2.897   5.986   0.532
  114TIP3    H2  307   2.996   5.875   0.559
  115TIP3   OH2  308   2.606   5.554   2.043
  115TIP3    H1  309   2.593   5.631   2.099
  115TIP3    H2  310   2.598   5.479   2.102
  116TIP3   OH2  311   1.392   0.387   3.859
  116TIP3    H1  312   1.306   0.418   3.888
  116TIP3    H2  313   1.389   0.392   3.764
  117TIP3   OH2  314   6.131   5.193   3.280
  117TIP3    H1  315   6.112   5.192   3.186
  117TIP3    H2  316   6.180   5.112   3.294
  118TIP3   OH2  317   2.747   3.238   5.474
  118TIP3    H1  318   2.837   3.241   5.440
  118TIP3    H2  319   2.756   3.194   5.559
  119TIP3   OH2  320   3.079   2.944   2.407
  119TIP3    H1  321   3.021   2.936   2.483
  119TIP3    H2  322   3.088   2.854   2.375
  120TIP3   OH2  323   5.179   5.199   2.222
  120TIP3    H1  324   5.153   5.188   2.314
  120TIP3    H2  325   5.098   5.221   2.177
  121TIP3   OH2  326   6.498   4.602   5.142
  121TIP3    H1  327   6.525   4.601   5.050
  121TIP3    H2  328   6.561   4.660   5.185
  122TIP3   OH2  329   3.780   4.401   3.834
  122TIP3    H1  330   3.793   4.379   3.927
  122TIP3    H2  331   3.757   4.494   3.835
  123TIP3   OH2  332   5.019   2.447   5.753
  123TIP3    H1  333   4.966   2.473   5.677
  123TIP3    H2  334   5.025   2.526   5.806
  124TIP3   OH2  335   7.078   1.371   1.632
  124TIP3    H1  336   7.062   1.416   1.715
  124TIP3    H2  337   7.139   1.301   1.654
  125TIP3   OH2  338   4.600   5.909   0.398
  125TIP3    H1  339   4.636   5.998   0.399
  125TIP3    H2  340   4.625   5.875   0.312
  126TIP3   OH2  341   2.349   5.985   1.444
  126TIP3    H1  342   2.363   5.970   1.537
  126TIP3    H2  343   2.259   6.019   1.438
  127TIP3   OH2  344   6.324   2.949   2.844
  127TIP3    H1  345   6.387   3.013   2.878
  127TIP3    H2  346   6.240   2.978   2.878
  128TIP3   OH2  347   1.983   1.939   5.891
  128TIP3    H1  348   1.975   1.991   5.811
  128TIP3    H2  349   1.892   1.923   5.918
  129TIP3   OH2  350   2.450   1.030   0.041
  129TIP3    H1  351   2.509   1.050  -0.032
  129TIP3    H2  352   2.499   1.054   0.119
  130TIP3   OH2  353   1.763   0.815   1.193
  130TIP3    H1  354   1.855   0.798   1.212
  130TIP3    H2  355   1.716   0.748   1.243
  131TIP3   OH2  356   2.104   3.244   0.330
  131TIP3    H1  357   2.138   3.178   0.270
  131TIP3    H2  358   2.024   3.205   0.365
  132TIP3   OH2  359   5.658   1.865   1.411
  132TIP3    H1  360   5.575   1.912   1.421
  132TIP3    H2  361   5.645   1.784   1.461
  133TIP3   OH2  362   0.093   1.653   2.292
  133TIP3    H1  363   0.053   1.615   2.370
  133TIP3    H2  364   0.184   1.626   2.295
  134TIP3   OH2  365   3.439   1.253   5.545
  134TIP3    H1  366   3.439   1.222   5.455
  134TIP3    H2  367   3.348   1.279   5.562
  135TIP3   OH2  368   2.371   6.130   3.651
  135TIP3    H1  369   2.377   6.160   3.561
  135TIP3    H2  370   2.309   6.190   3.693
  136TIP3   OH2  371   1.853   4.515   1.094
  136TIP3    H1  372   1.837   4.564   1.175
  136TIP3    H2  373   1.771   4.468   1.078
  137TIP3   OH2  374   2.102   6.224   4.154
  137TIP3    H1  375   2.126   6.311   4.123
  137TIP3    H2  376   2.182   6.172   4.147
  138TIP3   OH2  377   0.386   5.022   5.293
  138TIP3    H1  378   0.426   5.021   5.380
  138TIP3    H2  379   0.337   4.940   5.288
  139TIP3   OH2  380   0.817   2.232   4.565
  139TIP3    H1  381   0.806   2.302   4.501
  139TIP3    H2  382   0.885   2.175   4.527
  140TIP3   OH2  383   1.878   2.592   3.345
  140TIP3    H1  384   1.782   2.590   3.349
  140TIP3    H2  385   1.903   2.658   3.410
  141TIP3   OH2  386   0.054   6.522   4.315
  141TIP3    H1  387   0.032   6.469   4.391
  141TIP3    H2  388  -0.029   6.535   4.270
  142TIP3   OH2  389   2.204   5.902   0.976
  142TIP3    H1  390   2.192   5.816   1.016
  142TIP3    H2  391   2.291   5.898   0.937
  143TIP3   OH2  392   6.235   5.953   0.603
  143TIP3    H1  393   6.255   6.013   0.531
  143TIP3    H2  394   6.315   5.949   0.654
  144TIP3   OH2  395   6.196   0.000   1.387
  144TIP3    H1  396   6.158   0.088   1.389
  144TIP3    H2  397   6.266   0.006   1.323
  145TIP3   OH2  398   6.894   5.266   3.540
  145TIP3    H1  399   6.844   5.188   3.564
  145TIP3    H2  400   6.911   5.311   3.622
  146TIP3   OH2  401   5.247   1.076   5.703
  146TIP3    H1  402   5.334   1.114   5.715
  146TIP3    H2  403   5.263   0.983   5.693
  147TIP3   OH2  404   0.929   1.388   5.404
  147TIP3    H1  405   0.972   1.437   5.473
  147TIP3    H2  406   0.871   1.451   5.362
  148TIP3   OH2  407   4.225   5.735   2.017
  148TIP3    H1  408   4.233   5.686   2.099
  148TIP3    H2  409   4.224   5.827   2.044
  149TIP3   OH2  410   2.441   2.053   4.904
  149TIP3    H1  411   2.412   2.084   4.818
  149TIP3    H2  412   2.430   1.958   4.901
  150TIP3   OH2  413   4.679   0.215   2.522
  150TIP3    H1  414   4.693   0.247   2.433
  150TIP3    H2  415   4.721   0.129   2.524
  151TIP3   OH2  416   2.955   1.221   4.928
  151TIP3    H1  417   2.938   1.253   4.839
  151TIP3    H2  418   2.871   1.233   4.974
  152TIP3   OH2  419   2.476   3.732   5.011
  152TIP3    H1  420   2.520   3.734   4.926
  152TIP3    H2  421   2.539   3.690   5.069
  153TIP3   OH2  422   6.454   4.282   3.426
  153TIP3    H1  423   6.445   4.338   3.503
  153TIP3    H2  424   6.437   4.194   3.458
  154TIP3   OH2  425   6.281   1.553   1.206
  154TIP3    H1  426   6.229   1.551   1.126
  154TIP3    H2  427   6.350   1.617   1.188
  155TIP3   OH2  428   3.871   5.834   5.813
  155TIP3    H1  429   3.867   5.908   5.873
  155TIP3    H2  430   3.785   5.793   5.819
  156TIP3   OH2  431   4.452   2.064   0.167
  156TIP3    H1  432   4.362   2.038   0.185
  156TIP3    H2  433   4.457   2.071   0.072
  157TIP3   OH2  434   2.790   5.115   1.589
  157TIP3    H1  435   2.732   5.187   1.612
  157TIP3    H2  436   2.873   5.156   1.568
  158TIP3   OH2  437   0.740   5.562   2.221
  158TIP3    H1  438   0.781   5.624   2.160
  158TIP3    H2  439   0.812   5.526   2.272
  159TIP3   OH2  440   5.586   0.629   3.232
  159TIP3    H1  441   5.526   0.695   3.266
  159TIP3    H2  442   5.529   0.569   3.182
  160TIP3   OH2  443   3.819   6.487   4.910
  160TIP3    H1  444   3.793   6.495   5.002
  160TIP3    H2  445   3.813   6.394   4.891
  161TIP3   OH2  446   6.417   3.861   0.701
  161TIP3    H1  447   6.395   3.913   0.624
  161TIP3    H2  448   6.476   3.793   0.669
  162TIP3   OH2  449   6.216   0.021   5.208
  162TIP3    H1  450   6.131   0.063   5.196
  162TIP3    H2  451   6.273   0.065   5.145
  163TIP3   OH2  452   1.873   0.170   1.626
  163TIP3    H1  453   1.815   0.214   1.688
  163TIP3    H2  454   1.907   0.240   1.571
  164TIP3   OH2  455   3.601   5.493   0.924
  164TIP3    H1  456   3.528   5.458   0.975
  164TIP3    H2  457   3.606   5.437   0.846
  165TIP3   OH2  458   7.078   3.865   5.846
  165TIP3    H1  459   7.151   3.905   5.799
  165TIP3    H2  460   7.096   3.771   5.843
  166TIP3   OH2  461   0.036   0.844   4.549
  166TIP3    H1  462  -0.049   0.833   4.507
  166TIP3    H2  463   0.023   0.812   4.638
  167TIP3   OH2  464   4.800   2.730   2.469
  167TIP3    H1  465   4.736   2.787   2.512
  167TIP3    H2  466   4.885   2.759   2.503
  168TIP3   OH2  467   4.088   4.131   4.103
  168TIP3    H1  468   4.048   4.049   4.074
  168TIP3    H2  469   4.096   4.183   4.023
  169TIP3   OH2  470   4.103   0.256   0.872
  169TIP3    H1  471   4.026   0.313   0.874
  169TIP3    H2  472   4.129   0.248   0.964
  170TIP3   OH2  473   4.320   0.438   1.626
  170TIP3    H1  474   4.415   0.440   1.621
  170TIP3    H2  475   4.291   0.509   1.569
  171TIP3   OH2  476   3.691   4.895   0.429
  171TIP3    H1  477   3.693   4.836   0.505
  171TIP3    H2  478   3.651   4.975   0.463
  172TIP3   OH2  479   5.838   6.438   0.356
  172TIP3    H1  480   5.885   6.521   0.361
  172TIP3    H2  481   5.770   6.453   0.290
  173TIP3   OH2  482   1.663   2.847   0.789
  173TIP3    H1  483   1.737   2.908   0.780
  173TIP3    H2  484   1.662   2.799   0.706
  174TIP3   OH2  485   4.602   4.452   2.538
  174TIP3    H1  486   4.542   4.433   2.465
  174TIP3    H2  487   4.633   4.540   2.520
  175TIP3   OH2  488   0.167   1.210   2.382
  175TIP3    H1  489   0.110   1.230   2.457
  175TIP3    H2  490   0.124   1.254   2.308
  176TIP3   OH2  491   6.876   0.404   2.909
  176TIP3    H1  492   6.789   0.402   2.869
  176TIP3    H2  493   6.866   0.353   2.989
  177TIP3   OH2  494   1.841   3.956   2.598
  177TIP3    H1  495   1.881   3.972   2.683
  177TIP3    H2  496   1.750   3.985   2.608
  178TIP3   OH2  497   3.040   4.783   3.627
  178TIP3    H1  498   3.097   4.855   3.601
  178TIP3    H2  499   3.059   4.714   3.563
  179TIP3   OH2  500   7.110   4.587   1.504
  179TIP3    H1  501   7.099   4.652   1.435
  179TIP3    H2  502   7.030   4.592   1.556
  180TIP3   OH2  503   2.367   2.529   2.909
  180TIP3    H1  504   2.274   2.511   2.922
  180TIP3    H2  505   2.394   2.570   2.991
  181TIP3   OH2  506   0.368   0.202   5.361
  181TIP3    H1  507   0.346   0.208   5.454
  181TIP3    H2  508   0.347   0.111   5.337
  182TIP3   OH2  509   6.396   5.583   2.165
  182TIP3    H1  510   6.364   5.493   2.154
  182TIP3    H2  511   6.329   5.637   2.123
  183TIP3   OH2  512   0.961   5.875   1.150
  183TIP3    H1  513   0.971   5.784   1.122
  183TIP3    H2  514   1.009   5.925   1.083
  184TIP3   OH2  515   4.271   5.693   2.943
  184TIP3    H1  516   4.233   5.781   2.952
  184TIP3    H2  517   4.228   5.641   3.011
  185TIP3   OH2  518   3.035   0.423   4.829
  185TIP3    H1  519   3.029   0.482   4.754
  185TIP3    H2  520   3.025   0.335   4.792
  186TIP3   OH2  521   4.802   0.848   2.569
  186TIP3    H1  522   4.789   0.798   2.489
  186TIP3    H2  523   4.867   0.798   2.619
  187TIP3   OH2  524   3.734   4.256   3.441
  187TIP3    H1  525   3.645   4.283   3.465
  187TIP3    H2  526   3.785   4.338   3.445
  188TIP3   OH2  527   1.831   0.001   5.051
  188TIP3    H1  528   1.877   0.044   5.123
  188TIP3    H2  529   1.801   0.074   4.996
  189TIP3   OH2  530   6.919   2.651   3.026
  189TIP3    H1  531   6.844   2.660   2.966
  189TIP3    H2  532   6.995   2.667   2.971
  190TIP3   OH2  533   3.533   3.074   1.233
  190TIP3    H1  534   3.530   3.116   1.147
  190TIP3    H2  535   3.554   3.145   1.294
  191TIP3   OH2  536   2.354   5.271   5.606
  191TIP3    H1  537   2.304   5.217   5.668
  191TIP3    H2  538   2.297   5.278   5.530
  192TIP3   OH2  539   4.958   0.079   5.808
  192TIP3    H1  540   4.903   0.101   5.733
  192TIP3    H2  541   5.046   0.106   5.781
  193TIP3   OH2  542   6.497   1.368   0.965
  193TIP3    H1  543   6.482   1.327   1.051
  193TIP3    H2  544   6.534   1.454   0.986
  194TIP3   OH2  545   4.567   4.166   2.692
  194TIP3    H1  546   4.472   4.157   2.696
  194TIP3    H2  547   4.582   4.228   2.622
  195TIP3   OH2  548   2.711   0.740   1.277
  195TIP3    H1  549   2.696   0.646   1.287
  195TIP3    H2  550   2.801   0.747   1.244
  196TIP3   OH2  551   3.375   3.425   2.732
  196TIP3    H1  552   3.469   3.410   2.734
  196TIP3    H2  553   3.357   3.477   2.811
  197TIP3   OH2  554   6.504   3.384   3.385
  197TIP3    H1  555   6.526   3.430   3.466
  197TIP3    H2  556   6.495   3.452   3.320
  198TIP3   OH2  557   1.327   5.706   3.076
  198TIP3    H1  558   1.372   5.622   3.067
  198TIP3    H2  559   1.239   5.683   3.105
  199TIP3   OH2  560   7.193   3.466   3.191
  199TIP3    H1  561   7.233   3.424   3.115
  199TIP3    H2  562   7.126   3.523   3.155
  200TIP3   OH2  563   2.639   0.562   5.699
  200TIP3    H1  564   2.588   0.641   5.683
  200TIP3    H2  565   2.574   0.495   5.722
  201TIP3   OH2  566   4.797   1.514   4.117
  201TIP3    H1  567   4.858   1.527   4.189
  201TIP3    H2  568   4.787   1.419   4.111
  202TIP3   OH2  569   3.432   0.554   0.301
  202TIP3    H1  570   3.368   0.492   0.265
  202TIP3    H2  571   3.494   0.499   0.349
  203TIP3   OH2  572   1.498   6.263   2.051
  203TIP3    H1  573   1.468   6.260   1.960
  203TIP3    H2  574   1.570   6.200   2.056
  204TIP3   OH2  575   1.322   1.402   0.998
  204TIP3    H1  576   1.383   1.337   1.032
  204TIP3    H2  577   1.239   1.382   1.040
  205TIP3   OH2  578   3.504   1.335   0.611
  205TIP3    H1  579   3.425   1.381   0.638
  205TIP3    H2  580   3.483   1.298   0.526
  206TIP3   OH2  581   6.057   4.685   3.158
  206TIP3    H1  582   6.066   4.594   3.128
  206TIP3    H2  583   5.977   4.715   3.116
  207TIP3   OH2  584   3.992   5.672   0.475
  207TIP3    H1  585   3.974   5.763   0.500
  207TIP3    H2  586   3.925   5.621   0.519
  208TIP3   OH2  587   6.736   6.556   5.039
  208TIP3    H1  588   6.712   6.648   5.045
  208TIP3    H2  589   6.831   6.555   5.046
  209TIP3   OH2  590   1.556   4.559   0.775
  209TIP3    H1  591   1.577   4.645   0.811
  209TIP3    H2  592   1.586   4.497   0.841
  210TIP3   OH2  593   0.640   5.743   0.471
  210TIP3    H1  594   0.671   5.831   0.492
  210TIP3    H2  595   0.587   5.717   0.546
  211TIP3   OH2  596   4.685   3.914   2.660
  211TIP3    H1  597   4.638   3.858   2.722
  211TIP3    H2  598   4.630   3.992   2.652
  212TIP3   OH2  599   2.772   0.876   3.450
  212TIP3    H1  600   2.809   0.788   3.443
  212TIP3    H2  601   2.686   0.862   3.490
  213TIP3   OH2  602   0.974   3.719   3.433
  213TIP3    H1  603   0.989   3.664   3.510
  213TIP3    H2  604   0.964   3.808   3.468
  214TIP3   OH2  605   1.186   1.544   1.278
  214TIP3    H1  606   1.141   1.462   1.259
  214TIP3    H2  607   1.271   1.535   1.234
  215TIP3   OH2  608   1.862   3.358   3.514
  215TIP3    H1  609   1.880   3.276   3.468
  215TIP3    H2  610   1.866   3.335   3.607
  216TIP3   OH2  611   4.900   6.597   3.430
  216TIP3    H1  612   4.870   6.534   3.496
  216TIP3    H2  613   4.820   6.631   3.391
  217TIP3   OH2  614   5.267   6.782   4.359
  217TIP3    H1  615   5.322   6.846   4.313
  217TIP3    H2  616   5.187   6.779   4.307
  218TIP3   OH2  617   2.962   1.899   1.284
  218TIP3    H1  618   2.924   1.812   1.290
  218TIP3    H2  619   2.966   1.917   1.190
  219TIP3   OH2  620   1.920   6.594   1.072
  219TIP3    H1  621   1.882   6.591   0.984
  219TIP3    H2  622   1.893   6.511   1.112
  220TIP3   OH2  623   5.480   5.188   2.057
  220TIP3    H1  624   5.460   5.178   2.150
  220TIP3    H2  625   5.413   5.136   2.012
  221TIP3   OH2  626   4.207   2.264   0.337
  221TIP3    H1  627   4.133   2.251   0.277
  221TIP3    H2  628   4.246   2.347   0.309
  222TIP3   OH2  629   2.555   1.759   1.949
  222TIP3    H1  630   2.477   1.716   1.983
  222TIP3    H2  631   2.599   1.691   1.897
  223TIP3   OH2  632   1.570   4.239   4.921
  223TIP3    H1  633   1.554   4.188   5.001
  223TIP3    H2  634   1.550   4.177   4.850
  224TIP3   OH2  635   7.179   2.080   4.485
  224TIP3    H1  636   7.262   2.034   4.499
  224TIP3    H2  637   7.205   2.170   4.464
  225TIP3   OH2  638   1.778   6.645   2.716
  225TIP3    H1  639   1.752   6.611   2.630
  225TIP3    H2  640   1.715   6.714   2.735
  226TIP3   OH2  641   4.190   1.356   0.641
  226TIP3    H1  642   4.225   1.329   0.726
  226TIP3    H2  643   4.122   1.420   0.663
  227TIP3   OH2  644   3.767   1.236   0.498
  227TIP3    H1  645   3.836   1.296   0.470
  227TIP3    H2  646   3.697   1.293   0.529
  228TIP3   OH2  647   6.035   6.192   3.655
  228TIP3    H1  648   5.972   6.176   3.585
  228TIP3    H2  649   5.995   6.263   3.706
  229TIP3   OH2  650   1.500   4.605   0.002
  229TIP3    H1  651   1.535   4.523  -0.032
  229TIP3    H2  652   1.439   4.578   0.071
  230TIP3   OH2  653   5.075   2.668   3.671
  230TIP3    H1  654   5.009   2.731   3.641
  230TIP3    H2  655   5.063   2.593   3.613
  231TIP3   OH2  656   6.982   4.723   1.959
  231TIP3    H1  657   6.952   4.785   1.892
  231TIP3    H2  658   6.968   4.769   2.042
  232TIP3   OH2  659   6.925   1.954   2.253
  232TIP3    H1  660   6.895   1.867   2.226
  232TIP3    H2  661   7.011   1.938   2.294
  233TIP3   OH2  662   5.302   2.897   3.669
  233TIP3    H1  663   5.351   2.939   3.598
  233TIP3    H2  664   5.210   2.904   3.641
  234TIP3   OH2  665   1.067   4.165   1.329
  234TIP3    H1  666   1.141   4.170   1.268
  234TIP3    H2  667   1.103   4.196   1.412
  235TIP3   OH2  668   2.743   5.084   4.849
  235TIP3    H1  669   2.791   5.004   4.828
  235TIP3    H2  670   2.671   5.055   4.905
  236TIP3   OH2  671   1.619   2.634   1.760
  236TIP3    H1  672   1.535   2.652   1.719
  236TIP3    H2  673   1.630   2.704   1.825
  237TIP3   OH2  674   4.549   3.535   3.446
  237TIP3    H1  675   4.576   3.535   3.354
  237TIP3    H2  676   4.468   3.484   3.447
  238TIP3   OH2  677   3.085   5.804   0.695
  238TIP3    H1  678   3.155   5.753   0.735
  238TIP3    H2  679   3.005   5.755   0.715
  239TIP3   OH2  680   5.063   5.772   4.045
  239TIP3    H1  681   4.997   5.766   4.113
  239TIP3    H2  682   5.083   5.865   4.038
  240TIP3   OH2  683   3.785   2.499   3.160
  240TIP3    H1  684   3.790   2.588   3.124
  240TIP3    H2  685   3.785   2.511   3.255
  241TIP3   OH2  686   1.996   0.131   3.271
  241TIP3    H1  687   2.019   0.114   3.362
  241TIP3    H2  688   1.903   0.112   3.266
  242TIP3   OH2  689   6.618   2.390   0.218
  242TIP3    H1  690   6.666   2.314   0.185
  242TIP3    H2  691   6.604   2.444   0.140
  243TIP3   OH2  692   4.906   0.418   2.612
  243TIP3    H1  693   4.936   0.335   2.576
  243TIP3    H2  694   4.811   0.416   2.600
  244TIP3   OH2  695   0.282   0.844   1.404
  244TIP3    H1  696   0.372   0.844   1.372
  244TIP3    H2  697   0.240   0.772   1.357
  245TIP3   OH2  698   0.639   3.408   3.879
  245TIP3    H1  699   0.631   3.501   3.855
  245TIP3    H2  700   0.730   3.386   3.860
  246TIP3   OH2  701   6.158   6.661   0.939
  246TIP3    H1  702   6.199   6.575   0.932
  246TIP3    H2  703   6.125   6.679   0.851
  247TIP3   OH2  704   3.775   3.088   3.933
  247TIP3    H1  705   3.798   3.158   3.994
  247TIP3    H2  706   3.691   3.055   3.965
  248TIP3   OH2  707   6.025   5.793   2.371
  248TIP3    H1  708   6.043   5.870   2.425
  248TIP3    H2  709   5.951   5.819   2.316
  249TIP3   OH2  710   3.112   5.191   4.106
  249TIP3    H1  711   3.045   5.204   4.173
  249TIP3    H2  712   3.084   5.111   4.060
  250TIP3   OH2  713   4.387   1.765   4.507
  250TIP3    H1  714   4.292   1.774   4.517
  250TIP3    H2  715   4.398   1.696   4.442
  251TIP3   OH2  716   1.248   1.403   2.491
  251TIP3    H1  717   1.338   1.413   2.463
  251TIP3    H2  718   1.241   1.457   2.570
  252TIP3   OH2  719   2.408   5.068   5.199
  252TIP3    H1  720   2.346   5.020   5.255
  252TIP3    H2  721   2.361   5.083   5.118
  253TIP3   OH2  722   4.124   6.082   1.453
  253TIP3    H1  723   4.201   6.104   1.400
  253TIP3    H2  724   4.093   6.167   1.485
  254TIP3   OH2  725   3.572   3.816   4.167
  254TIP3    H1  726   3.539   3.861   4.089
  254TIP3    H2  727   3.666   3.830   4.165
  255TIP3   OH2  728   6.599   4.857   0.146
  255TIP3    H1  729   6.635   4.794   0.084
  255TIP3    H2  730   6.657   4.851   0.222
  256TIP3   OH2  731   1.311   0.296   1.112
  256TIP3    H1  732   1.302   0.201   1.122
  256TIP3    H2  733   1.352   0.308   1.027
  257TIP3   OH2  734   2.415   4.813   1.390
  257TIP3    H1  735   2.488   4.848   1.339
  257TIP3    H2  736   2.341   4.814   1.329
  258TIP3   OH2  737   5.628   6.737   2.095
  258TIP3    H1  738   5.613   6.821   2.053
  258TIP3    H2  739   5.540   6.701   2.109
  259TIP3   OH2  740   4.044   0.558   4.047
  259TIP3    H1  741   4.028   0.518   3.962
  259TIP3    H2  742   3.960   0.554   4.092
  260TIP3   OH2  743   0.669   6.217   0.083
  260TIP3    H1  744   0.664   6.126   0.110
  260TIP3    H2  745   0.585   6.255   0.109
  261TIP3   OH2  746   5.421   1.912   4.199
  261TIP3    H1  747   5.338   1.866   4.215
  261TIP3    H2  748   5.477   1.846   4.159
  262TIP3   OH2  749   2.929   0.978   2.065
  262TIP3    H1  750   3.010   0.927   2.064
  262TIP3    H2  751   2.958   1.069   2.068
  263TIP3   OH2  752   0.454   0.828   5.273
  263TIP3    H1  753   0.413   0.856   5.191
  263TIP3    H2  754   0.381   0.807   5.331
  264TIP3   OH2  755   4.453   1.691   2.896
  264TIP3    H1  756   4.543   1.660   2.901
  264TIP3    H2  757   4.459   1.786   2.899
  265TIP3   OH2  758   0.868   1.667   1.482
  265TIP3    H1  759   0.819   1.620   1.415
  265TIP3    H2  760   0.924   1.728   1.433
  266TIP3   OH2  761   3.144   1.212   2.184
  266TIP3    H1  762   3.141   1.164   2.267
  266TIP3    H2  763   3.229   1.258   2.186
  267TIP3   OH2  764   2.880   3.756   5.413
  267TIP3    H1  765   2.857   3.674   5.370
  267TIP3    H2  766   2.851   3.745   5.504
  268TIP3   OH2  767   7.006   2.391   3.158
  268TIP3    H1  768   7.088   2.371   3.112
  268TIP3    H2  769   6.977   2.475   3.120
  269TIP3   OH2  770   0.678   5.461   0.115
  269TIP3    H1  771   0.770   5.447   0.139
  269TIP3    H2  772   0.633   5.382   0.147
  270TIP3   OH2  773   5.808   2.909   1.584
  270TIP3    H1  774   5.818   3.003   1.568
  270TIP3    H2  775   5.742   2.881   1.521
  271TIP3   OH2  776   1.724   4.336   3.894
  271TIP3    H1  777   1.732   4.419   3.942
  271TIP3    H2  778   1.815   4.305   3.886
  272TIP3   OH2  779   6.595   4.829   2.715
  272TIP3    H1  780   6.652   4.767   2.669
  272TIP3    H2  781   6.534   4.859   2.647
  273TIP3   OH2  782   4.308   4.518   1.527
  273TIP3    H1  783   4.262   4.569   1.594
  273TIP3    H2  784   4.244   4.454   1.497
  274TIP3   OH2  785   4.462   4.966   0.908
  274TIP3    H1  786   4.540   4.957   0.964
  274TIP3    H2  787   4.429   5.053   0.928
  275TIP3   OH2  788   6.768   3.394   3.538
  275TIP3    H1  789   6.814   3.362   3.461
  275TIP3    H2  790   6.824   3.463   3.573
  276TIP3   OH2  791   5.447   4.243   4.244
  276TIP3    H1  792   5.463   4.338   4.244
  276TIP3    H2  793   5.431   4.222   4.152
  277TIP3   OH2  794   2.823   2.160   1.690
  277TIP3    H1  795   2.773   2.206   1.622
  277TIP3    H2  796   2.795   2.069   1.683
  278TIP3   OH2  797   5.724   4.579   1.975
  278TIP3    H1  798   5.664   4.653   1.964
  278TIP3    H2  799   5.673   4.514   2.025
  279TIP3   OH2  800   3.920   2.366   4.131
  279TIP3    H1  801   3.885   2.375   4.220
  279TIP3    H2  802   4.015   2.359   4.143
  280TIP3   OH2  803   4.904   4.528   3.106
  280TIP3    H1  804   4.931   4.438   3.120
  280TIP3    H2  805   4.870   4.529   3.016
  281TIP3   OH2  806   0.947   0.382   3.216
  281TIP3    H1  807   0.896   0.433   3.279
  281TIP3    H2  808   1.000   0.446   3.170
  282TIP3   OH2  809   0.618   0.932   4.640
  282TIP3    H1  810   0.618   0.943   4.545
  282TIP3    H2  811   0.616   0.838   4.653
  283TIP3   OH2  812   2.668   1.493   4.107
  283TIP3    H1  813   2.730   1.548   4.154
  283TIP3    H2  814   2.657   1.416   4.163
  284TIP3   OH2  815   1.322   2.838   5.837
  284TIP3    H1  816   1.273   2.912   5.873
  284TIP3    H2  817   1.291   2.831   5.746
  285TIP3   OH2  818   6.345   1.678   2.556
  285TIP3    H1  819   6.299   1.662   2.473
  285TIP3    H2  820   6.276   1.708   2.615
  286TIP3   OH2  821   0.837   0.189   2.981
  286TIP3    H1  822   0.869   0.253   3.044
  286TIP3    H2  823   0.820   0.239   2.902
  287TIP3   OH2  824   6.631   0.557   2.819
  287TIP3    H1  825   6.535   0.565   2.812
  287TIP3    H2  826   6.664   0.584   2.733
  288TIP3   OH2  827   3.907   3.482   2.977
  288TIP3    H1  828   3.928   3.538   3.052
  288TIP3    H2  829   3.978   3.496   2.915
  289TIP3   OH2  830   5.294   4.696   3.535
  289TIP3    H1  831   5.365   4.673   3.475
  289TIP3    H2  832   5.248   4.768   3.490
  290TIP3   OH2  833   5.998   0.757   0.395
  290TIP3    H1  834   6.090   0.745   0.373
  290TIP3    H2  835   5.999   0.795   0.483
  291TIP3   OH2  836   6.673   2.579   3.910
  291TIP3    H1  837   6.739   2.510   3.905
  291TIP3    H2  838   6.710   2.653   3.862
  292TIP3   OH2  839   4.886   1.823   1.336
  292TIP3    H1  840   4.935   1.887   1.389
  292TIP3    H2  841   4.825   1.877   1.285
  293TIP3   OH2  842   3.797   2.975   2.954
  293TIP3    H1  843   3.764   3.017   2.875
  293TIP3    H2  844   3.775   3.035   3.025
  294TIP3   OH2  845   6.103   6.829   1.162
  294TIP3    H1  846   6.138   6.771   1.094
  294TIP3    H2  847   6.035   6.778   1.205
  295TIP3   OH2  848   4.856   3.745   1.248
  295TIP3    H1  849   4.895   3.810   1.189
  295TIP3    H2  850   4.762   3.748   1.228
  296TIP3   OH2  851   6.704   3.925   2.326
  296TIP3    H1  852   6.674   4.003   2.279
  296TIP3    H2  853   6.625   3.872   2.337
  297TIP3   OH2  854   5.183   3.454   0.054
  297TIP3    H1  855   5.184   3.544   0.085
  297TIP3    H2  856   5.092   3.426   0.065
  298TIP3   OH2  857   1.363   4.430   1.423
  298TIP3    H1  858   1.325   4.454   1.508
  298TIP3    H2  859   1.296   4.454   1.359
  299TIP3   OH2  860   4.960   5.100   3.104
  299TIP3    H1  861   5.006   5.069   3.182
  299TIP3    H2  862   4.872   5.121   3.135
  300TIP3   OH2  863   4.829   0.052   5.209
  300TIP3    H1  864   4.801   0.137   5.174
  300TIP3    H2  865   4.748   0.002   5.216
  301TIP3   OH2  866   1.602   0.430   0.162
  301TIP3    H1  867   1.662   0.398   0.095
  301TIP3    H2  868   1.622   0.376   0.239
  302TIP3   OH2  869   2.994   5.212   2.946
  302TIP3    H1  870   2.959   5.300   2.940
  302TIP3    H2  871   2.922   5.155   2.920
  303TIP3   OH2  872   0.793   2.234   5.026
  303TIP3    H1  873   0.773   2.144   5.000
  303TIP3    H2  874   0.888   2.236   5.036
  304TIP3   OH2  875   7.030   2.357   5.622
  304TIP3    H1  876   7.059   2.288   5.561
  304TIP3    H2  877   7.053   2.439   5.578
  305TIP3   OH2  878   1.812   6.674   5.565
  305TIP3    H1  879   1.800   6.766   5.540
  305TIP3    H2  880   1.727   6.649   5.602
  306TIP3   OH2  881   0.306   5.075   0.143
  306TIP3    H1  882   0.255   5.039   0.071
  306TIP3    H2  883   0.391   5.096   0.105
  307TIP3   OH2  884   5.188   3.381   3.914
  307TIP3    H1  885   5.275   3.340   3.912
  307TIP3    H2  886   5.183   3.421   4.001
  308TIP3   OH2  887   1.565   5.275   0.630
  308TIP3    H1  888   1.636   5.309   0.575
  308TIP3    H2  889   1.504   5.235   0.568
  309TIP3   OH2  890   4.699   2.817   0.745
  309TIP3    H1  891   4.697   2.793   0.653
  309TIP3    H2  892   4.613   2.855   0.762
  310TIP3   OH2  893   1.098   6.187   2.266
  310TIP3    H1  894   1.170   6.145   2.311
  310TIP3    H2  895   1.041   6.220   2.336
  311TIP3   OH2  896   3.022   5.861   3.488
  311TIP3    H1  897   2.968   5.832   3.415
  311TIP3    H2  898   2.968   5.846   3.566
  312TIP3   OH2  899   0.264   0.189   1.200
  312TIP3    H1  900   0.353   0.162   1.178
  312TIP3    H2  901   0.275   0.268   1.252
  313TIP3   OH2  902   6.275   2.297   5.349
  313TIP3    H1  903   6.256   2.208   5.378
  313TIP3    H2  904   6.365   2.313   5.377
  314TIP3   OH2  905   0.263   1.321   4.927
  314TIP3    H1  906   0.236   1.230   4.935
  314TIP3    H2  907   0.259   1.356   5.016
  315TIP3   OH2  908   0.492   3.763   5.078
  315TIP3    H1  909   0.398   3.777   5.063
  315TIP3    H2  910   0.518   3.701   5.010
  316TIP3   OH2  911   3.980   3.425   2.315
  316TIP3    H1  912   3.904   3.435   2.372
  316TIP3    H2  913   3.980   3.504   2.261
  317TIP3   OH2  914   3.442   3.989   0.102
  317TIP3    H1  915   3.490   3.944   0.033
  317TIP3    H2  916   3.452   4.082   0.083
  318TIP3   OH2  917   3.209   0.589   5.488
  318TIP3    H1  918   3.126   0.629   5.464
  318TIP3    H2  919   3.220   0.518   5.425
  319TIP3   OH2  920   4.858   5.540   0.018
  319TIP3    H1  921   4.891   5.450   0.008
  319TIP3    H2  922   4.817   5.541   0.104
  320TIP3   OH2  923   6.298   1.846   0.394
  320TIP3    H1  924   6.270   1.758   0.420
  320TIP3    H2  925   6.393   1.844   0.400
  321TIP3   OH2  926   4.003   3.295   1.742
  321TIP3    H1  927   4.090   3.273   1.709
  321TIP3    H2  928   3.949   3.301   1.664
  322TIP3   OH2  929   6.946   3.856   5.338
  322TIP3    H1  930   7.005   3.930   5.325
  322TIP3    H2  931   6.870   3.894   5.382
  323TIP3   OH2  932   6.414   4.340   5.689
  323TIP3    H1  933   6.441   4.275   5.624
  323TIP3    H2  934   6.494   4.390   5.708
  324TIP3   OH2  935   6.160   5.515   4.605
  324TIP3    H1  936   6.182   5.450   4.672
  324TIP3    H2  937   6.245   5.553   4.580
  325TIP3   OH2  938   4.172   4.875   1.521
  325TIP3    H1  939   4.113   4.939   1.482
  325TIP3    H2  940   4.260   4.908   1.501
  326TIP3   OH2  941   5.389   0.602   3.637
  326TIP3    H1  942   5.381   0.544   3.561
  326TIP3    H2  943   5.348   0.553   3.708
  327TIP3   OH2  944   2.782   5.447   1.045
  327TIP3    H1  945   2.694   5.483   1.053
  327TIP3    H2  946   2.770   5.362   1.004
  328TIP3   OH2  947   2.595   2.499   5.375
  328TIP3    H1  948   2.580   2.413   5.336
  328TIP3    H2  949   2.604   2.558   5.300
  329TIP3   OH2  950   3.252   3.264   1.569
  329TIP3    H1  951   3.177   3.307   1.609
  329TIP3    H2  952   3.245   3.172   1.596
  330TIP3   OH2  953   3.707   1.064   5.089
  330TIP3    H1  954   3.688   1.025   5.003
  330TIP3    H2  955   3.682   0.996   5.152
  331TIP3   OH2  956   3.952   0.880   5.162
  331TIP3    H1  957   3.945   0.957   5.218
  331TIP3    H2  958   3.969   0.915   5.075
  332TIP3   OH2  959   2.698   1.366   1.342
  332TIP3    H1  960   2.771   1.422   1.368
  332TIP3    H2  961   2.739   1.289   1.304
  333TIP3   OH2  962   1.982   0.309   0.222
  333TIP3    H1  963   1.898   0.279   0.257
  333TIP3    H2  964   2.008   0.241   0.161
  334TIP3   OH2  965   6.422   4.901   3.110
  334TIP3    H1  966   6.459   4.916   3.023
  334TIP3    H2  967   6.363   4.826   3.098
  335TIP3   OH2  968   3.915   4.755   4.915
  335TIP3    H1  969   3.844   4.701   4.949
  335TIP3    H2  970   3.895   4.766   4.822
  336TIP3   OH2  971   2.668   3.000   5.316
  336TIP3    H1  972   2.689   3.074   5.373
  336TIP3    H2  973   2.716   3.017   5.235
  337TIP3   OH2  974   1.689   1.147   3.111
  337TIP3    H1  975   1.711   1.238   3.130
  337TIP3    H2  976   1.720   1.132   3.021
  338TIP3   OH2  977   6.571   4.669   2.943
  338TIP3    H1  978   6.604   4.754   2.916
  338TIP3    H2  979   6.486   4.661   2.901
  339TIP3   OH2  980   3.138   0.185   1.575
  339TIP3    H1  981   3.205   0.118   1.589
  339TIP3    H2  982   3.067   0.139   1.531
  340TIP3   OH2  983   7.189   0.647   1.048
  340TIP3    H1  984   7.144   0.564   1.031
  340TIP3    H2  985   7.121   0.713   1.046
  341TIP3   OH2  986   6.753   4.157   3.519
  341TIP3    H1  987   6.684   4.097   3.491
  341TIP3    H2  988   6.715   4.203   3.594
  342TIP3   OH2  989   4.806   2.200   4.349
  342TIP3    H1  990   4.877   2.205   4.285
  342TIP3    H2  991   4.728   2.229   4.301
  343TIP3   OH2  992   0.542   0.590   1.464
  343TIP3    H1  993   0.616   0.571   1.521
  343TIP3    H2  994   0.477   0.524   1.486
  344TIP3   OH2  995   1.691   1.102   2.593
  344TIP3    H1  996   1.774   1.060   2.612
  344TIP3    H2  997   1.712   1.195   2.579
  345TIP3   OH2  998   5.694   0.450   3.724
  345TIP3    H1  999   5.769   0.393   3.707
  345TIP3    H2 1000   5.689   0.506   3.647
  346TIP3   OH2 1001   7.170   4.099   2.518
  346TIP3    H1 1002   7.108   4.161   2.480
  346TIP3    H2 1003   7.211   4.146   2.591
  347TIP3   OH2 1004   3.633   1.224   3.891
  347TIP3    H1 1005   3.590   1.141   3.870
  347TIP3    H2 1006   3.642   1.268   3.807
  348TIP3   OH2 1007   6.062   3.921   2.784
  348TIP3    H1 1008   5.997   3.914   2.714
  348TIP3    H2 1009   6.018   3.970   2.853
  349TIP3   OH2 1010   1.852   6.578   0.006
  349TIP3    H1 1011   1.786   6.592   0.074
  349TIP3    H2 1012   1.852   6.483  -0.007
  350TIP3   OH2 1013   3.620   1.448   5.618
  350TIP3    H1 1014   3.711   1.422   5.601
  350TIP3    H2 1015   3.569   1.368   5.602
  351TIP3   OH2 1016   5.585   4.343   5.238
  351TIP3    H1 1017   5.629   4.325   5.156
  351TIP3    H2 1018   5.511   4.282   5.240
  352TIP3   OH2 1019   6.904   1.064   5.900
  352TIP3    H1 1020   6.919   1.038   5.809
  352TIP3    H2 1021   6.809   1.060   5.911
  353TIP3   OH2 1022   0.031   2.986   0.427
  353TIP3    H1 1023   0.103   2.967   0.486
  353TIP3    H2 1024   0.070   3.035   0.354
  354TIP3   OH2 1025   5.391   1.245   5.263
  354TIP3    H1 1026   5.356   1.259   5.175
  354TIP3    H2 1027   5.375   1.152   5.280
  355TIP3   OH2 1028   1.775   4.195   4.694
  355TIP3    H1 1029   1.760   4.285   4.662
  355TIP3    H2 1030   1.688   4.156   4.695
  356TIP3   OH2 1031   2.020   1.340   3.701
  356TIP3    H1 1032   2.103   1.317   3.743
  356TIP3    H2 1033   1.979   1.255   3.681
  357TIP3   OH2 1034   5.688   5.735   4.967
  357TIP3    H1 1035   5.715   5.738   5.059
  357TIP3    H2 1036   5.721   5.651   4.936
  358TIP3   OH2 1037   0.665   5.536   0.750
  358TIP3    H1 1038   0.638   5.445   0.738
  358TIP3    H2 1039   0.594   5.575   0.801
  359TIP3   OH2 1040   1.235   4.955   0.078
  359TIP3    H1 1041   1.162   4.908   0.036
  359TIP3    H2 1042   1.216   4.949   0.171
  360TIP3   OH2 1043   1.968   0.962   2.133
  360TIP3    H1 1044   1.950   0.869   2.149
  360TIP3    H2 1045   1.972   0.970   2.038
  361TIP3   OH2 1046   2.975   4.841   0.355
  361TIP3    H1 1047   2.931   4.826   0.271
  361TIP3    H2 1048   2.965   4.758   0.402
  362TIP3   OH2 1049   3.975   0.632   0.302
  362TIP3    H1 1050   3.950   0.681   0.224
  362TIP3    H2 1051   4.071   0.637   0.303
  363TIP3   OH2 1052   0.991   3.220   5.303
  363TIP3    H1 1053   0.994   3.126   5.283
  363TIP3    H2 1054   1.022   3.226   5.393
  364TIP3   OH2 1055   0.389   3.325   4.095
  364TIP3    H1 1056   0.323   3.266   4.059
  364TIP3    H2 1057   0.368   3.411   4.059
  365TIP3   OH2 1058   7.092   5.595   2.741
  365TIP3    H1 1059   7.150   5.539   2.794
  365TIP3    H2 1060   7.127   5.587   2.652
  366TIP3   OH2 1061   3.133   1.464   3.153
  366TIP3    H1 1062   3.207   1.494   3.100
  366TIP3    H2 1063   3.091   1.397   3.100
  367TIP3   OH2 1064   3.311   4.911   3.573
  367TIP3    H1 1065   3.328   4.886   3.482
  367TIP3    H2 1066   3.377   4.979   3.592
  368TIP3   OH2 1067   5.995   5.831   5.660
  368TIP3    H1 1068   6.065   5.887   5.626
  368TIP3    H2 1069   5.921   5.847   5.601
  369TIP3   OH2 1070   0.252   5.675   4.040
  369TIP3    H1 1071   0.157   5.669   4.052
  369TIP3    H2 1072   0.283   5.715   4.121
  370TIP3   OH2 1073   5.791   4.341   1.202
  370TIP3    H1 1074   5.779   4.374   1.291
  370TIP3    H2 1075   5.840   4.259   1.214
  371TIP3   OH2 1076   3.121   3.475   2.479
  371TIP3    H1 1077   3.128   3.386   2.446
  371TIP3    H2 1078   3.027   3.488   2.492
  372TIP3   OH2 1079   1.167   4.546   1.222
  372TIP3    H1 1080   1.079   4.529   1.256
  372TIP3    H2 1081   1.189   4.633   1.255
  373TIP3   OH2 1082   0.577   4.895   5.082
  373TIP3    H1 1083   0.503   4.918   5.138
  373TIP3    H2 1084   0.574   4.800   5.075
  374TIP3   OH2 1085   1.707   3.701   3.894
  374TIP3    H1 1086   1.652   3.694   3.972
  374TIP3    H2 1087   1.769   3.772   3.914
  375TIP3   OH2 1088   4.655   2.625   1.490
  375TIP3    H1 1089   4.615   2.701   1.530
  375TIP3    H2 1090   4.748   2.647   1.483
  376TIP3   OH2 1091   6.574   5.618   4.212
  376TIP3    H1 1092   6.653   5.574   4.180
  376TIP3    H2 1093   6.605   5.702   4.245
  377TIP3   OH2 1094   1.054   1.790   5.761
  377TIP3    H1 1095   1.147   1.813   5.773
  377TIP3    H2 1096   1.038   1.720   5.824
  378TIP3   OH2 1097   5.786   2.522   3.113
  378TIP3    H1 1098   5.757   2.610   3.089
  378TIP3    H2 1099   5.744   2.464   3.050
  379TIP3   OH2 1100   4.428   0.346   0.330
  379TIP3    H1 1101   4.484   0.407   0.281
  379TIP3    H2 1102   4.484   0.272   0.350
  380TIP3   OH2 1103   1.548   2.612   4.039
  380TIP3    H1 1104   1.518   2.593   3.950
  380TIP3    H2 1105   1.498   2.552   4.094
  381TIP3   OH2 1106   3.839   1.515   4.946
  381TIP3    H1 1107   3.918   1.569   4.951
  381TIP3    H2 1108   3.781   1.564   4.887
  382TIP3   OH2 1109   7.151   6.180   1.389
  382TIP3    H1 1110   7.168   6.213   1.301
  382TIP3    H2 1111   7.134   6.259   1.441
  383TIP3   OH2 1112   1.586   3.776   4.801
  383TIP3    H1 1113   1.547   3.689   4.800
  383TIP3    H2 1114   1.578   3.806   4.891
  384TIP3   OH2 1115   3.160   1.999   5.558
  384TIP3    H1 1116   3.149   2.089   5.590
  384TIP3    H2 1117   3.070   1.968   5.545
  385TIP3   OH2 1118   5.488   1.537   4.075
  385TIP3    H1 1119   5.500   1.449   4.109
  385TIP3    H2 1120   5.552   1.590   4.124
  386TIP3   OH2 1121   2.833   2.756   4.893
  386TIP3    H1 1122   2.903   2.704   4.851
  386TIP3    H2 1123   2.868   2.777   4.979
  387TIP3   OH2 1124   7.088   3.579   5.902
  387TIP3    H1 1125   7.164   3.572   5.961
  387TIP3    H2 1126   7.124   3.564   5.815
  388TIP3   OH2 1127   0.155   4.078   3.463
  388TIP3    H1 1128   0.219   4.009   3.444
  388TIP3    H2 1129   0.071   4.034   3.457
  389TIP3   OH2 1130   0.315   1.470   2.383
  389TIP3    H1 1131   0.283   1.399   2.438
  389TIP3    H2 1132   0.370   1.426   2.318
  390TIP3   OH2 1133   0.604   2.115   3.042
  390TIP3    H1 1134   0.585   2.062   2.965
  390TIP3    H2 1135   0.520   2.126   3.086
  391TIP3   OH2 1136   1.384   1.584   0.534
  391TIP3    H1 1137   1.333   1.511   0.500
  391TIP3    H2 1138   1.416   1.554   0.619
  392TIP3   OH2 1139   1.103   4.335   5.042
  392TIP3    H1 1140   1.054   4.309   4.964
  392TIP3    H2 1141   1.036   4.368   5.102
  393TIP3   OH2 1142   2.859   3.183   1.561
  393TIP3    H1 1143   2.792   3.190   1.629
  393TIP3    H2 1144   2.821   3.122   1.497
  394TIP3   OH2 1145   5.263   4.159   4.014
  394TIP3    H1 1146   5.259   4.066   3.994
  394TIP3    H2 1147   5.172   4.185   4.029
  395TIP3   OH2 1148   1.877   6.565   3.839
  395TIP3    H1 1149   1.845   6.651   3.810
  395TIP3    H2 1150   1.798   6.512   3.849
  396TIP3   OH2 1151   1.974   6.155   4.925
  396TIP3    H1 1152   1.883   6.160   4.896
  396TIP3    H2 1153   1.970   6.104   5.006
  397TIP3   OH2 1154   2.763   5.074   2.911
  397TIP3    H1 1155   2.747   5.112   2.997
  397TIP3    H2 1156   2.752   4.980   2.924
  398TIP3   OH2 1157   0.020   0.899   3.267
  398TIP3    H1 1158   0.045   0.972   3.324
  398TIP3    H2 1159   0.060   0.919   3.183
  399TIP3   OH2 1160   6.909   0.946   0.782
  399TIP3    H1 1161   6.871   1.002   0.714
  399TIP3    H2 1162   6.865   0.972   0.862
  400TIP3   OH2 1163   5.403   5.570   3.756
  400TIP3    H1 1164   5.346   5.577   3.679
  400TIP3    H2 1165   5.425   5.477   3.761
  401TIP3   OH2 1166   4.793   5.745   0.486
  401TIP3    H1 1167   4.722   5.803   0.458
  401TIP3    H2 1168   4.810   5.769   0.577
  402TIP3   OH2 1169   2.217   0.175   1.528
  402TIP3    H1 1170   2.236   0.123   1.607
  402TIP3    H2 1171   2.152   0.124   1.481
  403TIP3   OH2 1172   2.290   1.189   0.622
  403TIP3    H1 1173   2.226   1.212   0.555
  403TIP3    H2 1174   2.279   1.256   0.689
  404TIP3   OH2 1175   6.597   6.056   3.365
  404TIP3    H1 1176   6.576   6.150   3.364
  404TIP3    H2 1177   6.587   6.028   3.274
  405TIP3   OH2 1178   5.815   3.600   2.739
  405TIP3    H1 1179   5.726   3.599   2.704
  405TIP3    H2 1180   5.804   3.610   2.833
  406TIP3   OH2 1181   2.681   6.683   5.486
  406TIP3    H1 1182   2.708   6.677   5.395
  406TIP3    H2 1183   2.754   6.646   5.535
  407TIP3   OH2 1184   6.512   5.929   0.940
  407TIP3    H1 1185   6.500   5.883   0.857
  407TIP3    H2 1186   6.587   5.987   0.925
  408TIP3   OH2 1187   5.783   2.839   3.344
  408TIP3    H1 1188   5.719   2.901   3.310
  408TIP3    H2 1189   5.867   2.885   3.338
  409TIP3   OH2 1190   1.911   3.174   3.262
  409TIP3    H1 1191   1.840   3.112   3.247
  409TIP3    H2 1192   1.868   3.259   3.264
  410TIP3   OH2 1193   2.507   4.081   1.497
  410TIP3    H1 1194   2.438   4.017   1.484
  410TIP3    H2 1195   2.514   4.090   1.592
  411TIP3   OH2 1196   3.645   2.989   3.278
  411TIP3    H1 1197   3.596   2.946   3.208
  411TIP3    H2 1198   3.588   3.060   3.307
  412TIP3   OH2 1199   6.960   5.160   3.875
  412TIP3    H1 1200   6.977   5.254   3.880
  412TIP3    H2 1201   7.046   5.121   3.857
  413TIP3   OH2 1202   4.442   3.943   1.643
  413TIP3    H1 1203   4.397   4.012   1.594
  413TIP3    H2 1204   4.431   3.967   1.735
  414TIP3   OH2 1205   5.124   4.278   5.660
  414TIP3    H1 1206   5.188   4.254   5.592
  414TIP3    H2 1207   5.121   4.201   5.717
  415TIP3   OH2 1208   5.355   2.069   2.567
  415TIP3    H1 1209   5.293   2.137   2.541
  415TIP3    H2 1210   5.426   2.077   2.503
  416TIP3   OH2 1211   4.952   4.086   4.281
  416TIP3    H1 1212   4.958   4.148   4.208
  416TIP3    H2 1213   5.004   4.011   4.253
  417TIP3   OH2 1214   0.430   5.833   1.186
  417TIP3    H1 1215   0.518   5.861   1.160
  417TIP3    H2 1216   0.386   5.810   1.104
  418TIP3   OH2 1217   7.160   5.827   4.788
  418TIP3    H1 1218   7.075   5.854   4.753
  418TIP3    H2 1219   7.224   5.864   4.727
  419TIP3   OH2 1220   1.461   6.574   2.388
  419TIP3    H1 1221   1.396   6.512   2.353
  419TIP3    H2 1222   1.545   6.543   2.354
  420TIP3   OH2 1223   0.084   6.317   5.271
  420TIP3    H1 1224   0.175   6.349   5.270
  420TIP3    H2 1225   0.082   6.250   5.203
  421TIP3   OH2 1226   5.103   3.778   3.088
  421TIP3    H1 1227   5.190   3.784   3.049
  421TIP3    H2 1228   5.057   3.856   3.057
  422TIP3   OH2 1229   0.567   1.825   5.525
  422TIP3    H1 1230   0.592   1.805   5.434
  422TIP3    H2 1231   0.650   1.846   5.568
  423TIP3   OH2 1232   4.747   0.544   0.974
  423TIP3    H1 1233   4.769   0.457   0.941
  423TIP3    H2 1234   4.663   0.565   0.933
  424TIP3   OH2 1235   4.389   5.521   1.377
  424TIP3    H1 1236   4.365   5.611   1.400
  424TIP3    H2 1237   4.429   5.528   1.290
  425TIP3   OH2 1238   1.997   4.805   1.800
  425TIP3    H1 1239   1.905   4.809   1.827
  425TIP3    H2 1240   2.037   4.742   1.860
  426TIP3   OH2 1241   0.776   6.644   4.428
  426TIP3    H1 1242   0.785   6.733   4.464
  426TIP3    H2 1243   0.682   6.625   4.435
  427TIP3   OH2 1244   1.171   6.522   2.226
  427TIP3    H1 1245   1.157   6.478   2.309
  427TIP3    H2 1246   1.121   6.603   2.232
  428TIP3   OH2 1247   6.043   4.192   1.575
  428TIP3    H1 1248   6.035   4.112   1.627
  428TIP3    H2 1249   5.988   4.176   1.498
  429TIP3   OH2 1250   2.654   1.455   4.725
  429TIP3    H1 1251   2.595   1.423   4.794
  429TIP3    H2 1252   2.607   1.526   4.684
  430TIP3   OH2 1253   6.286   2.500   5.624
  430TIP3    H1 1254   6.232   2.537   5.554
  430TIP3    H2 1255   6.326   2.422   5.585
  431TIP3   OH2 1256   2.323   4.314   4.601
  431TIP3    H1 1257   2.255   4.247   4.598
  431TIP3    H2 1258   2.349   4.325   4.510
  432TIP3   OH2 1259   3.180   6.225   3.972
  432TIP3    H1 1260   3.241   6.234   4.045
  432TIP3    H2 1261   3.164   6.314   3.942
  433TIP3   OH2 1262   7.017   4.703   5.152
  433TIP3    H1 1263   7.110   4.713   5.130
  433TIP3    H2 1264   7.002   4.608   5.149
  434TIP3   OH2 1265   4.545   1.984   4.205
  434TIP3    H1 1266   4.528   1.985   4.300
  434TIP3    H2 1267   4.559   2.075   4.182
  435TIP3   OH2 1268   3.640   6.737   0.212
  435TIP3    H1 1269   3.731   6.766   0.219
  435TIP3    H2 1270   3.639   6.650   0.251
  436TIP3   OH2 1271   6.553   2.743   0.319
  436TIP3    H1 1272   6.477   2.687   0.336
  436TIP3    H2 1273   6.554   2.752   0.223
  437TIP3   OH2 1274   1.767   3.681   2.205
  437TIP3    H1 1275   1.725   3.722   2.281
  437TIP3    H2 1276   1.820   3.611   2.241
  438TIP3   OH2 1277   4.422   0.624   1.141
  438TIP3    H1 1278   4.421   0.548   1.200
  438TIP3    H2 1279   4.503   0.670   1.163
  439TIP3   OH2 1280   4.988   2.504   0.439
  439TIP3    H1 1281   5.079   2.501   0.408
  439TIP3    H2 1282   4.941   2.444   0.381
  440TIP3   OH2 1283   1.807   1.862   1.509
  440TIP3    H1 1284   1.800   1.953   1.537
  440TIP3    H2 1285   1.855   1.819   1.579
  441TIP3   OH2 1286   2.154   2.236   3.046
  441TIP3    H1 1287   2.202   2.275   2.973
  441TIP3    H2 1288   2.075   2.289   3.055
  442TIP3   OH2 1289   6.646   3.932   2.028
  442TIP3    H1 1290   6.589   3.944   1.952
  442TIP3    H2 1291   6.588   3.900   2.097
  443TIP3   OH2 1292   5.014   4.527   1.739
  443TIP3    H1 1293   4.986   4.457   1.680
  443TIP3    H2 1294   4.991   4.608   1.693
  444TIP3   OH2 1295   6.820   3.708   3.175
  444TIP3    H1 1296   6.766   3.715   3.254
  444TIP3    H2 1297   6.876   3.786   3.178
  445TIP3   OH2 1298   4.670   6.361   4.908
  445TIP3    H1 1299   4.685   6.436   4.850
  445TIP3    H2 1300   4.758   6.333   4.934
  446TIP3   OH2 1301   4.302   6.205   2.853
  446TIP3    H1 1302   4.341   6.267   2.915
  446TIP3    H2 1303   4.213   6.236   2.840
  447TIP3   OH2 1304   6.388   4.494   4.634
  447TIP3    H1 1305   6.316   4.554   4.612
  447TIP3    H2 1306   6.355   4.407   4.612
  448TIP3   OH2 1307   6.472   6.530   2.377
  448TIP3    H1 1308   6.547   6.586   2.358
  448TIP3    H2 1309   6.396   6.581   2.348
  449TIP3   OH2 1310   6.566   0.155   0.948
  449TIP3    H1 1311   6.599   0.107   0.873
  449TIP3    H2 1312   6.640   0.160   1.008
  450TIP3   OH2 1313   0.096  -0.001   2.027
  450TIP3    H1 1314   0.042  -0.080   2.036
  450TIP3    H2 1315   0.035   0.067   2.000
  451TIP3   OH2 1316   1.295   5.632   1.305
  451TIP3    H1 1317   1.221   5.572   1.310
  451TIP3    H2 1318   1.364   5.582   1.263
  452TIP3   OH2 1319   2.030   6.758   3.643
  452TIP3    H1 1320   2.034   6.778   3.550
  452TIP3    H2 1321   1.937   6.758   3.664
  453TIP3   OH2 1322   6.390   0.714   2.900
  453TIP3    H1 1323   6.354   0.778   2.961
  453TIP3    H2 1324   6.318   0.654   2.881
  454TIP3   OH2 1325   1.853   3.154   0.442
  454TIP3    H1 1326   1.843   3.221   0.510
  454TIP3    H2 1327   1.860   3.072   0.490
  455TIP3   OH2 1328   4.052   4.757   4.522
  455TIP3    H1 1329   4.146   4.770   4.537
  455TIP3    H2 1330   4.010   4.798   4.598
  456TIP3   OH2 1331   4.133   6.217   3.310
  456TIP3    H1 1332   4.103   6.247   3.396
  456TIP3    H2 1333   4.073   6.258   3.248
  457TIP3   OH2 1334   3.717   1.360   3.671
  457TIP3    H1 1335   3.650   1.347   3.604
  457TIP3    H2 1336   3.713   1.454   3.691
  458TIP3   OH2 1337   0.343   2.171   0.599
  458TIP3    H1 1338   0.314   2.083   0.621
  458TIP3    H2 1339   0.430   2.159   0.560
  459TIP3   OH2 1340   6.294   6.271   3.684
  459TIP3    H1 1341   6.215   6.229   3.648
  459TIP3    H2 1342   6.343   6.199   3.724
  460TIP3   OH2 1343   2.312   2.555   4.650
  460TIP3    H1 1344   2.349   2.577   4.735
  460TIP3    H2 1345   2.360   2.610   4.588
  461TIP3   OH2 1346   2.139   0.352   1.730
  461TIP3    H1 1347   2.220   0.397   1.753
  461TIP3    H2 1348   2.158   0.307   1.648
  462TIP3   OH2 1349   1.712   6.104   4.831
  462TIP3    H1 1350   1.639   6.116   4.891
  462TIP3    H2 1351   1.679   6.043   4.765
  463TIP3   OH2 1352   2.285   6.513   2.524
  463TIP3    H1 1353   2.196   6.479   2.517
  463TIP3    H2 1354   2.341   6.439   2.503
  464TIP3   OH2 1355   2.193   6.705   5.325
  464TIP3    H1 1356   2.117   6.761   5.338
  464TIP3    H2 1357   2.184   6.636   5.392
  465TIP3   OH2 1358   3.917   3.751   4.798
  465TIP3    H1 1359   3.853   3.680   4.801
  465TIP3    H2 1360   3.881   3.818   4.857
  466TIP3   OH2 1361   0.058   2.592   1.602
  466TIP3    H1 1362   0.024   2.648   1.672
  466TIP3    H2 1363   0.148   2.574   1.628
  467TIP3   OH2 1364   5.532   6.536   3.378
  467TIP3    H1 1365   5.494   6.451   3.397
  467TIP3    H2 1366   5.623   6.517   3.354
  468TIP3   OH2 1367   2.217   4.032   0.518
  468TIP3    H1 1368   2.259   3.947   0.526
  468TIP3    H2 1369   2.196   4.040   0.425
  469TIP3   OH2 1370   4.845   5.242   5.139
  469TIP3    H1 1371   4.770   5.302   5.133
  469TIP3    H2 1372   4.919   5.292   5.105
  470TIP3   OH2 1373   0.613   1.933   1.892
  470TIP3    H1 1374   0.641   1.845   1.916
  470TIP3    H2 1375   0.530   1.946   1.939
  471TIP3   OH2 1376   0.805   0.452   3.424
  471TIP3    H1 1377   0.721   0.408   3.439
  471TIP3    H2 1378   0.794   0.538   3.464
  472TIP3   OH2 1379   5.867   5.692   4.420
  472TIP3    H1 1380   5.787   5.743   4.407
  472TIP3    H2 1381   5.850   5.641   4.499
  473TIP3   OH2 1382   4.422   5.927   1.668
  473TIP3    H1 1383   4.326   5.924   1.673
  473TIP3    H2 1384   4.452   5.916   1.758
  474TIP3   OH2 1385   5.468   4.867   3.692
  474TIP3    H1 1386   5.456   4.961   3.685
  474TIP3    H2 1387   5.404   4.830   3.632
  475TIP3   OH2 1388   2.801   1.754   3.198
  475TIP3    H1 1389   2.814   1.818   3.127
  475TIP3    H2 1390   2.889   1.732   3.227
  476TIP3   OH2 1391   5.177   0.183   5.623
  476TIP3    H1 1392   5.258   0.151   5.584
  476TIP3    H2 1393   5.125   0.212   5.548
  477TIP3   OH2 1394   4.712   5.766   4.218
  477TIP3    H1 1395   4.639   5.828   4.218
  477TIP3    H2 1396   4.673   5.682   4.192
  478TIP3   OH2 1397   3.459   0.680   0.884
  478TIP3    H1 1398   3.387   0.691   0.822
  478TIP3    H2 1399   3.525   0.632   0.834
  479TIP3   OH2 1400   2.027   3.802   5.259
  479TIP3    H1 1401   2.019   3.768   5.348
  479TIP3    H2 1402   2.112   3.846   5.258
  480TIP3   OH2 1403   0.354   1.267   3.926
  480TIP3    H1 1404   0.332   1.191   3.979
  480TIP3    H2 1405   0.382   1.333   3.989
  481TIP3   OH2 1406   6.822   0.022   3.371
  481TIP3    H1 1407   6.849   0.068   3.451
  481TIP3    H2 1408   6.730   0.000   3.386
  482TIP3   OH2 1409   5.037   6.451   1.352
  482TIP3    H1 1410   4.987   6.480   1.428
  482TIP3    H2 1411   5.096   6.524   1.334
  483TIP3   OH2 1412   1.480   1.501   3.943
  483TIP3    H1 1413   1.547   1.562   3.913
  483TIP3    H2 1414   1.459   1.448   3.866
  484TIP3   OH2 1415   4.169   5.129   0.768
  484TIP3    H1 1416   4.206   5.159   0.851
  484TIP3    H2 1417   4.117   5.203   0.736
  485TIP3   OH2 1418   2.508   4.273   4.113
  485TIP3    H1 1419   2.578   4.334   4.089
  485TIP3    H2 1420   2.430   4.306   4.067
  486TIP3   OH2 1421   5.989   6.163   5.696
  486TIP3    H1 1422   6.074   6.128   5.723
  486TIP3    H2 1423   5.929   6.137   5.765
  487TIP3   OH2 1424   1.414   4.619   3.700
  487TIP3    H1 1425   1.498   4.575   3.688
  487TIP3    H2 1426   1.418   4.694   3.641
  488TIP3   OH2 1427   0.330   2.637   3.949
  488TIP3    H1 1428   0.367   2.725   3.960
  488TIP3    H2 1429   0.381   2.582   4.008
  489TIP3   OH2 1430   1.791   3.129   4.048
  489TIP3    H1 1431   1.816   3.218   4.023
  489TIP3    H2 1432   1.809   3.076   3.970
  490TIP3   OH2 1433   2.844   6.492   5.696
  490TIP3    H1 1434   2.764   6.445   5.671
  490TIP3    H2 1435   2.913   6.452   5.643
  491TIP3   OH2 1436   4.301   4.398   4.706
  491TIP3    H1 1437   4.362   4.337   4.747
  491TIP3    H2 1438   4.282   4.463   4.774
  492TIP3   OH2 1439   1.784   4.439  -0.008
  492TIP3    H1 1440   1.762   4.469   0.080
  492TIP3    H2 1441   1.769   4.515  -0.065
  493TIP3   OH2 1442   4.705   2.652   3.975
  493TIP3    H1 1443   4.721   2.655   4.070
  493TIP3    H2 1444   4.748   2.731   3.941
  494TIP3   OH2 1445   2.121   0.236   4.548
  494TIP3    H1 1446   2.168   0.154   4.564
  494TIP3    H2 1447   2.103   0.236   4.454
  495TIP3   OH2 1448   2.825   2.136   0.793
  495TIP3    H1 1449   2.751   2.157   0.736
  495TIP3    H2 1450   2.795   2.161   0.881
  496TIP3   OH2 1451   4.528   3.301   3.062
  496TIP3    H1 1452   4.605   3.277   3.115
  496TIP3    H2 1453   4.494   3.217   3.030
  497TIP3   OH2 1454   5.478  -0.017   5.144
  497TIP3    H1 1455   5.568  -0.025   5.111
  497TIP3    H2 1456   5.441   0.057   5.096
  498TIP3   OH2 1457   2.136   4.520   3.582
  498TIP3    H1 1458   2.145   4.569   3.501
  498TIP3    H2 1459   2.110   4.585   3.647
  499TIP3   OH2 1460   6.777   2.575   4.718
  499TIP3    H1 1461   6.819   2.583   4.632
  499TIP3    H2 1462   6.705   2.514   4.703
  500TIP3   OH2 1463   0.082   1.059   5.402
  500TIP3    H1 1464   0.043   1.106   5.476
  500TIP3    H2 1465   0.142   1.123   5.362
  501TIP3   OH2 1466   1.797   2.793   4.098
  501TIP3    H1 1467   1.760   2.705   4.100
  501TIP3    H2 1468   1.804   2.819   4.190
  502TIP3   OH2 1469   0.429   6.561   2.462
  502TIP3    H1 1470   0.501   6.550   2.399
  502TIP3    H2 1471   0.457   6.633   2.518
  503TIP3   OH2 1472   3.680   3.426   5.837
  503TIP3    H1 1473   3.647   3.348   5.880
  503TIP3    H2 1474   3.602   3.472   5.806
  504TIP3   OH2 1475   5.644   1.702   4.228
  504TIP3    H1 1476   5.704   1.661   4.290
  504TIP3    H2 1477   5.670   1.794   4.227
  505TIP3   OH2 1478   5.275   6.735   3.790
  505TIP3    H1 1479   5.291   6.762   3.880
  505TIP3    H2 1480   5.210   6.665   3.797
  506TIP3   OH2 1481   0.228   4.520   2.112
  506TIP3    H1 1482   0.186   4.435   2.124
  506TIP3    H2 1483   0.255   4.521   2.021
  507TIP3   OH2 1484   4.556   3.952   0.404
  507TIP3    H1 1485   4.470   3.921   0.376
  507TIP3    H2 1486   4.546   3.966   0.498
  508TIP3   OH2 1487   0.342   1.932   1.978
  508TIP3    H1 1488   0.303   1.885   1.904
  508TIP3    H2 1489   0.267   1.970   2.024
  509TIP3   OH2 1490   5.105   6.221   1.612
  509TIP3    H1 1491   5.012   6.233   1.628
  509TIP3    H2 1492   5.139   6.310   1.598
  510TIP3   OH2 1493   3.871   4.544   4.677
  510TIP3    H1 1494   3.860   4.614   4.613
  510TIP3    H2 1495   3.918   4.475   4.630
  511TIP3   OH2 1496   6.375   4.598   0.694
  511TIP3    H1 1497   6.280   4.612   0.696
  511TIP3    H2 1498   6.393   4.567   0.604
  512TIP3   OH2 1499   2.292   6.424   4.626
  512TIP3    H1 1500   2.245   6.389   4.551
  512TIP3    H2 1501   2.257   6.377   4.702
  513TIP3   OH2 1502   5.030   2.761   5.244
  513TIP3    H1 1503   4.997   2.793   5.328
  513TIP3    H2 1504   5.056   2.839   5.196
  514TIP3   OH2 1505   5.967   3.459   5.079
  514TIP3    H1 1506   5.971   3.468   4.984
  514TIP3    H2 1507   5.878   3.485   5.102
  515TIP3   OH2 1508   4.489   3.028   1.453
  515TIP3    H1 1509   4.489   3.121   1.474
  515TIP3    H2 1510   4.553   2.990   1.513
  516TIP3   OH2 1511   0.268   5.768   3.108
  516TIP3    H1 1512   0.328   5.830   3.150
  516TIP3    H2 1513   0.324   5.719   3.047
  517TIP3   OH2 1514   2.835   3.575   2.296
  517TIP3    H1 1515   2.739   3.578   2.297
  517TIP3    H2 1516   2.858   3.525   2.374
  518TIP3   OH2 1517   6.725   5.329   4.123
  518TIP3    H1 1518   6.731   5.392   4.051
  518TIP3    H2 1519   6.631   5.312   4.132
  519TIP3   OH2 1520   6.513   2.903   4.957
  519TIP3    H1 1521   6.560   2.953   4.890
  519TIP3    H2 1522   6.500   2.817   4.917
  520TIP3   OH2 1523   3.291   6.069   4.837
  520TIP3    H1 1524   3.285   5.980   4.802
  520TIP3    H2 1525   3.201   6.092   4.858
  521TIP3   OH2 1526   0.266   6.107   0.238
  521TIP3    H1 1527   0.281   6.113   0.143
  521TIP3    H2 1528   0.348   6.070   0.272
  522TIP3   OH2 1529   0.101   4.807   3.899
  522TIP3    H1 1530   0.018   4.778   3.937
  522TIP3    H2 1531   0.149   4.845   3.972
  523TIP3   OH2 1532   2.699   1.611   5.727
  523TIP3    H1 1533   2.705   1.644   5.817
  523TIP3    H2 1534   2.731   1.521   5.732
  524TIP3   OH2 1535   3.523   6.820   0.752
  524TIP3    H1 1536   3.448   6.814   0.811
  524TIP3    H2 1537   3.485   6.846   0.668
  525TIP3   OH2 1538   1.065   4.710   4.571
  525TIP3    H1 1539   1.072   4.784   4.631
  525TIP3    H2 1540   0.972   4.708   4.546
  526TIP3   OH2 1541   2.137   3.531   3.296
  526TIP3    H1 1542   2.165   3.592   3.364
  526TIP3    H2 1543   2.210   3.530   3.233
  527TIP3   OH2 1544   3.486   5.217   1.274
  527TIP3    H1 1545   3.468   5.134   1.228
  527TIP3    H2 1546   3.557   5.257   1.224
  528TIP3   OH2 1547   2.617   2.912   3.351
  528TIP3    H1 1548   2.644   2.829   3.311
  528TIP3    H2 1549   2.522   2.913   3.340
  529TIP3   OH2 1550   2.838   2.212   5.274
  529TIP3    H1 1551   2.748   2.213   5.309
  529TIP3    H2 1552   2.892   2.239   5.348
  530TIP3   OH2 1553   4.631   3.091   2.218
  530TIP3    H1 1554   4.569   3.069   2.288
  530TIP3    H2 1555   4.584   3.153   2.163
  531TIP3   OH2 1556   5.821   3.237   5.831
  531TIP3    H1 1557   5.842   3.249   5.923
  531TIP3    H2 1558   5.762   3.161   5.830
  532TIP3   OH2 1559   1.493   4.079   4.717
  532TIP3    H1 1560   1.404   4.047   4.730
  532TIP3    H2 1561   1.542   4.002   4.688
  533TIP3   OH2 1562   5.232   2.184   5.303
  533TIP3    H1 1563   5.267   2.273   5.293
  533TIP3    H2 1564   5.253   2.160   5.393
  534TIP3   OH2 1565   0.568   1.429   3.447
  534TIP3    H1 1566   0.553   1.404   3.538
  534TIP3    H2 1567   0.495   1.487   3.426
  535TIP3   OH2 1568   5.604   3.565   4.842
  535TIP3    H1 1569   5.662   3.497   4.876
  535TIP3    H2 1570   5.655   3.608   4.773
  536TIP3   OH2 1571   4.161   5.795   1.142
  536TIP3    H1 1572   4.084   5.818   1.090
  536TIP3    H2 1573   4.132   5.803   1.233
  537TIP3   OH2 1574   5.019   2.017   1.483
  537TIP3    H1 1575   4.946   2.078   1.494
  537TIP3    H2 1576   5.087   2.051   1.541
  538TIP3   OH2 1577   3.041   0.358   1.246
  538TIP3    H1 1578   2.958   0.376   1.289
  538TIP3    H2 1579   3.019   0.298   1.175
  539TIP3   OH2 1580   6.806   5.265   4.614
  539TIP3    H1 1581   6.867   5.333   4.587
  539TIP3    H2 1582   6.860   5.202   4.662
  540TIP3   OH2 1583   2.044   3.951   0.731
  540TIP3    H1 1584   2.092   3.875   0.763
  540TIP3    H2 1585   2.099   3.988   0.663
  541TIP3   OH2 1586   6.490   1.141   3.107
  541TIP3    H1 1587   6.447   1.220   3.071
  541TIP3    H2 1588   6.582   1.166   3.115
  542TIP3   OH2 1589   4.012   4.254   1.130
  542TIP3    H1 1590   4.069   4.238   1.205
  542TIP3    H2 1591   4.047   4.333   1.089
  543TIP3   OH2 1592   0.937   4.360   0.898
  543TIP3    H1 1593   1.033   4.369   0.898
  543TIP3    H2 1594   0.909   4.407   0.976
  544TIP3   OH2 1595   2.729   6.425   0.255
  544TIP3    H1 1596   2.753   6.365   0.326
  544TIP3    H2 1597   2.723   6.369   0.177
  545TIP3   OH2 1598   4.763   5.087   0.801
  545TIP3    H1 1599   4.675   5.107   0.768
  545TIP3    H2 1600   4.821   5.141   0.748
  546TIP3   OH2 1601   3.865   0.856   5.766
  546TIP3    H1 1602   3.833   0.903   5.689
  546TIP3    H2 1603   3.869   0.764   5.738
  547TIP3   OH2 1604   3.815   1.845   3.922
  547TIP3    H1 1605   3.888   1.812   3.973
  547TIP3    H2 1606   3.790   1.927   3.965
  548TIP3   OH2 1607   2.789   4.016   2.144
  548TIP3    H1 1608   2.769   3.935   2.096
  548TIP3    H2 1609   2.746   4.005   2.229
  549TIP3   OH2 1610   0.047   1.379   2.178
  549TIP3    H1 1611  -0.018   1.447   2.196
  549TIP3    H2 1612   0.001   1.297   2.194
  550TIP3   OH2 1613   2.751   0.174   2.661
  550TIP3    H1 1614   2.812   0.242   2.691
  550TIP3    H2 1615   2.745   0.114   2.735
  551TIP3   OH2 1616   6.793   3.644   0.959
  551TIP3    H1 1617   6.753   3.726   0.931
  551TIP3    H2 1618   6.887   3.661   0.958
  552TIP3   OH2 1619   2.708   0.561   4.110
  552TIP3    H1 1620   2.751   0.647   4.110
  552TIP3    H2 1621   2.665   0.556   4.025
  553TIP3   OH2 1622   1.084   4.970   0.342
  553TIP3    H1 1623   1.050   4.966   0.431
  553TIP3    H2 1624   1.030   5.037   0.299
  554TIP3   OH2 1625   3.027   1.583   4.955
  554TIP3    H1 1626   3.000   1.666   4.993
  554TIP3    H2 1627   2.946   1.534   4.944
  555TIP3   OH2 1628   5.718   5.312   3.186
  555TIP3    H1 1629   5.642   5.370   3.187
  555TIP3    H2 1630   5.684   5.228   3.217
  556TIP3   OH2 1631   0.539   3.477   1.256
  556TIP3    H1 1632   0.607   3.474   1.188
  556TIP3    H2 1633   0.538   3.569   1.284
  557TIP3   OH2 1634   4.977   1.123   5.489
  557TIP3    H1 1635   4.895   1.169   5.507
  557TIP3    H2 1636   4.954   1.062   5.418
  558TIP3   OH2 1637   5.025   1.071   2.755
  558TIP3    H1 1638   5.010   0.999   2.816
  558TIP3    H2 1639   4.948   1.128   2.766
  559TIP3   OH2 1640   1.797   5.714   3.992
  559TIP3    H1 1641   1.861   5.776   4.026
  559TIP3    H2 1642   1.849   5.648   3.945
  560TIP3   OH2 1643   4.139   3.988   0.591
  560TIP3    H1 1644   4.129   4.007   0.498
  560TIP3    H2 1645   4.131   3.893   0.598
  561TIP3   OH2 1646   3.782   2.060   2.612
  561TIP3    H1 1647   3.776   1.987   2.674
  561TIP3    H2 1648   3.867   2.098   2.628
  562TIP3   OH2 1649   5.435   3.359   1.635
  562TIP3    H1 1650   5.462   3.451   1.634
  562TIP3    H2 1651   5.434   3.334   1.542
  563TIP3   OH2 1652   5.777   5.873   5.494
  563TIP3    H1 1653   5.726   5.935   5.442
  563TIP3    H2 1654   5.732   5.790   5.483
  564TIP3   OH2 1655   0.249   2.911   3.908
  564TIP3    H1 1656   0.328   2.942   3.865
  564TIP3    H2 1657   0.197   2.873   3.837
  565TIP3   OH2 1658   2.957   0.740   0.818
  565TIP3    H1 1659   2.953   0.713   0.727
  565TIP3    H2 1660   2.945   0.835   0.816
  566TIP3   OH2 1661   3.573   0.251   2.304
  566TIP3    H1 1662   3.616   0.237   2.220
  566TIP3    H2 1663   3.604   0.179   2.359
  567TIP3   OH2 1664   3.878   1.057   1.265
  567TIP3    H1 1665   3.893   1.148   1.289
  567TIP3    H2 1666   3.872   1.058   1.170
  568TIP3   OH2 1667   0.526   6.237   1.687
  568TIP3    H1 1668   0.464   6.252   1.758
  568TIP3    H2 1669   0.581   6.165   1.718
  569TIP3   OH2 1670   2.280   5.322   5.335
  569TIP3    H1 1671   2.370   5.295   5.348
  569TIP3    H2 1672   2.272   5.337   5.240
  570TIP3   OH2 1673   0.000   3.303   1.921
  570TIP3    H1 1674  -0.013   3.396   1.901
  570TIP3    H2 1675   0.045   3.268   1.843
  571TIP3   OH2 1676   0.455   6.046   4.100
  571TIP3    H1 1677   0.539   6.050   4.146
  571TIP3    H2 1678   0.391   6.029   4.169
  572TIP3   OH2 1679   1.004   5.229   4.955
  572TIP3    H1 1680   1.097   5.236   4.935
  572TIP3    H2 1681   0.989   5.135   4.968
  573TIP3   OH2 1682   1.428   4.033   5.113
  573TIP3    H1 1683   1.469   3.947   5.101
  573TIP3    H2 1684   1.409   4.037   5.207
  574TIP3   OH2 1685   0.124   1.029   0.354
  574TIP3    H1 1686   0.176   1.088   0.409
  574TIP3    H2 1687   0.040   1.021   0.399
  575TIP3   OH2 1688   0.569   1.044   3.639
  575TIP3    H1 1689   0.536   1.018   3.725
  575TIP3    H2 1690   0.569   1.140   3.641
  576TIP3   OH2 1691   2.538   1.296   1.768
  576TIP3    H1 1692   2.484   1.228   1.727
  576TIP3    H2 1693   2.593   1.248   1.830
  577TIP3   OH2 1694   4.705   4.170   3.984
  577TIP3    H1 1695   4.677   4.079   3.968
  577TIP3    H2 1696   4.692   4.213   3.899
  578TIP3   OH2 1697   6.099   4.307   4.649
  578TIP3    H1 1698   6.038   4.233   4.644
  578TIP3    H2 1699   6.083   4.356   4.569
  579TIP3   OH2 1700   2.894   2.601   0.287
  579TIP3    H1 1701   2.815   2.649   0.311
  579TIP3    H2 1702   2.866   2.510   0.277
  580TIP3   OH2 1703   5.374   5.942   5.109
  580TIP3    H1 1704   5.392   5.903   5.023
  580TIP3    H2 1705   5.430   6.019   5.112
  581TIP3   OH2 1706   5.126   5.570   0.840
  581TIP3    H1 1707   5.215   5.552   0.810
  581TIP3    H2 1708   5.086   5.618   0.768
  582TIP3   OH2 1709   5.192   0.461   3.789
  582TIP3    H1 1710   5.217   0.413   3.868
  582TIP3    H2 1711   5.161   0.394   3.729
  583TIP3   OH2 1712   5.829   5.012   0.106
  583TIP3    H1 1713   5.918   4.993   0.134
  583TIP3    H2 1714   5.835   5.022   0.011
  584TIP3   OH2 1715   6.346   3.828   4.839
  584TIP3    H1 1716   6.331   3.832   4.744
  584TIP3    H2 1717   6.260   3.847   4.877
  585TIP3   OH2 1718   4.183   4.311   2.176
  585TIP3    H1 1719   4.175   4.399   2.214
  585TIP3    H2 1720   4.186   4.326   2.081
  586TIP3   OH2 1721   4.276   1.069   4.735
  586TIP3    H1 1722   4.218   1.115   4.674
  586TIP3    H2 1723   4.286   1.130   4.808
  587TIP3   OH2 1724   3.275   3.772   3.850
  587TIP3    H1 1725   3.321   3.691   3.831
  587TIP3    H2 1726   3.182   3.750   3.842
  588TIP3   OH2 1727   3.133   3.326   3.746
  588TIP3    H1 1728   3.134   3.321   3.841
  588TIP3    H2 1729   3.106   3.415   3.726
  589TIP3   OH2 1730   2.523   2.043   0.332
  589TIP3    H1 1731   2.519   2.089   0.416
  589TIP3    H2 1732   2.431   2.026   0.309
  590TIP3   OH2 1733   5.404   3.175   4.218
  590TIP3    H1 1734   5.484   3.136   4.252
  590TIP3    H2 1735   5.343   3.174   4.291
  591TIP3   OH2 1736   4.305   1.671   1.960
  591TIP3    H1 1737   4.274   1.711   1.879
  591TIP3    H2 1738   4.374   1.611   1.933
  592TIP3   OH2 1739   5.176   2.151   1.187
  592TIP3    H1 1740   5.093   2.110   1.214
  592TIP3    H2 1741   5.152   2.208   1.114
  593TIP3   OH2 1742   0.700   1.609   0.766
  593TIP3    H1 1743   0.691   1.525   0.810
  593TIP3    H2 1744   0.611   1.639   0.752
  594TIP3   OH2 1745   6.591   2.858   2.683
  594TIP3    H1 1746   6.633   2.904   2.611
  594TIP3    H2 1747   6.559   2.927   2.740
  595TIP3   OH2 1748   3.939   5.893   4.886
  595TIP3    H1 1749   3.853   5.888   4.927
  595TIP3    H2 1750   3.957   5.803   4.858
  596TIP3   OH2 1751   3.932   0.451   3.825
  596TIP3    H1 1752   3.963   0.405   3.747
  596TIP3    H2 1753   3.853   0.404   3.850
  597TIP3   OH2 1754   5.838   3.107   4.686
  597TIP3    H1 1755   5.865   3.115   4.595
  597TIP3    H2 1756   5.913   3.139   4.736
  598TIP3   OH2 1757   6.906   4.686   4.357
  598TIP3    H1 1758   6.920   4.743   4.432
  598TIP3    H2 1759   6.953   4.606   4.377
  599TIP3   OH2 1760   5.963   3.892   3.984
  599TIP3    H1 1761   5.901   3.956   3.950
  599TIP3    H2 1762   5.925   3.807   3.962
  600TIP3   OH2 1763   1.263   3.610   2.708
  600TIP3    H1 1764   1.175   3.582   2.732
  600TIP3    H2 1765   1.250   3.664   2.629
  601TIP3   OH2 1766   4.852   3.252   2.740
  601TIP3    H1 1767   4.909   3.201   2.683
  601TIP3    H2 1768   4.763   3.224   2.716
  602TIP3   OH2 1769   0.725   6.335   2.159
  602TIP3    H1 1770   0.734   6.251   2.204
  602TIP3    H2 1771   0.747   6.316   2.068
  603TIP3   OH2 1772   3.884   2.124   3.466
  603TIP3    H1 1773   3.849   2.092   3.549
  603TIP3    H2 1774   3.904   2.216   3.482
  604TIP3   OH2 1775   5.589   3.547   1.481
  604TIP3    H1 1776   5.533   3.624   1.468
  604TIP3    H2 1777   5.641   3.541   1.400
  605TIP3   OH2 1778   1.765   2.462   0.200
  605TIP3    H1 1779   1.704   2.389   0.187
  605TIP3    H2 1780   1.743   2.496   0.287
  606TIP3   OH2 1781   4.971   3.055   4.142
  606TIP3    H1 1782   5.011   2.969   4.161
  606TIP3    H2 1783   5.044   3.108   4.110
  607TIP3   OH2 1784   6.426   2.685   2.543
  607TIP3    H1 1785   6.335   2.706   2.564
  607TIP3    H2 1786   6.478   2.745   2.596
  608TIP3   OH2 1787   6.565   0.003   4.100
  608TIP3    H1 1788   6.485  -0.046   4.080
  608TIP3    H2 1789   6.535   0.091   4.122
  609TIP3   OH2 1790   5.957   3.603   4.402
  609TIP3    H1 1791   5.993   3.523   4.441
  609TIP3    H2 1792   5.886   3.573   4.346
  610TIP3   OH2 1793   2.946   1.944   3.030
  610TIP3    H1 1794   3.001   1.989   2.966
  610TIP3    H2 1795   2.912   2.015   3.085
  611TIP3   OH2 1796   0.962   4.471   5.248
  611TIP3    H1 1797   0.911   4.494   5.325
  611TIP3    H2 1798   1.053   4.465   5.279
  612TIP3   OH2 1799   4.380   2.140   0.518
  612TIP3    H1 1800   4.308   2.160   0.458
  612TIP3    H2 1801   4.413   2.055   0.488
  613TIP3   OH2 1802   5.908   0.793   3.036
  613TIP3    H1 1803   5.947   0.869   3.079
  613TIP3    H2 1804   5.955   0.718   3.073
  614TIP3   OH2 1805   5.156   0.931   0.890
  614TIP3    H1 1806   5.130   1.008   0.941
  614TIP3    H2 1807   5.215   0.964   0.824
  615TIP3   OH2 1808   6.998   5.852   2.744
  615TIP3    H1 1809   7.040   5.773   2.780
  615TIP3    H2 1810   6.905   5.841   2.765
  616TIP3   OH2 1811   0.253   5.041   0.419
  616TIP3    H1 1812   0.289   4.956   0.444
  616TIP3    H2 1813   0.253   5.040   0.323
  617TIP3   OH2 1814   4.343   1.144   2.134
  617TIP3    H1 1815   4.407   1.135   2.204
  617TIP3    H2 1816   4.304   1.057   2.125
  618TIP3   OH2 1817   0.521   4.789   1.414
  618TIP3    H1 1818   0.457   4.718   1.408
  618TIP3    H2 1819   0.469   4.867   1.432
  619TIP3   OH2 1820   4.488   0.307   3.578
  619TIP3    H1 1821   4.544   0.375   3.540
  619TIP3    H2 1822   4.546   0.231   3.588
  620TIP3   OH2 1823   7.113   3.517   5.119
  620TIP3    H1 1824   7.116   3.593   5.061
  620TIP3    H2 1825   7.024   3.484   5.110
  621TIP3   OH2 1826   1.305   3.050   5.516
  621TIP3    H1 1827   1.305   3.023   5.424
  621TIP3    H2 1828   1.398   3.056   5.539
  622TIP3   OH2 1829   6.206   1.586   0.475
  622TIP3    H1 1830   6.165   1.557   0.557
  622TIP3    H2 1831   6.135   1.585   0.411
  623TIP3   OH2 1832   2.161   4.743   3.419
  623TIP3    H1 1833   2.188   4.714   3.332
  623TIP3    H2 1834   2.133   4.834   3.406
  624TIP3   OH2 1835   4.212   1.039   2.861
  624TIP3    H1 1836   4.288   0.988   2.888
  624TIP3    H2 1837   4.236   1.130   2.881
  625TIP3   OH2 1838   4.260   1.778   0.701
  625TIP3    H1 1839   4.251   1.843   0.771
  625TIP3    H2 1840   4.211   1.815   0.628
  626TIP3   OH2 1841   0.255   1.352   3.487
  626TIP3    H1 1842   0.268   1.444   3.462
  626TIP3    H2 1843   0.223   1.356   3.577
  627TIP3   OH2 1844   1.823   3.012   5.733
  627TIP3    H1 1845   1.773   2.938   5.765
  627TIP3    H2 1846   1.879   3.037   5.806
  628TIP3   OH2 1847   5.582   4.393   4.931
  628TIP3    H1 1848   5.632   4.452   4.873
  628TIP3    H2 1849   5.493   4.430   4.931
  629TIP3   OH2 1850   1.544   5.008   4.988
  629TIP3    H1 1851   1.548   5.104   4.990
  629TIP3    H2 1852   1.616   4.983   4.931
  630TIP3   OH2 1853   1.383   0.615   2.311
  630TIP3    H1 1854   1.447   0.614   2.382
  630TIP3    H2 1855   1.427   0.570   2.239
  631TIP3   OH2 1856   0.915   2.923   5.243
  631TIP3    H1 1857   0.897   2.859   5.174
  631TIP3    H2 1858   0.835   2.927   5.294
  632TIP3   OH2 1859   1.608   2.802   1.436
  632TIP3    H1 1860   1.663   2.725   1.425
  632TIP3    H2 1861   1.621   2.852   1.355
  633TIP3   OH2 1862   2.367   4.981   0.109
  633TIP3    H1 1863   2.332   4.936   0.186
  633TIP3    H2 1864   2.432   4.920   0.074
  634TIP3   OH2 1865   2.524   0.155   4.576
  634TIP3    H1 1866   2.465   0.184   4.645
  634TIP3    H2 1867   2.527   0.060   4.584
  635TIP3   OH2 1868   3.941   4.699   5.211
  635TIP3    H1 1869   4.035   4.691   5.195
  635TIP3    H2 1870   3.903   4.720   5.126
  636TIP3   OH2 1871   4.530   2.613   5.176
  636TIP3    H1 1872   4.623   2.593   5.178
  636TIP3    H2 1873   4.487   2.530   5.197
  637TIP3   OH2 1874   5.386   4.966   3.382
  637TIP3    H1 1875   5.385   4.893   3.321
  637TIP3    H2 1876   5.320   5.027   3.349
  638TIP3   OH2 1877   1.392   6.757   0.678
  638TIP3    H1 1878   1.319   6.759   0.617
  638TIP3    H2 1879   1.434   6.842   0.669
  639TIP3   OH2 1880   3.766   1.806   3.419
  639TIP3    H1 1881   3.735   1.842   3.502
  639TIP3    H2 1882   3.840   1.863   3.395
  640TIP3   OH2 1883   3.668   0.735   1.387
  640TIP3    H1 1884   3.687   0.688   1.306
  640TIP3    H2 1885   3.649   0.667   1.450
  641TIP3   OH2 1886   0.132   2.471   1.226
  641TIP3    H1 1887   0.173   2.546   1.269
  641TIP3    H2 1888   0.204   2.427   1.181
  642TIP3   OH2 1889   3.555   1.234   5.905
  642TIP3    H1 1890   3.617   1.304   5.925
  642TIP3    H2 1891   3.587   1.197   5.822
  643TIP3   OH2 1892   4.103   4.844   5.673
  643TIP3    H1 1893   4.104   4.935   5.702
  643TIP3    H2 1894   4.088   4.794   5.753
  644TIP3   OH2 1895   3.830   4.451   5.180
  644TIP3    H1 1896   3.878   4.442   5.098
  644TIP3    H2 1897   3.851   4.540   5.210
  645TIP3   OH2 1898   2.322   6.732   1.773
  645TIP3    H1 1899   2.328   6.801   1.707
  645TIP3    H2 1900   2.308   6.779   1.855
  646TIP3   OH2 1901   1.393   1.211   0.409
  646TIP3    H1 1902   1.314   1.158   0.418
  646TIP3    H2 1903   1.362   1.293   0.372
  647TIP3   OH2 1904   4.320   1.305   4.520
  647TIP3    H1 1905   4.229   1.276   4.515
  647TIP3    H2 1906   4.363   1.262   4.446
  648TIP3   OH2 1907   6.090   6.454   4.033
  648TIP3    H1 1908   6.182   6.480   4.036
  648TIP3    H2 1909   6.091   6.360   4.050
  649TIP3   OH2 1910   0.707   6.225   3.395
  649TIP3    H1 1911   0.736   6.135   3.380
  649TIP3    H2 1912   0.752   6.276   3.328
  650TIP3   OH2 1913   1.952   2.872   0.418
  650TIP3    H1 1914   2.044   2.848   0.406
  650TIP3    H2 1915   1.921   2.814   0.487
  651TIP3   OH2 1916   2.955   1.180   0.993
  651TIP3    H1 1917   3.045   1.206   1.012
  651TIP3    H2 1918   2.959   1.141   0.905
  652TIP3   OH2 1919   5.209   1.120   1.678
  652TIP3    H1 1920   5.280   1.066   1.643
  652TIP3    H2 1921   5.178   1.072   1.755
  653TIP3   OH2 1922   6.907   0.240   3.564
  653TIP3    H1 1923   6.934   0.252   3.655
  653TIP3    H2 1924   6.987   0.254   3.514
  654TIP3   OH2 1925   2.646   3.734   4.773
  654TIP3    H1 1926   2.712   3.712   4.708
  654TIP3    H2 1927   2.565   3.748   4.723
  655TIP3   OH2 1928   1.134   5.726   0.665
  655TIP3    H1 1929   1.054   5.715   0.716
  655TIP3    H2 1930   1.196   5.766   0.726
  656TIP3   OH2 1931   3.771   6.329   3.250
  656TIP3    H1 1932   3.727   6.245   3.260
  656TIP3    H2 1933   3.842   6.312   3.189
  657TIP3   OH2 1934   5.024   3.675   4.845
  657TIP3    H1 1935   4.994   3.668   4.755
  657TIP3    H2 1936   4.947   3.706   4.893
  658TIP3   OH2 1937   3.444   5.613   5.020
  658TIP3    H1 1938   3.448   5.520   4.994
  658TIP3    H2 1939   3.496   5.658   4.954
  659TIP3   OH2 1940   5.624   3.042   4.302
  659TIP3    H1 1941   5.608   2.960   4.256
  659TIP3    H2 1942   5.712   3.068   4.276
  660TIP3   OH2 1943   1.034   0.845   3.803
  660TIP3    H1 1944   1.125   0.869   3.784
  660TIP3    H2 1945   1.011   0.781   3.735
  661TIP3   OH2 1946   5.469   1.741   1.680
  661TIP3    H1 1947   5.480   1.674   1.612
  661TIP3    H2 1948   5.377   1.734   1.706
  662TIP3   OH2 1949   0.377   6.388   5.251
  662TIP3    H1 1950   0.448   6.419   5.195
  662TIP3    H2 1951   0.418   6.372   5.336
  663TIP3   OH2 1952   1.346   0.785   2.712
  663TIP3    H1 1953   1.404   0.849   2.755
  663TIP3    H2 1954   1.403   0.736   2.654
  664TIP3   OH2 1955   5.717   1.568   5.320
  664TIP3    H1 1956   5.630   1.594   5.289
  664TIP3    H2 1957   5.706   1.478   5.348
  665TIP3   OH2 1958   6.629   4.862   0.819
  665TIP3    H1 1959   6.543   4.904   0.821
  665TIP3    H2 1960   6.675   4.899   0.894
  666TIP3   OH2 1961   0.266   5.600   2.763
  666TIP3    H1 1962   0.233   5.661   2.697
  666TIP3    H2 1963   0.189   5.550   2.790
  667TIP3   OH2 1964   0.487   5.713   4.402
  667TIP3    H1 1965   0.517   5.701   4.312
  667TIP3    H2 1966   0.493   5.807   4.418
  668TIP3   OH2 1967   1.072   6.330   0.164
  668TIP3    H1 1968   1.146   6.304   0.220
  668TIP3    H2 1969   1.090   6.288   0.080
  669TIP3   OH2 1970   3.177   3.951   0.990
  669TIP3    H1 1971   3.083   3.962   0.974
  669TIP3    H2 1972   3.181   3.887   1.061
  670TIP3   OH2 1973   1.804   6.022   2.578
  670TIP3    H1 1974   1.830   6.090   2.516
  670TIP3    H2 1975   1.709   6.027   2.582
  671TIP3   OH2 1976   2.979   2.835   1.594
  671TIP3    H1 1977   2.912   2.767   1.599
  671TIP3    H2 1978   3.010   2.832   1.504
  672TIP3   OH2 1979   4.817   4.704   2.414
  672TIP3    H1 1980   4.772   4.789   2.421
  672TIP3    H2 1981   4.894   4.722   2.360
  673TIP3   OH2 1982   3.413   5.000   5.461
  673TIP3    H1 1983   3.364   4.954   5.530
  673TIP3    H2 1984   3.503   5.004   5.493
  674TIP3   OH2 1985   3.172   1.882   0.514
  674TIP3    H1 1986   3.120   1.874   0.434
  674TIP3    H2 1987   3.129   1.952   0.564
  675TIP3   OH2 1988   0.883   4.351   1.222
  675TIP3    H1 1989   0.949   4.310   1.277
  675TIP3    H2 1990   0.804   4.353   1.276
  676TIP3   OH2 1991   3.366   5.928   3.379
  676TIP3    H1 1992   3.332   6.016   3.366
  676TIP3    H2 1993   3.403   5.929   3.467
  677TIP3   OH2 1994   2.437   6.654   4.550
  677TIP3    H1 1995   2.506   6.611   4.500
  677TIP3    H2 1996   2.379   6.583   4.578
  678TIP3   OH2 1997   4.219   0.679   3.671
  678TIP3    H1 1998   4.255   0.625   3.601
  678TIP3    H2 1999   4.292   0.733   3.700
  679TIP3   OH2 2000   5.427   1.767   1.059
  679TIP3    H1 2001   5.338   1.800   1.068
  679TIP3    H2 2002   5.474   1.836   1.012
  680TIP3   OH2 2003   1.972   5.509   1.400
  680TIP3    H1 2004   2.047   5.564   1.375
  680TIP3    H2 2005   2.011   5.436   1.448
  681TIP3   OH2 2006   0.389   3.667   2.273
  681TIP3    H1 2007   0.460   3.699   2.329
  681TIP3    H2 2008   0.425   3.667   2.185
  682TIP3   OH2 2009   4.028   3.852   3.697
  682TIP3    H1 2010   3.960   3.882   3.636
  682TIP3    H2 2011   4.106   3.901   3.673
  683TIP3   OH2 2012   2.880   3.133   3.298
  683TIP3    H1 2013   2.824   3.202   3.263
  683TIP3    H2 2014   2.886   3.069   3.227
  684TIP3   OH2 2015   3.370   0.565   4.380
  684TIP3    H1 2016   3.309   0.606   4.318
  684TIP3    H2 2017   3.441   0.533   4.325
  685TIP3   OH2 2018   0.236   0.964   4.400
  685TIP3    H1 2019   0.273   0.900   4.340
  685TIP3    H2 2020   0.186   0.912   4.464
  686TIP3   OH2 2021   0.976   2.320   1.932
  686TIP3    H1 2022   1.047   2.327   1.868
  686TIP3    H2 2023   0.959   2.226   1.939
  687TIP3   OH2 2024   1.710   3.300   2.190
  687TIP3    H1 2025   1.671   3.354   2.121
  687TIP3    H2 2026   1.696   3.350   2.270
  688TIP3   OH2 2027   0.650   4.589   3.205
  688TIP3    H1 2028   0.725   4.541   3.240
  688TIP3    H2 2029   0.600   4.615   3.282
  689TIP3   OH2 2030   3.961   5.358   5.243
  689TIP3    H1 2031   3.875   5.334   5.210
  689TIP3    H2 2032   3.998   5.276   5.277
  690TIP3   OH2 2033   3.236   0.351   3.055
  690TIP3    H1 2034   3.158   0.342   3.109
  690TIP3    H2 2035   3.231   0.440   3.020
  691TIP3   OH2 2036   4.909   5.080   1.212
  691TIP3    H1 2037   5.001   5.054   1.204
  691TIP3    H2 2038   4.886   5.061   1.302
  692TIP3   OH2 2039   4.220   0.146   2.840
  692TIP3    H1 2040   4.264   0.163   2.923
  692TIP3    H2 2041   4.287   0.104   2.785
  693TIP3   OH2 2042   2.842   2.822   1.322
  693TIP3    H1 2043   2.801   2.846   1.406
  693TIP3    H2 2044   2.852   2.905   1.276
  694TIP3   OH2 2045   1.626   2.375   5.165
  694TIP3    H1 2046   1.699   2.431   5.138
  694TIP3    H2 2047   1.548   2.422   5.134
  695TIP3   OH2 2048   3.486   4.269   4.047
  695TIP3    H1 2049   3.497   4.357   4.010
  695TIP3    H2 2050   3.393   4.251   4.040
  696TIP3   OH2 2051   3.954   2.706   5.543
  696TIP3    H1 2052   3.883   2.671   5.489
  696TIP3    H2 2053   3.973   2.791   5.503
  697TIP3   OH2 2054   4.815   4.998   4.343
  697TIP3    H1 2055   4.806   5.004   4.438
  697TIP3    H2 2056   4.890   5.053   4.322
  698TIP3   OH2 2057   5.158   0.398   2.310
  698TIP3    H1 2058   5.117   0.312   2.315
  698TIP3    H2 2059   5.115   0.441   2.236
  699TIP3   OH2 2060   3.469   4.515   1.851
  699TIP3    H1 2061   3.432   4.464   1.923
  699TIP3    H2 2062   3.471   4.605   1.883
  700TIP3   OH2 2063   5.712   6.284   2.443
  700TIP3    H1 2064   5.712   6.348   2.372
  700TIP3    H2 2065   5.630   6.299   2.489
  701TIP3   OH2 2066   4.370   6.669   1.615
  701TIP3    H1 2067   4.347   6.639   1.527
  701TIP3    H2 2068   4.295   6.723   1.642
  702TIP3   OH2 2069   0.452   6.374   0.143
  702TIP3    H1 2070   0.415   6.367   0.232
  702TIP3    H2 2071   0.375   6.386   0.087
  703TIP3   OH2 2072   3.961   1.270   2.723
  703TIP3    H1 2073   4.029   1.322   2.679
  703TIP3    H2 2074   3.984   1.179   2.703
  704TIP3   OH2 2075   4.306   6.177   5.354
  704TIP3    H1 2076   4.300   6.203   5.445
  704TIP3    H2 2077   4.338   6.255   5.308
  705TIP3   OH2 2078   1.707   6.076   3.806
  705TIP3    H1 2079   1.654   6.030   3.871
  705TIP3    H2 2080   1.796   6.075   3.843
  706TIP3   OH2 2081   1.172   3.777   2.976
  706TIP3    H1 2082   1.247   3.824   3.012
  706TIP3    H2 2083   1.205   3.690   2.956
  707TIP3   OH2 2084   6.126   0.074   1.674
  707TIP3    H1 2085   6.038   0.043   1.696
  707TIP3    H2 2086   6.151   0.023   1.597
  708TIP3   OH2 2087   0.569   2.112   4.655
  708TIP3    H1 2088   0.599   2.048   4.720
  708TIP3    H2 2089   0.650   2.150   4.621
  709TIP3   OH2 2090   5.387   0.307   4.199
  709TIP3    H1 2091   5.325   0.284   4.130
  709TIP3    H2 2092   5.343   0.281   4.280
  710TIP3   OH2 2093   0.491   5.686   5.643
  710TIP3    H1 2094   0.424   5.747   5.674
  710TIP3    H2 2095   0.489   5.614   5.707
  711TIP3   OH2 2096   3.254   5.744   2.288
  711TIP3    H1 2097   3.256   5.681   2.361
  711TIP3    H2 2098   3.255   5.829   2.331
  712TIP3   OH2 2099   5.741   3.018   0.993
  712TIP3    H1 2100   5.680   3.083   0.959
  712TIP3    H2 2101   5.828   3.052   0.971
  713TIP3   OH2 2102   1.593   6.756   1.059
  713TIP3    H1 2103   1.599   6.701   1.136
  713TIP3    H2 2104   1.554   6.700   0.992
  714TIP3   OH2 2105   0.553   5.008   1.719
  714TIP3    H1 2106   0.630   5.057   1.693
  714TIP3    H2 2107   0.498   5.071   1.766
  715TIP3   OH2 2108   6.667   1.297   2.388
  715TIP3    H1 2109   6.585   1.333   2.423
  715TIP3    H2 2110   6.733   1.363   2.411
  716TIP3   OH2 2111   0.377   0.779   4.836
  716TIP3    H1 2112   0.285   0.776   4.809
  716TIP3    H2 2113   0.419   0.835   4.770
  717TIP3   OH2 2114   3.678   0.812   1.098
  717TIP3    H1 2115   3.615   0.851   1.036
  717TIP3    H2 2116   3.694   0.881   1.162
  718TIP3   OH2 2117   4.088   1.834   1.672
  718TIP3    H1 2118   4.046   1.837   1.587
  718TIP3    H2 2119   4.029   1.883   1.730
  719TIP3   OH2 2120   4.880   5.245   2.307
  719TIP3    H1 2121   4.891   5.327   2.354
  719TIP3    H2 2122   4.824   5.267   2.232
  720TIP3   OH2 2123   5.938   6.460   1.681
  720TIP3    H1 2124   5.977   6.547   1.688
  720TIP3    H2 2125   5.890   6.448   1.763
  721TIP3   OH2 2126   2.943   3.310   4.759
  721TIP3    H1 2127   3.024   3.275   4.721
  721TIP3    H2 2128   2.954   3.297   4.854
  722TIP3   OH2 2129   6.767   5.420   2.405
  722TIP3    H1 2130   6.683   5.447   2.442
  722TIP3    H2 2131   6.751   5.413   2.311
  723TIP3   OH2 2132   4.590   6.221   5.142
  723TIP3    H1 2133   4.513   6.186   5.098
  723TIP3    H2 2134   4.637   6.269   5.074
  724TIP3   OH2 2135   3.848   2.086   5.480
  724TIP3    H1 2136   3.917   2.075   5.546
  724TIP3    H2 2137   3.895   2.084   5.396
  725TIP3   OH2 2138   4.801   5.103   5.929
  725TIP3    H1 2139   4.839   5.101   5.841
  725TIP3    H2 2140   4.793   5.196   5.949
  726TIP3   OH2 2141   5.095   4.157   3.476
  726TIP3    H1 2142   5.013   4.176   3.521
  726TIP3    H2 2143   5.161   4.154   3.546
  727TIP3   OH2 2144   4.983   0.150   5.424
  727TIP3    H1 2145   4.918   0.205   5.379
  727TIP3    H2 2146   4.958   0.060   5.402
  728TIP3   OH2 2147   4.472   4.094  -0.009
  728TIP3    H1 2148   4.426   4.171  -0.043
  728TIP3    H2 2149   4.537   4.130   0.052
  729TIP3   OH2 2150   5.841   5.806   5.203
  729TIP3    H1 2151   5.886   5.721   5.198
  729TIP3    H2 2152   5.907   5.866   5.236
  730TIP3   OH2 2153   5.323   5.451   2.194
  730TIP3    H1 2154   5.354   5.361   2.189
  730TIP3    H2 2155   5.228   5.444   2.194
  731TIP3   OH2 2156   4.592   1.927   2.878
  731TIP3    H1 2157   4.655   1.997   2.856
  731TIP3    H2 2158   4.643   1.847   2.873
  732TIP3   OH2 2159   3.603   0.431   2.532
  732TIP3    H1 2160   3.602   0.360   2.596
  732TIP3    H2 2161   3.527   0.415   2.476
  733TIP3   OH2 2162   6.526   5.468   1.752
  733TIP3    H1 2163   6.520   5.465   1.656
  733TIP3    H2 2164   6.489   5.385   1.781
  734TIP3   OH2 2165   4.913   4.106   2.091
  734TIP3    H1 2166   4.873   4.086   2.176
  734TIP3    H2 2167   4.975   4.035   2.076
  735TIP3   OH2 2168   2.029   1.391   2.602
  735TIP3    H1 2169   2.106   1.428   2.557
  735TIP3    H2 2170   2.011   1.454   2.673
  736TIP3   OH2 2171   1.740   4.949   0.545
  736TIP3    H1 2172   1.656   4.984   0.514
  736TIP3    H2 2173   1.786   4.924   0.465
  737TIP3   OH2 2174   4.077   4.122   2.863
  737TIP3    H1 2175   4.007   4.166   2.814
  737TIP3    H2 2176   4.143   4.190   2.877
  738TIP3   OH2 2177   2.169   3.740   0.822
  738TIP3    H1 2178   2.184   3.649   0.797
  738TIP3    H2 2179   2.122   3.734   0.905
  739TIP3   OH2 2180   2.838   2.935   3.114
  739TIP3    H1 2181   2.781   2.912   3.187
  739TIP3    H2 2182   2.825   2.863   3.051
  740TIP3   OH2 2183   2.562   5.057   5.553
  740TIP3    H1 2184   2.513   5.136   5.531
  740TIP3    H2 2185   2.629   5.051   5.485
  741TIP3   OH2 2186   7.071   3.721   4.333
  741TIP3    H1 2187   6.978   3.730   4.356
  741TIP3    H2 2188   7.112   3.686   4.413
  742TIP3   OH2 2189   0.314   4.958   5.877
  742TIP3    H1 2190   0.369   4.904   5.934
  742TIP3    H2 2191   0.355   5.044   5.878
  743TIP3   OH2 2192   0.072   6.588   1.557
  743TIP3    H1 2193   0.073   6.682   1.542
  743TIP3    H2 2194   0.100   6.550   1.474
  744TIP3   OH2 2195   5.249   2.251   2.895
  744TIP3    H1 2196   5.270   2.277   2.984
  744TIP3    H2 2197   5.159   2.280   2.882
  745TIP3   OH2 2198   0.024   4.068   1.885
  745TIP3    H1 2199  -0.022   3.985   1.880
  745TIP3    H2 2200   0.105   4.048   1.931
  746TIP3   OH2 2201   2.679   3.922   2.978
  746TIP3    H1 2202   2.758   3.970   2.950
  746TIP3    H2 2203   2.650   3.967   3.057
  747TIP3   OH2 2204   2.986   2.545   4.586
  747TIP3    H1 2205   3.037   2.594   4.651
  747TIP3    H2 2206   2.999   2.593   4.505
  748TIP3   OH2 2207   1.516   0.070   1.842
  748TIP3    H1 2208   1.567  -0.012   1.839
  748TIP3    H2 2209   1.444   0.055   1.781
  749TIP3   OH2 2210   1.288   3.283   1.044
  749TIP3    H1 2211   1.239   3.334   1.109
  749TIP3    H2 2212   1.321   3.348   0.982
  750TIP3   OH2 2213   4.498   4.127   4.587
  750TIP3    H1 2214   4.544   4.171   4.659
  750TIP3    H2 2215   4.524   4.035   4.596
  751TIP3   OH2 2216   0.932   0.232   2.093
  751TIP3    H1 2217   0.940   0.251   2.186
  751TIP3    H2 2218   0.885   0.308   2.057
  752TIP3   OH2 2219   4.850   0.060   4.912
  752TIP3    H1 2220   4.878   0.118   4.983
  752TIP3    H2 2221   4.839  -0.026   4.953
  753TIP3   OH2 2222   6.079   4.340   0.616
  753TIP3    H1 2223   6.069   4.402   0.544
  753TIP3    H2 2224   6.054   4.390   0.694
  754TIP3   OH2 2225   0.726   4.624   4.538
  754TIP3    H1 2226   0.682   4.703   4.507
  754TIP3    H2 2227   0.725   4.632   4.634
  755TIP3   OH2 2228   1.902   4.587   3.280
  755TIP3    H1 2229   1.960   4.510   3.279
  755TIP3    H2 2230   1.936   4.641   3.351
  756TIP3   OH2 2231   0.736   3.712   2.802
  756TIP3    H1 2232   0.666   3.756   2.850
  756TIP3    H2 2233   0.808   3.774   2.801
  757TIP3   OH2 2234   4.315   6.471   3.573
  757TIP3    H1 2235   4.330   6.524   3.652
  757TIP3    H2 2236   4.334   6.382   3.600
  758TIP3   OH2 2237   6.360   0.802   1.083
  758TIP3    H1 2238   6.355   0.742   1.157
  758TIP3    H2 2239   6.328   0.751   1.008
  759TIP3   OH2 2240   6.131   0.741   4.563
  759TIP3    H1 2241   6.061   0.729   4.628
  759TIP3    H2 2242   6.205   0.691   4.597
  760TIP3   OH2 2243   5.142   3.764   0.337
  760TIP3    H1 2244   5.086   3.833   0.372
  760TIP3    H2 2245   5.123   3.688   0.392
  761TIP3   OH2 2246   3.071   3.499   1.488
  761TIP3    H1 2247   3.078   3.415   1.442
  761TIP3    H2 2248   3.055   3.475   1.579
  762TIP3   OH2 2249   1.494   6.211   4.964
  762TIP3    H1 2250   1.479   6.302   4.940
  762TIP3    H2 2251   1.544   6.215   5.046
  763TIP3   OH2 2252   3.582   3.359   3.498
  763TIP3    H1 2253   3.643   3.367   3.425
  763TIP3    H2 2254   3.508   3.415   3.474
  764TIP3   OH2 2255   2.728   1.719   1.288
  764TIP3    H1 2256   2.656   1.778   1.310
  764TIP3    H2 2257   2.729   1.655   1.359
  765TIP3   OH2 2258   4.485   0.924   2.497
  765TIP3    H1 2259   4.530   0.977   2.562
  765TIP3    H2 2260   4.468   0.840   2.541
  766TIP3   OH2 2261   1.632   4.461   3.677
  766TIP3    H1 2262   1.667   4.418   3.599
  766TIP3    H2 2263   1.667   4.410   3.750
  767TIP3   OH2 2264   0.675   0.851   1.827
  767TIP3    H1 2265   0.690   0.945   1.819
  767TIP3    H2 2266   0.751   0.810   1.785
  768TIP3   OH2 2267   0.916   0.660   1.008
  768TIP3    H1 2268   0.999   0.633   1.048
  768TIP3    H2 2269   0.865   0.580   1.004
  769TIP3   OH2 2270   3.864   3.213   0.424
  769TIP3    H1 2271   3.933   3.172   0.476
  769TIP3    H2 2272   3.900   3.214   0.335
  770TIP3   OH2 2273   1.707   2.644  -0.007
  770TIP3    H1 2274   1.765   2.715   0.020
  770TIP3    H2 2275   1.725   2.574   0.055
  771TIP3   OH2 2276   3.173   1.892   4.271
  771TIP3    H1 2277   3.121   1.868   4.348
  771TIP3    H2 2278   3.240   1.824   4.265
  772TIP3   OH2 2279   2.844   6.361   2.388
  772TIP3    H1 2280   2.776   6.308   2.347
  772TIP3    H2 2281   2.801   6.443   2.410
  773TIP3   OH2 2282   4.840   5.537   5.258
  773TIP3    H1 2283   4.781   5.486   5.203
  773TIP3    H2 2284   4.786   5.609   5.292
  774TIP3   OH2 2285   3.738   0.870   3.487
  774TIP3    H1 2286   3.817   0.869   3.542
  774TIP3    H2 2287   3.718   0.963   3.476
  775TIP3   OH2 2288   4.674   1.502   5.325
  775TIP3    H1 2289   4.612   1.530   5.392
  775TIP3    H2 2290   4.618   1.470   5.253
  776TIP3   OH2 2291   5.986   4.244   5.132
  776TIP3    H1 2292   5.928   4.186   5.083
  776TIP3    H2 2293   5.976   4.329   5.090
  777TIP3   OH2 2294   0.824   0.643   3.153
  777TIP3    H1 2295   0.885   0.702   3.197
  777TIP3    H2 2296   0.759   0.701   3.114
  778TIP3   OH2 2297   1.841   4.918   4.247
  778TIP3    H1 2298   1.902   4.844   4.250
  778TIP3    H2 2299   1.756   4.880   4.269
  779TIP3   OH2 2300   6.021   2.541   1.373
  779TIP3    H1 2301   6.113   2.549   1.397
  779TIP3    H2 2302   6.000   2.624   1.329
  780TIP3   OH2 2303   1.369   3.596   1.448
  780TIP3    H1 2304   1.398   3.559   1.531
  780TIP3    H2 2305   1.441   3.576   1.387
  781TIP3   OH2 2306   1.583   5.999   4.445
  781TIP3    H1 2307   1.655   5.994   4.382
  781TIP3    H2 2308   1.625   5.985   4.530
  782TIP3   OH2 2309   6.807   4.862   2.505
  782TIP3    H1 2310   6.842   4.919   2.573
  782TIP3    H2 2311   6.824   4.774   2.536
  783TIP3   OH2 2312   2.479   1.630   0.938
  783TIP3    H1 2313   2.392   1.649   0.975
  783TIP3    H2 2314   2.531   1.707   0.961
  784TIP3   OH2 2315   2.266   4.089   2.217
  784TIP3    H1 2316   2.184   4.076   2.263
  784TIP3    H2 2317   2.240   4.116   2.129
  785TIP3   OH2 2318   6.395   3.742   2.604
  785TIP3    H1 2319   6.351   3.781   2.529
  785TIP3    H2 2320   6.460   3.683   2.565
  786TIP3   OH2 2321   4.203   2.727   4.773
  786TIP3    H1 2322   4.159   2.730   4.688
  786TIP3    H2 2323   4.286   2.683   4.756
  787TIP3   OH2 2324   4.004   3.786   4.510
  787TIP3    H1 2325   3.956   3.789   4.593
  787TIP3    H2 2326   3.995   3.874   4.474
  788TIP3   OH2 2327   3.831   0.219   5.558
  788TIP3    H1 2328   3.749   0.252   5.521
  788TIP3    H2 2329   3.853   0.144   5.502
  789TIP3   OH2 2330   6.687   4.289   4.362
  789TIP3    H1 2331   6.652   4.369   4.402
  789TIP3    H2 2332   6.774   4.314   4.330
  790TIP3   OH2 2333   2.236   4.713   0.946
  790TIP3    H1 2334   2.178   4.698   1.020
  790TIP3    H2 2335   2.324   4.707   0.983
  791TIP3   OH2 2336   6.722   0.987   1.912
  791TIP3    H1 2337   6.761   1.022   1.832
  791TIP3    H2 2338   6.713   0.893   1.896
  792TIP3   OH2 2339   4.857   1.835   4.068
  792TIP3    H1 2340   4.821   1.756   4.108
  792TIP3    H2 2341   4.780   1.888   4.046
  793TIP3   OH2 2342   3.683   3.358   2.123
  793TIP3    H1 2343   3.613   3.362   2.058
  793TIP3    H2 2344   3.706   3.265   2.127
  794TIP3   OH2 2345   3.161   2.963   4.764
  794TIP3    H1 2346   3.066   2.958   4.753
  794TIP3    H2 2347   3.187   3.038   4.711
  795TIP3   OH2 2348   6.554   3.373   1.436
  795TIP3    H1 2349   6.552   3.458   1.393
  795TIP3    H2 2350   6.462   3.354   1.455
  796TIP3   OH2 2351   1.310   5.234   1.052
  796TIP3    H1 2352   1.318   5.138   1.055
  796TIP3    H2 2353   1.395   5.264   1.018
  797TIP3   OH2 2354   0.047   3.271   0.641
  797TIP3    H1 2355   0.029   3.243   0.551
  797TIP3    H2 2356   0.102   3.201   0.677
  798TIP3   OH2 2357   1.263   2.188   5.148
  798TIP3    H1 2358   1.197   2.256   5.133
  798TIP3    H2 2359   1.276   2.148   5.062
  799TIP3   OH2 2360   4.225   3.069   0.607
  799TIP3    H1 2361   4.231   3.016   0.527
  799TIP3    H2 2362   4.133   3.067   0.630
  800TIP3   OH2 2363   4.029   5.082   2.333
  800TIP3    H1 2364   3.998   5.147   2.396
  800TIP3    H2 2365   4.123   5.101   2.324
  801TIP3   OH2 2366   1.695   3.323   4.515
  801TIP3    H1 2367   1.761   3.254   4.527
  801TIP3    H2 2368   1.694   3.370   4.598
  802TIP3   OH2 2369   6.611   0.493   3.716
  802TIP3    H1 2370   6.553   0.529   3.650
  802TIP3    H2 2371   6.581   0.403   3.728
  803TIP3   OH2 2372   0.324   1.571   4.826
  803TIP3    H1 2373   0.314   1.486   4.869
  803TIP3    H2 2374   0.393   1.557   4.761
  804TIP3   OH2 2375   6.961   3.381   0.585
  804TIP3    H1 2376   7.004   3.458   0.621
  804TIP3    H2 2377   7.032   3.328   0.550
  805TIP3   OH2 2378   3.828   4.514   2.301
  805TIP3    H1 2379   3.915   4.555   2.293
  805TIP3    H2 2380   3.782   4.569   2.365
  806TIP3   OH2 2381   5.427   5.323   0.655
  806TIP3    H1 2382   5.463   5.378   0.585
  806TIP3    H2 2383   5.505   5.291   0.701
  807TIP3   OH2 2384   4.302   2.225   2.406
  807TIP3    H1 2385   4.261   2.259   2.485
  807TIP3    H2 2386   4.292   2.130   2.412
  808TIP3   OH2 2387   3.271   0.391   3.565
  808TIP3    H1 2388   3.359   0.377   3.601
  808TIP3    H2 2389   3.233   0.459   3.620
  809TIP3   OH2 2390   1.736   0.231   0.382
  809TIP3    H1 2391   1.747   0.295   0.452
  809TIP3    H2 2392   1.706   0.152   0.426
  810TIP3   OH2 2393   4.315   3.319   0.577
  810TIP3    H1 2394   4.281   3.231   0.588
  810TIP3    H2 2395   4.376   3.313   0.504
  811TIP3   OH2 2396   4.307   4.197   5.061
  811TIP3    H1 2397   4.337   4.287   5.051
  811TIP3    H2 2398   4.238   4.202   5.127
  812TIP3   OH2 2399   6.410   4.463   0.133
  812TIP3    H1 2400   6.504   4.479   0.131
  812TIP3    H2 2401   6.401   4.369   0.123
  813TIP3   OH2 2402   3.923   6.726   4.278
  813TIP3    H1 2403   3.956   6.640   4.304
  813TIP3    H2 2404   3.871   6.710   4.199
  814TIP3   OH2 2405   4.233   5.709   3.356
  814TIP3    H1 2406   4.219   5.795   3.315
  814TIP3    H2 2407   4.282   5.729   3.436
  815TIP3   OH2 2408   0.806   6.613   0.169
  815TIP3    H1 2409   0.825   6.534   0.220
  815TIP3    H2 2410   0.724   6.645   0.206
  816TIP3   OH2 2411   6.172   3.670   3.357
  816TIP3    H1 2412   6.135   3.623   3.433
  816TIP3    H2 2413   6.265   3.647   3.358
  817TIP3   OH2 2414   5.888   0.802   4.048
  817TIP3    H1 2415   5.952   0.750   4.096
  817TIP3    H2 2416   5.892   0.888   4.091
  818TIP3   OH2 2417   2.101   2.602   5.652
  818TIP3    H1 2418   2.172   2.543   5.676
  818TIP3    H2 2419   2.108   2.611   5.557
  819TIP3   OH2 2420   6.035   2.257   4.874
  819TIP3    H1 2421   6.059   2.350   4.878
  819TIP3    H2 2422   6.012   2.242   4.782
  820TIP3   OH2 2423   2.074   6.023   3.568
  820TIP3    H1 2424   2.076   6.099   3.626
  820TIP3    H2 2425   1.989   6.029   3.524
  821TIP3   OH2 2426   6.287   3.833   1.570
  821TIP3    H1 2427   6.309   3.913   1.522
  821TIP3    H2 2428   6.205   3.854   1.615
  822TIP3   OH2 2429   0.033   4.252   0.134
  822TIP3    H1 2430  -0.034   4.191   0.164
  822TIP3    H2 2431   0.109   4.197   0.116
  823TIP3   OH2 2432   0.803   3.104   5.543
  823TIP3    H1 2433   0.776   3.157   5.468
  823TIP3    H2 2434   0.834   3.167   5.608
  824TIP3   OH2 2435   7.071   6.072   0.697
  824TIP3    H1 2436   7.040   5.991   0.655
  824TIP3    H2 2437   7.010   6.139   0.668
  825TIP3   OH2 2438   3.008   2.232   3.922
  825TIP3    H1 2439   2.938   2.168   3.933
  825TIP3    H2 2440   3.075   2.205   3.986
  826TIP3   OH2 2441   1.875   0.782   2.747
  826TIP3    H1 2442   1.883   0.714   2.814
  826TIP3    H2 2443   1.882   0.736   2.664
  827TIP3   OH2 2444   3.123   2.192   1.051
  827TIP3    H1 2445   3.075   2.110   1.058
  827TIP3    H2 2446   3.072   2.245   0.990
  828TIP3   OH2 2447   6.604   3.617   2.486
  828TIP3    H1 2448   6.636   3.566   2.560
  828TIP3    H2 2449   6.652   3.582   2.411
  829TIP3   OH2 2450   0.351   6.780   5.139
  829TIP3    H1 2451   0.346   6.738   5.225
  829TIP3    H2 2452   0.388   6.866   5.156
  830TIP3   OH2 2453   2.901   2.763   0.069
  830TIP3    H1 2454   2.917   2.705  -0.006
  830TIP3    H2 2455   2.906   2.705   0.145
  831TIP3   OH2 2456   2.365   3.803   0.507
  831TIP3    H1 2457   2.457   3.786   0.487
  831TIP3    H2 2458   2.318   3.730   0.467
  832TIP3   OH2 2459   6.631   2.070   5.281
  832TIP3    H1 2460   6.544   2.087   5.316
  832TIP3    H2 2461   6.616   2.013   5.205
  833TIP3   OH2 2462   1.870   0.138   5.469
  833TIP3    H1 2463   1.912   0.200   5.528
  833TIP3    H2 2464   1.792   0.110   5.517
  834TIP3   OH2 2465   0.553   0.786   1.273
  834TIP3    H1 2466   0.568   0.719   1.340
  834TIP3    H2 2467   0.639   0.824   1.258
  835TIP3   OH2 2468   1.845   0.250   5.152
  835TIP3    H1 2469   1.923   0.285   5.194
  835TIP3    H2 2470   1.775   0.310   5.177
  836TIP3   OH2 2471   2.586   0.876   4.093
  836TIP3    H1 2472   2.627   0.862   4.007
  836TIP3    H2 2473   2.504   0.827   4.089
  837TIP3   OH2 2474   6.594   5.671   2.010
  837TIP3    H1 2475   6.623   5.743   2.066
  837TIP3    H2 2476   6.532   5.622   2.065
  838TIP3   OH2 2477   0.975   4.715   1.420
  838TIP3    H1 2478   1.028   4.768   1.479
  838TIP3    H2 2479   0.989   4.625   1.449
  839TIP3   OH2 2480   4.671   0.163   1.660
  839TIP3    H1 2481   4.641   0.195   1.575
  839TIP3    H2 2482   4.719   0.236   1.698
  840TIP3   OH2 2483   4.867   3.042   3.675
  840TIP3    H1 2484   4.932   3.071   3.739
  840TIP3    H2 2485   4.791   3.099   3.690
  841TIP3   OH2 2486   7.066   1.440   4.866
  841TIP3    H1 2487   7.042   1.511   4.807
  841TIP3    H2 2488   7.157   1.421   4.846
  842TIP3   OH2 2489   0.241   6.278   1.756
  842TIP3    H1 2490   0.203   6.220   1.690
  842TIP3    H2 2491   0.302   6.333   1.706
  843TIP3   OH2 2492   1.626   5.988   1.472
  843TIP3    H1 2493   1.584   5.919   1.523
  843TIP3    H2 2494   1.560   6.012   1.406
  844TIP3   OH2 2495   6.484   1.590   2.259
  844TIP3    H1 2496   6.545   1.644   2.209
  844TIP3    H2 2497   6.534   1.563   2.336
  845TIP3   OH2 2498   3.533   1.415   1.835
  845TIP3    H1 2499   3.467   1.437   1.770
  845TIP3    H2 2500   3.591   1.353   1.790
  846TIP3   OH2 2501   0.427   6.320   0.415
  846TIP3    H1 2502   0.487   6.362   0.476
  846TIP3    H2 2503   0.461   6.231   0.404
  847TIP3   OH2 2504   3.095   4.474   5.208
  847TIP3    H1 2505   3.171   4.514   5.251
  847TIP3    H2 2506   3.026   4.477   5.274
  848TIP3   OH2 2507   4.632   5.577   3.987
  848TIP3    H1 2508   4.694   5.513   4.023
  848TIP3    H2 2509   4.673   5.607   3.905
  849TIP3   OH2 2510   1.930   0.390   4.652
  849TIP3    H1 2511   1.969   0.454   4.594
  849TIP3    H2 2512   1.975   0.308   4.631
  850TIP3   OH2 2513   6.582   2.225   2.364
  850TIP3    H1 2514   6.561   2.286   2.434
  850TIP3    H2 2515   6.668   2.189   2.387
  851TIP3   OH2 2516   3.350   5.241   0.700
  851TIP3    H1 2517   3.274   5.298   0.708
  851TIP3    H2 2518   3.326   5.162   0.748
  852TIP3   OH2 2519  -0.005   3.977   5.627
  852TIP3    H1 2520  -0.047   4.022   5.554
  852TIP3    H2 2521   0.056   4.042   5.663
  853TIP3   OH2 2522   6.196   4.056   0.596
  853TIP3    H1 2523   6.275   4.071   0.544
  853TIP3    H2 2524   6.172   4.143   0.629
  854TIP3   OH2 2525   2.279   3.591   2.136
  854TIP3    H1 2526   2.348   3.584   2.202
  854TIP3    H2 2527   2.241   3.677   2.150
  855TIP3   OH2 2528   2.078   1.114   3.448
  855TIP3    H1 2529   1.995   1.109   3.495
  855TIP3    H2 2530   2.054   1.116   3.356
  856TIP3   OH2 2531   6.118   6.492   2.864
  856TIP3    H1 2532   6.146   6.580   2.838
  856TIP3    H2 2533   6.186   6.463   2.925
  857TIP3   OH2 2534   0.191   0.077   2.311
  857TIP3    H1 2535   0.251   0.147   2.286
  857TIP3    H2 2536   0.158   0.042   2.228
  858TIP3   OH2 2537   4.861   1.195   3.711
  858TIP3    H1 2538   4.932   1.246   3.671
  858TIP3    H2 2539   4.899   1.160   3.791
  859TIP3   OH2 2540   6.929   4.281   5.355
  859TIP3    H1 2541   6.944   4.336   5.278
  859TIP3    H2 2542   6.964   4.332   5.428
  860TIP3   OH2 2543   3.444   3.261   4.443
  860TIP3    H1 2544   3.478   3.235   4.357
  860TIP3    H2 2545   3.369   3.317   4.424
  861TIP3   OH2 2546   2.920   3.645   1.323
  861TIP3    H1 2547   2.957   3.593   1.394
  861TIP3    H2 2548   2.882   3.722   1.367
  862TIP3   OH2 2549   4.808   2.186   3.431
  862TIP3    H1 2550   4.889   2.136   3.438
  862TIP3    H2 2551   4.741   2.129   3.468
  863TIP3   OH2 2552   7.182   1.179   5.635
  863TIP3    H1 2553   7.168   1.264   5.678
  863TIP3    H2 2554   7.247   1.136   5.690
  864TIP3   OH2 2555   3.681   3.892   4.437
  864TIP3    H1 2556   3.589   3.884   4.416
  864TIP3    H2 2557   3.727   3.865   4.357
  865TIP3   OH2 2558   5.246   6.186   2.682
  865TIP3    H1 2559   5.183   6.148   2.744
  865TIP3    H2 2560   5.191   6.231   2.618
  866TIP3   OH2 2561   3.432   3.934   2.055
  866TIP3    H1 2562   3.349   3.943   2.103
  866TIP3    H2 2563   3.411   3.956   1.965
  867TIP3   OH2 2564   5.214   5.736   4.387
  867TIP3    H1 2565   5.228   5.831   4.392
  867TIP3    H2 2566   5.119   5.725   4.391
  868TIP3   OH2 2567   3.695   4.261   3.169
  868TIP3    H1 2568   3.711   4.213   3.250
  868TIP3    H2 2569   3.714   4.198   3.099
  869TIP3   OH2 2570   0.480   1.379   1.200
  869TIP3    H1 2571   0.440   1.437   1.136
  869TIP3    H2 2572   0.458   1.291   1.170
  870TIP3   OH2 2573   1.734   0.539   2.432
  870TIP3    H1 2574   1.758   0.512   2.344
  870TIP3    H2 2575   1.784   0.481   2.490
  871TIP3   OH2 2576   2.539   6.010   5.012
  871TIP3    H1 2577   2.446   6.006   4.991
  871TIP3    H2 2578   2.553   6.098   5.046
  872TIP3   OH2 2579   1.277   2.550   5.853
  872TIP3    H1 2580   1.306   2.642   5.858
  872TIP3    H2 2581   1.194   2.548   5.901
  873TIP3   OH2 2582   6.584   0.891   2.804
  873TIP3    H1 2583   6.526   0.815   2.811
  873TIP3    H2 2584   6.593   0.906   2.710
  874TIP3   OH2 2585   3.689   4.072   2.938
  874TIP3    H1 2586   3.729   4.137   2.880
  874TIP3    H2 2587   3.761   4.014   2.963
  875TIP3   OH2 2588   5.434   1.667   4.576
  875TIP3    H1 2589   5.519   1.638   4.543
  875TIP3    H2 2590   5.423   1.621   4.659
  876TIP3   OH2 2591   0.145   2.630   2.749
  876TIP3    H1 2592   0.183   2.559   2.696
  876TIP3    H2 2593   0.176   2.710   2.706
  877TIP3   OH2 2594   2.193   1.536   1.340
  877TIP3    H1 2595   2.281   1.523   1.377
  877TIP3    H2 2596   2.209   1.579   1.256
  878TIP3   OH2 2597   1.575   0.852   3.328
  878TIP3    H1 2598   1.508   0.827   3.392
  878TIP3    H2 2599   1.656   0.857   3.380
  879TIP3   OH2 2600   4.000   4.009   1.385
  879TIP3    H1 2601   3.980   4.031   1.476
  879TIP3    H2 2602   3.920   4.029   1.337
  880TIP3   OH2 2603   3.925   0.582   4.473
  880TIP3    H1 2604   3.880   0.593   4.389
  880TIP3    H2 2605   3.856   0.557   4.534
  881TIP3   OH2 2606   4.992   0.081   4.481
  881TIP3    H1 2607   4.941   0.001   4.488
  881TIP3    H2 2608   5.070   0.066   4.535
  882TIP3   OH2 2609   5.632   6.205   1.782
  882TIP3    H1 2610   5.715   6.172   1.819
  882TIP3    H2 2611   5.574   6.213   1.857
  883TIP3   OH2 2612   6.372   2.681   5.172
  883TIP3    H1 2613   6.288   2.704   5.133
  883TIP3    H2 2614   6.437   2.715   5.111
  884TIP3   OH2 2615   6.127   3.108   0.245
  884TIP3    H1 2616   6.221   3.089   0.236
  884TIP3    H2 2617   6.122   3.163   0.323
  885TIP3   OH2 2618   6.735   0.888   3.850
  885TIP3    H1 2619   6.765   0.970   3.809
  885TIP3    H2 2620   6.704   0.915   3.937
  886TIP3   OH2 2621   1.023   6.757   2.276
  886TIP3    H1 2622   0.933   6.784   2.292
  886TIP3    H2 2623   1.075   6.802   2.342
  887TIP3   OH2 2624   4.977   1.946   2.605
  887TIP3    H1 2625   4.941   1.983   2.524
  887TIP3    H2 2626   5.070   1.968   2.602
  888TIP3   OH2 2627   1.019   3.287   3.179
  888TIP3    H1 2628   1.063   3.364   3.143
  888TIP3    H2 2629   0.963   3.255   3.109
  889TIP3   OH2 2630   5.815   4.987   4.850
  889TIP3    H1 2631   5.797   5.026   4.935
  889TIP3    H2 2632   5.909   5.000   4.837
  890TIP3   OH2 2633   5.145   3.017   5.432
  890TIP3    H1 2634   5.184   3.098   5.399
  890TIP3    H2 2635   5.219   2.958   5.446
  891TIP3   OH2 2636   3.610   5.239   4.664
  891TIP3    H1 2637   3.589   5.257   4.573
  891TIP3    H2 2638   3.574   5.151   4.680
  892TIP3   OH2 2639   4.832   3.644   1.973
  892TIP3    H1 2640   4.748   3.603   1.950
  892TIP3    H2 2641   4.879   3.649   1.890
  893TIP3   OH2 2642   5.126   1.363   4.535
  893TIP3    H1 2643   5.209   1.332   4.571
  893TIP3    H2 2644   5.064   1.293   4.554
  894TIP3   OH2 2645   0.822   3.204   3.373
  894TIP3    H1 2646   0.899   3.219   3.318
  894TIP3    H2 2647   0.853   3.150   3.445
  895TIP3   OH2 2648   0.678   6.760   0.460
  895TIP3    H1 2649   0.611   6.694   0.443
  895TIP3    H2 2650   0.643   6.841   0.423
  896TIP3   OH2 2651   2.876   0.868   0.036
  896TIP3    H1 2652   2.843   0.953   0.007
  896TIP3    H2 2653   2.971   0.876   0.032
  897TIP3   OH2 2654   0.180   3.365   4.517
  897TIP3    H1 2655   0.241   3.405   4.578
  897TIP3    H2 2656   0.121   3.313   4.572
  898TIP3   OH2 2657   7.212   0.518   1.584
  898TIP3    H1 2658   7.204   0.577   1.659
  898TIP3    H2 2659   7.128   0.474   1.579
  899TIP3   OH2 2660   3.093   2.965   0.041
  899TIP3    H1 2661   3.087   2.996   0.131
  899TIP3    H2 2662   3.052   2.879   0.042
  900TIP3   OH2 2663   1.033   5.503   5.056
  900TIP3    H1 2664   1.057   5.456   5.135
  900TIP3    H2 2665   1.002   5.436   4.996
  901TIP3   OH2 2666   4.829   5.852   2.897
  901TIP3    H1 2667   4.759   5.917   2.891
  901TIP3    H2 2668   4.809   5.801   2.975
  902TIP3   OH2 2669   4.075   3.109   1.970
  902TIP3    H1 2670   4.155   3.133   1.924
  902TIP3    H2 2671   4.008   3.167   1.934
  903TIP3   OH2 2672   4.906   6.538   5.179
  903TIP3    H1 2673   4.904   6.556   5.273
  903TIP3    H2 2674   4.961   6.461   5.170
  904TIP3   OH2 2675   3.813   2.125   0.700
  904TIP3    H1 2676   3.747   2.060   0.677
  904TIP3    H2 2677   3.895   2.089   0.667
  905TIP3   OH2 2678   1.210   5.670   0.401
  905TIP3    H1 2679   1.177   5.689   0.488
  905TIP3    H2 2680   1.297   5.632   0.416
  906TIP3   OH2 2681   1.514   3.291   5.310
  906TIP3    H1 2682   1.527   3.385   5.316
  906TIP3    H2 2683   1.419   3.280   5.302
  907TIP3   OH2 2684   4.405   4.141   0.656
  907TIP3    H1 2685   4.380   4.233   0.668
  907TIP3    H2 2686   4.346   4.109   0.588
  908TIP3   OH2 2687   5.752   2.363   1.932
  908TIP3    H1 2688   5.827   2.394   1.982
  908TIP3    H2 2689   5.724   2.440   1.882
  909TIP3   OH2 2690   4.382   2.031   3.733
  909TIP3    H1 2691   4.344   2.077   3.658
  909TIP3    H2 2692   4.474   2.019   3.710
  910TIP3   OH2 2693   5.469   4.436   4.526
  910TIP3    H1 2694   5.429   4.351   4.546
  910TIP3    H2 2695   5.406   4.480   4.470
  911TIP3   OH2 2696   0.645   4.279   1.354
  911TIP3    H1 2697   0.614   4.306   1.441
  911TIP3    H2 2698   0.652   4.184   1.359
  912TIP3   OH2 2699   3.315   5.088   0.171
  912TIP3    H1 2700   3.297   5.064   0.262
  912TIP3    H2 2701   3.262   5.027   0.120
  913TIP3   OH2 2702   4.730   2.198   3.927
  913TIP3    H1 2703   4.768   2.276   3.968
  913TIP3    H2 2704   4.672   2.232   3.860
  914TIP3   OH2 2705   5.408   1.233   1.869
  914TIP3    H1 2706   5.436   1.248   1.779
  914TIP3    H2 2707   5.312   1.237   1.866
  915TIP3   OH2 2708   1.178   0.824   3.051
  915TIP3    H1 2709   1.265   0.855   3.077
  915TIP3    H2 2710   1.131   0.815   3.134
  916TIP3   OH2 2711   3.376   2.326   3.735
  916TIP3    H1 2712   3.472   2.329   3.736
  916TIP3    H2 2713   3.355   2.254   3.675
  917TIP3   OH2 2714   3.147   2.701   4.750
  917TIP3    H1 2715   3.180   2.788   4.773
  917TIP3    H2 2716   3.183   2.643   4.817
  918TIP3   OH2 2717   5.098   2.449   5.146
  918TIP3    H1 2718   5.027   2.412   5.199
  918TIP3    H2 2719   5.178   2.422   5.191
  919TIP3   OH2 2720   4.454   5.082   4.950
  919TIP3    H1 2721   4.531   5.072   5.005
  919TIP3    H2 2722   4.475   5.153   4.890
  920TIP3   OH2 2723   1.027   4.175   3.258
  920TIP3    H1 2724   1.063   4.173   3.347
  920TIP3    H2 2725   1.024   4.083   3.231
  921TIP3   OH2 2726   0.708   5.162   3.534
  921TIP3    H1 2727   0.622   5.182   3.496
  921TIP3    H2 2728   0.695   5.080   3.581
  922TIP3   OH2 2729   6.705   3.474   2.688
  922TIP3    H1 2730   6.742   3.497   2.773
  922TIP3    H2 2731   6.633   3.414   2.709
  923TIP3   OH2 2732   2.816   3.521   2.941
  923TIP3    H1 2733   2.884   3.454   2.949
  923TIP3    H2 2734   2.863   3.604   2.932
  924TIP3   OH2 2735   5.001   0.771   0.754
  924TIP3    H1 2736   4.991   0.684   0.792
  924TIP3    H2 2737   5.058   0.818   0.815
  925TIP3   OH2 2738   0.549   4.638   3.776
  925TIP3    H1 2739   0.481   4.706   3.775
  925TIP3    H2 2740   0.611   4.665   3.709
  926TIP3   OH2 2741   6.600   0.436   5.338
  926TIP3    H1 2742   6.560   0.514   5.375
  926TIP3    H2 2743   6.584   0.367   5.402
  927TIP3   OH2 2744   0.007   2.221   1.122
  927TIP3    H1 2745   0.058   2.290   1.164
  927TIP3    H2 2746  -0.005   2.251   1.032
  928TIP3   OH2 2747   3.333   0.866   2.596
  928TIP3    H1 2748   3.255   0.812   2.596
  928TIP3    H2 2749   3.395   0.818   2.541
  929TIP3   OH2 2750   6.324   2.912   5.324
  929TIP3    H1 2751   6.342   2.820   5.344
  929TIP3    H2 2752   6.319   2.916   5.229
  930TIP3   OH2 2753   4.281   4.460   4.200
  930TIP3    H1 2754   4.316   4.450   4.112
  930TIP3    H2 2755   4.311   4.383   4.247
  931TIP3   OH2 2756   0.364   6.236   3.714
  931TIP3    H1 2757   0.370   6.238   3.809
  931TIP3    H2 2758   0.448   6.201   3.685
  932TIP3   OH2 2759   6.407   1.350   3.396
  932TIP3    H1 2760   6.496   1.359   3.430
  932TIP3    H2 2761   6.361   1.427   3.429
  933TIP3   OH2 2762   6.693   0.713   2.213
  933TIP3    H1 2763   6.763   0.779   2.219
  933TIP3    H2 2764   6.613   0.761   2.232
  934TIP3   OH2 2765   1.369   2.718   2.181
  934TIP3    H1 2766   1.376   2.662   2.258
  934TIP3    H2 2767   1.292   2.772   2.199
  935TIP3   OH2 2768   2.187   1.042   0.180
  935TIP3    H1 2769   2.263   0.991   0.209
  935TIP3    H2 2770   2.203   1.058   0.088
  936TIP3   OH2 2771   3.558   5.511   3.959
  936TIP3    H1 2772   3.551   5.423   3.923
  936TIP3    H2 2773   3.485   5.517   4.021
  937TIP3   OH2 2774   4.885   4.136   3.668
  937TIP3    H1 2775   4.814   4.194   3.695
  937TIP3    H2 2776   4.867   4.054   3.715
  938TIP3   OH2 2777   1.029   4.874   4.826
  938TIP3    H1 2778   1.100   4.916   4.777
  938TIP3    H2 2779   1.073   4.804   4.875
  939TIP3   OH2 2780   2.515   2.182   0.102
  939TIP3    H1 2781   2.425   2.210   0.117
  939TIP3    H2 2782   2.538   2.131   0.179
  940TIP3   OH2 2783   3.224   1.499   2.025
  940TIP3    H1 2784   3.292   1.468   2.085
  940TIP3    H2 2785   3.272   1.543   1.955
  941TIP3   OH2 2786   3.262   5.567   3.054
  941TIP3    H1 2787   3.290   5.658   3.060
  941TIP3    H2 2788   3.322   5.518   3.110
  942TIP3   OH2 2789   5.457   3.963   2.814
  942TIP3    H1 2790   5.449   3.928   2.903
  942TIP3    H2 2791   5.378   4.015   2.802
  943TIP3   OH2 2792   0.460   2.885   4.644
  943TIP3    H1 2793   0.554   2.873   4.627
  943TIP3    H2 2794   0.428   2.798   4.666
  944TIP3   OH2 2795   6.902   4.986   2.735
  944TIP3    H1 2796   6.981   4.939   2.762
  944TIP3    H2 2797   6.903   5.067   2.786
  945TIP3   OH2 2798   3.939   5.935   0.526
  945TIP3    H1 2799   3.964   6.023   0.499
  945TIP3    H2 2800   3.955   5.933   0.620
  946TIP3   OH2 2801   5.767   0.477   1.121
  946TIP3    H1 2802   5.700   0.540   1.095
  946TIP3    H2 2803   5.773   0.416   1.047
  947TIP3   OH2 2804   0.750   2.672   0.604
  947TIP3    H1 2805   0.674   2.627   0.641
  947TIP3    H2 2806   0.785   2.724   0.676
  948TIP3   OH2 2807   4.296   0.874   3.944
  948TIP3    H1 2808   4.241   0.898   3.870
  948TIP3    H2 2809   4.319   0.958   3.984
  949TIP3   OH2 2810   2.385   0.778   2.581
  949TIP3    H1 2811   2.339   0.698   2.554
  949TIP3    H2 2812   2.478   0.755   2.574
  950TIP3   OH2 2813   1.232   3.416   3.663
  950TIP3    H1 2814   1.157   3.377   3.618
  950TIP3    H2 2815   1.286   3.341   3.688
  951TIP3   OH2 2816   1.700   3.773   3.234
  951TIP3    H1 2817   1.739   3.696   3.274
  951TIP3    H2 2818   1.606   3.755   3.234
  952TIP3   OH2 2819   1.787   5.182   4.447
  952TIP3    H1 2820   1.818   5.148   4.530
  952TIP3    H2 2821   1.809   5.275   4.449
  953TIP3   OH2 2822   4.856   0.315   4.608
  953TIP3    H1 2823   4.869   0.240   4.550
  953TIP3    H2 2824   4.802   0.282   4.679
  954TIP3   OH2 2825   2.039   4.058   3.751
  954TIP3    H1 2826   2.095   4.042   3.674
  954TIP3    H2 2827   1.962   4.102   3.716
  955TIP3   OH2 2828   5.857   1.958   1.637
  955TIP3    H1 2829   5.770   1.956   1.676
  955TIP3    H2 2830   5.845   1.916   1.551
  956TIP3   OH2 2831   4.509   2.921   0.309
  956TIP3    H1 2832   4.416   2.915   0.335
  956TIP3    H2 2833   4.513   2.881   0.223
  957TIP3   OH2 2834   2.043   1.488   0.966
  957TIP3    H1 2835   1.987   1.538   0.907
  957TIP3    H2 2836   1.996   1.489   1.050
  958TIP3   OH2 2837   6.362   2.661   2.916
  958TIP3    H1 2838   6.284   2.607   2.927
  958TIP3    H2 2839   6.328   2.747   2.890
  959TIP3   OH2 2840   3.996   0.853   4.669
  959TIP3    H1 2841   3.913   0.878   4.629
  959TIP3    H2 2842   4.025   0.776   4.620
  960TIP3   OH2 2843   1.165   6.136   4.115
  960TIP3    H1 2844   1.186   6.102   4.202
  960TIP3    H2 2845   1.118   6.064   4.073
  961TIP3   OH2 2846   1.474   3.434   1.644
  961TIP3    H1 2847   1.559   3.467   1.672
  961TIP3    H2 2848   1.430   3.408   1.725
  962TIP3   OH2 2849   4.510   1.877   0.464
  962TIP3    H1 2850   4.584   1.900   0.408
  962TIP3    H2 2851   4.493   1.785   0.443
  963TIP3   OH2 2852   0.479   3.557   1.682
  963TIP3    H1 2853   0.440   3.523   1.602
  963TIP3    H2 2854   0.447   3.647   1.689
  964TIP3   OH2 2855   1.958   0.976   0.329
  964TIP3    H1 2856   2.045   0.963   0.289
  964TIP3    H2 2857   1.938   0.892   0.371
  965TIP3   OH2 2858   6.164   2.843   0.436
  965TIP3    H1 2859   6.128   2.878   0.355
  965TIP3    H2 2860   6.146   2.749   0.432
  966TIP3   OH2 2861   6.877   3.353   5.376
  966TIP3    H1 2862   6.860   3.439   5.414
  966TIP3    H2 2863   6.951   3.319   5.426
  967TIP3   OH2 2864   0.842   3.353   3.646
  967TIP3    H1 2865   0.886   3.323   3.566
  967TIP3    H2 2866   0.894   3.427   3.677
  968TIP3   OH2 2867   3.299   0.533   2.039
  968TIP3    H1 2868   3.248   0.522   1.959
  968TIP3    H2 2869   3.357   0.608   2.020
  969TIP3   OH2 2870   1.788   0.726   3.743
  969TIP3    H1 2871   1.834   0.657   3.790
  969TIP3    H2 2872   1.764   0.790   3.810
  970TIP3   OH2 2873   5.743   4.723   3.164
  970TIP3    H1 2874   5.743   4.631   3.137
  970TIP3    H2 2875   5.795   4.768   3.098
  971TIP3   OH2 2876   3.026   1.209   1.626
  971TIP3    H1 2877   3.044   1.259   1.706
  971TIP3    H2 2878   2.989   1.273   1.566
  972TIP3   OH2 2879   2.482   1.648   4.622
  972TIP3    H1 2880   2.506   1.731   4.663
  972TIP3    H2 2881   2.389   1.638   4.640
  973TIP3   OH2 2882   5.053   1.292   2.485
  973TIP3    H1 2883   4.988   1.303   2.416
  973TIP3    H2 2884   5.061   1.197   2.496
  974TIP3   OH2 2885   4.659   2.313   4.567
  974TIP3    H1 2886   4.578   2.341   4.524
  974TIP3    H2 2887   4.714   2.282   4.495
  975TIP3   OH2 2888   5.218   3.577   2.281
  975TIP3    H1 2889   5.129   3.577   2.245
  975TIP3    H2 2890   5.274   3.567   2.204
  976TIP3   OH2 2891   2.657   1.879   0.603
  976TIP3    H1 2892   2.630   1.971   0.602
  976TIP3    H2 2893   2.575   1.830   0.591
  977TIP3   OH2 2894   0.490   5.133   4.609
  977TIP3    H1 2895   0.405   5.093   4.592
  977TIP3    H2 2896   0.519   5.164   4.524
  978TIP3   OH2 2897   5.094   4.786   0.484
  978TIP3    H1 2898   5.094   4.704   0.532
  978TIP3    H2 2899   5.044   4.847   0.539
  979TIP3   OH2 2900   4.685   5.157   3.006
  979TIP3    H1 2901   4.732   5.224   3.056
  979TIP3    H2 2902   4.651   5.203   2.929
  980TIP3   OH2 2903   1.300   5.028   3.808
  980TIP3    H1 2904   1.382   4.979   3.815
  980TIP3    H2 2905   1.319   5.097   3.745
  981TIP3   OH2 2906   3.779   1.434   5.377
  981TIP3    H1 2907   3.816   1.397   5.297
  981TIP3    H2 2908   3.768   1.527   5.357
  982TIP3   OH2 2909   4.429   3.880   5.596
  982TIP3    H1 2910   4.490   3.930   5.649
  982TIP3    H2 2911   4.423   3.795   5.639
  983TIP3   OH2 2912   6.216   5.852   2.191
  983TIP3    H1 2913   6.174   5.815   2.270
  983TIP3    H2 2914   6.250   5.937   2.220
  984TIP3   OH2 2915   3.217   4.064   3.777
  984TIP3    H1 2916   3.194   3.999   3.844
  984TIP3    H2 2917   3.209   4.016   3.694
  985TIP3   OH2 2918   6.056   5.969   5.263
  985TIP3    H1 2919   6.126   5.971   5.329
  985TIP3    H2 2920   5.993   6.035   5.293
  986TIP3   OH2 2921   4.623   3.610   0.714
  986TIP3    H1 2922   4.554   3.675   0.699
  986TIP3    H2 2923   4.584   3.547   0.774
  987TIP3   OH2 2924   1.722   5.698   1.357
  987TIP3    H1 2925   1.716   5.641   1.434
  987TIP3    H2 2926   1.671   5.775   1.381
  988TIP3   OH2 2927   5.913   2.901   3.908
  988TIP3    H1 2928   5.983   2.837   3.897
  988TIP3    H2 2929   5.920   2.959   3.832
  989TIP3   OH2 2930   5.423   6.120   3.190
  989TIP3    H1 2931   5.413   6.152   3.279
  989TIP3    H2 2932   5.512   6.084   3.187
  990TIP3   OH2 2933   2.497   5.423   3.504
  990TIP3    H1 2934   2.579   5.441   3.458
  990TIP3    H2 2935   2.522   5.362   3.574
  991TIP3   OH2 2936   4.195   6.750   2.268
  991TIP3    H1 2937   4.263   6.688   2.294
  991TIP3    H2 2938   4.214   6.829   2.319
  992TIP3   OH2 2939   0.507   6.300   5.794
  992TIP3    H1 2940   0.529   6.296   5.701
  992TIP3    H2 2941   0.418   6.266   5.799
  993TIP3   OH2 2942   2.524   2.538   4.190
  993TIP3    H1 2943   2.470   2.597   4.137
  993TIP3    H2 2944   2.472   2.458   4.199
  994TIP3   OH2 2945   4.398   3.373   0.859
  994TIP3    H1 2946   4.362   3.341   0.777
  994TIP3    H2 2947   4.481   3.326   0.870
  995TIP3   OH2 2948   0.890   1.608   3.738
  995TIP3    H1 2949   0.821   1.675   3.734
  995TIP3    H2 2950   0.896   1.574   3.649
  996TIP3   OH2 2951   3.292   4.087   0.706
  996TIP3    H1 2952   3.374   4.044   0.679
  996TIP3    H2 2953   3.270   4.044   0.789
  997TIP3   OH2 2954   1.450   0.345   5.079
  997TIP3    H1 2955   1.448   0.363   4.985
  997TIP3    H2 2956   1.446   0.250   5.086
  998TIP3   OH2 2957   0.840   0.441   1.264
  998TIP3    H1 2958   0.754   0.477   1.244
  998TIP3    H2 2959   0.824   0.377   1.333
  999TIP3   OH2 2960   1.687   6.187   3.282
  999TIP3    H1 2961   1.670   6.115   3.343
  999TIP3    H2 2962   1.620   6.177   3.215
 1000TIP3   OH2 2963   3.599   3.706   2.112
 1000TIP3    H1 2964   3.566   3.785   2.070
 1000TIP3    H2 2965   3.521   3.659   2.140
 1001TIP3   OH2 2966   0.747   5.526   4.718
 1001TIP3    H1 2967   0.733   5.614   4.684
 1001TIP3    H2 2968   0.718   5.469   4.646
 1002TIP3   OH2 2969   5.785   6.668   5.490
 1002TIP3    H1 2970   5.814   6.606   5.557
 1002TIP3    H2 2971   5.695   6.688   5.513
 1003TIP3   OH2 2972   5.712   2.088   1.216
 1003TIP3    H1 2973   5.622   2.096   1.249
 1003TIP3    H2 2974   5.767   2.109   1.291
 1004TIP3   OH2 2975   4.533   0.880   4.408
 1004TIP3    H1 2976   4.532   0.835   4.493
 1004TIP3    H2 2977   4.620   0.866   4.373
 1005TIP3   OH2 2978   4.882   3.477   1.507
 1005TIP3    H1 2979   4.802   3.498   1.555
 1005TIP3    H2 2980   4.952   3.505   1.566
 1006TIP3   OH2 2981   4.249   1.860   0.159
 1006TIP3    H1 2982   4.154   1.862   0.159
 1006TIP3    H2 2983   4.272   1.769   0.139
 1007TIP3   OH2 2984   6.284   0.330   2.976
 1007TIP3    H1 2985   6.191   0.308   2.986
 1007TIP3    H2 2986   6.286   0.390   2.902
 1008TIP3   OH2 2987   6.328   2.121   5.655
 1008TIP3    H1 2988   6.355   2.043   5.704
 1008TIP3    H2 2989   6.305   2.087   5.569
 1009TIP3   OH2 2990   6.378   4.309   5.298
 1009TIP3    H1 2991   6.459   4.352   5.327
 1009TIP3    H2 2992   6.404   4.258   5.222
 1010TIP3   OH2 2993   5.641   5.918   2.860
 1010TIP3    H1 2994   5.651   5.904   2.766
 1010TIP3    H2 2995   5.727   5.896   2.897
 1011TIP3   OH2 2996   6.721   4.174   0.093
 1011TIP3    H1 2997   6.745   4.267   0.093
 1011TIP3    H2 2998   6.625   4.174   0.097
 1012TIP3   OH2 2999   3.802   5.884   3.529
 1012TIP3    H1 3000   3.766   5.959   3.483
 1012TIP3    H2 3001   3.757   5.808   3.491
 1013TIP3   OH2 3002   5.967   5.115   5.110
 1013TIP3    H1 3003   5.876   5.124   5.139
 1013TIP3    H2 3004   5.991   5.026   5.136
 1014TIP3   OH2 3005   3.980   5.948   5.546
 1014TIP3    H1 3006   3.920   5.904   5.607
 1014TIP3    H2 3007   3.947   6.038   5.541
 1015TIP3   OH2 3008   6.199   5.444   2.971
 1015TIP3    H1 3009   6.270   5.467   3.031
 1015TIP3    H2 3010   6.188   5.349   2.983
 1016TIP3   OH2 3011   3.636   0.582   0.699
 1016TIP3    H1 3012   3.590   0.502   0.674
 1016TIP3    H2 3013   3.700   0.596   0.629
 1017TIP3   OH2 3014   2.173   6.653   1.421
 1017TIP3    H1 3015   2.226   6.619   1.493
 1017TIP3    H2 3016   2.085   6.663   1.459
 1018TIP3   OH2 3017   4.528   5.455   2.011
 1018TIP3    H1 3018   4.455   5.396   2.030
 1018TIP3    H2 3019   4.492   5.517   1.947
 1019TIP3   OH2 3020   1.489   5.612   0.455
 1019TIP3    H1 3021   1.474   5.518   0.439
 1019TIP3    H2 3022   1.562   5.635   0.396
 1020TIP3   OH2 3023   6.718   4.880   1.597
 1020TIP3    H1 3024   6.663   4.910   1.525
 1020TIP3    H2 3025   6.675   4.801   1.630
 1021TIP3   OH2 3026   5.917   1.544   1.360
 1021TIP3    H1 3027   5.906   1.450   1.377
 1021TIP3    H2 3028   5.959   1.548   1.275
 1022TIP3   OH2 3029   2.551   6.013   4.332
 1022TIP3    H1 3030   2.611   6.034   4.404
 1022TIP3    H2 3031   2.603   5.960   4.272
 1023TIP3   OH2 3032   1.542   4.471   5.463
 1023TIP3    H1 3033   1.530   4.542   5.400
 1023TIP3    H2 3034   1.606   4.413   5.422
 1024TIP3   OH2 3035   4.854   1.454   2.691
 1024TIP3    H1 3036   4.778   1.452   2.633
 1024TIP3    H2 3037   4.905   1.377   2.668
 1025TIP3   OH2 3038   2.221   5.998   2.718
 1025TIP3    H1 3039   2.157   6.045   2.772
 1025TIP3    H2 3040   2.177   5.988   2.634
 1026TIP3   OH2 3041   4.152   3.315   1.298
 1026TIP3    H1 3042   4.245   3.294   1.301
 1026TIP3    H2 3043   4.111   3.234   1.265
 1027TIP3   OH2 3044   0.334   4.566   1.439
 1027TIP3    H1 3045   0.252   4.531   1.474
 1027TIP3    H2 3046   0.326   4.556   1.344
 1028TIP3   OH2 3047   3.353   3.656   4.213
 1028TIP3    H1 3048   3.427   3.715   4.201
 1028TIP3    H2 3049   3.385   3.571   4.183
 1029TIP3   OH2 3050   0.966   0.228   4.375
 1029TIP3    H1 3051   0.895   0.253   4.434
 1029TIP3    H2 3052   0.995   0.310   4.336
 1030TIP3   OH2 3053   1.887   1.469   4.278
 1030TIP3    H1 3054   1.982   1.480   4.282
 1030TIP3    H2 3055   1.866   1.412   4.352
 1031TIP3   OH2 3056   3.826   1.400   3.998
 1031TIP3    H1 3057   3.752   1.342   3.979
 1031TIP3    H2 3058   3.887   1.385   3.925
 1032TIP3   OH2 3059   2.986   2.408   1.803
 1032TIP3    H1 3060   2.924   2.412   1.875
 1032TIP3    H2 3061   2.962   2.329   1.755
 1033TIP3   OH2 3062   6.851   3.435   5.098
 1033TIP3    H1 3063   6.798   3.492   5.154
 1033TIP3    H2 3064   6.792   3.365   5.072
 1034TIP3   OH2 3065   3.813   2.985   5.686
 1034TIP3    H1 3066   3.815   3.077   5.658
 1034TIP3    H2 3067   3.772   2.939   5.614
 1035TIP3   OH2 3068   3.803   0.752   1.769
 1035TIP3    H1 3069   3.824   0.675   1.716
 1035TIP3    H2 3070   3.880   0.808   1.760
 1036TIP3   OH2 3071   0.376   1.540   5.185
 1036TIP3    H1 3072   0.303   1.480   5.196
 1036TIP3    H2 3073   0.407   1.558   5.273
 1037TIP3   OH2 3074   0.293   3.620   0.959
 1037TIP3    H1 3075   0.227   3.610   0.891
 1037TIP3    H2 3076   0.328   3.532   0.972
 1038TIP3   OH2 3077   3.524   5.110   3.371
 1038TIP3    H1 3078   3.502   5.104   3.464
 1038TIP3    H2 3079   3.486   5.192   3.342
 1039TIP3   OH2 3080   5.350   2.762   0.527
 1039TIP3    H1 3081   5.306   2.844   0.546
 1039TIP3    H2 3082   5.299   2.723   0.456
 1040TIP3   OH2 3083   7.094   1.943   1.722
 1040TIP3    H1 3084   7.084   2.024   1.672
 1040TIP3    H2 3085   7.168   1.898   1.679
 1041TIP3   OH2 3086   1.775   5.592   4.677
 1041TIP3    H1 3087   1.859   5.554   4.701
 1041TIP3    H2 3088   1.783   5.613   4.584
 1042TIP3   OH2 3089   5.938   0.380   5.130
 1042TIP3    H1 3090   5.945   0.433   5.050
 1042TIP3    H2 3091   5.849   0.345   5.128
 1043TIP3   OH2 3092   1.585   4.577   2.385
 1043TIP3    H1 3093   1.517   4.511   2.399
 1043TIP3    H2 3094   1.609   4.605   2.474
 1044TIP3   OH2 3095   3.329   6.518   5.317
 1044TIP3    H1 3096   3.394   6.498   5.385
 1044TIP3    H2 3097   3.312   6.433   5.275
 1045TIP3   OH2 3098   5.851   0.083   3.396
 1045TIP3    H1 3099   5.865   0.078   3.490
 1045TIP3    H2 3100   5.931   0.121   3.361
 1046TIP3   OH2 3101   1.619   6.640   4.198
 1046TIP3    H1 3102   1.594   6.588   4.274
 1046TIP3    H2 3103   1.611   6.730   4.227
 1047TIP3   OH2 3104   0.610   2.871   2.581
 1047TIP3    H1 3105   0.612   2.949   2.525
 1047TIP3    H2 3106   0.683   2.883   2.642
 1048TIP3   OH2 3107   5.158   2.042   2.291
 1048TIP3    H1 3108   5.224   1.995   2.240
 1048TIP3    H2 3109   5.085   1.981   2.298
 1049TIP3   OH2 3110   2.056   3.662   3.607
 1049TIP3    H1 3111   2.129   3.602   3.621
 1049TIP3    H2 3112   2.023   3.641   3.519
 1050TIP3   OH2 3113   2.560   0.927   1.722
 1050TIP3    H1 3114   2.576   0.869   1.648
 1050TIP3    H2 3115   2.637   0.984   1.725
 1051TIP3   OH2 3116   3.095   4.201   0.558
 1051TIP3    H1 3117   3.151   4.154   0.619
 1051TIP3    H2 3118   3.055   4.133   0.504
 1052TIP3   OH2 3119   5.779   3.229   3.997
 1052TIP3    H1 3120   5.870   3.198   3.993
 1052TIP3    H2 3121   5.771   3.265   4.085
 1053TIP3   OH2 3122   6.446   1.385   4.184
 1053TIP3    H1 3123   6.466   1.423   4.099
 1053TIP3    H2 3124   6.517   1.323   4.200
 1054TIP3   OH2 3125   5.597   5.940   0.845
 1054TIP3    H1 3126   5.691   5.953   0.861
 1054TIP3    H2 3127   5.579   5.854   0.881
 1055TIP3   OH2 3128   4.675   5.469   0.237
 1055TIP3    H1 3129   4.698   5.379   0.258
 1055TIP3    H2 3130   4.660   5.511   0.322
 1056TIP3   OH2 3131   3.549   0.979   3.795
 1056TIP3    H1 3132   3.548   0.911   3.728
 1056TIP3    H2 3133   3.497   0.944   3.866
 1057TIP3   OH2 3134   2.773   4.959   4.491
 1057TIP3    H1 3135   2.816   5.040   4.463
 1057TIP3    H2 3136   2.843   4.895   4.497
 1058TIP3   OH2 3137   6.425   1.001   0.892
 1058TIP3    H1 3138   6.432   1.088   0.931
 1058TIP3    H2 3139   6.436   0.940   0.965
 1059TIP3   OH2 3140   6.245   6.366   0.905
 1059TIP3    H1 3141   6.244   6.335   0.996
 1059TIP3    H2 3142   6.323   6.326   0.867
 1060TIP3   OH2 3143   3.318   5.871   2.832
 1060TIP3    H1 3144   3.321   5.838   2.922
 1060TIP3    H2 3145   3.313   5.966   2.840
 1061TIP3   OH2 3146   1.960   0.302   2.339
 1061TIP3    H1 3147   2.019   0.248   2.287
 1061TIP3    H2 3148   1.966   0.265   2.427
 1062TIP3   OH2 3149   3.828   3.787   1.506
 1062TIP3    H1 3150   3.875   3.771   1.588
 1062TIP3    H2 3151   3.764   3.855   1.528
 1063TIP3   OH2 3152   0.276   4.905   4.114
 1063TIP3    H1 3153   0.233   4.886   4.197
 1063TIP3    H2 3154   0.366   4.874   4.126
 1064TIP3   OH2 3155   2.635   2.426   0.258
 1064TIP3    H1 3156   2.656   2.380   0.176
 1064TIP3    H2 3157   2.557   2.476   0.238
 1065TIP3   OH2 3158   0.942   2.730   3.693
 1065TIP3    H1 3159   0.955   2.680   3.613
 1065TIP3    H2 3160   0.871   2.686   3.738
 1066TIP3   OH2 3161   2.508   5.568   0.648
 1066TIP3    H1 3162   2.564   5.615   0.586
 1066TIP3    H2 3163   2.568   5.520   0.704
 1067TIP3   OH2 3164   6.775   2.367   1.119
 1067TIP3    H1 3165   6.722   2.296   1.082
 1067TIP3    H2 3166   6.822   2.403   1.045
 1068TIP3   OH2 3167   1.380   4.246   0.248
 1068TIP3    H1 3168   1.323   4.225   0.323
 1068TIP3    H2 3169   1.378   4.341   0.243
 1069TIP3   OH2 3170   3.935   5.578   3.944
 1069TIP3    H1 3171   3.866   5.512   3.946
 1069TIP3    H2 3172   3.946   5.599   3.851
 1070TIP3   OH2 3173   4.079   2.138   0.607
 1070TIP3    H1 3174   4.050   2.194   0.535
 1070TIP3    H2 3175   4.143   2.079   0.566
 1071TIP3   OH2 3176   4.492   5.850   5.704
 1071TIP3    H1 3177   4.435   5.923   5.681
 1071TIP3    H2 3178   4.565   5.891   5.750
 1072TIP3   OH2 3179   5.144   4.157   0.201
 1072TIP3    H1 3180   5.176   4.133   0.114
 1072TIP3    H2 3181   5.217   4.137   0.260
 1073TIP3   OH2 3182   1.259   4.101   4.888
 1073TIP3    H1 3183   1.205   4.168   4.930
 1073TIP3    H2 3184   1.315   4.067   4.958
 1074TIP3   OH2 3185   5.494   5.831   0.317
 1074TIP3    H1 3186   5.453   5.762   0.369
 1074TIP3    H2 3187   5.525   5.786   0.238
 1075TIP3   OH2 3188   6.022   3.106   4.996
 1075TIP3    H1 3189   5.971   3.121   5.076
 1075TIP3    H2 3190   6.109   3.084   5.028
 1076TIP3   OH2 3191   5.527   2.509   3.006
 1076TIP3    H1 3192   5.479   2.591   3.002
 1076TIP3    H2 3193   5.490   2.455   2.936
 1077TIP3   OH2 3194   5.345   2.798   4.615
 1077TIP3    H1 3195   5.429   2.753   4.630
 1077TIP3    H2 3196   5.332   2.852   4.693
 1078TIP3   OH2 3197   5.995   5.157   5.750
 1078TIP3    H1 3198   6.000   5.229   5.688
 1078TIP3    H2 3199   5.902   5.150   5.772
 1079TIP3   OH2 3200   2.811   3.144   5.725
 1079TIP3    H1 3201   2.839   3.053   5.732
 1079TIP3    H2 3202   2.892   3.194   5.727
 1080TIP3   OH2 3203   4.195   1.976   2.365
 1080TIP3    H1 3204   4.108   1.937   2.352
 1080TIP3    H2 3205   4.237   1.970   2.279
 1081TIP3   OH2 3206   0.818   5.115   2.531
 1081TIP3    H1 3207   0.764   5.065   2.592
 1081TIP3    H2 3208   0.895   5.140   2.582
 1082TIP3   OH2 3209   2.175   6.147   1.074
 1082TIP3    H1 3210   2.177   6.105   1.160
 1082TIP3    H2 3211   2.179   6.075   1.011
 1083TIP3   OH2 3212   3.771   1.502   2.435
 1083TIP3    H1 3213   3.805   1.537   2.353
 1083TIP3    H2 3214   3.847   1.464   2.479
 1084TIP3   OH2 3215   4.065   3.469   0.691
 1084TIP3    H1 3216   4.133   3.413   0.654
 1084TIP3    H2 3217   4.071   3.454   0.785
 1085TIP3   OH2 3218   2.183   1.797   3.940
 1085TIP3    H1 3219   2.179   1.732   3.871
 1085TIP3    H2 3220   2.255   1.855   3.916
 1086TIP3   OH2 3221   1.369   0.168   3.363
 1086TIP3    H1 3222   1.437   0.101   3.355
 1086TIP3    H2 3223   1.394   0.235   3.300
 1087TIP3   OH2 3224   0.842   2.877   0.409
 1087TIP3    H1 3225   0.935   2.897   0.421
 1087TIP3    H2 3226   0.819   2.821   0.483
 1088TIP3   OH2 3227   1.611   5.780   0.110
 1088TIP3    H1 3228   1.693   5.794   0.062
 1088TIP3    H2 3229   1.638   5.760   0.200
 1089TIP3   OH2 3230   1.659   0.662   0.673
 1089TIP3    H1 3231   1.694   0.736   0.722
 1089TIP3    H2 3232   1.569   0.685   0.653
 1090TIP3   OH2 3233   6.750   5.112   5.672
 1090TIP3    H1 3234   6.675   5.085   5.725
 1090TIP3    H2 3235   6.727   5.086   5.583
 1091TIP3   OH2 3236   0.398   2.839   0.718
 1091TIP3    H1 3237   0.445   2.872   0.794
 1091TIP3    H2 3238   0.435   2.752   0.702
 1092TIP3   OH2 3239   2.022   1.546   5.087
 1092TIP3    H1 3240   1.978   1.524   5.005
 1092TIP3    H2 3241   2.109   1.508   5.078
 1093TIP3   OH2 3242   3.797   3.873   3.142
 1093TIP3    H1 3243   3.719   3.827   3.112
 1093TIP3    H2 3244   3.851   3.805   3.183
 1094TIP3   OH2 3245   6.725   4.083   5.169
 1094TIP3    H1 3246   6.710   4.165   5.216
 1094TIP3    H2 3247   6.641   4.064   5.127
 1095TIP3   OH2 3248   4.824   0.355   1.400
 1095TIP3    H1 3249   4.855   0.339   1.489
 1095TIP3    H2 3250   4.781   0.440   1.403
 1096TIP3   OH2 3251   6.679   5.167   1.241
 1096TIP3    H1 3252   6.678   5.263   1.235
 1096TIP3    H2 3253   6.600   5.146   1.290
 1097TIP3   OH2 3254   2.951   1.490   5.808
 1097TIP3    H1 3255   2.988   1.527   5.888
 1097TIP3    H2 3256   2.963   1.559   5.742
 1098TIP3   OH2 3257   0.915   0.377   0.677
 1098TIP3    H1 3258   0.936   0.323   0.753
 1098TIP3    H2 3259   0.833   0.341   0.643
 1099TIP3   OH2 3260   4.197   1.776   3.116
 1099TIP3    H1 3261   4.260   1.833   3.072
 1099TIP3    H2 3262   4.242   1.748   3.196
 1100TIP3   OH2 3263   4.906   2.209   5.866
 1100TIP3    H1 3264   4.836   2.273   5.853
 1100TIP3    H2 3265   4.983   2.261   5.890
 1101TIP3   OH2 3266   6.328   2.478   3.549
 1101TIP3    H1 3267   6.361   2.388   3.553
 1101TIP3    H2 3268   6.286   2.491   3.633
 1102TIP3   OH2 3269   0.577   4.535   3.478
 1102TIP3    H1 3270   0.652   4.551   3.535
 1102TIP3    H2 3271   0.588   4.445   3.449
 1103TIP3   OH2 3272   3.781   3.742   1.246
 1103TIP3    H1 3273   3.766   3.730   1.340
 1103TIP3    H2 3274   3.700   3.782   1.214
 1104TIP3   OH2 3275   0.700   4.944   2.721
 1104TIP3    H1 3276   0.619   4.930   2.673
 1104TIP3    H2 3277   0.711   4.865   2.774
 1105TIP3   OH2 3278   3.007   5.054   3.881
 1105TIP3    H1 3279   2.940   4.987   3.887
 1105TIP3    H2 3280   2.974   5.116   3.815
 1106TIP3   OH2 3281   3.241   5.654   5.425
 1106TIP3    H1 3282   3.236   5.704   5.344
 1106TIP3    H2 3283   3.152   5.653   5.459
 1107TIP3   OH2 3284   6.507   5.050   2.881
 1107TIP3    H1 3285   6.524   5.008   2.797
 1107TIP3    H2 3286   6.585   5.104   2.897
 1108TIP3   OH2 3287   1.873   0.890   1.684
 1108TIP3    H1 3288   1.795   0.864   1.734
 1108TIP3    H2 3289   1.894   0.814   1.630
 1109TIP3   OH2 3290   0.285   1.537   4.544
 1109TIP3    H1 3291   0.336   1.471   4.498
 1109TIP3    H2 3292   0.335   1.618   4.532
 1110TIP3   OH2 3293   5.910   1.485   0.109
 1110TIP3    H1 3294   5.896   1.408   0.054
 1110TIP3    H2 3295   5.880   1.459   0.196
 1111TIP3   OH2 3296   3.113   5.907   0.987
 1111TIP3    H1 3297   3.134   5.830   1.041
 1111TIP3    H2 3298   3.109   5.979   1.050
 1112TIP3   OH2 3299   5.076   0.445   4.714
 1112TIP3    H1 3300   5.009   0.404   4.660
 1112TIP3    H2 3301   5.031   0.468   4.796
 1113TIP3   OH2 3302   1.668   0.486   5.154
 1113TIP3    H1 3303   1.682   0.568   5.108
 1113TIP3    H2 3304   1.580   0.458   5.127
 1114TIP3   OH2 3305   4.293   6.577   1.377
 1114TIP3    H1 3306   4.301   6.498   1.324
 1114TIP3    H2 3307   4.335   6.645   1.324
 1115TIP3   OH2 3308   4.544   3.619   2.242
 1115TIP3    H1 3309   4.486   3.653   2.311
 1115TIP3    H2 3310   4.573   3.696   2.194
 1116TIP3   OH2 3311   4.342   1.316   5.849
 1116TIP3    H1 3312   4.433   1.300   5.822
 1116TIP3    H2 3313   4.311   1.384   5.789
 1117TIP3   OH2 3314   0.784   4.885   3.376
 1117TIP3    H1 3315   0.700   4.908   3.337
 1117TIP3    H2 3316   0.762   4.848   3.461
 1118TIP3   OH2 3317   3.863   2.931   4.584
 1118TIP3    H1 3318   3.877   2.856   4.641
 1118TIP3    H2 3319   3.812   2.896   4.510
 1119TIP3   OH2 3320   4.688   3.964   0.944
 1119TIP3    H1 3321   4.766   3.980   0.997
 1119TIP3    H2 3322   4.643   3.892   0.989
 1120TIP3   OH2 3323   2.542   3.222   0.324
 1120TIP3    H1 3324   2.471   3.217   0.260
 1120TIP3    H2 3325   2.507   3.277   0.394
 1121TIP3   OH2 3326   0.660   5.245   3.845
 1121TIP3    H1 3327   0.575   5.289   3.857
 1121TIP3    H2 3328   0.717   5.312   3.807
 1122TIP3   OH2 3329   6.807   1.776   5.580
 1122TIP3    H1 3330   6.785   1.706   5.641
 1122TIP3    H2 3331   6.814   1.733   5.495
 1123TIP3   OH2 3332   2.831   5.212   1.882
 1123TIP3    H1 3333   2.858   5.302   1.899
 1123TIP3    H2 3334   2.753   5.220   1.826
 1124TIP3   OH2 3335   3.182   0.880   0.279
 1124TIP3    H1 3336   3.152   0.791   0.297
 1124TIP3    H2 3337   3.278   0.875   0.283
 1125TIP3   OH2 3338   3.146   5.668   1.166
 1125TIP3    H1 3339   3.099   5.586   1.177
 1125TIP3    H2 3340   3.134   5.714   1.250
 1126TIP3   OH2 3341   6.379   3.323   0.175
 1126TIP3    H1 3342   6.333   3.388   0.123
 1126TIP3    H2 3343   6.325   3.311   0.253
 1127TIP3   OH2 3344   6.847   1.179   1.619
 1127TIP3    H1 3345   6.788   1.222   1.681
 1127TIP3    H2 3346   6.915   1.244   1.602
 1128TIP3   OH2 3347   3.184   4.789   1.052
 1128TIP3    H1 3348   3.260   4.736   1.024
 1128TIP3    H2 3349   3.220   4.851   1.115
 1129TIP3   OH2 3350   2.384   2.505   5.746
 1129TIP3    H1 3351   2.473   2.504   5.781
 1129TIP3    H2 3352   2.380   2.585   5.693
 1130TIP3   OH2 3353   0.234   3.777   2.640
 1130TIP3    H1 3354   0.164   3.711   2.635
 1130TIP3    H2 3355   0.231   3.821   2.555
 1131TIP3   OH2 3356   0.085   0.410   2.836
 1131TIP3    H1 3357   0.082   0.349   2.910
 1131TIP3    H2 3358   0.055   0.493   2.873
 1132TIP3   OH2 3359   4.336   0.891   1.303
 1132TIP3    H1 3360   4.258   0.942   1.324
 1132TIP3    H2 3361   4.312   0.842   1.225
 1133TIP3   OH2 3362   2.625   2.782   4.712
 1133TIP3    H1 3363   2.696   2.796   4.776
 1133TIP3    H2 3364   2.545   2.791   4.764
 1134TIP3   OH2 3365   3.312   6.797   0.166
 1134TIP3    H1 3366   3.358   6.717   0.140
 1134TIP3    H2 3367   3.342   6.814   0.255
 1135TIP3   OH2 3368   4.404   6.690   4.728
 1135TIP3    H1 3369   4.315   6.703   4.694
 1135TIP3    H2 3370   4.396   6.620   4.792
 1136TIP3   OH2 3371   5.576   1.825   0.776
 1136TIP3    H1 3372   5.637   1.830   0.849
 1136TIP3    H2 3373   5.526   1.906   0.781
 1137TIP3   OH2 3374   0.946   4.474   2.267
 1137TIP3    H1 3375   0.977   4.416   2.198
 1137TIP3    H2 3376   0.864   4.435   2.297
 1138TIP3   OH2 3377   0.565   2.391   2.644
 1138TIP3    H1 3378   0.637   2.374   2.704
 1138TIP3    H2 3379   0.509   2.314   2.650
 1139TIP3   OH2 3380   6.585   3.081   1.644
 1139TIP3    H1 3381   6.491   3.082   1.625
 1139TIP3    H2 3382   6.611   3.173   1.642
 1140TIP3   OH2 3383   0.882   1.979   0.230
 1140TIP3    H1 3384   0.894   1.996   0.137
 1140TIP3    H2 3385   0.868   2.066   0.269
 1141TIP3   OH2 3386   6.869   4.136   3.063
 1141TIP3    H1 3387   6.775   4.149   3.071
 1141TIP3    H2 3388   6.883   4.120   2.969
 1142TIP3   OH2 3389   3.954   5.670   2.208
 1142TIP3    H1 3390   3.926   5.757   2.178
 1142TIP3    H2 3391   3.913   5.609   2.146
 1143TIP3   OH2 3392   4.299   0.064   0.297
 1143TIP3    H1 3393   4.323  -0.020   0.337
 1143TIP3    H2 3394   4.306   0.127   0.368
 1144TIP3   OH2 3395   0.815   4.444   3.568
 1144TIP3    H1 3396   0.789   4.387   3.640
 1144TIP3    H2 3397   0.847   4.524   3.611
 1145TIP3   OH2 3398   2.524   5.811   1.246
 1145TIP3    H1 3399   2.447   5.832   1.298
 1145TIP3    H2 3400   2.547   5.892   1.202
 1146TIP3   OH2 3401   2.603   5.288   1.425
 1146TIP3    H1 3402   2.607   5.230   1.349
 1146TIP3    H2 3403   2.517   5.330   1.418
 1147TIP3   OH2 3404   0.354   1.809   2.234
 1147TIP3    H1 3405   0.363   1.881   2.171
 1147TIP3    H2 3406   0.430   1.754   2.219
 1148TIP3   OH2 3407   2.661   3.105   4.799
 1148TIP3    H1 3408   2.643   3.126   4.708
 1148TIP3    H2 3409   2.576   3.112   4.843
 1149TIP3   OH2 3410   5.563   5.347   4.117
 1149TIP3    H1 3411   5.542   5.263   4.076
 1149TIP3    H2 3412   5.656   5.359   4.101
 1150TIP3   OH2 3413   2.791   1.509   5.365
 1150TIP3    H1 3414   2.710   1.536   5.322
 1150TIP3    H2 3415   2.855   1.576   5.341
 1151TIP3   OH2 3416   4.325   1.259   2.559
 1151TIP3    H1 3417   4.390   1.207   2.607
 1151TIP3    H2 3418   4.251   1.266   2.619
 1152TIP3   OH2 3419   1.399   5.064   2.920
 1152TIP3    H1 3420   1.394   4.987   2.863
 1152TIP3    H2 3421   1.481   5.107   2.895
 1153TIP3   OH2 3422   3.495   5.735   4.394
 1153TIP3    H1 3423   3.569   5.692   4.435
 1153TIP3    H2 3424   3.534   5.802   4.337
 1154TIP3   OH2 3425   5.496   1.206   3.861
 1154TIP3    H1 3426   5.475   1.143   3.791
 1154TIP3    H2 3427   5.424   1.269   3.859
 1155TIP3   OH2 3428   3.322   1.167   0.810
 1155TIP3    H1 3429   3.398   1.190   0.757
 1155TIP3    H2 3430   3.266   1.244   0.809
 1156TIP3   OH2 3431   3.885   1.076   3.230
 1156TIP3    H1 3432   3.823   1.096   3.301
 1156TIP3    H2 3433   3.831   1.033   3.164
 1157TIP3   OH2 3434   1.036   2.494   0.833
 1157TIP3    H1 3435   1.025   2.406   0.870
 1157TIP3    H2 3436   1.048   2.479   0.739
 1158TIP3   OH2 3437   0.435   6.501   3.146
 1158TIP3    H1 3438   0.444   6.587   3.187
 1158TIP3    H2 3439   0.474   6.511   3.059
 1159TIP3   OH2 3440   5.129   3.067   4.974
 1159TIP3    H1 3441   5.182   3.018   4.911
 1159TIP3    H2 3442   5.190   3.128   5.015
 1160TIP3   OH2 3443   6.699   0.919   4.152
 1160TIP3    H1 3444   6.755   0.977   4.204
 1160TIP3    H2 3445   6.715   0.832   4.188
 1161TIP3   OH2 3446   3.225   1.846   5.775
 1161TIP3    H1 3447   3.133   1.839   5.803
 1161TIP3    H2 3448   3.221   1.888   5.690
 1162TIP3   OH2 3449   2.409   3.415   4.695
 1162TIP3    H1 3450   2.411   3.452   4.783
 1162TIP3    H2 3451   2.328   3.363   4.692
 1163TIP3   OH2 3452   2.057   6.378   5.435
 1163TIP3    H1 3453   2.066   6.283   5.436
 1163TIP3    H2 3454   2.119   6.408   5.501
 1164TIP3   OH2 3455   5.415   3.069   1.173
 1164TIP3    H1 3456   5.325   3.091   1.200
 1164TIP3    H2 3457   5.416   2.974   1.168
 1165TIP3   OH2 3458   5.974   0.640   1.071
 1165TIP3    H1 3459   5.910   0.571   1.090
 1165TIP3    H2 3460   6.026   0.647   1.151
 1166TIP3   OH2 3461   6.604   1.767   0.419
 1166TIP3    H1 3462   6.690   1.739   0.450
 1166TIP3    H2 3463   6.609   1.759   0.323
 1167TIP3   OH2 3464   0.062   5.667   2.251
 1167TIP3    H1 3465   0.095   5.655   2.161
 1167TIP3    H2 3466  -0.017   5.720   2.240
 1168TIP3   OH2 3467   5.992   3.953   0.411
 1168TIP3    H1 3468   5.946   4.033   0.386
 1168TIP3    H2 3469   6.059   3.982   0.472
 1169TIP3   OH2 3470   7.237   4.317   1.779
 1169TIP3    H1 3471   7.153   4.355   1.805
 1169TIP3    H2 3472   7.237   4.230   1.819
 1170TIP3   OH2 3473   3.554   1.010   1.327
 1170TIP3    H1 3474   3.524   1.029   1.417
 1170TIP3    H2 3475   3.605   0.930   1.335
 1171TIP3   OH2 3476   1.528   0.785   1.639
 1171TIP3    H1 3477   1.560   0.716   1.581
 1171TIP3    H2 3478   1.542   0.749   1.727
 1172TIP3   OH2 3479   5.736   5.963   2.554
 1172TIP3    H1 3480   5.744   5.894   2.487
 1172TIP3    H2 3481   5.682   6.030   2.513
 1173TIP3   OH2 3482   6.294   5.075   3.985
 1173TIP3    H1 3483   6.215   5.112   3.946
 1173TIP3    H2 3484   6.310   4.995   3.934
 1174TIP3   OH2 3485   5.923   4.786   2.955
 1174TIP3    H1 3486   5.974   4.852   2.910
 1174TIP3    H2 3487   5.907   4.718   2.890
 1175TIP3   OH2 3488   3.221   5.206   5.435
 1175TIP3    H1 3489   3.137   5.161   5.440
 1175TIP3    H2 3490   3.285   5.135   5.430
 1176TIP3   OH2 3491   1.672   5.382   5.633
 1176TIP3    H1 3492   1.693   5.427   5.551
 1176TIP3    H2 3493   1.692   5.290   5.616
 1177TIP3   OH2 3494   1.062   3.444   1.139
 1177TIP3    H1 3495   1.098   3.520   1.185
 1177TIP3    H2 3496   1.026   3.480   1.058
 1178TIP3   OH2 3497   2.369   2.446   0.200
 1178TIP3    H1 3498   2.309   2.433   0.127
 1178TIP3    H2 3499   2.390   2.540   0.198
 1179TIP3   OH2 3500   3.284   3.189   3.026
 1179TIP3    H1 3501   3.230   3.121   3.066
 1179TIP3    H2 3502   3.316   3.149   2.945
 1180TIP3   OH2 3503  -0.005   5.733   3.214
 1180TIP3    H1 3504  -0.055   5.815   3.205
 1180TIP3    H2 3505   0.072   5.745   3.159
 1181TIP3   OH2 3506   4.704   3.936   4.391
 1181TIP3    H1 3507   4.739   3.890   4.468
 1181TIP3    H2 3508   4.778   3.987   4.359
 1182TIP3   OH2 3509   3.026   5.350   5.560
 1182TIP3    H1 3510   3.009   5.442   5.541
 1182TIP3    H2 3511   3.101   5.328   5.505
 1183TIP3   OH2 3512   5.870   2.576   2.561
 1183TIP3    H1 3513   5.816   2.522   2.503
 1183TIP3    H2 3514   5.893   2.518   2.633
 1184TIP3   OH2 3515   5.758   4.130   5.616
 1184TIP3    H1 3516   5.847   4.155   5.641
 1184TIP3    H2 3517   5.720   4.095   5.697
 1185TIP3   OH2 3518   1.203   5.461   2.446
 1185TIP3    H1 3519   1.189   5.403   2.371
 1185TIP3    H2 3520   1.224   5.402   2.518
 1186TIP3   OH2 3521   2.406   5.490   5.067
 1186TIP3    H1 3522   2.323   5.536   5.057
 1186TIP3    H2 3523   2.381   5.399   5.082
 1187TIP3   OH2 3524   2.301   4.444   3.786
 1187TIP3    H1 3525   2.315   4.538   3.797
 1187TIP3    H2 3526   2.246   4.436   3.709
 1188TIP3   OH2 3527   1.685   4.913   3.346
 1188TIP3    H1 3528   1.747   4.944   3.280
 1188TIP3    H2 3529   1.631   4.849   3.300
 1189TIP3   OH2 3530   1.619   1.413   1.161
 1189TIP3    H1 3531   1.694   1.356   1.178
 1189TIP3    H2 3532   1.558   1.358   1.112
 1190TIP3   OH2 3533   5.068   2.987   2.882
 1190TIP3    H1 3534   5.059   3.053   2.951
 1190TIP3    H2 3535   5.072   2.904   2.930
 1191TIP3   OH2 3536   3.503   3.887   2.836
 1191TIP3    H1 3537   3.542   3.870   2.750
 1191TIP3    H2 3538   3.571   3.934   2.885
 1192TIP3   OH2 3539   3.871   1.556   2.836
 1192TIP3    H1 3540   3.902   1.600   2.916
 1192TIP3    H2 3541   3.943   1.498   2.812
 1193TIP3   OH2 3542   4.314   0.642   5.746
 1193TIP3    H1 3543   4.247   0.696   5.704
 1193TIP3    H2 3544   4.321   0.678   5.834
 1194TIP3   OH2 3545   0.011   6.574   0.403
 1194TIP3    H1 3546   0.053   6.505   0.352
 1194TIP3    H2 3547   0.069   6.588   0.478
 1195TIP3   OH2 3548   1.884   4.562   5.461
 1195TIP3    H1 3549   1.833   4.548   5.382
 1195TIP3    H2 3550   1.970   4.590   5.429
 1196TIP3   OH2 3551   6.153   1.614   0.980
 1196TIP3    H1 3552   6.097   1.684   1.014
 1196TIP3    H2 3553   6.210   1.657   0.917
 1197TIP3   OH2 3554   4.923   3.832   5.348
 1197TIP3    H1 3555   4.981   3.889   5.297
 1197TIP3    H2 3556   4.840   3.878   5.349
 1198TIP3   OH2 3557   0.012   1.744   0.924
 1198TIP3    H1 3558   0.056   1.660   0.909
 1198TIP3    H2 3559   0.063   1.785   0.994
 1199TIP3   OH2 3560   6.142   0.212   5.770
 1199TIP3    H1 3561   6.226   0.188   5.731
 1199TIP3    H2 3562   6.094   0.255   5.699
 1200TIP3   OH2 3563   7.220   4.697   0.361
 1200TIP3    H1 3564   7.185   4.663   0.444
 1200TIP3    H2 3565   7.180   4.783   0.351
 1201TIP3   OH2 3566   1.613   2.891   2.892
 1201TIP3    H1 3567   1.662   2.818   2.931
 1201TIP3    H2 3568   1.593   2.862   2.803
 1202TIP3   OH2 3569   2.049   2.455   0.214
 1202TIP3    H1 3570   2.073   2.404   0.137
 1202TIP3    H2 3571   1.955   2.441   0.223
 1203TIP3   OH2 3572   3.959   0.881   2.200
 1203TIP3    H1 3573   4.041   0.893   2.248
 1203TIP3    H2 3574   3.952   0.958   2.144
 1204TIP3   OH2 3575   1.358   1.265   3.041
 1204TIP3    H1 3576   1.311   1.274   2.958
 1204TIP3    H2 3577   1.292   1.284   3.108
 1205TIP3   OH2 3578   4.762   2.132   1.643
 1205TIP3    H1 3579   4.831   2.193   1.670
 1205TIP3    H2 3580   4.690   2.188   1.615
 1206TIP3   OH2 3581   2.812   0.891   3.137
 1206TIP3    H1 3582   2.723   0.927   3.140
 1206TIP3    H2 3583   2.837   0.898   3.045
 1207TIP3   OH2 3584   3.631   1.437   2.108
 1207TIP3    H1 3585   3.634   1.438   2.012
 1207TIP3    H2 3586   3.705   1.381   2.133
 1208TIP3   OH2 3587   0.146   3.689   2.943
 1208TIP3    H1 3588   0.194   3.728   2.869
 1208TIP3    H2 3589   0.212   3.681   3.012
 1209TIP3   OH2 3590   5.425   5.780   4.193
 1209TIP3    H1 3591   5.367   5.747   4.263
 1209TIP3    H2 3592   5.435   5.706   4.133
 1210TIP3   OH2 3593   0.849   1.637   0.536
 1210TIP3    H1 3594   0.813   1.618   0.623
 1210TIP3    H2 3595   0.944   1.636   0.549
 1211TIP3   OH2 3596   5.422   6.207   0.446
 1211TIP3    H1 3597   5.444   6.254   0.366
 1211TIP3    H2 3598   5.502   6.210   0.499
 1212TIP3   OH2 3599   2.999   0.625   3.767
 1212TIP3    H1 3600   3.046   0.686   3.824
 1212TIP3    H2 3601   2.914   0.665   3.753
 1213TIP3   OH2 3602   4.998   5.945   1.862
 1213TIP3    H1 3603   5.071   6.004   1.847
 1213TIP3    H2 3604   4.933   5.970   1.796
 1214TIP3   OH2 3605   0.936   1.588   5.155
 1214TIP3    H1 3606   1.012   1.634   5.191
 1214TIP3    H2 3607   0.971   1.506   5.122
 1215TIP3   OH2 3608   4.578   6.379   3.280
 1215TIP3    H1 3609   4.662   6.334   3.272
 1215TIP3    H2 3610   4.601   6.471   3.294
 1216TIP3   OH2 3611   1.497   4.832   1.523
 1216TIP3    H1 3612   1.579   4.794   1.492
 1216TIP3    H2 3613   1.444   4.757   1.547
 1217TIP3   OH2 3614   0.774   0.551   0.106
 1217TIP3    H1 3615   0.836   0.617   0.136
 1217TIP3    H2 3616   0.691   0.597   0.095
 1218TIP3   OH2 3617   2.774   3.834   1.122
 1218TIP3    H1 3618   2.691   3.880   1.132
 1218TIP3    H2 3619   2.777   3.773   1.195
 1219TIP3   OH2 3620   3.886   0.094   4.721
 1219TIP3    H1 3621   3.832   0.160   4.763
 1219TIP3    H2 3622   3.857   0.011   4.759
 1220TIP3   OH2 3623   6.910   3.519   1.719
 1220TIP3    H1 3624   6.871   3.603   1.744
 1220TIP3    H2 3625   6.906   3.466   1.799
 1221TIP3   OH2 3626   5.700   1.063   2.535
 1221TIP3    H1 3627   5.616   1.101   2.561
 1221TIP3    H2 3628   5.765   1.112   2.585
 1222TIP3   OH2 3629   3.321   0.390   1.319
 1222TIP3    H1 3630   3.365   0.450   1.259
 1222TIP3    H2 3631   3.232   0.382   1.284
 1223TIP3   OH2 3632   2.406   6.648   5.560
 1223TIP3    H1 3633   2.392   6.743   5.559
 1223TIP3    H2 3634   2.502   6.638   5.562
 1224TIP3   OH2 3635   0.593   6.351   0.637
 1224TIP3    H1 3636   0.581   6.291   0.711
 1224TIP3    H2 3637   0.682   6.334   0.606
 1225TIP3   OH2 3638   6.107   5.182   0.393
 1225TIP3    H1 3639   6.017   5.160   0.367
 1225TIP3    H2 3640   6.097   5.259   0.449
 1226TIP3   OH2 3641   6.813   2.108   2.446
 1226TIP3    H1 3642   6.859   2.066   2.519
 1226TIP3    H2 3643   6.833   2.052   2.371
 1227TIP3   OH2 3644   2.711   1.814   5.090
 1227TIP3    H1 3645   2.787   1.795   5.145
 1227TIP3    H2 3646   2.654   1.738   5.101
 1228TIP3   OH2 3647   6.738   6.038   3.648
 1228TIP3    H1 3648   6.769   5.957   3.688
 1228TIP3    H2 3649   6.735   6.019   3.554
 1229TIP3   OH2 3650   2.383   5.794   0.772
 1229TIP3    H1 3651   2.401   5.746   0.691
 1229TIP3    H2 3652   2.412   5.883   0.754
 1230TIP3   OH2 3653   5.498   1.550   3.446
 1230TIP3    H1 3654   5.422   1.529   3.391
 1230TIP3    H2 3655   5.479   1.637   3.481
 1231TIP3   OH2 3656   6.489   1.090   1.943
 1231TIP3    H1 3657   6.445   1.040   1.874
 1231TIP3    H2 3658   6.579   1.059   1.942
 1232TIP3   OH2 3659   3.565   2.871   0.240
 1232TIP3    H1 3660   3.512   2.950   0.241
 1232TIP3    H2 3661   3.525   2.815   0.307
 1233TIP3   OH2 3662   2.643   4.501   3.978
 1233TIP3    H1 3663   2.614   4.476   3.890
 1233TIP3    H2 3664   2.584   4.573   4.003
 1234TIP3   OH2 3665   5.616   5.516   1.222
 1234TIP3    H1 3666   5.658   5.595   1.186
 1234TIP3    H2 3667   5.601   5.537   1.314
 1235TIP3   OH2 3668   2.439   6.014   1.746
 1235TIP3    H1 3669   2.366   5.973   1.794
 1235TIP3    H2 3670   2.426   6.108   1.758
 1236TIP3   OH2 3671   1.152   4.693   2.203
 1236TIP3    H1 3672   1.087   4.626   2.226
 1236TIP3    H2 3673   1.114   4.775   2.237
 1237TIP3   OH2 3674   4.274   2.798   2.049
 1237TIP3    H1 3675   4.181   2.817   2.060
 1237TIP3    H2 3676   4.287   2.794   1.954
 1238TIP3   OH2 3677   0.373   1.011   2.422
 1238TIP3    H1 3678   0.415   1.024   2.507
 1238TIP3    H2 3679   0.292   1.062   2.427
 1239TIP3   OH2 3680   1.655   2.739   3.704
 1239TIP3    H1 3681   1.575   2.694   3.730
 1239TIP3    H2 3682   1.726   2.679   3.726
 1240TIP3   OH2 3683   2.973   5.360   1.633
 1240TIP3    H1 3684   2.909   5.401   1.574
 1240TIP3    H2 3685   2.927   5.355   1.717
 1241TIP3   OH2 3686   4.383   5.048   5.800
 1241TIP3    H1 3687   4.288   5.050   5.815
 1241TIP3    H2 3688   4.402   5.132   5.757
 1242TIP3   OH2 3689   1.395   4.159   0.712
 1242TIP3    H1 3690   1.392   4.099   0.637
 1242TIP3    H2 3691   1.473   4.133   0.760
 1243TIP3   OH2 3692   6.433   3.311   3.810
 1243TIP3    H1 3693   6.373   3.238   3.826
 1243TIP3    H2 3694   6.503   3.274   3.757
 1244TIP3   OH2 3695   2.194   4.413   2.256
 1244TIP3    H1 3696   2.163   4.421   2.346
 1244TIP3    H2 3697   2.121   4.372   2.209
 1245TIP3   OH2 3698   0.087   6.578   4.813
 1245TIP3    H1 3699   0.033   6.652   4.841
 1245TIP3    H2 3700   0.121   6.541   4.895
 1246TIP3   OH2 3701   6.806   6.611   4.569
 1246TIP3    H1 3702   6.783   6.591   4.478
 1246TIP3    H2 3703   6.729   6.586   4.620
 1247TIP3   OH2 3704   7.125   1.121   2.210
 1247TIP3    H1 3705   7.054   1.099   2.270
 1247TIP3    H2 3706   7.170   1.038   2.195
 1248TIP3   OH2 3707   2.787   2.613   4.155
 1248TIP3    H1 3708   2.786   2.697   4.109
 1248TIP3    H2 3709   2.698   2.602   4.187
 1249TIP3   OH2 3710   5.261   0.847   0.106
 1249TIP3    H1 3711   5.347   0.845   0.064
 1249TIP3    H2 3712   5.281   0.864   0.199
 1250TIP3   OH2 3713   0.459   1.667   2.479
 1250TIP3    H1 3714   0.410   1.598   2.434
 1250TIP3    H2 3715   0.394   1.709   2.535
 1251TIP3   OH2 3716   5.595   4.900   0.388
 1251TIP3    H1 3717   5.551   4.984   0.401
 1251TIP3    H2 3718   5.592   4.885   0.293
 1252TIP3   OH2 3719   3.188   1.642   2.300
 1252TIP3    H1 3720   3.229   1.582   2.238
 1252TIP3    H2 3721   3.098   1.650   2.270
 1253TIP3   OH2 3722   6.400   2.219   0.458
 1253TIP3    H1 3723   6.385   2.197   0.366
 1253TIP3    H2 3724   6.492   2.200   0.474
 1254TIP3   OH2 3725   1.710   4.426   1.385
 1254TIP3    H1 3726   1.626   4.406   1.426
 1254TIP3    H2 3727   1.769   4.357   1.416
 1255TIP3   OH2 3728   3.568   5.375   3.028
 1255TIP3    H1 3729   3.530   5.296   2.990
 1255TIP3    H2 3730   3.545   5.370   3.121
 1256TIP3   OH2 3731   0.685   0.548   4.366
 1256TIP3    H1 3732   0.683   0.464   4.413
 1256TIP3    H2 3733   0.774   0.553   4.330
 1257TIP3   OH2 3734   4.753   1.028   1.073
 1257TIP3    H1 3735   4.806   1.092   1.026
 1257TIP3    H2 3736   4.812   0.954   1.087
 1258TIP3   OH2 3737   2.867   1.123   1.263
 1258TIP3    H1 3738   2.909   1.125   1.177
 1258TIP3    H2 3739   2.920   1.062   1.314
 1259TIP3   OH2 3740   4.293   3.516   4.126
 1259TIP3    H1 3741   4.371   3.488   4.174
 1259TIP3    H2 3742   4.236   3.554   4.192
 1260TIP3   OH2 3743   0.075   3.633   3.865
 1260TIP3    H1 3744   0.053   3.605   3.954
 1260TIP3    H2 3745   0.112   3.721   3.876
 1261TIP3   OH2 3746   4.204   2.773   2.973
 1261TIP3    H1 3747   4.132   2.713   2.952
 1261TIP3    H2 3748   4.267   2.759   2.903
 1262TIP3   OH2 3749   3.870   2.082   1.178
 1262TIP3    H1 3750   3.927   2.015   1.140
 1262TIP3    H2 3751   3.799   2.091   1.115
 1263TIP3   OH2 3752   0.028   4.812   1.893
 1263TIP3    H1 3753  -0.065   4.793   1.879
 1263TIP3    H2 3754   0.047   4.778   1.980
 1264TIP3   OH2 3755   3.822   2.944   0.237
 1264TIP3    H1 3756   3.820   3.037   0.215
 1264TIP3    H2 3757   3.731   2.915   0.229
 1265TIP3   OH2 3758   6.464   5.601   4.894
 1265TIP3    H1 3759   6.498   5.622   4.807
 1265TIP3    H2 3760   6.527   5.540   4.931
 1266TIP3   OH2 3761   5.586   2.955   5.616
 1266TIP3    H1 3762   5.617   3.009   5.543
 1266TIP3    H2 3763   5.577   3.016   5.689
 1267TIP3   OH2 3764   2.777   6.046   2.537
 1267TIP3    H1 3765   2.815   6.098   2.608
 1267TIP3    H2 3766   2.770   6.107   2.464
 1268TIP3   OH2 3767   6.539   3.616   4.928
 1268TIP3    H1 3768   6.554   3.706   4.958
 1268TIP3    H2 3769   6.612   3.599   4.868
 1269TIP3   OH2 3770   3.309   2.606   4.184
 1269TIP3    H1 3771   3.296   2.513   4.203
 1269TIP3    H2 3772   3.269   2.619   4.098
 1270TIP3   OH2 3773   2.019   4.968   5.685
 1270TIP3    H1 3774   2.081   5.035   5.655
 1270TIP3    H2 3775   2.038   4.957   5.778
 1271TIP3   OH2 3776   2.595   5.528   0.216
 1271TIP3    H1 3777   2.629   5.443   0.244
 1271TIP3    H2 3778   2.599   5.525   0.120
 1272TIP3   OH2 3779   4.470   6.622   5.115
 1272TIP3    H1 3780   4.406   6.682   5.154
 1272TIP3    H2 3781   4.509   6.673   5.044
 1273TIP3   OH2 3782   2.837   6.530   3.276
 1273TIP3    H1 3783   2.859   6.612   3.234
 1273TIP3    H2 3784   2.855   6.463   3.210
 1274TIP3   OH2 3785   6.442   3.519   3.066
 1274TIP3    H1 3786   6.439   3.548   2.974
 1274TIP3    H2 3787   6.361   3.472   3.079
 1275TIP3   OH2 3788   2.641   6.307   1.752
 1275TIP3    H1 3789   2.672   6.274   1.668
 1275TIP3    H2 3790   2.720   6.333   1.799
 1276TIP3   OH2 3791   1.616   0.144   0.672
 1276TIP3    H1 3792   1.525   0.174   0.681
 1276TIP3    H2 3793   1.662   0.183   0.747
 1277TIP3   OH2 3794   0.251   6.347   2.274
 1277TIP3    H1 3795   0.173   6.341   2.218
 1277TIP3    H2 3796   0.308   6.277   2.242
 1278TIP3   OH2 3797   6.748   5.990   5.617
 1278TIP3    H1 3798   6.708   5.943   5.689
 1278TIP3    H2 3799   6.691   5.972   5.542
 1279TIP3   OH2 3800   0.881   6.765   4.774
 1279TIP3    H1 3801   0.917   6.853   4.789
 1279TIP3    H2 3802   0.806   6.780   4.718
 1280TIP3   OH2 3803   0.933   4.470   3.302
 1280TIP3    H1 3804   0.935   4.449   3.396
 1280TIP3    H2 3805   0.935   4.385   3.258
 1281TIP3   OH2 3806   4.703   2.677   0.109
 1281TIP3    H1 3807   4.645   2.684   0.033
 1281TIP3    H2 3808   4.648   2.642   0.178
 1282TIP3   OH2 3809   2.214   4.045   1.099
 1282TIP3    H1 3810   2.121   4.028   1.084
 1282TIP3    H2 3811   2.258   4.008   1.023
 1283TIP3   OH2 3812   6.920   1.668   0.845
 1283TIP3    H1 3813   6.979   1.658   0.920
 1283TIP3    H2 3814   6.978   1.675   0.770
 1284TIP3   OH2 3815   3.229   2.118   3.009
 1284TIP3    H1 3816   3.299   2.179   2.989
 1284TIP3    H2 3817   3.186   2.102   2.925
 1285TIP3   OH2 3818   5.794   1.264   0.618
 1285TIP3    H1 3819   5.874   1.211   0.621
 1285TIP3    H2 3820   5.726   1.205   0.651
 1286TIP3   OH2 3821   0.783   5.936   0.206
 1286TIP3    H1 3822   0.808   5.862   0.152
 1286TIP3    H2 3823   0.864   5.964   0.249
 1287TIP3   OH2 3824   5.780   2.998   0.180
 1287TIP3    H1 3825   5.735   2.973   0.261
 1287TIP3    H2 3826   5.725   2.963   0.110
 1288TIP3   OH2 3827   5.073   4.248   3.194
 1288TIP3    H1 3828   5.046   4.222   3.282
 1288TIP3    H2 3829   5.048   4.174   3.139
 1289TIP3   OH2 3830   2.714   1.878   2.141
 1289TIP3    H1 3831   2.749   1.945   2.082
 1289TIP3    H2 3832   2.641   1.840   2.092
 1290TIP3   OH2 3833   6.012   6.720   4.535
 1290TIP3    H1 3834   5.997   6.626   4.540
 1290TIP3    H2 3835   5.994   6.742   4.443
 1291TIP3   OH2 3836   1.787   6.327   5.752
 1291TIP3    H1 3837   1.724   6.345   5.682
 1291TIP3    H2 3838   1.785   6.406   5.806
 1292TIP3   OH2 3839   1.109   5.838   2.510
 1292TIP3    H1 3840   1.017   5.844   2.487
 1292TIP3    H2 3841   1.153   5.897   2.448
 1293TIP3   OH2 3842   2.050   5.892   2.538
 1293TIP3    H1 3843   1.961   5.928   2.543
 1293TIP3    H2 3844   2.038   5.797   2.548
 1294TIP3   OH2 3845   3.593   1.960   0.606
 1294TIP3    H1 3846   3.531   1.944   0.677
 1294TIP3    H2 3847   3.556   1.914   0.531
 1295TIP3   OH2 3848   0.755   4.667   4.801
 1295TIP3    H1 3849   0.680   4.719   4.831
 1295TIP3    H2 3850   0.807   4.653   4.880
 1296TIP3   OH2 3851   7.182   4.890   4.489
 1296TIP3    H1 3852   7.173   4.985   4.500
 1296TIP3    H2 3853   7.096   4.855   4.513
 1297TIP3   OH2 3854   4.494   4.542   0.494
 1297TIP3    H1 3855   4.550   4.569   0.568
 1297TIP3    H2 3856   4.551   4.549   0.418
 1298TIP3   OH2 3857   5.004   1.005   1.502
 1298TIP3    H1 3858   5.031   1.075   1.562
 1298TIP3    H2 3859   5.023   0.924   1.549
 1299TIP3   OH2 3860   7.171   3.348   4.770
 1299TIP3    H1 3861   7.266   3.346   4.786
 1299TIP3    H2 3862   7.135   3.284   4.832
 1300TIP3   OH2 3863   6.591   4.313   4.111
 1300TIP3    H1 3864   6.617   4.314   4.204
 1300TIP3    H2 3865   6.673   4.298   4.064
 1301TIP3   OH2 3866   1.069   3.594   3.138
 1301TIP3    H1 3867   1.116   3.586   3.221
 1301TIP3    H2 3868   1.093   3.681   3.106
 1302TIP3   OH2 3869   4.818   5.764   4.893
 1302TIP3    H1 3870   4.892   5.707   4.916
 1302TIP3    H2 3871   4.772   5.778   4.975
 1303TIP3   OH2 3872   5.544   2.203   3.124
 1303TIP3    H1 3873   5.621   2.192   3.179
 1303TIP3    H2 3874   5.579   2.223   3.037
 1304TIP3   OH2 3875   0.239   4.942   0.878
 1304TIP3    H1 3876   0.201   4.920   0.963
 1304TIP3    H2 3877   0.297   4.868   0.858
 1305TIP3   OH2 3878   0.962   2.420   4.751
 1305TIP3    H1 3879   1.031   2.460   4.805
 1305TIP3    H2 3880   0.990   2.329   4.740
 1306TIP3   OH2 3881   5.381   1.567   0.838
 1306TIP3    H1 3882   5.404   1.657   0.815
 1306TIP3    H2 3883   5.457   1.515   0.810
 1307TIP3   OH2 3884   0.934   6.399   3.960
 1307TIP3    H1 3885   0.864   6.454   3.923
 1307TIP3    H2 3886   0.898   6.310   3.959
 1308TIP3   OH2 3887   3.694   2.166   2.012
 1308TIP3    H1 3888   3.690   2.241   1.953
 1308TIP3    H2 3889   3.713   2.203   2.098
 1309TIP3   OH2 3890   1.639   3.138   3.011
 1309TIP3    H1 3891   1.636   3.057   2.960
 1309TIP3    H2 3892   1.647   3.109   3.102
 1310TIP3   OH2 3893   2.441   3.124   1.165
 1310TIP3    H1 3894   2.421   3.167   1.081
 1310TIP3    H2 3895   2.363   3.074   1.186
 1311TIP3   OH2 3896   2.795   4.519   4.876
 1311TIP3    H1 3897   2.710   4.543   4.838
 1311TIP3    H2 3898   2.846   4.600   4.874
 1312TIP3   OH2 3899   6.378   2.929   0.594
 1312TIP3    H1 3900   6.417   2.992   0.533
 1312TIP3    H2 3901   6.309   2.886   0.543
 1313TIP3   OH2 3902   1.844   3.955   3.942
 1313TIP3    H1 3903   1.907   3.981   3.875
 1313TIP3    H2 3904   1.886   3.979   4.025
 1314TIP3   OH2 3905   1.735   2.011   2.002
 1314TIP3    H1 3906   1.660   1.952   2.014
 1314TIP3    H2 3907   1.790   1.966   1.938
 1315TIP3   OH2 3908   2.759   6.188   1.529
 1315TIP3    H1 3909   2.725   6.207   1.442
 1315TIP3    H2 3910   2.845   6.148   1.513
 1316TIP3   OH2 3911   2.778   1.829   0.052
 1316TIP3    H1 3912   2.767   1.734   0.046
 1316TIP3    H2 3913   2.782   1.847   0.146
 1317TIP3   OH2 3914   1.535   3.618   2.644
 1317TIP3    H1 3915   1.588   3.636   2.722
 1317TIP3    H2 3916   1.447   3.601   2.678
 1318TIP3   OH2 3917   4.803   0.836   4.363
 1318TIP3    H1 3918   4.841   0.759   4.405
 1318TIP3    H2 3919   4.829   0.829   4.271
 1319TIP3   OH2 3920   0.383   2.578   2.261
 1319TIP3    H1 3921   0.437   2.556   2.185
 1319TIP3    H2 3922   0.444   2.579   2.335
 1320TIP3   OH2 3923   1.640   2.594   2.497
 1320TIP3    H1 3924   1.658   2.511   2.453
 1320TIP3    H2 3925   1.662   2.661   2.432
 1321TIP3   OH2 3926   1.076   6.110   0.997
 1321TIP3    H1 3927   1.137   6.175   1.032
 1321TIP3    H2 3928   0.996   6.160   0.980
 1322TIP3   OH2 3929   2.990   6.111   4.513
 1322TIP3    H1 3930   2.966   6.033   4.464
 1322TIP3    H2 3931   2.921   6.121   4.579
 1323TIP3   OH2 3932   3.855   2.780   3.151
 1323TIP3    H1 3933   3.876   2.829   3.072
 1323TIP3    H2 3934   3.765   2.803   3.172
 1324TIP3   OH2 3935   3.301   6.162   1.705
 1324TIP3    H1 3936   3.322   6.218   1.780
 1324TIP3    H2 3937   3.227   6.205   1.663
 1325TIP3   OH2 3938   5.205   6.499   4.058
 1325TIP3    H1 3939   5.285   6.523   4.103
 1325TIP3    H2 3940   5.233   6.440   3.988
 1326TIP3   OH2 3941   4.385   6.356   1.235
 1326TIP3    H1 3942   4.439   6.277   1.234
 1326TIP3    H2 3943   4.299   6.327   1.205
 1327TIP3   OH2 3944   4.267   6.324   4.608
 1327TIP3    H1 3945   4.301   6.368   4.686
 1327TIP3    H2 3946   4.179   6.295   4.633
 1328TIP3   OH2 3947   1.015   2.327   3.278
 1328TIP3    H1 3948   0.929   2.286   3.288
 1328TIP3    H2 3949   1.076   2.265   3.318
 1329TIP3   OH2 3950   4.488   3.642   0.442
 1329TIP3    H1 3951   4.580   3.666   0.449
 1329TIP3    H2 3952   4.448   3.676   0.523
 1330TIP3   OH2 3953   3.335   4.974   1.949
 1330TIP3    H1 3954   3.349   4.945   1.859
 1330TIP3    H2 3955   3.355   5.068   1.947
 1331TIP3   OH2 3956   3.703   0.286   4.858
 1331TIP3    H1 3957   3.749   0.362   4.893
 1331TIP3    H2 3958   3.611   0.301   4.882
 1332TIP3   OH2 3959   3.995   6.575   2.272
 1332TIP3    H1 3960   4.076   6.623   2.288
 1332TIP3    H2 3961   3.957   6.617   2.195
 1333TIP3   OH2 3962   0.736   1.459   1.324
 1333TIP3    H1 3963   0.703   1.432   1.410
 1333TIP3    H2 3964   0.659   1.461   1.268
 1334TIP3   OH2 3965   1.305   4.482   5.618
 1334TIP3    H1 3966   1.388   4.469   5.571
 1334TIP3    H2 3967   1.318   4.562   5.668
 1335TIP3   OH2 3968   6.552   2.636   4.846
 1335TIP3    H1 3969   6.515   2.671   4.765
 1335TIP3    H2 3970   6.643   2.615   4.823
 1336TIP3   OH2 3971   2.633   3.703   1.566
 1336TIP3    H1 3972   2.670   3.768   1.626
 1336TIP3    H2 3973   2.641   3.620   1.612
 1337TIP3   OH2 3974   2.866   4.229   5.673
 1337TIP3    H1 3975   2.894   4.233   5.581
 1337TIP3    H2 3976   2.794   4.167   5.673
 1338TIP3   OH2 3977   1.686   5.039   2.379
 1338TIP3    H1 3978   1.600   5.057   2.415
 1338TIP3    H2 3979   1.722   4.969   2.434
 1339TIP3   OH2 3980   2.028   4.146   3.466
 1339TIP3    H1 3981   1.955   4.096   3.430
 1339TIP3    H2 3982   2.100   4.082   3.470
 1340TIP3   OH2 3983   0.653   2.637   3.546
 1340TIP3    H1 3984   0.704   2.573   3.497
 1340TIP3    H2 3985   0.597   2.585   3.603
 1341TIP3   OH2 3986   3.065   2.079   0.664
 1341TIP3    H1 3987   3.067   2.150   0.599
 1341TIP3    H2 3988   2.982   2.093   0.711
 1342TIP3   OH2 3989   3.896   1.088   0.963
 1342TIP3    H1 3990   3.838   1.047   0.898
 1342TIP3    H2 3991   3.959   1.138   0.911
 1343TIP3   OH2 3992   6.242   0.698   1.958
 1343TIP3    H1 3993   6.313   0.634   1.956
 1343TIP3    H2 3994   6.285   0.780   1.983
 1344TIP3   OH2 3995   5.125   5.447   5.327
 1344TIP3    H1 3996   5.145   5.434   5.234
 1344TIP3    H2 3997   5.030   5.461   5.329
 1345TIP3   OH2 3998   5.742   4.393   4.499
 1345TIP3    H1 3999   5.648   4.403   4.487
 1345TIP3    H2 4000   5.779   4.476   4.467
 1346TIP3   OH2 4001   0.371   1.833   4.469
 1346TIP3    H1 4002   0.413   1.805   4.388
 1346TIP3    H2 4003   0.442   1.868   4.523
 1347TIP3   OH2 4004   4.391   0.367   1.254
 1347TIP3    H1 4005   4.399   0.330   1.342
 1347TIP3    H2 4006   4.317   0.320   1.215
 1348TIP3   OH2 4007   2.552   1.285   0.877
 1348TIP3    H1 4008   2.468   1.276   0.922
 1348TIP3    H2 4009   2.534   1.347   0.806
 1349TIP3   OH2 4010   4.220   5.313   3.211
 1349TIP3    H1 4011   4.255   5.379   3.151
 1349TIP3    H2 4012   4.142   5.280   3.167
 1350TIP3   OH2 4013   4.402   0.350   3.833
 1350TIP3    H1 4014   4.425   0.341   3.740
 1350TIP3    H2 4015   4.397   0.445   3.847
 1351TIP3   OH2 4016   6.891   4.506   5.566
 1351TIP3    H1 4017   6.905   4.584   5.620
 1351TIP3    H2 4018   6.912   4.433   5.624
 1352TIP3   OH2 4019   0.512   5.521   3.491
 1352TIP3    H1 4020   0.478   5.473   3.566
 1352TIP3    H2 4021   0.539   5.453   3.429
 1353TIP3   OH2 4022   1.586   5.821   3.830
 1353TIP3    H1 4023   1.644   5.805   3.755
 1353TIP3    H2 4024   1.636   5.788   3.906
 1354TIP3   OH2 4025   2.714   1.131   3.373
 1354TIP3    H1 4026   2.719   1.037   3.389
 1354TIP3    H2 4027   2.757   1.144   3.288
 1355TIP3   OH2 4028   5.634   2.528   1.208
 1355TIP3    H1 4029   5.628   2.548   1.115
 1355TIP3    H2 4030   5.701   2.459   1.213
 1356TIP3   OH2 4031   4.310   3.664   4.788
 1356TIP3    H1 4032   4.346   3.753   4.793
 1356TIP3    H2 4033   4.250   3.658   4.862
 1357TIP3   OH2 4034   2.383   5.278   0.162
 1357TIP3    H1 4035   2.347   5.353   0.115
 1357TIP3    H2 4036   2.396   5.211   0.095
 1358TIP3   OH2 4037   1.794   4.964   2.694
 1358TIP3    H1 4038   1.805   5.059   2.687
 1358TIP3    H2 4039   1.852   4.928   2.627
 1359TIP3   OH2 4040   1.342   3.120   1.999
 1359TIP3    H1 4041   1.323   3.074   1.917
 1359TIP3    H2 4042   1.372   3.206   1.972
 1360TIP3   OH2 4043   5.420   2.397   2.591
 1360TIP3    H1 4044   5.335   2.359   2.570
 1360TIP3    H2 4045   5.467   2.398   2.508
 1361TIP3   OH2 4046   6.024   1.880   1.041
 1361TIP3    H1 4047   6.026   1.973   1.016
 1361TIP3    H2 4048   6.000   1.882   1.134
 1362TIP3   OH2 4049   3.974   2.784   4.315
 1362TIP3    H1 4050   3.999   2.814   4.228
 1362TIP3    H2 4051   3.879   2.785   4.315
 1363TIP3   OH2 4052   0.897   1.471   3.983
 1363TIP3    H1 4053   0.967   1.517   4.029
 1363TIP3    H2 4054   0.878   1.526   3.907
 1364TIP3   OH2 4055   6.985   6.060   4.154
 1364TIP3    H1 4056   7.062   6.008   4.130
 1364TIP3    H2 4057   6.964   6.032   4.243
 1365TIP3   OH2 4058   0.311   2.959   2.099
 1365TIP3    H1 4059   0.365   2.923   2.028
 1365TIP3    H2 4060   0.320   3.054   2.090
 1366TIP3   OH2 4061   5.628   3.552   0.756
 1366TIP3    H1 4062   5.607   3.562   0.849
 1366TIP3    H2 4063   5.544   3.538   0.713
 1367TIP3   OH2 4064   1.766   6.344   2.507
 1367TIP3    H1 4065   1.684   6.296   2.493
 1367TIP3    H2 4066   1.770   6.357   2.601
 1368TIP3   OH2 4067   7.161   6.348   1.157
 1368TIP3    H1 4068   7.208   6.286   1.101
 1368TIP3    H2 4069   7.087   6.377   1.104
 1369TIP3   OH2 4070   5.205   6.234   1.295
 1369TIP3    H1 4071   5.190   6.158   1.351
 1369TIP3    H2 4072   5.150   6.303   1.333
 1370TIP3   OH2 4073   4.555   2.312   3.747
 1370TIP3    H1 4074   4.612   2.335   3.674
 1370TIP3    H2 4075   4.475   2.279   3.705
 1371TIP3   OH2 4076   0.605   0.412   5.900
 1371TIP3    H1 4077   0.623   0.420   5.806
 1371TIP3    H2 4078   0.655   0.483   5.940
 1372TIP3   OH2 4079   2.661   2.811   5.667
 1372TIP3    H1 4080   2.629   2.831   5.755
 1372TIP3    H2 4081   2.644   2.890   5.616
 1373TIP3   OH2 4082   3.889   6.457   4.141
 1373TIP3    H1 4083   3.953   6.427   4.206
 1373TIP3    H2 4084   3.939   6.511   4.080
 1374TIP3   OH2 4085   0.070   4.851   5.444
 1374TIP3    H1 4086  -0.016   4.881   5.476
 1374TIP3    H2 4087   0.130   4.868   5.517
 1375TIP3   OH2 4088   3.468   0.332   4.997
 1375TIP3    H1 4089   3.479   0.389   5.073
 1375TIP3    H2 4090   3.471   0.243   5.033
 1376TIP3   OH2 4091   1.020   4.406   2.846
 1376TIP3    H1 4092   1.045   4.323   2.886
 1376TIP3    H2 4093   1.033   4.471   2.914
 1377TIP3   OH2 4094   5.226   0.603   2.472
 1377TIP3    H1 4095   5.178   0.652   2.406
 1377TIP3    H2 4096   5.234   0.515   2.436
 1378TIP3   OH2 4097   1.588   0.994   1.356
 1378TIP3    H1 4098   1.579   0.997   1.451
 1378TIP3    H2 4099   1.682   0.990   1.340
 1379TIP3   OH2 4100   3.693   4.201   1.874
 1379TIP3    H1 4101   3.617   4.153   1.908
 1379TIP3    H2 4102   3.744   4.221   1.952
 1380TIP3   OH2 4103   4.934   3.814   4.581
 1380TIP3    H1 4104   5.009   3.800   4.524
 1380TIP3    H2 4105   4.931   3.909   4.596
 1381TIP3   OH2 4106   6.183   2.073   1.674
 1381TIP3    H1 4107   6.153   2.060   1.764
 1381TIP3    H2 4108   6.149   2.159   1.649
 1382TIP3   OH2 4109   4.244   1.477   1.427
 1382TIP3    H1 4110   4.289   1.541   1.482
 1382TIP3    H2 4111   4.315   1.429   1.383
 1383TIP3   OH2 4112   4.614   0.257   1.043
 1383TIP3    H1 4113   4.576   0.343   1.057
 1383TIP3    H2 4114   4.538   0.199   1.033
 1384TIP3   OH2 4115   5.513   6.191   5.160
 1384TIP3    H1 4116   5.589   6.185   5.103
 1384TIP3    H2 4117   5.476   6.277   5.141
 1385TIP3   OH2 4118   1.401   4.867   3.547
 1385TIP3    H1 4119   1.315   4.905   3.530
 1385TIP3    H2 4120   1.439   4.856   3.460
 1386TIP3   OH2 4121   5.155   2.037   0.883
 1386TIP3    H1 4122   5.155   2.112   0.942
 1386TIP3    H2 4123   5.068   1.999   0.892
 1387TIP3   OH2 4124   0.875   3.436   0.413
 1387TIP3    H1 4125   0.892   3.530   0.413
 1387TIP3    H2 4126   0.801   3.425   0.354
 1388TIP3   OH2 4127   0.103   0.578   4.279
 1388TIP3    H1 4128   0.034   0.614   4.335
 1388TIP3    H2 4129   0.101   0.484   4.296
 1389TIP3   OH2 4130   2.879   2.423   0.674
 1389TIP3    H1 4131   2.910   2.356   0.612
 1389TIP3    H2 4132   2.796   2.454   0.636
 1390TIP3   OH2 4133   3.186   4.249   2.917
 1390TIP3    H1 4134   3.226   4.182   2.862
 1390TIP3    H2 4135   3.149   4.200   2.990
 1391TIP3   OH2 4136   2.897   2.505   2.562
 1391TIP3    H1 4137   2.970   2.490   2.502
 1391TIP3    H2 4138   2.890   2.600   2.568
 1392TIP3   OH2 4139   7.074   1.147   3.054
 1392TIP3    H1 4140   7.100   1.184   2.970
 1392TIP3    H2 4141   7.120   1.064   3.059
 1393TIP3   OH2 4142   3.355   3.424   3.363
 1393TIP3    H1 4143   3.360   3.518   3.343
 1393TIP3    H2 4144   3.262   3.404   3.362
 1394TIP3   OH2 4145   7.014   3.141   1.643
 1394TIP3    H1 4146   6.992   3.076   1.709
 1394TIP3    H2 4147   6.930   3.176   1.614
 1395TIP3   OH2 4148   0.607   2.188   2.057
 1395TIP3    H1 4149   0.696   2.201   2.090
 1395TIP3    H2 4150   0.619   2.138   1.976
 1396TIP3   OH2 4151   0.573   2.728   5.433
 1396TIP3    H1 4152   0.543   2.733   5.342
 1396TIP3    H2 4153   0.542   2.642   5.463
 1397TIP3   OH2 4154   6.585   2.681   1.315
 1397TIP3    H1 4155   6.627   2.715   1.236
 1397TIP3    H2 4156   6.619   2.592   1.324
 1398TIP3   OH2 4157   5.615   2.888   1.907
 1398TIP3    H1 4158   5.611   2.807   1.855
 1398TIP3    H2 4159   5.568   2.952   1.854
 1399TIP3   OH2 4160   0.914   3.024   2.127
 1399TIP3    H1 4161   0.926   3.117   2.109
 1399TIP3    H2 4162   0.920   3.018   2.223
 1400TIP3   OH2 4163   2.132   4.993   4.688
 1400TIP3    H1 4164   2.079   4.938   4.631
 1400TIP3    H2 4165   2.219   4.954   4.686
 1401TIP3   OH2 4166   4.891   0.549   4.179
 1401TIP3    H1 4167   4.893   0.477   4.116
 1401TIP3    H2 4168   4.835   0.518   4.250
 1402TIP3   OH2 4169   5.867   4.163   4.626
 1402TIP3    H1 4170   5.803   4.102   4.661
 1402TIP3    H2 4171   5.815   4.231   4.584
 1403TIP3   OH2 4172   7.052   1.350   0.196
 1403TIP3    H1 4173   7.017   1.436   0.218
 1403TIP3    H2 4174   7.135   1.345   0.243
 1404TIP3   OH2 4175   4.764   0.126   5.613
 1404TIP3    H1 4176   4.815   0.148   5.535
 1404TIP3    H2 4177   4.689   0.185   5.609
 1405TIP3   OH2 4178   4.701   3.210   5.832
 1405TIP3    H1 4179   4.655   3.172   5.757
 1405TIP3    H2 4180   4.634   3.221   5.899
 1406TIP3   OH2 4181   0.617   0.747   3.038
 1406TIP3    H1 4182   0.556   0.801   3.088
 1406TIP3    H2 4183   0.568   0.722   2.959
 1407TIP3   OH2 4184   0.935   2.774   2.652
 1407TIP3    H1 4185   0.960   2.697   2.702
 1407TIP3    H2 4186   0.970   2.757   2.564
 1408TIP3   OH2 4187   4.914   2.407   3.814
 1408TIP3    H1 4188   4.946   2.468   3.881
 1408TIP3    H2 4189   4.936   2.449   3.731
 1409TIP3   OH2 4190   2.042   6.374   2.563
 1409TIP3    H1 4191   1.947   6.383   2.556
 1409TIP3    H2 4192   2.063   6.411   2.649
 1410TIP3   OH2 4193   4.668   5.236   2.106
 1410TIP3    H1 4194   4.666   5.173   2.035
 1410TIP3    H2 4195   4.617   5.310   2.074
 1411TIP3   OH2 4196   0.047   0.995   1.385
 1411TIP3    H1 4197  -0.007   0.916   1.392
 1411TIP3    H2 4198   0.137   0.964   1.394
 1412TIP3   OH2 4199   0.389   6.303   2.610
 1412TIP3    H1 4200   0.391   6.236   2.543
 1412TIP3    H2 4201   0.383   6.386   2.562
 1413TIP3   OH2 4202   0.934   5.263   0.579
 1413TIP3    H1 4203   1.005   5.303   0.630
 1413TIP3    H2 4204   0.855   5.303   0.614
 1414TIP3   OH2 4205   2.918   1.828   2.578
 1414TIP3    H1 4206   3.001   1.855   2.538
 1414TIP3    H2 4207   2.887   1.757   2.521
 1415TIP3   OH2 4208   2.307   1.869   1.469
 1415TIP3    H1 4209   2.289   1.961   1.491
 1415TIP3    H2 4210   2.235   1.844   1.412
 1416TIP3   OH2 4211   1.571   2.169   3.155
 1416TIP3    H1 4212   1.624   2.178   3.234
 1416TIP3    H2 4213   1.632   2.134   3.090
 1417TIP3   OH2 4214   4.693   1.247   0.270
 1417TIP3    H1 4215   4.656   1.203   0.193
 1417TIP3    H2 4216   4.623   1.243   0.336
 1418TIP3   OH2 4217   3.066   4.145   4.189
 1418TIP3    H1 4218   3.037   4.144   4.281
 1418TIP3    H2 4219   3.029   4.065   4.153
 1419TIP3   OH2 4220   2.796   4.056   4.859
 1419TIP3    H1 4221   2.744   4.015   4.790
 1419TIP3    H2 4222   2.734   4.073   4.930
 1420TIP3   OH2 4223   3.260   3.704   0.435
 1420TIP3    H1 4224   3.263   3.689   0.530
 1420TIP3    H2 4225   3.325   3.772   0.420
 1421TIP3   OH2 4226   2.143   0.725   0.104
 1421TIP3    H1 4227   2.222   0.778   0.109
 1421TIP3    H2 4228   2.159   0.651   0.162
 1422TIP3   OH2 4229   5.009   6.724   4.271
 1422TIP3    H1 4230   4.975   6.661   4.207
 1422TIP3    H2 4231   4.946   6.722   4.343
 1423TIP3   OH2 4232   2.231   0.275   5.798
 1423TIP3    H1 4233   2.241   0.218   5.722
 1423TIP3    H2 4234   2.309   0.330   5.797
 1424TIP3   OH2 4235   1.369   6.418   5.669
 1424TIP3    H1 4236   1.455   6.459   5.668
 1424TIP3    H2 4237   1.327   6.450   5.589
 1425TIP3   OH2 4238   1.822   5.289   2.651
 1425TIP3    H1 4239   1.789   5.326   2.570
 1425TIP3    H2 4240   1.745   5.252   2.694
 1426TIP3   OH2 4241   5.192   2.312   0.970
 1426TIP3    H1 4242   5.239   2.321   0.888
 1426TIP3    H2 4243   5.120   2.375   0.964
 1427TIP3   OH2 4244   1.083   6.609   4.567
 1427TIP3    H1 4245   0.999   6.617   4.523
 1427TIP3    H2 4246   1.061   6.592   4.659
 1428TIP3   OH2 4247   6.985   2.960   2.661
 1428TIP3    H1 4248   7.063   2.942   2.609
 1428TIP3    H2 4249   7.013   2.947   2.752
 1429TIP3   OH2 4250   5.401   5.915   3.573
 1429TIP3    H1 4251   5.336   5.875   3.631
 1429TIP3    H2 4252   5.399   5.861   3.494
 1430TIP3   OH2 4253   0.795   2.429   1.054
 1430TIP3    H1 4254   0.823   2.476   1.132
 1430TIP3    H2 4255   0.856   2.355   1.046
 1431TIP3   OH2 4256   0.051   2.060   0.190
 1431TIP3    H1 4257   0.120   2.036   0.253
 1431TIP3    H2 4258   0.091   2.127   0.135
 1432TIP3   OH2 4259   6.612   2.383   4.623
 1432TIP3    H1 4260   6.680   2.316   4.625
 1432TIP3    H2 4261   6.536   2.341   4.662
 1433TIP3   OH2 4262   4.369   0.179   3.092
 1433TIP3    H1 4263   4.324   0.192   3.176
 1433TIP3    H2 4264   4.443   0.123   3.113
 1434TIP3   OH2 4265   3.503   1.867   3.256
 1434TIP3    H1 4266   3.481   1.820   3.337
 1434TIP3    H2 4267   3.579   1.921   3.280
 1435TIP3   OH2 4268   2.888   3.931   3.537
 1435TIP3    H1 4269   2.928   3.848   3.510
 1435TIP3    H2 4270   2.845   3.912   3.620
 1436TIP3   OH2 4271   3.245   4.286   3.651
 1436TIP3    H1 4272   3.250   4.199   3.691
 1436TIP3    H2 4273   3.330   4.297   3.607
 1437TIP3   OH2 4274   4.612   2.869   3.406
 1437TIP3    H1 4275   4.560   2.946   3.430
 1437TIP3    H2 4276   4.672   2.901   3.339
 1438TIP3   OH2 4277   3.063   5.085   5.093
 1438TIP3    H1 4278   3.023   5.097   5.006
 1438TIP3    H2 4279   3.139   5.029   5.077
 1439TIP3   OH2 4280   3.111   1.333   5.138
 1439TIP3    H1 4281   3.121   1.410   5.082
 1439TIP3    H2 4282   3.062   1.271   5.085
 1440TIP3   OH2 4283   2.595   3.599   1.306
 1440TIP3    H1 4284   2.558   3.632   1.388
 1440TIP3    H2 4285   2.690   3.602   1.320
 1441TIP3   OH2 4286   4.357   0.111   4.494
 1441TIP3    H1 4287   4.286   0.068   4.447
 1441TIP3    H2 4288   4.418   0.041   4.516
 1442TIP3   OH2 4289   4.326   5.334   1.632
 1442TIP3    H1 4290   4.287   5.408   1.586
 1442TIP3    H2 4291   4.360   5.371   1.714
 1443TIP3   OH2 4292   0.852   5.872   3.210
 1443TIP3    H1 4293   0.778   5.814   3.221
 1443TIP3    H2 4294   0.817   5.947   3.163
 1444TIP3   OH2 4295   6.601   0.890   3.099
 1444TIP3    H1 4296   6.559   0.976   3.094
 1444TIP3    H2 4297   6.612   0.863   3.008
 1445TIP3   OH2 4298   6.083   2.168   5.151
 1445TIP3    H1 4299   6.128   2.238   5.199
 1445TIP3    H2 4300   6.075   2.202   5.061
 1446TIP3   OH2 4301   4.440   1.557   4.360
 1446TIP3    H1 4302   4.456   1.528   4.270
 1446TIP3    H2 4303   4.452   1.478   4.413
 1447TIP3   OH2 4304   1.836   6.584   5.110
 1447TIP3    H1 4305   1.762   6.588   5.050
 1447TIP3    H2 4306   1.887   6.663   5.090
 1448TIP3   OH2 4307   1.450   4.999   5.810
 1448TIP3    H1 4308   1.377   4.974   5.867
 1448TIP3    H2 4309   1.463   4.923   5.753
 1449TIP3   OH2 4310   4.692   2.088   4.771
 1449TIP3    H1 4311   4.640   2.011   4.747
 1449TIP3    H2 4312   4.658   2.157   4.714
 1450TIP3   OH2 4313   4.122   5.215   0.113
 1450TIP3    H1 4314   4.032   5.246   0.101
 1450TIP3    H2 4315   4.141   5.233   0.205
 1451TIP3   OH2 4316   2.480   0.799   4.965
 1451TIP3    H1 4317   2.496   0.894   4.963
 1451TIP3    H2 4318   2.566   0.760   4.950
 1452TIP3   OH2 4319   6.682   2.340   4.928
 1452TIP3    H1 4320   6.588   2.331   4.945
 1452TIP3    H2 4321   6.688   2.403   4.856
 1453TIP3   OH2 4322   1.866   4.969   3.919
 1453TIP3    H1 4323   1.840   4.989   4.009
 1453TIP3    H2 4324   1.786   4.933   3.880
 1454TIP3   OH2 4325   6.607   3.113   2.850
 1454TIP3    H1 4326   6.700   3.105   2.874
 1454TIP3    H2 4327   6.566   3.152   2.927
 1455TIP3   OH2 4328   6.606   6.357   3.142
 1455TIP3    H1 4329   6.652   6.328   3.220
 1455TIP3    H2 4330   6.646   6.441   3.120
 1456TIP3   OH2 4331   2.994   5.996   5.432
 1456TIP3    H1 4332   2.966   6.011   5.523
 1456TIP3    H2 4333   2.948   5.916   5.406
 1457TIP3   OH2 4334   2.329   3.304   2.322
 1457TIP3    H1 4335   2.240   3.338   2.311
 1457TIP3    H2 4336   2.359   3.343   2.404
 1458TIP3   OH2 4337   0.704   2.100   5.662
 1458TIP3    H1 4338   0.712   2.112   5.567
 1458TIP3    H2 4339   0.613   2.121   5.681
 1459TIP3   OH2 4340   3.138   6.317   4.689
 1459TIP3    H1 4341   3.137   6.256   4.615
 1459TIP3    H2 4342   3.111   6.265   4.764
 1460TIP3   OH2 4343   4.993   4.579   3.487
 1460TIP3    H1 4344   4.980   4.491   3.451
 1460TIP3    H2 4345   4.941   4.636   3.430
 1461TIP3   OH2 4346   0.843   2.071   1.520
 1461TIP3    H1 4347   0.795   2.120   1.587
 1461TIP3    H2 4348   0.888   2.002   1.568
 1462TIP3   OH2 4349   6.181   2.061   0.515
 1462TIP3    H1 4350   6.215   1.973   0.499
 1462TIP3    H2 4351   6.256   2.118   0.502
 1463TIP3   OH2 4352   0.262   3.263   5.122
 1463TIP3    H1 4353   0.266   3.183   5.069
 1463TIP3    H2 4354   0.353   3.281   5.144
 1464TIP3   OH2 4355   5.724   1.442   5.636
 1464TIP3    H1 4356   5.732   1.534   5.609
 1464TIP3    H2 4357   5.679   1.400   5.563
 1465TIP3   OH2 4358   0.620   1.859   1.503
 1465TIP3    H1 4359   0.656   1.777   1.536
 1465TIP3    H2 4360   0.696   1.918   1.498
 1466TIP3   OH2 4361   3.468   1.051   1.586
 1466TIP3    H1 4362   3.451   0.995   1.662
 1466TIP3    H2 4363   3.383   1.055   1.541
 1467TIP3   OH2 4364   2.492   4.179   5.435
 1467TIP3    H1 4365   2.456   4.207   5.352
 1467TIP3    H2 4366   2.422   4.193   5.498
 1468TIP3   OH2 4367   0.338   3.442   1.473
 1468TIP3    H1 4368   0.277   3.432   1.400
 1468TIP3    H2 4369   0.411   3.383   1.452
 1469TIP3   OH2 4370   5.545   2.042   3.713
 1469TIP3    H1 4371   5.472   2.100   3.736
 1469TIP3    H2 4372   5.611   2.059   3.780
 1470TIP3   OH2 4373   2.695   0.796   2.112
 1470TIP3    H1 4374   2.650   0.857   2.171
 1470TIP3    H2 4375   2.785   0.828   2.109
 1471TIP3   OH2 4376   6.875   3.918   3.929
 1471TIP3    H1 4377   6.798   3.925   3.872
 1471TIP3    H2 4378   6.950   3.917   3.869
 1472TIP3   OH2 4379   3.908   5.002   1.100
 1472TIP3    H1 4380   3.816   4.978   1.115
 1472TIP3    H2 4381   3.946   4.928   1.053
 1473TIP3   OH2 4382   3.550   4.870  -0.015
 1473TIP3    H1 4383   3.645   4.863  -0.023
 1473TIP3    H2 4384   3.532   4.849   0.076
 1474TIP3   OH2 4385   4.798   2.826   5.851
 1474TIP3    H1 4386   4.873   2.767   5.856
 1474TIP3    H2 4387   4.809   2.874   5.769
 1475TIP3   OH2 4388   1.241   0.302   5.580
 1475TIP3    H1 4389   1.328   0.344   5.582
 1475TIP3    H2 4390   1.222   0.291   5.487
 1476TIP3   OH2 4391   0.567   1.144   2.865
 1476TIP3    H1 4392   0.538   1.211   2.927
 1476TIP3    H2 4393   0.641   1.102   2.909
 1477TIP3   OH2 4394   6.880   5.428   3.229
 1477TIP3    H1 4395   6.836   5.489   3.170
 1477TIP3    H2 4396   6.833   5.438   3.312
 1478TIP3   OH2 4397   0.257   4.792   2.955
 1478TIP3    H1 4398   0.184   4.752   3.003
 1478TIP3    H2 4399   0.313   4.719   2.929
 1479TIP3   OH2 4400   0.126   0.393   4.660
 1479TIP3    H1 4401   0.205   0.437   4.627
 1479TIP3    H2 4402   0.158   0.316   4.706
 1480TIP3   OH2 4403   6.722   1.167   0.896
 1480TIP3    H1 4404   6.709   1.261   0.905
 1480TIP3    H2 4405   6.744   1.137   0.984
 1481TIP3   OH2 4406   6.830   5.225   2.897
 1481TIP3    H1 4407   6.774   5.210   2.973
 1481TIP3    H2 4408   6.865   5.314   2.911
 1482TIP3   OH2 4409   4.344   2.288   4.702
 1482TIP3    H1 4410   4.306   2.357   4.647
 1482TIP3    H2 4411   4.269   2.250   4.748
 1483TIP3   OH2 4412   3.441   0.799   5.038
 1483TIP3    H1 4413   3.408   0.721   4.995
 1483TIP3    H2 4414   3.511   0.831   4.982
 1484TIP3   OH2 4415   2.169   6.638   2.226
 1484TIP3    H1 4416   2.078   6.615   2.246
 1484TIP3    H2 4417   2.197   6.572   2.163
 1485TIP3   OH2 4418   6.237   0.467   4.270
 1485TIP3    H1 4419   6.228   0.405   4.198
 1485TIP3    H2 4420   6.307   0.432   4.324
 1486TIP3   OH2 4421   1.965   3.660   1.891
 1486TIP3    H1 4422   2.024   3.635   1.820
 1486TIP3    H2 4423   1.971   3.588   1.954
 1487TIP3   OH2 4424   4.275   3.773   4.447
 1487TIP3    H1 4425   4.305   3.863   4.457
 1487TIP3    H2 4426   4.189   3.772   4.490
 1488TIP3   OH2 4427   6.685   0.400   1.995
 1488TIP3    H1 4428   6.769   0.430   1.959
 1488TIP3    H2 4429   6.619   0.452   1.949
 1489TIP3   OH2 4430   5.799   0.955   1.425
 1489TIP3    H1 4431   5.876   0.972   1.369
 1489TIP3    H2 4432   5.831   0.894   1.492
 1490TIP3   OH2 4433   6.880   2.070   3.489
 1490TIP3    H1 4434   6.786   2.086   3.499
 1490TIP3    H2 4435   6.886   1.978   3.462
 1491TIP3   OH2 4436   0.756   4.166   1.094
 1491TIP3    H1 4437   0.685   4.229   1.086
 1491TIP3    H2 4438   0.832   4.219   1.119
 1492TIP3   OH2 4439   1.640   2.235   5.849
 1492TIP3    H1 4440   1.545   2.238   5.856
 1492TIP3    H2 4441   1.666   2.327   5.834
 1493TIP3   OH2 4442   2.587   1.556   3.688
 1493TIP3    H1 4443   2.568   1.610   3.765
 1493TIP3    H2 4444   2.515   1.575   3.628
 1494TIP3   OH2 4445   5.722   4.071   2.890
 1494TIP3    H1 4446   5.670   3.999   2.855
 1494TIP3    H2 4447   5.722   4.137   2.821
 1495TIP3   OH2 4448   6.357   3.102   1.489
 1495TIP3    H1 4449   6.362   3.137   1.400
 1495TIP3    H2 4450   6.286   3.037   1.484
 1496TIP3   OH2 4451   1.888   0.123   2.117
 1496TIP3    H1 4452   1.914   0.098   2.028
 1496TIP3    H2 4453   1.795   0.099   2.121
 1497TIP3   OH2 4454   4.383   3.245   5.249
 1497TIP3    H1 4455   4.409   3.254   5.341
 1497TIP3    H2 4456   4.440   3.306   5.202
 1498TIP3   OH2 4457   0.564   2.902   4.953
 1498TIP3    H1 4458   0.554   2.983   4.904
 1498TIP3    H2 4459   0.574   2.834   4.886
 1499TIP3   OH2 4460   4.594   6.060   3.845
 1499TIP3    H1 4461   4.515   6.009   3.828
 1499TIP3    H2 4462   4.662   5.994   3.858
 1500TIP3   OH2 4463   0.243   4.529   3.835
 1500TIP3    H1 4464   0.264   4.611   3.880
 1500TIP3    H2 4465   0.170   4.551   3.777
 1501TIP3   OH2 4466   1.090   6.699   2.642
 1501TIP3    H1 4467   1.009   6.748   2.636
 1501TIP3    H2 4468   1.088   6.658   2.729
 1502TIP3   OH2 4469   4.119   1.399   1.978
 1502TIP3    H1 4470   4.052   1.464   1.956
 1502TIP3    H2 4471   4.176   1.396   1.901
 1503TIP3   OH2 4472   4.441   4.556   1.804
 1503TIP3    H1 4473   4.486   4.626   1.851
 1503TIP3    H2 4474   4.475   4.561   1.715
 1504TIP3   OH2 4475   6.990   4.974   3.396
 1504TIP3    H1 4476   7.062   5.006   3.450
 1504TIP3    H2 4477   6.911   5.004   3.440
 1505TIP3   OH2 4478   6.501   5.935   4.680
 1505TIP3    H1 4479   6.517   5.908   4.770
 1505TIP3    H2 4480   6.582   5.914   4.634
 1506TIP3   OH2 4481   1.961   3.738   3.107
 1506TIP3    H1 4482   1.999   3.684   3.177
 1506TIP3    H2 4483   1.870   3.751   3.132
 1507TIP3   OH2 4484   1.532   5.445   2.000
 1507TIP3    H1 4485   1.612   5.440   2.053
 1507TIP3    H2 4486   1.502   5.354   1.994
 1508TIP3   OH2 4487   3.331   4.219   1.993
 1508TIP3    H1 4488   3.371   4.243   2.076
 1508TIP3    H2 4489   3.271   4.291   1.973
 1509TIP3   OH2 4490   0.602   5.898   3.519
 1509TIP3    H1 4491   0.651   5.839   3.576
 1509TIP3    H2 4492   0.594   5.979   3.569
 1510TIP3   OH2 4493   3.009   2.735   2.213
 1510TIP3    H1 4494   3.004   2.651   2.257
 1510TIP3    H2 4495   2.918   2.766   2.212
 1511TIP3   OH2 4496   0.419   2.862   3.251
 1511TIP3    H1 4497   0.492   2.923   3.243
 1511TIP3    H2 4498   0.408   2.850   3.345
 1512TIP3   OH2 4499   7.094   3.194   4.352
 1512TIP3    H1 4500   7.032   3.124   4.332
 1512TIP3    H2 4501   7.045   3.253   4.410
 1513TIP3   OH2 4502   0.790   5.446   3.702
 1513TIP3    H1 4503   0.773   5.538   3.682
 1513TIP3    H2 4504   0.880   5.444   3.734
 1514TIP3   OH2 4505   2.961   0.540   4.584
 1514TIP3    H1 4506   2.964   0.593   4.504
 1514TIP3    H2 4507   2.884   0.485   4.573
 1515TIP3   OH2 4508   2.529   5.825   3.394
 1515TIP3    H1 4509   2.485   5.772   3.460
 1515TIP3    H2 4510   2.539   5.767   3.319
 1516TIP3   OH2 4511   1.272   3.012   0.963
 1516TIP3    H1 4512   1.178   3.005   0.951
 1516TIP3    H2 4513   1.287   3.104   0.984
 1517TIP3   OH2 4514   6.027   1.515   3.460
 1517TIP3    H1 4515   6.017   1.420   3.460
 1517TIP3    H2 4516   6.083   1.534   3.536
 1518TIP3   OH2 4517   1.556   5.752   2.911
 1518TIP3    H1 4518   1.475   5.767   2.959
 1518TIP3    H2 4519   1.616   5.714   2.976
 1519TIP3   OH2 4520   2.766   4.038   4.526
 1519TIP3    H1 4521   2.693   4.032   4.465
 1519TIP3    H2 4522   2.761   4.127   4.561
 1520TIP3   OH2 4523   4.864   0.247   1.149
 1520TIP3    H1 4524   4.859   0.292   1.234
 1520TIP3    H2 4525   4.774   0.248   1.116
 1521TIP3   OH2 4526   1.997   4.685   0.219
 1521TIP3    H1 4527   2.064   4.712   0.156
 1521TIP3    H2 4528   2.009   4.744   0.294
 1522TIP3   OH2 4529   4.565   1.903   2.467
 1522TIP3    H1 4530   4.505   1.942   2.531
 1522TIP3    H2 4531   4.510   1.843   2.417
 1523TIP3   OH2 4532   1.245   1.899   4.207
 1523TIP3    H1 4533   1.262   1.844   4.131
 1523TIP3    H2 4534   1.172   1.857   4.252
 1524TIP3   OH2 4535   4.658   6.184   0.338
 1524TIP3    H1 4536   4.724   6.208   0.273
 1524TIP3    H2 4537   4.624   6.267   0.370
 1525TIP3   OH2 4538   1.043   0.811   2.498
 1525TIP3    H1 4539   1.125   0.856   2.479
 1525TIP3    H2 4540   1.007   0.790   2.412
 1526TIP3   OH2 4541   1.753   3.265   1.328
 1526TIP3    H1 4542   1.669   3.257   1.373
 1526TIP3    H2 4543   1.819   3.255   1.397
 1527TIP3   OH2 4544   2.605   0.265   5.364
 1527TIP3    H1 4545   2.592   0.273   5.270
 1527TIP3    H2 4546   2.578   0.175   5.385
 1528TIP3   OH2 4547   3.672   1.928   0.216
 1528TIP3    H1 4548   3.617   1.879   0.278
 1528TIP3    H2 4549   3.622   2.006   0.196
 1529TIP3   OH2 4550   2.082   3.022   0.163
 1529TIP3    H1 4551   2.001   3.033   0.114
 1529TIP3    H2 4552   2.106   2.930   0.148
 1530TIP3   OH2 4553   2.839   2.306   2.017
 1530TIP3    H1 4554   2.860   2.216   2.042
 1530TIP3    H2 4555   2.753   2.300   1.976
 1531TIP3   OH2 4556   5.899   3.905   1.947
 1531TIP3    H1 4557   5.871   3.996   1.936
 1531TIP3    H2 4558   5.827   3.864   1.995
 1532TIP3   OH2 4559   0.745   4.922   4.282
 1532TIP3    H1 4560   0.808   4.860   4.246
 1532TIP3    H2 4561   0.762   4.922   4.376
 1533TIP3   OH2 4562   1.596   1.573   1.866
 1533TIP3    H1 4563   1.666   1.508   1.863
 1533TIP3    H2 4564   1.640   1.655   1.891
 1534TIP3   OH2 4565   2.086   0.830   3.895
 1534TIP3    H1 4566   2.067   0.793   3.809
 1534TIP3    H2 4567   2.066   0.760   3.957
 1535TIP3   OH2 4568   1.304   6.657   5.242
 1535TIP3    H1 4569   1.284   6.567   5.269
 1535TIP3    H2 4570   1.243   6.711   5.292
 1536TIP3   OH2 4571   6.278   3.943   2.004
 1536TIP3    H1 4572   6.226   4.021   2.025
 1536TIP3    H2 4573   6.238   3.874   2.056
 1537TIP3   OH2 4574   4.393   3.023  -0.010
 1537TIP3    H1 4575   4.312   3.073  -0.011
 1537TIP3    H2 4576   4.365   2.932  -0.004
 1538TIP3   OH2 4577   2.899   6.760   1.757
 1538TIP3    H1 4578   2.901   6.739   1.850
 1538TIP3    H2 4579   2.972   6.712   1.719
 1539TIP3   OH2 4580   3.289   1.914   2.699
 1539TIP3    H1 4581   3.259   1.996   2.737
 1539TIP3    H2 4582   3.227   1.895   2.629
 1540TIP3   OH2 4583   1.214   4.852   3.050
 1540TIP3    H1 4584   1.138   4.848   3.108
 1540TIP3    H2 4585   1.216   4.943   3.020
 1541TIP3   OH2 4586   2.511   3.489   3.371
 1541TIP3    H1 4587   2.547   3.512   3.285
 1541TIP3    H2 4588   2.465   3.406   3.356
 1542TIP3   OH2 4589   3.178   5.663   3.742
 1542TIP3    H1 4590   3.202   5.727   3.809
 1542TIP3    H2 4591   3.177   5.713   3.660
 1543TIP3   OH2 4592   5.142   2.966   5.779
 1543TIP3    H1 4593   5.200   3.033   5.743
 1543TIP3    H2 4594   5.057   2.984   5.738
 1544TIP3   OH2 4595   6.590   0.136   5.559
 1544TIP3    H1 4596   6.497   0.156   5.544
 1544TIP3    H2 4597   6.608   0.173   5.646
 1545TIP3   OH2 4598   1.186   3.658   4.883
 1545TIP3    H1 4599   1.102   3.613   4.899
 1545TIP3    H2 4600   1.161   3.739   4.839
 1546TIP3   OH2 4601   4.546   2.433   3.994
 1546TIP3    H1 4602   4.599   2.510   3.972
 1546TIP3    H2 4603   4.545   2.380   3.915
 1547TIP3   OH2 4604   5.522   3.523   3.679
 1547TIP3    H1 4605   5.508   3.428   3.688
 1547TIP3    H2 4606   5.609   3.530   3.639
 1548TIP3   OH2 4607   2.768   6.707   0.286
 1548TIP3    H1 4608   2.780   6.726   0.193
 1548TIP3    H2 4609   2.741   6.615   0.288
 1549TIP3   OH2 4610   2.971   5.707   2.106
 1549TIP3    H1 4611   2.983   5.629   2.161
 1549TIP3    H2 4612   3.038   5.700   2.039
 1550TIP3   OH2 4613   6.687   2.974   2.286
 1550TIP3    H1 4614   6.594   2.996   2.295
 1550TIP3    H2 4615   6.722   2.982   2.375
 1551TIP3   OH2 4616   6.364   0.164   3.278
 1551TIP3    H1 4617   6.434   0.180   3.216
 1551TIP3    H2 4618   6.408   0.158   3.363
 1552TIP3   OH2 4619   5.340   3.196   5.109
 1552TIP3    H1 4620   5.410   3.132   5.106
 1552TIP3    H2 4621   5.344   3.232   5.197
 1553TIP3   OH2 4622   7.016   6.759   2.941
 1553TIP3    H1 4623   7.019   6.664   2.926
 1553TIP3    H2 4624   7.108   6.785   2.947
 1554TIP3   OH2 4625   3.696   5.108   1.929
 1554TIP3    H1 4626   3.713   5.099   2.023
 1554TIP3    H2 4627   3.730   5.027   1.891
 1555TIP3   OH2 4628   0.855   4.263   2.467
 1555TIP3    H1 4629   0.836   4.319   2.542
 1555TIP3    H2 4630   0.774   4.266   2.415
 1556TIP3   OH2 4631   4.039   6.273  -0.024
 1556TIP3    H1 4632   4.027   6.305   0.066
 1556TIP3    H2 4633   3.951   6.272  -0.061
 1557TIP3   OH2 4634   6.452   4.104   5.522
 1557TIP3    H1 4635   6.483   4.028   5.472
 1557TIP3    H2 4636   6.362   4.118   5.492
 1558TIP3   OH2 4637   2.691   3.471   0.560
 1558TIP3    H1 4638   2.606   3.428   0.566
 1558TIP3    H2 4639   2.748   3.421   0.618
 1559TIP3   OH2 4640   5.230   0.922   3.055
 1559TIP3    H1 4641   5.155   0.878   3.015
 1559TIP3    H2 4642   5.294   0.929   2.984
 1560TIP3   OH2 4643   1.365   0.396   4.452
 1560TIP3    H1 4644   1.373   0.302   4.470
 1560TIP3    H2 4645   1.335   0.434   4.535
 1561TIP3   OH2 4646   5.033   2.230   4.197
 1561TIP3    H1 4647   5.127   2.215   4.195
 1561TIP3    H2 4648   5.024   2.325   4.194
 1562TIP3   OH2 4649   1.496   3.227   1.441
 1562TIP3    H1 4650   1.428   3.208   1.377
 1562TIP3    H2 4651   1.459   3.295   1.497
 1563TIP3   OH2 4652   5.199   5.992   1.437
 1563TIP3    H1 4653   5.141   5.917   1.454
 1563TIP3    H2 4654   5.169   6.060   1.497
 1564TIP3   OH2 4655   2.702   5.342   5.540
 1564TIP3    H1 4656   2.776   5.303   5.492
 1564TIP3    H2 4657   2.632   5.348   5.475
 1565TIP3   OH2 4658   1.749   4.517   4.776
 1565TIP3    H1 4659   1.654   4.510   4.786
 1565TIP3    H2 4660   1.785   4.472   4.852
 1566TIP3   OH2 4661   5.218   6.197   2.331
 1566TIP3    H1 4662   5.159   6.129   2.300
 1566TIP3    H2 4663   5.166   6.248   2.394
 1567TIP3   OH2 4664   3.057   3.898   2.692
 1567TIP3    H1 4665   3.050   3.809   2.726
 1567TIP3    H2 4666   3.129   3.936   2.742
 1568TIP3   OH2 4667   3.155   4.695   2.628
 1568TIP3    H1 4668   3.179   4.787   2.614
 1568TIP3    H2 4669   3.238   4.647   2.618
 1569TIP3   OH2 4670   0.720   6.647   4.967
 1569TIP3    H1 4671   0.774   6.691   4.902
 1569TIP3    H2 4672   0.705   6.712   5.035
 1570TIP3   OH2 4673   0.678   1.462   4.406
 1570TIP3    H1 4674   0.631   1.394   4.455
 1570TIP3    H2 4675   0.663   1.440   4.314
 1571TIP3   OH2 4676   0.213   6.119   1.043
 1571TIP3    H1 4677   0.279   6.116   1.112
 1571TIP3    H2 4678   0.264   6.110   0.962
 1572TIP3   OH2 4679   2.400   2.038   1.103
 1572TIP3    H1 4680   2.332   1.973   1.087
 1572TIP3    H2 4681   2.420   2.073   1.016
 1573TIP3   OH2 4682   5.877   2.308   0.870
 1573TIP3    H1 4683   5.947   2.271   0.816
 1573TIP3    H2 4684   5.881   2.402   0.855
 1574TIP3   OH2 4685   7.009   3.514   1.476
 1574TIP3    H1 4686   6.963   3.527   1.559
 1574TIP3    H2 4687   7.066   3.439   1.491
 1575TIP3   OH2 4688   2.084   0.513   0.342
 1575TIP3    H1 4689   2.051   0.447   0.281
 1575TIP3    H2 4690   2.006   0.564   0.366
 1576TIP3   OH2 4691   3.973   0.790   2.688
 1576TIP3    H1 4692   3.958   0.873   2.645
 1576TIP3    H2 4693   3.910   0.730   2.648
 1577TIP3   OH2 4694   5.715   4.827   4.628
 1577TIP3    H1 4695   5.653   4.891   4.593
 1577TIP3    H2 4696   5.761   4.874   4.698
 1578TIP3   OH2 4697   4.927   1.581   5.380
 1578TIP3    H1 4698   4.905   1.671   5.403
 1578TIP3    H2 4699   4.842   1.537   5.368
 1579TIP3   OH2 4700   1.153   4.563   0.065
 1579TIP3    H1 4701   1.216   4.603   0.125
 1579TIP3    H2 4702   1.123   4.636   0.010
 1580TIP3   OH2 4703   2.338   5.043   3.959
 1580TIP3    H1 4704   2.256   5.041   3.910
 1580TIP3    H2 4705   2.333   4.968   4.018
 1581TIP3   OH2 4706   0.347   2.805   3.517
 1581TIP3    H1 4707   0.386   2.797   3.604
 1581TIP3    H2 4708   0.327   2.715   3.491
 1582TIP3   OH2 4709   4.668   3.928   5.378
 1582TIP3    H1 4710   4.595   3.989   5.363
 1582TIP3    H2 4711   4.627   3.841   5.379
 1583TIP3   OH2 4712   1.674   5.246   1.534
 1583TIP3    H1 4713   1.625   5.197   1.600
 1583TIP3    H2 4714   1.683   5.334   1.570
 1584TIP3   OH2 4715   4.412   6.206   4.187
 1584TIP3    H1 4716   4.413   6.262   4.265
 1584TIP3    H2 4717   4.455   6.259   4.119
 1585TIP3   OH2 4718   3.031   4.656   0.762
 1585TIP3    H1 4719   3.083   4.588   0.719
 1585TIP3    H2 4720   3.004   4.615   0.845
 1586TIP3   OH2 4721   5.233   5.626   1.624
 1586TIP3    H1 4722   5.208   5.578   1.545
 1586TIP3    H2 4723   5.316   5.668   1.601
 1587TIP3   OH2 4724   2.473   2.264   3.568
 1587TIP3    H1 4725   2.548   2.206   3.562
 1587TIP3    H2 4726   2.400   2.215   3.530
 1588TIP3   OH2 4727   5.053   4.792   5.739
 1588TIP3    H1 4728   4.971   4.791   5.788
 1588TIP3    H2 4729   5.048   4.713   5.684
 1589TIP3   OH2 4730   1.887   3.207   5.241
 1589TIP3    H1 4731   1.930   3.132   5.200
 1589TIP3    H2 4732   1.801   3.173   5.268
 1590TIP3   OH2 4733   0.583   0.218   4.811
 1590TIP3    H1 4734   0.585   0.282   4.883
 1590TIP3    H2 4735   0.541   0.265   4.739
 1591TIP3   OH2 4736   3.452   1.019   3.476
 1591TIP3    H1 4737   3.357   1.010   3.476
 1591TIP3    H2 4738   3.485   0.932   3.452
 1592TIP3   OH2 4739   5.476   2.600   0.214
 1592TIP3    H1 4740   5.471   2.687   0.253
 1592TIP3    H2 4741   5.388   2.564   0.223
 1593TIP3   OH2 4742   4.267   1.735   3.380
 1593TIP3    H1 4743   4.192   1.752   3.437
 1593TIP3    H2 4744   4.302   1.822   3.360
 1594TIP3   OH2 4745   5.938   0.067   5.325
 1594TIP3    H1 4746   5.983   0.150   5.334
 1594TIP3    H2 4747   5.925   0.036   5.415
 1595TIP3   OH2 4748   2.653   2.066   3.501
 1595TIP3    H1 4749   2.737   2.055   3.456
 1595TIP3    H2 4750   2.651   1.995   3.565
 1596TIP3   OH2 4751   0.342   3.223   3.370
 1596TIP3    H1 4752   0.412   3.247   3.309
 1596TIP3    H2 4753   0.386   3.218   3.455
 1597TIP3   OH2 4754   3.382   0.925   4.580
 1597TIP3    H1 4755   3.417   0.976   4.653
 1597TIP3    H2 4756   3.436   0.846   4.578
 1598TIP3   OH2 4757   6.041   3.682   5.288
 1598TIP3    H1 4758   6.061   3.767   5.250
 1598TIP3    H2 4759   6.045   3.621   5.214
 1599TIP3   OH2 4760   1.045   4.922   2.285
 1599TIP3    H1 4761   1.083   5.007   2.263
 1599TIP3    H2 4762   0.952   4.941   2.299
 1600TIP3   OH2 4763   3.058   1.007   5.899
 1600TIP3    H1 4764   3.077   0.934   5.840
 1600TIP3    H2 4765   2.963   1.019   5.892
 1601TIP3   OH2 4766   5.548   1.453   2.631
 1601TIP3    H1 4767   5.581   1.441   2.720
 1601TIP3    H2 4768   5.536   1.364   2.598
 1602TIP3   OH2 4769   0.474   0.917   0.842
 1602TIP3    H1 4770   0.421   0.876   0.910
 1602TIP3    H2 4771   0.546   0.855   0.828
 1603TIP3   OH2 4772   3.558   5.921   1.945
 1603TIP3    H1 4773   3.526   5.834   1.969
 1603TIP3    H2 4774   3.644   5.905   1.907
 1604TIP3   OH2 4775   3.965   1.228   0.060
 1604TIP3    H1 4776   3.935   1.304   0.010
 1604TIP3    H2 4777   3.885   1.182   0.085
 1605TIP3   OH2 4778   4.761   2.680   4.684
 1605TIP3    H1 4779   4.751   2.751   4.747
 1605TIP3    H2 4780   4.815   2.717   4.615
 1606TIP3   OH2 4781   3.390   5.417   5.449
 1606TIP3    H1 4782   3.327   5.347   5.462
 1606TIP3    H2 4783   3.337   5.494   5.427
 1607TIP3   OH2 4784   6.475   2.285   3.905
 1607TIP3    H1 4785   6.531   2.352   3.865
 1607TIP3    H2 4786   6.387   2.307   3.877
 1608TIP3   OH2 4787   6.903   1.243   4.008
 1608TIP3    H1 4788   6.903   1.333   4.040
 1608TIP3    H2 4789   6.919   1.189   4.086
 1609TIP3   OH2 4790   3.662   4.852   0.695
 1609TIP3    H1 4791   3.612   4.772   0.711
 1609TIP3    H2 4792   3.753   4.826   0.708
 1610TIP3   OH2 4793   1.101   3.801   4.199
 1610TIP3    H1 4794   1.184   3.841   4.172
 1610TIP3    H2 4795   1.089   3.830   4.289
 1611TIP3   OH2 4796   5.747   1.407   3.167
 1611TIP3    H1 4797   5.721   1.493   3.201
 1611TIP3    H2 4798   5.816   1.427   3.103
 1612TIP3   OH2 4799   2.165   6.282   1.407
 1612TIP3    H1 4800   2.153   6.357   1.466
 1612TIP3    H2 4801   2.104   6.298   1.335
 1613TIP3   OH2 4802   1.684   3.759   1.939
 1613TIP3    H1 4803   1.689   3.688   1.874
 1613TIP3    H2 4804   1.728   3.724   2.016
 1614TIP3   OH2 4805   1.956   4.962   3.555
 1614TIP3    H1 4806   1.937   5.043   3.603
 1614TIP3    H2 4807   1.870   4.923   3.539
 1615TIP3   OH2 4808   4.281   0.916   2.315
 1615TIP3    H1 4809   4.310   0.837   2.271
 1615TIP3    H2 4810   4.349   0.933   2.381
 1616TIP3   OH2 4811   6.707   5.086   1.779
 1616TIP3    H1 4812   6.721   5.021   1.710
 1616TIP3    H2 4813   6.650   5.043   1.842
 1617TIP3   OH2 4814   2.023   1.597   3.355
 1617TIP3    H1 4815   2.000   1.504   3.352
 1617TIP3    H2 4816   2.111   1.600   3.317
 1618TIP3   OH2 4817   1.242   4.226   3.444
 1618TIP3    H1 4818   1.254   4.196   3.534
 1618TIP3    H2 4819   1.232   4.321   3.452
 1619TIP3   OH2 4820   5.670   1.398   2.884
 1619TIP3    H1 4821   5.706   1.479   2.920
 1619TIP3    H2 4822   5.611   1.365   2.952
 1620TIP3   OH2 4823   4.868   6.287   5.885
 1620TIP3    H1 4824   4.954   6.312   5.853
 1620TIP3    H2 4825   4.813   6.283   5.807
 1621TIP3   OH2 4826   0.577   3.179   3.165
 1621TIP3    H1 4827   0.594   3.133   3.083
 1621TIP3    H2 4828   0.660   3.174   3.213
 1622TIP3   OH2 4829   4.350   2.421   5.579
 1622TIP3    H1 4830   4.293   2.494   5.552
 1622TIP3    H2 4831   4.438   2.458   5.577
 1623TIP3   OH2 4832   6.114   2.866   1.521
 1623TIP3    H1 4833   6.026   2.843   1.548
 1623TIP3    H2 4834   6.129   2.816   1.441
 1624TIP3   OH2 4835   2.753   6.068   3.304
 1624TIP3    H1 4836   2.704   6.122   3.242
 1624TIP3    H2 4837   2.720   5.980   3.290
 1625TIP3   OH2 4838   0.031   5.559   4.190
 1625TIP3    H1 4839   0.038   5.560   4.286
 1625TIP3    H2 4840   0.030   5.466   4.167
 1626TIP3   OH2 4841   3.051   1.681   3.294
 1626TIP3    H1 4842   3.090   1.607   3.246
 1626TIP3    H2 4843   3.103   1.757   3.267
 1627TIP3   OH2 4844   1.932   1.356   2.274
 1627TIP3    H1 4845   1.874   1.392   2.207
 1627TIP3    H2 4846   2.019   1.387   2.249
 1628TIP3   OH2 4847   6.151   2.701   4.140
 1628TIP3    H1 4848   6.146   2.715   4.046
 1628TIP3    H2 4849   6.076   2.643   4.159
 1629TIP3   OH2 4850   0.622   5.872   2.109
 1629TIP3    H1 4851   0.694   5.809   2.118
 1629TIP3    H2 4852   0.566   5.835   2.041
 1630TIP3   OH2 4853   2.723   0.303   0.580
 1630TIP3    H1 4854   2.701   0.394   0.599
 1630TIP3    H2 4855   2.774   0.274   0.656
 1631TIP3   OH2 4856   5.551   6.558   1.683
 1631TIP3    H1 4857   5.621   6.520   1.630
 1631TIP3    H2 4858   5.526   6.489   1.744
 1632TIP3   OH2 4859   2.608   3.951   5.400
 1632TIP3    H1 4860   2.558   4.033   5.398
 1632TIP3    H2 4861   2.699   3.979   5.414
 1633TIP3   OH2 4862   2.515   5.871   5.649
 1633TIP3    H1 4863   2.466   5.821   5.584
 1633TIP3    H2 4864   2.486   5.835   5.733
 1634TIP3   OH2 4865   0.546   4.866   4.047
 1634TIP3    H1 4866   0.623   4.859   3.990
 1634TIP3    H2 4867   0.581   4.893   4.132
 1635TIP3   OH2 4868   4.931   1.698   5.831
 1635TIP3    H1 4869   5.017   1.714   5.791
 1635TIP3    H2 4870   4.894   1.785   5.845
 1636TIP3   OH2 4871   6.321   5.256   2.401
 1636TIP3    H1 4872   6.361   5.208   2.329
 1636TIP3    H2 4873   6.246   5.300   2.362
 1637TIP3   OH2 4874   0.796   2.764   2.307
 1637TIP3    H1 4875   0.739   2.689   2.325
 1637TIP3    H2 4876   0.865   2.759   2.373
 1638TIP3   OH2 4877   1.396   1.264   0.076
 1638TIP3    H1 4878   1.427   1.352   0.100
 1638TIP3    H2 4879   1.333   1.241   0.144
 1639TIP3   OH2 4880   2.664   3.741   4.005
 1639TIP3    H1 4881   2.685   3.696   4.087
 1639TIP3    H2 4882   2.647   3.670   3.942
 1640TIP3   OH2 4883   4.440   5.802   1.422
 1640TIP3    H1 4884   4.532   5.775   1.416
 1640TIP3    H2 4885   4.431   5.838   1.510
 1641TIP3   OH2 4886   6.459   1.123   3.727
 1641TIP3    H1 4887   6.478   1.133   3.821
 1641TIP3    H2 4888   6.512   1.189   3.684
 1642TIP3   OH2 4889   2.445   6.330   0.045
 1642TIP3    H1 4890   2.511   6.399   0.035
 1642TIP3    H2 4891   2.379   6.368   0.102
 1643TIP3   OH2 4892   3.604   3.713   4.683
 1643TIP3    H1 4893   3.533   3.702   4.746
 1643TIP3    H2 4894   3.561   3.741   4.602
 1644TIP3   OH2 4895   6.683   6.275   4.755
 1644TIP3    H1 4896   6.640   6.245   4.836
 1644TIP3    H2 4897   6.638   6.357   4.734
 1645TIP3   OH2 4898   0.954   3.187   0.473
 1645TIP3    H1 4899   0.866   3.162   0.503
 1645TIP3    H2 4900   0.949   3.282   0.465
 1646TIP3   OH2 4901   2.078   2.717   4.437
 1646TIP3    H1 4902   2.169   2.742   4.453
 1646TIP3    H2 4903   2.081   2.669   4.354
 1647TIP3   OH2 4904   2.631   6.082   0.398
 1647TIP3    H1 4905   2.691   6.156   0.408
 1647TIP3    H2 4906   2.669   6.032   0.325
 1648TIP3   OH2 4907   6.455   5.217   1.735
 1648TIP3    H1 4908   6.428   5.149   1.673
 1648TIP3    H2 4909   6.550   5.208   1.742
 1649TIP3   OH2 4910   6.728   5.900   2.402
 1649TIP3    H1 4911   6.653   5.841   2.390
 1649TIP3    H2 4912   6.725   5.957   2.325
 1650TIP3   OH2 4913   6.033   5.299   0.770
 1650TIP3    H1 4914   6.061   5.367   0.708
 1650TIP3    H2 4915   5.938   5.294   0.759
 1651TIP3   OH2 4916   3.655   2.259   3.003
 1651TIP3    H1 4917   3.714   2.325   3.039
 1651TIP3    H2 4918   3.690   2.176   3.034
 1652TIP3   OH2 4919   5.723   0.506   5.575
 1652TIP3    H1 4920   5.689   0.485   5.488
 1652TIP3    H2 4921   5.803   0.556   5.558
 1653TIP3   OH2 4922   3.976   2.739   2.432
 1653TIP3    H1 4923   3.883   2.717   2.419
 1653TIP3    H2 4924   3.995   2.713   2.522
 1654TIP3   OH2 4925   6.258   2.217   1.370
 1654TIP3    H1 4926   6.205   2.261   1.437
 1654TIP3    H2 4927   6.242   2.124   1.384
 1655TIP3   OH2 4928   2.286   1.725   5.170
 1655TIP3    H1 4929   2.343   1.675   5.228
 1655TIP3    H2 4930   2.326   1.717   5.083
 1656TIP3   OH2 4931   6.496   6.562   1.035
 1656TIP3    H1 4932   6.464   6.478   1.066
 1656TIP3    H2 4933   6.541   6.600   1.110
 1657TIP3   OH2 4934   6.914   1.975   3.081
 1657TIP3    H1 4935   6.943   2.046   3.138
 1657TIP3    H2 4936   6.927   2.008   2.992
 1658TIP3   OH2 4937   4.065   2.140   3.786
 1658TIP3    H1 4938   4.121   2.070   3.821
 1658TIP3    H2 4939   3.997   2.152   3.852
 1659TIP3   OH2 4940   4.265   2.556   1.068
 1659TIP3    H1 4941   4.336   2.590   1.014
 1659TIP3    H2 4942   4.256   2.464   1.041
 1660TIP3   OH2 4943   1.518   0.336   2.641
 1660TIP3    H1 4944   1.572   0.346   2.563
 1660TIP3    H2 4945   1.432   0.312   2.607
 1661TIP3   OH2 4946   1.713   3.536   1.727
 1661TIP3    H1 4947   1.743   3.604   1.666
 1661TIP3    H2 4948   1.783   3.471   1.728
 1662TIP3   OH2 4949   5.638   5.837   4.382
 1662TIP3    H1 4950   5.643   5.931   4.367
 1662TIP3    H2 4951   5.577   5.805   4.315
 1663TIP3   OH2 4952   2.698   0.152   4.340
 1663TIP3    H1 4953   2.696   0.063   4.307
 1663TIP3    H2 4954   2.655   0.147   4.426
 1664TIP3   OH2 4955   4.463   5.821   4.856
 1664TIP3    H1 4956   4.500   5.904   4.826
 1664TIP3    H2 4957   4.383   5.810   4.805
 1665TIP3   OH2 4958   6.649   0.171   2.741
 1665TIP3    H1 4959   6.566   0.124   2.728
 1665TIP3    H2 4960   6.650   0.237   2.672
 1666TIP3   OH2 4961   0.309   4.241   1.393
 1666TIP3    H1 4962   0.237   4.234   1.457
 1666TIP3    H2 4963   0.368   4.170   1.418
 1667TIP3   OH2 4964   1.621   1.929   5.387
 1667TIP3    H1 4965   1.556   1.931   5.457
 1667TIP3    H2 4966   1.682   1.860   5.414
 1668TIP3   OH2 4967   1.255   6.841   2.121
 1668TIP3    H1 4968   1.300   6.780   2.062
 1668TIP3    H2 4969   1.193   6.787   2.170
 1669TIP3   OH2 4970   0.880   0.932   1.532
 1669TIP3    H1 4971   0.886   1.027   1.544
 1669TIP3    H2 4972   0.804   0.919   1.475
 1670TIP3   OH2 4973   2.794   3.037   0.988
 1670TIP3    H1 4974   2.737   3.110   0.963
 1670TIP3    H2 4975   2.877   3.079   1.012
 1671TIP3   OH2 4976   6.970   1.159   4.637
 1671TIP3    H1 4977   6.980   1.176   4.730
 1671TIP3    H2 4978   6.980   1.245   4.596
 1672TIP3   OH2 4979   7.130   5.663   0.331
 1672TIP3    H1 4980   7.151   5.756   0.336
 1672TIP3    H2 4981   7.052   5.660   0.276
 1673TIP3   OH2 4982   2.761   1.390   1.010
 1673TIP3    H1 4983   2.810   1.308   1.017
 1673TIP3    H2 4984   2.672   1.362   0.989
 1674TIP3   OH2 4985   0.357   2.177   2.187
 1674TIP3    H1 4986   0.327   2.225   2.110
 1674TIP3    H2 4987   0.452   2.168   2.174
 1675TIP3   OH2 4988   3.108   0.880   4.599
 1675TIP3    H1 4989   3.201   0.904   4.607
 1675TIP3    H2 4990   3.072   0.943   4.536
 1676TIP3   OH2 4991   1.924   2.380   5.559
 1676TIP3    H1 4992   2.002   2.400   5.506
 1676TIP3    H2 4993   1.875   2.318   5.506
 1677TIP3   OH2 4994   3.987   2.450   1.546
 1677TIP3    H1 4995   3.895   2.474   1.537
 1677TIP3    H2 4996   4.031   2.499   1.476
 1678TIP3   OH2 4997   2.790   4.097   1.382
 1678TIP3    H1 4998   2.694   4.103   1.392
 1678TIP3    H2 4999   2.810   4.158   1.310
 1679TIP3   OH2 5000   1.556   3.285   0.155
 1679TIP3    H1 5001   1.599   3.371   0.156
 1679TIP3    H2 5002   1.463   3.306   0.146
 1680TIP3   OH2 5003   5.984   5.887   4.979
 1680TIP3    H1 5004   5.969   5.924   5.066
 1680TIP3    H2 5005   5.971   5.792   4.991
 1681TIP3   OH2 5006   3.725   6.507   5.164
 1681TIP3    H1 5007   3.669   6.451   5.217
 1681TIP3    H2 5008   3.727   6.590   5.211
 1682TIP3   OH2 5009   1.799   0.563   3.285
 1682TIP3    H1 5010   1.712   0.570   3.247
 1682TIP3    H2 5011   1.786   0.514   3.367
 1683TIP3   OH2 5012   0.477   2.512   3.719
 1683TIP3    H1 5013   0.419   2.539   3.790
 1683TIP3    H2 5014   0.511   2.427   3.748
 1684TIP3   OH2 5015   4.750   4.191   0.672
 1684TIP3    H1 5016   4.784   4.211   0.585
 1684TIP3    H2 5017   4.782   4.261   0.728
 1685TIP3   OH2 5018   1.555   2.681   5.299
 1685TIP3    H1 5019   1.507   2.624   5.239
 1685TIP3    H2 5020   1.515   2.767   5.287
 1686TIP3   OH2 5021   1.145   1.552   2.708
 1686TIP3    H1 5022   1.100   1.489   2.765
 1686TIP3    H2 5023   1.202   1.602   2.767
 1687TIP3   OH2 5024   6.507   4.563   3.229
 1687TIP3    H1 5025   6.422   4.557   3.273
 1687TIP3    H2 5026   6.485   4.567   3.136
 1688TIP3   OH2 5027   1.562   3.806   3.667
 1688TIP3    H1 5028   1.615   3.767   3.736
 1688TIP3    H2 5029   1.495   3.740   3.648
 1689TIP3   OH2 5030   1.423   2.581   1.400
 1689TIP3    H1 5031   1.492   2.646   1.412
 1689TIP3    H2 5032   1.355   2.607   1.462
 1690TIP3   OH2 5033   1.823   5.227   1.968
 1690TIP3    H1 5034   1.877   5.251   2.043
 1690TIP3    H2 5035   1.790   5.139   1.989
 1691TIP3   OH2 5036   0.505   2.447   2.050
 1691TIP3    H1 5037   0.587   2.397   2.055
 1691TIP3    H2 5038   0.450   2.396   1.990
 1692TIP3   OH2 5039   5.065   1.804   3.901
 1692TIP3    H1 5040   5.014   1.844   3.971
 1692TIP3    H2 5041   5.103   1.725   3.940
 1693TIP3   OH2 5042   0.342   6.564   1.854
 1693TIP3    H1 5043   0.324   6.537   1.764
 1693TIP3    H2 5044   0.294   6.646   1.864
 1694TIP3   OH2 5045   1.346   6.083   2.764
 1694TIP3    H1 5046   1.255   6.081   2.734
 1694TIP3    H2 5047   1.344   6.040   2.850
 1695TIP3   OH2 5048   6.915   3.445   3.160
 1695TIP3    H1 5049   6.833   3.493   3.151
 1695TIP3    H2 5050   6.950   3.441   3.070
 1696TIP3   OH2 5051   4.514   6.167   0.671
 1696TIP3    H1 5052   4.444   6.207   0.619
 1696TIP3    H2 5053   4.509   6.074   0.650
 1697TIP3   OH2 5054   4.745   6.174   1.998
 1697TIP3    H1 5055   4.746   6.257   1.950
 1697TIP3    H2 5056   4.831   6.171   2.041
 1698TIP3   OH2 5057   6.525   1.050   3.358
 1698TIP3    H1 5058   6.487   1.137   3.374
 1698TIP3    H2 5059   6.511   1.035   3.264
 1699TIP3   OH2 5060   0.273   0.796   3.068
 1699TIP3    H1 5061   0.242   0.758   3.150
 1699TIP3    H2 5062   0.244   0.888   3.073
 1700TIP3   OH2 5063   3.021   0.612   2.112
 1700TIP3    H1 5064   2.972   0.598   2.031
 1700TIP3    H2 5065   3.096   0.554   2.105
 1701TIP3   OH2 5066   5.988   5.631   0.922
 1701TIP3    H1 5067   5.991   5.577   0.843
 1701TIP3    H2 5068   6.025   5.715   0.894
 1702TIP3   OH2 5069   3.711   0.402   1.776
 1702TIP3    H1 5070   3.661   0.475   1.739
 1702TIP3    H2 5071   3.793   0.402   1.727
 1703TIP3   OH2 5072   2.286   3.033   5.623
 1703TIP3    H1 5073   2.368   3.055   5.668
 1703TIP3    H2 5074   2.312   3.005   5.536
 1704TIP3   OH2 5075   5.316   0.854   3.468
 1704TIP3    H1 5076   5.340   0.857   3.376
 1704TIP3    H2 5077   5.323   0.761   3.492
 1705TIP3   OH2 5078   0.698   0.409   1.010
 1705TIP3    H1 5079   0.663   0.407   0.921
 1705TIP3    H2 5080   0.774   0.351   1.008
 1706TIP3   OH2 5081   6.855   0.526   0.519
 1706TIP3    H1 5082   6.886   0.588   0.585
 1706TIP3    H2 5083   6.792   0.472   0.566
 1707TIP3   OH2 5084   0.945   1.355   4.651
 1707TIP3    H1 5085   0.863   1.405   4.655
 1707TIP3    H2 5086   1.007   1.408   4.701
 1708TIP3   OH2 5087   0.218   3.441   2.250
 1708TIP3    H1 5088   0.273   3.516   2.273
 1708TIP3    H2 5089   0.155   3.476   2.187
 1709TIP3   OH2 5090   2.911   4.745   1.945
 1709TIP3    H1 5091   2.952   4.668   1.983
 1709TIP3    H2 5092   2.817   4.729   1.951
 1710TIP3   OH2 5093   6.132   2.245   0.044
 1710TIP3    H1 5094   6.097   2.333   0.033
 1710TIP3    H2 5095   6.178   2.227  -0.038
 1711TIP3   OH2 5096   1.088   5.406   1.008
 1711TIP3    H1 5097   1.151   5.474   0.984
 1711TIP3    H2 5098   1.140   5.326   1.013
 1712TIP3   OH2 5099   5.117   0.143   1.064
 1712TIP3    H1 5100   5.137   0.087   1.139
 1712TIP3    H2 5101   5.028   0.174   1.079
 1713TIP3   OH2 5102   1.387   2.439   3.576
 1713TIP3    H1 5103   1.450   2.387   3.527
 1713TIP3    H2 5104   1.326   2.472   3.510
 1714TIP3   OH2 5105   3.814   3.985   0.013
 1714TIP3    H1 5106   3.798   3.928   0.088
 1714TIP3    H2 5107   3.763   3.946  -0.058
 1715TIP3   OH2 5108   6.664   2.635   2.815
 1715TIP3    H1 5109   6.625   2.718   2.787
 1715TIP3    H2 5110   6.747   2.631   2.768
 1716TIP3   OH2 5111   6.470   0.186   0.404
 1716TIP3    H1 5112   6.531   0.114   0.388
 1716TIP3    H2 5113   6.406   0.180   0.333
 1717TIP3   OH2 5114   3.039   3.772   2.020
 1717TIP3    H1 5115   3.068   3.823   2.096
 1717TIP3    H2 5116   3.109   3.781   1.956
 1718TIP3   OH2 5117   5.842   4.407   1.760
 1718TIP3    H1 5118   5.897   4.476   1.723
 1718TIP3    H2 5119   5.812   4.442   1.844
 1719TIP3   OH2 5120   6.190   3.028   1.207
 1719TIP3    H1 5121   6.121   2.986   1.155
 1719TIP3    H2 5122   6.266   2.970   1.198
 1720TIP3   OH2 5123   6.624   6.474   3.849
 1720TIP3    H1 5124   6.685   6.542   3.820
 1720TIP3    H2 5125   6.674   6.393   3.842
 1721TIP3   OH2 5126   4.726   1.514   5.754
 1721TIP3    H1 5127   4.771   1.543   5.834
 1721TIP3    H2 5128   4.733   1.589   5.694
 1722TIP3   OH2 5129   0.638   6.082   4.295
 1722TIP3    H1 5130   0.606   6.057   4.382
 1722TIP3    H2 5131   0.671   6.171   4.306
 1723TIP3   OH2 5132   1.585   3.860   1.629
 1723TIP3    H1 5133   1.600   3.769   1.654
 1723TIP3    H2 5134   1.629   3.869   1.544
 1724TIP3   OH2 5135   0.419   5.728   0.702
 1724TIP3    H1 5136   0.498   5.766   0.739
 1724TIP3    H2 5137   0.366   5.803   0.674
 1725TIP3   OH2 5138   0.500   3.189   2.228
 1725TIP3    H1 5139   0.427   3.190   2.167
 1725TIP3    H2 5140   0.562   3.126   2.190
 1726TIP3   OH2 5141   0.772   5.600   1.341
 1726TIP3    H1 5142   0.728   5.542   1.403
 1726TIP3    H2 5143   0.834   5.650   1.395
 1727TIP3   OH2 5144   6.874   6.734   1.044
 1727TIP3    H1 5145   6.912   6.816   1.075
 1727TIP3    H2 5146   6.782   6.739   1.073
 1728TIP3   OH2 5147   3.550   4.177   0.370
 1728TIP3    H1 5148   3.540   4.110   0.438
 1728TIP3    H2 5149   3.637   4.162   0.334
 1729TIP3   OH2 5150   6.810   0.676   3.650
 1729TIP3    H1 5151   6.765   0.592   3.654
 1729TIP3    H2 5152   6.772   0.727   3.721
 1730TIP3   OH2 5153   1.383   0.202   2.129
 1730TIP3    H1 5154   1.299   0.156   2.131
 1730TIP3    H2 5155   1.407   0.203   2.036
 1731TIP3   OH2 5156   2.654   1.941   2.400
 1731TIP3    H1 5157   2.708   1.871   2.437
 1731TIP3    H2 5158   2.666   1.933   2.305
 1732TIP3   OH2 5159   4.159   6.682   5.803
 1732TIP3    H1 5160   4.193   6.670   5.892
 1732TIP3    H2 5161   4.232   6.720   5.754
 1733TIP3   OH2 5162   6.621   1.072   4.555
 1733TIP3    H1 5163   6.649   0.990   4.516
 1733TIP3    H2 5164   6.572   1.117   4.486
 1734TIP3   OH2 5165   4.928   5.828   0.218
 1734TIP3    H1 5166   4.960   5.872   0.296
 1734TIP3    H2 5167   4.834   5.848   0.216
 1735TIP3   OH2 5168   1.506   6.242   2.500
 1735TIP3    H1 5169   1.459   6.266   2.420
 1735TIP3    H2 5170   1.438   6.230   2.566
 1736TIP3   OH2 5171   1.676   1.632   1.002
 1736TIP3    H1 5172   1.689   1.587   1.086
 1736TIP3    H2 5173   1.665   1.561   0.938
 1737TIP3   OH2 5174   2.826   1.254   4.678
 1737TIP3    H1 5175   2.778   1.181   4.640
 1737TIP3    H2 5176   2.771   1.331   4.661
 1738TIP3   OH2 5177   2.460   5.476   5.725
 1738TIP3    H1 5178   2.424   5.396   5.688
 1738TIP3    H2 5179   2.407   5.493   5.803
 1739TIP3   OH2 5180   2.383   0.225   2.977
 1739TIP3    H1 5181   2.472   0.189   2.982
 1739TIP3    H2 5182   2.396   0.319   2.967
 1740TIP3   OH2 5183   7.188   1.162   1.794
 1740TIP3    H1 5184   7.150   1.081   1.759
 1740TIP3    H2 5185   7.275   1.136   1.825
 1741TIP3   OH2 5186   3.972   5.280   2.558
 1741TIP3    H1 5187   3.879   5.257   2.562
 1741TIP3    H2 5188   3.974   5.367   2.518
 1742TIP3   OH2 5189   1.366   1.584   3.154
 1742TIP3    H1 5190   1.429   1.514   3.138
 1742TIP3    H2 5191   1.342   1.615   3.066
 1743TIP3   OH2 5192   1.720   1.509   1.566
 1743TIP3    H1 5193   1.638   1.472   1.532
 1743TIP3    H2 5194   1.785   1.440   1.551
 1744TIP3   OH2 5195   5.858   1.945   4.264
 1744TIP3    H1 5196   5.897   1.985   4.341
 1744TIP3    H2 5197   5.781   1.999   4.245
 1745TIP3   OH2 5198   5.164   2.653   2.915
 1745TIP3    H1 5199   5.221   2.656   2.838
 1745TIP3    H2 5200   5.129   2.564   2.916
 1746TIP3   OH2 5201   6.643   5.675   5.180
 1746TIP3    H1 5202   6.660   5.767   5.202
 1746TIP3    H2 5203   6.627   5.676   5.086
 1747TIP3   OH2 5204   1.175   0.144   0.462
 1747TIP3    H1 5205   1.261   0.106   0.446
 1747TIP3    H2 5206   1.193   0.222   0.515
 1748TIP3   OH2 5207   0.604   4.507   1.220
 1748TIP3    H1 5208   0.597   4.422   1.263
 1748TIP3    H2 5209   0.575   4.491   1.130
 1749TIP3   OH2 5210   6.087   6.255   5.178
 1749TIP3    H1 5211   6.018   6.261   5.243
 1749TIP3    H2 5212   6.165   6.289   5.222
 1750TIP3   OH2 5213   2.212   6.562   3.576
 1750TIP3    H1 5214   2.298   6.602   3.582
 1750TIP3    H2 5215   2.154   6.620   3.625
 1751TIP3   OH2 5216   1.096   0.716   4.785
 1751TIP3    H1 5217   1.091   0.779   4.857
 1751TIP3    H2 5218   1.162   0.751   4.726
 1752TIP3   OH2 5219   0.714   4.048   4.376
 1752TIP3    H1 5220   0.688   4.104   4.449
 1752TIP3    H2 5221   0.685   4.095   4.298
 1753TIP3   OH2 5222   5.919   5.792   0.576
 1753TIP3    H1 5223   5.964   5.810   0.493
 1753TIP3    H2 5224   5.968   5.841   0.642
 1754TIP3   OH2 5225   4.855   5.156   5.640
 1754TIP3    H1 5226   4.917   5.172   5.568
 1754TIP3    H2 5227   4.843   5.241   5.681
 1755TIP3   OH2 5228   6.201   5.316   1.959
 1755TIP3    H1 5229   6.197   5.412   1.966
 1755TIP3    H2 5230   6.120   5.291   1.914
 1756TIP3   OH2 5231   5.320   3.094   2.932
 1756TIP3    H1 5232   5.231   3.120   2.907
 1756TIP3    H2 5233   5.356   3.054   2.853
 1757TIP3   OH2 5234   0.089   5.058   3.193
 1757TIP3    H1 5235   0.079   4.972   3.233
 1757TIP3    H2 5236   0.105   5.040   3.101
 1758TIP3   OH2 5237   1.761   5.982   0.290
 1758TIP3    H1 5238   1.843   5.933   0.278
 1758TIP3    H2 5239   1.773   6.061   0.237
 1759TIP3   OH2 5240   2.748   3.152   2.851
 1759TIP3    H1 5241   2.738   3.060   2.875
 1759TIP3    H2 5242   2.823   3.153   2.790
 1760TIP3   OH2 5243   0.701   3.153   4.345
 1760TIP3    H1 5244   0.626   3.186   4.395
 1760TIP3    H2 5245   0.672   3.156   4.254
 1761TIP3   OH2 5246   1.796   5.975   0.572
 1761TIP3    H1 5247   1.773   5.942   0.485
 1761TIP3    H2 5248   1.864   6.040   0.555
 1762TIP3   OH2 5249   2.344   5.664   0.283
 1762TIP3    H1 5250   2.421   5.625   0.325
 1762TIP3    H2 5251   2.377   5.701   0.202
 1763TIP3   OH2 5252   6.454   4.160   3.925
 1763TIP3    H1 5253   6.374   4.125   3.962
 1763TIP3    H2 5254   6.497   4.205   3.998
 1764TIP3   OH2 5255   6.936   2.080   2.836
 1764TIP3    H1 5256   7.013   2.137   2.830
 1764TIP3    H2 5257   6.939   2.027   2.756
 1765TIP3   OH2 5258   5.267   3.730   4.947
 1765TIP3    H1 5259   5.257   3.689   5.033
 1765TIP3    H2 5260   5.178   3.741   4.915
 1766TIP3   OH2 5261   4.132   0.113   4.890
 1766TIP3    H1 5262   4.153   0.021   4.880
 1766TIP3    H2 5263   4.063   0.130   4.826
 1767TIP3   OH2 5264   4.171   2.329   4.204
 1767TIP3    H1 5265   4.197   2.243   4.237
 1767TIP3    H2 5266   4.177   2.387   4.280
 1768TIP3   OH2 5267   5.250   3.258   0.550
 1768TIP3    H1 5268   5.223   3.225   0.465
 1768TIP3    H2 5269   5.221   3.191   0.612
 1769TIP3   OH2 5270   6.872   3.318   2.506
 1769TIP3    H1 5271   6.810   3.331   2.578
 1769TIP3    H2 5272   6.830   3.361   2.431
 1770TIP3   OH2 5273   6.222   3.390   1.464
 1770TIP3    H1 5274   6.269   3.472   1.450
 1770TIP3    H2 5275   6.195   3.394   1.555
 1771TIP3   OH2 5276   2.684   6.765   5.154
 1771TIP3    H1 5277   2.723   6.852   5.166
 1771TIP3    H2 5278   2.591   6.778   5.169
 1772TIP3   OH2 5279   6.218   3.980   5.812
 1772TIP3    H1 5280   6.268   3.978   5.730
 1772TIP3    H2 5281   6.127   3.986   5.785
 1773TIP3   OH2 5282   5.072   2.801   4.186
 1773TIP3    H1 5283   5.139   2.833   4.245
 1773TIP3    H2 5284   5.100   2.712   4.164
 1774TIP3   OH2 5285   6.618   4.245   3.219
 1774TIP3    H1 5286   6.559   4.267   3.291
 1774TIP3    H2 5287   6.655   4.329   3.192
 1775TIP3   OH2 5288   2.377   2.256   3.918
 1775TIP3    H1 5289   2.461   2.300   3.936
 1775TIP3    H2 5290   2.346   2.297   3.837
 1776TIP3   OH2 5291   3.525   5.081   4.990
 1776TIP3    H1 5292   3.434   5.088   4.962
 1776TIP3    H2 5293   3.519   5.051   5.081
 1777TIP3   OH2 5294   1.455   2.244   5.345
 1777TIP3    H1 5295   1.373   2.216   5.304
 1777TIP3    H2 5296   1.502   2.290   5.276
 1778TIP3   OH2 5297   3.162   3.639   5.317
 1778TIP3    H1 5298   3.081   3.671   5.356
 1778TIP3    H2 5299   3.231   3.687   5.362
 1779TIP3   OH2 5300   0.634   1.367   5.071
 1779TIP3    H1 5301   0.722   1.332   5.055
 1779TIP3    H2 5302   0.616   1.421   4.993
 1780TIP3   OH2 5303   4.647   3.048   0.044
 1780TIP3    H1 5304   4.551   3.051   0.039
 1780TIP3    H2 5305   4.674   3.007  -0.038
 1781TIP3   OH2 5306   2.842   1.437   4.485
 1781TIP3    H1 5307   2.906   1.452   4.554
 1781TIP3    H2 5308   2.893   1.398   4.413
 1782TIP3   OH2 5309   4.604   3.031   5.638
 1782TIP3    H1 5310   4.578   3.045   5.547
 1782TIP3    H2 5311   4.582   2.940   5.656
 1783TIP3   OH2 5312   2.479   6.531   5.277
 1783TIP3    H1 5313   2.401   6.548   5.330
 1783TIP3    H2 5314   2.552   6.541   5.338
 1784TIP3   OH2 5315   0.350   4.502   2.360
 1784TIP3    H1 5316   0.290   4.528   2.291
 1784TIP3    H2 5317   0.424   4.562   2.352
 1785TIP3   OH2 5318   4.085   5.143   3.471
 1785TIP3    H1 5319   4.016   5.083   3.500
 1785TIP3    H2 5320   4.071   5.151   3.377
 1786TIP3   OH2 5321   2.886   3.581   3.215
 1786TIP3    H1 5322   2.844   3.528   3.147
 1786TIP3    H2 5323   2.953   3.630   3.168
 1787TIP3   OH2 5324   0.421   3.874   0.620
 1787TIP3    H1 5325   0.443   3.900   0.530
 1787TIP3    H2 5326   0.442   3.780   0.623
 1788TIP3   OH2 5327   0.918   4.844   3.122
 1788TIP3    H1 5328   0.847   4.843   3.057
 1788TIP3    H2 5329   0.880   4.885   3.199
 1789TIP3   OH2 5330   4.560   3.266   1.607
 1789TIP3    H1 5331   4.621   3.340   1.604
 1789TIP3    H2 5332   4.474   3.307   1.610
 1790TIP3   OH2 5333   2.034   0.184   2.957
 1790TIP3    H1 5334   2.073   0.139   3.031
 1790TIP3    H2 5335   2.048   0.125   2.883
 1791TIP3   OH2 5336   5.022   0.359   1.901
 1791TIP3    H1 5337   5.018   0.435   1.959
 1791TIP3    H2 5338   4.982   0.289   1.952
 1792TIP3   OH2 5339   4.437   6.607   2.370
 1792TIP3    H1 5340   4.471   6.556   2.443
 1792TIP3    H2 5341   4.507   6.668   2.347
 1793TIP3   OH2 5342   0.699   0.119   0.088
 1793TIP3    H1 5343   0.626   0.143   0.031
 1793TIP3    H2 5344   0.665   0.133   0.176
 1794TIP3   OH2 5345   4.795   4.041   2.343
 1794TIP3    H1 5346   4.793   4.111   2.409
 1794TIP3    H2 5347   4.854   3.975   2.381
 1795TIP3   OH2 5348   6.354   1.741   3.283
 1795TIP3    H1 5349   6.282   1.685   3.255
 1795TIP3    H2 5350   6.316   1.828   3.291
 1796TIP3   OH2 5351   3.381   1.747   5.172
 1796TIP3    H1 5352   3.461   1.755   5.224
 1796TIP3    H2 5353   3.324   1.816   5.206
 1797TIP3   OH2 5354   0.850   6.764   5.248
 1797TIP3    H1 5355   0.914   6.735   5.183
 1797TIP3    H2 5356   0.824   6.684   5.294
 1798TIP3   OH2 5357   3.384   4.676   4.101
 1798TIP3    H1 5358   3.306   4.632   4.067
 1798TIP3    H2 5359   3.450   4.607   4.103
 1799TIP3   OH2 5360   1.485   4.386   4.226
 1799TIP3    H1 5361   1.444   4.452   4.282
 1799TIP3    H2 5362   1.434   4.307   4.241
 1800TIP3   OH2 5363   4.134   0.823   3.374
 1800TIP3    H1 5364   4.155   0.916   3.368
 1800TIP3    H2 5365   4.083   0.805   3.295
 1801TIP3   OH2 5366   6.107   1.104   2.309
 1801TIP3    H1 5367   6.134   1.171   2.372
 1801TIP3    H2 5368   6.015   1.090   2.327
 1802TIP3   OH2 5369   5.215   0.760   0.527
 1802TIP3    H1 5370   5.145   0.726   0.583
 1802TIP3    H2 5371   5.182   0.844   0.495
 1803TIP3   OH2 5372   4.045   4.623   5.853
 1803TIP3    H1 5373   4.074   4.553   5.912
 1803TIP3    H2 5374   3.951   4.628   5.866
 1804TIP3   OH2 5375   0.565   5.644   0.987
 1804TIP3    H1 5376   0.523   5.581   1.045
 1804TIP3    H2 5377   0.641   5.676   1.036
 1805TIP3   OH2 5378   5.664   4.636   3.418
 1805TIP3    H1 5379   5.613   4.643   3.338
 1805TIP3    H2 5380   5.695   4.725   3.435
 1806TIP3   OH2 5381   3.638   0.890   4.859
 1806TIP3    H1 5382   3.560   0.926   4.816
 1806TIP3    H2 5383   3.662   0.814   4.806
 1807TIP3   OH2 5384   5.334   0.836   4.570
 1807TIP3    H1 5385   5.282   0.913   4.596
 1807TIP3    H2 5386   5.420   0.872   4.549
 1808TIP3   OH2 5387   3.761   6.376   5.638
 1808TIP3    H1 5388   3.822   6.302   5.643
 1808TIP3    H2 5389   3.801   6.443   5.693
 1809TIP3   OH2 5390   5.844   4.553   0.669
 1809TIP3    H1 5391   5.793   4.572   0.590
 1809TIP3    H2 5392   5.791   4.488   0.717
 1810TIP3   OH2 5393   3.347   5.679   0.769
 1810TIP3    H1 5394   3.290   5.609   0.737
 1810TIP3    H2 5395   3.394   5.640   0.843
 1811TIP3   OH2 5396   0.816   1.222   1.188
 1811TIP3    H1 5397   0.771   1.161   1.247
 1811TIP3    H2 5398   0.813   1.306   1.233
 1812TIP3   OH2 5399   6.617   5.264   4.399
 1812TIP3    H1 5400   6.699   5.257   4.446
 1812TIP3    H2 5401   6.614   5.184   4.345
 1813TIP3   OH2 5402   1.439   5.045   5.236
 1813TIP3    H1 5403   1.478   5.021   5.152
 1813TIP3    H2 5404   1.379   4.973   5.256
 1814TIP3   OH2 5405   5.104   3.541   1.672
 1814TIP3    H1 5406   5.117   3.488   1.750
 1814TIP3    H2 5407   5.173   3.607   1.675
 1815TIP3   OH2 5408   0.471   5.278   2.965
 1815TIP3    H1 5409   0.452   5.194   3.005
 1815TIP3    H2 5410   0.500   5.256   2.876
 1816TIP3   OH2 5411   1.586   1.661   2.934
 1816TIP3    H1 5412   1.580   1.751   2.902
 1816TIP3    H2 5413   1.586   1.607   2.855
 1817TIP3   OH2 5414   1.791   0.457   0.540
 1817TIP3    H1 5415   1.753   0.536   0.578
 1817TIP3    H2 5416   1.885   0.463   0.561
 1818TIP3   OH2 5417   6.123   4.462   3.021
 1818TIP3    H1 5418   6.088   4.390   2.968
 1818TIP3    H2 5419   6.217   4.457   3.008
 1819TIP3   OH2 5420   0.252   6.563   2.783
 1819TIP3    H1 5421   0.229   6.514   2.704
 1819TIP3    H2 5422   0.202   6.645   2.775
 1820TIP3   OH2 5423   4.969   1.037   2.433
 1820TIP3    H1 5424   4.908   0.999   2.497
 1820TIP3    H2 5425   4.914   1.085   2.372
 1821TIP3   OH2 5426   0.908   5.592   1.104
 1821TIP3    H1 5427   0.968   5.518   1.111
 1821TIP3    H2 5428   0.858   5.591   1.186
 1822TIP3   OH2 5429   3.357   1.855   3.908
 1822TIP3    H1 5430   3.394   1.772   3.938
 1822TIP3    H2 5431   3.394   1.921   3.967
 1823TIP3   OH2 5432   4.336   3.648   1.294
 1823TIP3    H1 5433   4.248   3.685   1.294
 1823TIP3    H2 5434   4.339   3.594   1.215
 1824TIP3   OH2 5435   1.609   2.641   2.045
 1824TIP3    H1 5436   1.579   2.558   2.009
 1824TIP3    H2 5437   1.534   2.675   2.093
 1825TIP3   OH2 5438   3.153   6.385   2.736
 1825TIP3    H1 5439   3.227   6.440   2.712
 1825TIP3    H2 5440   3.130   6.413   2.825
 1826TIP3   OH2 5441   1.139  -0.021   4.291
 1826TIP3    H1 5442   1.110   0.069   4.307
 1826TIP3    H2 5443   1.188  -0.016   4.209
 1827TIP3   OH2 5444   4.752   2.729   2.775
 1827TIP3    H1 5445   4.742   2.777   2.857
 1827TIP3    H2 5446   4.768   2.796   2.709
 1828TIP3   OH2 5447   7.093   5.719   1.811
 1828TIP3    H1 5448   7.128   5.691   1.895
 1828TIP3    H2 5449   7.054   5.639   1.774
 1829TIP3   OH2 5450   0.271   2.539   4.801
 1829TIP3    H1 5451   0.302   2.455   4.767
 1829TIP3    H2 5452   0.182   2.520   4.831
 1830TIP3   OH2 5453   0.094   1.599   0.394
 1830TIP3    H1 5454   0.103   1.603   0.299
 1830TIP3    H2 5455   0.025   1.662   0.414
 1831TIP3   OH2 5456   2.330   3.830   5.293
 1831TIP3    H1 5457   2.413   3.857   5.333
 1831TIP3    H2 5458   2.355   3.782   5.214
 1832TIP3   OH2 5459   2.597   6.345   0.954
 1832TIP3    H1 5460   2.557   6.349   1.041
 1832TIP3    H2 5461   2.525   6.329   0.894
 1833TIP3   OH2 5462   1.452   1.024   5.125
 1833TIP3    H1 5463   1.431   0.932   5.146
 1833TIP3    H2 5464   1.385   1.074   5.171
 1834TIP3   OH2 5465   5.965   5.056   2.806
 1834TIP3    H1 5466   5.872   5.078   2.811
 1834TIP3    H2 5467   6.001   5.122   2.747
 1835TIP3   OH2 5468   0.697   3.703   4.138
 1835TIP3    H1 5469   0.610   3.743   4.130
 1835TIP3    H2 5470   0.678   3.611   4.157
 1836TIP3   OH2 5471   1.486   5.507   2.759
 1836TIP3    H1 5472   1.438   5.563   2.698
 1836TIP3    H2 5473   1.519   5.566   2.826
 1837TIP3   OH2 5474   3.502   1.197   5.307
 1837TIP3    H1 5475   3.484   1.285   5.273
 1837TIP3    H2 5476   3.591   1.178   5.279
 1838TIP3   OH2 5477   0.952   0.784   0.093
 1838TIP3    H1 5478   1.029   0.837   0.073
 1838TIP3    H2 5479   0.878   0.842   0.073
 1839TIP3   OH2 5480   1.851   4.566   2.291
 1839TIP3    H1 5481   1.880   4.495   2.348
 1839TIP3    H2 5482   1.757   4.574   2.308
 1840TIP3   OH2 5483  -0.045   6.015   1.113
 1840TIP3    H1 5484   0.034   6.035   1.062
 1840TIP3    H2 5485  -0.040   5.920   1.126
 1841TIP3   OH2 5486   7.105   4.596   0.578
 1841TIP3    H1 5487   7.033   4.621   0.636
 1841TIP3    H2 5488   7.092   4.502   0.563
 1842TIP3   OH2 5489   2.933   4.848   4.852
 1842TIP3    H1 5490   2.993   4.849   4.777
 1842TIP3    H2 5491   2.986   4.815   4.925
 1843TIP3   OH2 5492   3.840   5.032   2.153
 1843TIP3    H1 5493   3.901   5.053   2.082
 1843TIP3    H2 5494   3.896   5.030   2.232
 1844TIP3   OH2 5495   4.806   1.624   4.674
 1844TIP3    H1 5496   4.753   1.621   4.754
 1844TIP3    H2 5497   4.885   1.672   4.699
 1845TIP3   OH2 5498   6.166   2.669   3.512
 1845TIP3    H1 5499   6.240   2.614   3.487
 1845TIP3    H2 5500   6.104   2.659   3.440
 1846TIP3   OH2 5501   6.871   3.536   4.841
 1846TIP3    H1 5502   6.883   3.564   4.932
 1846TIP3    H2 5503   6.943   3.476   4.824
 1847TIP3   OH2 5504   2.434   0.424   1.156
 1847TIP3    H1 5505   2.340   0.440   1.163
 1847TIP3    H2 5506   2.456   0.376   1.236
 1848TIP3   OH2 5507   6.646   6.697   1.559
 1848TIP3    H1 5508   6.565   6.677   1.605
 1848TIP3    H2 5509   6.651   6.793   1.560
 1849TIP3   OH2 5510   4.004   4.220   1.853
 1849TIP3    H1 5511   3.970   4.233   1.941
 1849TIP3    H2 5512   3.967   4.292   1.802
 1850TIP3   OH2 5513   2.178   4.181   1.944
 1850TIP3    H1 5514   2.124   4.259   1.931
 1850TIP3    H2 5515   2.116   4.112   1.964
 1851TIP3   OH2 5516   1.315   4.274   3.152
 1851TIP3    H1 5517   1.338   4.190   3.113
 1851TIP3    H2 5518   1.246   4.253   3.214
 1852TIP3   OH2 5519   3.876   4.145   4.821
 1852TIP3    H1 5520   3.835   4.090   4.887
 1852TIP3    H2 5521   3.817   4.140   4.745
 1853TIP3   OH2 5522   1.120   2.014   1.976
 1853TIP3    H1 5523   1.128   1.921   1.995
 1853TIP3    H2 5524   1.201   2.037   1.930
 1854TIP3   OH2 5525   4.252   6.385   2.292
 1854TIP3    H1 5526   4.306   6.460   2.318
 1854TIP3    H2 5527   4.215   6.411   2.208
 1855TIP3   OH2 5528   4.158   0.602   4.580
 1855TIP3    H1 5529   4.069   0.569   4.571
 1855TIP3    H2 5530   4.190   0.610   4.491
 1856TIP3   OH2 5531   4.800   5.571   2.111
 1856TIP3    H1 5532   4.737   5.502   2.090
 1856TIP3    H2 5533   4.764   5.613   2.189
 1857TIP3   OH2 5534   6.733   0.818   5.812
 1857TIP3    H1 5535   6.688   0.879   5.871
 1857TIP3    H2 5536   6.771   0.874   5.744
 1858TIP3   OH2 5537   0.856   5.576   5.327
 1858TIP3    H1 5538   0.778   5.626   5.302
 1858TIP3    H2 5539   0.828   5.485   5.324
 1859TIP3   OH2 5540   5.432   6.581   4.172
 1859TIP3    H1 5541   5.449   6.555   4.263
 1859TIP3    H2 5542   5.509   6.632   4.147
 1860TIP3   OH2 5543   4.803   0.978   3.043
 1860TIP3    H1 5544   4.754   0.912   2.994
 1860TIP3    H2 5545   4.794   1.058   2.993
 1861TIP3   OH2 5546   1.009   6.567   2.871
 1861TIP3    H1 5547   0.938   6.595   2.930
 1861TIP3    H2 5548   1.058   6.502   2.922
 1862TIP3   OH2 5549   3.072   0.156   5.052
 1862TIP3    H1 5550   3.026   0.158   5.137
 1862TIP3    H2 5551   3.162   0.133   5.074
 1863TIP3   OH2 5552   3.991   5.044   1.912
 1863TIP3    H1 5553   3.963   5.077   1.827
 1863TIP3    H2 5554   4.084   5.064   1.917
 1864TIP3   OH2 5555   2.811   3.095   2.246
 1864TIP3    H1 5556   2.877   3.142   2.195
 1864TIP3    H2 5557   2.727   3.122   2.208
 1865TIP3   OH2 5558   5.006   6.464   1.898
 1865TIP3    H1 5559   4.914   6.490   1.897
 1865TIP3    H2 5560   5.006   6.376   1.936
 1866TIP3   OH2 5561   6.918   4.043   4.152
 1866TIP3    H1 5562   6.886   4.012   4.067
 1866TIP3    H2 5563   6.935   4.136   4.138
 1867TIP3   OH2 5564   1.565   0.955   2.409
 1867TIP3    H1 5565   1.598   0.970   2.320
 1867TIP3    H2 5566   1.616   1.015   2.463
 1868TIP3   OH2 5567   0.386   1.933   4.117
 1868TIP3    H1 5568   0.309   1.886   4.149
 1868TIP3    H2 5569   0.454   1.867   4.112
 1869TIP3   OH2 5570   4.886   3.068   5.652
 1869TIP3    H1 5571   4.896   3.146   5.598
 1869TIP3    H2 5572   4.791   3.058   5.661
 1870TIP3   OH2 5573   5.353   1.435   0.536
 1870TIP3    H1 5574   5.345   1.530   0.537
 1870TIP3    H2 5575   5.417   1.415   0.604
 1871TIP3   OH2 5576   4.698   3.863   2.153
 1871TIP3    H1 5577   4.718   3.923   2.225
 1871TIP3    H2 5578   4.765   3.880   2.088
 1872TIP3   OH2 5579   7.134   5.737   1.167
 1872TIP3    H1 5580   7.119   5.691   1.085
 1872TIP3    H2 5581   7.054   5.723   1.217
 1873TIP3   OH2 5582   6.043   5.248   1.703
 1873TIP3    H1 5583   6.046   5.170   1.758
 1873TIP3    H2 5584   6.005   5.218   1.621
 1874TIP3   OH2 5585   1.208   1.165   2.209
 1874TIP3    H1 5586   1.126   1.144   2.254
 1874TIP3    H2 5587   1.204   1.116   2.127
 1875TIP3   OH2 5588   0.620   6.555   1.807
 1875TIP3    H1 5589   0.630   6.621   1.876
 1875TIP3    H2 5590   0.527   6.534   1.807
 1876TIP3   OH2 5591   1.895   4.951   1.062
 1876TIP3    H1 5592   1.866   4.950   0.971
 1876TIP3    H2 5593   1.831   5.006   1.108
 1877TIP3   OH2 5594   1.821   2.428   4.514
 1877TIP3    H1 5595   1.758   2.500   4.522
 1877TIP3    H2 5596   1.894   2.454   4.570
 1878TIP3   OH2 5597   6.036   3.498   2.053
 1878TIP3    H1 5598   6.098   3.525   2.121
 1878TIP3    H2 5599   6.024   3.575   1.999
 1879TIP3   OH2 5600   1.256   4.479   3.517
 1879TIP3    H1 5601   1.330   4.512   3.569
 1879TIP3    H2 5602   1.216   4.557   3.479
 1880TIP3   OH2 5603   5.928   3.938   0.050
 1880TIP3    H1 5604   5.912   3.922   0.144
 1880TIP3    H2 5605   5.851   3.901   0.007
 1881TIP3   OH2 5606   0.144   5.024   2.162
 1881TIP3    H1 5607   0.094   5.086   2.215
 1881TIP3    H2 5608   0.086   4.949   2.152
 1882TIP3   OH2 5609   0.401   0.400   1.942
 1882TIP3    H1 5610   0.402   0.482   1.891
 1882TIP3    H2 5611   0.386   0.332   1.877
 1883TIP3   OH2 5612   3.022   1.673   5.627
 1883TIP3    H1 5613   2.999   1.765   5.620
 1883TIP3    H2 5614   3.078   1.656   5.552
 1884TIP3   OH2 5615   4.278   5.445   0.835
 1884TIP3    H1 5616   4.264   5.528   0.880
 1884TIP3    H2 5617   4.273   5.466   0.742
 1885TIP3   OH2 5618   3.530   2.160   0.168
 1885TIP3    H1 5619   3.545   2.208   0.250
 1885TIP3    H2 5620   3.438   2.135   0.171
 1886TIP3   OH2 5621   3.567   0.374   3.325
 1886TIP3    H1 5622   3.643   0.327   3.361
 1886TIP3    H2 5623   3.498   0.308   3.323
 1887TIP3   OH2 5624   5.731   5.815   2.329
 1887TIP3    H1 5625   5.731   5.850   2.240
 1887TIP3    H2 5626   5.663   5.747   2.328
 1888TIP3   OH2 5627   3.246   5.592   4.061
 1888TIP3    H1 5628   3.240   5.672   4.008
 1888TIP3    H2 5629   3.213   5.523   4.004
 1889TIP3   OH2 5630   7.002   2.218   5.245
 1889TIP3    H1 5631   6.959   2.212   5.160
 1889TIP3    H2 5632   7.070   2.285   5.233
 1890TIP3   OH2 5633   2.437   1.326   5.712
 1890TIP3    H1 5634   2.407   1.413   5.684
 1890TIP3    H2 5635   2.527   1.321   5.682
 1891TIP3   OH2 5636   6.389   2.356   4.875
 1891TIP3    H1 5637   6.340   2.357   4.958
 1891TIP3    H2 5638   6.352   2.429   4.825
 1892TIP3   OH2 5639   3.699   0.575   5.741
 1892TIP3    H1 5640   3.647   0.547   5.817
 1892TIP3    H2 5641   3.636   0.583   5.670
 1893TIP3   OH2 5642   3.282   2.763   3.212
 1893TIP3    H1 5643   3.291   2.777   3.306
 1893TIP3    H2 5644   3.372   2.751   3.181
 1894TIP3   OH2 5645   4.764   4.637   4.126
 1894TIP3    H1 5646   4.731   4.611   4.040
 1894TIP3    H2 5647   4.845   4.686   4.107
 1895TIP3   OH2 5648   5.154   1.244   1.963
 1895TIP3    H1 5649   5.120   1.287   1.885
 1895TIP3    H2 5650   5.170   1.315   2.025
 1896TIP3   OH2 5651   3.718   4.889   3.047
 1896TIP3    H1 5652   3.653   4.844   2.993
 1896TIP3    H2 5653   3.727   4.975   3.006
 1897TIP3   OH2 5654   5.797   0.895   0.636
 1897TIP3    H1 5655   5.792   0.808   0.675
 1897TIP3    H2 5656   5.707   0.925   0.632
 1898TIP3   OH2 5657   5.157   4.637   0.715
 1898TIP3    H1 5658   5.094   4.585   0.664
 1898TIP3    H2 5659   5.151   4.602   0.804
 1899TIP3   OH2 5660   2.141   0.644   5.555
 1899TIP3    H1 5661   2.087   0.681   5.486
 1899TIP3    H2 5662   2.088   0.652   5.634
 1900TIP3   OH2 5663   2.127   0.805   2.928
 1900TIP3    H1 5664   2.084   0.839   2.850
 1900TIP3    H2 5665   2.215   0.845   2.925
 1901TIP3   OH2 5666   2.421   5.744   4.292
 1901TIP3    H1 5667   2.387   5.740   4.203
 1901TIP3    H2 5668   2.351   5.786   4.343
 1902TIP3   OH2 5669   1.926   4.305   2.412
 1902TIP3    H1 5670   1.886   4.300   2.499
 1902TIP3    H2 5671   1.858   4.271   2.353
 1903TIP3   OH2 5672   7.094   0.420   1.301
 1903TIP3    H1 5673   7.081   0.387   1.212
 1903TIP3    H2 5674   7.186   0.401   1.320
 1904TIP3   OH2 5675   5.962   4.259   3.893
 1904TIP3    H1 5676   5.920   4.311   3.824
 1904TIP3    H2 5677   5.893   4.198   3.922
 1905TIP3   OH2 5678   5.369   0.945   0.344
 1905TIP3    H1 5679   5.373   1.032   0.383
 1905TIP3    H2 5680   5.331   0.889   0.412
 1906TIP3   OH2 5681   1.834   3.048   1.798
 1906TIP3    H1 5682   1.833   2.978   1.863
 1906TIP3    H2 5683   1.864   3.006   1.717
 1907TIP3   OH2 5684   0.843   2.634   0.199
 1907TIP3    H1 5685   0.767   2.670   0.154
 1907TIP3    H2 5686   0.816   2.629   0.291
 1908TIP3   OH2 5687   1.289   6.318   0.368
 1908TIP3    H1 5688   1.316   6.233   0.402
 1908TIP3    H2 5689   1.247   6.361   0.441
 1909TIP3   OH2 5690   1.221   6.573   1.734
 1909TIP3    H1 5691   1.132   6.567   1.701
 1909TIP3    H2 5692   1.232   6.495   1.788
 1910TIP3   OH2 5693   0.200   3.087   0.796
 1910TIP3    H1 5694   0.162   3.004   0.766
 1910TIP3    H2 5695   0.153   3.107   0.877
 1911TIP3   OH2 5696   5.129   5.308   0.508
 1911TIP3    H1 5697   5.185   5.380   0.478
 1911TIP3    H2 5698   5.101   5.265   0.427
 1912TIP3   OH2 5699   3.388   6.194   2.592
 1912TIP3    H1 5700   3.380   6.187   2.688
 1912TIP3    H2 5701   3.300   6.219   2.564
 1913TIP3   OH2 5702   3.393   5.802   4.691
 1913TIP3    H1 5703   3.427   5.713   4.685
 1913TIP3    H2 5704   3.316   5.803   4.634
 1914TIP3   OH2 5705   0.205   4.434   5.022
 1914TIP3    H1 5706   0.144   4.508   5.019
 1914TIP3    H2 5707   0.151   4.358   5.041
 1915TIP3   OH2 5708   6.773   5.587   1.000
 1915TIP3    H1 5709   6.718   5.646   1.051
 1915TIP3    H2 5710   6.857   5.632   0.993
 1916TIP3   OH2 5711   5.128   4.907   3.803
 1916TIP3    H1 5712   5.164   4.959   3.731
 1916TIP3    H2 5713   5.080   4.836   3.760
 1917TIP3   OH2 5714   0.510   1.758   4.939
 1917TIP3    H1 5715   0.529   1.666   4.919
 1917TIP3    H2 5716   0.561   1.807   4.875
 1918TIP3   OH2 5717   4.255   3.815   5.391
 1918TIP3    H1 5718   4.270   3.860   5.308
 1918TIP3    H2 5719   4.313   3.859   5.453
 1919TIP3   OH2 5720   4.347   5.680   5.860
 1919TIP3    H1 5721   4.380   5.746   5.799
 1919TIP3    H2 5722   4.263   5.654   5.824
 1920TIP3   OH2 5723   1.822   3.076   4.907
 1920TIP3    H1 5724   1.795   2.987   4.931
 1920TIP3    H2 5725   1.740   3.124   4.898
 1921TIP3   OH2 5726   2.759   6.231   0.062
 1921TIP3    H1 5727   2.725   6.153   0.106
 1921TIP3    H2 5728   2.836   6.201   0.016
 1922TIP3   OH2 5729   4.219   1.353   5.476
 1922TIP3    H1 5730   4.218   1.401   5.393
 1922TIP3    H2 5731   4.129   1.322   5.486
 1923TIP3   OH2 5732   3.021   4.667   1.391
 1923TIP3    H1 5733   3.009   4.684   1.485
 1923TIP3    H2 5734   3.115   4.655   1.381
 1924TIP3   OH2 5735   4.361   0.622   2.361
 1924TIP3    H1 5736   4.267   0.612   2.377
 1924TIP3    H2 5737   4.392   0.532   2.348
 1925TIP3   OH2 5738   2.463   0.884   5.882
 1925TIP3    H1 5739   2.457   0.979   5.892
 1925TIP3    H2 5740   2.539   0.871   5.825
 1926TIP3   OH2 5741   2.142   2.328   4.397
 1926TIP3    H1 5742   2.234   2.318   4.375
 1926TIP3    H2 5743   2.103   2.244   4.372
 1927TIP3   OH2 5744   4.953   6.393   4.045
 1927TIP3    H1 5745   5.041   6.431   4.047
 1927TIP3    H2 5746   4.895   6.467   4.064
 1928TIP3   OH2 5747   6.573   1.634   4.898
 1928TIP3    H1 5748   6.641   1.614   4.834
 1928TIP3    H2 5749   6.600   1.717   4.937
 1929TIP3   OH2 5750   4.723   1.730   4.420
 1929TIP3    H1 5751   4.734   1.729   4.515
 1929TIP3    H2 5752   4.631   1.706   4.406
 1930TIP3   OH2 5753   6.865   2.756   5.821
 1930TIP3    H1 5754   6.844   2.802   5.902
 1930TIP3    H2 5755   6.781   2.723   5.790
 1931TIP3   OH2 5756   4.021  -0.016   2.544
 1931TIP3    H1 5757   4.017   0.080   2.547
 1931TIP3    H2 5758   4.025  -0.037   2.451
 1932TIP3   OH2 5759   3.110   2.174   1.328
 1932TIP3    H1 5760   3.095   2.261   1.364
 1932TIP3    H2 5761   3.124   2.189   1.234
 1933TIP3   OH2 5762   3.445   2.892   0.758
 1933TIP3    H1 5763   3.416   2.839   0.832
 1933TIP3    H2 5764   3.407   2.979   0.775
 1934TIP3   OH2 5765   2.189   3.399   1.247
 1934TIP3    H1 5766   2.149   3.473   1.293
 1934TIP3    H2 5767   2.186   3.327   1.310
 1935TIP3   OH2 5768   0.598   3.596   2.596
 1935TIP3    H1 5769   0.587   3.680   2.552
 1935TIP3    H2 5770   0.657   3.614   2.669
 1936TIP3   OH2 5771   2.593   5.798   1.648
 1936TIP3    H1 5772   2.648   5.767   1.720
 1936TIP3    H2 5773   2.563   5.885   1.677
 1937TIP3   OH2 5774   2.846   2.309   3.449
 1937TIP3    H1 5775   2.804   2.271   3.527
 1937TIP3    H2 5776   2.917   2.363   3.485
 1938TIP3   OH2 5777   3.321   0.752   1.387
 1938TIP3    H1 5778   3.408   0.725   1.418
 1938TIP3    H2 5779   3.339   0.818   1.321
 1939TIP3   OH2 5780   4.623   1.369   2.192
 1939TIP3    H1 5781   4.575   1.293   2.225
 1939TIP3    H2 5782   4.674   1.334   2.119
 1940TIP3   OH2 5783   2.222   0.784   0.385
 1940TIP3    H1 5784   2.302   0.786   0.333
 1940TIP3    H2 5785   2.185   0.697   0.371
 1941TIP3   OH2 5786   5.218   1.375   3.563
 1941TIP3    H1 5787   5.174   1.297   3.529
 1941TIP3    H2 5788   5.148   1.438   3.579
 1942TIP3   OH2 5789   0.843   0.611   4.756
 1942TIP3    H1 5790   0.868   0.520   4.742
 1942TIP3    H2 5791   0.927   0.656   4.771
 1943TIP3   OH2 5792   0.993   3.894   1.310
 1943TIP3    H1 5793   1.015   3.984   1.333
 1943TIP3    H2 5794   1.077   3.851   1.298
 1944TIP3   OH2 5795   0.591   0.665   4.613
 1944TIP3    H1 5796   0.601   0.631   4.525
 1944TIP3    H2 5797   0.677   0.653   4.653
 1945TIP3   OH2 5798   5.685   6.696   4.104
 1945TIP3    H1 5799   5.699   6.709   4.010
 1945TIP3    H2 5800   5.751   6.632   4.130
 1946TIP3   OH2 5801   0.864   2.321   2.774
 1946TIP3    H1 5802   0.891   2.411   2.790
 1946TIP3    H2 5803   0.888   2.274   2.854
 1947TIP3   OH2 5804   1.194   2.394   1.443
 1947TIP3    H1 5805   1.169   2.321   1.386
 1947TIP3    H2 5806   1.288   2.403   1.430
 1948TIP3   OH2 5807   4.227   0.298   0.138
 1948TIP3    H1 5808   4.251   0.212   0.171
 1948TIP3    H2 5809   4.302   0.354   0.158
 1949TIP3   OH2 5810   1.954   5.763   3.698
 1949TIP3    H1 5811   1.918   5.819   3.767
 1949TIP3    H2 5812   2.014   5.820   3.650
 1950TIP3   OH2 5813   5.506   2.301   2.821
 1950TIP3    H1 5814   5.416   2.282   2.846
 1950TIP3    H2 5815   5.501   2.324   2.728
 1951TIP3   OH2 5816   2.102   6.376   3.390
 1951TIP3    H1 5817   2.112   6.459   3.438
 1951TIP3    H2 5818   2.067   6.315   3.455
 1952TIP3   OH2 5819   1.570   2.006   4.279
 1952TIP3    H1 5820   1.563   1.930   4.337
 1952TIP3    H2 5821   1.649   2.052   4.308
 1953TIP3   OH2 5822   1.342   1.693   5.798
 1953TIP3    H1 5823   1.336   1.711   5.892
 1953TIP3    H2 5824   1.434   1.674   5.783
 1954TIP3   OH2 5825   5.502   2.838   4.195
 1954TIP3    H1 5826   5.540   2.751   4.183
 1954TIP3    H2 5827   5.474   2.864   4.107
 1955TIP3   OH2 5828   1.506   1.297   3.726
 1955TIP3    H1 5829   1.540   1.208   3.720
 1955TIP3    H2 5830   1.446   1.305   3.653
 1956TIP3   OH2 5831   4.968   3.585   0.823
 1956TIP3    H1 5832   4.913   3.642   0.769
 1956TIP3    H2 5833   5.057   3.610   0.800
 1957TIP3   OH2 5834   6.744   6.133   0.846
 1957TIP3    H1 5835   6.783   6.176   0.770
 1957TIP3    H2 5836   6.794   6.052   0.857
 1958TIP3   OH2 5837   1.335   5.196   3.145
 1958TIP3    H1 5838   1.254   5.152   3.173
 1958TIP3    H2 5839   1.353   5.160   3.059
 1959TIP3   OH2 5840   4.863   0.541   4.887
 1959TIP3    H1 5841   4.789   0.556   4.828
 1959TIP3    H2 5842   4.863   0.617   4.945
 1960TIP3   OH2 5843   5.600   3.958   2.497
 1960TIP3    H1 5844   5.588   4.007   2.416
 1960TIP3    H2 5845   5.526   3.897   2.499
 1961TIP3   OH2 5846   4.017   5.261   3.801
 1961TIP3    H1 5847   3.986   5.264   3.892
 1961TIP3    H2 5848   3.987   5.176   3.768
 1962TIP3   OH2 5849   6.631   3.849   2.719
 1962TIP3    H1 5850   6.556   3.807   2.676
 1962TIP3    H2 5851   6.678   3.893   2.648
 1963TIP3   OH2 5852   4.141   5.299   5.613
 1963TIP3    H1 5853   4.061   5.327   5.657
 1963TIP3    H2 5854   4.111   5.246   5.539
 1964TIP3   OH2 5855   1.860   3.406   1.068
 1964TIP3    H1 5856   1.854   3.395   1.163
 1964TIP3    H2 5857   1.812   3.487   1.050
 1965TIP3   OH2 5858   6.354   3.529   2.215
 1965TIP3    H1 5859   6.384   3.443   2.245
 1965TIP3    H2 5860   6.370   3.529   2.121
 1966TIP3   OH2 5861   0.045   2.362   0.020
 1966TIP3    H1 5862   0.071   2.430   0.082
 1966TIP3    H2 5863  -0.051   2.361   0.024
 1967TIP3   OH2 5864   5.352   6.663   5.221
 1967TIP3    H1 5865   5.379   6.644   5.131
 1967TIP3    H2 5866   5.392   6.594   5.274
 1968TIP3   OH2 5867   5.559   1.721   1.928
 1968TIP3    H1 5868   5.545   1.725   1.834
 1968TIP3    H2 5869   5.635   1.663   1.939
 1969TIP3   OH2 5870   3.025   6.393   4.332
 1969TIP3    H1 5871   3.060   6.434   4.412
 1969TIP3    H2 5872   3.029   6.299   4.349
 1970TIP3   OH2 5873   2.627   0.847   0.911
 1970TIP3    H1 5874   2.602   0.883   0.996
 1970TIP3    H2 5875   2.601   0.755   0.915
 1971TIP3   OH2 5876   4.767   3.459   2.306
 1971TIP3    H1 5877   4.752   3.427   2.395
 1971TIP3    H2 5878   4.683   3.499   2.281
 1972TIP3   OH2 5879   7.026   6.063   0.089
 1972TIP3    H1 5880   7.080   6.134   0.053
 1972TIP3    H2 5881   6.937   6.082   0.057
 1973TIP3   OH2 5882   3.779   2.959   1.311
 1973TIP3    H1 5883   3.728   2.997   1.240
 1973TIP3    H2 5884   3.822   3.034   1.352
 1974TIP3   OH2 5885   1.013   0.716   0.342
 1974TIP3    H1 5886   0.982   0.731   0.253
 1974TIP3    H2 5887   0.943   0.749   0.398
 1975TIP3   OH2 5888   1.050   1.921   2.338
 1975TIP3    H1 5889   1.102   1.844   2.315
 1975TIP3    H2 5890   1.061   1.980   2.264
 1976TIP3   OH2 5891   0.773   2.056   4.201
 1976TIP3    H1 5892   0.864   2.048   4.173
 1976TIP3    H2 5893   0.741   2.135   4.157
 1977TIP3   OH2 5894   6.722   6.602   3.031
 1977TIP3    H1 5895   6.703   6.695   3.021
 1977TIP3    H2 5896   6.814   6.593   3.006
 1978TIP3   OH2 5897   3.769   3.927   4.986
 1978TIP3    H1 5898   3.814   3.902   5.066
 1978TIP3    H2 5899   3.678   3.899   5.000
 1979TIP3   OH2 5900   0.877   2.276   3.844
 1979TIP3    H1 5901   0.917   2.210   3.900
 1979TIP3    H2 5902   0.949   2.311   3.791
 1980TIP3   OH2 5903   3.495   5.204   3.946
 1980TIP3    H1 5904   3.460   5.242   4.027
 1980TIP3    H2 5905   3.468   5.112   3.950
 1981TIP3   OH2 5906   6.164   0.737   3.827
 1981TIP3    H1 5907   6.237   0.797   3.838
 1981TIP3    H2 5908   6.127   0.726   3.914
 1982TIP3   OH2 5909   2.648   6.572   1.690
 1982TIP3    H1 5910   2.611   6.547   1.606
 1982TIP3    H2 5911   2.708   6.501   1.713
 1983TIP3   OH2 5912   4.301   0.375   5.868
 1983TIP3    H1 5913   4.294   0.300   5.809
 1983TIP3    H2 5914   4.301   0.451   5.811
 1984TIP3   OH2 5915   2.709   3.866   2.649
 1984TIP3    H1 5916   2.684   3.825   2.566
 1984TIP3    H2 5917   2.734   3.794   2.706
 1985TIP3   OH2 5918   1.939   3.647   0.100
 1985TIP3    H1 5919   1.938   3.696   0.183
 1985TIP3    H2 5920   2.000   3.576   0.115
 1986TIP3   OH2 5921   5.380   5.444   5.482
 1986TIP3    H1 5922   5.333   5.378   5.534
 1986TIP3    H2 5923   5.311   5.497   5.443
 1987TIP3   OH2 5924   3.016   0.916   1.385
 1987TIP3    H1 5925   3.032   0.832   1.428
 1987TIP3    H2 5926   3.032   0.898   1.292
 1988TIP3   OH2 5927   4.379   3.730   0.694
 1988TIP3    H1 5928   4.363   3.819   0.727
 1988TIP3    H2 5929   4.293   3.687   0.700
 1989TIP3   OH2 5930   5.722   2.499   3.867
 1989TIP3    H1 5931   5.757   2.520   3.780
 1989TIP3    H2 5932   5.636   2.460   3.850
 1990TIP3   OH2 5933   3.822   3.181   4.725
 1990TIP3    H1 5934   3.805   3.227   4.643
 1990TIP3    H2 5935   3.855   3.095   4.699
 1991TIP3   OH2 5936   3.960   4.450   0.817
 1991TIP3    H1 5937   3.966   4.355   0.804
 1991TIP3    H2 5938   4.012   4.466   0.896
 1992TIP3   OH2 5939   6.120   5.426   2.307
 1992TIP3    H1 5940   6.075   5.453   2.227
 1992TIP3    H2 5941   6.080   5.479   2.376
 1993TIP3   OH2 5942   5.368   2.418   5.209
 1993TIP3    H1 5943   5.410   2.479   5.269
 1993TIP3    H2 5944   5.439   2.360   5.180
 1994TIP3   OH2 5945   4.614   4.278   4.370
 1994TIP3    H1 5946   4.562   4.220   4.425
 1994TIP3    H2 5947   4.603   4.242   4.281
 1995TIP3   OH2 5948   4.359   5.920   0.773
 1995TIP3    H1 5949   4.386   5.838   0.815
 1995TIP3    H2 5950   4.363   5.901   0.679
 1996TIP3   OH2 5951   3.694   2.220   5.837
 1996TIP3    H1 5952   3.660   2.138   5.872
 1996TIP3    H2 5953   3.780   2.197   5.802
 1997TIP3   OH2 5954   0.802   5.747   2.526
 1997TIP3    H1 5955   0.792   5.707   2.440
 1997TIP3    H2 5956   0.715   5.742   2.565
 1998TIP3   OH2 5957   7.145   6.058   4.572
 1998TIP3    H1 5958   7.231   6.093   4.594
 1998TIP3    H2 5959   7.090   6.136   4.558
 1999TIP3   OH2 5960   3.955   3.460   1.454
 1999TIP3    H1 5961   4.023   3.517   1.491
 1999TIP3    H2 5962   3.996   3.421   1.377
 2000TIP3   OH2 5963   3.347   1.451   4.389
 2000TIP3    H1 5964   3.439   1.429   4.372
 2000TIP3    H2 5965   3.345   1.547   4.393
 2001TIP3   OH2 5966   1.665   1.425   4.786
 2001TIP3    H1 5967   1.743   1.425   4.843
 2001TIP3    H2 5968   1.596   1.464   4.840
 2002TIP3   OH2 5969   6.898   5.557   5.161
 2002TIP3    H1 5970   6.925   5.526   5.248
 2002TIP3    H2 5971   6.978   5.551   5.108
 2003TIP3   OH2 5972   6.689   6.434   0.153
 2003TIP3    H1 5973   6.719   6.350   0.120
 2003TIP3    H2 5974   6.631   6.468   0.085
 2004TIP3   OH2 5975   2.946   0.468   4.233
 2004TIP3    H1 5976   2.861   0.479   4.191
 2004TIP3    H2 5977   2.968   0.556   4.266
 2005TIP3   OH2 5978   0.441   1.694   0.765
 2005TIP3    H1 5979   0.438   1.776   0.814
 2005TIP3    H2 5980   0.352   1.682   0.733
 2006TIP3   OH2 5981   6.753   5.958   3.109
 2006TIP3    H1 5982   6.677   5.988   3.060
 2006TIP3    H2 5983   6.826   6.010   3.076
 2007TIP3   OH2 5984   1.178   5.050   4.621
 2007TIP3    H1 5985   1.203   5.137   4.654
 2007TIP3    H2 5986   1.208   5.050   4.530
 2008TIP3   OH2 5987   1.539   0.726   4.580
 2008TIP3    H1 5988   1.606   0.666   4.548
 2008TIP3    H2 5989   1.544   0.802   4.522
 2009TIP3   OH2 5990   5.164   4.663   2.924
 2009TIP3    H1 5991   5.240   4.660   2.982
 2009TIP3    H2 5992   5.187   4.727   2.857
 2010TIP3   OH2 5993   0.585   3.460   5.650
 2010TIP3    H1 5994   0.502   3.462   5.603
 2010TIP3    H2 5995   0.586   3.375   5.694
 2011TIP3   OH2 5996   0.214   4.524   4.209
 2011TIP3    H1 5997   0.186   4.616   4.211
 2011TIP3    H2 5998   0.289   4.521   4.269
 2012TIP3   OH2 5999   1.396   0.852   0.991
 2012TIP3    H1 6000   1.475   0.810   0.958
 2012TIP3    H2 6001   1.388   0.822   1.082
 2013TIP3   OH2 6002   4.314   5.399   2.920
 2013TIP3    H1 6003   4.228   5.401   2.878
 2013TIP3    H2 6004   4.374   5.376   2.848
 2014TIP3   OH2 6005   3.666   5.565   2.514
 2014TIP3    H1 6006   3.621   5.515   2.446
 2014TIP3    H2 6007   3.625   5.538   2.596
 2015TIP3   OH2 6008   6.462   1.582   0.594
 2015TIP3    H1 6009   6.509   1.636   0.530
 2015TIP3    H2 6010   6.371   1.588   0.567
 2016TIP3   OH2 6011   4.635   2.465   0.741
 2016TIP3    H1 6012   4.698   2.528   0.707
 2016TIP3    H2 6013   4.687   2.404   0.793
 2017TIP3   OH2 6014   4.681   0.743   4.999
 2017TIP3    H1 6015   4.638   0.816   4.955
 2017TIP3    H2 6016   4.763   0.779   5.031
 2018TIP3   OH2 6017   4.925   5.548   3.379
 2018TIP3    H1 6018   4.832   5.556   3.357
 2018TIP3    H2 6019   4.962   5.633   3.354
 2019TIP3   OH2 6020   4.895   4.047   2.755
 2019TIP3    H1 6021   4.819   3.997   2.725
 2019TIP3    H2 6022   4.881   4.136   2.722
 2020TIP3   OH2 6023   2.077   4.479   1.525
 2020TIP3    H1 6024   2.119   4.393   1.514
 2020TIP3    H2 6025   2.148   4.537   1.551
 2021TIP3   OH2 6026   6.264   4.287   3.746
 2021TIP3    H1 6027   6.187   4.330   3.782
 2021TIP3    H2 6028   6.254   4.195   3.772
 2022TIP3   OH2 6029   4.023   2.548   1.844
 2022TIP3    H1 6030   4.046   2.521   1.755
 2022TIP3    H2 6031   4.008   2.642   1.837
 2023TIP3   OH2 6032   4.550   6.081   4.805
 2023TIP3    H1 6033   4.567   6.138   4.730
 2023TIP3    H2 6034   4.492   6.132   4.861
 2024TIP3   OH2 6035   7.115   3.819   2.524
 2024TIP3    H1 6036   7.179   3.773   2.470
 2024TIP3    H2 6037   7.157   3.902   2.545
 2025TIP3   OH2 6038   4.921   5.729   4.400
 2025TIP3    H1 6039   4.881   5.710   4.484
 2025TIP3    H2 6040   4.848   5.752   4.342
 2026TIP3   OH2 6041   1.847   5.435   2.895
 2026TIP3    H1 6042   1.942   5.427   2.896
 2026TIP3    H2 6043   1.821   5.401   2.809
 2027TIP3   OH2 6044   5.281   5.682   1.124
 2027TIP3    H1 6045   5.299   5.773   1.150
 2027TIP3    H2 6046   5.354   5.658   1.068
 2028TIP3   OH2 6047   0.555   2.392   0.083
 2028TIP3    H1 6048   0.600   2.309   0.071
 2028TIP3    H2 6049   0.513   2.408  -0.002
 2029TIP3   OH2 6050   0.083   4.744   2.154
 2029TIP3    H1 6051   0.131   4.662   2.154
 2029TIP3    H2 6052   0.017   4.734   2.223
 2030TIP3   OH2 6053   2.163   3.841   2.123
 2030TIP3    H1 6054   2.077   3.882   2.115
 2030TIP3    H2 6055   2.224   3.915   2.129
 2031TIP3   OH2 6056   3.270   6.602   3.594
 2031TIP3    H1 6057   3.239   6.648   3.517
 2031TIP3    H2 6058   3.245   6.511   3.579
 2032TIP3   OH2 6059   4.291   0.270   1.947
 2032TIP3    H1 6060   4.342   0.241   1.871
 2032TIP3    H2 6061   4.213   0.215   1.945
 2033TIP3   OH2 6062   3.283   4.603   1.395
 2033TIP3    H1 6063   3.271   4.528   1.337
 2033TIP3    H2 6064   3.356   4.579   1.452
 2034TIP3   OH2 6065   1.617   0.697   0.970
 2034TIP3    H1 6066   1.623   0.643   1.049
 2034TIP3    H2 6067   1.694   0.673   0.919
 2035TIP3   OH2 6068   6.333   2.986   3.344
 2035TIP3    H1 6069   6.288   3.055   3.393
 2035TIP3    H2 6070   6.425   2.995   3.371
 2036TIP3   OH2 6071   1.433   6.561   0.408
 2036TIP3    H1 6072   1.384   6.640   0.429
 2036TIP3    H2 6073   1.366   6.496   0.386
 2037TIP3   OH2 6074   2.113   3.606   1.420
 2037TIP3    H1 6075   2.130   3.658   1.341
 2037TIP3    H2 6076   2.189   3.621   1.476
 2038TIP3   OH2 6077   3.580   4.630   4.458
 2038TIP3    H1 6078   3.599   4.614   4.551
 2038TIP3    H2 6079   3.485   4.639   4.454
 2039TIP3   OH2 6080   1.599   0.357   4.014
 2039TIP3    H1 6081   1.550   0.331   4.092
 2039TIP3    H2 6082   1.532   0.384   3.951
 2040TIP3   OH2 6083   4.196   6.599   5.421
 2040TIP3    H1 6084   4.118   6.603   5.365
 2040TIP3    H2 6085   4.166   6.629   5.507
 2041TIP3   OH2 6086   1.180   0.925   5.283
 2041TIP3    H1 6087   1.251   0.914   5.347
 2041TIP3    H2 6088   1.103   0.944   5.336
 2042TIP3   OH2 6089   6.536   5.710   0.160
 2042TIP3    H1 6090   6.531   5.636   0.220
 2042TIP3    H2 6091   6.446   5.741   0.151
 2043TIP3   OH2 6092   0.783   3.520   3.250
 2043TIP3    H1 6093   0.870   3.547   3.222
 2043TIP3    H2 6094   0.770   3.562   3.335
 2044TIP3   OH2 6095   4.111   2.756   0.746
 2044TIP3    H1 6096   4.109   2.661   0.744
 2044TIP3    H2 6097   4.188   2.779   0.693
 2045TIP3   OH2 6098   0.293   5.246   5.203
 2045TIP3    H1 6099   0.341   5.164   5.211
 2045TIP3    H2 6100   0.224   5.240   5.269
 2046TIP3   OH2 6101   7.097   0.018   1.437
 2046TIP3    H1 6102   7.032   0.089   1.431
 2046TIP3    H2 6103   7.095  -0.023   1.350
 2047TIP3   OH2 6104   0.470   4.360   4.952
 2047TIP3    H1 6105   0.497   4.420   5.021
 2047TIP3    H2 6106   0.374   4.363   4.954
 2048TIP3   OH2 6107   4.748   6.688   5.018
 2048TIP3    H1 6108   4.723   6.624   4.951
 2048TIP3    H2 6109   4.784   6.635   5.089
 2049TIP3   OH2 6110   1.859   1.717   1.258
 2049TIP3    H1 6111   1.856   1.628   1.293
 2049TIP3    H2 6112   1.817   1.770   1.326
 2050TIP3   OH2 6113   1.293   4.315   2.182
 2050TIP3    H1 6114   1.203   4.330   2.154
 2050TIP3    H2 6115   1.304   4.368   2.261
 2051TIP3   OH2 6116   2.603   0.391   2.884
 2051TIP3    H1 6117   2.587   0.329   2.813
 2051TIP3    H2 6118   2.590   0.477   2.844
 2052TIP3   OH2 6119   2.250   2.928   1.217
 2052TIP3    H1 6120   2.207   2.875   1.150
 2052TIP3    H2 6121   2.286   2.864   1.279
 2053TIP3   OH2 6122   0.844   1.204   5.019
 2053TIP3    H1 6123   0.808   1.138   5.078
 2053TIP3    H2 6124   0.832   1.166   4.932
 2054TIP3   OH2 6125   4.434   4.023   1.166
 2054TIP3    H1 6126   4.446   4.109   1.127
 2054TIP3    H2 6127   4.339   4.012   1.173
 2055TIP3   OH2 6128   0.865   1.691   2.342
 2055TIP3    H1 6129   0.941   1.747   2.358
 2055TIP3    H2 6130   0.791   1.751   2.337
 2056TIP3   OH2 6131   5.448   6.400   0.258
 2056TIP3    H1 6132   5.378   6.446   0.212
 2056TIP3    H2 6133   5.525   6.411   0.202
 2057TIP3   OH2 6134   4.922   1.560   4.339
 2057TIP3    H1 6135   4.849   1.622   4.346
 2057TIP3    H2 6136   4.986   1.590   4.403
 2058TIP3   OH2 6137   4.340   5.853   0.517
 2058TIP3    H1 6138   4.272   5.850   0.449
 2058TIP3    H2 6139   4.422   5.851   0.468
 2059TIP3   OH2 6140   2.627   1.556   3.075
 2059TIP3    H1 6141   2.691   1.612   3.118
 2059TIP3    H2 6142   2.664   1.539   2.988
 2060TIP3   OH2 6143   5.381   2.898   5.396
 2060TIP3    H1 6144   5.359   2.819   5.347
 2060TIP3    H2 6145   5.405   2.866   5.483
 2061TIP3   OH2 6146   5.933   5.273   4.542
 2061TIP3    H1 6147   5.943   5.363   4.573
 2061TIP3    H2 6148   5.862   5.237   4.596
 2062TIP3   OH2 6149   1.900   3.021   0.752
 2062TIP3    H1 6150   1.916   3.046   0.843
 2062TIP3    H2 6151   1.984   2.985   0.722
 2063TIP3   OH2 6152   4.006   4.256   3.682
 2063TIP3    H1 6153   3.940   4.293   3.741
 2063TIP3    H2 6154   4.090   4.290   3.715
 2064TIP3   OH2 6155   2.813   2.082   5.039
 2064TIP3    H1 6156   2.863   2.138   5.099
 2064TIP3    H2 6157   2.775   2.015   5.094
 2065TIP3   OH2 6158   0.478   4.371   1.830
 2065TIP3    H1 6159   0.502   4.380   1.738
 2065TIP3    H2 6160   0.402   4.428   1.840
 2066TIP3   OH2 6161   7.162   4.906   4.939
 2066TIP3    H1 6162   7.228   4.949   4.884
 2066TIP3    H2 6163   7.174   4.945   5.026
 2067TIP3   OH2 6164   4.444   0.038   0.951
 2067TIP3    H1 6165   4.376   0.063   0.889
 2067TIP3    H2 6166   4.450  -0.057   0.944
 2068TIP3   OH2 6167   2.375   0.797   1.394
 2068TIP3    H1 6168   2.412   0.848   1.322
 2068TIP3    H2 6169   2.397   0.846   1.473
 2069TIP3   OH2 6170   4.431   5.907   5.283
 2069TIP3    H1 6171   4.416   5.969   5.355
 2069TIP3    H2 6172   4.379   5.941   5.210
 2070TIP3   OH2 6173   2.940   0.168   0.350
 2070TIP3    H1 6174   2.856   0.149   0.308
 2070TIP3    H2 6175   2.917   0.195   0.439
 2071TIP3   OH2 6176   0.586   2.625   2.465
 2071TIP3    H1 6177   0.568   2.564   2.537
 2071TIP3    H2 6178   0.575   2.711   2.504
 2072TIP3   OH2 6179   2.704   2.196   1.038
 2072TIP3    H1 6180   2.712   2.147   1.120
 2072TIP3    H2 6181   2.623   2.245   1.048
 2073TIP3   OH2 6182   0.278   1.731   3.673
 2073TIP3    H1 6183   0.354   1.748   3.730
 2073TIP3    H2 6184   0.316   1.694   3.593
 2074TIP3   OH2 6185   6.468   1.003   5.311
 2074TIP3    H1 6186   6.522   0.924   5.322
 2074TIP3    H2 6187   6.511   1.069   5.365
 2075TIP3   OH2 6188   5.079   0.468   5.200
 2075TIP3    H1 6189   5.111   0.418   5.275
 2075TIP3    H2 6190   5.157   0.509   5.163
 2076TIP3   OH2 6191   6.561   4.963   4.277
 2076TIP3    H1 6192   6.561   4.948   4.182
 2076TIP3    H2 6193   6.483   4.917   4.308
 2077TIP3   OH2 6194   6.761   2.540   2.515
 2077TIP3    H1 6195   6.737   2.595   2.441
 2077TIP3    H2 6196   6.829   2.589   2.561
 2078TIP3   OH2 6197   3.550   4.448   5.172
 2078TIP3    H1 6198   3.524   4.359   5.196
 2078TIP3    H2 6199   3.644   4.442   5.155
 2079TIP3   OH2 6200   4.719   2.743   1.013
 2079TIP3    H1 6201   4.748   2.762   0.924
 2079TIP3    H2 6202   4.624   2.755   1.010
 2080TIP3   OH2 6203   6.454   6.112   3.123
 2080TIP3    H1 6204   6.484   6.201   3.107
 2080TIP3    H2 6205   6.450   6.071   3.036
 2081TIP3   OH2 6206   3.352   2.855   3.461
 2081TIP3    H1 6207   3.379   2.833   3.550
 2081TIP3    H2 6208   3.349   2.951   3.460
 2082TIP3   OH2 6209   4.553   1.100   2.304
 2082TIP3    H1 6210   4.625   1.052   2.263
 2082TIP3    H2 6211   4.521   1.040   2.372
 2083TIP3   OH2 6212   0.654   4.804   0.844
 2083TIP3    H1 6213   0.601   4.733   0.881
 2083TIP3    H2 6214   0.614   4.822   0.759
 2084TIP3   OH2 6215   2.669   4.370   5.513
 2084TIP3    H1 6216   2.652   4.428   5.438
 2084TIP3    H2 6217   2.608   4.297   5.500
 2085TIP3   OH2 6218   4.402   1.334   3.909
 2085TIP3    H1 6219   4.435   1.395   3.974
 2085TIP3    H2 6220   4.421   1.248   3.945
 2086TIP3   OH2 6221   1.423   5.092   1.573
 2086TIP3    H1 6222   1.468   5.097   1.658
 2086TIP3    H2 6223   1.440   5.003   1.543
 2087TIP3   OH2 6224   6.255   2.670   1.053
 2087TIP3    H1 6225   6.230   2.626   1.134
 2087TIP3    H2 6226   6.314   2.740   1.080
 2088TIP3   OH2 6227   3.609   6.116   3.341
 2088TIP3    H1 6228   3.591   6.171   3.417
 2088TIP3    H2 6229   3.534   6.058   3.334
 2089TIP3   OH2 6230   6.003   0.570   3.457
 2089TIP3    H1 6231   6.075   0.594   3.515
 2089TIP3    H2 6232   6.021   0.479   3.433
 2090TIP3   OH2 6233   5.631   5.091   3.318
 2090TIP3    H1 6234   5.536   5.084   3.326
 2090TIP3    H2 6235   5.661   5.000   3.317
 2091TIP3   OH2 6236   4.525   1.208   1.934
 2091TIP3    H1 6237   4.485   1.246   1.856
 2091TIP3    H2 6238   4.453   1.196   1.995
 2092TIP3   OH2 6239   0.630   5.727   3.256
 2092TIP3    H1 6240   0.601   5.639   3.233
 2092TIP3    H2 6241   0.604   5.738   3.347
 2093TIP3   OH2 6242   6.958   2.874   3.236
 2093TIP3    H1 6243   6.930   2.804   3.177
 2093TIP3    H2 6244   6.882   2.932   3.244
 2094TIP3   OH2 6245   1.126   1.231   5.239
 2094TIP3    H1 6246   1.054   1.274   5.286
 2094TIP3    H2 6247   1.107   1.138   5.248
 2095TIP3   OH2 6248   6.093   5.027   4.738
 2095TIP3    H1 6249   6.107   5.119   4.716
 2095TIP3    H2 6250   6.155   4.979   4.684
 2096TIP3   OH2 6251   1.163   4.682   5.002
 2096TIP3    H1 6252   1.251   4.653   4.980
 2096TIP3    H2 6253   1.164   4.691   5.097
 2097TIP3   OH2 6254   0.522   2.659   4.816
 2097TIP3    H1 6255   0.579   2.587   4.789
 2097TIP3    H2 6256   0.434   2.626   4.802
 2098TIP3   OH2 6257   4.548   2.825   2.003
 2098TIP3    H1 6258   4.548   2.873   1.920
 2098TIP3    H2 6259   4.456   2.822   2.029
 2099TIP3   OH2 6260   0.273   1.189   0.582
 2099TIP3    H1 6261   0.316   1.274   0.592
 2099TIP3    H2 6262   0.224   1.177   0.664
 2100TIP3   OH2 6263   4.920   1.320   2.226
 2100TIP3    H1 6264   5.014   1.318   2.207
 2100TIP3    H2 6265   4.888   1.398   2.179
 2101TIP3   OH2 6266   4.991   2.942   0.176
 2101TIP3    H1 6267   4.906   2.982   0.159
 2101TIP3    H2 6268   4.989   2.921   0.270
 2102TIP3   OH2 6269   5.555   6.019   5.387
 2102TIP3    H1 6270   5.529   6.069   5.309
 2102TIP3    H2 6271   5.482   6.032   5.448
 2103TIP3   OH2 6272   2.452   1.997   3.867
 2103TIP3    H1 6273   2.514   1.951   3.923
 2103TIP3    H2 6274   2.431   2.077   3.914
 2104TIP3   OH2 6275   0.918   6.544   5.407
 2104TIP3    H1 6276   0.964   6.463   5.431
 2104TIP3    H2 6277   0.910   6.592   5.489
 2105TIP3   OH2 6278   1.369   1.203   4.052
 2105TIP3    H1 6279   1.458   1.200   4.088
 2105TIP3    H2 6280   1.371   1.275   3.989
 2106TIP3   OH2 6281   5.846   1.257   2.668
 2106TIP3    H1 6282   5.932   1.222   2.692
 2106TIP3    H2 6283   5.817   1.303   2.747
 2107TIP3   OH2 6284   4.201   5.336   1.148
 2107TIP3    H1 6285   4.247   5.344   1.064
 2107TIP3    H2 6286   4.118   5.382   1.134
 2108TIP3   OH2 6287   6.805   2.926   1.977
 2108TIP3    H1 6288   6.881   2.946   1.921
 2108TIP3    H2 6289   6.802   2.998   2.040
 2109TIP3   OH2 6290   6.511   4.699   3.804
 2109TIP3    H1 6291   6.531   4.770   3.864
 2109TIP3    H2 6292   6.506   4.621   3.859
 2110TIP3   OH2 6293   5.652   0.147   1.611
 2110TIP3    H1 6294   5.641   0.128   1.705
 2110TIP3    H2 6295   5.717   0.085   1.581
 2111TIP3   OH2 6296   0.911   2.031   2.940
 2111TIP3    H1 6297   0.866   1.975   2.876
 2111TIP3    H2 6298   1.004   2.013   2.927
 2112TIP3   OH2 6299   4.951   5.376   1.515
 2112TIP3    H1 6300   4.866   5.351   1.479
 2112TIP3    H2 6301   4.940   5.468   1.540
 2113TIP3   OH2 6302   3.706   5.263   1.506
 2113TIP3    H1 6303   3.740   5.328   1.445
 2113TIP3    H2 6304   3.635   5.220   1.459
 2114TIP3   OH2 6305   0.739   1.570   5.637
 2114TIP3    H1 6306   0.784   1.491   5.666
 2114TIP3    H2 6307   0.810   1.632   5.618
 2115TIP3   OH2 6308   1.094   5.735   4.005
 2115TIP3    H1 6309   1.048   5.659   3.971
 2115TIP3    H2 6310   1.162   5.753   3.941
 2116TIP3   OH2 6311   5.136   5.139   0.082
 2116TIP3    H1 6312   5.042   5.158   0.075
 2116TIP3    H2 6313   5.143   5.076   0.154
 2117TIP3   OH2 6314   3.989   0.804   0.830
 2117TIP3    H1 6315   3.903   0.836   0.802
 2117TIP3    H2 6316   4.014   0.740   0.763
 2118TIP3   OH2 6317   3.592   1.365   4.299
 2118TIP3    H1 6318   3.587   1.444   4.246
 2118TIP3    H2 6319   3.540   1.300   4.251
 2119TIP3   OH2 6320   6.431   4.108   0.468
 2119TIP3    H1 6321   6.451   4.200   0.481
 2119TIP3    H2 6322   6.475   4.084   0.386
 2120TIP3   OH2 6323   5.559   1.550   0.337
 2120TIP3    H1 6324   5.574   1.643   0.354
 2120TIP3    H2 6325   5.528   1.514   0.420
 2121TIP3   OH2 6326   4.679   0.420   3.212
 2121TIP3    H1 6327   4.641   0.341   3.173
 2121TIP3    H2 6328   4.746   0.448   3.151
 2122TIP3   OH2 6329   5.196   3.154   4.408
 2122TIP3    H1 6330   5.191   3.059   4.396
 2122TIP3    H2 6331   5.149   3.170   4.490
 2123TIP3   OH2 6332   0.251   4.560   3.231
 2123TIP3    H1 6333   0.294   4.620   3.292
 2123TIP3    H2 6334   0.322   4.517   3.184
 2124TIP3   OH2 6335   0.816   6.553   3.535
 2124TIP3    H1 6336   0.800   6.549   3.440
 2124TIP3    H2 6337   0.811   6.646   3.556
 2125TIP3   OH2 6338   1.458   6.453   4.825
 2125TIP3    H1 6339   1.399   6.490   4.760
 2125TIP3    H2 6340   1.531   6.417   4.775
 2126TIP3   OH2 6341   4.662   0.791   1.467
 2126TIP3    H1 6342   4.640   0.884   1.462
 2126TIP3    H2 6343   4.681   0.767   1.376
 2127TIP3   OH2 6344   1.492   5.008   0.929
 2127TIP3    H1 6345   1.403   5.022   0.895
 2127TIP3    H2 6346   1.537   5.091   0.911
 2128TIP3   OH2 6347   6.015   2.701   0.227
 2128TIP3    H1 6348   6.055   2.760   0.163
 2128TIP3    H2 6349   6.021   2.614   0.188
 2129TIP3   OH2 6350   3.368   0.293   0.194
 2129TIP3    H1 6351   3.363   0.201   0.221
 2129TIP3    H2 6352   3.457   0.303   0.160
 2130TIP3   OH2 6353   5.029   0.037   1.888
 2130TIP3    H1 6354   4.936   0.041   1.909
 2130TIP3    H2 6355   5.074   0.055   1.970
 2131TIP3   OH2 6356   1.705   5.703   2.575
 2131TIP3    H1 6357   1.646   5.758   2.626
 2131TIP3    H2 6358   1.700   5.739   2.486
 2132TIP3   OH2 6359   2.570   1.708   3.932
 2132TIP3    H1 6360   2.494   1.651   3.945
 2132TIP3    H2 6361   2.638   1.672   3.990
 2133TIP3   OH2 6362   1.190   4.895   5.571
 2133TIP3    H1 6363   1.166   4.985   5.590
 2133TIP3    H2 6364   1.199   4.892   5.476
 2134TIP3   OH2 6365   6.313   5.780   5.840
 2134TIP3    H1 6366   6.316   5.755   5.932
 2134TIP3    H2 6367   6.322   5.698   5.793
 2135TIP3   OH2 6368   4.166   3.826   1.597
 2135TIP3    H1 6369   4.159   3.784   1.511
 2135TIP3    H2 6370   4.109   3.903   1.590
 2136TIP3   OH2 6371   6.871   3.632   3.673
 2136TIP3    H1 6372   6.963   3.610   3.681
 2136TIP3    H2 6373   6.869   3.708   3.614
 2137TIP3   OH2 6374   0.877   3.883   4.069
 2137TIP3    H1 6375   0.955   3.840   4.106
 2137TIP3    H2 6376   0.804   3.826   4.095
 2138TIP3   OH2 6377   2.715   6.055   4.587
 2138TIP3    H1 6378   2.683   6.090   4.670
 2138TIP3    H2 6379   2.722   5.960   4.601
 2139TIP3   OH2 6380   0.318   0.149   4.530
 2139TIP3    H1 6381   0.376   0.085   4.489
 2139TIP3    H2 6382   0.330   0.137   4.624
 2140TIP3   OH2 6383   2.117   3.379   0.842
 2140TIP3    H1 6384   2.061   3.302   0.842
 2140TIP3    H2 6385   2.168   3.372   0.923
 2141TIP3   OH2 6386   1.579   0.984   2.134
 2141TIP3    H1 6387   1.518   0.916   2.162
 2141TIP3    H2 6388   1.523   1.058   2.112
 2142TIP3   OH2 6389   7.123   0.261   2.303
 2142TIP3    H1 6390   7.153   0.332   2.247
 2142TIP3    H2 6391   7.074   0.304   2.373
 2143TIP3   OH2 6392   4.786   5.914   3.972
 2143TIP3    H1 6393   4.815   5.851   3.906
 2143TIP3    H2 6394   4.782   5.863   4.053
 2144TIP3   OH2 6395  -0.014   3.926   0.987
 2144TIP3    H1 6396   0.063   3.915   1.043
 2144TIP3    H2 6397   0.017   3.981   0.915
 2145TIP3   OH2 6398   3.938   0.489   0.815
 2145TIP3    H1 6399   3.966   0.533   0.895
 2145TIP3    H2 6400   3.847   0.465   0.832
 2146TIP3   OH2 6401   3.288   1.846   3.632
 2146TIP3    H1 6402   3.223   1.781   3.658
 2146TIP3    H2 6403   3.314   1.888   3.714
 2147TIP3   OH2 6404   6.774   0.815   5.099
 2147TIP3    H1 6405   6.711   0.845   5.034
 2147TIP3    H2 6406   6.774   0.885   5.165
 2148TIP3   OH2 6407   4.990   6.337   1.076
 2148TIP3    H1 6408   4.998   6.429   1.051
 2148TIP3    H2 6409   5.013   6.335   1.169
 2149TIP3   OH2 6410   6.044   2.136   0.746
 2149TIP3    H1 6411   6.072   2.124   0.656
 2149TIP3    H2 6412   6.112   2.094   0.799
 2150TIP3   OH2 6413   0.105   6.093   0.543
 2150TIP3    H1 6414   0.020   6.122   0.578
 2150TIP3    H2 6415   0.152   6.174   0.525
 2151TIP3   OH2 6416   6.909   0.922   2.806
 2151TIP3    H1 6417   6.856   0.996   2.776
 2151TIP3    H2 6418   6.857   0.882   2.875
 2152TIP3   OH2 6419   5.259   0.245   3.093
 2152TIP3    H1 6420   5.168   0.214   3.093
 2152TIP3    H2 6421   5.302   0.190   3.028
 2153TIP3   OH2 6422   5.049   6.435   2.263
 2153TIP3    H1 6423   5.134   6.396   2.245
 2153TIP3    H2 6424   5.068   6.506   2.326
 2154TIP3   OH2 6425   5.264   4.447   3.285
 2154TIP3    H1 6426   5.296   4.399   3.360
 2154TIP3    H2 6427   5.216   4.382   3.233
 2155TIP3   OH2 6428   0.490   6.021   4.521
 2155TIP3    H1 6429   0.482   6.113   4.546
 2155TIP3    H2 6430   0.408   5.981   4.549
 2156TIP3   OH2 6431   6.253   5.925   5.455
 2156TIP3    H1 6432   6.295   5.838   5.454
 2156TIP3    H2 6433   6.287   5.967   5.533
 2157TIP3   OH2 6434   5.832   6.147   5.323
 2157TIP3    H1 6435   5.824   6.176   5.413
 2157TIP3    H2 6436   5.744   6.120   5.298
 2158TIP3   OH2 6437   1.719   5.663   3.602
 2158TIP3    H1 6438   1.805   5.702   3.618
 2158TIP3    H2 6439   1.720   5.643   3.508
 2159TIP3   OH2 6440   3.410   0.580   3.275
 2159TIP3    H1 6441   3.444   0.653   3.325
 2159TIP3    H2 6442   3.455   0.503   3.311
 2160TIP3   OH2 6443   2.875   2.564   1.565
 2160TIP3    H1 6444   2.928   2.498   1.609
 2160TIP3    H2 6445   2.924   2.583   1.485
 2161TIP3   OH2 6446   4.357   4.468   3.457
 2161TIP3    H1 6447   4.369   4.459   3.551
 2161TIP3    H2 6448   4.276   4.519   3.447
 2162TIP3   OH2 6449   5.320   1.372   1.046
 2162TIP3    H1 6450   5.348   1.414   1.127
 2162TIP3    H2 6451   5.338   1.437   0.978
 2163TIP3   OH2 6452   1.849   2.766   3.098
 2163TIP3    H1 6453   1.872   2.673   3.101
 2163TIP3    H2 6454   1.871   2.793   3.008
 2164TIP3   OH2 6455   7.113   1.215   1.352
 2164TIP3    H1 6456   7.161   1.141   1.389
 2164TIP3    H2 6457   7.156   1.292   1.388
 2165TIP3   OH2 6458   6.969   0.802   4.483
 2165TIP3    H1 6459   6.895   0.857   4.456
 2165TIP3    H2 6460   6.949   0.716   4.448
 2166TIP3   OH2 6461   4.385   0.976   5.151
 2166TIP3    H1 6462   4.344   0.893   5.174
 2166TIP3    H2 6463   4.311   1.036   5.137
 2167TIP3   OH2 6464   1.935   5.588   2.275
 2167TIP3    H1 6465   1.863   5.544   2.231
 2167TIP3    H2 6466   1.982   5.519   2.321
 2168TIP3   OH2 6467   2.537   2.624   0.911
 2168TIP3    H1 6468   2.613   2.646   0.965
 2168TIP3    H2 6469   2.555   2.666   0.826
 2169TIP3   OH2 6470   6.308  -0.011   4.895
 2169TIP3    H1 6471   6.272   0.035   4.819
 2169TIP3    H2 6472   6.257  -0.093   4.899
 2170TIP3   OH2 6473   3.481   4.962   1.653
 2170TIP3    H1 6474   3.515   4.990   1.568
 2170TIP3    H2 6475   3.408   4.903   1.632
 2171TIP3   OH2 6476   3.068   6.134   5.907
 2171TIP3    H1 6477   3.014   6.131   5.829
 2171TIP3    H2 6478   3.103   6.223   5.909
 2172TIP3   OH2 6479   7.053   1.179   4.275
 2172TIP3    H1 6480   7.029   1.264   4.239
 2172TIP3    H2 6481   7.132   1.196   4.326
 2173TIP3   OH2 6482   2.562   5.544   1.184
 2173TIP3    H1 6483   2.502   5.557   1.111
 2173TIP3    H2 6484   2.590   5.633   1.208
 2174TIP3   OH2 6485   5.614   2.498   3.346
 2174TIP3    H1 6486   5.665   2.497   3.265
 2174TIP3    H2 6487   5.535   2.448   3.324
 2175TIP3   OH2 6488   5.475   4.592   5.240
 2175TIP3    H1 6489   5.400   4.559   5.289
 2175TIP3    H2 6490   5.532   4.515   5.229
 2176TIP3   OH2 6491   4.185   6.692   0.615
 2176TIP3    H1 6492   4.173   6.634   0.690
 2176TIP3    H2 6493   4.096   6.715   0.588
 2177TIP3   OH2 6494   2.535   5.635   3.184
 2177TIP3    H1 6495   2.539   5.656   3.091
 2177TIP3    H2 6496   2.465   5.570   3.190
 2178TIP3   OH2 6497   1.375   0.266   0.706
 2178TIP3    H1 6498   1.308   0.312   0.655
 2178TIP3    H2 6499   1.423   0.335   0.751
 2179TIP3   OH2 6500   4.334   0.873   0.877
 2179TIP3    H1 6501   4.284   0.863   0.957
 2179TIP3    H2 6502   4.424   0.888   0.906
 2180TIP3   OH2 6503   3.575   2.817   5.593
 2180TIP3    H1 6504   3.619   2.855   5.517
 2180TIP3    H2 6505   3.546   2.731   5.562
 2181TIP3   OH2 6506   0.245   4.528   1.831
 2181TIP3    H1 6507   0.185   4.483   1.772
 2181TIP3    H2 6508   0.229   4.621   1.817
 2182TIP3   OH2 6509   5.947   6.181   4.649
 2182TIP3    H1 6510   5.927   6.100   4.602
 2182TIP3    H2 6511   6.002   6.153   4.722
 2183TIP3   OH2 6512   3.892   2.195   4.951
 2183TIP3    H1 6513   3.920   2.210   5.041
 2183TIP3    H2 6514   3.971   2.168   4.905
 2184TIP3   OH2 6515   4.948   2.590   1.504
 2184TIP3    H1 6516   4.983   2.536   1.575
 2184TIP3    H2 6517   4.993   2.557   1.426
 2185TIP3   OH2 6518   6.166   4.666   0.987
 2185TIP3    H1 6519   6.146   4.755   1.018
 2185TIP3    H2 6520   6.154   4.671   0.892
 2186TIP3   OH2 6521   0.044   0.821   4.836
 2186TIP3    H1 6522   0.064   0.770   4.914
 2186TIP3    H2 6523  -0.052   0.814   4.827
 2187TIP3   OH2 6524   5.273   5.712   5.244
 2187TIP3    H1 6525   5.316   5.788   5.205
 2187TIP3    H2 6526   5.326   5.637   5.216
 2188TIP3   OH2 6527   4.758   2.076   2.739
 2188TIP3    H1 6528   4.719   2.139   2.679
 2188TIP3    H2 6529   4.831   2.038   2.690
 2189TIP3   OH2 6530   1.731   2.733   0.558
 2189TIP3    H1 6531   1.664   2.771   0.501
 2189TIP3    H2 6532   1.731   2.640   0.536
 2190TIP3   OH2 6533   5.180   1.748   5.729
 2190TIP3    H1 6534   5.264   1.743   5.775
 2190TIP3    H2 6535   5.191   1.691   5.653
 2191TIP3   OH2 6536   1.053   1.384   4.271
 2191TIP3    H1 6537   1.000   1.317   4.229
 2191TIP3    H2 6538   1.081   1.442   4.200
 2192TIP3   OH2 6539   6.054   4.317   3.293
 2192TIP3    H1 6540   5.970   4.349   3.260
 2192TIP3    H2 6541   6.107   4.396   3.303
 2193TIP3   OH2 6542   2.856   2.369   4.266
 2193TIP3    H1 6543   2.797   2.426   4.218
 2193TIP3    H2 6544   2.851   2.285   4.220
 2194TIP3   OH2 6545   6.340   6.561   1.639
 2194TIP3    H1 6546   6.282   6.634   1.619
 2194TIP3    H2 6547   6.314   6.532   1.726
 2195TIP3   OH2 6548   5.789   6.536   1.953
 2195TIP3    H1 6549   5.724   6.473   1.920
 2195TIP3    H2 6550   5.736   6.604   1.995
 2196TIP3   OH2 6551   5.191   6.123   0.112
 2196TIP3    H1 6552   5.206   6.074   0.193
 2196TIP3    H2 6553   5.277   6.130   0.072
 2197TIP3   OH2 6554   0.309   2.527   1.684
 2197TIP3    H1 6555   0.393   2.495   1.652
 2197TIP3    H2 6556   0.332   2.595   1.747
 2198TIP3   OH2 6557   4.176   5.820   0.289
 2198TIP3    H1 6558   4.101   5.838   0.233
 2198TIP3    H2 6559   4.154   5.738   0.334
 2199TIP3   OH2 6560   2.461   0.214   2.483
 2199TIP3    H1 6561   2.456   0.301   2.444
 2199TIP3    H2 6562   2.553   0.187   2.470
 2200TIP3   OH2 6563   1.349   5.242   3.413
 2200TIP3    H1 6564   1.358   5.209   3.323
 2200TIP3    H2 6565   1.317   5.331   3.403
 2201TIP3   OH2 6566   1.935   2.830   2.259
 2201TIP3    H1 6567   1.894   2.855   2.177
 2201TIP3    H2 6568   1.863   2.805   2.316
 2202TIP3   OH2 6569   5.546   5.905   1.764
 2202TIP3    H1 6570   5.603   5.981   1.751
 2202TIP3    H2 6571   5.587   5.857   1.836
 2203TIP3   OH2 6572   2.516   4.237   4.772
 2203TIP3    H1 6573   2.439   4.251   4.718
 2203TIP3    H2 6574   2.590   4.239   4.711
 2204TIP3   OH2 6575   1.628   0.647   2.859
 2204TIP3    H1 6576   1.718   0.616   2.860
 2204TIP3    H2 6577   1.633   0.738   2.831
 2205TIP3   OH2 6578   1.251   6.679   5.549
 2205TIP3    H1 6579   1.339   6.702   5.579
 2205TIP3    H2 6580   1.215   6.761   5.515
 2206TIP3   OH2 6581   4.721   5.827   1.894
 2206TIP3    H1 6582   4.792   5.881   1.858
 2206TIP3    H2 6583   4.646   5.887   1.898
 2207TIP3   OH2 6584   2.765   5.579   3.499
 2207TIP3    H1 6585   2.725   5.637   3.564
 2207TIP3    H2 6586   2.849   5.555   3.537
 2208TIP3   OH2 6587   2.513   4.957   4.651
 2208TIP3    H1 6588   2.598   4.968   4.609
 2208TIP3    H2 6589   2.466   5.038   4.633
 2209TIP3   OH2 6590   0.192   5.293   4.720
 2209TIP3    H1 6591   0.216   5.316   4.810
 2209TIP3    H2 6592   0.210   5.373   4.670
 2210TIP3   OH2 6593   3.199   2.598   0.434
 2210TIP3    H1 6594   3.209   2.639   0.348
 2210TIP3    H2 6595   3.122   2.640   0.472
 2211TIP3   OH2 6596   1.727   3.317   5.834
 2211TIP3    H1 6597   1.822   3.327   5.835
 2211TIP3    H2 6598   1.694   3.394   5.881
 2212TIP3   OH2 6599   6.945   2.075   0.640
 2212TIP3    H1 6600   6.954   2.169   0.656
 2212TIP3    H2 6601   6.952   2.036   0.727
 2213TIP3   OH2 6602   6.513   1.964   0.635
 2213TIP3    H1 6603   6.522   1.898   0.566
 2213TIP3    H2 6604   6.552   1.924   0.712
 2214TIP3   OH2 6605   3.336   6.252   5.017
 2214TIP3    H1 6606   3.391   6.313   4.968
 2214TIP3    H2 6607   3.301   6.193   4.951
 2215TIP3   OH2 6608   0.655   1.836   2.841
 2215TIP3    H1 6609   0.727   1.783   2.808
 2215TIP3    H2 6610   0.609   1.780   2.903
 2216TIP3   OH2 6611   0.613   0.302   0.654
 2216TIP3    H1 6612   0.544   0.323   0.716
 2216TIP3    H2 6613   0.580   0.334   0.570
 2217TIP3   OH2 6614   4.717   6.164   5.387
 2217TIP3    H1 6615   4.769   6.108   5.331
 2217TIP3    H2 6616   4.629   6.160   5.349
 2218TIP3   OH2 6617   4.911   3.240   2.243
 2218TIP3    H1 6618   4.837   3.300   2.255
 2218TIP3    H2 6619   4.871   3.160   2.210
 2219TIP3   OH2 6620   5.808   5.623   4.683
 2219TIP3    H1 6621   5.829   5.581   4.766
 2219TIP3    H2 6622   5.717   5.650   4.693
 2220TIP3   OH2 6623   1.175   2.341   1.715
 2220TIP3    H1 6624   1.185   2.418   1.659
 2220TIP3    H2 6625   1.201   2.267   1.659
 2221TIP3   OH2 6626   6.199   4.068   0.225
 2221TIP3    H1 6627   6.160   4.014   0.294
 2221TIP3    H2 6628   6.126   4.094   0.170
 2222TIP3   OH2 6629   4.446   2.126   0.777
 2222TIP3    H1 6630   4.422   2.042   0.815
 2222TIP3    H2 6631   4.418   2.120   0.685
 2223TIP3   OH2 6632   4.131   5.542   1.627
 2223TIP3    H1 6633   4.049   5.580   1.658
 2223TIP3    H2 6634   4.108   5.498   1.545
 2224TIP3   OH2 6635   3.985   1.832   4.951
 2224TIP3    H1 6636   4.066   1.816   4.903
 2224TIP3    H2 6637   3.992   1.923   4.980
 2225TIP3   OH2 6638   1.346   1.037   4.861
 2225TIP3    H1 6639   1.278   1.098   4.891
 2225TIP3    H2 6640   1.412   1.039   4.930
 2226TIP3   OH2 6641   1.514   6.161   0.535
 2226TIP3    H1 6642   1.599   6.121   0.555
 2226TIP3    H2 6643   1.534   6.255   0.524
 2227TIP3   OH2 6644   3.388   3.108   0.168
 2227TIP3    H1 6645   3.295   3.089   0.184
 2227TIP3    H2 6646   3.408   3.181   0.226
 2228TIP3   OH2 6647   0.587   0.414   3.110
 2228TIP3    H1 6648   0.637   0.476   3.163
 2228TIP3    H2 6649   0.502   0.458   3.097
 2229TIP3   OH2 6650   2.779   3.477   0.155
 2229TIP3    H1 6651   2.795   3.527   0.235
 2229TIP3    H2 6652   2.863   3.477   0.109
 2230TIP3   OH2 6653   5.437   6.431   5.037
 2230TIP3    H1 6654   5.505   6.498   5.027
 2230TIP3    H2 6655   5.427   6.394   4.950
 2231TIP3   OH2 6656   1.196   5.321   3.945
 2231TIP3    H1 6657   1.206   5.257   3.875
 2231TIP3    H2 6658   1.126   5.287   4.000
 2232TIP3   OH2 6659   1.463   2.591   3.184
 2232TIP3    H1 6660   1.413   2.512   3.207
 2232TIP3    H2 6661   1.509   2.615   3.264
 2233TIP3   OH2 6662   7.090   5.786  -0.001
 2233TIP3    H1 6663   7.074   5.871   0.039
 2233TIP3    H2 6664   7.041   5.724   0.053
 2234TIP3   OH2 6665   0.696   3.551   1.007
 2234TIP3    H1 6666   0.731   3.626   0.958
 2234TIP3    H2 6667   0.648   3.500   0.941
 2235TIP3   OH2 6668   2.210   5.647   5.576
 2235TIP3    H1 6669   2.153   5.715   5.539
 2235TIP3    H2 6670   2.270   5.626   5.505
 2236TIP3   OH2 6671   3.122   3.361   0.424
 2236TIP3    H1 6672   3.040   3.315   0.410
 2236TIP3    H2 6673   3.101   3.429   0.489
 2237TIP3   OH2 6674   3.988   6.203   5.159
 2237TIP3    H1 6675   4.024   6.116   5.176
 2237TIP3    H2 6676   3.921   6.215   5.226
 2238TIP3   OH2 6677   2.043   3.752   2.457
 2238TIP3    H1 6678   1.972   3.801   2.499
 2238TIP3    H2 6679   2.097   3.819   2.415
 2239TIP3   OH2 6680   2.015   6.173   5.711
 2239TIP3    H1 6681   2.002   6.264   5.740
 2239TIP3    H2 6682   1.929   6.144   5.683
 2240TIP3   OH2 6683   4.530   4.203   0.933
 2240TIP3    H1 6684   4.576   4.122   0.955
 2240TIP3    H2 6685   4.514   4.197   0.838
 2241TIP3   OH2 6686   2.824   2.293   0.398
 2241TIP3    H1 6687   2.745   2.319   0.351
 2241TIP3    H2 6688   2.800   2.212   0.443
 2242TIP3   OH2 6689   4.830   2.473   2.735
 2242TIP3    H1 6690   4.755   2.445   2.788
 2242TIP3    H2 6691   4.812   2.565   2.716
 2243TIP3   OH2 6692   2.670   6.132   2.305
 2243TIP3    H1 6693   2.610   6.145   2.231
 2243TIP3    H2 6694   2.733   6.067   2.274
 2244TIP3   OH2 6695   5.621   1.922   0.438
 2244TIP3    H1 6696   5.641   1.886   0.352
 2244TIP3    H2 6697   5.622   2.017   0.425
 2245TIP3   OH2 6698   5.715   6.691   2.948
 2245TIP3    H1 6699   5.706   6.783   2.974
 2245TIP3    H2 6700   5.659   6.643   3.008
 2246TIP3   OH2 6701   3.807   5.877   4.641
 2246TIP3    H1 6702   3.739   5.880   4.573
 2246TIP3    H2 6703   3.805   5.965   4.680
 2247TIP3   OH2 6704   7.145   2.553   3.700
 2247TIP3    H1 6705   7.104   2.639   3.710
 2247TIP3    H2 6706   7.073   2.494   3.680
 2248TIP3   OH2 6707   6.558   3.145   0.064
 2248TIP3    H1 6708   6.626   3.117   0.125
 2248TIP3    H2 6709   6.506   3.208   0.113
 2249TIP3   OH2 6710   6.644   5.356   3.409
 2249TIP3    H1 6711   6.583   5.287   3.385
 2249TIP3    H2 6712   6.711   5.312   3.460
 2250TIP3   OH2 6713   2.474   4.403   1.934
 2250TIP3    H1 6714   2.383   4.425   1.913
 2250TIP3    H2 6715   2.468   4.349   2.013
 2251TIP3   OH2 6716   3.708   3.795   3.474
 2251TIP3    H1 6717   3.753   3.878   3.484
 2251TIP3    H2 6718   3.692   3.765   3.564
 2252TIP3   OH2 6719   5.154   0.834   5.189
 2252TIP3    H1 6720   5.143   0.929   5.185
 2252TIP3    H2 6721   5.140   0.812   5.281
 2253TIP3   OH2 6722   6.699   1.955   4.487
 2253TIP3    H1 6723   6.694   1.952   4.391
 2253TIP3    H2 6724   6.653   1.876   4.515
 2254TIP3   OH2 6725   4.655   6.690   0.554
 2254TIP3    H1 6726   4.727   6.682   0.492
 2254TIP3    H2 6727   4.650   6.604   0.596
 2255TIP3   OH2 6728   1.232   2.026   5.902
 2255TIP3    H1 6729   1.269   2.112   5.883
 2255TIP3    H2 6730   1.142   2.045   5.931
 2256TIP3   OH2 6731   2.271   1.413   2.953
 2256TIP3    H1 6732   2.241   1.365   2.875
 2256TIP3    H2 6733   2.202   1.398   3.017
 2257TIP3   OH2 6734   2.330   0.996   2.896
 2257TIP3    H1 6735   2.302   1.011   2.806
 2257TIP3    H2 6736   2.425   1.005   2.894
 2258TIP3   OH2 6737   4.042   0.813   0.075
 2258TIP3    H1 6738   4.092   0.894   0.081
 2258TIP3    H2 6739   3.969   0.834   0.017
 2259TIP3   OH2 6740   6.475   3.873   4.464
 2259TIP3    H1 6741   6.551   3.875   4.523
 2259TIP3    H2 6742   6.471   3.962   4.428
 2260TIP3   OH2 6743   5.037   0.156   2.504
 2260TIP3    H1 6744   5.021   0.137   2.412
 2260TIP3    H2 6745   5.023   0.073   2.549
 2261TIP3   OH2 6746   3.029   1.723   2.832
 2261TIP3    H1 6747   2.982   1.757   2.757
 2261TIP3    H2 6748   3.005   1.780   2.905
 2262TIP3   OH2 6749   0.296   5.711   3.487
 2262TIP3    H1 6750   0.380   5.678   3.520
 2262TIP3    H2 6751   0.254   5.751   3.564
 2263TIP3   OH2 6752   0.058   2.872   3.705
 2263TIP3    H1 6753   0.086   2.823   3.628
 2263TIP3    H2 6754  -0.034   2.847   3.717
 2264TIP3   OH2 6755   7.037   6.772   4.554
 2264TIP3    H1 6756   7.080   6.745   4.635
 2264TIP3    H2 6757   6.948   6.739   4.562
 2265TIP3   OH2 6758   3.635   2.909   2.304
 2265TIP3    H1 6759   3.694   2.835   2.288
 2265TIP3    H2 6760   3.557   2.869   2.342
 2266TIP3   OH2 6761   4.284   3.934   3.229
 2266TIP3    H1 6762   4.221   3.999   3.260
 2266TIP3    H2 6763   4.295   3.954   3.136
 2267TIP3   OH2 6764   6.710   6.147   2.202
 2267TIP3    H1 6765   6.775   6.217   2.191
 2267TIP3    H2 6766   6.633   6.192   2.239
 2268TIP3   OH2 6767   2.300   5.744   4.043
 2268TIP3    H1 6768   2.303   5.810   3.973
 2268TIP3    H2 6769   2.289   5.661   3.996
 2269TIP3   OH2 6770   7.171   2.875   1.274
 2269TIP3    H1 6771   7.238   2.835   1.219
 2269TIP3    H2 6772   7.089   2.834   1.247
 2270TIP3   OH2 6773   3.773   5.562   4.445
 2270TIP3    H1 6774   3.698   5.507   4.421
 2270TIP3    H2 6775   3.829   5.505   4.498
 2271TIP3   OH2 6776   5.226   3.537   5.820
 2271TIP3    H1 6777   5.204   3.453   5.780
 2271TIP3    H2 6778   5.289   3.515   5.889
 2272TIP3   OH2 6779   6.751   3.974   1.303
 2272TIP3    H1 6780   6.830   3.935   1.266
 2272TIP3    H2 6781   6.679   3.929   1.257
 2273TIP3   OH2 6782   2.979   3.890   2.419
 2273TIP3    H1 6783   2.899   3.942   2.421
 2273TIP3    H2 6784   3.008   3.887   2.510
 2274TIP3   OH2 6785   5.335   3.411   3.296
 2274TIP3    H1 6786   5.260   3.470   3.284
 2274TIP3    H2 6787   5.297   3.331   3.333
 2275TIP3   OH2 6788   1.547   5.775   5.502
 2275TIP3    H1 6789   1.625   5.722   5.490
 2275TIP3    H2 6790   1.492   5.754   5.426
 2276TIP3   OH2 6791   0.280   0.430  -0.001
 2276TIP3    H1 6792   0.319   0.382   0.072
 2276TIP3    H2 6793   0.352   0.437  -0.065
 2277TIP3   OH2 6794   0.175   3.905   3.934
 2277TIP3    H1 6795   0.261   3.929   3.969
 2277TIP3    H2 6796   0.116   3.909   4.009
 2278TIP3   OH2 6797   3.518   1.726   4.502
 2278TIP3    H1 6798   3.435   1.698   4.542
 2278TIP3    H2 6799   3.515   1.821   4.506
 2279TIP3   OH2 6800   4.833   0.032   3.833
 2279TIP3    H1 6801   4.885   0.017   3.911
 2279TIP3    H2 6802   4.744   0.006   3.857
 2280TIP3   OH2 6803   1.884   6.020   5.167
 2280TIP3    H1 6804   1.811   5.962   5.143
 2280TIP3    H2 6805   1.937   5.967   5.227
 2281TIP3   OH2 6806   0.684   4.414   2.310
 2281TIP3    H1 6807   0.674   4.392   2.218
 2281TIP3    H2 6808   0.647   4.503   2.317
 2282TIP3   OH2 6809   5.173   6.712   1.673
 2282TIP3    H1 6810   5.139   6.748   1.755
 2282TIP3    H2 6811   5.099   6.717   1.612
 2283TIP3   OH2 6812   2.677   5.704   4.376
 2283TIP3    H1 6813   2.660   5.611   4.359
 2283TIP3    H2 6814   2.599   5.749   4.343
 2284TIP3   OH2 6815   3.145   2.526   3.164
 2284TIP3    H1 6816   3.211   2.586   3.200
 2284TIP3    H2 6817   3.159   2.444   3.211
 2285TIP3   OH2 6818   0.729   1.158   5.465
 2285TIP3    H1 6819   0.676   1.177   5.387
 2285TIP3    H2 6820   0.791   1.231   5.469
 2286TIP3   OH2 6821   1.829   2.379   4.235
 2286TIP3    H1 6822   1.923   2.386   4.215
 2286TIP3    H2 6823   1.826   2.379   4.331
 2287TIP3   OH2 6824   6.006   3.527   4.801
 2287TIP3    H1 6825   6.036   3.444   4.764
 2287TIP3    H2 6826   6.074   3.591   4.776
 2288TIP3   OH2 6827   0.208   1.791   0.173
 2288TIP3    H1 6828   0.259   1.863   0.210
 2288TIP3    H2 6829   0.222   1.797   0.078
 2289TIP3   OH2 6830   6.738   3.069   3.167
 2289TIP3    H1 6831   6.806   3.103   3.109
 2289TIP3    H2 6832   6.657   3.110   3.136
 2290TIP3   OH2 6833   5.405   0.002   0.965
 2290TIP3    H1 6834   5.344   0.033   1.032
 2290TIP3    H2 6835   5.361   0.020   0.882
 2291TIP3   OH2 6836   2.727   6.332   4.907
 2291TIP3    H1 6837   2.647   6.375   4.875
 2291TIP3    H2 6838   2.729   6.351   5.001
 2292TIP3   OH2 6839   6.585   4.215   1.816
 2292TIP3    H1 6840   6.662   4.231   1.763
 2292TIP3    H2 6841   6.564   4.122   1.801
 2293TIP3   OH2 6842   0.776   3.593   1.607
 2293TIP3    H1 6843   0.773   3.537   1.529
 2293TIP3    H2 6844   0.710   3.556   1.666
 2294TIP3   OH2 6845   3.985   3.599   0.047
 2294TIP3    H1 6846   3.893   3.619   0.062
 2294TIP3    H2 6847   4.017   3.567   0.132
 2295TIP3   OH2 6848   1.195   1.832   4.548
 2295TIP3    H1 6849   1.219   1.807   4.637
 2295TIP3    H2 6850   1.182   1.749   4.502
 2296TIP3   OH2 6851   5.730   3.663   0.454
 2296TIP3    H1 6852   5.640   3.633   0.440
 2296TIP3    H2 6853   5.728   3.757   0.436
 2297TIP3   OH2 6854   4.861   5.354   4.555
 2297TIP3    H1 6855   4.947   5.323   4.527
 2297TIP3    H2 6856   4.803   5.279   4.543
 2298TIP3   OH2 6857   6.701   1.518   2.996
 2298TIP3    H1 6858   6.663   1.549   3.078
 2298TIP3    H2 6859   6.791   1.493   3.019
 2299TIP3   OH2 6860   2.472   2.409   1.200
 2299TIP3    H1 6861   2.424   2.384   1.279
 2299TIP3    H2 6862   2.545   2.462   1.231
 2300TIP3   OH2 6863   2.257   1.313   3.408
 2300TIP3    H1 6864   2.340   1.266   3.400
 2300TIP3    H2 6865   2.194   1.247   3.435
 2301TIP3   OH2 6866   6.202   5.107   4.971
 2301TIP3    H1 6867   6.140   5.109   5.044
 2301TIP3    H2 6868   6.160   5.053   4.905
 2302TIP3   OH2 6869   5.891   2.608   4.220
 2302TIP3    H1 6870   5.895   2.687   4.274
 2302TIP3    H2 6871   5.814   2.619   4.166
 2303TIP3   OH2 6872   3.671   4.708   2.841
 2303TIP3    H1 6873   3.690   4.755   2.760
 2303TIP3    H2 6874   3.753   4.711   2.890
 2304TIP3   OH2 6875   0.888   5.752   5.025
 2304TIP3    H1 6876   0.958   5.689   5.040
 2304TIP3    H2 6877   0.808   5.699   5.018
 2305TIP3   OH2 6878   5.289   2.214   3.430
 2305TIP3    H1 6879   5.222   2.154   3.461
 2305TIP3    H2 6880   5.371   2.177   3.463
 2306TIP3   OH2 6881   4.045   5.902   3.682
 2306TIP3    H1 6882   4.092   5.972   3.637
 2306TIP3    H2 6883   3.969   5.885   3.628
 2307TIP3   OH2 6884   1.046   0.806   5.679
 2307TIP3    H1 6885   1.099   0.741   5.633
 2307TIP3    H2 6886   1.021   0.869   5.612
 2308TIP3   OH2 6887   3.492   5.213   5.275
 2308TIP3    H1 6888   3.487   5.130   5.322
 2308TIP3    H2 6889   3.462   5.278   5.338
 2309TIP3   OH2 6890   4.016   0.583   1.075
 2309TIP3    H1 6891   4.073   0.660   1.073
 2309TIP3    H2 6892   4.053   0.527   1.144
 2310TIP3   OH2 6893   3.222   4.726   2.041
 2310TIP3    H1 6894   3.234   4.809   1.994
 2310TIP3    H2 6895   3.267   4.740   2.124
 2311TIP3   OH2 6896   6.309   4.997   3.333
 2311TIP3    H1 6897   6.347   5.002   3.421
 2311TIP3    H2 6898   6.371   4.944   3.283
 2312TIP3   OH2 6899   1.234   5.494   1.740
 2312TIP3    H1 6900   1.220   5.419   1.682
 2312TIP3    H2 6901   1.203   5.464   1.826
 2313TIP3   OH2 6902   1.106   5.968   5.838
 2313TIP3    H1 6903   1.075   6.053   5.810
 2313TIP3    H2 6904   1.154   5.933   5.763
 2314TIP3   OH2 6905   3.263   1.167   3.176
 2314TIP3    H1 6906   3.358   1.164   3.164
 2314TIP3    H2 6907   3.231   1.088   3.133
 2315TIP3   OH2 6908   5.928   6.678   0.423
 2315TIP3    H1 6909   5.859   6.667   0.489
 2315TIP3    H2 6910   5.948   6.771   0.424
 2316TIP3   OH2 6911   5.867   5.511   0.678
 2316TIP3    H1 6912   5.805   5.489   0.748
 2316TIP3    H2 6913   5.867   5.607   0.675
 2317TIP3   OH2 6914   2.019   3.467   2.153
 2317TIP3    H1 6915   2.103   3.512   2.164
 2317TIP3    H2 6916   1.966   3.497   2.227
 2318TIP3   OH2 6917   6.622   5.233   5.256
 2318TIP3    H1 6918   6.659   5.160   5.305
 2318TIP3    H2 6919   6.589   5.194   5.175
 2319TIP3   OH2 6920   6.860   5.432   5.560
 2319TIP3    H1 6921   6.805   5.452   5.485
 2319TIP3    H2 6922   6.911   5.511   5.574
 2320TIP3   OH2 6923   0.886   5.983   0.773
 2320TIP3    H1 6924   0.898   5.913   0.838
 2320TIP3    H2 6925   0.973   6.020   0.761
 2321TIP3   OH2 6926   4.336   2.003   3.013
 2321TIP3    H1 6927   4.306   2.087   2.978
 2321TIP3    H2 6928   4.426   1.995   2.983
 2322TIP3   OH2 6929   1.672   3.968   2.946
 2322TIP3    H1 6930   1.625   3.957   2.864
 2322TIP3    H2 6931   1.604   3.987   3.011
 2323TIP3   OH2 6932   4.730   0.954   3.783
 2323TIP3    H1 6933   4.721   0.887   3.715
 2323TIP3    H2 6934   4.763   1.031   3.736
 2324TIP3   OH2 6935   0.852   4.544   5.827
 2324TIP3    H1 6936   0.861   4.613   5.894
 2324TIP3    H2 6937   0.942   4.517   5.808
 2325TIP3   OH2 6938   4.889   2.998   1.522
 2325TIP3    H1 6939   4.912   2.941   1.596
 2325TIP3    H2 6940   4.902   3.087   1.556
 2326TIP3   OH2 6941   5.438   6.311   1.164
 2326TIP3    H1 6942   5.414   6.343   1.078
 2326TIP3    H2 6943   5.360   6.264   1.195
 2327TIP3   OH2 6944   7.013   3.329   3.413
 2327TIP3    H1 6945   6.999   3.331   3.319
 2327TIP3    H2 6946   7.105   3.353   3.424
 2328TIP3   OH2 6947   0.809   2.414   5.597
 2328TIP3    H1 6948   0.814   2.448   5.687
 2328TIP3    H2 6949   0.723   2.441   5.566
 2329TIP3   OH2 6950   3.749   1.076   0.150
 2329TIP3    H1 6951   3.725   1.018   0.222
 2329TIP3    H2 6952   3.699   1.044   0.075
 2330TIP3   OH2 6953   2.182   0.250   2.074
 2330TIP3    H1 6954   2.101   0.223   2.030
 2330TIP3    H2 6955   2.189   0.191   2.149
 2331TIP3   OH2 6956   1.415   6.719   4.909
 2331TIP3    H1 6957   1.462   6.636   4.918
 2331TIP3    H2 6958   1.323   6.694   4.902
 2332TIP3   OH2 6959   1.996   0.103   1.865
 2332TIP3    H1 6960   2.086   0.073   1.853
 2332TIP3    H2 6961   1.974   0.146   1.782
 2333TIP3   OH2 6962   0.682   4.237   3.701
 2333TIP3    H1 6963   0.729   4.167   3.748
 2333TIP3    H2 6964   0.620   4.271   3.764
 2334TIP3   OH2 6965   1.699   6.700   1.431
 2334TIP3    H1 6966   1.781   6.743   1.405
 2334TIP3    H2 6967   1.653   6.766   1.483
 2335TIP3   OH2 6968   6.946   5.227   1.276
 2335TIP3    H1 6969   6.949   5.207   1.182
 2335TIP3    H2 6970   6.916   5.145   1.316
 2336TIP3   OH2 6971   5.312   6.391   3.806
 2336TIP3    H1 6972   5.387   6.432   3.765
 2336TIP3    H2 6973   5.237   6.441   3.774
 2337TIP3   OH2 6974   3.115   2.653   1.788
 2337TIP3    H1 6975   3.084   2.679   1.701
 2337TIP3    H2 6976   3.115   2.557   1.785
 2338TIP3   OH2 6977   5.186   4.930   5.465
 2338TIP3    H1 6978   5.124   4.904   5.533
 2338TIP3    H2 6979   5.164   5.021   5.446
 2339TIP3   OH2 6980   3.002   4.805   5.579
 2339TIP3    H1 6981   2.924   4.843   5.620
 2339TIP3    H2 6982   2.995   4.711   5.596
 2340TIP3   OH2 6983   2.300   3.713   4.092
 2340TIP3    H1 6984   2.357   3.647   4.053
 2340TIP3    H2 6985   2.252   3.751   4.018
 2341TIP3   OH2 6986   6.491   2.407   3.029
 2341TIP3    H1 6987   6.412   2.372   3.068
 2341TIP3    H2 6988   6.524   2.336   2.973
 2342TIP3   OH2 6989   2.253   4.213   3.191
 2342TIP3    H1 6990   2.337   4.189   3.230
 2342TIP3    H2 6991   2.237   4.146   3.125
 2343TIP3   OH2 6992   2.302   4.053   4.409
 2343TIP3    H1 6993   2.211   4.052   4.440
 2343TIP3    H2 6994   2.336   3.966   4.433
 2344TIP3   OH2 6995   3.933   1.851   0.335
 2344TIP3    H1 6996   3.842   1.875   0.321
 2344TIP3    H2 6997   3.938   1.760   0.307
 2345TIP3   OH2 6998   1.617   3.654   5.464
 2345TIP3    H1 6999   1.606   3.619   5.376
 2345TIP3    H2 7000   1.611   3.578   5.522
 2346TIP3   OH2 7001   3.176   1.933   4.708
 2346TIP3    H1 7002   3.262   1.974   4.718
 2346TIP3    H2 7003   3.129   1.991   4.648
 2347TIP3   OH2 7004   0.840   3.902   5.449
 2347TIP3    H1 7005   0.762   3.881   5.398
 2347TIP3    H2 7006   0.879   3.817   5.469
 2348TIP3   OH2 7007   6.097   6.319   5.487
 2348TIP3    H1 7008   6.044   6.261   5.541
 2348TIP3    H2 7009   6.185   6.315   5.525
 2349TIP3   OH2 7010   5.231   5.322   5.687
 2349TIP3    H1 7011   5.227   5.282   5.774
 2349TIP3    H2 7012   5.203   5.412   5.701
 2350TIP3   OH2 7013   4.092   3.577   0.330
 2350TIP3    H1 7014   4.161   3.518   0.300
 2350TIP3    H2 7015   4.137   3.657   0.353
 2351TIP3   OH2 7016   3.211   2.455   1.077
 2351TIP3    H1 7017   3.120   2.463   1.049
 2351TIP3    H2 7018   3.231   2.362   1.069
 2352TIP3   OH2 7019   1.672   4.363   5.753
 2352TIP3    H1 7020   1.707   4.276   5.734
 2352TIP3    H2 7021   1.577   4.353   5.746
 2353TIP3   OH2 7022   6.953   6.745   2.477
 2353TIP3    H1 7023   7.022   6.693   2.518
 2353TIP3    H2 7024   6.897   6.681   2.434
 2354TIP3   OH2 7025   2.753   1.610   1.525
 2354TIP3    H1 7026   2.826   1.568   1.570
 2354TIP3    H2 7027   2.687   1.622   1.593
 2355TIP3   OH2 7028   0.131   3.731   2.357
 2355TIP3    H1 7029   0.226   3.726   2.349
 2355TIP3    H2 7030   0.105   3.798   2.294
 2356TIP3   OH2 7031   0.370   3.508   5.496
 2356TIP3    H1 7032   0.323   3.591   5.499
 2356TIP3    H2 7033   0.443   3.524   5.437
 2357TIP3   OH2 7034   0.613   2.704   1.984
 2357TIP3    H1 7035   0.591   2.616   2.016
 2357TIP3    H2 7036   0.677   2.689   1.915
 2358TIP3   OH2 7037   1.650   2.378   1.068
 2358TIP3    H1 7038   1.635   2.311   1.002
 2358TIP3    H2 7039   1.626   2.461   1.025
 2359TIP3   OH2 7040   3.349   5.502   0.474
 2359TIP3    H1 7041   3.280   5.469   0.531
 2359TIP3    H2 7042   3.357   5.435   0.405
 2360TIP3   OH2 7043   1.288   0.000   0.725
 2360TIP3    H1 7044   1.323   0.088   0.714
 2360TIP3    H2 7045   1.253  -0.023   0.639
 2361TIP3   OH2 7046   0.162   5.849   3.689
 2361TIP3    H1 7047   0.216   5.879   3.762
 2361TIP3    H2 7048   0.126   5.929   3.652
 2362TIP3   OH2 7049   0.247   5.785   2.428
 2362TIP3    H1 7050   0.274   5.706   2.475
 2362TIP3    H2 7051   0.172   5.758   2.376
 2363TIP3   OH2 7052   1.266   6.382   5.313
 2363TIP3    H1 7053   1.252   6.293   5.282
 2363TIP3    H2 7054   1.350   6.379   5.359
 2364TIP3   OH2 7055   2.176   0.571   1.303
 2364TIP3    H1 7056   2.225   0.653   1.300
 2364TIP3    H2 7057   2.225   0.517   1.366
 2365TIP3   OH2 7058   4.586   5.455   3.019
 2365TIP3    H1 7059   4.508   5.502   2.988
 2365TIP3    H2 7060   4.552   5.381   3.068
 2366TIP3   OH2 7061   6.320   6.770   2.338
 2366TIP3    H1 7062   6.302   6.849   2.390
 2366TIP3    H2 7063   6.248   6.710   2.359
 2367TIP3   OH2 7064   0.780   5.362   3.021
 2367TIP3    H1 7065   0.730   5.429   2.974
 2367TIP3    H2 7066   0.715   5.296   3.046
 2368TIP3   OH2 7067   5.206   4.973   0.302
 2368TIP3    H1 7068   5.290   4.971   0.348
 2368TIP3    H2 7069   5.154   4.904   0.343
 2369TIP3   OH2 7070   0.056   0.706   3.571
 2369TIP3    H1 7071   0.060   0.791   3.616
 2369TIP3    H2 7072   0.069   0.727   3.479
 2370TIP3   OH2 7073   0.233   6.315   3.108
 2370TIP3    H1 7074   0.281   6.396   3.125
 2370TIP3    H2 7075   0.253   6.293   3.017
 2371TIP3   OH2 7076   1.460   4.959   2.027
 2371TIP3    H1 7077   1.425   4.889   2.082
 2371TIP3    H2 7078   1.555   4.956   2.042
 2372TIP3   OH2 7079   1.610   4.078   2.721
 2372TIP3    H1 7080   1.518   4.103   2.733
 2372TIP3    H2 7081   1.653   4.159   2.694
 2373TIP3   OH2 7082   3.114   1.626   0.667
 2373TIP3    H1 7083   3.025   1.651   0.693
 2373TIP3    H2 7084   3.145   1.699   0.614
 2374TIP3   OH2 7085   6.359   1.483   4.537
 2374TIP3    H1 7086   6.331   1.465   4.627
 2374TIP3    H2 7087   6.432   1.423   4.522
 2375TIP3   OH2 7088   3.364   4.940   4.430
 2375TIP3    H1 7089   3.280   4.985   4.429
 2375TIP3    H2 7090   3.343   4.850   4.457
 2376TIP3   OH2 7091   5.803   1.971   4.723
 2376TIP3    H1 7092   5.863   1.975   4.648
 2376TIP3    H2 7093   5.726   2.019   4.695
 2377TIP3   OH2 7094   3.931   5.104   4.804
 2377TIP3    H1 7095   3.907   5.197   4.802
 2377TIP3    H2 7096   4.023   5.104   4.777
 2378TIP3   OH2 7097   3.314   4.445   2.625
 2378TIP3    H1 7098   3.317   4.355   2.594
 2378TIP3    H2 7099   3.368   4.445   2.704
 2379TIP3   OH2 7100   3.947   4.413   4.919
 2379TIP3    H1 7101   3.950   4.322   4.891
 2379TIP3    H2 7102   3.896   4.458   4.852
 2380TIP3   OH2 7103   2.345   1.623   2.075
 2380TIP3    H1 7104   2.376   1.540   2.113
 2380TIP3    H2 7105   2.272   1.649   2.132
 2381TIP3   OH2 7106   6.390   1.446   3.794
 2381TIP3    H1 7107   6.484   1.434   3.809
 2381TIP3    H2 7108   6.349   1.412   3.873
 2382TIP3   OH2 7109   4.374   4.965   4.082
 2382TIP3    H1 7110   4.372   5.058   4.105
 2382TIP3    H2 7111   4.456   4.933   4.119
 2383TIP3   OH2 7112   6.554   1.320   5.743
 2383TIP3    H1 7113   6.638   1.353   5.711
 2383TIP3    H2 7114   6.493   1.393   5.732
 2384TIP3   OH2 7115   1.087   3.640   2.121
 2384TIP3    H1 7116   1.136   3.715   2.154
 2384TIP3    H2 7117   1.146   3.600   2.057
 2385TIP3   OH2 7118   6.502   3.854   5.430
 2385TIP3    H1 7119   6.457   3.779   5.468
 2385TIP3    H2 7120   6.481   3.851   5.337
 2386TIP3   OH2 7121   5.807   2.252   3.301
 2386TIP3    H1 7122   5.840   2.247   3.390
 2386TIP3    H2 7123   5.840   2.335   3.267
 2387TIP3   OH2 7124   2.554   0.270   0.979
 2387TIP3    H1 7125   2.497   0.332   1.024
 2387TIP3    H2 7126   2.569   0.200   1.043
 2388TIP3   OH2 7127   5.053   4.508   0.974
 2388TIP3    H1 7128   5.140   4.468   0.965
 2388TIP3    H2 7129   5.059   4.562   1.052
 2389TIP3   OH2 7130   5.083   3.715   0.078
 2389TIP3    H1 7131   5.084   3.746   0.168
 2389TIP3    H2 7132   5.159   3.758   0.037
 2390TIP3   OH2 7133   5.355   1.562   1.263
 2390TIP3    H1 7134   5.333   1.654   1.250
 2390TIP3    H2 7135   5.450   1.559   1.258
 2391TIP3   OH2 7136   3.190   6.321   2.041
 2391TIP3    H1 7137   3.149   6.251   1.991
 2391TIP3    H2 7138   3.247   6.364   1.978
 2392TIP3   OH2 7139   3.149   4.663   0.146
 2392TIP3    H1 7140   3.150   4.759   0.145
 2392TIP3    H2 7141   3.079   4.639   0.084
 2393TIP3   OH2 7142   6.342   0.649   0.876
 2393TIP3    H1 7143   6.381   0.562   0.874
 2393TIP3    H2 7144   6.351   0.681   0.786
 2394TIP3   OH2 7145   4.207   1.156   5.100
 2394TIP3    H1 7146   4.173   1.236   5.059
 2394TIP3    H2 7147   4.145   1.138   5.171
 2395TIP3   OH2 7148   1.870   1.089   0.617
 2395TIP3    H1 7149   1.929   1.101   0.543
 2395TIP3    H2 7150   1.787   1.127   0.587
 2396TIP3   OH2 7151   2.636   2.327   4.752
 2396TIP3    H1 7152   2.687   2.357   4.677
 2396TIP3    H2 7153   2.553   2.298   4.714
 2397TIP3   OH2 7154   0.973   4.092   4.312
 2397TIP3    H1 7155   0.898   4.035   4.331
 2397TIP3    H2 7156   0.963   4.165   4.373
 2398TIP3   OH2 7157   4.781   4.084   5.155
 2398TIP3    H1 7158   4.733   4.031   5.218
 2398TIP3    H2 7159   4.812   4.022   5.089
 2399TIP3   OH2 7160   1.916   0.162   0.699
 2399TIP3    H1 7161   1.955   0.176   0.613
 2399TIP3    H2 7162   1.983   0.116   0.749
 2400TIP3   OH2 7163   2.442   2.375   1.623
 2400TIP3    H1 7164   2.524   2.357   1.578
 2400TIP3    H2 7165   2.403   2.448   1.575
 2401TIP3   OH2 7166   3.381   1.055   0.103
 2401TIP3    H1 7167   3.435   1.014   0.036
 2401TIP3    H2 7168   3.404   1.009   0.184
 2402TIP3   OH2 7169   6.716   2.405   5.448
 2402TIP3    H1 7170   6.779   2.443   5.387
 2402TIP3    H2 7171   6.753   2.320   5.471
 2403TIP3   OH2 7172   7.062   6.203   1.814
 2403TIP3    H1 7173   7.121   6.278   1.813
 2403TIP3    H2 7174   7.118   6.128   1.793
 2404TIP3   OH2 7175   5.161   1.824   0.654
 2404TIP3    H1 7176   5.115   1.842   0.572
 2404TIP3    H2 7177   5.142   1.899   0.710
 2405TIP3   OH2 7178   5.769   1.596   3.371
 2405TIP3    H1 7179   5.685   1.555   3.393
 2405TIP3    H2 7180   5.835   1.542   3.415
 2406TIP3   OH2 7181   5.344   5.928   1.213
 2406TIP3    H1 7182   5.282   5.955   1.281
 2406TIP3    H2 7183   5.430   5.943   1.252
 2407TIP3   OH2 7184   1.227   3.360   4.930
 2407TIP3    H1 7185   1.200   3.299   4.861
 2407TIP3    H2 7186   1.208   3.447   4.894
 2408TIP3   OH2 7187   2.180   0.946   4.937
 2408TIP3    H1 7188   2.242   0.973   4.869
 2408TIP3    H2 7189   2.101   0.997   4.919
 2409TIP3   OH2 7190   1.752   1.056   0.155
 2409TIP3    H1 7191   1.794   0.988   0.103
 2409TIP3    H2 7192   1.801   1.056   0.238
 2410TIP3   OH2 7193   5.147   1.385   4.212
 2410TIP3    H1 7194   5.106   1.407   4.295
 2410TIP3    H2 7195   5.241   1.396   4.229
 2411TIP3   OH2 7196   5.082   5.156   4.302
 2411TIP3    H1 7197   5.112   5.176   4.213
 2411TIP3    H2 7198   5.074   5.241   4.344
 2412TIP3   OH2 7199   5.513   4.384   3.453
 2412TIP3    H1 7200   5.577   4.449   3.423
 2412TIP3    H2 7201   5.529   4.308   3.398
 2413TIP3   OH2 7202   0.819   6.362   0.257
 2413TIP3    H1 7203   0.756   6.299   0.222
 2413TIP3    H2 7204   0.903   6.333   0.223
 2414TIP3   OH2 7205   1.184   1.894   0.162
 2414TIP3    H1 7206   1.250   1.956   0.132
 2414TIP3    H2 7207   1.103   1.923   0.121
 2415TIP3   OH2 7208   4.529   3.692   4.481
 2415TIP3    H1 7209   4.440   3.697   4.514
 2415TIP3    H2 7210   4.582   3.738   4.546
 2416TIP3   OH2 7211   5.015   3.856   2.029
 2416TIP3    H1 7212   4.934   3.872   1.980
 2416TIP3    H2 7213   4.995   3.780   2.083
 2417TIP3   OH2 7214   7.026   5.927   4.381
 2417TIP3    H1 7215   7.041   5.836   4.406
 2417TIP3    H2 7216   7.095   5.976   4.425
 2418TIP3   OH2 7217   1.532   3.991   5.680
 2418TIP3    H1 7218   1.622   4.025   5.683
 2418TIP3    H2 7219   1.496   4.026   5.599
 2419TIP3   OH2 7220   1.234   5.029   0.817
 2419TIP3    H1 7221   1.173   5.030   0.891
 2419TIP3    H2 7222   1.261   4.937   0.809
 2420TIP3   OH2 7223   3.766   6.084   2.563
 2420TIP3    H1 7224   3.728   6.166   2.594
 2420TIP3    H2 7225   3.693   6.022   2.564
 2421TIP3   OH2 7226   6.366   3.674   5.555
 2421TIP3    H1 7227   6.290   3.630   5.595
 2421TIP3    H2 7228   6.440   3.648   5.609
 2422TIP3   OH2 7229   2.146   4.521   4.105
 2422TIP3    H1 7230   2.178   4.442   4.062
 2422TIP3    H2 7231   2.220   4.553   4.157
 2423TIP3   OH2 7232   0.293   0.638   5.857
 2423TIP3    H1 7233   0.312   0.547   5.836
 2423TIP3    H2 7234   0.259   0.635   5.947
 2424TIP3   OH2 7235   5.932   6.227   2.604
 2424TIP3    H1 7236   5.849   6.252   2.563
 2424TIP3    H2 7237   5.994   6.295   2.577
 2425TIP3   OH2 7238   4.639   3.000   1.718
 2425TIP3    H1 7239   4.733   2.996   1.703
 2425TIP3    H2 7240   4.616   3.092   1.708
 2426TIP3   OH2 7241   2.228   1.607   3.739
 2426TIP3    H1 7242   2.244   1.537   3.803
 2426TIP3    H2 7243   2.243   1.565   3.654
 2427TIP3   OH2 7244   1.608   5.396   3.954
 2427TIP3    H1 7245   1.589   5.302   3.952
 2427TIP3    H2 7246   1.692   5.404   3.908
 2428TIP3   OH2 7247   0.926   5.162   1.688
 2428TIP3    H1 7248   0.887   5.086   1.645
 2428TIP3    H2 7249   0.864   5.185   1.758
 2429TIP3   OH2 7250   3.587   4.656   5.441
 2429TIP3    H1 7251   3.649   4.666   5.513
 2429TIP3    H2 7252   3.566   4.745   5.413
 2430TIP3   OH2 7253   3.729   1.592   3.821
 2430TIP3    H1 7254   3.746   1.682   3.849
 2430TIP3    H2 7255   3.777   1.538   3.884
 2431TIP3   OH2 7256   0.054   4.589   0.938
 2431TIP3    H1 7257   0.057   4.531   0.862
 2431TIP3    H2 7258   0.019   4.535   1.009
 2432TIP3   OH2 7259   6.974   0.641   3.422
 2432TIP3    H1 7260   6.907   0.616   3.485
 2432TIP3    H2 7261   7.023   0.711   3.465
 2433TIP3   OH2 7262   5.321   0.157   2.533
 2433TIP3    H1 7263   5.226   0.155   2.540
 2433TIP3    H2 7264   5.351   0.093   2.598
 2434TIP3   OH2 7265   4.339   4.783   2.890
 2434TIP3    H1 7266   4.259   4.761   2.937
 2434TIP3    H2 7267   4.375   4.858   2.938
 2435TIP3   OH2 7268   1.422   3.598   2.261
 2435TIP3    H1 7269   1.511   3.568   2.279
 2435TIP3    H2 7270   1.410   3.585   2.167
 2436TIP3   OH2 7271   3.111   4.921   0.048
 2436TIP3    H1 7272   3.175   4.892  -0.018
 2436TIP3    H2 7273   3.027   4.920   0.002
 2437TIP3   OH2 7274   2.191   6.348   2.914
 2437TIP3    H1 7275   2.139   6.422   2.883
 2437TIP3    H2 7276   2.141   6.271   2.886
 2438TIP3   OH2 7277   3.868   5.859   3.892
 2438TIP3    H1 7278   3.791   5.841   3.838
 2438TIP3    H2 7279   3.935   5.886   3.829
 2439TIP3   OH2 7280   1.277   4.820   4.429
 2439TIP3    H1 7281   1.215   4.757   4.466
 2439TIP3    H2 7282   1.283   4.798   4.336
 2440TIP3   OH2 7283   5.262   1.306   5.022
 2440TIP3    H1 7284   5.197   1.238   5.006
 2440TIP3    H2 7285   5.210   1.386   5.034
 2441TIP3   OH2 7286   2.042   5.571   5.191
 2441TIP3    H1 7287   1.987   5.627   5.245
 2441TIP3    H2 7288   2.127   5.616   5.189
 2442TIP3   OH2 7289   1.132   5.676   0.147
 2442TIP3    H1 7290   1.198   5.651   0.082
 2442TIP3    H2 7291   1.180   5.680   0.229
 2443TIP3   OH2 7292   0.391   4.111   4.045
 2443TIP3    H1 7293   0.454   4.176   4.078
 2443TIP3    H2 7294   0.311   4.162   4.029
 2444TIP3   OH2 7295   7.015   0.951   5.355
 2444TIP3    H1 7296   7.092   1.002   5.380
 2444TIP3    H2 7297   7.037   0.861   5.381
 2445TIP3   OH2 7298   3.442   1.005   0.567
 2445TIP3    H1 7299   3.477   0.973   0.484
 2445TIP3    H2 7300   3.427   1.098   0.553
 2446TIP3   OH2 7301   5.710   1.701   4.693
 2446TIP3    H1 7302   5.755   1.704   4.609
 2446TIP3    H2 7303   5.725   1.788   4.731
 2447TIP3   OH2 7304   2.480   4.640   5.670
 2447TIP3    H1 7305   2.548   4.588   5.712
 2447TIP3    H2 7306   2.519   4.670   5.588
 2448TIP3   OH2 7307   6.062   6.355   3.390
 2448TIP3    H1 7308   5.972   6.370   3.418
 2448TIP3    H2 7309   6.100   6.299   3.458
 2449TIP3   OH2 7310   0.374   5.028   1.974
 2449TIP3    H1 7311   0.329   4.963   1.920
 2449TIP3    H2 7312   0.307   5.059   2.035
 2450TIP3   OH2 7313   2.879   4.738   2.707
 2450TIP3    H1 7314   2.973   4.743   2.692
 2450TIP3    H2 7315   2.846   4.682   2.637
 2451TIP3   OH2 7316   6.240   6.602   3.643
 2451TIP3    H1 7317   6.299   6.576   3.715
 2451TIP3    H2 7318   6.152   6.585   3.677
 2452TIP3   OH2 7319   4.974   3.078   1.192
 2452TIP3    H1 7320   5.049   3.045   1.242
 2452TIP3    H2 7321   4.928   3.135   1.254
 2453TIP3   OH2 7322   6.943   2.346   2.627
 2453TIP3    H1 7323   6.870   2.405   2.609
 2453TIP3    H2 7324   6.946   2.288   2.551
 2454TIP3   OH2 7325   6.224   1.254   5.076
 2454TIP3    H1 7326   6.165   1.311   5.028
 2454TIP3    H2 7327   6.229   1.292   5.164
 2455TIP3   OH2 7328   4.188   1.580   0.899
 2455TIP3    H1 7329   4.274   1.598   0.939
 2455TIP3    H2 7330   4.182   1.643   0.827
 2456TIP3   OH2 7331   0.820   0.151   4.164
 2456TIP3    H1 7332   0.841   0.060   4.148
 2456TIP3    H2 7333   0.876   0.177   4.237
 2457TIP3   OH2 7334   0.965   6.193   3.705
 2457TIP3    H1 7335   0.927   6.167   3.789
 2457TIP3    H2 7336   0.921   6.274   3.682
 2458TIP3   OH2 7337   6.825   4.174   0.332
 2458TIP3    H1 7338   6.789   4.160   0.245
 2458TIP3    H2 7339   6.912   4.133   0.329
 2459TIP3   OH2 7340   5.977   0.915   3.676
 2459TIP3    H1 7341   6.024   0.848   3.726
 2459TIP3    H2 7342   6.030   0.994   3.688
 2460TIP3   OH2 7343   7.006   3.410   2.900
 2460TIP3    H1 7344   6.997   3.492   2.850
 2460TIP3    H2 7345   7.046   3.349   2.838
 2461TIP3   OH2 7346   3.359   0.906   1.168
 2461TIP3    H1 7347   3.411   0.978   1.203
 2461TIP3    H2 7348   3.411   0.871   1.096
 2462TIP3   OH2 7349   1.358   3.642   5.116
 2462TIP3    H1 7350   1.296   3.714   5.110
 2462TIP3    H2 7351   1.334   3.583   5.044
 2463TIP3   OH2 7352   4.234   4.805   5.218
 2463TIP3    H1 7353   4.242   4.744   5.145
 2463TIP3    H2 7354   4.198   4.885   5.178
 2464TIP3   OH2 7355   1.776   5.240   3.348
 2464TIP3    H1 7356   1.712   5.241   3.419
 2464TIP3    H2 7357   1.745   5.306   3.286
 2465TIP3   OH2 7358   6.912   6.158   3.028
 2465TIP3    H1 7359   6.940   6.245   3.058
 2465TIP3    H2 7360   6.981   6.131   2.968
 2466TIP3   OH2 7361   6.234   3.101   3.786
 2466TIP3    H1 7362   6.274   3.014   3.794
 2466TIP3    H2 7363   6.141   3.084   3.772
 2467TIP3   OH2 7364   1.677   3.870   1.336
 2467TIP3    H1 7365   1.602   3.847   1.282
 2467TIP3    H2 7366   1.734   3.920   1.278
 2468TIP3   OH2 7367   3.883   4.269   2.099
 2468TIP3    H1 7368   3.849   4.246   2.186
 2468TIP3    H2 7369   3.939   4.345   2.116
 2469TIP3   OH2 7370   2.931   3.595   4.342
 2469TIP3    H1 7371   2.973   3.509   4.341
 2469TIP3    H2 7372   2.960   3.636   4.260
 2470TIP3   OH2 7373   0.376   6.661   4.876
 2470TIP3    H1 7374   0.399   6.690   4.965
 2470TIP3    H2 7375   0.281   6.643   4.881
 2471TIP3   OH2 7376   6.999   2.146   2.042
 2471TIP3    H1 7377   6.969   2.115   2.127
 2471TIP3    H2 7378   6.939   2.217   2.020
 2472TIP3   OH2 7379   6.285   4.579   2.478
 2472TIP3    H1 7380   6.282   4.557   2.571
 2472TIP3    H2 7381   6.207   4.632   2.463
 2473TIP3   OH2 7382   5.017   3.467   3.547
 2473TIP3    H1 7383   5.048   3.534   3.486
 2473TIP3    H2 7384   5.094   3.411   3.563
 2474TIP3   OH2 7385   3.404   6.734   1.334
 2474TIP3    H1 7386   3.482   6.746   1.280
 2474TIP3    H2 7387   3.368   6.650   1.304
 2475TIP3   OH2 7388   6.241   3.324   3.110
 2475TIP3    H1 7389   6.162   3.373   3.133
 2475TIP3    H2 7390   6.225   3.293   3.021
 2476TIP3   OH2 7391   0.083   1.325   0.347
 2476TIP3    H1 7392   0.116   1.286   0.428
 2476TIP3    H2 7393   0.101   1.418   0.356
 2477TIP3   OH2 7394   2.355   3.092   0.143
 2477TIP3    H1 7395   2.262   3.068   0.140
 2477TIP3    H2 7396   2.399   3.026   0.090
 2478TIP3   OH2 7397   3.701   1.542   0.786
 2478TIP3    H1 7398   3.608   1.565   0.786
 2478TIP3    H2 7399   3.706   1.460   0.835
 2479TIP3   OH2 7400   0.882   4.068   0.853
 2479TIP3    H1 7401   0.856   4.085   0.944
 2479TIP3    H2 7402   0.877   4.153   0.810
 2480TIP3   OH2 7403   2.518   1.083   0.463
 2480TIP3    H1 7404   2.443   1.140   0.473
 2480TIP3    H2 7405   2.555   1.074   0.551
 2481TIP3   OH2 7406   2.823   4.837   3.938
 2481TIP3    H1 7407   2.756   4.770   3.927
 2481TIP3    H2 7408   2.860   4.819   4.025
 2482TIP3   OH2 7409   6.540   1.732   4.545
 2482TIP3    H1 7410   6.487   1.653   4.537
 2482TIP3    H2 7411   6.622   1.702   4.585
 2483TIP3   OH2 7412   5.055   2.174  -0.027
 2483TIP3    H1 7413   5.143   2.151   0.003
 2483TIP3    H2 7414   4.999   2.165   0.050
 2484TIP3   OH2 7415   1.428   2.596   3.769
 2484TIP3    H1 7416   1.423   2.555   3.682
 2484TIP3    H2 7417   1.338   2.600   3.799
 2485TIP3   OH2 7418   6.637   1.819   1.130
 2485TIP3    H1 7419   6.547   1.845   1.152
 2485TIP3    H2 7420   6.688   1.841   1.208
 2486TIP3   OH2 7421   2.153   5.730   2.825
 2486TIP3    H1 7422   2.162   5.825   2.816
 2486TIP3    H2 7423   2.109   5.702   2.745
 2487TIP3   OH2 7424   6.273   2.949   2.580
 2487TIP3    H1 7425   6.306   2.905   2.658
 2487TIP3    H2 7426   6.190   2.988   2.608
 2488TIP3   OH2 7427   5.288   2.705   5.243
 2488TIP3    H1 7428   5.202   2.713   5.203
 2488TIP3    H2 7429   5.349   2.715   5.170
 2489TIP3   OH2 7430   6.635   5.557   2.858
 2489TIP3    H1 7431   6.566   5.503   2.819
 2489TIP3    H2 7432   6.614   5.559   2.951
 2490TIP3   OH2 7433   4.828   6.050   4.613
 2490TIP3    H1 7434   4.878   6.072   4.535
 2490TIP3    H2 7435   4.754   6.110   4.613
 2491TIP3   OH2 7436   5.632   6.697   0.163
 2491TIP3    H1 7437   5.605   6.783   0.130
 2491TIP3    H2 7438   5.597   6.635   0.099
 2492TIP3   OH2 7439   4.328   3.588   5.280
 2492TIP3    H1 7440   4.269   3.566   5.208
 2492TIP3    H2 7441   4.302   3.676   5.307
 2493TIP3   OH2 7442   0.315   3.057   5.658
 2493TIP3    H1 7443   0.328   2.969   5.624
 2493TIP3    H2 7444   0.355   3.114   5.592
 2494TIP3   OH2 7445   5.202   1.795   3.120
 2494TIP3    H1 7446   5.261   1.852   3.072
 2494TIP3    H2 7447   5.224   1.810   3.212
 2495TIP3   OH2 7448   1.280   4.784   1.293
 2495TIP3    H1 7449   1.226   4.863   1.287
 2495TIP3    H2 7450   1.370   4.816   1.286
 2496TIP3   OH2 7451   4.759   3.665   0.439
 2496TIP3    H1 7452   4.808   3.709   0.370
 2496TIP3    H2 7453   4.792   3.703   0.521
 2497TIP3   OH2 7454   5.743   3.474   5.245
 2497TIP3    H1 7455   5.653   3.503   5.252
 2497TIP3    H2 7456   5.756   3.415   5.319
 2498TIP3   OH2 7457   5.391   5.281   4.348
 2498TIP3    H1 7458   5.430   5.312   4.267
 2498TIP3    H2 7459   5.375   5.188   4.334
 2499TIP3   OH2 7460   5.274   6.512   3.240
 2499TIP3    H1 7461   5.208   6.570   3.203
 2499TIP3    H2 7462   5.274   6.533   3.334
 2500TIP3   OH2 7463   5.238   0.044   3.956
 2500TIP3    H1 7464   5.214   0.035   4.048
 2500TIP3    H2 7465   5.175   0.105   3.920
 2501TIP3   OH2 7466   6.817   5.484   4.355
 2501TIP3    H1 7467   6.763   5.418   4.310
 2501TIP3    H2 7468   6.754   5.535   4.406
 2502TIP3   OH2 7469   0.155   6.559   0.059
 2502TIP3    H1 7470   0.155   6.471   0.096
 2502TIP3    H2 7471   0.067   6.571   0.023
 2503TIP3   OH2 7472   2.344   1.588   5.638
 2503TIP3    H1 7473   2.260   1.609   5.677
 2503TIP3    H2 7474   2.399   1.665   5.656
 2504TIP3   OH2 7475   5.324   5.110   5.055
 2504TIP3    H1 7476   5.334   5.082   5.146
 2504TIP3    H2 7477   5.309   5.029   5.006
 2505TIP3   OH2 7478   6.566   4.664   4.293
 2505TIP3    H1 7479   6.643   4.721   4.304
 2505TIP3    H2 7480   6.586   4.588   4.348
 2506TIP3   OH2 7481   4.862   0.523   3.012
 2506TIP3    H1 7482   4.896   0.469   2.940
 2506TIP3    H2 7483   4.939   0.569   3.046
 2507TIP3   OH2 7484   6.363   1.663   1.889
 2507TIP3    H1 7485   6.411   1.682   1.969
 2507TIP3    H2 7486   6.417   1.598   1.843
 2508TIP3   OH2 7487   0.411   3.377   1.031
 2508TIP3    H1 7488   0.441   3.420   1.110
 2508TIP3    H2 7489   0.389   3.288   1.058
 2509TIP3   OH2 7490   3.672   4.632   4.972
 2509TIP3    H1 7491   3.611   4.596   5.035
 2509TIP3    H2 7492   3.621   4.641   4.891
 2510TIP3   OH2 7493   5.512   6.008   4.585
 2510TIP3    H1 7494   5.435   5.986   4.637
 2510TIP3    H2 7495   5.587   5.988   4.642
 2511TIP3   OH2 7496   2.838   5.626   2.776
 2511TIP3    H1 7497   2.855   5.603   2.867
 2511TIP3    H2 7498   2.923   5.655   2.742
 2512TIP3   OH2 7499   6.561   0.766   1.354
 2512TIP3    H1 7500   6.598   0.755   1.267
 2512TIP3    H2 7501   6.601   0.696   1.406
 2513TIP3   OH2 7502   6.951   0.907   3.572
 2513TIP3    H1 7503   6.903   0.839   3.619
 2513TIP3    H2 7504   6.891   0.937   3.504
 2514TIP3   OH2 7505   4.996   2.080   0.650
 2514TIP3    H1 7506   4.918   2.078   0.706
 2514TIP3    H2 7507   5.032   2.167   0.662
 2515TIP3   OH2 7508   6.041   0.630   3.199
 2515TIP3    H1 7509   6.125   0.586   3.186
 2515TIP3    H2 7510   6.016   0.609   3.289
 2516TIP3   OH2 7511   1.633   1.217   0.570
 2516TIP3    H1 7512   1.596   1.298   0.605
 2516TIP3    H2 7513   1.557   1.169   0.536
 2517TIP3   OH2 7514   3.346   0.004   4.248
 2517TIP3    H1 7515   3.426  -0.044   4.225
 2517TIP3    H2 7516   3.373   0.063   4.319
 2518TIP3   OH2 7517   7.112   1.734   4.946
 2518TIP3    H1 7518   7.125   1.709   5.037
 2518TIP3    H2 7519   7.151   1.822   4.939
 2519TIP3   OH2 7520   4.291   2.570   2.380
 2519TIP3    H1 7521   4.205   2.535   2.358
 2519TIP3    H2 7522   4.340   2.568   2.297
 2520TIP3   OH2 7523   0.043   0.903   2.483
 2520TIP3    H1 7524   0.049   0.905   2.387
 2520TIP3    H2 7525  -0.047   0.874   2.501
 2521TIP3   OH2 7526   3.170   4.493   1.930
 2521TIP3    H1 7527   3.077   4.477   1.946
 2521TIP3    H2 7528   3.186   4.580   1.968
 2522TIP3   OH2 7529   4.877   5.373   5.801
 2522TIP3    H1 7530   4.874   5.467   5.822
 2522TIP3    H2 7531   4.957   5.342   5.843
 2523TIP3   OH2 7532   2.625   1.124   0.228
 2523TIP3    H1 7533   2.602   1.107   0.320
 2523TIP3    H2 7534   2.720   1.135   0.230
 2524TIP3   OH2 7535   7.121   5.356   1.547
 2524TIP3    H1 7536   7.193   5.328   1.490
 2524TIP3    H2 7537   7.044   5.355   1.491
 2525TIP3   OH2 7538   2.471   5.615   5.461
 2525TIP3    H1 7539   2.555   5.592   5.422
 2525TIP3    H2 7540   2.463   5.556   5.536
 2526TIP3   OH2 7541   0.372   3.477   3.558
 2526TIP3    H1 7542   0.337   3.405   3.611
 2526TIP3    H2 7543   0.457   3.445   3.527
 2527TIP3   OH2 7544   4.327   1.447   0.444
 2527TIP3    H1 7545   4.354   1.356   0.457
 2527TIP3    H2 7546   4.267   1.465   0.516
 2528TIP3   OH2 7547   2.599   0.041   3.410
 2528TIP3    H1 7548   2.530   0.012   3.350
 2528TIP3    H2 7549   2.596   0.137   3.405
 2529TIP3   OH2 7550   2.952   5.949   2.882
 2529TIP3    H1 7551   2.975   5.862   2.850
 2529TIP3    H2 7552   2.972   6.008   2.809
 2530TIP3   OH2 7553   6.695   3.805   5.041
 2530TIP3    H1 7554   6.735   3.873   4.987
 2530TIP3    H2 7555   6.753   3.798   5.117
 2531TIP3   OH2 7556   5.456   0.556   0.570
 2531TIP3    H1 7557   5.415   0.620   0.512
 2531TIP3    H2 7558   5.400   0.555   0.648
 2532TIP3   OH2 7559   5.071   3.847   3.426
 2532TIP3    H1 7560   5.065   3.886   3.339
 2532TIP3    H2 7561   5.037   3.914   3.486
 2533TIP3   OH2 7562   2.175   0.683   4.892
 2533TIP3    H1 7563   2.170   0.772   4.928
 2533TIP3    H2 7564   2.093   0.642   4.920
 2534TIP3   OH2 7565   5.484   4.699   4.329
 2534TIP3    H1 7566   5.566   4.748   4.329
 2534TIP3    H2 7567   5.488   4.644   4.251
 2535TIP3   OH2 7568   6.524   5.726   2.374
 2535TIP3    H1 7569   6.560   5.648   2.417
 2535TIP3    H2 7570   6.452   5.692   2.320
 2536TIP3   OH2 7571   0.994   6.051   5.553
 2536TIP3    H1 7572   0.903   6.070   5.573
 2536TIP3    H2 7573   1.002   5.956   5.562
 2537TIP3   OH2 7574   3.789   3.220   3.295
 2537TIP3    H1 7575   3.872   3.259   3.267
 2537TIP3    H2 7576   3.806   3.125   3.295
 2538TIP3   OH2 7577   3.936   5.625   4.851
 2538TIP3    H1 7578   3.980   5.587   4.775
 2538TIP3    H2 7579   3.964   5.570   4.925
 2539TIP3   OH2 7580   6.355   3.281   5.610
 2539TIP3    H1 7581   6.290   3.222   5.649
 2539TIP3    H2 7582   6.389   3.232   5.535
 2540TIP3   OH2 7583   2.739   2.355   4.997
 2540TIP3    H1 7584   2.679   2.363   4.923
 2540TIP3    H2 7585   2.747   2.260   5.012
 2541TIP3   OH2 7586   1.836   1.629   3.574
 2541TIP3    H1 7587   1.917   1.616   3.524
 2541TIP3    H2 7588   1.769   1.645   3.508
 2542TIP3   OH2 7589   2.588   1.474   0.430
 2542TIP3    H1 7590   2.519   1.505   0.371
 2542TIP3    H2 7591   2.552   1.488   0.518
 2543TIP3   OH2 7592   2.636   3.525   1.776
 2543TIP3    H1 7593   2.564   3.499   1.834
 2543TIP3    H2 7594   2.714   3.492   1.820
 2544TIP3   OH2 7595   0.382   6.547   0.685
 2544TIP3    H1 7596   0.416   6.631   0.715
 2544TIP3    H2 7597   0.459   6.491   0.677
 2545TIP3   OH2 7598   1.313   5.577   2.099
 2545TIP3    H1 7599   1.238   5.523   2.073
 2545TIP3    H2 7600   1.387   5.540   2.050
 2546TIP3   OH2 7601   6.554   6.729   0.552
 2546TIP3    H1 7602   6.532   6.662   0.617
 2546TIP3    H2 7603   6.533   6.812   0.594
 2547TIP3   OH2 7604   3.681   5.183   2.532
 2547TIP3    H1 7605   3.598   5.226   2.555
 2547TIP3    H2 7606   3.669   5.153   2.442
 2548TIP3   OH2 7607   6.788   2.480   1.357
 2548TIP3    H1 7608   6.877   2.507   1.379
 2548TIP3    H2 7609   6.798   2.429   1.277
 2549TIP3   OH2 7610   4.904   2.901   4.921
 2549TIP3    H1 7611   4.866   2.977   4.876
 2549TIP3    H2 7612   4.992   2.929   4.946
 2550TIP3   OH2 7613   6.597   3.112   3.397
 2550TIP3    H1 7614   6.660   3.110   3.326
 2550TIP3    H2 7615   6.552   3.196   3.387
 2551TIP3   OH2 7616   5.535   6.634   0.413
 2551TIP3    H1 7617   5.596   6.653   0.342
 2551TIP3    H2 7618   5.503   6.546   0.393
 2552TIP3   OH2 7619   3.125   0.583   3.334
 2552TIP3    H1 7620   3.220   0.583   3.345
 2552TIP3    H2 7621   3.110   0.524   3.260
 2553TIP3   OH2 7622   3.020   3.353   1.701
 2553TIP3    H1 7623   2.951   3.295   1.667
 2553TIP3    H2 7624   3.006   3.354   1.796
 2554TIP3   OH2 7625   5.913   5.160   1.474
 2554TIP3    H1 7626   5.871   5.076   1.457
 2554TIP3    H2 7627   5.843   5.224   1.469
 2555TIP3   OH2 7628   3.973   0.938   2.931
 2555TIP3    H1 7629   4.053   0.986   2.911
 2555TIP3    H2 7630   3.965   0.873   2.862
 2556TIP3   OH2 7631   1.025   3.538   0.903
 2556TIP3    H1 7632   0.991   3.628   0.901
 2556TIP3    H2 7633   0.970   3.490   0.841
 2557TIP3   OH2 7634   4.445   4.836   5.597
 2557TIP3    H1 7635   4.478   4.891   5.667
 2557TIP3    H2 7636   4.377   4.889   5.555
 2558TIP3   OH2 7637   4.724   4.650   1.550
 2558TIP3    H1 7638   4.736   4.562   1.515
 2558TIP3    H2 7639   4.813   4.680   1.569
 2559TIP3   OH2 7640   0.083   6.168   3.825
 2559TIP3    H1 7641   0.054   6.147   3.736
 2559TIP3    H2 7642   0.179   6.170   3.819
 2560TIP3   OH2 7643   4.254   0.351   4.084
 2560TIP3    H1 7644   4.323   0.352   4.017
 2560TIP3    H2 7645   4.196   0.423   4.059
 2561TIP3   OH2 7646   1.350   4.451   4.975
 2561TIP3    H1 7647   1.397   4.369   4.962
 2561TIP3    H2 7648   1.263   4.425   5.005
 2562TIP3   OH2 7649   1.489   2.893   3.929
 2562TIP3    H1 7650   1.571   2.862   3.967
 2562TIP3    H2 7651   1.436   2.813   3.919
 2563TIP3   OH2 7652   1.185   3.843   0.722
 2563TIP3    H1 7653   1.115   3.778   0.717
 2563TIP3    H2 7654   1.173   3.897   0.643
 2564TIP3   OH2 7655   6.879   3.251   5.709
 2564TIP3    H1 7656   6.888   3.157   5.694
 2564TIP3    H2 7657   6.953   3.290   5.662
 2565TIP3   OH2 7658   2.219   4.747   2.084
 2565TIP3    H1 7659   2.252   4.836   2.070
 2565TIP3    H2 7660   2.230   4.732   2.178
 2566TIP3   OH2 7661   6.499   3.328   2.378
 2566TIP3    H1 7662   6.453   3.245   2.388
 2566TIP3    H2 7663   6.490   3.371   2.463
 2567TIP3   OH2 7664   3.510   6.473   1.026
 2567TIP3    H1 7665   3.551   6.532   1.089
 2567TIP3    H2 7666   3.569   6.398   1.022
 2568TIP3   OH2 7667   4.599   5.229   0.424
 2568TIP3    H1 7668   4.651   5.265   0.496
 2568TIP3    H2 7669   4.565   5.146   0.458
 2569TIP3   OH2 7670   6.796   3.778   1.750
 2569TIP3    H1 7671   6.706   3.804   1.731
 2569TIP3    H2 7672   6.842   3.861   1.763
 2570TIP3   OH2 7673   4.310   3.943   0.844
 2570TIP3    H1 7674   4.254   3.998   0.898
 2570TIP3    H2 7675   4.364   4.006   0.795
 2571TIP3   OH2 7676   2.668   1.063   4.551
 2571TIP3    H1 7677   2.620   1.080   4.470
 2571TIP3    H2 7678   2.622   0.990   4.592
 2572TIP3   OH2 7679   5.559   4.167   3.681
 2572TIP3    H1 7680   5.473   4.171   3.638
 2572TIP3    H2 7681   5.551   4.228   3.754
 2573TIP3   OH2 7682   2.413   1.502   4.267
 2573TIP3    H1 7683   2.451   1.578   4.311
 2573TIP3    H2 7684   2.478   1.432   4.278
 2574TIP3   OH2 7685   3.897   5.660   0.911
 2574TIP3    H1 7686   3.915   5.753   0.895
 2574TIP3    H2 7687   3.864   5.627   0.828
 2575TIP3   OH2 7688   0.105   4.147   1.562
 2575TIP3    H1 7689   0.136   4.182   1.646
 2575TIP3    H2 7690   0.017   4.183   1.552
 2576TIP3   OH2 7691   1.337   1.974   0.769
 2576TIP3    H1 7692   1.270   1.925   0.817
 2576TIP3    H2 7693   1.414   1.973   0.827
 2577TIP3   OH2 7694   1.258   3.949   3.347
 2577TIP3    H1 7695   1.316   4.019   3.377
 2577TIP3    H2 7696   1.277   3.941   3.254
 2578TIP3   OH2 7697   1.392   5.609   4.673
 2578TIP3    H1 7698   1.327   5.628   4.741
 2578TIP3    H2 7699   1.474   5.598   4.720
 2579TIP3   OH2 7700   3.022   3.641   2.753
 2579TIP3    H1 7701   3.022   3.631   2.658
 2579TIP3    H2 7702   3.035   3.553   2.787
 2580TIP3   OH2 7703   7.189   4.100   1.258
 2580TIP3    H1 7704   7.201   4.122   1.351
 2580TIP3    H2 7705   7.201   4.005   1.254
 2581TIP3   OH2 7706   3.082   2.318   4.481
 2581TIP3    H1 7707   3.116   2.280   4.561
 2581TIP3    H2 7708   3.030   2.394   4.510
 2582TIP3   OH2 7709   4.009   3.402   5.325
 2582TIP3    H1 7710   4.026   3.496   5.328
 2582TIP3    H2 7711   3.914   3.394   5.316
 2583TIP3   OH2 7712   5.303   2.546   5.630
 2583TIP3    H1 7713   5.363   2.522   5.559
 2583TIP3    H2 7714   5.326   2.636   5.652
 2584TIP3   OH2 7715   3.297   6.471   1.295
 2584TIP3    H1 7716   3.226   6.484   1.232
 2584TIP3    H2 7717   3.373   6.452   1.241
 2585TIP3   OH2 7718   2.348   5.662   1.669
 2585TIP3    H1 7719   2.427   5.715   1.656
 2585TIP3    H2 7720   2.380   5.582   1.711
 2586TIP3   OH2 7721   3.117   2.173   5.093
 2586TIP3    H1 7722   3.152   2.122   5.166
 2586TIP3    H2 7723   3.195   2.213   5.053
 2587TIP3   OH2 7724   4.085   1.479   3.662
 2587TIP3    H1 7725   4.095   1.574   3.672
 2587TIP3    H2 7726   4.171   1.449   3.634
 2588TIP3   OH2 7727   1.062   2.068   4.522
 2588TIP3    H1 7728   1.058   2.099   4.612
 2588TIP3    H2 7729   1.101   1.981   4.527
 2589TIP3   OH2 7730   0.385   6.406   1.114
 2589TIP3    H1 7731   0.376   6.365   1.200
 2589TIP3    H2 7732   0.479   6.421   1.103
 2590TIP3   OH2 7733   1.805   1.822   0.600
 2590TIP3    H1 7734   1.859   1.894   0.632
 2590TIP3    H2 7735   1.802   1.834   0.505
 2591TIP3   OH2 7736   0.484   2.697   2.759
 2591TIP3    H1 7737   0.455   2.740   2.840
 2591TIP3    H2 7738   0.511   2.769   2.702
 2592TIP3   OH2 7739   6.800   4.133   4.618
 2592TIP3    H1 7740   6.745   4.098   4.688
 2592TIP3    H2 7741   6.740   4.179   4.560
 2593TIP3   OH2 7742   0.255   4.304   1.127
 2593TIP3    H1 7743   0.282   4.282   1.216
 2593TIP3    H2 7744   0.176   4.356   1.138
 2594TIP3   OH2 7745   6.519   1.200   5.502
 2594TIP3    H1 7746   6.512   1.223   5.594
 2594TIP3    H2 7747   6.552   1.280   5.460
 2595TIP3   OH2 7748   6.300   3.837   0.954
 2595TIP3    H1 7749   6.330   3.844   0.864
 2595TIP3    H2 7750   6.213   3.879   0.954
 2596TIP3   OH2 7751   3.954   1.300   4.261
 2596TIP3    H1 7752   4.044   1.268   4.250
 2596TIP3    H2 7753   3.926   1.323   4.173
 2597TIP3   OH2 7754   3.352   3.355   4.175
 2597TIP3    H1 7755   3.279   3.318   4.125
 2597TIP3    H2 7756   3.426   3.298   4.156
 2598TIP3   OH2 7757   5.600   5.672   0.957
 2598TIP3    H1 7758   5.628   5.580   0.956
 2598TIP3    H2 7759   5.655   5.714   1.022
 2599TIP3   OH2 7760   4.761   4.763   0.680
 2599TIP3    H1 7761   4.837   4.729   0.633
 2599TIP3    H2 7762   4.755   4.709   0.759
 2600TIP3   OH2 7763   4.194   3.425   2.077
 2600TIP3    H1 7764   4.104   3.410   2.046
 2600TIP3    H2 7765   4.196   3.382   2.162
 2601TIP3   OH2 7766   3.309   5.609   1.603
 2601TIP3    H1 7767   3.221   5.596   1.639
 2601TIP3    H2 7768   3.320   5.537   1.541
 2602TIP3   OH2 7769   2.459   0.445   2.360
 2602TIP3    H1 7770   2.453   0.451   2.264
 2602TIP3    H2 7771   2.533   0.502   2.382
 2603TIP3   OH2 7772   3.045   6.572   5.420
 2603TIP3    H1 7773   3.139   6.569   5.405
 2603TIP3    H2 7774   3.023   6.484   5.450
 2604TIP3   OH2 7775   0.795   0.663   2.671
 2604TIP3    H1 7776   0.749   0.591   2.715
 2604TIP3    H2 7777   0.728   0.703   2.615
 2605TIP3   OH2 7778   6.898   6.606   3.375
 2605TIP3    H1 7779   6.992   6.603   3.357
 2605TIP3    H2 7780   6.881   6.697   3.401
 2606TIP3   OH2 7781   5.823   6.134   1.476
 2606TIP3    H1 7782   5.847   6.140   1.569
 2606TIP3    H2 7783   5.820   6.040   1.458
 2607TIP3   OH2 7784   6.610   4.116   0.836
 2607TIP3    H1 7785   6.546   4.186   0.847
 2607TIP3    H2 7786   6.584   4.072   0.755
 2608TIP3   OH2 7787   6.762   4.608   2.643
 2608TIP3    H1 7788   6.710   4.544   2.594
 2608TIP3    H2 7789   6.833   4.557   2.681
 2609TIP3   OH2 7790   1.508   5.591   2.286
 2609TIP3    H1 7791   1.557   5.629   2.213
 2609TIP3    H2 7792   1.416   5.597   2.258
 2610TIP3   OH2 7793   4.756   0.758   3.590
 2610TIP3    H1 7794   4.709   0.804   3.521
 2610TIP3    H2 7795   4.828   0.714   3.544
 2611TIP3   OH2 7796   4.175   1.938   0.436
 2611TIP3    H1 7797   4.086   1.914   0.409
 2611TIP3    H2 7798   4.230   1.912   0.362
 2612TIP3   OH2 7799   7.041   2.929   1.836
 2612TIP3    H1 7800   7.095   2.889   1.768
 2612TIP3    H2 7801   7.099   2.937   1.912
 2613TIP3   OH2 7802   4.157   5.249   4.201
 2613TIP3    H1 7803   4.244   5.240   4.161
 2613TIP3    H2 7804   4.131   5.159   4.220
 2614TIP3   OH2 7805   2.572   0.314   5.089
 2614TIP3    H1 7806   2.505   0.361   5.039
 2614TIP3    H2 7807   2.652   0.365   5.074
 2615TIP3   OH2 7808   6.660   2.122   1.661
 2615TIP3    H1 7809   6.624   2.158   1.742
 2615TIP3    H2 7810   6.711   2.193   1.624
 2616TIP3   OH2 7811   3.978   4.328   0.136
 2616TIP3    H1 7812   3.977   4.291   0.048
 2616TIP3    H2 7813   4.057   4.291   0.176
 2617TIP3   OH2 7814   6.972   0.405   3.782
 2617TIP3    H1 7815   6.892   0.430   3.828
 2617TIP3    H2 7816   7.006   0.488   3.747
 2618TIP3   OH2 7817   5.477   6.034   5.766
 2618TIP3    H1 7818   5.565   5.995   5.760
 2618TIP3    H2 7819   5.446   6.036   5.675
 2619TIP3   OH2 7820   2.545   0.423   4.492
 2619TIP3    H1 7821   2.583   0.338   4.512
 2619TIP3    H2 7822   2.512   0.414   4.402
 2620TIP3   OH2 7823   5.897   1.821   1.297
 2620TIP3    H1 7824   5.810   1.858   1.313
 2620TIP3    H2 7825   5.890   1.731   1.329
 2621TIP3   OH2 7826   4.440   0.050   0.046
 2621TIP3    H1 7827   4.419   0.086   0.132
 2621TIP3    H2 7828   4.529   0.080   0.028
 2622TIP3   OH2 7829   0.306   3.420   2.595
 2622TIP3    H1 7830   0.229   3.474   2.610
 2622TIP3    H2 7831   0.288   3.339   2.642
 2623TIP3   OH2 7832   2.241   4.365   0.226
 2623TIP3    H1 7833   2.199   4.418   0.159
 2623TIP3    H2 7834   2.190   4.383   0.305
 2624TIP3   OH2 7835   4.761   6.472   2.287
 2624TIP3    H1 7836   4.851   6.462   2.258
 2624TIP3    H2 7837   4.768   6.490   2.381
 2625TIP3   OH2 7838   6.789   2.344   1.588
 2625TIP3    H1 7839   6.823   2.408   1.651
 2625TIP3    H2 7840   6.773   2.395   1.509
 2626TIP3   OH2 7841   0.648   2.975   2.135
 2626TIP3    H1 7842   0.736   2.978   2.172
 2626TIP3    H2 7843   0.630   2.881   2.122
 2627TIP3   OH2 7844   1.311   4.462   2.959
 2627TIP3    H1 7845   1.224   4.500   2.967
 2627TIP3    H2 7846   1.319   4.403   3.034
 2628TIP3   OH2 7847   5.740   3.210   5.510
 2628TIP3    H1 7848   5.707   3.279   5.567
 2628TIP3    H2 7849   5.833   3.205   5.530
 2629TIP3   OH2 7850   0.556   4.128   0.845
 2629TIP3    H1 7851   0.550   4.033   0.841
 2629TIP3    H2 7852   0.612   4.152   0.771
 2630TIP3   OH2 7853   5.106   3.119   4.694
 2630TIP3    H1 7854   5.062   3.122   4.779
 2630TIP3    H2 7855   5.197   3.144   4.714
 2631TIP3   OH2 7856   6.401   3.501   0.468
 2631TIP3    H1 7857   6.486   3.510   0.425
 2631TIP3    H2 7858   6.420   3.462   0.553
 2632TIP3   OH2 7859   5.166   1.176   3.136
 2632TIP3    H1 7860   5.188   1.094   3.092
 2632TIP3    H2 7861   5.238   1.190   3.197
 2633TIP3   OH2 7862   5.840   0.571   2.695
 2633TIP3    H1 7863   5.913   0.628   2.722
 2633TIP3    H2 7864   5.775   0.631   2.658
 2634TIP3   OH2 7865   3.599   3.160   5.233
 2634TIP3    H1 7866   3.513   3.198   5.212
 2634TIP3    H2 7867   3.662   3.216   5.188
 2635TIP3   OH2 7868   3.330   5.345   0.237
 2635TIP3    H1 7869   3.292   5.375   0.155
 2635TIP3    H2 7870   3.337   5.250   0.228
 2636TIP3   OH2 7871   0.648   2.367   2.351
 2636TIP3    H1 7872   0.709   2.376   2.277
 2636TIP3    H2 7873   0.636   2.456   2.384
 2637TIP3   OH2 7874   0.667   6.365   4.305
 2637TIP3    H1 7875   0.740   6.421   4.280
 2637TIP3    H2 7876   0.609   6.422   4.356
 2638TIP3   OH2 7877   5.741   5.000   1.769
 2638TIP3    H1 7878   5.712   5.059   1.700
 2638TIP3    H2 7879   5.723   4.912   1.736
 2639TIP3   OH2 7880   6.941   0.123   0.533
 2639TIP3    H1 7881   7.004   0.168   0.590
 2639TIP3    H2 7882   6.969   0.032   0.533
 2640TIP3   OH2 7883   5.602   2.262   5.341
 2640TIP3    H1 7884   5.561   2.177   5.331
 2640TIP3    H2 7885   5.694   2.242   5.357
 2641TIP3   OH2 7886   5.347   4.058   0.839
 2641TIP3    H1 7887   5.338   3.963   0.848
 2641TIP3    H2 7888   5.326   4.075   0.747
 2642TIP3   OH2 7889   3.809   4.891   4.658
 2642TIP3    H1 7890   3.864   4.955   4.704
 2642TIP3    H2 7891   3.720   4.923   4.669
 2643TIP3   OH2 7892   3.848   3.823   2.782
 2643TIP3    H1 7893   3.892   3.841   2.698
 2643TIP3    H2 7894   3.803   3.740   2.768
 2644TIP3   OH2 7895   5.567   1.640   4.951
 2644TIP3    H1 7896   5.620   1.678   4.881
 2644TIP3    H2 7897   5.535   1.716   5.000
 2645TIP3   OH2 7898   5.587   5.384   1.781
 2645TIP3    H1 7899   5.516   5.425   1.830
 2645TIP3    H2 7900   5.657   5.373   1.845
 2646TIP3   OH2 7901   4.071   2.068   2.798
 2646TIP3    H1 7902   4.043   2.131   2.731
 2646TIP3    H2 7903   4.131   2.117   2.854
 2647TIP3   OH2 7904   2.662   5.412   2.301
 2647TIP3    H1 7905   2.676   5.486   2.360
 2647TIP3    H2 7906   2.749   5.375   2.287
 2648TIP3   OH2 7907   5.346   4.691   0.372
 2648TIP3    H1 7908   5.399   4.769   0.358
 2648TIP3    H2 7909   5.262   4.724   0.405
 2649TIP3   OH2 7910   5.281   6.040   1.840
 2649TIP3    H1 7911   5.330   5.973   1.794
 2649TIP3    H2 7912   5.332   6.120   1.828
 2650TIP3   OH2 7913   2.381   2.219   5.652
 2650TIP3    H1 7914   2.403   2.311   5.666
 2650TIP3    H2 7915   2.412   2.174   5.730
 2651TIP3   OH2 7916   5.883   0.793   1.622
 2651TIP3    H1 7917   5.953   0.838   1.670
 2651TIP3    H2 7918   5.925   0.714   1.588
 2652TIP3   OH2 7919   5.349   4.868   0.760
 2652TIP3    H1 7920   5.314   4.950   0.724
 2652TIP3    H2 7921   5.272   4.812   0.771
 2653TIP3   OH2 7922   3.503   2.130   1.673
 2653TIP3    H1 7923   3.554   2.186   1.613
 2653TIP3    H2 7924   3.569   2.077   1.717
 2654TIP3   OH2 7925   3.776   2.638   5.329
 2654TIP3    H1 7926   3.821   2.638   5.245
 2654TIP3    H2 7927   3.687   2.609   5.309
 2655TIP3   OH2 7928   4.886   1.225   0.930
 2655TIP3    H1 7929   4.977   1.220   0.961
 2655TIP3    H2 7930   4.871   1.318   0.916
 2656TIP3   OH2 7931   7.173   1.893   2.379
 2656TIP3    H1 7932   7.228   1.815   2.382
 2656TIP3    H2 7933   7.227   1.960   2.338
 2657TIP3   OH2 7934   4.496   0.157   5.282
 2657TIP3    H1 7935   4.564   0.201   5.334
 2657TIP3    H2 7936   4.452   0.228   5.235
 2658TIP3   OH2 7937   5.102   6.047   4.047
 2658TIP3    H1 7938   5.193   6.071   4.060
 2658TIP3    H2 7939   5.052   6.123   4.075
 2659TIP3   OH2 7940   6.453   3.913   1.167
 2659TIP3    H1 7941   6.390   3.962   1.220
 2659TIP3    H2 7942   6.400   3.871   1.099
 2660TIP3   OH2 7943   6.289   1.602   3.573
 2660TIP3    H1 7944   6.304   1.563   3.659
 2660TIP3    H2 7945   6.371   1.586   3.525
 2661TIP3   OH2 7946   5.246   2.415   0.386
 2661TIP3    H1 7947   5.263   2.418   0.291
 2661TIP3    H2 7948   5.249   2.322   0.407
 2662TIP3   OH2 7949   5.594   2.018   1.745
 2662TIP3    H1 7950   5.548   1.939   1.717
 2662TIP3    H2 7951   5.581   2.081   1.674
 2663TIP3   OH2 7952   2.971   6.534   3.620
 2663TIP3    H1 7953   2.891   6.502   3.578
 2663TIP3    H2 7954   3.005   6.600   3.559
 2664TIP3   OH2 7955   4.578   2.245   0.327
 2664TIP3    H1 7956   4.551   2.223   0.416
 2664TIP3    H2 7957   4.560   2.166   0.276
 2665TIP3   OH2 7958   0.934   6.255   4.466
 2665TIP3    H1 7959   0.923   6.303   4.385
 2665TIP3    H2 7960   0.887   6.306   4.532
 2666TIP3   OH2 7961   7.128   0.333   4.502
 2666TIP3    H1 7962   7.063   0.302   4.566
 2666TIP3    H2 7963   7.204   0.356   4.555
 2667TIP3   OH2 7964   4.978   1.058   4.225
 2667TIP3    H1 7965   5.073   1.070   4.232
 2667TIP3    H2 7966   4.968   0.980   4.170
 2668TIP3   OH2 7967   5.535   3.740   5.040
 2668TIP3    H1 7968   5.560   3.670   4.979
 2668TIP3    H2 7969   5.440   3.747   5.032
 2669TIP3   OH2 7970   1.460   1.168   1.004
 2669TIP3    H1 7971   1.533   1.142   0.947
 2669TIP3    H2 7972   1.448   1.093   1.063
 2670TIP3   OH2 7973   1.458   5.759   1.513
 2670TIP3    H1 7974   1.442   5.723   1.600
 2670TIP3    H2 7975   1.398   5.710   1.456
 2671TIP3   OH2 7976   2.808   3.850   1.734
 2671TIP3    H1 7977   2.745   3.896   1.790
 2671TIP3    H2 7978   2.888   3.845   1.787
 2672TIP3   OH2 7979   3.232   0.280   4.328
 2672TIP3    H1 7980   3.148   0.234   4.329
 2672TIP3    H2 7981   3.274   0.254   4.410
 2673TIP3   OH2 7982   4.482   3.112   2.802
 2673TIP3    H1 7983   4.396   3.153   2.796
 2673TIP3    H2 7984   4.483   3.071   2.888
 2674TIP3   OH2 7985   5.854   1.011   4.210
 2674TIP3    H1 7986   5.880   1.047   4.295
 2674TIP3    H2 7987   5.784   0.950   4.231
 2675TIP3   OH2 7988   5.123   1.794   4.805
 2675TIP3    H1 7989   5.218   1.780   4.806
 2675TIP3    H2 7990   5.113   1.889   4.810
 2676TIP3   OH2 7991   4.666   4.167   0.160
 2676TIP3    H1 7992   4.742   4.209   0.120
 2676TIP3    H2 7993   4.702   4.092   0.206
 2677TIP3   OH2 7994   1.757   1.648   4.097
 2677TIP3    H1 7995   1.772   1.594   4.020
 2677TIP3    H2 7996   1.783   1.593   4.171
 2678TIP3   OH2 7997   6.054   2.162   1.049
 2678TIP3    H1 7998   6.134   2.212   1.034
 2678TIP3    H2 7999   5.986   2.210   1.002
 2679TIP3   OH2 8000   2.617   2.963   1.795
 2679TIP3    H1 8001   2.708   2.950   1.821
 2679TIP3    H2 8002   2.567   2.947   1.875
 2680TIP3   OH2 8003   5.572   5.181   1.597
 2680TIP3    H1 8004   5.588   5.240   1.671
 2680TIP3    H2 8005   5.535   5.238   1.529
 2681TIP3   OH2 8006   6.542   0.815   0.643
 2681TIP3    H1 8007   6.541   0.722   0.622
 2681TIP3    H2 8008   6.599   0.853   0.577
 2682TIP3   OH2 8009   7.094   4.513   2.117
 2682TIP3    H1 8010   7.114   4.567   2.194
 2682TIP3    H2 8011   7.067   4.576   2.050
 2683TIP3   OH2 8012   1.197   0.231   4.072
 2683TIP3    H1 8013   1.259   0.220   4.143
 2683TIP3    H2 8014   1.206   0.152   4.019
 2684TIP3   OH2 8015   0.098   1.076   4.979
 2684TIP3    H1 8016   0.030   1.114   5.034
 2684TIP3    H2 8017   0.059   0.997   4.942
 2685TIP3   OH2 8018   6.464   0.823   2.282
 2685TIP3    H1 8019   6.383   0.828   2.231
 2685TIP3    H2 8020   6.486   0.915   2.301
 2686TIP3   OH2 8021   2.019   6.638   4.333
 2686TIP3    H1 8022   1.986   6.717   4.289
 2686TIP3    H2 8023   2.108   6.628   4.298
 2687TIP3   OH2 8024   0.726   6.499   2.522
 2687TIP3    H1 8025   0.688   6.412   2.511
 2687TIP3    H2 8026   0.734   6.511   2.616
 2688TIP3   OH2 8027   6.462   0.179   1.421
 2688TIP3    H1 8028   6.515   0.252   1.390
 2688TIP3    H2 8029   6.396   0.219   1.477
 2689TIP3   OH2 8030   3.267   6.552   0.636
 2689TIP3    H1 8031   3.255   6.631   0.688
 2689TIP3    H2 8032   3.230   6.574   0.550
 2690TIP3   OH2 8033   4.175   4.014   5.695
 2690TIP3    H1 8034   4.182   4.042   5.603
 2690TIP3    H2 8035   4.254   3.962   5.710
 2691TIP3   OH2 8036   0.934   0.943   5.436
 2691TIP3    H1 8037   0.877   0.866   5.433
 2691TIP3    H2 8038   0.876   1.014   5.462
 2692TIP3   OH2 8039   5.302   1.951   1.495
 2692TIP3    H1 8040   5.240   1.878   1.481
 2692TIP3    H2 8041   5.306   1.961   1.590
 2693TIP3   OH2 8042   2.875   1.468   0.748
 2693TIP3    H1 8043   2.862   1.561   0.761
 2693TIP3    H2 8044   2.835   1.427   0.825
 2694TIP3   OH2 8045   3.822   5.348   4.786
 2694TIP3    H1 8046   3.736   5.323   4.751
 2694TIP3    H2 8047   3.863   5.397   4.714
 2695TIP3   OH2 8048   2.277   1.259   4.599
 2695TIP3    H1 8049   2.186   1.254   4.629
 2695TIP3    H2 8050   2.285   1.348   4.564
 2696TIP3   OH2 8051   5.042   5.662   5.046
 2696TIP3    H1 8052   4.980   5.644   5.116
 2696TIP3    H2 8053   5.123   5.685   5.091
 2697TIP3   OH2 8054   4.268   5.111   1.829
 2697TIP3    H1 8055   4.277   5.144   1.918
 2697TIP3    H2 8056   4.252   5.190   1.776
 2698TIP3   OH2 8057   2.586   0.667   2.901
 2698TIP3    H1 8058   2.519   0.729   2.929
 2698TIP3    H2 8059   2.636   0.715   2.835
 2699TIP3   OH2 8060   6.008   0.124   1.998
 2699TIP3    H1 8061   6.045   0.036   1.989
 2699TIP3    H2 8062   5.946   0.131   1.926
 2700TIP3   OH2 8063   2.943   4.934   1.295
 2700TIP3    H1 8064   2.995   4.977   1.363
 2700TIP3    H2 8065   2.929   4.845   1.328
 2701TIP3   OH2 8066   1.502   5.087   4.082
 2701TIP3    H1 8067   1.520   5.036   4.003
 2701TIP3    H2 8068   1.410   5.112   4.074
 2702TIP3   OH2 8069   3.686   0.963   0.386
 2702TIP3    H1 8070   3.775   0.932   0.400
 2702TIP3    H2 8071   3.685   1.050   0.427
 2703TIP3   OH2 8072   3.418   1.453   1.386
 2703TIP3    H1 8073   3.505   1.413   1.381
 2703TIP3    H2 8074   3.435   1.544   1.409
 2704TIP3   OH2 8075   1.731   1.408   0.258
 2704TIP3    H1 8076   1.696   1.333   0.307
 2704TIP3    H2 8077   1.815   1.377   0.223
 2705TIP3   OH2 8078   5.814   2.844   4.727
 2705TIP3    H1 8079   5.831   2.938   4.742
 2705TIP3    H2 8080   5.853   2.801   4.803
 2706TIP3   OH2 8081   1.356   0.922   5.482
 2706TIP3    H1 8082   1.374   0.833   5.510
 2706TIP3    H2 8083   1.440   0.966   5.486
 2707TIP3   OH2 8084   3.017   5.768   4.950
 2707TIP3    H1 8085   3.026   5.813   4.866
 2707TIP3    H2 8086   2.923   5.767   4.966
 2708TIP3   OH2 8087   2.366   6.269   1.753
 2708TIP3    H1 8088   2.456   6.293   1.775
 2708TIP3    H2 8089   2.344   6.325   1.678
 2709TIP3   OH2 8090   6.862   0.121   3.096
 2709TIP3    H1 8091   6.820   0.117   3.182
 2709TIP3    H2 8092   6.835   0.040   3.053
 2710TIP3   OH2 8093   5.711   0.245   5.088
 2710TIP3    H1 8094   5.615   0.250   5.090
 2710TIP3    H2 8095   5.731   0.206   5.003
 2711TIP3   OH2 8096   4.841   0.582   5.242
 2711TIP3    H1 8097   4.859   0.647   5.310
 2711TIP3    H2 8098   4.927   0.550   5.215
 2712TIP3   OH2 8099   4.187   1.198   4.208
 2712TIP3    H1 8100   4.205   1.116   4.254
 2712TIP3    H2 8101   4.158   1.171   4.121
 2713TIP3   OH2 8102   5.824   2.443   5.860
 2713TIP3    H1 8103   5.848   2.377   5.925
 2713TIP3    H2 8104   5.893   2.509   5.867
 2714TIP3   OH2 8105   6.068   0.451   2.059
 2714TIP3    H1 8106   6.038   0.518   1.998
 2714TIP3    H2 8107   6.046   0.368   2.017
 2715TIP3   OH2 8108   5.673   3.402   2.945
 2715TIP3    H1 8109   5.664   3.484   2.994
 2715TIP3    H2 8110   5.587   3.389   2.905
 2716TIP3   OH2 8111   6.211   1.130   5.626
 2716TIP3    H1 8112   6.250   1.183   5.695
 2716TIP3    H2 8113   6.123   1.165   5.615
 2717TIP3   OH2 8114   5.780   5.262   2.393
 2717TIP3    H1 8115   5.849   5.311   2.437
 2717TIP3    H2 8116   5.750   5.320   2.324
 2718TIP3   OH2 8117   2.435   5.142   2.575
 2718TIP3    H1 8118   2.369   5.119   2.641
 2718TIP3    H2 8119   2.519   5.124   2.618
 2719TIP3   OH2 8120   0.683   5.422   4.463
 2719TIP3    H1 8121   0.638   5.351   4.417
 2719TIP3    H2 8122   0.770   5.424   4.423
 2720TIP3   OH2 8123   6.663   2.858   5.534
 2720TIP3    H1 8124   6.684   2.861   5.441
 2720TIP3    H2 8125   6.664   2.765   5.556
 2721TIP3   OH2 8126   1.564   6.448   3.380
 2721TIP3    H1 8127   1.538   6.360   3.405
 2721TIP3    H2 8128   1.624   6.436   3.306
 2722TIP3   OH2 8129   2.585   2.482   2.060
 2722TIP3    H1 8130   2.600   2.388   2.055
 2722TIP3    H2 8131   2.568   2.509   1.970
 2723TIP3   OH2 8132   3.117   2.991   3.046
 2723TIP3    H1 8133   3.024   2.984   3.070
 2723TIP3    H2 8134   3.152   2.903   3.062
 2724TIP3   OH2 8135   1.696   0.798   4.212
 2724TIP3    H1 8136   1.626   0.835   4.266
 2724TIP3    H2 8137   1.777   0.821   4.258
 2725TIP3   OH2 8138   7.153   3.799   1.919
 2725TIP3    H1 8139   7.175   3.755   2.002
 2725TIP3    H2 8140   7.067   3.765   1.896
 2726TIP3   OH2 8141   4.088   2.829   4.068
 2726TIP3    H1 8142   4.073   2.861   3.979
 2726TIP3    H2 8143   4.145   2.753   4.057
 2727TIP3   OH2 8144   1.007   3.992   3.542
 2727TIP3    H1 8145   1.067   3.953   3.479
 2727TIP3    H2 8146   1.063   4.048   3.596
 2728TIP3   OH2 8147   6.329   3.292   4.089
 2728TIP3    H1 8148   6.269   3.290   4.014
 2728TIP3    H2 8149   6.311   3.376   4.132
 2729TIP3   OH2 8150   5.816   4.183   0.632
 2729TIP3    H1 8151   5.782   4.236   0.559
 2729TIP3    H2 8152   5.910   4.202   0.633
 2730TIP3   OH2 8153   5.737   5.098   2.020
 2730TIP3    H1 8154   5.656   5.145   2.040
 2730TIP3    H2 8155   5.730   5.077   1.927
 2731TIP3   OH2 8156   5.695   2.515   5.215
 2731TIP3    H1 8157   5.657   2.428   5.229
 2731TIP3    H2 8158   5.769   2.519   5.275
 2732TIP3   OH2 8159   6.862   1.464   2.498
 2732TIP3    H1 8160   6.917   1.456   2.576
 2732TIP3    H2 8161   6.809   1.542   2.513
 2733TIP3   OH2 8162   0.985   5.594   2.660
 2733TIP3    H1 8163   0.929   5.657   2.614
 2733TIP3    H2 8164   1.073   5.613   2.630
 2734TIP3   OH2 8165   0.987   5.210   5.331
 2734TIP3    H1 8166   0.962   5.166   5.250
 2734TIP3    H2 8167   0.941   5.161   5.400
 2735TIP3   OH2 8168   3.323   2.196   0.655
 2735TIP3    H1 8169   3.248   2.136   0.657
 2735TIP3    H2 8170   3.283   2.283   0.644
 2736TIP3   OH2 8171   3.616   4.182   3.770
 2736TIP3    H1 8172   3.691   4.127   3.792
 2736TIP3    H2 8173   3.637   4.268   3.806
 2737TIP3   OH2 8174   3.961   2.172   5.788
 2737TIP3    H1 8175   4.026   2.240   5.806
 2737TIP3    H2 8176   4.009   2.090   5.801
 2738TIP3   OH2 8177   3.605   6.607   3.230
 2738TIP3    H1 8178   3.627   6.578   3.318
 2738TIP3    H2 8179   3.638   6.697   3.225
 2739TIP3   OH2 8180   6.997   1.237   3.496
 2739TIP3    H1 8181   6.990   1.297   3.570
 2739TIP3    H2 8182   6.933   1.168   3.513
 2740TIP3   OH2 8183   1.675   5.050   3.054
 2740TIP3    H1 8184   1.755   5.038   3.104
 2740TIP3    H2 8185   1.674   4.976   2.993
 2741TIP3   OH2 8186   3.984   2.587   2.899
 2741TIP3    H1 8187   4.003   2.554   2.986
 2741TIP3    H2 8188   3.904   2.541   2.872
 2742TIP3   OH2 8189   1.349   5.341   1.513
 2742TIP3    H1 8190   1.428   5.396   1.514
 2742TIP3    H2 8191   1.382   5.252   1.527
 2743TIP3   OH2 8192   2.460   3.546   0.057
 2743TIP3    H1 8193   2.503   3.583  -0.020
 2743TIP3    H2 8194   2.523   3.558   0.128
 2744TIP3   OH2 8195   2.680   0.872   2.533
 2744TIP3    H1 8196   2.694   0.788   2.488
 2744TIP3    H2 8197   2.754   0.880   2.592
 2745TIP3   OH2 8198   0.039   4.217   4.799
 2745TIP3    H1 8199   0.100   4.145   4.781
 2745TIP3    H2 8200  -0.045   4.175   4.814
 2746TIP3   OH2 8201   6.227   1.697   4.189
 2746TIP3    H1 8202   6.316   1.732   4.190
 2746TIP3    H2 8203   6.230   1.628   4.123
 2747TIP3   OH2 8204   3.530   0.700   4.642
 2747TIP3    H1 8205   3.476   0.621   4.634
 2747TIP3    H2 8206   3.619   0.670   4.624
 2748TIP3   OH2 8207   6.758   5.712   3.195
 2748TIP3    H1 8208   6.751   5.804   3.169
 2748TIP3    H2 8209   6.833   5.710   3.255
 2749TIP3   OH2 8210   2.082   4.201   5.374
 2749TIP3    H1 8211   2.027   4.130   5.341
 2749TIP3    H2 8212   2.066   4.273   5.313
 2750TIP3   OH2 8213   4.234   0.660   1.465
 2750TIP3    H1 8214   4.143   0.653   1.438
 2750TIP3    H2 8215   4.280   0.695   1.389
 2751TIP3   OH2 8216   0.142   0.202   3.086
 2751TIP3    H1 8217   0.060   0.207   3.135
 2751TIP3    H2 8218   0.207   0.239   3.146
 2752TIP3   OH2 8219   5.673   0.743   3.820
 2752TIP3    H1 8220   5.708   0.658   3.795
 2752TIP3    H2 8221   5.659   0.789   3.737
 2753TIP3   OH2 8222   1.878   1.061   1.317
 2753TIP3    H1 8223   1.958   1.009   1.310
 2753TIP3    H2 8224   1.895   1.139   1.264
 2754TIP3   OH2 8225   2.529   1.401   0.155
 2754TIP3    H1 8226   2.497   1.375   0.069
 2754TIP3    H2 8227   2.581   1.327   0.185
 2755TIP3   OH2 8228   5.598   4.609   2.432
 2755TIP3    H1 8229   5.682   4.606   2.385
 2755TIP3    H2 8230   5.540   4.553   2.381
 2756TIP3   OH2 8231   4.066   4.354   4.566
 2756TIP3    H1 8232   4.026   4.284   4.618
 2756TIP3    H2 8233   4.150   4.371   4.609
 2757TIP3   OH2 8234   2.358   4.150   3.612
 2757TIP3    H1 8235   2.291   4.177   3.675
 2757TIP3    H2 8236   2.347   4.055   3.605
 2758TIP3   OH2 8237   0.713   2.675   3.882
 2758TIP3    H1 8238   0.708   2.748   3.944
 2758TIP3    H2 8239   0.656   2.702   3.809
 2759TIP3   OH2 8240   1.916   6.204   3.105
 2759TIP3    H1 8241   1.998   6.194   3.153
 2759TIP3    H2 8242   1.861   6.132   3.136
 2760TIP3   OH2 8243   0.363   2.743   1.879
 2760TIP3    H1 8244   0.355   2.657   1.921
 2760TIP3    H2 8245   0.455   2.767   1.892
 2761TIP3   OH2 8246   0.030   2.316   2.030
 2761TIP3    H1 8247   0.042   2.288   1.939
 2761TIP3    H2 8248  -0.047   2.267   2.061
 2762TIP3   OH2 8249   0.848   5.992   4.908
 2762TIP3    H1 8250   0.874   5.909   4.949
 2762TIP3    H2 8251   0.826   6.049   4.982
 2763TIP3   OH2 8252   1.971   4.060   0.971
 2763TIP3    H1 8253   1.968   4.032   0.880
 2763TIP3    H2 8254   1.882   4.049   1.004
 2764TIP3   OH2 8255   5.309   4.706   3.183
 2764TIP3    H1 8256   5.287   4.624   3.227
 2764TIP3    H2 8257   5.377   4.682   3.120
 2765TIP3   OH2 8258   3.326   1.487   1.662
 2765TIP3    H1 8259   3.354   1.475   1.571
 2765TIP3    H2 8260   3.306   1.580   1.669
 2766TIP3   OH2 8261   1.236   0.891   3.374
 2766TIP3    H1 8262   1.279   0.934   3.300
 2766TIP3    H2 8263   1.216   0.803   3.341
 2767TIP3   OH2 8264   2.052   5.432   2.449
 2767TIP3    H1 8265   2.026   5.342   2.431
 2767TIP3    H2 8266   2.138   5.425   2.490
 2768TIP3   OH2 8267   2.627   2.375   3.996
 2768TIP3    H1 8268   2.593   2.437   4.061
 2768TIP3    H2 8269   2.693   2.424   3.947
 2769TIP3   OH2 8270   4.052   3.655   4.244
 2769TIP3    H1 8271   3.990   3.724   4.221
 2769TIP3    H2 8272   4.090   3.685   4.327
 2770TIP3   OH2 8273   5.218   5.960   3.124
 2770TIP3    H1 8274   5.292   6.009   3.159
 2770TIP3    H2 8275   5.256   5.878   3.093
 2771TIP3   OH2 8276   0.242   5.630   1.430
 2771TIP3    H1 8277   0.157   5.671   1.442
 2771TIP3    H2 8278   0.250   5.617   1.335
 2772TIP3   OH2 8279   5.542   3.881   4.032
 2772TIP3    H1 8280   5.499   3.812   3.982
 2772TIP3    H2 8281   5.574   3.837   4.111
 2773TIP3   OH2 8282   7.184   5.375   0.907
 2773TIP3    H1 8283   7.190   5.416   0.821
 2773TIP3    H2 8284   7.272   5.339   0.923
 2774TIP3   OH2 8285   4.885   3.732   2.654
 2774TIP3    H1 8286   4.822   3.803   2.667
 2774TIP3    H2 8287   4.839   3.654   2.686
 2775TIP3   OH2 8288   3.662   1.886   5.520
 2775TIP3    H1 8289   3.700   1.973   5.507
 2775TIP3    H2 8290   3.722   1.827   5.476
 2776TIP3   OH2 8291   2.849   6.607   2.813
 2776TIP3    H1 8292   2.825   6.519   2.841
 2776TIP3    H2 8293   2.943   6.601   2.795
 2777TIP3   OH2 8294   5.194   2.258   2.464
 2777TIP3    H1 8295   5.102   2.272   2.486
 2777TIP3    H2 8296   5.192   2.204   2.385
 2778TIP3   OH2 8297   6.919   0.542   4.818
 2778TIP3    H1 8298   6.975   0.619   4.809
 2778TIP3    H2 8299   6.830   0.577   4.814
 2779TIP3   OH2 8300   4.820   6.009   2.599
 2779TIP3    H1 8301   4.806   6.005   2.505
 2779TIP3    H2 8302   4.874   5.933   2.619
 2780TIP3   OH2 8303   2.250   0.855   2.316
 2780TIP3    H1 8304   2.156   0.847   2.301
 2780TIP3    H2 8305   2.290   0.818   2.237
 2781TIP3   OH2 8306   6.344   6.472   3.872
 2781TIP3    H1 8307   6.439   6.458   3.878
 2781TIP3    H2 8308   6.315   6.411   3.805
 2782TIP3   OH2 8309   0.658   2.322   3.451
 2782TIP3    H1 8310   0.697   2.244   3.413
 2782TIP3    H2 8311   0.610   2.363   3.378
 2783TIP3   OH2 8312   5.420   6.671   2.686
 2783TIP3    H1 8313   5.375   6.662   2.770
 2783TIP3    H2 8314   5.501   6.622   2.697
 2784TIP3   OH2 8315   2.195   3.099   2.598
 2784TIP3    H1 8316   2.122   3.061   2.646
 2784TIP3    H2 8317   2.175   3.192   2.593
 2785TIP3   OH2 8318   1.397   2.989   2.475
 2785TIP3    H1 8319   1.358   2.954   2.395
 2785TIP3    H2 8320   1.417   3.081   2.454
 2786TIP3   OH2 8321   1.577   2.221   0.221
 2786TIP3    H1 8322   1.595   2.211   0.314
 2786TIP3    H2 8323   1.631   2.154   0.178
 2787TIP3   OH2 8324   6.688   4.516   2.143
 2787TIP3    H1 8325   6.626   4.554   2.204
 2787TIP3    H2 8326   6.738   4.452   2.195
 2788TIP3   OH2 8327   0.212   3.896   1.131
 2788TIP3    H1 8328   0.244   3.879   1.220
 2788TIP3    H2 8329   0.292   3.903   1.078
 2789TIP3   OH2 8330   1.272   5.109   4.370
 2789TIP3    H1 8331   1.221   5.084   4.293
 2789TIP3    H2 8332   1.322   5.030   4.392
 2790TIP3   OH2 8333   1.405   6.506   4.040
 2790TIP3    H1 8334   1.487   6.555   4.040
 2790TIP3    H2 8335   1.430   6.416   4.059
 2791TIP3   OH2 8336   7.150   4.035   3.057
 2791TIP3    H1 8337   7.243   4.025   3.080
 2791TIP3    H2 8338   7.119   3.945   3.045
 2792TIP3   OH2 8339   4.997   0.665   2.636
 2792TIP3    H1 8340   5.085   0.673   2.600
 2792TIP3    H2 8341   4.984   0.571   2.648
 2793TIP3   OH2 8342   6.404   2.831   3.826
 2793TIP3    H1 8343   6.471   2.898   3.838
 2793TIP3    H2 8344   6.416   2.799   3.737
 2794TIP3   OH2 8345   0.282   6.214   2.869
 2794TIP3    H1 8346   0.323   6.243   2.787
 2794TIP3    H2 8347   0.208   6.160   2.841
 2795TIP3   OH2 8348   6.656   4.329   5.363
 2795TIP3    H1 8349   6.750   4.345   5.360
 2795TIP3    H2 8350   6.640   4.295   5.451
 2796TIP3   OH2 8351   6.875   1.583   0.088
 2796TIP3    H1 8352   6.802   1.644   0.090
 2796TIP3    H2 8353   6.931   1.612   0.160
 2797TIP3   OH2 8354   2.086   5.833   5.008
 2797TIP3    H1 8355   2.072   5.839   4.913
 2797TIP3    H2 8356   2.005   5.796   5.042
 2798TIP3   OH2 8357   3.087   5.762   2.725
 2798TIP3    H1 8358   3.174   5.801   2.732
 2798TIP3    H2 8359   3.061   5.777   2.634
 2799TIP3   OH2 8360   6.045   3.215   0.492
 2799TIP3    H1 8361   5.953   3.238   0.504
 2799TIP3    H2 8362   6.064   3.155   0.564
 2800TIP3   OH2 8363   2.396   2.660   5.524
 2800TIP3    H1 8364   2.383   2.752   5.500
 2800TIP3    H2 8365   2.485   2.640   5.495
 2801TIP3   OH2 8366   7.018   3.183   4.938
 2801TIP3    H1 8367   6.995   3.094   4.910
 2801TIP3    H2 8368   6.989   3.187   5.029
 2802TIP3   OH2 8369   3.808   2.828   2.678
 2802TIP3    H1 8370   3.776   2.798   2.763
 2802TIP3    H2 8371   3.808   2.750   2.623
 2803TIP3   OH2 8372   5.970   4.782   3.680
 2803TIP3    H1 8373   5.877   4.804   3.687
 2803TIP3    H2 8374   5.989   4.789   3.586
 2804TIP3   OH2 8375   3.807   2.524   3.444
 2804TIP3    H1 8376   3.814   2.459   3.513
 2804TIP3    H2 8377   3.876   2.588   3.463
 2805TIP3   OH2 8378   5.797   5.834   1.865
 2805TIP3    H1 8379   5.821   5.744   1.842
 2805TIP3    H2 8380   5.827   5.844   1.955
 2806TIP3   OH2 8381   2.638   3.648   5.256
 2806TIP3    H1 8382   2.635   3.700   5.336
 2806TIP3    H2 8383   2.708   3.689   5.204
 2807TIP3   OH2 8384   4.407   4.731   2.106
 2807TIP3    H1 8385   4.377   4.752   2.017
 2807TIP3    H2 8386   4.502   4.728   2.098
 2808TIP3   OH2 8387   3.662   1.585   1.586
 2808TIP3    H1 8388   3.645   1.494   1.562
 2808TIP3    H2 8389   3.751   1.602   1.556
 2809TIP3   OH2 8390   1.162   1.517   3.643
 2809TIP3    H1 8391   1.165   1.607   3.676
 2809TIP3    H2 8392   1.197   1.523   3.554
 2810TIP3   OH2 8393   6.719   1.364   0.107
 2810TIP3    H1 8394   6.802   1.409   0.094
 2810TIP3    H2 8395   6.653   1.433   0.102
 2811TIP3   OH2 8396   1.123   4.249   2.578
 2811TIP3    H1 8397   1.064   4.274   2.507
 2811TIP3    H2 8398   1.088   4.292   2.656
 2812TIP3   OH2 8399   0.186   3.150   1.646
 2812TIP3    H1 8400   0.270   3.153   1.691
 2812TIP3    H2 8401   0.186   3.065   1.602
 2813TIP3   OH2 8402   2.954   4.439   5.492
 2813TIP3    H1 8403   2.997   4.463   5.574
 2813TIP3    H2 8404   2.862   4.427   5.516
 2814TIP3   OH2 8405   3.514   2.339   4.079
 2814TIP3    H1 8406   3.457   2.331   4.155
 2814TIP3    H2 8407   3.598   2.368   4.115
 2815TIP3   OH2 8408   3.914   2.100   4.015
 2815TIP3    H1 8409   3.922   2.028   4.078
 2815TIP3    H2 8410   3.883   2.174   4.068
 2816TIP3   OH2 8411   0.122   1.383   2.949
 2816TIP3    H1 8412   0.178   1.440   2.895
 2816TIP3    H2 8413   0.120   1.425   3.034
 2817TIP3   OH2 8414   0.229   0.858   1.708
 2817TIP3    H1 8415   0.230   0.868   1.612
 2817TIP3    H2 8416   0.251   0.945   1.741
 2818TIP3   OH2 8417   6.527   5.468   2.486
 2818TIP3    H1 8418   6.476   5.401   2.441
 2818TIP3    H2 8419   6.478   5.486   2.566
 2819TIP3   OH2 8420   3.929   4.334   2.504
 2819TIP3    H1 8421   3.894   4.382   2.429
 2819TIP3    H2 8422   3.853   4.315   2.559
 2820TIP3   OH2 8423   6.561   5.568   0.651
 2820TIP3    H1 8424   6.475   5.609   0.635
 2820TIP3    H2 8425   6.541   5.491   0.704
 2821TIP3   OH2 8426   5.377   2.430   4.843
 2821TIP3    H1 8427   5.396   2.412   4.935
 2821TIP3    H2 8428   5.282   2.426   4.836
 2822TIP3   OH2 8429   2.711   6.487   3.496
 2822TIP3    H1 8430   2.767   6.517   3.425
 2822TIP3    H2 8431   2.623   6.514   3.471
 2823TIP3   OH2 8432   2.748   5.288   0.468
 2823TIP3    H1 8433   2.737   5.196   0.492
 2823TIP3    H2 8434   2.664   5.329   0.488
 2824TIP3   OH2 8435   0.905   3.788   0.877
 2824TIP3    H1 8436   0.837   3.760   0.816
 2824TIP3    H2 8437   0.911   3.883   0.865
 2825TIP3   OH2 8438   5.841   5.279   0.530
 2825TIP3    H1 8439   5.811   5.294   0.440
 2825TIP3    H2 8440   5.844   5.366   0.569
 2826TIP3   OH2 8441   1.858   0.396   2.626
 2826TIP3    H1 8442   1.917   0.321   2.639
 2826TIP3    H2 8443   1.806   0.399   2.706
 2827TIP3   OH2 8444   3.427   2.931   1.900
 2827TIP3    H1 8445   3.338   2.939   1.933
 2827TIP3    H2 8446   3.416   2.917   1.806
 2828TIP3   OH2 8447   4.902   1.350   1.310
 2828TIP3    H1 8448   4.989   1.310   1.308
 2828TIP3    H2 8449   4.917   1.440   1.281
 2829TIP3   OH2 8450   1.125   5.410   0.708
 2829TIP3    H1 8451   1.205   5.386   0.755
 2829TIP3    H2 8452   1.106   5.500   0.738
 2830TIP3   OH2 8453   6.595   1.645   1.419
 2830TIP3    H1 8454   6.684   1.677   1.428
 2830TIP3    H2 8455   6.540   1.713   1.458
 2831TIP3   OH2 8456   4.974   1.097   5.796
 2831TIP3    H1 8457   4.921   1.157   5.848
 2831TIP3    H2 8458   5.029   1.052   5.860
 2832TIP3   OH2 8459   2.057   2.518   1.607
 2832TIP3    H1 8460   2.068   2.488   1.517
 2832TIP3    H2 8461   1.974   2.566   1.606
 2833TIP3   OH2 8462   4.953   0.194   3.143
 2833TIP3    H1 8463   4.955   0.210   3.048
 2833TIP3    H2 8464   4.917   0.106   3.152
 2834TIP3   OH2 8465   3.865   1.893   2.845
 2834TIP3    H1 8466   3.884   1.873   2.937
 2834TIP3    H2 8467   3.937   1.949   2.817
 2835TIP3   OH2 8468   5.744   2.428   0.545
 2835TIP3    H1 8469   5.758   2.481   0.466
 2835TIP3    H2 8470   5.811   2.459   0.606
 2836TIP3   OH2 8471   3.469   6.486   2.393
 2836TIP3    H1 8472   3.509   6.524   2.315
 2836TIP3    H2 8473   3.438   6.400   2.366
 2837TIP3   OH2 8474   1.171   5.459   3.603
 2837TIP3    H1 8475   1.192   5.527   3.538
 2837TIP3    H2 8476   1.256   5.431   3.637
 2838TIP3   OH2 8477   4.242   6.317   0.337
 2838TIP3    H1 8478   4.177   6.373   0.293
 2838TIP3    H2 8479   4.249   6.240   0.281
 2839TIP3   OH2 8480   4.890   5.458   4.802
 2839TIP3    H1 8481   4.858   5.444   4.712
 2839TIP3    H2 8482   4.816   5.498   4.847
 2840TIP3   OH2 8483   2.092   5.979   1.259
 2840TIP3    H1 8484   2.033   6.022   1.320
 2840TIP3    H2 8485   2.038   5.959   1.183
 2841TIP3   OH2 8486   5.519   3.723   2.716
 2841TIP3    H1 8487   5.499   3.807   2.756
 2841TIP3    H2 8488   5.456   3.714   2.645
 2842TIP3   OH2 8489   2.981   2.500   3.993
 2842TIP3    H1 8490   2.936   2.492   4.078
 2842TIP3    H2 8491   2.998   2.409   3.967
 2843TIP3   OH2 8492   6.558   3.945   0.259
 2843TIP3    H1 8493   6.486   3.882   0.265
 2843TIP3    H2 8494   6.582   3.945   0.166
 2844TIP3   OH2 8495   3.690   3.482   1.559
 2844TIP3    H1 8496   3.777   3.471   1.520
 2844TIP3    H2 8497   3.665   3.572   1.537
 2845TIP3   OH2 8498   0.425   4.039   1.771
 2845TIP3    H1 8499   0.366   4.090   1.827
 2845TIP3    H2 8500   0.508   4.038   1.819
 2846TIP3   OH2 8501   5.957   2.899   5.545
 2846TIP3    H1 8502   6.043   2.880   5.581
 2846TIP3    H2 8503   5.957   2.993   5.528
 2847TIP3   OH2 8504   2.084   4.415   5.208
 2847TIP3    H1 8505   2.129   4.493   5.240
 2847TIP3    H2 8506   2.085   4.423   5.113
 2848TIP3   OH2 8507   6.383   6.352   1.183
 2848TIP3    H1 8508   6.394   6.358   1.278
 2848TIP3    H2 8509   6.414   6.265   1.161
 2849TIP3   OH2 8510   3.956   0.706   3.598
 2849TIP3    H1 8511   3.985   0.716   3.507
 2849TIP3    H2 8512   4.035   0.677   3.644
 2850TIP3   OH2 8513   2.911   2.799   2.598
 2850TIP3    H1 8514   2.843   2.825   2.537
 2850TIP3    H2 8515   2.870   2.805   2.684
 2851TIP3   OH2 8516   1.366   6.329   2.289
 2851TIP3    H1 8517   1.419   6.322   2.209
 2851TIP3    H2 8518   1.280   6.356   2.258
 2852TIP3   OH2 8519   0.713   4.865   0.569
 2852TIP3    H1 8520   0.751   4.789   0.613
 2852TIP3    H2 8521   0.781   4.932   0.573
 2853TIP3   OH2 8522   5.607   2.032   2.443
 2853TIP3    H1 8523   5.682   1.972   2.442
 2853TIP3    H2 8524   5.644   2.116   2.468
 2854TIP3   OH2 8525  -0.030   4.169   3.965
 2854TIP3    H1 8526  -0.016   4.094   4.023
 2854TIP3    H2 8527   0.017   4.241   4.006
 2855TIP3   OH2 8528   1.287   6.328   4.308
 2855TIP3    H1 8529   1.273   6.268   4.381
 2855TIP3    H2 8530   1.219   6.304   4.245
 2856TIP3   OH2 8531   6.539   2.018   3.845
 2856TIP3    H1 8532   6.510   1.970   3.923
 2856TIP3    H2 8533   6.516   2.109   3.863
 2857TIP3   OH2 8534   3.163   4.932   2.405
 2857TIP3    H1 8535   3.096   4.868   2.378
 2857TIP3    H2 8536   3.168   4.994   2.332
 2858TIP3   OH2 8537   5.807   6.757   2.656
 2858TIP3    H1 8538   5.766   6.746   2.742
 2858TIP3    H2 8539   5.751   6.821   2.611
 2859TIP3   OH2 8540   0.059   3.114   5.686
 2859TIP3    H1 8541   0.064   3.204   5.653
 2859TIP3    H2 8542   0.151   3.087   5.696
 2860TIP3   OH2 8543   3.433   6.284   2.208
 2860TIP3    H1 8544   3.353   6.313   2.165
 2860TIP3    H2 8545   3.429   6.189   2.205
 2861TIP3   OH2 8546   2.006   2.094   4.331
 2861TIP3    H1 8547   1.961   2.087   4.247
 2861TIP3    H2 8548   1.975   2.019   4.381
 2862TIP3   OH2 8549   0.131   1.638   5.379
 2862TIP3    H1 8550   0.041   1.655   5.405
 2862TIP3    H2 8551   0.142   1.686   5.297
 2863TIP3   OH2 8552   3.617   2.749   1.131
 2863TIP3    H1 8553   3.564   2.829   1.133
 2863TIP3    H2 8554   3.697   2.774   1.085
 2864TIP3   OH2 8555   2.793   4.809   0.128
 2864TIP3    H1 8556   2.766   4.880   0.070
 2864TIP3    H2 8557   2.855   4.758   0.077
 2865TIP3   OH2 8558   3.241   3.153   3.990
 2865TIP3    H1 8559   3.286   3.073   3.965
 2865TIP3    H2 8560   3.148   3.134   3.974
 2866TIP3   OH2 8561   6.471   2.326   5.531
 2866TIP3    H1 8562   6.462   2.244   5.579
 2866TIP3    H2 8563   6.559   2.324   5.495
 2867TIP3   OH2 8564   6.173   3.396   0.350
 2867TIP3    H1 8565   6.110   3.364   0.415
 2867TIP3    H2 8566   6.242   3.436   0.403
 2868TIP3   OH2 8567   1.007   5.458   4.734
 2868TIP3    H1 8568   1.003   5.408   4.652
 2868TIP3    H2 8569   0.917   5.489   4.747
 2869TIP3   OH2 8570   6.054   5.758   4.690
 2869TIP3    H1 8571   6.129   5.712   4.653
 2869TIP3    H2 8572   5.979   5.704   4.666
 2870TIP3   OH2 8573   1.373   2.286   5.870
 2870TIP3    H1 8574   1.362   2.261   5.778
 2870TIP3    H2 8575   1.353   2.380   5.872
 2871TIP3   OH2 8576   1.544   2.782   5.583
 2871TIP3    H1 8577   1.496   2.701   5.601
 2871TIP3    H2 8578   1.606   2.758   5.515
 2872TIP3   OH2 8579   5.392   4.152   3.319
 2872TIP3    H1 8580   5.392   4.064   3.357
 2872TIP3    H2 8581   5.306   4.188   3.342
 2873TIP3   OH2 8582   6.840   0.750   1.617
 2873TIP3    H1 8583   6.768   0.809   1.640
 2873TIP3    H2 8584   6.797   0.678   1.570
 2874TIP3   OH2 8585   6.917   6.656   0.156
 2874TIP3    H1 8586   6.939   6.643   0.248
 2874TIP3    H2 8587   6.823   6.639   0.151
 2875TIP3   OH2 8588   4.248   1.921   4.833
 2875TIP3    H1 8589   4.291   1.935   4.749
 2875TIP3    H2 8590   4.318   1.894   4.892
 2876TIP3   OH2 8591   1.156   2.871   1.217
 2876TIP3    H1 8592   1.138   2.825   1.298
 2876TIP3    H2 8593   1.144   2.805   1.148
 2877TIP3   OH2 8594   3.994   4.617   1.391
 2877TIP3    H1 8595   3.943   4.576   1.322
 2877TIP3    H2 8596   4.083   4.620   1.356
 2878TIP3   OH2 8597   6.581   5.908   4.937
 2878TIP3    H1 8598   6.486   5.908   4.943
 2878TIP3    H2 8599   6.610   5.967   5.007
 2879TIP3   OH2 8600   4.035   2.920   5.378
 2879TIP3    H1 8601   4.059   3.012   5.365
 2879TIP3    H2 8602   4.119   2.873   5.373
 2880TIP3   OH2 8603   3.175   0.996   5.406
 2880TIP3    H1 8604   3.242   1.000   5.338
 2880TIP3    H2 8605   3.191   1.073   5.459
 2881TIP3   OH2 8606   0.175   0.267   0.630
 2881TIP3    H1 8607   0.175   0.294   0.722
 2881TIP3    H2 8608   0.096   0.214   0.621
 2882TIP3   OH2 8609   6.112   1.114   4.825
 2882TIP3    H1 8610   6.034   1.077   4.865
 2882TIP3    H2 8611   6.163   1.148   4.898
 2883TIP3   OH2 8612   4.504   5.616   5.037
 2883TIP3    H1 8613   4.494   5.697   4.987
 2883TIP3    H2 8614   4.426   5.612   5.093
 2884TIP3   OH2 8615   1.089   4.581   3.032
 2884TIP3    H1 8616   1.091   4.659   2.978
 2884TIP3    H2 8617   1.076   4.614   3.121
 2885TIP3   OH2 8618   3.066   4.997   4.384
 2885TIP3    H1 8619   3.100   4.952   4.306
 2885TIP3    H2 8620   3.018   5.072   4.349
 2886TIP3   OH2 8621   4.394   3.709   2.446
 2886TIP3    H1 8622   4.299   3.714   2.438
 2886TIP3    H2 8623   4.409   3.678   2.536
 2887TIP3   OH2 8624   4.760   0.714   2.315
 2887TIP3    H1 8625   4.779   0.620   2.320
 2887TIP3    H2 8626   4.724   0.727   2.227
 2888TIP3   OH2 8627   4.944   3.262   0.974
 2888TIP3    H1 8628   4.957   3.219   1.058
 2888TIP3    H2 8629   4.987   3.347   0.982
 2889TIP3   OH2 8630   4.177   3.570   1.617
 2889TIP3    H1 8631   4.174   3.665   1.617
 2889TIP3    H2 8632   4.200   3.547   1.707
 2890TIP3   OH2 8633   0.084   1.871   5.670
 2890TIP3    H1 8634   0.174   1.890   5.644
 2890TIP3    H2 8635   0.087   1.782   5.704
 2891TIP3   OH2 8636   0.370   1.533   0.262
 2891TIP3    H1 8637   0.373   1.622   0.227
 2891TIP3    H2 8638   0.412   1.479   0.195
 2892TIP3   OH2 8639   2.895   3.853   5.686
 2892TIP3    H1 8640   2.893   3.904   5.605
 2892TIP3    H2 8641   2.988   3.834   5.700
 2893TIP3   OH2 8642   2.340   3.177   1.956
 2893TIP3    H1 8643   2.259   3.227   1.970
 2893TIP3    H2 8644   2.324   3.129   1.874
 2894TIP3   OH2 8645   5.180   5.815   3.740
 2894TIP3    H1 8646   5.207   5.875   3.810
 2894TIP3    H2 8647   5.232   5.736   3.754
 2895TIP3   OH2 8648   6.442   6.440   2.829
 2895TIP3    H1 8649   6.530   6.421   2.861
 2895TIP3    H2 8650   6.440   6.534   2.816
 2896TIP3   OH2 8651   6.502   1.979   2.447
 2896TIP3    H1 8652   6.562   2.043   2.409
 2896TIP3    H2 8653   6.415   2.008   2.420
 2897TIP3   OH2 8654   4.202   2.624   5.492
 2897TIP3    H1 8655   4.212   2.636   5.398
 2897TIP3    H2 8656   4.108   2.624   5.506
 2898TIP3   OH2 8657   2.118   5.095   4.347
 2898TIP3    H1 8658   2.151   5.142   4.424
 2898TIP3    H2 8659   2.023   5.110   4.350
 2899TIP3   OH2 8660   2.219   5.655   1.107
 2899TIP3    H1 8661   2.140   5.611   1.076
 2899TIP3    H2 8662   2.212   5.653   1.203
 2900TIP3   OH2 8663   1.669   0.842   3.948
 2900TIP3    H1 8664   1.585   0.798   3.932
 2900TIP3    H2 8665   1.675   0.846   4.044
 2901TIP3   OH2 8666   3.443   5.109   3.025
 2901TIP3    H1 8667   3.358   5.116   3.068
 2901TIP3    H2 8668   3.443   5.022   2.986
 2902TIP3   OH2 8669   6.183   5.188   2.629
 2902TIP3    H1 8670   6.245   5.234   2.572
 2902TIP3    H2 8671   6.119   5.254   2.653
 2903TIP3   OH2 8672   6.837   3.272   4.052
 2903TIP3    H1 8673   6.917   3.298   4.006
 2903TIP3    H2 8674   6.768   3.324   4.012
 2904TIP3   OH2 8675   5.722   4.350   0.415
 2904TIP3    H1 8676   5.759   4.425   0.368
 2904TIP3    H2 8677   5.635   4.338   0.377
 2905TIP3   OH2 8678   2.622   4.634   0.242
 2905TIP3    H1 8679   2.682   4.701   0.211
 2905TIP3    H2 8680   2.612   4.652   0.336
 2906TIP3   OH2 8681   2.852   3.880   0.606
 2906TIP3    H1 8682   2.881   3.913   0.520
 2906TIP3    H2 8683   2.934   3.857   0.651
 2907TIP3   OH2 8684   3.065   2.382   3.592
 2907TIP3    H1 8685   3.128   2.320   3.628
 2907TIP3    H2 8686   3.119   2.454   3.558
 2908TIP3   OH2 8687   2.030   2.120   1.661
 2908TIP3    H1 8688   1.996   2.115   1.572
 2908TIP3    H2 8689   2.124   2.139   1.650
 2909TIP3   OH2 8690   4.127   1.776   2.586
 2909TIP3    H1 8691   4.163   1.757   2.672
 2909TIP3    H2 8692   4.201   1.768   2.526
 2910TIP3   OH2 8693   1.554   0.276   3.057
 2910TIP3    H1 8694   1.522   0.359   3.020
 2910TIP3    H2 8695   1.497   0.209   3.020
 2911TIP3   OH2 8696   4.617   2.352   1.597
 2911TIP3    H1 8697   4.569   2.380   1.674
 2911TIP3    H2 8698   4.659   2.431   1.564
 2912TIP3   OH2 8699   2.002   1.860   1.748
 2912TIP3    H1 8700   2.069   1.805   1.707
 2912TIP3    H2 8701   2.023   1.949   1.719
 2913TIP3   OH2 8702   1.556   5.242   2.702
 2913TIP3    H1 8703   1.502   5.205   2.632
 2913TIP3    H2 8704   1.536   5.335   2.701
 2914TIP3   OH2 8705   2.499   4.163   0.735
 2914TIP3    H1 8706   2.420   4.198   0.693
 2914TIP3    H2 8707   2.526   4.231   0.796
 2915TIP3   OH2 8708   4.114   5.399   2.076
 2915TIP3    H1 8709   4.076   5.357   1.998
 2915TIP3    H2 8710   4.062   5.479   2.087
 2916TIP3   OH2 8711   4.221   4.789   1.124
 2916TIP3    H1 8712   4.285   4.731   1.165
 2916TIP3    H2 8713   4.240   4.876   1.160
 2917TIP3   OH2 8714   6.143   6.356   3.122
 2917TIP3    H1 8715   6.112   6.361   3.212
 2917TIP3    H2 8716   6.168   6.264   3.111
 2918TIP3   OH2 8717   5.689   5.146   2.958
 2918TIP3    H1 8718   5.612   5.168   2.906
 2918TIP3    H2 8719   5.700   5.221   3.017
 2919TIP3   OH2 8720   0.102   2.755   1.859
 2919TIP3    H1 8721   0.195   2.777   1.854
 2919TIP3    H2 8722   0.071   2.799   1.938
 2920TIP3   OH2 8723   3.078   2.097   2.793
 2920TIP3    H1 8724   3.060   2.191   2.790
 2920TIP3    H2 8725   3.002   2.057   2.752
 2921TIP3   OH2 8726   4.748   1.207   1.690
 2921TIP3    H1 8727   4.706   1.177   1.609
 2921TIP3    H2 8728   4.734   1.302   1.691
 2922TIP3   OH2 8729   3.632   3.545   4.321
 2922TIP3    H1 8730   3.638   3.537   4.226
 2922TIP3    H2 8731   3.613   3.637   4.337
 2923TIP3   OH2 8732   3.761   3.533   5.530
 2923TIP3    H1 8733   3.829   3.591   5.564
 2923TIP3    H2 8734   3.680   3.568   5.565
 2924TIP3   OH2 8735   0.687   4.239   4.191
 2924TIP3    H1 8736   0.772   4.257   4.152
 2924TIP3    H2 8737   0.645   4.325   4.199
 2925TIP3   OH2 8738   2.299   0.258   2.728
 2925TIP3    H1 8739   2.363   0.220   2.667
 2925TIP3    H2 8740   2.303   0.203   2.805
 2926TIP3   OH2 8741   3.490   3.891   4.931
 2926TIP3    H1 8742   3.405   3.885   4.975
 2926TIP3    H2 8743   3.472   3.942   4.852
 2927TIP3   OH2 8744   4.823   1.916   2.013
 2927TIP3    H1 8745   4.731   1.895   1.996
 2927TIP3    H2 8746   4.850   1.851   2.078
 2928TIP3   OH2 8747   0.909   0.058   4.956
 2928TIP3    H1 8748   0.993   0.101   4.966
 2928TIP3    H2 8749   0.861   0.079   5.037
 2929TIP3   OH2 8750   6.216   4.561   3.970
 2929TIP3    H1 8751   6.310   4.570   3.980
 2929TIP3    H2 8752   6.195   4.479   4.016
 2930TIP3   OH2 8753   2.527   1.120   5.029
 2930TIP3    H1 8754   2.582   1.062   5.081
 2930TIP3    H2 8755   2.442   1.076   5.026
 2931TIP3   OH2 8756   1.570   0.495   2.101
 2931TIP3    H1 8757   1.540   0.416   2.147
 2931TIP3    H2 8758   1.664   0.500   2.119
 2932TIP3   OH2 8759   1.627   4.148   0.208
 2932TIP3    H1 8760   1.682   4.225   0.195
 2932TIP3    H2 8761   1.540   4.184   0.227
 2933TIP3   OH2 8762   2.621   6.601   5.869
 2933TIP3    H1 8763   2.696   6.587   5.812
 2933TIP3    H2 8764   2.595   6.692   5.853
 2934TIP3   OH2 8765   1.255   5.305   4.678
 2934TIP3    H1 8766   1.214   5.389   4.696
 2934TIP3    H2 8767   1.306   5.320   4.598
 2935TIP3   OH2 8768   6.815   5.177   0.643
 2935TIP3    H1 8769   6.900   5.146   0.671
 2935TIP3    H2 8770   6.789   5.241   0.709
 2936TIP3   OH2 8771   5.318   0.541   0.810
 2936TIP3    H1 8772   5.361   0.535   0.895
 2936TIP3    H2 8773   5.225   0.539   0.829
 2937TIP3   OH2 8774   2.020   4.023   5.843
 2937TIP3    H1 8775   2.052   4.067   5.764
 2937TIP3    H2 8776   2.075   3.946   5.852
 2938TIP3   OH2 8777   2.259   5.434   0.793
 2938TIP3    H1 8778   2.296   5.383   0.865
 2938TIP3    H2 8779   2.326   5.498   0.771
 2939TIP3   OH2 8780   5.540   3.429   5.855
 2939TIP3    H1 8781   5.570   3.373   5.927
 2939TIP3    H2 8782   5.616   3.435   5.797
 2940TIP3   OH2 8783   3.350   3.227   5.158
 2940TIP3    H1 8784   3.322   3.313   5.130
 2940TIP3    H2 8785   3.328   3.169   5.085
 2941TIP3   OH2 8786   2.994   2.764   3.265
 2941TIP3    H1 8787   3.083   2.741   3.236
 2941TIP3    H2 8788   3.007   2.799   3.353
 2942TIP3   OH2 8789   2.624   1.074   1.407
 2942TIP3    H1 8790   2.614   1.135   1.481
 2942TIP3    H2 8791   2.716   1.082   1.382
 2943TIP3   OH2 8792   0.140   1.210   0.118
 2943TIP3    H1 8793   0.167   1.289   0.072
 2943TIP3    H2 8794   0.122   1.239   0.207
 2944TIP3   OH2 8795   0.920   5.192   0.288
 2944TIP3    H1 8796   0.965   5.272   0.260
 2944TIP3    H2 8797   0.870   5.218   0.365
 2945TIP3   OH2 8798   4.390   5.634   5.289
 2945TIP3    H1 8799   4.322   5.630   5.356
 2945TIP3    H2 8800   4.426   5.722   5.296
 2946TIP3   OH2 8801   3.165   5.070   1.401
 2946TIP3    H1 8802   3.212   5.122   1.466
 2946TIP3    H2 8803   3.224   4.996   1.383
 2947TIP3   OH2 8804   6.434   2.881   1.167
 2947TIP3    H1 8805   6.486   2.826   1.225
 2947TIP3    H2 8806   6.464   2.970   1.186
 2948TIP3   OH2 8807   2.516   4.676   2.907
 2948TIP3    H1 8808   2.577   4.749   2.900
 2948TIP3    H2 8809   2.572   4.598   2.911
 2949TIP3   OH2 8810   6.963   6.116   0.352
 2949TIP3    H1 8811   6.977   6.085   0.262
 2949TIP3    H2 8812   6.937   6.207   0.342
 2950TIP3   OH2 8813   4.051   5.908   2.997
 2950TIP3    H1 8814   3.999   5.841   2.952
 2950TIP3    H2 8815   4.036   5.988   2.947
 2951TIP3   OH2 8816   1.397   6.274   1.753
 2951TIP3    H1 8817   1.326   6.248   1.812
 2951TIP3    H2 8818   1.379   6.226   1.672
 2952TIP3   OH2 8819   4.691   0.719   1.181
 2952TIP3    H1 8820   4.761   0.784   1.176
 2952TIP3    H2 8821   4.715   0.652   1.117
 2953TIP3   OH2 8822   6.285   5.705   1.509
 2953TIP3    H1 8823   6.257   5.614   1.516
 2953TIP3    H2 8824   6.291   5.736   1.599
 2954TIP3   OH2 8825   3.520   5.370   4.932
 2954TIP3    H1 8826   3.476   5.307   4.989
 2954TIP3    H2 8827   3.559   5.317   4.863
 2955TIP3   OH2 8828   5.425   3.290   3.988
 2955TIP3    H1 8829   5.427   3.265   4.081
 2955TIP3    H2 8830   5.478   3.369   3.983
 2956TIP3   OH2 8831   3.601   4.193   2.565
 2956TIP3    H1 8832   3.623   4.281   2.596
 2956TIP3    H2 8833   3.506   4.191   2.562
 2957TIP3   OH2 8834   5.230   3.953   5.217
 2957TIP3    H1 8835   5.186   3.987   5.294
 2957TIP3    H2 8836   5.310   4.006   5.210
 2958TIP3   OH2 8837   3.008   0.344   3.810
 2958TIP3    H1 8838   2.967   0.273   3.759
 2958TIP3    H2 8839   2.962   0.423   3.782
 2959TIP3   OH2 8840   3.508   0.213   4.010
 2959TIP3    H1 8841   3.491   0.122   3.983
 2959TIP3    H2 8842   3.497   0.211   4.105
 2960TIP3   OH2 8843   3.092   6.324   2.477
 2960TIP3    H1 8844   3.003   6.330   2.442
 2960TIP3    H2 8845   3.084   6.355   2.568
 2961TIP3   OH2 8846   3.497   3.938   3.911
 2961TIP3    H1 8847   3.420   3.886   3.886
 2961TIP3    H2 8848   3.494   4.014   3.854
 2962TIP3   OH2 8849   0.391   4.949   2.257
 2962TIP3    H1 8850   0.301   4.956   2.225
 2962TIP3    H2 8851   0.437   4.902   2.187
 2963TIP3   OH2 8852   4.469   3.715   3.799
 2963TIP3    H1 8853   4.528   3.697   3.727
 2963TIP3    H2 8854   4.482   3.808   3.818
 2964TIP3   OH2 8855   2.312   5.507   3.879
 2964TIP3    H1 8856   2.247   5.474   3.817
 2964TIP3    H2 8857   2.387   5.530   3.824
 2965TIP3   OH2 8858   0.828   6.456   3.247
 2965TIP3    H1 8859   0.885   6.394   3.202
 2965TIP3    H2 8860   0.851   6.541   3.210
 2966TIP3   OH2 8861   2.272   2.255   1.320
 2966TIP3    H1 8862   2.207   2.318   1.288
 2966TIP3    H2 8863   2.285   2.195   1.246
 2967TIP3   OH2 8864   2.632   1.305   4.304
 2967TIP3    H1 8865   2.557   1.247   4.321
 2967TIP3    H2 8866   2.648   1.349   4.387
 2968TIP3   OH2 8867   3.875   4.515   5.568
 2968TIP3    H1 8868   3.911   4.596   5.532
 2968TIP3    H2 8869   3.952   4.461   5.585
 2969TIP3   OH2 8870   6.641   3.042   4.749
 2969TIP3    H1 8871   6.560   3.058   4.702
 2969TIP3    H2 8872   6.702   3.010   4.682
 2970TIP3   OH2 8873   0.306   0.629   3.731
 2970TIP3    H1 8874   0.300   0.724   3.742
 2970TIP3    H2 8875   0.259   0.593   3.806
 2971TIP3   OH2 8876   2.311   6.648   4.217
 2971TIP3    H1 8877   2.299   6.732   4.261
 2971TIP3    H2 8878   2.379   6.665   4.152
 2972TIP3   OH2 8879   6.343   6.500   3.218
 2972TIP3    H1 8880   6.425   6.457   3.194
 2972TIP3    H2 8881   6.276   6.453   3.168
 2973TIP3   OH2 8882   4.005   2.997   3.397
 2973TIP3    H1 8883   4.092   3.004   3.358
 2973TIP3    H2 8884   4.017   3.020   3.489
 2974TIP3   OH2 8885   4.648   3.526   1.647
 2974TIP3    H1 8886   4.592   3.578   1.589
 2974TIP3    H2 8887   4.597   3.518   1.728
 2975TIP3   OH2 8888   3.516   3.321   3.841
 2975TIP3    H1 8889   3.528   3.279   3.755
 2975TIP3    H2 8890   3.485   3.250   3.898
 2976TIP3   OH2 8891   3.582   5.723   1.654
 2976TIP3    H1 8892   3.513   5.657   1.652
 2976TIP3    H2 8893   3.536   5.806   1.668
 2977TIP3   OH2 8894   7.209   3.827   1.317
 2977TIP3    H1 8895   7.117   3.800   1.315
 2977TIP3    H2 8896   7.257   3.755   1.276
 2978TIP3   OH2 8897   5.041   3.830   4.197
 2978TIP3    H1 8898   5.073   3.811   4.285
 2978TIP3    H2 8899   4.989   3.753   4.173
 2979TIP3   OH2 8900   6.310   5.510   5.713
 2979TIP3    H1 8901   6.280   5.465   5.635
 2979TIP3    H2 8902   6.310   5.443   5.781
 2980TIP3   OH2 8903   0.859   3.973   4.734
 2980TIP3    H1 8904   0.857   4.044   4.670
 2980TIP3    H2 8905   0.789   3.995   4.796
 2981TIP3   OH2 8906   5.441   3.831   3.606
 2981TIP3    H1 8907   5.402   3.746   3.624
 2981TIP3    H2 8908   5.530   3.825   3.643
 2982TIP3   OH2 8909   6.656   2.467   0.487
 2982TIP3    H1 8910   6.685   2.389   0.534
 2982TIP3    H2 8911   6.686   2.455   0.397
 2983TIP3   OH2 8912   7.180   3.527   1.798
 2983TIP3    H1 8913   7.100   3.516   1.747
 2983TIP3    H2 8914   7.248   3.548   1.734
 2984TIP3   OH2 8915   6.914   0.211   1.367
 2984TIP3    H1 8916   6.899   0.284   1.427
 2984TIP3    H2 8917   6.990   0.238   1.315
 2985TIP3   OH2 8918   2.660   0.364   2.035
 2985TIP3    H1 8919   2.649   0.270   2.051
 2985TIP3    H2 8920   2.571   0.399   2.035
 2986TIP3   OH2 8921   2.092   0.878   1.302
 2986TIP3    H1 8922   2.148   0.846   1.373
 2986TIP3    H2 8923   2.153   0.918   1.239
 2987TIP3   OH2 8924   0.198   1.099   5.788
 2987TIP3    H1 8925   0.149   1.061   5.862
 2987TIP3    H2 8926   0.285   1.116   5.824
 2988TIP3   OH2 8927   6.055   6.798   3.913
 2988TIP3    H1 8928   6.041   6.714   3.869
 2988TIP3    H2 8929   6.150   6.804   3.923
 2989TIP3   OH2 8930   3.947   3.340   2.645
 2989TIP3    H1 8931   4.039   3.368   2.642
 2989TIP3    H2 8932   3.951   3.245   2.633
 2990TIP3   OH2 8933   3.470   4.372   3.454
 2990TIP3    H1 8934   3.463   4.456   3.501
 2990TIP3    H2 8935   3.450   4.394   3.363
 2991TIP3   OH2 8936   0.905   2.779   0.799
 2991TIP3    H1 8937   0.838   2.821   0.852
 2991TIP3    H2 8938   0.952   2.723   0.861
 2992TIP3   OH2 8939   7.041   3.442   3.921
 2992TIP3    H1 8940   7.074   3.511   3.979
 2992TIP3    H2 8941   7.053   3.478   3.833
 2993TIP3   OH2 8942   1.140   5.131   1.534
 2993TIP3    H1 8943   1.078   5.134   1.606
 2993TIP3    H2 8944   1.221   5.099   1.574
 2994TIP3   OH2 8945   0.532   1.798   5.216
 2994TIP3    H1 8946   0.440   1.789   5.242
 2994TIP3    H2 8947   0.538   1.749   5.133
 2995TIP3   OH2 8948   5.548   3.127   4.565
 2995TIP3    H1 8949   5.577   3.098   4.478
 2995TIP3    H2 8950   5.628   3.131   4.617
 2996TIP3   OH2 8951   6.590   1.633   2.493
 2996TIP3    H1 8952   6.502   1.667   2.508
 2996TIP3    H2 8953   6.646   1.686   2.550
 2997TIP3   OH2 8954   2.960   5.093   1.051
 2997TIP3    H1 8955   2.867   5.114   1.061
 2997TIP3    H2 8956   3.005   5.156   1.108
 2998TIP3   OH2 8957   6.814   2.145   4.024
 2998TIP3    H1 8958   6.777   2.223   4.067
 2998TIP3    H2 8959   6.798   2.160   3.931
 2999TIP3   OH2 8960   0.903   6.689   3.113
 2999TIP3    H1 8961   0.994   6.715   3.098
 2999TIP3    H2 8962   0.852   6.759   3.073
 3000TIP3   OH2 8963   2.276   0.452   3.420
 3000TIP3    H1 8964   2.277   0.375   3.364
 3000TIP3    H2 8965   2.287   0.526   3.359
 3001TIP3   OH2 8966   0.101   2.617   0.154
 3001TIP3    H1 8967   0.083   2.707   0.179
 3001TIP3    H2 8968   0.196   2.608   0.163
 3002TIP3   OH2 8969   5.859   5.385   1.876
 3002TIP3    H1 8970   5.882   5.345   1.960
 3002TIP3    H2 8971   5.926   5.353   1.815
 3003TIP3   OH2 8972   4.965   5.560   0.343
 3003TIP3    H1 8973   4.902   5.632   0.340
 3003TIP3    H2 8974   5.029   5.580   0.276
 3004TIP3   OH2 8975   1.227   3.818   1.569
 3004TIP3    H1 8976   1.229   3.757   1.643
 3004TIP3    H2 8977   1.286   3.779   1.505
 3005TIP3   OH2 8978   3.663   6.398   2.066
 3005TIP3    H1 8979   3.623   6.358   2.143
 3005TIP3    H2 8980   3.633   6.344   1.993
 3006TIP3   OH2 8981   0.044   4.140   4.411
 3006TIP3    H1 8982  -0.012   4.191   4.470
 3006TIP3    H2 8983   0.100   4.089   4.469
 3007TIP3   OH2 8984   1.475   5.896   1.830
 3007TIP3    H1 8985   1.560   5.930   1.801
 3007TIP3    H2 8986   1.477   5.803   1.807
 3008TIP3   OH2 8987   6.047   1.207   1.872
 3008TIP3    H1 8988   6.034   1.214   1.777
 3008TIP3    H2 8989   6.107   1.277   1.894
 3009TIP3   OH2 8990   5.690   5.417   2.201
 3009TIP3    H1 8991   5.611   5.373   2.169
 3009TIP3    H2 8992   5.664   5.508   2.211
 3010TIP3   OH2 8993   0.473   1.087   4.858
 3010TIP3    H1 8994   0.431   1.166   4.822
 3010TIP3    H2 8995   0.529   1.055   4.788
 3011TIP3   OH2 8996   1.970   2.787   2.863
 3011TIP3    H1 8997   1.913   2.741   2.802
 3011TIP3    H2 8998   2.031   2.720   2.895
 3012TIP3   OH2 8999   1.349   2.883   3.002
 3012TIP3    H1 9000   1.423   2.863   2.944
 3012TIP3    H2 9001   1.322   2.798   3.036
 3013TIP3   OH2 9002   5.151   5.606   4.769
 3013TIP3    H1 9003   5.109   5.533   4.723
 3013TIP3    H2 9004   5.087   5.631   4.836
 3014TIP3   OH2 9005   1.574   3.290   3.319
 3014TIP3    H1 9006   1.552   3.271   3.410
 3014TIP3    H2 9007   1.510   3.355   3.292
 3015TIP3   OH2 9008   3.351   1.903   1.643
 3015TIP3    H1 9009   3.399   1.986   1.645
 3015TIP3    H2 9010   3.272   1.922   1.592
 3016TIP3   OH2 9011   4.397   1.889   5.061
 3016TIP3    H1 9012   4.366   1.958   5.120
 3016TIP3    H2 9013   4.458   1.838   5.114
 3017TIP3   OH2 9014   5.425   0.506   0.051
 3017TIP3    H1 9015   5.440   0.565  -0.023
 3017TIP3    H2 9016   5.471   0.425   0.027
 3018TIP3   OH2 9017   4.048   0.381   5.645
 3018TIP3    H1 9018   4.026   0.441   5.716
 3018TIP3    H2 9019   3.966   0.337   5.624
 3019TIP3   OH2 9020   1.831   1.535   3.820
 3019TIP3    H1 9021   1.911   1.484   3.804
 3019TIP3    H2 9022   1.809   1.572   3.734
 3020TIP3   OH2 9023   6.986   1.571   0.343
 3020TIP3    H1 9024   6.940   1.654   0.360
 3020TIP3    H2 9025   7.004   1.536   0.430
 3021TIP3   OH2 9026   3.786   2.483   1.977
 3021TIP3    H1 9027   3.772   2.533   1.896
 3021TIP3    H2 9028   3.878   2.496   1.998
 3022TIP3   OH2 9029   3.875   4.037   3.528
 3022TIP3    H1 9030   3.897   4.091   3.604
 3022TIP3    H2 9031   3.830   4.097   3.468
 3023TIP3   OH2 9032   1.182   0.526   5.741
 3023TIP3    H1 9033   1.217   0.556   5.657
 3023TIP3    H2 9034   1.152   0.437   5.724
 3024TIP3   OH2 9035   6.566   4.897   4.005
 3024TIP3    H1 9036   6.578   4.968   3.942
 3024TIP3    H2 9037   6.654   4.876   4.036
 3025TIP3   OH2 9038   5.310   2.153   4.162
 3025TIP3    H1 9039   5.334   2.062   4.176
 3025TIP3    H2 9040   5.324   2.167   4.068
 3026TIP3   OH2 9041   5.906   2.218   5.704
 3026TIP3    H1 9042   5.867   2.298   5.738
 3026TIP3    H2 9043   5.996   2.218   5.736
 3027TIP3   OH2 9044   0.453   2.356   5.228
 3027TIP3    H1 9045   0.365   2.322   5.244
 3027TIP3    H2 9046   0.456   2.373   5.134
 3028TIP3   OH2 9047   6.002   2.039   4.470
 3028TIP3    H1 9048   6.003   2.097   4.546
 3028TIP3    H2 9049   6.090   2.044   4.434
 3029TIP3   OH2 9050   3.154   1.651   1.097
 3029TIP3    H1 9051   3.197   1.588   1.039
 3029TIP3    H2 9052   3.080   1.603   1.134
 3030TIP3   OH2 9053   5.476   2.379   3.847
 3030TIP3    H1 9054   5.419   2.442   3.803
 3030TIP3    H2 9055   5.424   2.299   3.851
 3031TIP3   OH2 9056   6.849   3.913   2.549
 3031TIP3    H1 9057   6.818   3.920   2.458
 3031TIP3    H2 9058   6.942   3.892   2.540
 3032TIP3   OH2 9059   2.028   1.721   4.186
 3032TIP3    H1 9060   1.944   1.693   4.151
 3032TIP3    H2 9061   2.077   1.751   4.109
 3033TIP3   OH2 9062   4.566   0.151   1.402
 3033TIP3    H1 9063   4.625   0.075   1.397
 3033TIP3    H2 9064   4.614   0.220   1.356
 3034TIP3   OH2 9065   7.099   0.091   5.393
 3034TIP3    H1 9066   7.024   0.117   5.446
 3034TIP3    H2 9067   7.163   0.162   5.406
 3035TIP3   OH2 9068   0.256   4.862   5.624
 3035TIP3    H1 9069   0.338   4.822   5.596
 3035TIP3    H2 9070   0.280   4.917   5.699
 3036TIP3   OH2 9071   7.127   3.371   2.492
 3036TIP3    H1 9072   7.033   3.355   2.502
 3036TIP3    H2 9073   7.147   3.341   2.404
 3037TIP3   OH2 9074   6.134   0.330   0.305
 3037TIP3    H1 9075   6.140   0.426   0.314
 3037TIP3    H2 9076   6.127   0.316   0.211
 3038TIP3   OH2 9077   0.314   4.984   2.774
 3038TIP3    H1 9078   0.295   4.915   2.838
 3038TIP3    H2 9079   0.404   5.011   2.794
 3039TIP3   OH2 9080   7.244   0.744   3.865
 3039TIP3    H1 9081   7.155   0.722   3.893
 3039TIP3    H2 9082   7.295   0.665   3.883
 3040TIP3   OH2 9083   5.620   1.034   1.240
 3040TIP3    H1 9084   5.681   1.013   1.311
 3040TIP3    H2 9085   5.673   1.025   1.160
 3041TIP3   OH2 9086   0.524   4.928   3.315
 3041TIP3    H1 9087   0.482   4.861   3.369
 3041TIP3    H2 9088   0.510   5.010   3.364
 3042TIP3   OH2 9089   2.842   0.540   2.690
 3042TIP3    H1 9090   2.905   0.488   2.740
 3042TIP3    H2 9091   2.819   0.613   2.748
 3043TIP3   OH2 9092   1.784   1.352   2.497
 3043TIP3    H1 9093   1.837   1.342   2.417
 3043TIP3    H2 9094   1.847   1.369   2.566
 3044TIP3   OH2 9095   5.830   1.464   0.372
 3044TIP3    H1 9096   5.844   1.444   0.465
 3044TIP3    H2 9097   5.745   1.509   0.370
 3045TIP3   OH2 9098   1.042   6.363   5.073
 3045TIP3    H1 9099   0.967   6.304   5.081
 3045TIP3    H2 9100   1.055   6.398   5.161
 3046TIP3   OH2 9101   4.741   0.714   4.008
 3046TIP3    H1 9102   4.778   0.639   4.055
 3046TIP3    H2 9103   4.732   0.683   3.918
 3047TIP3   OH2 9104   3.642   6.759   2.517
 3047TIP3    H1 9105   3.659   6.853   2.523
 3047TIP3    H2 9106   3.607   6.735   2.603
 3048TIP3   OH2 9107   4.940   0.349   3.379
 3048TIP3    H1 9108   4.852   0.387   3.377
 3048TIP3    H2 9109   4.945   0.295   3.300
 3049TIP3   OH2 9110   3.921   0.305   4.212
 3049TIP3    H1 9111   3.870   0.386   4.220
 3049TIP3    H2 9112   3.983   0.308   4.284
 3050TIP3   OH2 9113   4.549   1.850   4.728
 3050TIP3    H1 9114   4.504   1.794   4.666
 3050TIP3    H2 9115   4.599   1.790   4.784
 3051TIP3   OH2 9116   4.491   2.116   5.281
 3051TIP3    H1 9117   4.470   2.160   5.363
 3051TIP3    H2 9118   4.582   2.089   5.291
 3052TIP3   OH2 9119   4.753   2.314   3.151
 3052TIP3    H1 9120   4.714   2.235   3.114
 3052TIP3    H2 9121   4.815   2.282   3.217
 3053TIP3   OH2 9122   2.813   6.300   5.290
 3053TIP3    H1 9123   2.741   6.305   5.353
 3053TIP3    H2 9124   2.805   6.380   5.238
 3054TIP3   OH2 9125   3.026   0.651   1.312
 3054TIP3    H1 9126   3.029   0.570   1.261
 3054TIP3    H2 9127   3.044   0.720   1.248
 3055TIP3   OH2 9128   4.886   3.302   4.568
 3055TIP3    H1 9129   4.955   3.300   4.635
 3055TIP3    H2 9130   4.804   3.305   4.617
 3056TIP3   OH2 9131   5.445   4.331   2.649
 3056TIP3    H1 9132   5.362   4.299   2.614
 3056TIP3    H2 9133   5.435   4.426   2.653
 3057TIP3   OH2 9134   2.193   3.433   3.668
 3057TIP3    H1 9135   2.287   3.419   3.661
 3057TIP3    H2 9136   2.154   3.369   3.607
 3058TIP3   OH2 9137   5.094   6.127   3.497
 3058TIP3    H1 9138   5.160   6.161   3.558
 3058TIP3    H2 9139   5.111   6.175   3.416
 3059TIP3   OH2 9140   0.651   5.156   1.282
 3059TIP3    H1 9141   0.700   5.118   1.209
 3059TIP3    H2 9142   0.707   5.227   1.314
 3060TIP3   OH2 9143   2.068   6.784   2.768
 3060TIP3    H1 9144   2.072   6.731   2.688
 3060TIP3    H2 9145   2.127   6.741   2.829
 3061TIP3   OH2 9146   6.326   2.944   0.190
 3061TIP3    H1 9147   6.403   2.911   0.235
 3061TIP3    H2 9148   6.296   2.871   0.135
 3062TIP3   OH2 9149   5.400   2.330   1.709
 3062TIP3    H1 9150   5.369   2.408   1.663
 3062TIP3    H2 9151   5.408   2.358   1.800
 3063TIP3   OH2 9152   4.548   0.297   2.041
 3063TIP3    H1 9153   4.583   0.225   1.990
 3063TIP3    H2 9154   4.455   0.301   2.017
 3064TIP3   OH2 9155   4.663   3.286   2.489
 3064TIP3    H1 9156   4.688   3.194   2.481
 3064TIP3    H2 9157   4.573   3.289   2.456
 3065TIP3   OH2 9158   0.387   4.720   3.412
 3065TIP3    H1 9159   0.448   4.648   3.427
 3065TIP3    H2 9160   0.355   4.742   3.500
 3066TIP3   OH2 9161   2.942   5.236   5.802
 3066TIP3    H1 9162   2.978   5.275   5.722
 3066TIP3    H2 9163   2.916   5.148   5.776
 3067TIP3   OH2 9164   6.272   0.966   2.104
 3067TIP3    H1 9165   6.324   1.037   2.065
 3067TIP3    H2 9166   6.209   1.011   2.160
 3068TIP3   OH2 9167   2.172   1.237   1.922
 3068TIP3    H1 9168   2.093   1.183   1.918
 3068TIP3    H2 9169   2.244   1.175   1.911
 3069TIP3   OH2 9170   5.481   3.544   4.088
 3069TIP3    H1 9171   5.554   3.516   4.143
 3069TIP3    H2 9172   5.404   3.530   4.143
 3070TIP3   OH2 9173   3.979   6.188   0.381
 3070TIP3    H1 9174   4.031   6.247   0.326
 3070TIP3    H2 9175   3.931   6.247   0.439
 3071TIP3   OH2 9176   6.125   5.026   0.784
 3071TIP3    H1 9177   6.084   5.112   0.791
 3071TIP3    H2 9178   6.084   4.986   0.707
 3072TIP3   OH2 9179   1.395   0.144   4.238
 3072TIP3    H1 9180   1.379   0.127   4.331
 3072TIP3    H2 9181   1.481   0.106   4.221
 3073TIP3   OH2 9182   6.252   4.721   5.058
 3073TIP3    H1 9183   6.248   4.651   4.993
 3073TIP3    H2 9184   6.314   4.690   5.123
 3074TIP3   OH2 9185   0.051   5.341   0.029
 3074TIP3    H1 9186   0.065   5.429  -0.007
 3074TIP3    H2 9187   0.103   5.340   0.110
 3075TIP3   OH2 9188   0.025   2.455   4.937
 3075TIP3    H1 9189   0.060   2.374   4.900
 3075TIP3    H2 9190  -0.056   2.470   4.888
 3076TIP3   OH2 9191   4.146   0.102   5.438
 3076TIP3    H1 9192   4.174   0.120   5.348
 3076TIP3    H2 9193   4.053   0.084   5.431
 3077TIP3   OH2 9194   5.262   4.827   1.506
 3077TIP3    H1 9195   5.304   4.749   1.542
 3077TIP3    H2 9196   5.328   4.866   1.449
 3078TIP3   OH2 9197   3.321   1.358   4.659
 3078TIP3    H1 9198   3.263   1.283   4.650
 3078TIP3    H2 9199   3.322   1.398   4.572
 3079TIP3   OH2 9200   2.046   1.633   5.724
 3079TIP3    H1 9201   1.962   1.628   5.770
 3079TIP3    H2 9202   2.055   1.725   5.699
 3080TIP3   OH2 9203   2.768   5.794   5.473
 3080TIP3    H1 9204   2.708   5.848   5.523
 3080TIP3    H2 9205   2.712   5.733   5.425
 3081TIP3   OH2 9206   6.957   1.655   3.291
 3081TIP3    H1 9207   7.030   1.703   3.251
 3081TIP3    H2 9208   6.947   1.696   3.377
 3082TIP3   OH2 9209   5.468   1.191   2.617
 3082TIP3    H1 9210   5.457   1.168   2.709
 3082TIP3    H2 9211   5.382   1.180   2.578
 3083TIP3   OH2 9212   4.949   4.031   3.057
 3083TIP3    H1 9213   4.881   4.022   3.124
 3083TIP3    H2 9214   4.903   4.013   2.975
 3084TIP3   OH2 9215   4.812   4.683   5.832
 3084TIP3    H1 9216   4.758   4.626   5.887
 3084TIP3    H2 9217   4.810   4.642   5.746
 3085TIP3   OH2 9218   4.829   1.072   2.198
 3085TIP3    H1 9219   4.795   1.047   2.112
 3085TIP3    H2 9220   4.863   1.161   2.186
 3086TIP3   OH2 9221   6.677   3.559   4.661
 3086TIP3    H1 9222   6.756   3.539   4.711
 3086TIP3    H2 9223   6.629   3.477   4.657
 3087TIP3   OH2 9224   5.032   5.048   5.080
 3087TIP3    H1 9225   5.116   5.094   5.074
 3087TIP3    H2 9226   4.969   5.115   5.106
 3088TIP3   OH2 9227   4.110   4.356   5.658
 3088TIP3    H1 9228   4.172   4.367   5.731
 3088TIP3    H2 9229   4.042   4.298   5.693
 3089TIP3   OH2 9230   4.233   4.370   2.559
 3089TIP3    H1 9231   4.277   4.313   2.497
 3089TIP3    H2 9232   4.140   4.366   2.533
 3090TIP3   OH2 9233   1.210   3.694   2.407
 3090TIP3    H1 9234   1.219   3.789   2.410
 3090TIP3    H2 9235   1.284   3.663   2.355
 3091TIP3   OH2 9236   4.731   2.662   1.782
 3091TIP3    H1 9237   4.741   2.570   1.807
 3091TIP3    H2 9238   4.658   2.693   1.836
 3092TIP3   OH2 9239   3.371   5.642   3.330
 3092TIP3    H1 9240   3.367   5.734   3.303
 3092TIP3    H2 9241   3.288   5.626   3.375
 3093TIP3   OH2 9242   0.594   1.278   0.562
 3093TIP3    H1 9243   0.509   1.320   0.555
 3093TIP3    H2 9244   0.653   1.334   0.512
 3094TIP3   OH2 9245   0.574   2.406   1.345
 3094TIP3    H1 9246   0.551   2.388   1.436
 3094TIP3    H2 9247   0.665   2.377   1.338
 3095TIP3   OH2 9248   6.489   6.118   0.572
 3095TIP3    H1 9249   6.559   6.060   0.541
 3095TIP3    H2 9250   6.509   6.203   0.532
 3096TIP3   OH2 9251   7.052   5.623   0.920
 3096TIP3    H1 9252   7.099   5.540   0.918
 3096TIP3    H2 9253   6.996   5.620   0.842
 3097TIP3   OH2 9254   7.201   0.997   3.639
 3097TIP3    H1 9255   7.109   0.969   3.643
 3097TIP3    H2 9256   7.204   1.057   3.564
 3098TIP3   OH2 9257   4.433   3.814   2.792
 3098TIP3    H1 9258   4.436   3.724   2.823
 3098TIP3    H2 9259   4.350   3.821   2.745
 3099TIP3   OH2 9260   3.755   6.123   5.288
 3099TIP3    H1 9261   3.733   6.037   5.254
 3099TIP3    H2 9262   3.723   6.123   5.378
 3100TIP3   OH2 9263   0.695   2.707   1.503
 3100TIP3    H1 9264   0.754   2.766   1.455
 3100TIP3    H2 9265   0.692   2.628   1.450
 3101TIP3   OH2 9266   3.522   2.635   3.141
 3101TIP3    H1 9267   3.478   2.562   3.186
 3101TIP3    H2 9268   3.602   2.598   3.106
 3102TIP3   OH2 9269   5.183   1.871   1.154
 3102TIP3    H1 9270   5.185   1.942   1.218
 3102TIP3    H2 9271   5.105   1.887   1.102
 3103TIP3   OH2 9272   3.622   2.767   4.922
 3103TIP3    H1 9273   3.647   2.857   4.940
 3103TIP3    H2 9274   3.529   2.763   4.944
 3104TIP3   OH2 9275   3.943   6.578   3.272
 3104TIP3    H1 9276   3.877   6.516   3.304
 3104TIP3    H2 9277   3.916   6.598   3.183
 3105TIP3   OH2 9278   1.020   6.125   4.743
 3105TIP3    H1 9279   1.093   6.141   4.803
 3105TIP3    H2 9280   0.945   6.109   4.799
 3106TIP3   OH2 9281   3.366   5.876   1.495
 3106TIP3    H1 9282   3.372   5.899   1.403
 3106TIP3    H2 9283   3.346   5.782   1.495
 3107TIP3   OH2 9284   2.489   1.434   1.154
 3107TIP3    H1 9285   2.538   1.497   1.102
 3107TIP3    H2 9286   2.546   1.415   1.229
 3108TIP3   OH2 9287   0.220   2.858   1.531
 3108TIP3    H1 9288   0.307   2.847   1.570
 3108TIP3    H2 9289   0.160   2.855   1.605
 3109TIP3   OH2 9290   2.260   0.959   1.095
 3109TIP3    H1 9291   2.340   0.953   1.147
 3109TIP3    H2 9292   2.253   1.051   1.071
 3110TIP3   OH2 9293   5.954   5.899   2.714
 3110TIP3    H1 9294   5.889   5.903   2.644
 3110TIP3    H2 9295   5.974   5.991   2.733
 3111TIP3   OH2 9296   2.927   2.517   3.012
 3111TIP3    H1 9297   2.856   2.469   3.054
 3111TIP3    H2 9298   3.002   2.506   3.071
 3112TIP3   OH2 9299   1.705   5.366   2.224
 3112TIP3    H1 9300   1.671   5.375   2.313
 3112TIP3    H2 9301   1.781   5.308   2.233
 3113TIP3   OH2 9302   6.299   5.407   4.251
 3113TIP3    H1 9303   6.381   5.403   4.301
 3113TIP3    H2 9304   6.254   5.326   4.272
 3114TIP3   OH2 9305   6.749   3.105   0.267
 3114TIP3    H1 9306   6.792   3.189   0.276
 3114TIP3    H2 9307   6.816   3.041   0.290
 3115TIP3   OH2 9308   6.861   6.357   0.353
 3115TIP3    H1 9309   6.869   6.441   0.399
 3115TIP3    H2 9310   6.814   6.379   0.272
 3116TIP3   OH2 9311   2.000   6.516   2.826
 3116TIP3    H1 9312   1.949   6.519   2.907
 3116TIP3    H2 9313   1.943   6.557   2.761
 3117TIP3   OH2 9314   5.175   3.522   5.461
 3117TIP3    H1 9315   5.085   3.553   5.462
 3117TIP3    H2 9316   5.227   3.597   5.432
 3118TIP3   OH2 9317   4.547   4.916   0.619
 3118TIP3    H1 9318   4.621   4.856   0.613
 3118TIP3    H2 9319   4.510   4.899   0.706
 3119TIP3   OH2 9320   3.167   0.553   1.814
 3119TIP3    H1 9321   3.149   0.640   1.779
 3119TIP3    H2 9322   3.212   0.508   1.743
 3120TIP3   OH2 9323   4.291   2.275   3.643
 3120TIP3    H1 9324   4.272   2.349   3.586
 3120TIP3    H2 9325   4.217   2.270   3.703
 3121TIP3   OH2 9326   4.013   1.339   0.915
 3121TIP3    H1 9327   4.051   1.427   0.920
 3121TIP3    H2 9328   4.082   1.281   0.945
 3122TIP3   OH2 9329   0.797   5.387   3.348
 3122TIP3    H1 9330   0.786   5.419   3.438
 3122TIP3    H2 9331   0.708   5.383   3.314
 3123TIP3   OH2 9332   3.569   5.794   0.214
 3123TIP3    H1 9333   3.503   5.761   0.275
 3123TIP3    H2 9334   3.651   5.753   0.243
 3124TIP3   OH2 9335   5.969   3.838   4.526
 3124TIP3    H1 9336   5.977   3.749   4.491
 3124TIP3    H2 9337   5.916   3.885   4.461
 3125TIP3   OH2 9338   0.180   0.618   2.693
 3125TIP3    H1 9339   0.160   0.613   2.599
 3125TIP3    H2 9340   0.152   0.534   2.728
 3126TIP3   OH2 9341   1.361   6.000   4.306
 3126TIP3    H1 9342   1.347   5.917   4.261
 3126TIP3    H2 9343   1.431   5.981   4.369
 3127TIP3   OH2 9344   1.172   3.045   4.714
 3127TIP3    H1 9345   1.147   3.002   4.632
 3127TIP3    H2 9346   1.136   3.134   4.707
 3128TIP3   OH2 9347   1.104   5.707   5.378
 3128TIP3    H1 9348   1.032   5.645   5.368
 3128TIP3    H2 9349   1.072   5.788   5.340
 3129TIP3   OH2 9350   6.871   1.907   1.516
 3129TIP3    H1 9351   6.820   1.956   1.452
 3129TIP3    H2 9352   6.882   1.967   1.589
 3130TIP3   OH2 9353   5.629   1.324   5.406
 3130TIP3    H1 9354   5.694   1.265   5.368
 3130TIP3    H2 9355   5.545   1.282   5.389
 3131TIP3   OH2 9356   3.162   6.164   0.732
 3131TIP3    H1 9357   3.207   6.244   0.758
 3131TIP3    H2 9358   3.224   6.093   0.752
 3132TIP3   OH2 9359   6.214   1.365   0.883
 3132TIP3    H1 9360   6.193   1.442   0.935
 3132TIP3    H2 9361   6.305   1.345   0.906
 3133TIP3   OH2 9362   5.642   6.451   5.700
 3133TIP3    H1 9363   5.604   6.425   5.784
 3133TIP3    H2 9364   5.705   6.520   5.722
 3134TIP3   OH2 9365   1.933   2.034   0.499
 3134TIP3    H1 9366   1.922   2.109   0.557
 3134TIP3    H2 9367   1.944   2.072   0.412
 3135TIP3   OH2 9368   6.464   3.621   1.983
 3135TIP3    H1 9369   6.545   3.660   2.016
 3135TIP3    H2 9370   6.481   3.605   1.891
 3136TIP3   OH2 9371   0.047   4.794   3.329
 3136TIP3    H1 9372   0.077   4.737   3.258
 3136TIP3    H2 9373   0.001   4.736   3.389
 3137TIP3   OH2 9374   0.702   3.853   1.745
 3137TIP3    H1 9375   0.746   3.768   1.755
 3137TIP3    H2 9376   0.710   3.873   1.652
 3138TIP3   OH2 9377   6.215   0.517   2.786
 3138TIP3    H1 9378   6.229   0.564   2.704
 3138TIP3    H2 9379   6.121   0.501   2.789
 3139TIP3   OH2 9380   4.654   1.104   0.660
 3139TIP3    H1 9381   4.638   1.156   0.738
 3139TIP3    H2 9382   4.589   1.134   0.597
 3140TIP3   OH2 9383   4.307   5.271   3.606
 3140TIP3    H1 9384   4.279   5.295   3.694
 3140TIP3    H2 9385   4.228   5.234   3.565
 3141TIP3   OH2 9386   1.982   5.625   2.634
 3141TIP3    H1 9387   2.010   5.550   2.582
 3141TIP3    H2 9388   1.890   5.637   2.611
 3142TIP3   OH2 9389   1.207   6.363   0.938
 3142TIP3    H1 9390   1.195   6.439   0.881
 3142TIP3    H2 9391   1.302   6.352   0.945
 3143TIP3   OH2 9392   3.747   1.056   0.730
 3143TIP3    H1 9393   3.680   0.995   0.761
 3143TIP3    H2 9394   3.700   1.117   0.673
 3144TIP3   OH2 9395   6.495   1.887   1.522
 3144TIP3    H1 9396   6.524   1.978   1.524
 3144TIP3    H2 9397   6.451   1.875   1.607
 3145TIP3   OH2 9398   6.897   3.157   2.929
 3145TIP3    H1 9399   6.928   3.243   2.958
 3145TIP3    H2 9400   6.963   3.129   2.865
 3146TIP3   OH2 9401   0.823   2.976   1.331
 3146TIP3    H1 9402   0.911   2.942   1.350
 3146TIP3    H2 9403   0.799   3.025   1.409
 3147TIP3   OH2 9404   6.922   5.642   2.480
 3147TIP3    H1 9405   6.918   5.704   2.553
 3147TIP3    H2 9406   6.839   5.594   2.486
 3148TIP3   OH2 9407   3.470   4.791   4.845
 3148TIP3    H1 9408   3.467   4.857   4.914
 3148TIP3    H2 9409   3.415   4.720   4.877
 3149TIP3   OH2 9410   6.183   4.039   5.063
 3149TIP3    H1 9411   6.214   4.077   4.981
 3149TIP3    H2 9412   6.103   4.087   5.084
 3150TIP3   OH2 9413   2.066  -0.018   4.173
 3150TIP3    H1 9414   2.005   0.026   4.232
 3150TIP3    H2 9415   2.145   0.036   4.175
 3151TIP3   OH2 9416   3.143   2.800   5.121
 3151TIP3    H1 9417   3.153   2.857   5.198
 3151TIP3    H2 9418   3.054   2.765   5.129
 3152TIP3   OH2 9419   0.967   4.301   1.798
 3152TIP3    H1 9420   0.993   4.323   1.708
 3152TIP3    H2 9421   0.913   4.375   1.826
 3153TIP3   OH2 9422   0.567   6.054   0.346
 3153TIP3    H1 9423   0.603   6.009   0.269
 3153TIP3    H2 9424   0.616   6.018   0.420
 3154TIP3   OH2 9425   1.047   1.379   0.518
 3154TIP3    H1 9426   1.038   1.341   0.605
 3154TIP3    H2 9427   0.995   1.460   0.521
 3155TIP3   OH2 9428   2.715   0.954   5.168
 3155TIP3    H1 9429   2.733   0.861   5.150
 3155TIP3    H2 9430   2.799   0.997   5.156
 3156TIP3   OH2 9431   1.233   6.133   3.771
 3156TIP3    H1 9432   1.139   6.139   3.751
 3156TIP3    H2 9433   1.241   6.172   3.857
 3157TIP3   OH2 9434   4.715   6.622   5.401
 3157TIP3    H1 9435   4.691   6.715   5.395
 3157TIP3    H2 9436   4.645   6.576   5.354
 3158TIP3   OH2 9437   5.765   3.191   1.781
 3158TIP3    H1 9438   5.697   3.126   1.767
 3158TIP3    H2 9439   5.847   3.142   1.773
 3159TIP3   OH2 9440   0.732   3.771   4.402
 3159TIP3    H1 9441   0.729   3.867   4.399
 3159TIP3    H2 9442   0.705   3.743   4.314
 3160TIP3   OH2 9443   0.831   0.934   2.732
 3160TIP3    H1 9444   0.800   0.998   2.668
 3160TIP3    H2 9445   0.808   0.972   2.817
 3161TIP3   OH2 9446   6.680   5.498   5.377
 3161TIP3    H1 9447   6.666   5.563   5.308
 3161TIP3    H2 9448   6.646   5.417   5.339
 3162TIP3   OH2 9449   6.032   2.923   2.727
 3162TIP3    H1 9450   5.979   2.865   2.782
 3162TIP3    H2 9451   5.983   3.006   2.725
 3163TIP3   OH2 9452   0.734   2.847   4.641
 3163TIP3    H1 9453   0.813   2.896   4.664
 3163TIP3    H2 9454   0.747   2.761   4.681
 3164TIP3   OH2 9455   1.934   2.564   2.016
 3164TIP3    H1 9456   1.865   2.629   2.004
 3164TIP3    H2 9457   1.887   2.481   2.022
 3165TIP3   OH2 9458   3.680   0.711   0.124
 3165TIP3    H1 9459   3.723   0.677   0.046
 3165TIP3    H2 9460   3.635   0.636   0.162
 3166TIP3   OH2 9461   1.337   5.688   2.587
 3166TIP3    H1 9462   1.260   5.739   2.561
 3166TIP3    H2 9463   1.316   5.599   2.558
 3167TIP3   OH2 9464   2.306   0.030   1.757
 3167TIP3    H1 9465   2.337  -0.056   1.783
 3167TIP3    H2 9466   2.360   0.092   1.807
 3168TIP3   OH2 9467   3.376   2.661   1.026
 3168TIP3    H1 9468   3.463   2.671   1.063
 3168TIP3    H2 9469   3.341   2.583   1.070
 3169TIP3   OH2 9470   2.022   1.432   5.413
 3169TIP3    H1 9471   2.085   1.401   5.478
 3169TIP3    H2 9472   2.056   1.517   5.386
 3170TIP3   OH2 9473   5.427   3.769   1.363
 3170TIP3    H1 9474   5.460   3.843   1.413
 3170TIP3    H2 9475   5.413   3.804   1.275
 3171TIP3   OH2 9476   1.251   1.383   1.683
 3171TIP3    H1 9477   1.162   1.402   1.651
 3171TIP3    H2 9478   1.248   1.400   1.777
 3172TIP3   OH2 9479   2.064   2.448   4.638
 3172TIP3    H1 9480   2.084   2.400   4.557
 3172TIP3    H2 9481   2.141   2.502   4.653
 3173TIP3   OH2 9482   4.104   2.477   1.286
 3173TIP3    H1 9483   4.051   2.439   1.216
 3173TIP3    H2 9484   4.184   2.506   1.243
 3174TIP3   OH2 9485   3.513   2.504   3.489
 3174TIP3    H1 9486   3.500   2.565   3.562
 3174TIP3    H2 9487   3.597   2.530   3.450
 3175TIP3   OH2 9488   6.268   4.924   2.766
 3175TIP3    H1 9489   6.328   4.941   2.693
 3175TIP3    H2 9490   6.187   4.967   2.740
 3176TIP3   OH2 9491   1.992   3.513   0.647
 3176TIP3    H1 9492   1.913   3.460   0.658
 3176TIP3    H2 9493   2.053   3.478   0.712
 3177TIP3   OH2 9494   4.056   0.048   1.651
 3177TIP3    H1 9495   3.967   0.014   1.653
 3177TIP3    H2 9496   4.086   0.043   1.742
 3178TIP3   OH2 9497   4.084   4.457   0.379
 3178TIP3    H1 9498   4.054   4.444   0.289
 3178TIP3    H2 9499   4.004   4.450   0.432
 3179TIP3   OH2 9500   0.592   4.045   0.403
 3179TIP3    H1 9501   0.523   3.980   0.393
 3179TIP3    H2 9502   0.547   4.129   0.401
 3180TIP3   OH2 9503   2.934   4.226   3.954
 3180TIP3    H1 9504   2.875   4.155   3.928
 3180TIP3    H2 9505   2.957   4.205   4.045
 3181TIP3   OH2 9506   5.545   2.517   4.424
 3181TIP3    H1 9507   5.555   2.603   4.465
 3181TIP3    H2 9508   5.507   2.536   4.338
 3182TIP3   OH2 9509   4.585   5.224   2.754
 3182TIP3    H1 9510   4.494   5.217   2.725
 3182TIP3    H2 9511   4.633   5.167   2.694
 3183TIP3   OH2 9512   2.972   5.377   0.233
 3183TIP3    H1 9513   3.020   5.314   0.180
 3183TIP3    H2 9514   2.880   5.350   0.225
 3184TIP3   OH2 9515   1.862   3.025  -0.003
 3184TIP3    H1 9516   1.790   3.083  -0.029
 3184TIP3    H2 9517   1.822   2.965   0.060
 3185TIP3   OH2 9518   6.479   6.039   3.735
 3185TIP3    H1 9519   6.567   6.076   3.740
 3185TIP3    H2 9520   6.490   5.947   3.757
 3186TIP3   OH2 9521   2.951   2.343   4.797
 3186TIP3    H1 9522   3.031   2.389   4.824
 3186TIP3    H2 9523   2.880   2.394   4.835
 3187TIP3   OH2 9524   6.871   6.039   2.561
 3187TIP3    H1 9525   6.946   5.982   2.578
 3187TIP3    H2 9526   6.806   5.982   2.521
 3188TIP3   OH2 9527   1.509   1.562   5.497
 3188TIP3    H1 9528   1.588   1.568   5.444
 3188TIP3    H2 9529   1.494   1.652   5.528
 3189TIP3   OH2 9530   6.999   6.316   3.996
 3189TIP3    H1 9531   7.016   6.397   4.044
 3189TIP3    H2 9532   7.024   6.246   4.057
 3190TIP3   OH2 9533   4.874   4.646   5.408
 3190TIP3    H1 9534   4.942   4.582   5.385
 3190TIP3    H2 9535   4.898   4.725   5.361
 3191TIP3   OH2 9536   0.937   6.792   1.682
 3191TIP3    H1 9537   0.957   6.705   1.649
 3191TIP3    H2 9538   1.021   6.839   1.681
 3192TIP3   OH2 9539   4.256   0.739   5.106
 3192TIP3    H1 9540   4.201   0.765   5.032
 3192TIP3    H2 9541   4.314   0.672   5.069
 3193TIP3   OH2 9542   4.791   2.919   5.212
 3193TIP3    H1 9543   4.813   2.885   5.125
 3193TIP3    H2 9544   4.746   3.002   5.195
 3194TIP3   OH2 9545   3.743   1.761   0.933
 3194TIP3    H1 9546   3.648   1.762   0.941
 3194TIP3    H2 9547   3.761   1.686   0.876
 3195TIP3   OH2 9548   5.166   5.246   4.050
 3195TIP3    H1 9549   5.154   5.336   4.081
 3195TIP3    H2 9550   5.179   5.255   3.956
 3196TIP3   OH2 9551   0.211   6.114   3.317
 3196TIP3    H1 9552   0.240   6.184   3.259
 3196TIP3    H2 9553   0.287   6.057   3.327
 3197TIP3   OH2 9554   6.655   1.436   5.470
 3197TIP3    H1 9555   6.711   1.460   5.543
 3197TIP3    H2 9556   6.604   1.515   5.452
 3198TIP3   OH2 9557   0.825   4.874   0.166
 3198TIP3    H1 9558   0.816   4.949   0.107
 3198TIP3    H2 9559   0.785   4.904   0.248
 3199TIP3   OH2 9560   6.063   3.055   4.479
 3199TIP3    H1 9561   6.152   3.057   4.443
 3199TIP3    H2 9562   6.008   3.080   4.405
 3200TIP3   OH2 9563   2.269   2.702   1.886
 3200TIP3    H1 9564   2.235   2.633   1.944
 3200TIP3    H2 9565   2.289   2.775   1.945
 3201TIP3   OH2 9566   4.991   2.906   4.538
 3201TIP3    H1 9567   5.071   2.873   4.497
 3201TIP3    H2 9568   5.020   2.982   4.587
 3202TIP3   OH2 9569   3.699   1.928   5.202
 3202TIP3    H1 9570   3.775   1.984   5.186
 3202TIP3    H2 9571   3.666   1.907   5.115
 3203TIP3   OH2 9572   1.021   2.573   2.812
 3203TIP3    H1 9573   1.007   2.580   2.907
 3203TIP3    H2 9574   1.116   2.568   2.802
 3204TIP3   OH2 9575   0.569   6.158   4.970
 3204TIP3    H1 9576   0.537   6.068   4.963
 3204TIP3    H2 9577   0.496   6.212   4.940
 3205TIP3   OH2 9578   1.533   2.256   1.556
 3205TIP3    H1 9579   1.561   2.195   1.488
 3205TIP3    H2 9580   1.442   2.232   1.574
 3206TIP3   OH2 9581   1.931   2.676   4.708
 3206TIP3    H1 9582   1.974   2.707   4.628
 3206TIP3    H2 9583   1.961   2.586   4.717
 3207TIP3   OH2 9584   0.672   0.716   0.862
 3207TIP3    H1 9585   0.722   0.726   0.943
 3207TIP3    H2 9586   0.736   0.722   0.792
 3208TIP3   OH2 9587   5.899   1.952   5.629
 3208TIP3    H1 9588   5.898   2.045   5.653
 3208TIP3    H2 9589   5.898   1.905   5.712
 3209TIP3   OH2 9590   6.026   0.221  -0.001
 3209TIP3    H1 9591   6.005   0.152   0.061
 3209TIP3    H2 9592   6.078   0.178  -0.069
 3210TIP3   OH2 9593   6.699   2.421   5.872
 3210TIP3    H1 9594   6.767   2.363   5.838
 3210TIP3    H2 9595   6.669   2.471   5.796
 3211TIP3   OH2 9596   1.648   1.790   5.000
 3211TIP3    H1 9597   1.742   1.795   5.016
 3211TIP3    H2 9598   1.635   1.836   4.917
 3212TIP3   OH2 9599   1.980   6.302   3.697
 3212TIP3    H1 9600   1.913   6.343   3.642
 3212TIP3    H2 9601   1.968   6.342   3.783
 3213TIP3   OH2 9602   1.895   3.343   0.130
 3213TIP3    H1 9603   1.974   3.350   0.184
 3213TIP3    H2 9604   1.834   3.405   0.168
 3214TIP3   OH2 9605   6.795   1.566   3.635
 3214TIP3    H1 9606   6.851   1.625   3.584
 3214TIP3    H2 9607   6.827   1.478   3.613
 3215TIP3   OH2 9608   3.527   5.691   0.535
 3215TIP3    H1 9609   3.471   5.620   0.503
 3215TIP3    H2 9610   3.470   5.742   0.592
 3216TIP3   OH2 9611   6.289   2.576   3.264
 3216TIP3    H1 9612   6.347   2.519   3.315
 3216TIP3    H2 9613   6.224   2.517   3.227
 3217TIP3   OH2 9614   3.385   2.148   0.949
 3217TIP3    H1 9615   3.365   2.157   0.856
 3217TIP3    H2 9616   3.300   2.144   0.992
 3218TIP3   OH2 9617   3.777   3.515   0.649
 3218TIP3    H1 9618   3.728   3.521   0.731
 3218TIP3    H2 9619   3.860   3.559   0.667
 3219TIP3   OH2 9620   1.152   4.762   3.928
 3219TIP3    H1 9621   1.211   4.835   3.912
 3219TIP3    H2 9622   1.209   4.690   3.955
 3220TIP3   OH2 9623   0.087   3.396   4.261
 3220TIP3    H1 9624   0.009   3.340   4.262
 3220TIP3    H2 9625   0.129   3.380   4.345
 3221TIP3   OH2 9626   3.931   5.480   3.662
 3221TIP3    H1 9627   3.916   5.457   3.570
 3221TIP3    H2 9628   3.977   5.405   3.698
 3222TIP3   OH2 9629   5.416   5.115   0.410
 3222TIP3    H1 9630   5.432   5.189   0.350
 3222TIP3    H2 9631   5.428   5.152   0.497
 3223TIP3   OH2 9632   2.380   4.229   2.558
 3223TIP3    H1 9633   2.428   4.216   2.640
 3223TIP3    H2 9634   2.291   4.252   2.585
 3224TIP3   OH2 9635   4.708   5.125   4.576
 3224TIP3    H1 9636   4.621   5.097   4.548
 3224TIP3    H2 9637   4.722   5.081   4.659
 3225TIP3   OH2 9638   0.219   5.300   4.340
 3225TIP3    H1 9639   0.286   5.338   4.396
 3225TIP3    H2 9640   0.137   5.314   4.387
 3226TIP3   OH2 9641   4.506   5.499   1.102
 3226TIP3    H1 9642   4.492   5.563   1.032
 3226TIP3    H2 9643   4.596   5.470   1.090
 3227TIP3   OH2 9644   2.838   2.773   0.930
 3227TIP3    H1 9645   2.882   2.738   1.007
 3227TIP3    H2 9646   2.817   2.863   0.954
 3228TIP3   OH2 9647   4.707   6.287   4.026
 3228TIP3    H1 9648   4.802   6.298   4.017
 3228TIP3    H2 9649   4.687   6.208   3.977
 3229TIP3   OH2 9650   4.815   6.254   1.671
 3229TIP3    H1 9651   4.820   6.338   1.625
 3229TIP3    H2 9652   4.729   6.254   1.713
 3230TIP3   OH2 9653   6.743   5.419   0.122
 3230TIP3    H1 9654   6.792   5.347   0.162
 3230TIP3    H2 9655   6.718   5.386   0.036
 3231TIP3   OH2 9656   4.860   0.965   5.295
 3231TIP3    H1 9657   4.868   0.958   5.200
 3231TIP3    H2 9658   4.770   0.938   5.313
 3232TIP3   OH2 9659   6.319   1.208   1.128
 3232TIP3    H1 9660   6.378   1.243   1.195
 3232TIP3    H2 9661   6.250   1.164   1.177
 3233TIP3   OH2 9662   4.867   6.437   4.494
 3233TIP3    H1 9663   4.919   6.359   4.511
 3233TIP3    H2 9664   4.928   6.510   4.505
 3234TIP3   OH2 9665   3.367   1.376   2.210
 3234TIP3    H1 9666   3.443   1.337   2.168
 3234TIP3    H2 9667   3.394   1.393   2.300
 3235TIP3   OH2 9668   4.049   0.015   4.491
 3235TIP3    H1 9669   3.993   0.030   4.567
 3235TIP3    H2 9670   4.094  -0.067   4.511
 3236TIP3   OH2 9671   0.842   3.779   5.140
 3236TIP3    H1 9672   0.877   3.865   5.119
 3236TIP3    H2 9673   0.893   3.719   5.086
 3237TIP3   OH2 9674   3.832   5.602   1.657
 3237TIP3    H1 9675   3.748   5.647   1.663
 3237TIP3    H2 9676   3.851   5.599   1.564
 3238TIP3   OH2 9677   2.757   4.866   5.697
 3238TIP3    H1 9678   2.709   4.814   5.632
 3238TIP3    H2 9679   2.703   4.943   5.710
 3239TIP3   OH2 9680   2.158   2.858   2.444
 3239TIP3    H1 9681   2.079   2.860   2.390
 3239TIP3    H2 9682   2.173   2.949   2.467
 3240TIP3   OH2 9683   3.119   4.408   0.265
 3240TIP3    H1 9684   3.141   4.494   0.231
 3240TIP3    H2 9685   3.203   4.365   0.279
 3241TIP3   OH2 9686   6.724   2.184   0.075
 3241TIP3    H1 9687   6.785   2.185   0.001
 3241TIP3    H2 9688   6.667   2.109   0.058
 3242TIP3   OH2 9689   0.296   4.213   4.304
 3242TIP3    H1 9690   0.267   4.190   4.216
 3242TIP3    H2 9691   0.216   4.239   4.350
 3243TIP3   OH2 9692   5.310   0.583   5.513
 3243TIP3    H1 9693   5.260   0.646   5.461
 3243TIP3    H2 9694   5.273   0.590   5.601
 3244TIP3   OH2 9695   1.771   5.011   0.023
 3244TIP3    H1 9696   1.750   4.939   0.082
 3244TIP3    H2 9697   1.847   4.981  -0.027
 3245TIP3   OH2 9698   3.326   5.513   4.307
 3245TIP3    H1 9699   3.370   5.589   4.345
 3245TIP3    H2 9700   3.315   5.535   4.215
 3246TIP3   OH2 9701   3.453   5.137   3.665
 3246TIP3    H1 9702   3.478   5.169   3.752
 3246TIP3    H2 9703   3.399   5.208   3.628
 3247TIP3   OH2 9704   1.867   4.676   0.839
 3247TIP3    H1 9705   1.893   4.601   0.893
 3247TIP3    H2 9706   1.780   4.701   0.873
 3248TIP3   OH2 9707   6.717   1.288   1.829
 3248TIP3    H1 9708   6.793   1.286   1.888
 3248TIP3    H2 9709   6.642   1.292   1.887
 3249TIP3   OH2 9710   3.904   3.766   1.758
 3249TIP3    H1 9711   3.885   3.682   1.801
 3249TIP3    H2 9712   3.908   3.829   1.830
 3250TIP3   OH2 9713   6.989   4.485   2.696
 3250TIP3    H1 9714   7.012   4.421   2.764
 3250TIP3    H2 9715   7.070   4.496   2.646
 3251TIP3   OH2 9716   4.676   5.679   5.562
 3251TIP3    H1 9717   4.617   5.733   5.613
 3251TIP3    H2 9718   4.690   5.728   5.481
 3252TIP3   OH2 9719   5.638   2.209   0.964
 3252TIP3    H1 9720   5.707   2.273   0.944
 3252TIP3    H2 9721   5.677   2.153   1.031
 3253TIP3   OH2 9722   6.296   5.116   4.319
 3253TIP3    H1 9723   6.208   5.119   4.281
 3253TIP3    H2 9724   6.352   5.094   4.245
 3254TIP3   OH2 9725   4.714   6.259   2.667
 3254TIP3    H1 9726   4.746   6.170   2.674
 3254TIP3    H2 9727   4.735   6.300   2.751
 3255TIP3   OH2 9728   4.580   3.619   4.856
 3255TIP3    H1 9729   4.495   3.624   4.813
 3255TIP3    H2 9730   4.643   3.633   4.786
 3256TIP3   OH2 9731   5.846   6.152   2.876
 3256TIP3    H1 9732   5.891   6.162   2.792
 3256TIP3    H2 9733   5.809   6.239   2.894
 3257TIP3   OH2 9734   0.989   5.903   5.244
 3257TIP3    H1 9735   0.943   5.870   5.167
 3257TIP3    H2 9736   0.932   5.972   5.278
 3258TIP3   OH2 9737   4.143   3.849   2.206
 3258TIP3    H1 9738   4.153   3.843   2.111
 3258TIP3    H2 9739   4.072   3.788   2.226
 3259TIP3   OH2 9740   4.032   0.745   3.128
 3259TIP3    H1 9741   4.000   0.814   3.070
 3259TIP3    H2 9742   4.123   0.730   3.101
 3260TIP3   OH2 9743   3.038   0.824   5.684
 3260TIP3    H1 9744   2.959   0.869   5.654
 3260TIP3    H2 9745   3.101   0.837   5.613
 3261TIP3   OH2 9746   6.132   6.468   1.175
 3261TIP3    H1 9747   6.226   6.466   1.159
 3261TIP3    H2 9748   6.118   6.403   1.244
 3262TIP3   OH2 9749   6.965   5.025   5.163
 3262TIP3    H1 9750   6.921   4.968   5.227
 3262TIP3    H2 9751   7.054   4.990   5.157
 3263TIP3   OH2 9752   2.661   0.071   3.006
 3263TIP3    H1 9753   2.745   0.037   2.976
 3263TIP3    H2 9754   2.682   0.155   3.047
 3264TIP3   OH2 9755   4.011   4.424   4.306
 3264TIP3    H1 9756   4.088   4.460   4.261
 3264TIP3    H2 9757   4.048   4.381   4.384
 3265TIP3   OH2 9758   5.061   5.577   3.853
 3265TIP3    H1 9759   5.064   5.630   3.773
 3265TIP3    H2 9760   5.064   5.642   3.924
 3266TIP3   OH2 9761   3.096   1.202   4.635
 3266TIP3    H1 9762   3.006   1.227   4.655
 3266TIP3    H2 9763   3.088   1.139   4.564
 3267TIP3   OH2 9764   0.772   6.388   4.667
 3267TIP3    H1 9765   0.830   6.446   4.717
 3267TIP3    H2 9766   0.688   6.435   4.665
 3268TIP3   OH2 9767   6.435  -0.020   2.052
 3268TIP3    H1 9768   6.517  -0.001   2.098
 3268TIP3    H2 9769   6.412   0.063   2.009
 3269TIP3   OH2 9770   3.723   3.833   0.606
 3269TIP3    H1 9771   3.762   3.779   0.537
 3269TIP3    H2 9772   3.771   3.809   0.685
 3270TIP3   OH2 9773   0.942   0.770   1.774
 3270TIP3    H1 9774   1.010   0.721   1.728
 3270TIP3    H2 9775   0.926   0.847   1.719
 3271TIP3   OH2 9776   4.516   6.807   2.040
 3271TIP3    H1 9777   4.471   6.733   2.082
 3271TIP3    H2 9778   4.597   6.816   2.090
 3272TIP3   OH2 9779   6.299   0.909   4.933
 3272TIP3    H1 9780   6.369   0.948   4.985
 3272TIP3    H2 9781   6.290   0.968   4.858
 3273TIP3   OH2 9782   6.424   5.701   5.411
 3273TIP3    H1 9783   6.387   5.649   5.339
 3273TIP3    H2 9784   6.488   5.643   5.452
 3274TIP3   OH2 9785   5.274   3.991   0.571
 3274TIP3    H1 9786   5.188   3.984   0.529
 3274TIP3    H2 9787   5.302   3.900   0.583
 3275TIP3   OH2 9788   4.159   3.193   4.695
 3275TIP3    H1 9789   4.064   3.200   4.692
 3275TIP3    H2 9790   4.177   3.104   4.666
 3276TIP3   OH2 9791   6.204   1.009   2.743
 3276TIP3    H1 9792   6.223   0.970   2.657
 3276TIP3    H2 9793   6.290   1.034   2.777
 3277TIP3   OH2 9794   0.276   2.669   0.440
 3277TIP3    H1 9795   0.265   2.597   0.502
 3277TIP3    H2 9796   0.316   2.628   0.363
 3278TIP3   OH2 9797   3.404  -0.066   5.783
 3278TIP3    H1 9798   3.429   0.010   5.835
 3278TIP3    H2 9799   3.417  -0.039   5.692
 3279TIP3   OH2 9800   1.436   1.902   3.544
 3279TIP3    H1 9801   1.468   1.918   3.633
 3279TIP3    H2 9802   1.340   1.904   3.552
 3280TIP3   OH2 9803   6.162   4.170   0.987
 3280TIP3    H1 9804   6.231   4.207   0.932
 3280TIP3    H2 9805   6.106   4.245   1.009
 3281TIP3   OH2 9806   6.244   5.173   2.968
 3281TIP3    H1 9807   6.215   5.106   2.906
 3281TIP3    H2 9808   6.335   5.150   2.988
 3282TIP3   OH2 9809   1.230   4.452   1.665
 3282TIP3    H1 9810   1.306   4.486   1.712
 3282TIP3    H2 9811   1.158   4.508   1.692
 3283TIP3   OH2 9812   6.097   5.672   3.972
 3283TIP3    H1 9813   6.182   5.672   4.017
 3283TIP3    H2 9814   6.038   5.628   4.032
 3284TIP3   OH2 9815   3.257   4.549   4.679
 3284TIP3    H1 9816   3.257   4.538   4.774
 3284TIP3    H2 9817   3.334   4.501   4.649
 3285TIP3   OH2 9818   2.507   0.758   0.673
 3285TIP3    H1 9819   2.510   0.788   0.764
 3285TIP3    H2 9820   2.429   0.801   0.637
 3286TIP3   OH2 9821   2.320   3.595   2.836
 3286TIP3    H1 9822   2.301   3.578   2.928
 3286TIP3    H2 9823   2.413   3.618   2.834
 3287TIP3   OH2 9824   0.903   6.061   1.599
 3287TIP3    H1 9825   0.842   6.000   1.640
 3287TIP3    H2 9826   0.952   6.008   1.536
 3288TIP3   OH2 9827   4.636   0.024   5.864
 3288TIP3    H1 9828   4.711  -0.008   5.815
 3288TIP3    H2 9829   4.561  -0.020   5.824
 3289TIP3   OH2 9830   3.341   3.639   4.711
 3289TIP3    H1 9831   3.279   3.639   4.639
 3289TIP3    H2 9832   3.356   3.546   4.730
 3290TIP3   OH2 9833   0.044   2.045   2.987
 3290TIP3    H1 9834   0.098   2.025   3.063
 3290TIP3    H2 9835  -0.040   2.073   3.024
 3291TIP3   OH2 9836   0.656   0.470   0.368
 3291TIP3    H1 9837   0.612   0.555   0.373
 3291TIP3    H2 9838   0.705   0.472   0.286
 3292TIP3   OH2 9839   6.793   1.903   3.753
 3292TIP3    H1 9840   6.712   1.945   3.783
 3292TIP3    H2 9841   6.793   1.817   3.794
 3293TIP3   OH2 9842   3.966   3.269   0.178
 3293TIP3    H1 9843   4.040   3.328   0.193
 3293TIP3    H2 9844   3.902   3.321   0.130
 3294TIP3   OH2 9845   0.561   1.307   3.716
 3294TIP3    H1 9846   0.615   1.325   3.793
 3294TIP3    H2 9847   0.471   1.306   3.750
 3295TIP3   OH2 9848   0.482   3.791   2.830
 3295TIP3    H1 9849   0.481   3.791   2.734
 3295TIP3    H2 9850   0.399   3.750   2.854
 3296TIP3   OH2 9851   4.095   0.596   2.463
 3296TIP3    H1 9852   4.044   0.516   2.447
 3296TIP3    H2 9853   4.034   0.656   2.505
 3297TIP3   OH2 9854   3.787   5.358   3.990
 3297TIP3    H1 9855   3.699   5.322   3.975
 3297TIP3    H2 9856   3.792   5.370   4.085
 3298TIP3   OH2 9857   0.816   3.097   0.221
 3298TIP3    H1 9858   0.793   3.020   0.273
 3298TIP3    H2 9859   0.859   3.156   0.283
 3299TIP3   OH2 9860   2.745   0.210   1.228
 3299TIP3    H1 9861   2.669   0.156   1.205
 3299TIP3    H2 9862   2.819   0.168   1.184
 3300TIP3   OH2 9863   2.183   2.162   4.671
 3300TIP3    H1 9864   2.250   2.095   4.655
 3300TIP3    H2 9865   2.185   2.216   4.593
 3301TIP3   OH2 9866   6.819   1.122   3.719
 3301TIP3    H1 9867   6.864   1.203   3.744
 3301TIP3    H2 9868   6.888   1.065   3.687
 3302TIP3   OH2 9869   3.437   6.698   4.215
 3302TIP3    H1 9870   3.437   6.629   4.149
 3302TIP3    H2 9871   3.514   6.681   4.269
 3303TIP3   OH2 9872   2.676   6.036   1.171
 3303TIP3    H1 9873   2.743   5.994   1.225
 3303TIP3    H2 9874   2.712   6.123   1.151
 3304TIP3   OH2 9875   2.262   3.379   5.464
 3304TIP3    H1 9876   2.235   3.303   5.412
 3304TIP3    H2 9877   2.357   3.383   5.453
 3305TIP3   OH2 9878   4.395   6.196   3.430
 3305TIP3    H1 9879   4.461   6.247   3.384
 3305TIP3    H2 9880   4.311   6.226   3.392
 3306TIP3   OH2 9881   1.880   2.635   1.155
 3306TIP3    H1 9882   1.915   2.555   1.116
 3306TIP3    H2 9883   1.795   2.647   1.112
 3307TIP3   OH2 9884   1.088   3.901   0.460
 3307TIP3    H1 9885   1.155   3.898   0.393
 3307TIP3    H2 9886   1.020   3.958   0.424
 3308TIP3   OH2 9887   5.716   5.293   3.515
 3308TIP3    H1 9888   5.804   5.322   3.491
 3308TIP3    H2 9889   5.691   5.230   3.448
 3309TIP3   OH2 9890   6.686   0.113   1.990
 3309TIP3    H1 9891   6.675   0.208   1.996
 3309TIP3    H2 9892   6.774   0.097   2.022
 3310TIP3   OH2 9893   6.392   4.816   0.352
 3310TIP3    H1 9894   6.441   4.822   0.270
 3310TIP3    H2 9895   6.389   4.907   0.384
 3311TIP3   OH2 9896   6.861   5.643   4.820
 3311TIP3    H1 9897   6.776   5.601   4.809
 3311TIP3    H2 9898   6.844   5.736   4.801
 3312TIP3   OH2 9899   2.512   1.307   3.917
 3312TIP3    H1 9900   2.457   1.342   3.847
 3312TIP3    H2 9901   2.524   1.381   3.977
 3313TIP3   OH2 9902   5.646   0.031   0.742
 3313TIP3    H1 9903   5.665   0.117   0.704
 3313TIP3    H2 9904   5.553   0.034   0.765
 3314TIP3   OH2 9905   5.524   4.745   0.903
 3314TIP3    H1 9906   5.567   4.814   0.954
 3314TIP3    H2 9907   5.489   4.790   0.827
 3315TIP3   OH2 9908   1.242   5.601   0.929
 3315TIP3    H1 9909   1.231   5.695   0.919
 3315TIP3    H2 9910   1.329   5.582   0.894
 3316TIP3   OH2 9911   4.604   4.752   1.891
 3316TIP3    H1 9912   4.668   4.811   1.849
 3316TIP3    H2 9913   4.658   4.682   1.928
 3317TIP3   OH2 9914   2.021   1.149   2.698
 3317TIP3    H1 9915   2.028   1.234   2.656
 3317TIP3    H2 9916   2.100   1.102   2.670
 3318TIP3   OH2 9917   0.273   6.634   2.201
 3318TIP3    H1 9918   0.188   6.597   2.228
 3318TIP3    H2 9919   0.319   6.560   2.162
 3319TIP3   OH2 9920   3.688   5.886   5.137
 3319TIP3    H1 9921   3.623   5.896   5.067
 3319TIP3    H2 9922   3.683   5.794   5.162
 3320TIP3   OH2 9923   6.679   4.517   0.128
 3320TIP3    H1 9924   6.677   4.573   0.050
 3320TIP3    H2 9925   6.765   4.532   0.166
 3321TIP3   OH2 9926   5.087   4.410   2.306
 3321TIP3    H1 9927   5.139   4.346   2.355
 3321TIP3    H2 9928   5.136   4.424   2.225
 3322TIP3   OH2 9929   1.113   6.466   2.485
 3322TIP3    H1 9930   1.197   6.445   2.525
 3322TIP3    H2 9931   1.084   6.546   2.529
 3323TIP3   OH2 9932   0.373   3.881   5.456
 3323TIP3    H1 9933   0.292   3.831   5.468
 3323TIP3    H2 9934   0.431   3.849   5.525
 3324TIP3   OH2 9935   5.887   2.723   4.488
 3324TIP3    H1 9936   5.982   2.731   4.481
 3324TIP3    H2 9937   5.865   2.767   4.570
 3325TIP3   OH2 9938   5.172   5.053   2.484
 3325TIP3    H1 9939   5.166   5.135   2.532
 3325TIP3    H2 9940   5.265   5.029   2.489
 3326TIP3   OH2 9941   2.862   6.428   4.678
 3326TIP3    H1 9942   2.810   6.401   4.753
 3326TIP3    H2 9943   2.952   6.402   4.699
 3327TIP3   OH2 9944   3.930   1.809   1.129
 3327TIP3    H1 9945   3.871   1.783   1.059
 3327TIP3    H2 9946   4.013   1.765   1.109
 3328TIP3   OH2 9947   3.130   6.707   4.444
 3328TIP3    H1 9948   3.149   6.774   4.378
 3328TIP3    H2 9949   3.177   6.736   4.522
 3329TIP3   OH2 9950   2.856   0.205   3.648
 3329TIP3    H1 9951   2.797   0.131   3.658
 3329TIP3    H2 9952   2.799   0.281   3.636
 3330TIP3   OH2 9953   2.951   3.310   5.050
 3330TIP3    H1 9954   2.940   3.405   5.051
 3330TIP3    H2 9955   3.012   3.293   5.122
 3331TIP3   OH2 9956   6.483   3.929   1.802
 3331TIP3    H1 9957   6.401   3.938   1.851
 3331TIP3    H2 9958   6.457   3.889   1.719
 3332TIP3   OH2 9959   6.238   5.471   3.341
 3332TIP3    H1 9960   6.149   5.486   3.310
 3332TIP3    H2 9961   6.249   5.533   3.413
 3333TIP3   OH2 9962   0.037   4.285   2.096
 3333TIP3    H1 9963  -0.025   4.220   2.131
 3333TIP3    H2 9964  -0.015   4.365   2.089
 3334TIP3   OH2 9965   6.275   5.415   4.829
 3334TIP3    H1 9966   6.349   5.354   4.829
 3334TIP3    H2 9967   6.313   5.499   4.855
 3335TIP3   OH2 9968   0.324   2.846   2.350
 3335TIP3    H1 9969   0.330   2.762   2.306
 3335TIP3    H2 9970   0.324   2.911   2.279
 3336TIP3   OH2 9971   3.199   3.465   5.126
 3336TIP3    H1 9972   3.157   3.532   5.179
 3336TIP3    H2 9973   3.286   3.499   5.109
 3337TIP3   OH2 9974   6.689   0.921   0.427
 3337TIP3    H1 9975   6.635   0.984   0.380
 3337TIP3    H2 9976   6.755   0.894   0.363
 3338TIP3   OH2 9977   0.957   6.374   1.209
 3338TIP3    H1 9978   0.946   6.461   1.248
 3338TIP3    H2 9979   1.041   6.343   1.242
 3339TIP3   OH2 9980   5.134   0.034   4.197
 3339TIP3    H1 9981   5.149   0.018   4.290
 3339TIP3    H2 9982   5.138   0.129   4.188
 3340TIP3   OH2 9983   3.054   0.622   0.289
 3340TIP3    H1 9984   3.005   0.651   0.212
 3340TIP3    H2 9985   3.134   0.584   0.253
 3341TIP3   OH2 9986   5.199   2.975   0.586
 3341TIP3    H1 9987   5.247   2.987   0.668
 3341TIP3    H2 9988   5.108   2.965   0.613
 3342TIP3   OH2 9989   2.871   3.663   0.359
 3342TIP3    H1 9990   2.904   3.619   0.437
 3342TIP3    H2 9991   2.949   3.695   0.314
 3343TIP3   OH2 9992   3.359   1.708   4.217
 3343TIP3    H1 9993   3.349   1.653   4.139
 3343TIP3    H2 9994   3.451   1.735   4.215
 3344TIP3   OH2 9995   1.142   0.373   0.142
 3344TIP3    H1 9996   1.124   0.368   0.236
 3344TIP3    H2 9997   1.059   0.346   0.101
 3345TIP3   OH2 9998   5.913   0.652   2.238
 3345TIP3    H1 9999   5.962   0.576   2.207
 3345TIP3    H210000   5.836   0.614   2.281
 3346TIP3   OH210001   5.453   4.313   3.894
 3346TIP3    H110002   5.380   4.260   3.926
 3346TIP3    H210003   5.507   4.330   3.972
 3347TIP3   OH210004   2.272   4.702   2.357
 3347TIP3    H110005   2.215   4.628   2.379
 3347TIP3    H210006   2.312   4.727   2.440
 3348TIP3   OH210007   2.017   6.102   4.509
 3348TIP3    H110008   2.110   6.095   4.489
 3348TIP3    H210009   1.976   6.132   4.428
 3349TIP3   OH210010   3.023   5.026   5.394
 3349TIP3    H110011   3.021   5.055   5.303
 3349TIP3    H210012   2.948   4.966   5.401
 3350TIP3   OH210013   0.944   2.356   4.136
 3350TIP3    H110014   0.975   2.399   4.056
 3350TIP3    H210015   0.852   2.381   4.143
 3351TIP3   OH210016   6.490   1.096   2.297
 3351TIP3    H110017   6.562   1.148   2.333
 3351TIP3    H210018   6.494   1.113   2.203
 3352TIP3   OH210019   0.664   4.996   2.066
 3352TIP3    H110020   0.585   4.991   2.012
 3352TIP3    H210021   0.693   5.086   2.059
 3353TIP3   OH210022   0.290   1.189   4.263
 3353TIP3    H110023   0.211   1.196   4.210
 3353TIP3    H210024   0.276   1.112   4.317
 3354TIP3   OH210025   6.810   4.614   3.293
 3354TIP3    H110026   6.815   4.526   3.332
 3354TIP3    H210027   6.726   4.648   3.323
 3355TIP3   OH210028   2.500   3.376   2.035
 3355TIP3    H110029   2.430   3.415   2.086
 3355TIP3    H210030   2.469   3.288   2.014
 3356TIP3   OH210031   3.422   6.777   0.448
 3356TIP3    H110032   3.348   6.718   0.430
 3356TIP3    H210033   3.498   6.731   0.413
 3357TIP3   OH210034   5.538   0.051   1.286
 3357TIP3    H110035   5.543   0.122   1.222
 3357TIP3    H210036   5.629   0.024   1.300
 3358TIP3   OH210037   3.584   4.616   3.216
 3358TIP3    H110038   3.607   4.700   3.255
 3358TIP3    H210039   3.494   4.600   3.245
 3359TIP3   OH210040   5.597   3.407   3.356
 3359TIP3    H110041   5.633   3.350   3.288
 3359TIP3    H210042   5.503   3.405   3.342
 3360TIP3   OH210043   4.485   4.697   0.820
 3360TIP3    H110044   4.460   4.773   0.871
 3360TIP3    H210045   4.579   4.689   0.833
 3361TIP3   OH210046   3.361   4.315   5.612
 3361TIP3    H110047   3.269   4.312   5.641
 3361TIP3    H210048   3.408   4.352   5.687
 3362TIP3   OH210049   6.835   4.115   2.792
 3362TIP3    H110050   6.754   4.165   2.785
 3362TIP3    H210051   6.850   4.080   2.704
 3363TIP3   OH210052   0.887   0.178   0.396
 3363TIP3    H110053   0.967   0.125   0.404
 3363TIP3    H210054   0.918   0.261   0.359
 3364TIP3   OH210055   5.811   5.298   3.945
 3364TIP3    H110056   5.817   5.394   3.942
 3364TIP3    H210057   5.900   5.270   3.964
 3365TIP3   OH210058   5.790   1.365   0.945
 3365TIP3    H110059   5.762   1.457   0.941
 3365TIP3    H210060   5.709   1.316   0.960
 3366TIP3   OH210061   3.852   6.318   3.691
 3366TIP3    H110062   3.783   6.273   3.643
 3366TIP3    H210063   3.929   6.263   3.681
 3367TIP3   OH210064   4.189   6.067   4.127
 3367TIP3    H110065   4.270   6.114   4.145
 3367TIP3    H210066   4.145   6.062   4.211
 3368TIP3   OH210067   6.084   4.546   4.484
 3368TIP3    H110068   5.990   4.555   4.503
 3368TIP3    H210069   6.120   4.633   4.499
 3369TIP3   OH210070   0.951   3.542   5.809
 3369TIP3    H110071   0.983   3.622   5.852
 3369TIP3    H210072   0.876   3.515   5.863
 3370TIP3   OH210073   7.041   6.331   3.229
 3370TIP3    H110074   6.959   6.325   3.278
 3370TIP3    H210075   7.107   6.346   3.296
 3371TIP3   OH210076   5.393   0.983   5.265
 3371TIP3    H110077   5.455   0.940   5.323
 3371TIP3    H210078   5.325   0.917   5.248
 3372TIP3   OH210079   3.230   3.126   3.581
 3372TIP3    H110080   3.191   3.193   3.637
 3372TIP3    H210081   3.323   3.147   3.579
 3373TIP3   OH210082   1.381   2.141   4.130
 3373TIP3    H110083   1.446   2.191   4.080
 3373TIP3    H210084   1.434   2.086   4.189
 3374TIP3   OH210085   6.446   3.513   5.307
 3374TIP3    H110086   6.472   3.568   5.233
 3374TIP3    H210087   6.407   3.574   5.369
 3375TIP3   OH210088   4.326   1.644   5.272
 3375TIP3    H110089   4.405   1.625   5.323
 3375TIP3    H210090   4.358   1.683   5.191
 3376TIP3   OH210091   1.815   4.203   1.973
 3376TIP3    H110092   1.849   4.279   1.925
 3376TIP3    H210093   1.765   4.154   1.907
 3377TIP3   OH210094   3.606   3.862   5.629
 3377TIP3    H110095   3.611   3.935   5.568
 3377TIP3    H210096   3.676   3.878   5.692
 3378TIP3   OH210097   6.587   2.486   4.358
 3378TIP3    H110098   6.502   2.511   4.394
 3378TIP3    H210099   6.645   2.480   4.435
 3379TIP3   OH210100   3.087   5.581   3.378
 3379TIP3    H110101   3.039   5.651   3.334
 3379TIP3    H210102   3.073   5.504   3.322
 3380TIP3   OH210103   0.315   0.444   4.960
 3380TIP3    H110104   0.220   0.456   4.959
 3380TIP3    H210105   0.343   0.478   5.045
 3381TIP3   OH210106   1.464   0.447   2.879
 3381TIP3    H110107   1.496   0.534   2.856
 3381TIP3    H210108   1.500   0.389   2.811
 3382TIP3   OH210109   6.153   4.693   0.439
 3382TIP3    H110110   6.143   4.604   0.406
 3382TIP3    H210111   6.240   4.720   0.410
 3383TIP3   OH210112   2.338   4.808   3.639
 3383TIP3    H110113   2.287   4.761   3.573
 3383TIP3    H210114   2.316   4.764   3.721
 3384TIP3   OH210115   4.863   2.557   4.893
 3384TIP3    H110116   4.828   2.604   4.817
 3384TIP3    H210117   4.808   2.480   4.901
 3385TIP3   OH210118   6.857   3.125   0.997
 3385TIP3    H110119   6.867   3.134   1.092
 3385TIP3    H210120   6.871   3.213   0.963
 3386TIP3   OH210121   1.773   0.712   0.166
 3386TIP3    H110122   1.730   0.626   0.166
 3386TIP3    H210123   1.784   0.733   0.073
 3387TIP3   OH210124   4.332   3.183   0.307
 3387TIP3    H110125   4.271   3.111   0.290
 3387TIP3    H210126   4.416   3.140   0.322
 3388TIP3   OH210127   7.107   5.425   0.632
 3388TIP3    H110128   7.025   5.474   0.630
 3388TIP3    H210129   7.130   5.413   0.540
 3389TIP3   OH210130   2.525   4.058   0.465
 3389TIP3    H110131   2.513   4.113   0.542
 3389TIP3    H210132   2.449   4.000   0.464
 3390TIP3   OH210133   3.612   6.461   2.967
 3390TIP3    H110134   3.621   6.512   3.048
 3390TIP3    H210135   3.595   6.372   2.997
 3391TIP3   OH210136   4.104   5.652   5.744
 3391TIP3    H110137   4.059   5.585   5.693
 3391TIP3    H210138   4.036   5.717   5.764
 3392TIP3   OH210139   2.102   1.305   3.175
 3392TIP3    H110140   2.154   1.294   3.254
 3392TIP3    H210141   2.036   1.235   3.179
 3393TIP3   OH210142   3.991   1.553   1.515
 3393TIP3    H110143   4.079   1.524   1.491
 3393TIP3    H210144   3.989   1.646   1.489
 3394TIP3   OH210145   1.759   5.659   0.334
 3394TIP3    H110146   1.850   5.672   0.362
 3394TIP3    H210147   1.756   5.568   0.303
 3395TIP3   OH210148   4.181   1.490   4.178
 3395TIP3    H110149   4.217   1.446   4.255
 3395TIP3    H210150   4.207   1.435   4.104
 3396TIP3   OH210151   0.345   4.326   0.697
 3396TIP3    H110152   0.321   4.274   0.774
 3396TIP3    H210153   0.440   4.321   0.694
 3397TIP3   OH210154   3.019   3.278   1.346
 3397TIP3    H110155   3.054   3.192   1.369
 3397TIP3    H210156   2.953   3.295   1.413
 3398TIP3   OH210157   3.546   0.088   5.389
 3398TIP3    H110158   3.508   0.147   5.453
 3398TIP3    H210159   3.505   0.113   5.306
 3399TIP3   OH210160   3.408   2.677   1.349
 3399TIP3    H110161   3.467   2.604   1.330
 3399TIP3    H210162   3.465   2.752   1.362
 3400TIP3   OH210163   7.102   1.753   3.014
 3400TIP3    H110164   7.053   1.831   3.040
 3400TIP3    H210165   7.133   1.715   3.096
 3401TIP3   OH210166   1.519   1.161   3.363
 3401TIP3    H110167   1.615   1.165   3.365
 3401TIP3    H210168   1.498   1.110   3.286
 3402TIP3   OH210169   4.089   3.827   2.922
 3402TIP3    H110170   4.084   3.922   2.908
 3402TIP3    H210171   3.997   3.799   2.921
 3403TIP3   OH210172   0.089   1.403   3.722
 3403TIP3    H110173   0.141   1.367   3.794
 3403TIP3    H210174   0.014   1.445   3.765
 3404TIP3   OH210175   6.513   6.265   2.355
 3404TIP3    H110176   6.517   6.246   2.449
 3404TIP3    H210177   6.499   6.359   2.349
 3405TIP3   OH210178   6.154   1.310   1.314
 3405TIP3    H110179   6.186   1.393   1.279
 3405TIP3    H210180   6.203   1.299   1.396
 3406TIP3   OH210181   2.164   3.179   2.926
 3406TIP3    H110182   2.185   3.145   3.013
 3406TIP3    H210183   2.111   3.257   2.943
 3407TIP3   OH210184   6.806   4.742   3.626
 3407TIP3    H110185   6.779   4.650   3.620
 3407TIP3    H210186   6.726   4.792   3.613
 3408TIP3   OH210187   5.945   3.064   2.097
 3408TIP3    H110188   5.950   3.012   2.017
 3408TIP3    H210189   5.959   3.001   2.168
 3409TIP3   OH210190   2.369   6.079   0.308
 3409TIP3    H110191   2.338   6.167   0.291
 3409TIP3    H210192   2.458   6.091   0.343
 3410TIP3   OH210193   4.963   6.494   1.635
 3410TIP3    H110194   4.998   6.493   1.725
 3410TIP3    H210195   4.921   6.579   1.627
 3411TIP3   OH210196   4.765   6.532   2.007
 3411TIP3    H110197   4.684   6.522   1.958
 3411TIP3    H210198   4.743   6.506   2.096
 3412TIP3   OH210199   1.744   2.100   1.648
 3412TIP3    H110200   1.835   2.129   1.650
 3412TIP3    H210201   1.693   2.181   1.654
 3413TIP3   OH210202   1.507   1.513   0.110
 3413TIP3    H110203   1.450   1.575   0.157
 3413TIP3    H210204   1.570   1.485   0.176
 3414TIP3   OH210205   2.063   0.775   5.293
 3414TIP3    H110206   2.014   0.695   5.273
 3414TIP3    H210207   2.152   0.757   5.263
 3415TIP3   OH210208   0.041   1.840   2.805
 3415TIP3    H110209   0.036   1.932   2.831
 3415TIP3    H210210   0.030   1.792   2.887
 3416TIP3   OH210211   7.039   6.568   4.145
 3416TIP3    H110212   7.105   6.621   4.099
 3416TIP3    H210213   6.965   6.627   4.156
 3417TIP3   OH210214   6.862   4.827   0.295
 3417TIP3    H110215   6.822   4.870   0.371
 3417TIP3    H210216   6.872   4.736   0.322
 3418TIP3   OH210217   3.957   2.039   5.226
 3418TIP3    H110218   3.990   1.950   5.240
 3418TIP3    H210219   4.033   2.095   5.243
 3419TIP3   OH210220   4.892   0.714   3.314
 3419TIP3    H110221   4.925   0.794   3.356
 3419TIP3    H210222   4.967   0.678   3.267
 3420TIP3   OH210223   0.250   1.414   1.996
 3420TIP3    H110224   0.320   1.419   2.060
 3420TIP3    H210225   0.170   1.408   2.047
 3421TIP3   OH210226   0.161   3.141   0.250
 3421TIP3    H110227   0.203   3.128   0.165
 3421TIP3    H210228   0.157   3.236   0.261
 3422TIP3   OH210229   3.132   2.592   2.442
 3422TIP3    H110230   3.197   2.579   2.511
 3422TIP3    H210231   3.184   2.614   2.364
 3423TIP3   OH210232   0.924   6.673   0.604
 3423TIP3    H110233   0.986   6.717   0.545
 3423TIP3    H210234   0.840   6.716   0.585
 3424TIP3   OH210235   6.528   1.975   0.053
 3424TIP3    H110236   6.450   1.923   0.072
 3424TIP3    H210237   6.531   1.981  -0.042
 3425TIP3   OH210238   5.284   6.005   0.326
 3425TIP3    H110239   5.326   6.077   0.373
 3425TIP3    H210240   5.355   5.941   0.315
 3426TIP3   OH210241   1.065   2.355   5.082
 3426TIP3    H110242   0.986   2.403   5.109
 3426TIP3    H210243   1.118   2.421   5.037
 3427TIP3   OH210244   4.443   6.098   2.651
 3427TIP3    H110245   4.398   6.120   2.570
 3427TIP3    H210246   4.388   6.135   2.720
 3428TIP3   OH210247   1.529   2.034   0.968
 3428TIP3    H110248   1.607   1.980   0.962
 3428TIP3    H210249   1.472   1.988   1.030
 3429TIP3   OH210250   4.249   2.906   0.381
 3429TIP3    H110251   4.270   2.818   0.411
 3429TIP3    H210252   4.154   2.905   0.369
 3430TIP3   OH210253   0.836   5.290   0.925
 3430TIP3    H110254   0.907   5.332   0.974
 3430TIP3    H210255   0.876   5.212   0.886
 3431TIP3   OH210256   0.268   1.632   5.897
 3431TIP3    H110257   0.300   1.718   5.868
 3431TIP3    H210258   0.236   1.590   5.817
 3432TIP3   OH210259   3.158   0.849   0.010
 3432TIP3    H110260   3.183   0.913  -0.057
 3432TIP3    H210261   3.196   0.882   0.091
 3433TIP3   OH210262   3.454   1.690   3.471
 3433TIP3    H110263   3.409   1.756   3.523
 3433TIP3    H210264   3.391   1.619   3.464
 3434TIP3   OH210265   4.382   3.517   2.996
 3434TIP3    H110266   4.423   3.431   2.993
 3434TIP3    H210267   4.437   3.568   3.055
 3435TIP3   OH210268   3.679   0.392   1.391
 3435TIP3    H110269   3.716   0.424   1.308
 3435TIP3    H210270   3.725   0.310   1.407
 3436TIP3   OH210271   5.675   6.358   0.134
 3436TIP3    H110272   5.673   6.360   0.038
 3436TIP3    H210273   5.696   6.267   0.155
 3437TIP3   OH210274   2.014   0.632   1.644
 3437TIP3    H110275   2.021   0.606   1.736
 3437TIP3    H210276   2.102   0.664   1.621
 3438TIP3   OH210277   2.547   5.162   4.315
 3438TIP3    H110278   2.501   5.181   4.233
 3438TIP3    H210279   2.640   5.166   4.292
 3439TIP3   OH210280   1.269   0.890   1.678
 3439TIP3    H110281   1.346   0.836   1.664
 3439TIP3    H210282   1.294   0.976   1.645
 3440TIP3   OH210283   2.684   3.600   3.590
 3440TIP3    H110284   2.766   3.611   3.543
 3440TIP3    H210285   2.626   3.556   3.528
 3441TIP3   OH210286   2.127   4.130   4.669
 3441TIP3    H110287   2.116   4.165   4.757
 3441TIP3    H210288   2.146   4.037   4.682
 3442TIP3   OH210289   4.575   6.758   4.526
 3442TIP3    H110290   4.634   6.803   4.587
 3442TIP3    H210291   4.503   6.727   4.581
 3443TIP3   OH210292   4.718   2.009   0.815
 3443TIP3    H110293   4.663   1.937   0.783
 3443TIP3    H210294   4.668   2.088   0.794
 3444TIP3   OH210295   1.213   2.145   1.320
 3444TIP3    H110296   1.118   2.146   1.333
 3444TIP3    H210297   1.225   2.173   1.229
 3445TIP3   OH210298   3.779   0.116   1.464
 3445TIP3    H110299   3.752   0.109   1.555
 3445TIP3    H210300   3.757   0.030   1.426
 3446TIP3   OH210301   4.067   0.382   1.248
 3446TIP3    H110302   4.081   0.305   1.193
 3446TIP3    H210303   4.027   0.348   1.328
 3447TIP3   OH210304   5.814   2.413   4.440
 3447TIP3    H110305   5.734   2.466   4.442
 3447TIP3    H210306   5.844   2.418   4.349
 3448TIP3   OH210307   3.376   4.619   3.536
 3448TIP3    H110308   3.339   4.704   3.562
 3448TIP3    H210309   3.327   4.595   3.457
 3449TIP3   OH210310   6.620   1.263   3.522
 3449TIP3    H110311   6.632   1.168   3.521
 3449TIP3    H210312   6.706   1.298   3.499
 3450TIP3   OH210313   6.845   2.535   5.245
 3450TIP3    H110314   6.908   2.600   5.213
 3450TIP3    H210315   6.827   2.480   5.169
 3451TIP3   OH210316   3.329   5.950   0.804
 3451TIP3    H110317   3.264   5.950   0.875
 3451TIP3    H210318   3.352   5.857   0.793
 3452TIP3   OH210319   6.487   4.329   2.087
 3452TIP3    H110320   6.554   4.397   2.077
 3452TIP3    H210321   6.505   4.268   2.016
 3453TIP3   OH210322   5.406   1.795   2.562
 3453TIP3    H110323   5.382   1.768   2.473
 3453TIP3    H210324   5.377   1.886   2.569
 3454TIP3   OH210325   2.346   4.271   5.249
 3454TIP3    H110326   2.349   4.284   5.154
 3454TIP3    H210327   2.252   4.267   5.269
 3455TIP3   OH210328   4.685   1.668   4.909
 3455TIP3    H110329   4.608   1.613   4.920
 3455TIP3    H210330   4.699   1.707   4.996
 3456TIP3   OH210331   5.304   0.813   5.697
 3456TIP3    H110332   5.271   0.793   5.784
 3456TIP3    H210333   5.390   0.771   5.694
 3457TIP3   OH210334   2.210   0.147   5.072
 3457TIP3    H110335   2.178   0.188   4.992
 3457TIP3    H210336   2.287   0.097   5.044
 3458TIP3   OH210337   2.743   2.454   4.507
 3458TIP3    H110338   2.760   2.400   4.430
 3458TIP3    H210339   2.829   2.482   4.537
 3459TIP3   OH210340   2.862   3.437   2.540
 3459TIP3    H110341   2.783   3.467   2.583
 3459TIP3    H210342   2.850   3.343   2.530
 3460TIP3   OH210343   0.973   3.975   5.856
 3460TIP3    H110344   0.946   3.893   5.898
 3460TIP3    H210345   1.056   3.997   5.897
 3461TIP3   OH210346   5.133   1.022   1.271
 3461TIP3    H110347   5.078   1.020   1.350
 3461TIP3    H210348   5.209   0.967   1.293
 3462TIP3   OH210349   5.930  -0.028   5.610
 3462TIP3    H110350   5.840   0.003   5.624
 3462TIP3    H210351   5.977  -0.001   5.689
 3463TIP3   OH210352   5.308   0.722   2.140
 3463TIP3    H110353   5.327   0.810   2.106
 3463TIP3    H210354   5.254   0.738   2.217
 3464TIP3   OH210355   3.242   5.784   4.437
 3464TIP3    H110356   3.335   5.775   4.418
 3464TIP3    H210357   3.211   5.849   4.374
 3465TIP3   OH210358   2.772   2.099   1.324
 3465TIP3    H110359   2.717   2.022   1.339
 3465TIP3    H210360   2.860   2.063   1.312
 3466TIP3   OH210361   4.451   4.038   5.228
 3466TIP3    H110362   4.460   3.955   5.181
 3466TIP3    H210363   4.408   4.097   5.166
 3467TIP3   OH210364   1.797   0.339   0.864
 3467TIP3    H110365   1.832   0.305   0.781
 3467TIP3    H210366   1.867   0.395   0.899
 3468TIP3   OH210367   5.821   6.641   5.784
 3468TIP3    H110368   5.848   6.729   5.809
 3468TIP3    H210369   5.845   6.586   5.858
 3469TIP3   OH210370   4.626   4.343   2.155
 3469TIP3    H110371   4.691   4.286   2.116
 3469TIP3    H210372   4.672   4.426   2.168
 3470TIP3   OH210373   3.372   5.307   2.506
 3470TIP3    H110374   3.311   5.241   2.473
 3470TIP3    H210375   3.374   5.293   2.600
 3471TIP3   OH210376   2.818   5.613   4.702
 3471TIP3    H110377   2.877   5.688   4.704
 3471TIP3    H210378   2.876   5.537   4.714
 3472TIP3   OH210379   5.862   0.385   1.565
 3472TIP3    H110380   5.816   0.470   1.566
 3472TIP3    H210381   5.802   0.325   1.610
 3473TIP3   OH210382   2.243   0.296   3.627
 3473TIP3    H110383   2.294   0.221   3.596
 3473TIP3    H210384   2.239   0.355   3.552
 3474TIP3   OH210385   7.084   1.717   1.270
 3474TIP3    H110386   7.014   1.744   1.211
 3474TIP3    H210387   7.116   1.798   1.309
 3475TIP3   OH210388   0.494   2.453   3.259
 3475TIP3    H110389   0.429   2.475   3.193
 3475TIP3    H210390   0.578   2.474   3.218
 3476TIP3   OH210391   2.415   1.685   0.306
 3476TIP3    H110392   2.427   1.656   0.216
 3476TIP3    H210393   2.322   1.710   0.310
 3477TIP3   OH210394   3.731   0.306   0.843
 3477TIP3    H110395   3.704   0.292   0.753
 3477TIP3    H210396   3.762   0.220   0.873
 3478TIP3   OH210397   0.223   2.049   4.549
 3478TIP3    H110398   0.263   2.124   4.505
 3478TIP3    H210399   0.274   1.974   4.520
 3479TIP3   OH210400   5.583   0.892   2.202
 3479TIP3    H110401   5.580   0.892   2.298
 3479TIP3    H210402   5.508   0.838   2.176
 3480TIP3   OH210403   0.816   5.981   0.496
 3480TIP3    H110404   0.832   6.029   0.577
 3480TIP3    H210405   0.903   5.957   0.464
 3481TIP3   OH210406   6.767   5.357   0.830
 3481TIP3    H110407   6.821   5.298   0.884
 3481TIP3    H210408   6.773   5.442   0.875
 3482TIP3   OH210409   3.409   5.048   1.057
 3482TIP3    H110410   3.321   5.052   1.020
 3482TIP3    H210411   3.467   5.057   0.982
 3483TIP3   OH210412   1.678   2.847   2.346
 3483TIP3    H110413   1.704   2.901   2.421
 3483TIP3    H210414   1.616   2.902   2.298
 3484TIP3   OH210415   1.052   5.290   2.877
 3484TIP3    H110416   1.095   5.252   2.954
 3484TIP3    H210417   0.981   5.343   2.914
 3485TIP3   OH210418   6.414   2.628   4.007
 3485TIP3    H110419   6.498   2.592   3.978
 3485TIP3    H210420   6.410   2.714   3.965
 3486TIP3   OH210421   2.162   4.035   0.232
 3486TIP3    H110422   2.202   4.122   0.245
 3486TIP3    H210423   2.121   4.041   0.146
 3487TIP3   OH210424   2.521   2.098   3.255
 3487TIP3    H110425   2.451   2.153   3.291
 3487TIP3    H210426   2.584   2.089   3.326
 3488TIP3   OH210427   6.398   2.324   4.165
 3488TIP3    H110428   6.420   2.279   4.083
 3488TIP3    H210429   6.419   2.416   4.149
 3489TIP3   OH210430   5.111   1.986   2.910
 3489TIP3    H110431   5.192   2.037   2.914
 3489TIP3    H210432   5.120   1.921   2.980
 3490TIP3   OH210433   2.053   2.288   2.484
 3490TIP3    H110434   2.023   2.350   2.417
 3490TIP3    H210435   1.974   2.258   2.527
 3491TIP3   OH210436   2.869   0.664   5.837
 3491TIP3    H110437   2.919   0.714   5.773
 3491TIP3    H210438   2.786   0.645   5.793
 3492TIP3   OH210439   1.643   2.652   4.509
 3492TIP3    H110440   1.557   2.643   4.549
 3492TIP3    H210441   1.625   2.690   4.422
 3493TIP3   OH210442   4.811   5.116   3.456
 3493TIP3    H110443   4.782   5.135   3.367
 3493TIP3    H210444   4.739   5.147   3.512
 3494TIP3   OH210445   4.118   4.523   1.066
 3494TIP3    H110446   4.190   4.471   1.031
 3494TIP3    H210447   4.158   4.607   1.090
 3495TIP3   OH210448   1.842   6.284   4.286
 3495TIP3    H110449   1.837   6.197   4.247
 3495TIP3    H210450   1.845   6.343   4.211
 3496TIP3   OH210451   6.910   1.559   5.078
 3496TIP3    H110452   6.966   1.571   5.002
 3496TIP3    H210453   6.850   1.488   5.053
 3497TIP3   OH210454   5.564   2.863   1.459
 3497TIP3    H110455   5.522   2.926   1.400
 3497TIP3    H210456   5.511   2.867   1.539
 3498TIP3   OH210457   5.475   5.412   3.151
 3498TIP3    H110458   5.516   5.432   3.067
 3498TIP3    H210459   5.382   5.402   3.131
 3499TIP3   OH210460   1.862   0.706   4.729
 3499TIP3    H110461   1.842   0.628   4.678
 3499TIP3    H210462   1.860   0.777   4.665
 3500TIP3   OH210463   7.109   0.529   5.748
 3500TIP3    H110464   7.022   0.517   5.786
 3500TIP3    H210465   7.137   0.615   5.780
 3501TIP3   OH210466   6.953   3.118   4.655
 3501TIP3    H110467   7.002   3.182   4.705
 3501TIP3    H210468   7.017   3.052   4.629
 3502TIP3   OH210469   3.755   4.633   0.013
 3502TIP3    H110470   3.677   4.669   0.055
 3502TIP3    H210471   3.742   4.539   0.014
 3503TIP3   OH210472   5.563   3.024   2.390
 3503TIP3    H110473   5.561   3.028   2.295
 3503TIP3    H210474   5.518   2.942   2.411
 3504TIP3   OH210475   1.120   1.198   4.481
 3504TIP3    H110476   1.051   1.245   4.528
 3504TIP3    H210477   1.110   1.225   4.390
 3505TIP3   OH210478   4.769   4.576   0.051
 3505TIP3    H110479   4.778   4.636  -0.023
 3505TIP3    H210480   4.848   4.591   0.103
 3506TIP3   OH210481   2.592   6.494   3.791
 3506TIP3    H110482   2.532   6.434   3.835
 3506TIP3    H210483   2.559   6.502   3.702
 3507TIP3   OH210484   0.467   5.202   5.830
 3507TIP3    H110485   0.486   5.262   5.902
 3507TIP3    H210486   0.552   5.169   5.803
 3508TIP3   OH210487   5.774   6.155   3.492
 3508TIP3    H110488   5.682   6.180   3.494
 3508TIP3    H210489   5.777   6.081   3.431
 3509TIP3   OH210490   6.922   6.595   0.467
 3509TIP3    H110491   6.875   6.606   0.549
 3509TIP3    H210492   6.998   6.652   0.475
 3510TIP3   OH210493   4.492   2.466   3.089
 3510TIP3    H110494   4.585   2.449   3.083
 3510TIP3    H210495   4.457   2.442   3.003
 3511TIP3   OH210496   0.126   5.626   0.494
 3511TIP3    H110497   0.151   5.718   0.484
 3511TIP3    H210498   0.047   5.617   0.442
 3512TIP3   OH210499   7.219   4.829   2.580
 3512TIP3    H110500   7.227   4.923   2.596
 3512TIP3    H210501   7.170   4.796   2.655
 3513TIP3   OH210502   3.807   1.714   5.332
 3513TIP3    H110503   3.902   1.713   5.318
 3513TIP3    H210504   3.775   1.785   5.276
 3514TIP3   OH210505   2.316   1.647   4.916
 3514TIP3    H110506   2.284   1.569   4.963
 3514TIP3    H210507   2.258   1.655   4.841
 3515TIP3   OH210508   1.022   6.014   2.077
 3515TIP3    H110509   1.102   5.980   2.036
 3515TIP3    H210510   1.054   6.073   2.146
 3516TIP3   OH210511   5.948   3.081   3.079
 3516TIP3    H110512   5.983   3.057   3.165
 3516TIP3    H210513   5.868   3.130   3.099
 3517TIP3   OH210514   4.378   1.021   5.590
 3517TIP3    H110515   4.337   0.959   5.529
 3517TIP3    H210516   4.310   1.038   5.655
 3518TIP3   OH210517   4.574   2.372   4.814
 3518TIP3    H110518   4.479   2.359   4.815
 3518TIP3    H210519   4.599   2.353   4.724
 3519TIP3   OH210520   4.382   4.614   5.426
 3519TIP3    H110521   4.315   4.681   5.409
 3519TIP3    H210522   4.435   4.651   5.496
 3520TIP3   OH210523   2.805   5.901   2.215
 3520TIP3    H110524   2.884   5.954   2.222
 3520TIP3    H210525   2.830   5.826   2.162
 3521TIP3   OH210526   4.645   6.669   3.331
 3521TIP3    H110527   4.653   6.642   3.239
 3521TIP3    H210528   4.566   6.723   3.333
 3522TIP3   OH210529   0.577   3.258   3.520
 3522TIP3    H110530   0.635   3.285   3.592
 3522TIP3    H210531   0.633   3.260   3.443
 3523TIP3   OH210532   5.426   1.188   0.474
 3523TIP3    H110533   5.376   1.263   0.506
 3523TIP3    H210534   5.509   1.226   0.444
 3524TIP3   OH210535   6.728   5.563   3.975
 3524TIP3    H110536   6.661   5.625   3.946
 3524TIP3    H210537   6.805   5.618   3.991
 3525TIP3   OH210538   4.765   2.478   2.203
 3525TIP3    H110539   4.836   2.533   2.236
 3525TIP3    H210540   4.791   2.457   2.113
 3526TIP3   OH210541   2.583   0.161   5.726
 3526TIP3    H110542   2.556   0.073   5.753
 3526TIP3    H210543   2.616   0.202   5.806
 3527TIP3   OH210544   3.949   1.589   2.220
 3527TIP3    H110545   3.974   1.594   2.128
 3527TIP3    H210546   3.976   1.672   2.258
 3528TIP3   OH210547   0.459   5.589   2.172
 3528TIP3    H110548   0.462   5.499   2.137
 3528TIP3    H210549   0.550   5.608   2.196
 3529TIP3   OH210550   5.593   2.346   4.125
 3529TIP3    H110551   5.588   2.362   4.030
 3529TIP3    H210552   5.514   2.388   4.160
 3530TIP3   OH210553   0.571   3.419   1.884
 3530TIP3    H110554   0.618   3.471   1.950
 3530TIP3    H210555   0.548   3.482   1.816
 3531TIP3   OH210556   7.003   2.396   0.100
 3531TIP3    H110557   6.995   2.491   0.115
 3531TIP3    H210558   6.986   2.357   0.185
 3532TIP3   OH210559   0.805   0.829   1.210
 3532TIP3    H110560   0.787   0.888   1.137
 3532TIP3    H210561   0.877   0.774   1.179
 3533TIP3   OH210562   4.367   3.023   4.383
 3533TIP3    H110563   4.395   2.977   4.462
 3533TIP3    H210564   4.277   3.050   4.402
 3534TIP3   OH210565   5.830   3.770   0.679
 3534TIP3    H110566   5.786   3.685   0.689
 3534TIP3    H210567   5.775   3.818   0.617
 3535TIP3   OH210568   1.368   3.083   3.472
 3535TIP3    H110569   1.393   3.137   3.547
 3535TIP3    H210570   1.449   3.039   3.447
 3536TIP3   OH210571   0.208   5.257   3.339
 3536TIP3    H110572   0.173   5.205   3.267
 3536TIP3    H210573   0.207   5.347   3.305
 3537TIP3   OH210574   1.780   5.873   0.818
 3537TIP3    H110575   1.773   5.778   0.828
 3537TIP3    H210576   1.788   5.886   0.723
 3538TIP3   OH210577   3.433   4.105   5.163
 3538TIP3    H110578   3.442   4.097   5.258
 3538TIP3    H210579   3.523   4.108   5.130
 3539TIP3   OH210580   0.505   1.085   0.364
 3539TIP3    H110581   0.470   1.028   0.433
 3539TIP3    H210582   0.563   1.145   0.410
 3540TIP3   OH210583   7.004   5.064   5.816
 3540TIP3    H110584   6.979   4.999   5.881
 3540TIP3    H210585   6.921   5.096   5.781
 3541TIP3   OH210586   1.738   2.407   1.674
 3541TIP3    H110587   1.703   2.482   1.721
 3541TIP3    H210588   1.661   2.366   1.634
 3542TIP3   OH210589   7.082   5.008   2.990
 3542TIP3    H110590   7.015   5.064   3.029
 3542TIP3    H210591   7.073   4.925   3.036
 3543TIP3   OH210592   6.071   4.290   2.797
 3543TIP3    H110593   6.129   4.296   2.721
 3543TIP3    H210594   6.115   4.228   2.856
 3544TIP3   OH210595   1.554   6.299   0.286
 3544TIP3    H110596   1.475   6.288   0.339
 3544TIP3    H210597   1.555   6.391   0.262
 3545TIP3   OH210598   6.265   6.563   0.531
 3545TIP3    H110599   6.305   6.646   0.504
 3545TIP3    H210600   6.307   6.541   0.614
 3546TIP3   OH210601   6.689   5.424   4.958
 3546TIP3    H110602   6.737   5.485   5.015
 3546TIP3    H210603   6.745   5.346   4.954
 3547TIP3   OH210604   1.906   5.708   1.958
 3547TIP3    H110605   1.940   5.689   1.871
 3547TIP3    H210606   1.923   5.801   1.972
 3548TIP3   OH210607   6.502   2.561   0.935
 3548TIP3    H110608   6.421   2.605   0.962
 3548TIP3    H210609   6.502   2.567   0.839
 3549TIP3   OH210610   1.966   3.164   2.398
 3549TIP3    H110611   1.965   3.232   2.466
 3549TIP3    H210612   1.921   3.090   2.438
 3550TIP3   OH210613   0.651   5.889   3.926
 3550TIP3    H110614   0.557   5.904   3.927
 3550TIP3    H210615   0.670   5.844   4.009
 3551TIP3   OH210616   5.073   4.607   0.144
 3551TIP3    H110617   5.063   4.693   0.184
 3551TIP3    H210618   5.138   4.620   0.075
 3552TIP3   OH210619   5.116   5.747   2.919
 3552TIP3    H110620   5.025   5.718   2.924
 3552TIP3    H210621   5.129   5.766   2.826
 3553TIP3   OH210622   5.744   1.424   4.740
 3553TIP3    H110623   5.696   1.464   4.667
 3553TIP3    H210624   5.698   1.453   4.818
 3554TIP3   OH210625   0.652   1.388   1.563
 3554TIP3    H110626   0.569   1.340   1.561
 3554TIP3    H210627   0.654   1.429   1.649
 3555TIP3   OH210628   4.841   6.339   3.224
 3555TIP3    H110629   4.886   6.385   3.154
 3555TIP3    H210630   4.911   6.301   3.277
 3556TIP3   OH210631   5.242   0.471   1.391
 3556TIP3    H110632   5.197   0.390   1.417
 3556TIP3    H210633   5.334   0.455   1.410
 3557TIP3   OH210634   3.023   6.093   1.473
 3557TIP3    H110635   3.020   5.999   1.493
 3557TIP3    H210636   3.055   6.097   1.383
 3558TIP3   OH210637   4.053   5.524   4.216
 3558TIP3    H110638   4.086   5.529   4.306
 3558TIP3    H210639   4.056   5.430   4.196
 3559TIP3   OH210640   2.948   2.463   5.738
 3559TIP3    H110641   2.921   2.464   5.647
 3559TIP3    H210642   2.875   2.422   5.784
 3560TIP3   OH210643   0.211   0.482   3.199
 3560TIP3    H110644   0.260   0.553   3.242
 3560TIP3    H210645   0.119   0.501   3.216
 3561TIP3   OH210646   7.014   3.642   2.701
 3561TIP3    H110647   6.919   3.656   2.705
 3561TIP3    H210648   7.043   3.701   2.631
 3562TIP3   OH210649   6.403   4.831   1.114
 3562TIP3    H110650   6.414   4.793   1.027
 3562TIP3    H210651   6.378   4.922   1.099
 3563TIP3   OH210652   1.434   3.343   0.553
 3563TIP3    H110653   1.373   3.293   0.500
 3563TIP3    H210654   1.431   3.303   0.640
 3564TIP3   OH210655   4.829   0.646   1.656
 3564TIP3    H110656   4.768   0.706   1.614
 3564TIP3    H210657   4.913   0.664   1.614
 3565TIP3   OH210658   5.506   6.302   2.601
 3565TIP3    H110659   5.443   6.372   2.609
 3565TIP3    H210660   5.458   6.223   2.624
 3566TIP3   OH210661   4.203   3.838   5.122
 3566TIP3    H110662   4.122   3.881   5.150
 3566TIP3    H210663   4.175   3.753   5.087
 3567TIP3   OH210664   4.856   5.975   5.226
 3567TIP3    H110665   4.811   6.038   5.170
 3567TIP3    H210666   4.940   5.961   5.183
 3568TIP3   OH210667   3.039   2.441   1.338
 3568TIP3    H110668   3.078   2.499   1.403
 3568TIP3    H210669   3.076   2.470   1.254
 3569TIP3   OH210670   3.735   2.564   1.440
 3569TIP3    H110671   3.662   2.568   1.378
 3569TIP3    H210672   3.791   2.638   1.416
 3570TIP3   OH210673   1.617   2.354   2.900
 3570TIP3    H110674   1.544   2.333   2.958
 3570TIP3    H210675   1.679   2.281   2.911
 3571TIP3   OH210676   2.622   0.041   0.821
 3571TIP3    H110677   2.597   0.123   0.864
 3571TIP3    H210678   2.716   0.033   0.835
 3572TIP3   OH210679   2.040   0.562   0.613
 3572TIP3    H110680   2.028   0.635   0.553
 3572TIP3    H210681   2.133   0.541   0.608
 3573TIP3   OH210682   0.462   3.210   5.445
 3573TIP3    H110683   0.411   3.292   5.445
 3573TIP3    H210684   0.551   3.237   5.422
 3574TIP3   OH210685   4.204   4.643   2.714
 3574TIP3    H110686   4.263   4.577   2.678
 3574TIP3    H210687   4.260   4.698   2.770
 3575TIP3   OH210688   6.173   3.564   5.736
 3575TIP3    H110689   6.227   3.578   5.814
 3575TIP3    H210690   6.144   3.473   5.743
 3576TIP3   OH210691   0.834   6.138   3.931
 3576TIP3    H110692   0.879   6.090   4.001
 3576TIP3    H210693   0.746   6.154   3.966
 3577TIP3   OH210694   1.305   2.133   3.764
 3577TIP3    H110695   1.262   2.077   3.829
 3577TIP3    H210696   1.395   2.101   3.761
 3578TIP3   OH210697   3.531   6.524   3.677
 3578TIP3    H110698   3.540   6.609   3.722
 3578TIP3    H210699   3.441   6.524   3.644
 3579TIP3   OH210700   6.496   0.768   3.810
 3579TIP3    H110701   6.581   0.811   3.819
 3579TIP3    H210702   6.462   0.800   3.727
 3580TIP3   OH210703   0.444   3.871   0.970
 3580TIP3    H110704   0.526   3.885   1.017
 3580TIP3    H210705   0.438   3.776   0.959
 3581TIP3   OH210706   7.167   1.373   0.952
 3581TIP3    H110707   7.145   1.403   0.863
 3581TIP3    H210708   7.085   1.383   1.001
 3582TIP3   OH210709   4.329   4.315   0.379
 3582TIP3    H110710   4.385   4.391   0.397
 3582TIP3    H210711   4.240   4.350   0.378
 3583TIP3   OH210712   0.128   0.674   1.262
 3583TIP3    H110713   0.113   0.590   1.307
 3583TIP3    H210714   0.067   0.672   1.188
 3584TIP3   OH210715   3.569   0.383   0.440
 3584TIP3    H110716   3.662   0.383   0.416
 3584TIP3    H210717   3.553   0.295   0.474
 3585TIP3   OH210718   5.726   2.705   5.508
 3585TIP3    H110719   5.700   2.796   5.519
 3585TIP3    H210720   5.678   2.657   5.575
 3586TIP3   OH210721   5.319   2.524   3.694
 3586TIP3    H110722   5.227   2.550   3.700
 3586TIP3    H210723   5.352   2.568   3.615
 3587TIP3   OH210724   3.486   4.414   5.824
 3587TIP3    H110725   3.541   4.368   5.888
 3587TIP3    H210726   3.539   4.490   5.798
 3588TIP3   OH210727   1.575   6.580   0.794
 3588TIP3    H110728   1.530   6.637   0.731
 3588TIP3    H210729   1.666   6.608   0.790
 3589TIP3   OH210730   1.771   0.851   1.954
 3589TIP3    H110731   1.698   0.790   1.955
 3589TIP3    H210732   1.733   0.934   1.983
 3590TIP3   OH210733   3.790   3.506   4.706
 3590TIP3    H110734   3.744   3.587   4.683
 3590TIP3    H210735   3.795   3.457   4.625
 3591TIP3   OH210736   1.583   4.732   5.113
 3591TIP3    H110737   1.504   4.777   5.084
 3591TIP3    H210738   1.655   4.786   5.080
 3592TIP3   OH210739   7.088   3.769   2.959
 3592TIP3    H110740   7.182   3.754   2.945
 3592TIP3    H210741   7.046   3.725   2.885
 3593TIP3   OH210742   1.979   2.431   1.366
 3593TIP3    H110743   2.038   2.464   1.298
 3593TIP3    H210744   1.898   2.481   1.353
 3594TIP3   OH210745   2.768   3.103   5.071
 3594TIP3    H110746   2.748   3.099   4.978
 3594TIP3    H210747   2.827   3.178   5.080
 3595TIP3   OH210748   6.927   4.868   4.575
 3595TIP3    H110749   6.926   4.862   4.670
 3595TIP3    H210750   6.862   4.935   4.554
 3596TIP3   OH210751   3.769   2.623   0.735
 3596TIP3    H110752   3.844   2.568   0.757
 3596TIP3    H210753   3.803   2.713   0.739
 3597TIP3   OH210754   0.136   1.421   1.445
 3597TIP3    H110755   0.114   1.451   1.357
 3597TIP3    H210756   0.069   1.461   1.501
 3598TIP3   OH210757   3.525   1.624   2.314
 3598TIP3    H110758   3.576   1.572   2.252
 3598TIP3    H210759   3.460   1.668   2.259
 3599TIP3   OH210760   3.963   4.162   5.783
 3599TIP3    H110761   4.041   4.107   5.770
 3599TIP3    H210762   3.905   4.109   5.836
 3600TIP3   OH210763   1.673   2.902   1.194
 3600TIP3    H110764   1.765   2.927   1.186
 3600TIP3    H210765   1.643   2.895   1.103
 3601TIP3   OH210766   2.007   3.358   2.608
 3601TIP3    H110767   1.949   3.340   2.681
 3601TIP3    H210768   2.077   3.411   2.646
 3602TIP3   OH210769   2.369   3.938   0.891
 3602TIP3    H110770   2.417   3.966   0.812
 3602TIP3    H210771   2.329   3.854   0.866
 3603TIP3   OH210772   0.917   1.366   3.015
 3603TIP3    H110773   0.997   1.353   3.066
 3603TIP3    H210774   0.849   1.381   3.079
 3604TIP3   OH210775   1.304   5.880   3.823
 3604TIP3    H110776   1.399   5.865   3.824
 3604TIP3    H210777   1.293   5.965   3.781
 3605TIP3   OH210778   0.362   3.407   0.198
 3605TIP3    H110779   0.374   3.458   0.118
 3605TIP3    H210780   0.382   3.317   0.172
 3606TIP3   OH210781   3.024   3.166   0.732
 3606TIP3    H110782   2.982   3.231   0.788
 3606TIP3    H210783   2.952   3.112   0.699
 3607TIP3   OH210784   4.806   3.462   5.887
 3607TIP3    H110785   4.800   3.370   5.862
 3607TIP3    H210786   4.874   3.465   5.954
 3608TIP3   OH210787   2.000   0.106   3.819
 3608TIP3    H110788   1.978   0.019   3.851
 3608TIP3    H210789   1.951   0.166   3.876
 3609TIP3   OH210790   6.049   3.201   1.354
 3609TIP3    H110791   6.102   3.274   1.388
 3609TIP3    H210792   6.112   3.147   1.307
 3610TIP3   OH210793   4.468   1.496   4.989
 3610TIP3    H110794   4.493   1.425   5.048
 3610TIP3    H210795   4.453   1.452   4.905
 3611TIP3   OH210796   6.386   0.375   0.875
 3611TIP3    H110797   6.347   0.318   0.809
 3611TIP3    H210798   6.446   0.318   0.924
 3612TIP3   OH210799   6.797   2.629   3.312
 3612TIP3    H110800   6.722   2.582   3.347
 3612TIP3    H210801   6.868   2.565   3.311
 3613TIP3   OH210802   6.188   2.396   0.504
 3613TIP3    H110803   6.256   2.457   0.474
 3613TIP3    H210804   6.233   2.311   0.509
 3614TIP3   OH210805   2.703   4.643   2.494
 3614TIP3    H110806   2.653   4.724   2.509
 3614TIP3    H210807   2.663   4.604   2.416
 3615TIP3   OH210808   4.483   4.012   3.661
 3615TIP3    H110809   4.440   4.053   3.586
 3615TIP3    H210810   4.534   3.940   3.623
 3616TIP3   OH210811   6.112   5.607   1.794
 3616TIP3    H110812   6.144   5.565   1.714
 3616TIP3    H210813   6.158   5.691   1.796
 3617TIP3   OH210814   0.183   1.066   3.081
 3617TIP3    H110815   0.163   1.121   3.157
 3617TIP3    H210816   0.214   1.126   3.014
 3618TIP3   OH210817   6.476   2.409   1.157
 3618TIP3    H110818   6.524   2.433   1.078
 3618TIP3    H210819   6.487   2.315   1.164
 3619TIP3   OH210820   4.594   2.191   2.231
 3619TIP3    H110821   4.522   2.130   2.214
 3619TIP3    H210822   4.564   2.273   2.193
 3620TIP3   OH210823   2.879   0.259   1.742
 3620TIP3    H110824   2.873   0.208   1.823
 3620TIP3    H210825   2.968   0.245   1.711
 3621TIP3   OH210826   6.634   5.861   0.703
 3621TIP3    H110827   6.613   5.771   0.681
 3621TIP3    H210828   6.662   5.900   0.621
 3622TIP3   OH210829   0.232   5.073   1.588
 3622TIP3    H110830   0.264   5.093   1.500
 3622TIP3    H210831   0.283   5.130   1.646
 3623TIP3   OH210832   7.182   6.603   0.848
 3623TIP3    H110833   7.197   6.634   0.759
 3623TIP3    H210834   7.252   6.643   0.900
 3624TIP3   OH210835   1.473   0.373   1.575
 3624TIP3    H110836   1.513   0.374   1.488
 3624TIP3    H210837   1.380   0.358   1.558
 3625TIP3   OH210838   5.946   3.636   0.277
 3625TIP3    H110839   6.033   3.668   0.304
 3625TIP3    H210840   5.889   3.656   0.351
 3626TIP3   OH210841   3.172   6.509   4.867
 3626TIP3    H110842   3.247   6.488   4.923
 3626TIP3    H210843   3.174   6.442   4.798
 3627TIP3   OH210844   2.426   2.340   4.361
 3627TIP3    H110845   2.454   2.290   4.437
 3627TIP3    H210846   2.463   2.427   4.374
 3628TIP3   OH210847   2.912   0.756   2.389
 3628TIP3    H110848   2.988   0.784   2.337
 3628TIP3    H210849   2.887   0.671   2.351
 3629TIP3   OH210850   0.535   2.890   1.246
 3629TIP3    H110851   0.629   2.896   1.232
 3629TIP3    H210852   0.525   2.861   1.336
 3630TIP3   OH210853   1.915   1.908   3.840
 3630TIP3    H110854   1.859   1.905   3.762
 3630TIP3    H210855   1.917   1.818   3.872
 3631TIP3   OH210856   6.819   6.041   1.863
 3631TIP3    H110857   6.906   6.082   1.854
 3631TIP3    H210858   6.759   6.102   1.820
 3632TIP3   OH210859   4.634   5.553   4.739
 3632TIP3    H110860   4.602   5.558   4.649
 3632TIP3    H210861   4.604   5.635   4.779
 3633TIP3   OH210862   1.733   6.272   5.122
 3633TIP3    H110863   1.752   6.343   5.184
 3633TIP3    H210864   1.800   6.207   5.139
 3634TIP3   OH210865   6.428   6.013   5.192
 3634TIP3    H110866   6.361   5.965   5.143
 3634TIP3    H210867   6.382   6.051   5.266
 3635TIP3   OH210868   6.824   1.652   3.892
 3635TIP3    H110869   6.912   1.650   3.929
 3635TIP3    H210870   6.832   1.611   3.806
 3636TIP3   OH210871   0.306   3.790   1.990
 3636TIP3    H110872   0.364   3.840   2.048
 3636TIP3    H210873   0.337   3.812   1.902
 3637TIP3   OH210874   1.336   4.896   1.794
 3637TIP3    H110875   1.423   4.916   1.757
 3637TIP3    H210876   1.344   4.916   1.887
 3638TIP3   OH210877   3.471   1.850   0.391
 3638TIP3    H110878   3.396   1.902   0.364
 3638TIP3    H210879   3.434   1.766   0.418
 3639TIP3   OH210880   6.705   0.315   3.422
 3639TIP3    H110881   6.784   0.280   3.462
 3639TIP3    H210882   6.634   0.262   3.458
 3640TIP3   OH210883   3.440   2.725   0.040
 3640TIP3    H110884   3.383   2.660   0.081
 3640TIP3    H210885   3.406   2.809   0.070
 3641TIP3   OH210886   3.939   0.309   3.044
 3641TIP3    H110887   3.946   0.328   3.137
 3641TIP3    H210888   4.022   0.340   3.007
 3642TIP3   OH210889   4.424   6.397   3.055
 3642TIP3    H110890   4.456   6.400   3.145
 3642TIP3    H210891   4.424   6.488   3.026
 3643TIP3   OH210892   6.599   3.669   0.661
 3643TIP3    H110893   6.561   3.581   0.669
 3643TIP3    H210894   6.633   3.689   0.748
 3644TIP3   OH210895   3.680   5.374   1.761
 3644TIP3    H110896   3.727   5.457   1.746
 3644TIP3    H210897   3.669   5.337   1.673
 3645TIP3   OH210898   3.758   2.997   1.012
 3645TIP3    H110899   3.754   3.088   0.982
 3645TIP3    H210900   3.755   2.945   0.931
 3646TIP3   OH210901   7.168   1.776   0.155
 3646TIP3    H110902   7.262   1.774   0.176
 3646TIP3    H210903   7.144   1.868   0.161
 3647TIP3   OH210904   6.358   4.951   1.584
 3647TIP3    H110905   6.300   4.927   1.512
 3647TIP3    H210906   6.323   4.905   1.660
 3648TIP3   OH210907   6.203   1.301   2.478
 3648TIP3    H110908   6.161   1.336   2.556
 3648TIP3    H210909   6.296   1.317   2.491
 3649TIP3   OH210910   4.604   6.225   1.399
 3649TIP3    H110911   4.649   6.271   1.328
 3649TIP3    H210912   4.659   6.149   1.417
 3650TIP3   OH210913   3.718   4.695   4.209
 3650TIP3    H110914   3.669   4.777   4.216
 3650TIP3    H210915   3.684   4.641   4.281
 3651TIP3   OH210916   1.194   6.101   4.499
 3651TIP3    H110917   1.268   6.132   4.551
 3651TIP3    H210918   1.231   6.085   4.412
 3652TIP3   OH210919   1.199   0.453   2.526
 3652TIP3    H110920   1.127   0.468   2.465
 3652TIP3    H210921   1.272   0.502   2.489
 3653TIP3   OH210922   6.622   2.819   0.582
 3653TIP3    H110923   6.537   2.857   0.604
 3653TIP3    H210924   6.616   2.799   0.489
 3654TIP3   OH210925   1.997   2.249   3.477
 3654TIP3    H110926   2.036   2.336   3.481
 3654TIP3    H210927   2.059   2.192   3.522
 3655TIP3   OH210928   5.570   6.053   4.020
 3655TIP3    H110929   5.597   5.970   4.060
 3655TIP3    H210930   5.651   6.089   3.984
 3656TIP3   OH210931   3.922   6.750   0.219
 3656TIP3    H110932   3.931   6.809   0.145
 3656TIP3    H210933   4.012   6.735   0.250
 3657TIP3   OH210934   5.151   0.603   1.137
 3657TIP3    H110935   5.137   0.541   1.209
 3657TIP3    H210936   5.219   0.562   1.083
 3658TIP3   OH210937   0.100   1.761   3.902
 3658TIP3    H110938   0.073   1.672   3.924
 3658TIP3    H210939   0.132   1.755   3.812
 3659TIP3   OH210940   5.608   0.674   1.014
 3659TIP3    H110941   5.616   0.637   0.926
 3659TIP3    H210942   5.533   0.733   1.009
 3660TIP3   OH210943   5.701   4.389   5.512
 3660TIP3    H110944   5.727   4.301   5.541
 3660TIP3    H210945   5.653   4.373   5.431
 3661TIP3   OH210946   6.417   0.569   3.516
 3661TIP3    H110947   6.335   0.619   3.514
 3661TIP3    H210948   6.451   0.577   3.426
 3662TIP3   OH210949   5.219   2.732   0.273
 3662TIP3    H110950   5.146   2.773   0.320
 3662TIP3    H210951   5.181   2.706   0.189
 3663TIP3   OH210952   3.563   6.488   0.659
 3663TIP3    H110953   3.517   6.407   0.637
 3663TIP3    H210954   3.496   6.556   0.658
 3664TIP3   OH210955   4.606   2.446   1.058
 3664TIP3    H110956   4.658   2.472   1.135
 3664TIP3    H210957   4.670   2.410   0.997
 3665TIP3   OH210958   0.995   1.426   1.619
 3665TIP3    H110959   0.933   1.425   1.692
 3665TIP3    H210960   0.968   1.502   1.566
 3666TIP3   OH210961   1.949   3.964   2.881
 3666TIP3    H110962   1.960   3.869   2.873
 3666TIP3    H210963   1.867   3.975   2.929
 3667TIP3   OH210964   5.581   5.085   5.453
 3667TIP3    H110965   5.566   5.157   5.391
 3667TIP3    H210966   5.647   5.030   5.410
 3668TIP3   OH210967   3.599   2.211   1.427
 3668TIP3    H110968   3.523   2.179   1.379
 3668TIP3    H210969   3.625   2.292   1.381
 3669TIP3   OH210970   5.780   3.224   1.356
 3669TIP3    H110971   5.781   3.317   1.335
 3669TIP3    H210972   5.868   3.205   1.388
 3670TIP3   OH210973   4.072   1.102   3.975
 3670TIP3    H110974   4.021   1.022   3.987
 3670TIP3    H210975   4.031   1.145   3.901
 3671TIP3   OH210976   5.480   1.793   3.563
 3671TIP3    H110977   5.422   1.842   3.621
 3671TIP3    H210978   5.568   1.827   3.584
 3672TIP3   OH210979   0.586   5.308   0.346
 3672TIP3    H110980   0.642   5.382   0.371
 3672TIP3    H210981   0.519   5.304   0.414
 3673TIP3   OH210982   0.723   3.315   5.380
 3673TIP3    H110983   0.742   3.408   5.386
 3673TIP3    H210984   0.780   3.283   5.310
 3674TIP3   OH210985   3.909   1.771   2.413
 3674TIP3    H110986   3.992   1.769   2.460
 3674TIP3    H210987   3.843   1.787   2.481
 3675TIP3   OH210988   3.926   1.467   4.494
 3675TIP3    H110989   3.837   1.449   4.522
 3675TIP3    H210990   3.933   1.428   4.407
 3676TIP3   OH210991   5.786   6.454   3.289
 3676TIP3    H110992   5.786   6.395   3.213
 3676TIP3    H210993   5.846   6.524   3.265
 3677TIP3   OH210994   3.556   0.179   0.648
 3677TIP3    H110995   3.480   0.158   0.702
 3677TIP3    H210996   3.560   0.109   0.583
 3678TIP3   OH210997   4.335   0.872   1.628
 3678TIP3    H110998   4.428   0.856   1.647
 3678TIP3    H210999   4.309   0.799   1.572
 3679TIP3   OH211000   1.588   2.192   4.711
 3679TIP3    H111001   1.675   2.232   4.721
 3679TIP3    H211002   1.575   2.188   4.617
 3680TIP3   OH211003   5.965   1.648   2.157
 3680TIP3    H111004   6.030   1.580   2.144
 3680TIP3    H211005   5.955   1.688   2.070
 3681TIP3   OH211006   2.546   6.107   5.484
 3681TIP3    H111007   2.553   6.033   5.424
 3681TIP3    H211008   2.513   6.070   5.565
 3682TIP3   OH211009   1.025   4.087   5.354
 3682TIP3    H111010   0.944   4.122   5.317
 3682TIP3    H211011   1.008   3.993   5.364
 3683TIP3   OH211012   6.901   1.728   1.768
 3683TIP3    H111013   6.892   1.726   1.672
 3683TIP3    H211014   6.980   1.779   1.784
 3684TIP3   OH211015   4.589   1.270   5.720
 3684TIP3    H111016   4.615   1.218   5.644
 3684TIP3    H211017   4.633   1.354   5.708
 3685TIP3   OH211018   5.032   4.386   0.279
 3685TIP3    H111019   5.058   4.460   0.224
 3685TIP3    H211020   5.063   4.309   0.231
 3686TIP3   OH211021   4.404   3.569   1.039
 3686TIP3    H111022   4.368   3.499   0.985
 3686TIP3    H211023   4.499   3.561   1.029
 3687TIP3   OH211024   2.492   5.009   3.722
 3687TIP3    H111025   2.411   4.963   3.700
 3687TIP3    H211026   2.557   4.975   3.661
 3688TIP3   OH211027   5.824   4.660   4.446
 3688TIP3    H111028   5.805   4.712   4.524
 3688TIP3    H211029   5.801   4.718   4.373
 3689TIP3   OH211030   4.748   3.399   3.590
 3689TIP3    H111031   4.704   3.448   3.521
 3689TIP3    H211032   4.841   3.414   3.575
 3690TIP3   OH211033   6.341   2.890   0.858
 3690TIP3    H111034   6.361   2.894   0.764
 3690TIP3    H211035   6.423   2.913   0.901
 3691TIP3   OH211036   6.443   1.571   5.675
 3691TIP3    H111037   6.450   1.618   5.758
 3691TIP3    H211038   6.428   1.640   5.610
 3692TIP3   OH211039   0.225   5.323   0.263
 3692TIP3    H111040   0.270   5.241   0.283
 3692TIP3    H211041   0.282   5.391   0.298
 3693TIP3   OH211042   1.342   1.305   3.513
 3693TIP3    H111043   1.257   1.286   3.475
 3693TIP3    H211044   1.402   1.245   3.469
 3694TIP3   OH211045   3.891   2.353   1.125
 3694TIP3    H111046   3.864   2.262   1.141
 3694TIP3    H211047   3.826   2.386   1.063
 3695TIP3   OH211048   6.094   4.008   3.569
 3695TIP3    H111049   6.044   4.088   3.551
 3695TIP3    H211050   6.140   3.989   3.488
 3696TIP3   OH211051   3.568   5.965   4.897
 3696TIP3    H111052   3.618   5.888   4.871
 3696TIP3    H211053   3.479   5.948   4.867
 3697TIP3   OH211054   2.462   3.686   5.836
 3697TIP3    H111055   2.532   3.741   5.871
 3697TIP3    H211056   2.497   3.654   5.753
 3698TIP3   OH211057   5.768   3.392   3.783
 3698TIP3    H111058   5.854   3.351   3.783
 3698TIP3    H211059   5.748   3.407   3.876
 3699TIP3   OH211060   1.368   3.597   0.465
 3699TIP3    H111061   1.359   3.598   0.369
 3699TIP3    H211062   1.369   3.504   0.488
 3700TIP3   OH211063   0.168   3.960   4.620
 3700TIP3    H111064   0.219   3.899   4.566
 3700TIP3    H211065   0.123   3.904   4.683
 3701TIP3   OH211066   1.094   5.098   3.089
 3701TIP3    H111067   1.029   5.042   3.047
 3701TIP3    H211068   1.046   5.143   3.158
 3702TIP3   OH211069   3.112   1.272   1.868
 3702TIP3    H111070   3.165   1.207   1.913
 3702TIP3    H211071   3.123   1.352   1.919
 3703TIP3   OH211072   1.746   4.396   3.414
 3703TIP3    H111073   1.810   4.453   3.372
 3703TIP3    H211074   1.672   4.395   3.354
 3704TIP3   OH211075   3.809   1.403   3.157
 3704TIP3    H111076   3.845   1.387   3.244
 3704TIP3    H211077   3.842   1.490   3.133
 3705TIP3   OH211078   6.032   0.845   0.873
 3705TIP3    H111079   6.020   0.791   0.951
 3705TIP3    H211080   5.947   0.885   0.857
 3706TIP3   OH211081   4.946   2.058   4.711
 3706TIP3    H111082   4.859   2.074   4.746
 3706TIP3    H211083   4.932   2.044   4.617
 3707TIP3   OH211084   1.090   2.185   4.770
 3707TIP3    H111085   1.183   2.176   4.792
 3707TIP3    H211086   1.044   2.141   4.842
 3708TIP3   OH211087   5.854   6.438   2.889
 3708TIP3    H111088   5.947   6.448   2.869
 3708TIP3    H211089   5.824   6.527   2.909
 3709TIP3   OH211090   0.148   3.173   2.668
 3709TIP3    H111091   0.138   3.079   2.651
 3709TIP3    H211092   0.129   3.215   2.584
 3710TIP3   OH211093   4.042   0.373   3.572
 3710TIP3    H111094   4.121   0.422   3.596
 3710TIP3    H211095   4.052   0.353   3.479
 3711TIP3   OH211096   7.131   2.563   1.950
 3711TIP3    H111097   7.197   2.628   1.924
 3711TIP3    H211098   7.176   2.506   2.012
 3712TIP3   OH211099   4.125   6.001   5.299
 3712TIP3    H111100   4.083   5.990   5.385
 3712TIP3    H211101   4.200   6.057   5.316
 3713TIP3   OH211102   6.224   0.917   0.685
 3713TIP3    H111103   6.163   0.899   0.757
 3713TIP3    H211104   6.167   0.938   0.611
 3714TIP3   OH211105   1.213   2.478   0.240
 3714TIP3    H111106   1.262   2.540   0.187
 3714TIP3    H211107   1.196   2.525   0.322
 3715TIP3   OH211108   2.560   4.878   4.294
 3715TIP3    H111109   2.587   4.927   4.372
 3715TIP3    H211110   2.487   4.929   4.258
 3716TIP3   OH211111   2.385   3.405   1.006
 3716TIP3    H111112   2.341   3.396   1.091
 3716TIP3    H211113   2.434   3.487   1.012
 3717TIP3   OH211114   6.639   4.274   3.747
 3717TIP3    H111115   6.561   4.221   3.766
 3717TIP3    H211116   6.604   4.362   3.734
 3718TIP3   OH211117   2.895   5.277   5.254
 3718TIP3    H111118   2.945   5.356   5.233
 3718TIP3    H211119   2.939   5.207   5.205
 3719TIP3   OH211120   4.618   5.295   1.713
 3719TIP3    H111121   4.657   5.286   1.627
 3719TIP3    H211122   4.594   5.388   1.719
 3720TIP3   OH211123   6.055   0.137   3.208
 3720TIP3    H111124   6.124   0.157   3.145
 3720TIP3    H211125   5.974   0.149   3.159
 3721TIP3   OH211126   2.546   0.859   4.685
 3721TIP3    H111127   2.599   0.788   4.720
 3721TIP3    H211128   2.459   0.845   4.723
 3722TIP3   OH211129   5.806   2.745   3.609
 3722TIP3    H111130   5.823   2.755   3.516
 3722TIP3    H211131   5.731   2.802   3.626
 3723TIP3   OH211132   6.224   2.453   3.879
 3723TIP3    H111133   6.141   2.420   3.912
 3723TIP3    H211134   6.235   2.538   3.922
 3724TIP3   OH211135   1.788   4.914   5.342
 3724TIP3    H111136   1.815   4.912   5.434
 3724TIP3    H211137   1.714   4.975   5.341
 3725TIP3   OH211138   1.786   4.526   0.265
 3725TIP3    H111139   1.867   4.576   0.279
 3725TIP3    H211140   1.729   4.553   0.337
 3726TIP3   OH211141   2.683   3.613   4.254
 3726TIP3    H111142   2.651   3.523   4.256
 3726TIP3    H211143   2.767   3.610   4.299
 3727TIP3   OH211144   6.976   2.279   4.322
 3727TIP3    H111145   6.942   2.191   4.339
 3727TIP3    H211146   7.070   2.268   4.315
 3728TIP3   OH211147   3.817   4.133   0.282
 3728TIP3    H111148   3.881   4.172   0.222
 3728TIP3    H211149   3.813   4.041   0.255
 3729TIP3   OH211150   3.916   0.551   1.607
 3729TIP3    H111151   3.907   0.480   1.543
 3729TIP3    H211152   3.996   0.530   1.655
 3730TIP3   OH211153   6.868   2.344   1.959
 3730TIP3    H111154   6.853   2.435   1.985
 3730TIP3    H211155   6.782   2.310   1.936
 3731TIP3   OH211156   3.401   2.488   0.582
 3731TIP3    H111157   3.376   2.522   0.668
 3731TIP3    H211158   3.329   2.513   0.524
 3732TIP3   OH211159   4.072   5.860   0.757
 3732TIP3    H111160   4.076   5.912   0.837
 3732TIP3    H211161   4.163   5.852   0.730
 3733TIP3   OH211162   6.530   6.516   5.889
 3733TIP3    H111163   6.504   6.466   5.812
 3733TIP3    H211164   6.451   6.562   5.916
 3734TIP3   OH211165   2.548   3.367   2.819
 3734TIP3    H111166   2.635   3.330   2.831
 3734TIP3    H211167   2.529   3.412   2.902
 3735TIP3   OH211168   3.291   4.628   5.763
 3735TIP3    H111169   3.273   4.643   5.855
 3735TIP3    H211170   3.360   4.562   5.762
 3736TIP3   OH211171   2.013   0.559   0.892
 3736TIP3    H111172   2.026   0.654   0.887
 3736TIP3    H211173   2.010   0.531   0.801
 3737TIP3   OH211174   4.112   4.304   3.170
 3737TIP3    H111175   4.158   4.298   3.086
 3737TIP3    H211176   4.047   4.234   3.167
 3738TIP3   OH211177   3.714   3.336   4.486
 3738TIP3    H111178   3.690   3.421   4.448
 3738TIP3    H211179   3.630   3.292   4.500
 3739TIP3   OH211180   5.686   3.774   3.646
 3739TIP3    H111181   5.714   3.700   3.592
 3739TIP3    H211182   5.728   3.850   3.605
 3740TIP3   OH211183   1.378   2.051   4.511
 3740TIP3    H111184   1.306   1.989   4.498
 3740TIP3    H211185   1.430   2.044   4.431
 3741TIP3   OH211186   3.701   4.122   4.585
 3741TIP3    H111187   3.716   4.035   4.549
 3741TIP3    H211188   3.658   4.171   4.515
 3742TIP3   OH211189   3.198   5.414   1.954
 3742TIP3    H111190   3.173   5.343   1.895
 3742TIP3    H211191   3.267   5.377   2.009
 3743TIP3   OH211192   2.137   6.064   1.577
 3743TIP3    H111193   2.062   6.043   1.633
 3743TIP3    H211194   2.127   6.157   1.557
 3744TIP3   OH211195   3.622   0.383   0.106
 3744TIP3    H111196   3.589   0.383   0.016
 3744TIP3    H211197   3.660   0.296   0.117
 3745TIP3   OH211198   3.662   5.060   5.547
 3745TIP3    H111199   3.726   5.016   5.603
 3745TIP3    H211200   3.666   5.152   5.574
 3746TIP3   OH211201   2.613   0.535   5.369
 3746TIP3    H111202   2.517   0.530   5.370
 3746TIP3    H211203   2.642   0.444   5.380
 3747TIP3   OH211204   4.008   3.061   2.597
 3747TIP3    H111205   4.022   3.054   2.503
 3747TIP3    H211206   3.947   2.990   2.618
 3748TIP3   OH211207   1.565   4.039   2.046
 3748TIP3    H111208   1.609   4.029   1.962
 3748TIP3    H211209   1.534   3.951   2.067
 3749TIP3   OH211210   2.679   2.306   1.492
 3749TIP3    H111211   2.702   2.245   1.421
 3749TIP3    H211212   2.700   2.393   1.456
 3750TIP3   OH211213   4.609   3.801   1.147
 3750TIP3    H111214   4.560   3.876   1.180
 3750TIP3    H211215   4.542   3.736   1.127
 3751TIP3   OH211216   3.189   4.029   3.516
 3751TIP3    H111217   3.192   3.949   3.463
 3751TIP3    H211218   3.182   4.099   3.451
 3752TIP3   OH211219   1.164   0.634   1.732
 3752TIP3    H111220   1.222   0.569   1.774
 3752TIP3    H211221   1.211   0.717   1.741
 3753TIP3   OH211222   1.923   4.779   5.162
 3753TIP3    H111223   1.882   4.827   5.234
 3753TIP3    H211224   1.895   4.688   5.175
 3754TIP3   OH211225   0.707   1.407   3.197
 3754TIP3    H111226   0.621   1.365   3.196
 3754TIP3    H211227   0.709   1.455   3.280
 3755TIP3   OH211228   6.753   6.231   3.888
 3755TIP3    H111229   6.770   6.183   3.807
 3755TIP3    H211230   6.841   6.252   3.922
 3756TIP3   OH211231   4.258   1.791   4.217
 3756TIP3    H111232   4.275   1.697   4.229
 3756TIP3    H211233   4.311   1.816   4.142
 3757TIP3   OH211234   1.584   2.620   2.941
 3757TIP3    H111235   1.611   2.529   2.927
 3757TIP3    H211236   1.549   2.621   3.030
 3758TIP3   OH211237   4.755   1.267   4.074
 3758TIP3    H111238   4.840   1.259   4.031
 3758TIP3    H211239   4.719   1.179   4.072
 3759TIP3   OH211240   4.828   4.271   2.564
 3759TIP3    H111241   4.897   4.335   2.543
 3759TIP3    H211242   4.754   4.325   2.592
 3760TIP3   OH211243   0.800   3.578   5.351
 3760TIP3    H111244   0.856   3.599   5.425
 3760TIP3    H211245   0.806   3.655   5.294
 3761TIP3   OH211246   5.643   0.916   1.676
 3761TIP3    H111247   5.721   0.861   1.679
 3761TIP3    H211248   5.631   0.945   1.767
 3762TIP3   OH211249   6.459   3.263   5.059
 3762TIP3    H111250   6.546   3.248   5.021
 3762TIP3    H211251   6.468   3.344   5.108
 3763TIP3   OH211252   5.037   3.631   3.771
 3763TIP3    H111253   5.009   3.563   3.710
 3763TIP3    H211254   5.126   3.606   3.796
 3764TIP3   OH211255   0.814   5.380   2.690
 3764TIP3    H111256   0.880   5.449   2.684
 3764TIP3    H211257   0.864   5.300   2.707
 3765TIP3   OH211258   4.775   5.736   0.764
 3765TIP3    H111259   4.716   5.712   0.836
 3765TIP3    H211260   4.835   5.800   0.802
 3766TIP3   OH211261   7.149   1.787   4.382
 3766TIP3    H111262   7.234   1.782   4.339
 3766TIP3    H211263   7.170   1.788   4.476
 3767TIP3   OH211264   4.453   6.419   5.294
 3767TIP3    H111265   4.427   6.496   5.243
 3767TIP3    H211266   4.519   6.375   5.240
 3768TIP3   OH211267   1.627   1.375   4.255
 3768TIP3    H111268   1.720   1.385   4.236
 3768TIP3    H211269   1.622   1.297   4.310
 3769TIP3   OH211270   3.250   5.848   3.933
 3769TIP3    H111271   3.174   5.902   3.911
 3769TIP3    H211272   3.318   5.910   3.957
 3770TIP3   OH211273   4.445   3.826   0.059
 3770TIP3    H111274   4.480   3.915   0.056
 3770TIP3    H211275   4.509   3.773   0.013
 3771TIP3   OH211276   1.898   0.891   4.925
 3771TIP3    H111277   1.811   0.930   4.932
 3771TIP3    H211278   1.892   0.831   4.851
 3772TIP3   OH211279   3.720   4.146   2.333
 3772TIP3    H111280   3.689   4.175   2.418
 3772TIP3    H211281   3.800   4.097   2.352
 3773TIP3   OH211282   2.595   5.473   4.610
 3773TIP3    H111283   2.642   5.534   4.666
 3773TIP3    H211284   2.661   5.442   4.547
 3774TIP3   OH211285   1.932   1.494   4.820
 3774TIP3    H111286   1.986   1.426   4.780
 3774TIP3    H211287   1.931   1.565   4.755
 3775TIP3   OH211288   0.057   0.259   3.896
 3775TIP3    H111289   0.021   0.319   3.961
 3775TIP3    H211290   0.030   0.296   3.812
 3776TIP3   OH211291   7.098   0.770   1.433
 3776TIP3    H111292   7.134   0.682   1.449
 3776TIP3    H211293   7.033   0.782   1.503
 3777TIP3   OH211294   6.297   0.540   4.645
 3777TIP3    H111295   6.219   0.490   4.668
 3777TIP3    H211296   6.352   0.536   4.723
 3778TIP3   OH211297   2.490   5.893   5.274
 3778TIP3    H111298   2.422   5.826   5.264
 3778TIP3    H211299   2.509   5.921   5.185
 3779TIP3   OH211300   3.430   3.552   3.697
 3779TIP3    H111301   3.469   3.479   3.744
 3779TIP3    H211302   3.504   3.598   3.658
 3780TIP3   OH211303   3.091   0.034   4.599
 3780TIP3    H111304   3.057   0.112   4.556
 3780TIP3    H211305   3.032  -0.037   4.571
 3781TIP3   OH211306   5.944   1.562   4.298
 3781TIP3    H111307   6.031   1.523   4.310
 3781TIP3    H211308   5.917   1.532   4.211
 3782TIP3   OH211309   2.893   6.596   0.001
 3782TIP3    H111310   2.880   6.501  -0.005
 3782TIP3    H211311   2.806   6.633  -0.012
 3783TIP3   OH211312   0.474   4.983   2.525
 3783TIP3    H111313   0.479   4.979   2.430
 3783TIP3    H211314   0.381   4.995   2.544
 3784TIP3   OH211315   5.856   6.097   3.956
 3784TIP3    H111316   5.843   6.003   3.966
 3784TIP3    H211317   5.942   6.113   3.996
 3785TIP3   OH211318   2.624   3.924   0.743
 3785TIP3    H111319   2.680   3.911   0.667
 3785TIP3    H211320   2.590   4.013   0.734
 3786TIP3   OH211321   1.329   2.660   0.049
 3786TIP3    H111322   1.361   2.743   0.016
 3786TIP3    H211323   1.279   2.623  -0.025
 3787TIP3   OH211324   4.187   5.550   2.304
 3787TIP3    H111325   4.153   5.482   2.246
 3787TIP3    H211326   4.116   5.613   2.311
 3788TIP3   OH211327   2.629   2.578   5.107
 3788TIP3    H111328   2.710   2.625   5.125
 3788TIP3    H211329   2.651   2.518   5.035
 3789TIP3   OH211330   5.243   1.063   4.282
 3789TIP3    H111331   5.306   1.134   4.267
 3789TIP3    H211332   5.289   0.985   4.251
 3790TIP3   OH211333   6.653   3.209   2.039
 3790TIP3    H111334   6.564   3.236   2.019
 3790TIP3    H211335   6.705   3.238   1.964
 3791TIP3   OH211336   2.245   6.331   0.266
 3791TIP3    H111337   2.175   6.388   0.234
 3791TIP3    H211338   2.291   6.383   0.331
 3792TIP3   OH211339   2.018   0.385   3.222
 3792TIP3    H111340   2.007   0.291   3.229
 3792TIP3    H211341   1.948   0.422   3.275
 3793TIP3   OH211342   4.330   4.300   5.881
 3793TIP3    H111343   4.405   4.342   5.839
 3793TIP3    H211344   4.368   4.251   5.954
 3794TIP3   OH211345   2.624   3.270   0.922
 3794TIP3    H111346   2.600   3.228   0.839
 3794TIP3    H211347   2.549   3.326   0.943
 3795TIP3   OH211348   4.664   6.612   3.058
 3795TIP3    H111349   4.592   6.675   3.047
 3795TIP3    H211350   4.694   6.596   2.969
 3796TIP3   OH211351   2.307   3.243   3.352
 3796TIP3    H111352   2.268   3.162   3.318
 3796TIP3    H211353   2.234   3.306   3.352
 3797TIP3   OH211354   4.404   6.588   3.831
 3797TIP3    H111355   4.362   6.584   3.917
 3797TIP3    H211356   4.495   6.563   3.848
 3798TIP3   OH211357   5.862   3.262   0.219
 3798TIP3    H111358   5.783   3.285   0.169
 3798TIP3    H211359   5.859   3.319   0.296
 3799TIP3   OH211360   0.338   2.346   0.848
 3799TIP3    H111361   0.347   2.335   0.943
 3799TIP3    H211362   0.305   2.262   0.817
 3800TIP3   OH211363   6.683   4.979   3.196
 3800TIP3    H111364   6.750   5.037   3.160
 3800TIP3    H211365   6.603   5.003   3.150
 3801TIP3   OH211366   1.139   4.802   2.514
 3801TIP3    H111367   1.076   4.745   2.557
 3801TIP3    H211368   1.088   4.849   2.448
 3802TIP3   OH211369   3.517   3.202   5.661
 3802TIP3    H111370   3.502   3.110   5.639
 3802TIP3    H211371   3.600   3.224   5.620
 3803TIP3   OH211372   0.493   1.175   3.289
 3803TIP3    H111373   0.462   1.250   3.237
 3803TIP3    H211374   0.459   1.191   3.377
 3804TIP3   OH211375   2.563   2.228   5.326
 3804TIP3    H111376   2.563   2.142   5.368
 3804TIP3    H211377   2.509   2.218   5.248
 3805TIP3   OH211378   0.165   5.180   0.777
 3805TIP3    H111379   0.255   5.214   0.777
 3805TIP3    H211380   0.175   5.088   0.802
 3806TIP3   OH211381   5.844   4.152   1.916
 3806TIP3    H111382   5.755   4.163   1.882
 3806TIP3    H211383   5.900   4.170   1.841
 3807TIP3   OH211384   7.063   6.327   5.656
 3807TIP3    H111385   7.050   6.248   5.707
 3807TIP3    H211386   7.045   6.301   5.565
 3808TIP3   OH211387   5.202   3.261   2.252
 3808TIP3    H111388   5.112   3.273   2.221
 3808TIP3    H211389   5.256   3.311   2.191
 3809TIP3   OH211390   0.815   6.160   5.142
 3809TIP3    H111391   0.726   6.182   5.114
 3809TIP3    H211392   0.805   6.129   5.232
 3810TIP3   OH211393   0.566   2.444   5.456
 3810TIP3    H111394   0.536   2.390   5.383
 3810TIP3    H211395   0.528   2.402   5.533
 3811TIP3   OH211396   4.420   1.246   1.370
 3811TIP3    H111397   4.404   1.155   1.393
 3811TIP3    H211398   4.514   1.249   1.348
 3812TIP3   OH211399   5.103   6.290   3.274
 3812TIP3    H111400   5.144   6.368   3.238
 3812TIP3    H211401   5.104   6.227   3.202
 3813TIP3   OH211402   0.956   5.286   4.112
 3813TIP3    H111403   0.866   5.277   4.081
 3813TIP3    H211404   0.951   5.356   4.178
 3814TIP3   OH211405   1.906   0.603   2.940
 3814TIP3    H111406   1.889   0.510   2.952
 3814TIP3    H211407   1.999   0.614   2.961
 3815TIP3   OH211408   5.358   2.460   1.283
 3815TIP3    H111409   5.452   2.451   1.297
 3815TIP3    H211410   5.349   2.493   1.194
 3816TIP3   OH211411   6.830   4.381   0.525
 3816TIP3    H111412   6.815   4.316   0.456
 3816TIP3    H211413   6.894   4.339   0.583
 3817TIP3   OH211414   6.321   3.652   4.419
 3817TIP3    H111415   6.393   3.617   4.368
 3817TIP3    H211416   6.361   3.720   4.473
 3818TIP3   OH211417   2.745   4.311   3.496
 3818TIP3    H111418   2.825   4.269   3.528
 3818TIP3    H211419   2.776   4.390   3.451
 3819TIP3   OH211420   1.526   3.329   4.301
 3819TIP3    H111421   1.590   3.315   4.371
 3819TIP3    H211422   1.575   3.311   4.221
 3820TIP3   OH211423   1.397   2.448   4.241
 3820TIP3    H111424   1.383   2.421   4.332
 3820TIP3    H211425   1.326   2.510   4.224
 3821TIP3   OH211426   6.773   5.625   1.765
 3821TIP3    H111427   6.828   5.547   1.765
 3821TIP3    H211428   6.824   5.691   1.718
 3822TIP3   OH211429   3.733   6.041   1.194
 3822TIP3    H111430   3.711   6.041   1.288
 3822TIP3    H211431   3.679   6.110   1.157
 3823TIP3   OH211432   5.396   0.480   3.125
 3823TIP3    H111433   5.356   0.394   3.109
 3823TIP3    H211434   5.386   0.527   3.042
 3824TIP3   OH211435   4.242   2.746   5.228
 3824TIP3    H111436   4.274   2.827   5.190
 3824TIP3    H211437   4.188   2.707   5.159
 3825TIP3   OH211438   0.958   2.529   3.506
 3825TIP3    H111439   0.928   2.444   3.473
 3825TIP3    H211440   1.052   2.531   3.485
 3826TIP3   OH211441   1.094   3.863   3.880
 3826TIP3    H111442   1.014   3.860   3.933
 3826TIP3    H211443   1.139   3.781   3.902
 3827TIP3   OH211444   5.112   1.102   5.179
 3827TIP3    H111445   5.118   1.168   5.248
 3827TIP3    H211446   5.075   1.149   5.104
 3828TIP3   OH211447   0.487   2.887   4.091
 3828TIP3    H111448   0.495   2.982   4.097
 3828TIP3    H211449   0.421   2.864   4.157
 3829TIP3   OH211450   0.810   0.874   5.038
 3829TIP3    H111451   0.731   0.831   5.005
 3829TIP3    H211452   0.823   0.949   4.979
 3830TIP3   OH211453   4.523   6.014   1.942
 3830TIP3    H111454   4.596   6.071   1.964
 3830TIP3    H211455   4.445   6.067   1.959
 3831TIP3   OH211456   3.214   4.335   1.677
 3831TIP3    H111457   3.205   4.406   1.741
 3831TIP3    H211458   3.125   4.299   1.669
 3832TIP3   OH211459   3.022   6.149   5.183
 3832TIP3    H111460   3.013   6.065   5.229
 3832TIP3    H211461   2.951   6.202   5.218
 3833TIP3   OH211462   2.798   2.117   4.166
 3833TIP3    H111463   2.771   2.033   4.203
 3833TIP3    H211464   2.766   2.115   4.076
 3834TIP3   OH211465   4.892   1.963   4.426
 3834TIP3    H111466   4.849   1.885   4.389
 3834TIP3    H211467   4.858   2.036   4.373
 3835TIP3   OH211468   6.267   0.650   5.031
 3835TIP3    H111469   6.282   0.743   5.016
 3835TIP3    H211470   6.348   0.608   5.000
 3836TIP3   OH211471   3.712   4.281   1.605
 3836TIP3    H111472   3.715   4.253   1.697
 3836TIP3    H211473   3.619   4.296   1.588
 3837TIP3   OH211474   5.135   3.540   5.124
 3837TIP3    H111475   5.060   3.497   5.165
 3837TIP3    H211476   5.108   3.554   5.034
 3838TIP3   OH211477   4.545   1.287   5.172
 3838TIP3    H111478   4.602   1.224   5.129
 3838TIP3    H211479   4.514   1.242   5.250
 3839TIP3   OH211480   6.360   2.135   0.213
 3839TIP3    H111481   6.417   2.081   0.158
 3839TIP3    H211482   6.280   2.145   0.162
 3840TIP3   OH211483   1.944   4.620   4.262
 3840TIP3    H111484   2.013   4.576   4.212
 3840TIP3    H211485   1.968   4.605   4.353
 3841TIP3   OH211486   3.566   1.952   5.778
 3841TIP3    H111487   3.575   1.868   5.824
 3841TIP3    H211488   3.593   1.933   5.688
 3842TIP3   OH211489   0.876   5.158   2.043
 3842TIP3    H111490   0.953   5.166   2.099
 3842TIP3    H211491   0.895   5.084   1.986
 3843TIP3   OH211492   6.384   2.204   3.555
 3843TIP3    H111493   6.463   2.155   3.531
 3843TIP3    H211494   6.312   2.153   3.519
 3844TIP3   OH211495   1.439   5.695   0.703
 3844TIP3    H111496   1.468   5.699   0.612
 3844TIP3    H211497   1.469   5.777   0.742
 3845TIP3   OH211498   1.309   0.582   2.007
 3845TIP3    H111499   1.403   0.591   1.992
 3845TIP3    H211500   1.285   0.503   1.958
 3846TIP3   OH211501   4.834   5.429   4.275
 3846TIP3    H111502   4.844   5.441   4.370
 3846TIP3    H211503   4.741   5.411   4.263
 3847TIP3   OH211504   0.204   2.119   1.449
 3847TIP3    H111505   0.165   2.206   1.452
 3847TIP3    H211506   0.273   2.126   1.384
 3848TIP3   OH211507   0.922   0.397   2.669
 3848TIP3    H111508   0.884   0.451   2.738
 3848TIP3    H211509   1.012   0.430   2.660
 3849TIP3   OH211510   1.405   6.226   4.641
 3849TIP3    H111511   1.496   6.209   4.619
 3849TIP3    H211512   1.398   6.203   4.734
 3850TIP3   OH211513   4.977   4.528   2.556
 3850TIP3    H111514   4.983   4.618   2.586
 3850TIP3    H211515   4.987   4.534   2.461
 3851TIP3   OH211516   2.235   6.074   0.647
 3851TIP3    H111517   2.171   6.108   0.584
 3851TIP3    H211518   2.283   6.007   0.598
 3852TIP3   OH211519   5.953   2.136   1.360
 3852TIP3    H111520   5.952   2.171   1.449
 3852TIP3    H211521   6.036   2.089   1.354
 3853TIP3   OH211522   2.149   1.776   0.400
 3853TIP3    H111523   2.146   1.866   0.366
 3853TIP3    H211524   2.058   1.753   0.417
 3854TIP3   OH211525   6.842   1.202   0.306
 3854TIP3    H111526   6.925   1.243   0.280
 3854TIP3    H211527   6.779   1.233   0.241
 3855TIP3   OH211528   1.004   2.584   1.811
 3855TIP3    H111529   1.030   2.521   1.879
 3855TIP3    H211530   1.025   2.669   1.848
 3856TIP3   OH211531   3.597   5.328   5.632
 3856TIP3    H111532   3.576   5.376   5.712
 3856TIP3    H211533   3.568   5.386   5.561
 3857TIP3   OH211534   5.156   3.520   2.530
 3857TIP3    H111535   5.181   3.593   2.586
 3857TIP3    H211536   5.195   3.540   2.445
 3858TIP3   OH211537   4.073   1.218   4.611
 3858TIP3    H111538   4.000   1.248   4.664
 3858TIP3    H211539   4.035   1.151   4.553
 3859TIP3   OH211540   2.266   4.050   2.973
 3859TIP3    H111541   2.198   4.040   2.906
 3859TIP3    H211542   2.345   4.075   2.924
 3860TIP3   OH211543   1.975   5.300   5.261
 3860TIP3    H111544   2.014   5.386   5.245
 3860TIP3    H211545   1.927   5.310   5.343
 3861TIP3   OH211546   1.182   6.550   5.856
 3861TIP3    H111547   1.113   6.611   5.831
 3861TIP3    H211548   1.251   6.562   5.790
 3862TIP3   OH211549   4.780   6.737   0.298
 3862TIP3    H111550   4.811   6.820   0.261
 3862TIP3    H211551   4.766   6.681   0.222
 3863TIP3   OH211552   3.135   2.957   0.891
 3863TIP3    H111553   3.142   2.879   0.836
 3863TIP3    H211554   3.122   3.029   0.830
 3864TIP3   OH211555   5.586   2.865   0.374
 3864TIP3    H111556   5.515   2.928   0.372
 3864TIP3    H211557   5.588   2.833   0.465
 3865TIP3   OH211558   1.274   2.689   4.469
 3865TIP3    H111559   1.274   2.653   4.380
 3865TIP3    H211560   1.236   2.776   4.459
 3866TIP3   OH211561   3.398   2.741   2.326
 3866TIP3    H111562   3.442   2.672   2.376
 3866TIP3    H211563   3.409   2.713   2.235
 3867TIP3   OH211564   3.342   4.371   0.889
 3867TIP3    H111565   3.383   4.456   0.897
 3867TIP3    H211566   3.306   4.369   0.800
 3868TIP3   OH211567   6.343   0.950   1.739
 3868TIP3    H111568   6.322   0.957   1.646
 3868TIP3    H211569   6.273   0.897   1.776
 3869TIP3   OH211570   6.369   4.720   2.176
 3869TIP3    H111571   6.436   4.690   2.237
 3869TIP3    H211572   6.315   4.781   2.227
 3870TIP3   OH211573   5.939   5.421   1.121
 3870TIP3    H111574   5.950   5.504   1.074
 3870TIP3    H211575   6.015   5.369   1.096
 3871TIP3   OH211576   2.504   4.688   4.119
 3871TIP3    H111577   2.548   4.763   4.160
 3871TIP3    H211578   2.440   4.659   4.183
 3872TIP3   OH211579   3.346   3.055   5.404
 3872TIP3    H111580   3.402   2.999   5.350
 3872TIP3    H211581   3.327   3.131   5.348
 3873TIP3   OH211582   1.965   4.888   4.505
 3873TIP3    H111583   1.970   4.948   4.431
 3873TIP3    H211584   1.874   4.857   4.503
 3874TIP3   OH211585   0.523   4.323   5.275
 3874TIP3    H111586   0.497   4.415   5.270
 3874TIP3    H211587   0.462   4.284   5.337
 3875TIP3   OH211588   3.199   1.879   0.932
 3875TIP3    H111589   3.279   1.871   0.880
 3875TIP3    H211590   3.209   1.813   1.001
 3876TIP3   OH211591   2.410   4.961   2.221
 3876TIP3    H111592   2.427   5.055   2.227
 3876TIP3    H211593   2.426   4.939   2.129
 3877TIP3   OH211594   2.700   1.154   1.924
 3877TIP3    H111595   2.763   1.108   1.869
 3877TIP3    H211596   2.753   1.197   1.991
 3878TIP3   OH211597   0.536   3.574   5.282
 3878TIP3    H111598   0.627   3.582   5.307
 3878TIP3    H211599   0.519   3.650   5.227
 3879TIP3   OH211600   5.707   2.698   4.049
 3879TIP3    H111601   5.768   2.749   3.996
 3879TIP3    H211602   5.698   2.615   4.003
 3880TIP3   OH211603   0.058   1.583   3.214
 3880TIP3    H111604   0.148   1.593   3.246
 3880TIP3    H211605   0.036   1.492   3.234
 3881TIP3   OH211606   1.964   1.506   0.522
 3881TIP3    H111607   2.018   1.427   0.517
 3881TIP3    H211608   1.906   1.501   0.447
 3882TIP3   OH211609   3.605   1.145   2.343
 3882TIP3    H111610   3.600   1.076   2.410
 3882TIP3    H211611   3.576   1.224   2.388
 3883TIP3   OH211612   3.484   2.899   5.167
 3883TIP3    H111613   3.425   2.923   5.095
 3883TIP3    H211614   3.528   2.981   5.190
 3884TIP3   OH211615   6.385   0.740   4.106
 3884TIP3    H111616   6.450   0.679   4.073
 3884TIP3    H211617   6.410   0.825   4.070
 3885TIP3   OH211618   0.828   1.760   0.967
 3885TIP3    H111619   0.791   1.779   0.881
 3885TIP3    H211620   0.905   1.706   0.948
 3886TIP3   OH211621   0.281   1.898   4.892
 3886TIP3    H111622   0.335   1.821   4.876
 3886TIP3    H211623   0.340   1.960   4.936
 3887TIP3   OH211624   4.633   5.394   5.121
 3887TIP3    H111625   4.578   5.432   5.053
 3887TIP3    H211626   4.573   5.339   5.172
 3888TIP3   OH211627   1.372   1.076   4.529
 3888TIP3    H111628   1.288   1.111   4.497
 3888TIP3    H211629   1.397   1.136   4.598
 3889TIP3   OH211630   5.313   4.548   4.989
 3889TIP3    H111631   5.344   4.617   5.046
 3889TIP3    H211632   5.237   4.586   4.944
 3890TIP3   OH211633   2.221   3.113   3.724
 3890TIP3    H111634   2.311   3.128   3.693
 3890TIP3    H211635   2.167   3.120   3.645
 3891TIP3   OH211636   4.540   6.551   0.973
 3891TIP3    H111637   4.542   6.636   0.930
 3891TIP3    H211638   4.548   6.571   1.067
 3892TIP3   OH211639   4.174   0.764   1.956
 3892TIP3    H111640   4.198   0.689   2.011
 3892TIP3    H211641   4.100   0.732   1.904
 3893TIP3   OH211642   2.578   6.457   2.156
 3893TIP3    H111643   2.610   6.369   2.134
 3893TIP3    H211644   2.525   6.483   2.081
 3894TIP3   OH211645   0.131   1.538   1.779
 3894TIP3    H111646   0.165   1.492   1.856
 3894TIP3    H211647   0.045   1.570   1.806
 3895TIP3   OH211648   3.626   3.412   3.175
 3895TIP3    H111649   3.671   3.330   3.197
 3895TIP3    H211650   3.674   3.479   3.223
 3896TIP3   OH211651   4.426   4.686   4.268
 3896TIP3    H111652   4.516   4.657   4.278
 3896TIP3    H211653   4.381   4.613   4.226
 3897TIP3   OH211654   1.096   4.144   4.082
 3897TIP3    H111655   1.049   4.128   4.164
 3897TIP3    H211656   1.056   4.084   4.019
 3898TIP3   OH211657   5.792   1.092   2.284
 3898TIP3    H111658   5.765   1.086   2.375
 3898TIP3    H211659   5.752   1.016   2.241
 3899TIP3   OH211660   1.412   6.789   1.804
 3899TIP3    H111661   1.481   6.746   1.853
 3899TIP3    H211662   1.341   6.725   1.801
 3900TIP3   OH211663   2.512   2.602   1.827
 3900TIP3    H111664   2.443   2.669   1.822
 3900TIP3    H211665   2.479   2.530   1.774
 3901TIP3   OH211666   6.235   5.451   1.603
 3901TIP3    H111667   6.290   5.417   1.673
 3901TIP3    H211668   6.171   5.382   1.586
 3902TIP3   OH211669   3.737   0.168   3.349
 3902TIP3    H111670   3.773   0.094   3.398
 3902TIP3    H211671   3.694   0.128   3.273
 3903TIP3   OH211672   5.810   2.444   2.322
 3903TIP3    H111673   5.864   2.365   2.329
 3903TIP3    H211674   5.864   2.506   2.273
 3904TIP3   OH211675   7.259   2.941   4.849
 3904TIP3    H111676   7.228   2.865   4.897
 3904TIP3    H211677   7.200   2.947   4.774
 3905TIP3   OH211678   0.816   4.488   1.943
 3905TIP3    H111679   0.809   4.556   2.010
 3905TIP3    H211680   0.739   4.432   1.959
 3906TIP3   OH211681   2.526   3.939   1.100
 3906TIP3    H111682   2.466   3.941   1.026
 3906TIP3    H211683   2.520   4.027   1.138
 3907TIP3   OH211684   6.739   3.455   2.309
 3907TIP3    H111685   6.714   3.511   2.235
 3907TIP3    H211686   6.668   3.391   2.316
 3908TIP3   OH211687   0.968   4.765   1.113
 3908TIP3    H111688   1.018   4.772   1.194
 3908TIP3    H211689   0.876   4.770   1.142
 3909TIP3   OH211690   2.108   6.209   1.853
 3909TIP3    H111691   2.124   6.146   1.923
 3909TIP3    H211692   2.195   6.237   1.825
 3910TIP3   OH211693   5.231   5.898   4.706
 3910TIP3    H111694   5.244   5.873   4.797
 3910TIP3    H211695   5.250   5.818   4.656
 3911TIP3   OH211696   4.307   2.805   1.385
 3911TIP3    H111697   4.382   2.863   1.380
 3911TIP3    H211698   4.263   2.816   1.300
 3912TIP3   OH211699   5.320   1.890   3.852
 3912TIP3    H111700   5.369   1.808   3.863
 3912TIP3    H211701   5.234   1.871   3.888
 3913TIP3   OH211702   3.611   5.922   4.250
 3913TIP3    H111703   3.540   5.985   4.263
 3913TIP3    H211704   3.663   5.959   4.179
 3914TIP3   OH211705   5.254   0.702   4.339
 3914TIP3    H111706   5.231   0.618   4.378
 3914TIP3    H211707   5.315   0.741   4.401
 3915TIP3   OH211708   1.803   0.339   2.939
 3915TIP3    H111709   1.885   0.297   2.966
 3915TIP3    H211710   1.736   0.294   2.990
 3916TIP3   OH211711   3.770   3.585   2.680
 3916TIP3    H111712   3.850   3.539   2.706
 3916TIP3    H211713   3.769   3.579   2.584
 3917TIP3   OH211714   2.654   4.756   5.473
 3917TIP3    H111715   2.665   4.689   5.406
 3917TIP3    H211716   2.650   4.838   5.424
 3918TIP3   OH211717   4.245   0.626   0.330
 3918TIP3    H111718   4.278   0.674   0.405
 3918TIP3    H211719   4.309   0.556   0.316
 3919TIP3   OH211720   4.281   1.350   2.918
 3919TIP3    H111721   4.340   1.331   2.991
 3919TIP3    H211722   4.219   1.414   2.954
 3920TIP3   OH211723   0.998   0.920   4.077
 3920TIP3    H111724   1.091   0.940   4.069
 3920TIP3    H211725   0.973   0.883   3.992
 3921TIP3   OH211726   2.158   2.801   0.981
 3921TIP3    H111727   2.195   2.713   0.980
 3921TIP3    H211728   2.066   2.788   0.959
 3922TIP3   OH211729   1.413   2.902   5.221
 3922TIP3    H111730   1.328   2.888   5.263
 3922TIP3    H211731   1.401   2.981   5.168
 3923TIP3   OH211732   3.273   0.421   3.845
 3923TIP3    H111733   3.184   0.388   3.828
 3923TIP3    H211734   3.265   0.467   3.929
 3924TIP3   OH211735   4.675   3.449   5.578
 3924TIP3    H111736   4.767   3.438   5.552
 3924TIP3    H211737   4.679   3.473   5.670
 3925TIP3   OH211738   3.370   6.510   3.975
 3925TIP3    H111739   3.277   6.500   3.953
 3925TIP3    H211740   3.399   6.585   3.923
 3926TIP3   OH211741   5.747   2.086   3.916
 3926TIP3    H111742   5.754   2.153   3.984
 3926TIP3    H211743   5.736   2.004   3.964
 3927TIP3   OH211744   0.945   2.923   3.007
 3927TIP3    H111745   0.999   2.880   2.940
 3927TIP3    H211746   0.933   3.012   2.975
 3928TIP3   OH211747   4.904   0.367   3.963
 3928TIP3    H111748   4.811   0.357   3.942
 3928TIP3    H211749   4.949   0.359   3.878
 3929TIP3   OH211750   0.716   3.118   2.494
 3929TIP3    H111751   0.626   3.112   2.461
 3929TIP3    H211752   0.748   3.202   2.462
 3930TIP3   OH211753   5.181   3.258   3.645
 3930TIP3    H111754   5.182   3.310   3.725
 3930TIP3    H211755   5.160   3.169   3.675
 3931TIP3   OH211756   0.251   3.352   5.870
 3931TIP3    H111757   0.216   3.423   5.922
 3931TIP3    H211758   0.194   3.348   5.793
 3932TIP3   OH211759   0.547   0.236   2.644
 3932TIP3    H111760   0.506   0.245   2.557
 3932TIP3    H211761   0.604   0.160   2.635
 3933TIP3   OH211762   4.093   3.038   4.459
 3933TIP3    H111763   4.011   2.989   4.469
 3933TIP3    H211764   4.067   3.129   4.471
 3934TIP3   OH211765   5.896   1.259   3.710
 3934TIP3    H111766   5.984   1.223   3.699
 3934TIP3    H211767   5.846   1.221   3.637
 3935TIP3   OH211768   2.024   0.620   2.579
 3935TIP3    H111769   2.110   0.577   2.581
 3935TIP3    H211770   1.962   0.548   2.590
 3936TIP3   OH211771   1.861   6.626   0.788
 3936TIP3    H111772   1.871   6.715   0.754
 3936TIP3    H211773   1.920   6.573   0.735
 3937TIP3   OH211774   7.111   6.596   5.552
 3937TIP3    H111775   7.099   6.508   5.589
 3937TIP3    H211776   7.165   6.642   5.618
 3938TIP3   OH211777   1.790   4.417   4.525
 3938TIP3    H111778   1.846   4.492   4.545
 3938TIP3    H211779   1.701   4.450   4.536
 3939TIP3   OH211780   6.685   6.273   2.905
 3939TIP3    H111781   6.655   6.309   2.989
 3939TIP3    H211782   6.771   6.235   2.925
 3940TIP3   OH211783   1.935   2.163   1.413
 3940TIP3    H111784   1.957   2.256   1.408
 3940TIP3    H211785   1.862   2.152   1.353
 3941TIP3   OH211786   0.956   0.376   3.961
 3941TIP3    H111787   1.040   0.337   3.985
 3941TIP3    H211788   0.893   0.333   4.018
 3942TIP3   OH211789   0.931   1.840   1.705
 3942TIP3    H111790   0.905   1.770   1.645
 3942TIP3    H211791   0.930   1.798   1.791
 3943TIP3   OH211792   1.685   0.299   1.746
 3943TIP3    H111793   1.654   0.217   1.785
 3943TIP3    H211794   1.619   0.320   1.680
 3944TIP3   OH211795   1.348   2.571   2.420
 3944TIP3    H111796   1.432   2.546   2.458
 3944TIP3    H211797   1.288   2.570   2.495
 3945TIP3   OH211798   6.150   4.934   4.493
 3945TIP3    H111799   6.217   4.939   4.426
 3945TIP3    H211800   6.068   4.953   4.447
 3946TIP3   OH211801   5.568   2.180   1.514
 3946TIP3    H111802   5.505   2.165   1.444
 3946TIP3    H211803   5.539   2.261   1.556
 3947TIP3   OH211804   7.059   5.615   5.584
 3947TIP3    H111805   7.125   5.644   5.648
 3947TIP3    H211806   7.049   5.690   5.525
 3948TIP3   OH211807   7.006   3.729   0.355
 3948TIP3    H111808   7.073   3.757   0.418
 3948TIP3    H211809   7.055   3.684   0.287
 3949TIP3   OH211810   6.744   6.205   1.290
 3949TIP3    H111811   6.762   6.140   1.222
 3949TIP3    H211812   6.770   6.288   1.251
 3950TIP3   OH211813   5.570   6.501   4.400
 3950TIP3    H111814   5.617   6.434   4.351
 3950TIP3    H211815   5.638   6.562   4.429
 3951TIP3   OH211816   1.730   2.227   5.430
 3951TIP3    H111817   1.739   2.139   5.393
 3951TIP3    H211818   1.640   2.253   5.408
 3952TIP3   OH211819   6.203   1.006   5.375
 3952TIP3    H111820   6.204   1.060   5.454
 3952TIP3    H211821   6.290   1.017   5.337
 3953TIP3   OH211822   6.536   5.768   1.682
 3953TIP3    H111823   6.465   5.829   1.704
 3953TIP3    H211824   6.560   5.790   1.592
 3954TIP3   OH211825   3.844   6.168   4.755
 3954TIP3    H111826   3.911   6.231   4.781
 3954TIP3    H211827   3.791   6.154   4.834
 3955TIP3   OH211828   4.729   6.272   5.657
 3955TIP3    H111829   4.637   6.268   5.631
 3955TIP3    H211830   4.773   6.314   5.584
 3956TIP3   OH211831   0.375   2.591   0.174
 3956TIP3    H111832   0.416   2.507   0.154
 3956TIP3    H211833   0.444   2.656   0.156
 3957TIP3   OH211834   1.207   2.550   3.399
 3957TIP3    H111835   1.191   2.632   3.353
 3957TIP3    H211836   1.223   2.486   3.330
 3958TIP3   OH211837   3.559   0.544   1.557
 3958TIP3    H111838   3.592   0.482   1.493
 3958TIP3    H211839   3.473   0.510   1.581
 3959TIP3   OH211840   5.302   3.269   5.364
 3959TIP3    H111841   5.321   3.248   5.455
 3959TIP3    H211842   5.265   3.358   5.367
 3960TIP3   OH211843   5.173   1.754   5.136
 3960TIP3    H111844   5.174   1.842   5.173
 3960TIP3    H211845   5.128   1.765   5.051
 3961TIP3   OH211846   0.069   3.544   2.625
 3961TIP3    H111847   0.035   3.503   2.546
 3961TIP3    H211848  -0.009   3.567   2.676
 3962TIP3   OH211849   4.639   4.382   1.488
 3962TIP3    H111850   4.553   4.420   1.508
 3962TIP3    H211851   4.622   4.318   1.420
 3963TIP3   OH211852   3.538   1.131   2.081
 3963TIP3    H111853   3.610   1.127   2.019
 3963TIP3    H211854   3.579   1.141   2.167
 3964TIP3   OH211855   4.790   6.635   4.067
 3964TIP3    H111856   4.717   6.592   4.022
 3964TIP3    H211857   4.749   6.677   4.143
 3965TIP3   OH211858   5.785   3.938   1.579
 3965TIP3    H111859   5.689   3.932   1.578
 3965TIP3    H211860   5.810   3.943   1.487
 3966TIP3   OH211861   4.830   5.008   1.737
 3966TIP3    H111862   4.746   5.022   1.780
 3966TIP3    H211863   4.881   5.087   1.755
 3967TIP3   OH211864   3.903   3.855   2.535
 3967TIP3    H111865   3.950   3.928   2.494
 3967TIP3    H211866   3.837   3.831   2.470
 3968TIP3   OH211867   2.261   4.326   4.342
 3968TIP3    H111868   2.176   4.354   4.375
 3968TIP3    H211869   2.241   4.254   4.282
 3969TIP3   OH211870   5.902   1.066   0.254
 3969TIP3    H111871   5.981   1.067   0.200
 3969TIP3    H211872   5.843   1.006   0.207
 3970TIP3   OH211873   1.210   0.483   4.662
 3970TIP3    H111874   1.139   0.425   4.635
 3970TIP3    H211875   1.165   0.560   4.698
 3971TIP3   OH211876   3.731   5.225   4.228
 3971TIP3    H111877   3.701   5.150   4.177
 3971TIP3    H211878   3.771   5.186   4.306
 3972TIP3   OH211879   6.590   5.918   5.392
 3972TIP3    H111880   6.536   5.851   5.434
 3972TIP3    H211881   6.534   5.953   5.323
 3973TIP3   OH211882   1.248   0.171   4.766
 3973TIP3    H111883   1.221   0.215   4.846
 3973TIP3    H211884   1.166   0.139   4.728
 3974TIP3   OH211885   1.001   1.264   0.776
 3974TIP3    H111886   1.063   1.199   0.744
 3974TIP3    H211887   0.916   1.223   0.767
 3975TIP3   OH211888   6.752   6.106   5.079
 3975TIP3    H111889   6.699   6.184   5.095
 3975TIP3    H211890   6.812   6.102   5.153
 3976TIP3   OH211891   5.125   3.197   0.279
 3976TIP3    H111892   5.113   3.129   0.214
 3976TIP3    H211893   5.051   3.256   0.267
 3977TIP3   OH211894   3.373   5.261   4.176
 3977TIP3    H111895   3.291   5.225   4.142
 3977TIP3    H211896   3.346   5.332   4.234
 3978TIP3   OH211897   6.414   1.813   5.525
 3978TIP3    H111898   6.330   1.834   5.565
 3978TIP3    H211899   6.479   1.830   5.594
 3979TIP3   OH211900   0.501   1.833   0.218
 3979TIP3    H111901   0.506   1.856   0.125
 3979TIP3    H211902   0.579   1.781   0.235
 3980TIP3   OH211903   4.735   3.050   1.040
 3980TIP3    H111904   4.803   3.116   1.027
 3980TIP3    H211905   4.775   2.984   1.095
 3981TIP3   OH211906   3.990   6.201   0.877
 3981TIP3    H111907   4.083   6.176   0.877
 3981TIP3    H211908   3.967   6.206   0.784
 3982TIP3   OH211909   5.204   3.780   5.686
 3982TIP3    H111910   5.187   3.698   5.734
 3982TIP3    H211911   5.293   3.770   5.653
 3983TIP3   OH211912   3.810   5.705   4.222
 3983TIP3    H111913   3.730   5.757   4.235
 3983TIP3    H211914   3.807   5.640   4.293
 3984TIP3   OH211915   4.294   0.089   0.730
 3984TIP3    H111916   4.314   0.140   0.652
 3984TIP3    H211917   4.213   0.128   0.764
 3985TIP3   OH211918   0.952   2.006   2.579
 3985TIP3    H111919   0.919   2.094   2.560
 3985TIP3    H211920   1.007   1.984   2.504
 3986TIP3   OH211921   0.977   2.769   2.021
 3986TIP3    H111922   0.920   2.838   2.056
 3986TIP3    H211923   1.009   2.723   2.099
 3987TIP3   OH211924   0.632   6.115   0.791
 3987TIP3    H111925   0.578   6.056   0.843
 3987TIP3    H211926   0.717   6.071   0.786
 3988TIP3   OH211927   2.736   4.014   4.126
 3988TIP3    H111928   2.662   4.041   4.181
 3988TIP3    H211929   2.721   3.921   4.110
 3989TIP3   OH211930   1.376   1.521   2.156
 3989TIP3    H111931   1.342   1.596   2.205
 3989TIP3    H211932   1.461   1.550   2.123
 3990TIP3   OH211933   2.474   0.007   5.388
 3990TIP3    H111934   2.443  -0.065   5.444
 3990TIP3    H211935   2.396   0.059   5.370
 3991TIP3   OH211936   6.093   5.871   0.816
 3991TIP3    H111937   6.079   5.943   0.879
 3991TIP3    H211938   6.149   5.909   0.748
 3992TIP3   OH211939   4.230   2.381   1.650
 3992TIP3    H111940   4.280   2.445   1.600
 3992TIP3    H211941   4.147   2.373   1.603
 3993TIP3   OH211942   4.182   2.440   4.513
 3993TIP3    H111943   4.166   2.535   4.516
 3993TIP3    H211944   4.096   2.401   4.501
 3994TIP3   OH211945   2.714   2.572   3.799
 3994TIP3    H111946   2.692   2.584   3.707
 3994TIP3    H211947   2.756   2.654   3.825
 3995TIP3   OH211948   1.943   1.075   2.377
 3995TIP3    H111949   1.979   1.032   2.300
 3995TIP3    H211950   1.933   1.166   2.352
 3996TIP3   OH211951   6.676   3.658   3.842
 3996TIP3    H111952   6.605   3.668   3.779
 3996TIP3    H211953   6.756   3.663   3.789
 3997TIP3   OH211954   2.946   1.056   3.600
 3997TIP3    H111955   2.878   1.038   3.535
 3997TIP3    H211956   3.008   0.985   3.590
 3998TIP3   OH211957   4.151   1.517   4.947
 3998TIP3    H111958   4.227   1.573   4.960
 3998TIP3    H211959   4.143   1.510   4.851
 3999TIP3   OH211960   3.856   3.880   4.211
 3999TIP3    H111961   3.903   3.941   4.268
 3999TIP3    H211962   3.829   3.932   4.136
 4000TIP3   OH211963   0.395   6.292   1.994
 4000TIP3    H111964   0.333   6.245   1.938
 4000TIP3    H211965   0.380   6.384   1.973
 4001TIP3   OH211966   3.548   2.535   5.540
 4001TIP3    H111967   3.523   2.552   5.449
 4001TIP3    H211968   3.582   2.446   5.539
 4002TIP3   OH211969   1.621   3.050   0.282
 4002TIP3    H111970   1.593   3.139   0.258
 4002TIP3    H211971   1.711   3.061   0.312
 4003TIP3   OH211972   4.015   6.414   0.206
 4003TIP3    H111973   4.017   6.505   0.177
 4003TIP3    H211974   3.930   6.403   0.248
 4004TIP3   OH211975   7.154   3.663   5.357
 4004TIP3    H111976   7.140   3.589   5.297
 4004TIP3    H211977   7.070   3.710   5.357
 4005TIP3   OH211978   5.947   4.505   5.340
 4005TIP3    H111979   6.040   4.506   5.316
 4005TIP3    H211980   5.901   4.491   5.257
 4006TIP3   OH211981   5.056   4.008   4.975
 4006TIP3    H111982   5.088   3.970   5.057
 4006TIP3    H211983   5.129   4.062   4.943
 4007TIP3   OH211984   1.481   3.840   4.413
 4007TIP3    H111985   1.563   3.857   4.368
 4007TIP3    H211986   1.488   3.748   4.440
 4008TIP3   OH211987   3.068   2.002   1.803
 4008TIP3    H111988   3.052   1.911   1.826
 4008TIP3    H211989   3.050   2.006   1.709
 4009TIP3   OH211990   1.325   6.475   0.027
 4009TIP3    H111991   1.281   6.508   0.105
 4009TIP3    H211992   1.344   6.552  -0.026
 4010TIP3   OH211993   1.633   0.082   2.092
 4010TIP3    H111994   1.551   0.102   2.137
 4010TIP3    H211995   1.611   0.088   1.999
 4011TIP3   OH211996   7.016   0.970   1.721
 4011TIP3    H111997   6.978   0.887   1.692
 4011TIP3    H211998   6.959   1.037   1.683
 4012TIP3   OH211999   6.003   5.600   3.272
 4012TIP3    H112000   5.916   5.606   3.233
 4012TIP3    H212001   6.048   5.680   3.244
 4013TIP3   OH212002   1.193   6.661   4.200
 4013TIP3    H112003   1.242   6.742   4.210
 4013TIP3    H212004   1.250   6.594   4.238
 4014TIP3   OH212005   6.266   6.172   0.378
 4014TIP3    H112006   6.342   6.230   0.371
 4014TIP3    H212007   6.208   6.215   0.440
 4015TIP3   OH212008   2.602   1.979   1.663
 4015TIP3    H112009   2.610   1.883   1.662
 4015TIP3    H212010   2.508   1.996   1.660
 4016TIP3   OH212011   2.916   5.221   3.682
 4016TIP3    H112012   2.938   5.314   3.690
 4016TIP3    H212013   2.957   5.194   3.600
 4017TIP3   OH212014   2.694   3.083   1.328
 4017TIP3    H112015   2.719   3.105   1.239
 4017TIP3    H212016   2.611   3.127   1.343
 4018TIP3   OH212017   2.606   5.218   5.786
 4018TIP3    H112018   2.548   5.153   5.747
 4018TIP3    H212019   2.624   5.280   5.715
 4019TIP3   OH212020   5.687   6.039   3.125
 4019TIP3    H112021   5.733   6.075   3.049
 4019TIP3    H212022   5.733   5.957   3.145
 4020TIP3   OH212023   0.802   4.566   0.661
 4020TIP3    H112024   0.840   4.592   0.577
 4020TIP3    H212025   0.875   4.570   0.722
 4021TIP3   OH212026   2.226   2.458   5.397
 4021TIP3    H112027   2.219   2.481   5.304
 4021TIP3    H212028   2.294   2.516   5.430
 4022TIP3   OH212029   0.296   0.355   2.487
 4022TIP3    H112030   0.272   0.320   2.402
 4022TIP3    H212031   0.228   0.323   2.547
 4023TIP3   OH212032   3.426   1.227   0.391
 4023TIP3    H112033   3.347   1.279   0.402
 4023TIP3    H212034   3.432   1.212   0.297
 4024TIP3   OH212035   5.841   1.519   4.031
 4024TIP3    H112036   5.805   1.431   4.022
 4024TIP3    H212037   5.814   1.564   3.950
 4025TIP3   OH212038   1.369   5.522   4.046
 4025TIP3    H112039   1.453   5.489   4.013
 4025TIP3    H212040   1.304   5.459   4.014
 4026TIP3   OH212041   7.183   0.522   2.532
 4026TIP3    H112042   7.178   0.561   2.619
 4026TIP3    H212043   7.124   0.447   2.536
 4027TIP3   OH212044   3.444   2.814   4.273
 4027TIP3    H112045   3.396   2.751   4.218
 4027TIP3    H212046   3.376   2.870   4.310
 4028TIP3   OH212047   1.399   3.566   4.724
 4028TIP3    H112048   1.359   3.580   4.639
 4028TIP3    H212049   1.330   3.585   4.787
 4029TIP3   OH212050   0.193   2.003   5.196
 4029TIP3    H112051   0.284   2.018   5.172
 4029TIP3    H212052   0.165   1.930   5.141
 4030TIP3   OH212053   3.687   3.126   2.738
 4030TIP3    H112054   3.634   3.080   2.673
 4030TIP3    H212055   3.687   3.217   2.709
 4031TIP3   OH212056   2.887   0.500   0.069
 4031TIP3    H112057   2.836   0.512   0.149
 4031TIP3    H212058   2.952   0.434   0.091
 4032TIP3   OH212059   4.179   5.700   5.469
 4032TIP3    H112060   4.179   5.789   5.432
 4032TIP3    H212061   4.174   5.713   5.563
 4033TIP3   OH212062   6.441   4.990   2.547
 4033TIP3    H112063   6.501   4.969   2.475
 4033TIP3    H212064   6.402   5.073   2.523
 4034TIP3   OH212065   0.102   6.066   1.570
 4034TIP3    H112066   0.036   6.058   1.639
 4034TIP3    H212067   0.054   6.094   1.493
 4035TIP3   OH212068   3.266   5.588   2.516
 4035TIP3    H112069   3.300   5.508   2.475
 4035TIP3    H212070   3.172   5.572   2.526
 4036TIP3   OH212071   1.421   5.444   3.152
 4036TIP3    H112072   1.510   5.416   3.132
 4036TIP3    H212073   1.367   5.366   3.141
 4037TIP3   OH212074   0.088   5.124   2.896
 4037TIP3    H112075   0.010   5.080   2.929
 4037TIP3    H212076   0.112   5.075   2.817
 4038TIP3   OH212077   3.309   6.373   0.396
 4038TIP3    H112078   3.366   6.428   0.341
 4038TIP3    H212079   3.367   6.341   0.465
 4039TIP3   OH212080   2.370   5.439   1.403
 4039TIP3    H112081   2.407   5.478   1.324
 4039TIP3    H212082   2.326   5.511   1.448
 4040TIP3   OH212083   1.211   2.372   4.005
 4040TIP3    H112084   1.218   2.289   3.956
 4040TIP3    H212085   1.254   2.354   4.089
 4041TIP3   OH212086   5.516   3.096   1.716
 4041TIP3    H112087   5.476   3.174   1.754
 4041TIP3    H212088   5.516   3.113   1.622
 4042TIP3   OH212089   5.085   0.997   0.410
 4042TIP3    H112090   5.019   0.991   0.341
 4042TIP3    H212091   5.054   1.067   0.467
 4043TIP3   OH212092   3.435   2.406   3.247
 4043TIP3    H112093   3.363   2.345   3.258
 4043TIP3    H212094   3.472   2.417   3.335
 4044TIP3   OH212095   1.591   0.957   4.432
 4044TIP3    H112096   1.507   0.999   4.453
 4044TIP3    H212097   1.656   1.026   4.444
 4045TIP3   OH212098   0.761   4.130   0.041
 4045TIP3    H112099   0.814   4.071   0.095
 4045TIP3    H212100   0.745   4.080  -0.040
 4046TIP3   OH212101   6.826   1.434   3.387
 4046TIP3    H112102   6.917   1.407   3.384
 4046TIP3    H212103   6.823   1.518   3.340
 4047TIP3   OH212104   1.743   5.360   1.317
 4047TIP3    H112105   1.819   5.412   1.342
 4047TIP3    H212106   1.721   5.309   1.395
 4048TIP3   OH212107   6.773   4.899   0.540
 4048TIP3    H112108   6.751   4.854   0.622
 4048TIP3    H212109   6.758   4.992   0.559
 4049TIP3   OH212110   6.029   2.056   3.871
 4049TIP3    H112111   6.014   1.974   3.919
 4049TIP3    H212112   5.958   2.113   3.899
 4050TIP3   OH212113   4.148   5.946   4.677
 4050TIP3    H112114   4.081   5.932   4.743
 4050TIP3    H212115   4.119   6.023   4.629
 4051TIP3   OH212116   1.763   1.296   5.588
 4051TIP3    H112117   1.821   1.362   5.549
 4051TIP3    H212118   1.812   1.263   5.664
 4052TIP3   OH212119   1.868   1.950   3.113
 4052TIP3    H112120   1.827   1.866   3.134
 4052TIP3    H212121   1.943   1.927   3.059
 4053TIP3   OH212122   0.870   0.309   5.789
 4053TIP3    H112123   0.812   0.302   5.713
 4053TIP3    H212124   0.897   0.401   5.789
 4054TIP3   OH212125   3.262   5.281   5.131
 4054TIP3    H112126   3.302   5.240   5.208
 4054TIP3    H212127   3.222   5.209   5.084
 4055TIP3   OH212128   2.318   6.721   0.262
 4055TIP3    H112129   2.286   6.797   0.309
 4055TIP3    H212130   2.408   6.743   0.238
 4056TIP3   OH212131   5.059   2.307   1.631
 4056TIP3    H112132   5.120   2.248   1.675
 4056TIP3    H212133   5.039   2.374   1.696
 4057TIP3   OH212134   1.251   2.813   1.912
 4057TIP3    H112135   1.323   2.813   1.975
 4057TIP3    H212136   1.174   2.791   1.964
 4058TIP3   OH212137   3.595   0.563   3.055
 4058TIP3    H112138   3.652   0.517   2.994
 4058TIP3    H212139   3.575   0.498   3.122
 4059TIP3   OH212140   6.836   1.223   5.484
 4059TIP3    H112141   6.911   1.278   5.507
 4059TIP3    H212142   6.762   1.284   5.480
 4060TIP3   OH212143   1.052   1.025   4.687
 4060TIP3    H112144   1.107   1.049   4.761
 4060TIP3    H212145   1.102   1.054   4.610
 4061TIP3   OH212146   6.884   4.362   3.405
 4061TIP3    H112147   6.848   4.297   3.464
 4061TIP3    H212148   6.932   4.311   3.340
 4062TIP3   OH212149   2.856   4.047   2.824
 4062TIP3    H112150   2.876   3.965   2.779
 4062TIP3    H212151   2.850   4.112   2.755
 4063TIP3   OH212152   4.479   2.530   2.136
 4063TIP3    H112153   4.469   2.622   2.112
 4063TIP3    H212154   4.574   2.516   2.136
 4064TIP3   OH212155   0.885   3.264   1.282
 4064TIP3    H112156   0.913   3.332   1.221
 4064TIP3    H212157   0.906   3.182   1.238
 4065TIP3   OH212158   6.860   3.394   0.862
 4065TIP3    H112159   6.843   3.484   0.890
 4065TIP3    H212160   6.889   3.401   0.771
 4066TIP3   OH212161   4.223   6.586   3.157
 4066TIP3    H112162   4.156   6.555   3.096
 4066TIP3    H212163   4.174   6.629   3.227
 4067TIP3   OH212164   5.018   0.783   4.180
 4067TIP3    H112165   5.091   0.770   4.240
 4067TIP3    H212166   4.981   0.695   4.168
 4068TIP3   OH212167   4.587   4.065   5.719
 4068TIP3    H112168   4.683   4.067   5.716
 4068TIP3    H212169   4.567   4.047   5.811
 4069TIP3   OH212170   1.831   5.998   5.557
 4069TIP3    H112171   1.758   6.029   5.504
 4069TIP3    H212172   1.880   5.940   5.498
 4070TIP3   OH212173   5.521   5.192   2.331
 4070TIP3    H112174   5.487   5.132   2.398
 4070TIP3    H212175   5.608   5.215   2.363
 4071TIP3   OH212176   5.940   5.906   2.125
 4071TIP3    H112177   6.034   5.913   2.141
 4071TIP3    H212178   5.903   5.984   2.168
 4072TIP3   OH212179   1.179   3.604   3.896
 4072TIP3    H112180   1.268   3.618   3.864
 4072TIP3    H212181   1.168   3.509   3.895
 4073TIP3   OH212182   5.577   4.168   1.756
 4073TIP3    H112183   5.532   4.249   1.782
 4073TIP3    H212184   5.563   4.164   1.661
 4074TIP3   OH212185   3.287   1.651   4.945
 4074TIP3    H112186   3.312   1.676   5.034
 4074TIP3    H212187   3.191   1.646   4.948
 4075TIP3   OH212188   0.638   0.082   5.351
 4075TIP3    H112189   0.604  -0.001   5.319
 4075TIP3    H212190   0.561   0.140   5.351
 4076TIP3   OH212191   4.345   6.036   1.279
 4076TIP3    H112192   4.347   5.958   1.333
 4076TIP3    H212193   4.430   6.078   1.294
 4077TIP3   OH212194   1.163   5.064   1.268
 4077TIP3    H112195   1.161   5.155   1.240
 4077TIP3    H212196   1.131   5.065   1.358
 4078TIP3   OH212197   4.288   5.411   0.353
 4078TIP3    H112198   4.233   5.335   0.371
 4078TIP3    H212199   4.241   5.458   0.284
 4079TIP3   OH212200   5.747   3.770   5.262
 4079TIP3    H112201   5.677   3.807   5.208
 4079TIP3    H212202   5.755   3.680   5.231
 4080TIP3   OH212203   7.043   0.851   2.006
 4080TIP3    H112204   7.005   0.919   1.952
 4080TIP3    H212205   6.994   0.855   2.088
 4081TIP3   OH212206   3.621   4.872   2.605
 4081TIP3    H112207   3.550   4.892   2.544
 4081TIP3    H212208   3.669   4.955   2.614
 4082TIP3   OH212209   0.074   5.137   3.563
 4082TIP3    H112210   0.103   5.227   3.580
 4082TIP3    H212211   0.072   5.129   3.468
 4083TIP3   OH212212   1.001   0.570   5.455
 4083TIP3    H112213   1.007   0.595   5.363
 4083TIP3    H212214   0.962   0.482   5.452
 4084TIP3   OH212215   6.139   5.844   3.736
 4084TIP3    H112216   6.136   5.772   3.799
 4084TIP3    H212217   6.161   5.921   3.789
 4085TIP3   OH212218   0.454   2.155   5.486
 4085TIP3    H112219   0.533   2.135   5.436
 4085TIP3    H212220   0.384   2.151   5.421
 4086TIP3   OH212221   0.597   5.692   5.381
 4086TIP3    H112222   0.571   5.601   5.373
 4086TIP3    H212223   0.591   5.711   5.474
 4087TIP3   OH212224   4.769   5.032   4.841
 4087TIP3    H112225   4.742   5.022   4.932
 4087TIP3    H212226   4.753   4.947   4.801
 4088TIP3   OH212227   5.255   6.024   4.397
 4088TIP3    H112228   5.264   6.051   4.488
 4088TIP3    H212229   5.320   6.076   4.349
 4089TIP3   OH212230   1.189   0.640   1.127
 4089TIP3    H112231   1.216   0.718   1.175
 4089TIP3    H212232   1.157   0.580   1.195
 4090TIP3   OH212233   2.985   3.840   5.165
 4090TIP3    H112234   2.907   3.870   5.119
 4090TIP3    H212235   2.965   3.855   5.258
 4091TIP3   OH212236   2.276   0.109   0.729
 4091TIP3    H112237   2.319   0.147   0.805
 4091TIP3    H212238   2.328   0.138   0.654
 4092TIP3   OH212239   4.083   4.773   3.586
 4092TIP3    H112240   4.130   4.745   3.664
 4092TIP3    H212241   3.995   4.739   3.598
 4093TIP3   OH212242   1.570   5.674   1.017
 4093TIP3    H112243   1.579   5.641   0.928
 4093TIP3    H212244   1.657   5.666   1.055
 4094TIP3   OH212245   1.316   4.609   2.702
 4094TIP3    H112246   1.339   4.543   2.769
 4094TIP3    H212247   1.238   4.652   2.738
 4095TIP3   OH212248   4.203   6.182   1.090
 4095TIP3    H112249   4.214   6.130   1.011
 4095TIP3    H212250   4.244   6.130   1.159
 4096TIP3   OH212251   6.476   6.543   0.719
 4096TIP3    H112252   6.449   6.567   0.808
 4096TIP3    H212253   6.508   6.453   0.727
 4097TIP3   OH212254   0.464   6.150   2.203
 4097TIP3    H112255   0.466   6.214   2.132
 4097TIP3    H212256   0.506   6.072   2.167
 4098TIP3   OH212257   3.240   3.628   0.910
 4098TIP3    H112258   3.269   3.619   1.001
 4098TIP3    H212259   3.294   3.567   0.861
 4099TIP3   OH212260   3.658   6.089   0.250
 4099TIP3    H112261   3.578   6.037   0.258
 4099TIP3    H212262   3.725   6.025   0.223
 4100TIP3   OH212263   2.545   4.197   1.225
 4100TIP3    H112264   2.633   4.234   1.227
 4100TIP3    H212265   2.517   4.196   1.317
 4101TIP3   OH212266   2.590   5.287   1.712
 4101TIP3    H112267   2.530   5.346   1.757
 4101TIP3    H212268   2.581   5.309   1.619
 4102TIP3   OH212269   4.305   2.901   5.475
 4102TIP3    H112270   4.359   2.880   5.398
 4102TIP3    H212271   4.296   2.818   5.521
 4103TIP3   OH212272   5.319   4.577   1.002
 4103TIP3    H112273   5.414   4.567   1.011
 4103TIP3    H212274   5.304   4.671   1.006
 4104TIP3   OH212275   0.824   1.978   5.882
 4104TIP3    H112276   0.900   1.941   5.836
 4104TIP3    H212277   0.776   2.026   5.814
 4105TIP3   OH212278   5.474   4.484   5.763
 4105TIP3    H112279   5.418   4.502   5.838
 4105TIP3    H212280   5.459   4.557   5.704
 4106TIP3   OH212281   0.608   0.196   0.370
 4106TIP3    H112282   0.694   0.159   0.392
 4106TIP3    H212283   0.615   0.288   0.394
 4107TIP3   OH212284   5.079   5.364   3.210
 4107TIP3    H112285   5.038   5.402   3.132
 4107TIP3    H212286   5.047   5.418   3.282
 4108TIP3   OH212287   1.639   1.294   5.089
 4108TIP3    H112288   1.723   1.318   5.128
 4108TIP3    H212289   1.662   1.231   5.020
 4109TIP3   OH212290   5.585   1.145   0.744
 4109TIP3    H112291   5.545   1.137   0.830
 4109TIP3    H212292   5.591   1.055   0.712
 4110TIP3   OH212293   0.968   0.071   5.270
 4110TIP3    H112294   0.938   0.000   5.327
 4110TIP3    H212295   0.894   0.133   5.269
 4111TIP3   OH212296   4.894   6.443   0.226
 4111TIP3    H112297   4.915   6.434   0.318
 4111TIP3    H212298   4.914   6.535   0.205
 4112TIP3   OH212299   2.345   2.609   1.416
 4112TIP3    H112300   2.329   2.682   1.475
 4112TIP3    H212301   2.428   2.631   1.373
 4113TIP3   OH212302   6.856   3.993   3.285
 4113TIP3    H112303   6.763   4.009   3.303
 4113TIP3    H212304   6.880   4.058   3.219
 4114TIP3   OH212305   0.641   1.021   4.103
 4114TIP3    H112306   0.709   1.061   4.049
 4114TIP3    H212307   0.573   0.993   4.041
 4115TIP3   OH212308   0.729   6.325   3.641
 4115TIP3    H112309   0.766   6.411   3.622
 4115TIP3    H212310   0.711   6.286   3.555
 4116TIP3   OH212311   3.566   6.737   2.236
 4116TIP3    H112312   3.473   6.753   2.250
 4116TIP3    H212313   3.608   6.764   2.318
 4117TIP3   OH212314   7.069   1.738   5.385
 4117TIP3    H112315   7.105   1.819   5.351
 4117TIP3    H212316   6.983   1.730   5.342
 4118TIP3   OH212317   5.412   2.961   2.720
 4118TIP3    H112318   5.415   2.866   2.717
 4118TIP3    H212319   5.397   2.988   2.629
 4119TIP3   OH212320   4.982   6.169   2.784
 4119TIP3    H112321   4.970   6.108   2.857
 4119TIP3    H212322   4.914   6.145   2.721
 4120TIP3   OH212323   1.263   0.809   4.586
 4120TIP3    H112324   1.354   0.782   4.594
 4120TIP3    H212325   1.267   0.903   4.573
 4121TIP3   OH212326   3.466   2.733   1.690
 4121TIP3    H112327   3.481   2.760   1.599
 4121TIP3    H212328   3.372   2.716   1.695
 4122TIP3   OH212329   3.758   4.652   2.517
 4122TIP3    H112330   3.835   4.703   2.543
 4122TIP3    H212331   3.685   4.713   2.522
 4123TIP3   OH212332   0.046   0.433   3.660
 4123TIP3    H112333   0.025   0.514   3.612
 4123TIP3    H212334   0.140   0.439   3.675
 4124TIP3   OH212335   6.881   6.737   0.773
 4124TIP3    H112336   6.965   6.776   0.751
 4124TIP3    H212337   6.878   6.736   0.868
 4125TIP3   OH212338   2.850   5.991   0.214
 4125TIP3    H112339   2.916   5.976   0.282
 4125TIP3    H212340   2.901   6.000   0.133
 4126TIP3   OH212341   6.326   0.262   0.639
 4126TIP3    H112342   6.246   0.282   0.591
 4126TIP3    H212343   6.366   0.191   0.589
 4127TIP3   OH212344   6.956   3.624   1.242
 4127TIP3    H112345   6.875   3.576   1.225
 4127TIP3    H212346   6.992   3.582   1.321
 4128TIP3   OH212347   0.467   4.416   4.675
 4128TIP3    H112348   0.438   4.408   4.766
 4128TIP3    H212349   0.497   4.328   4.652
 4129TIP3   OH212350   5.403   4.878   4.817
 4129TIP3    H112351   5.313   4.850   4.837
 4129TIP3    H212352   5.456   4.841   4.887
 4130TIP3   OH212353   6.575   3.411   5.755
 4130TIP3    H112354   6.531   3.494   5.774
 4130TIP3    H212355   6.510   3.359   5.708
 4131TIP3   OH212356   0.410   3.921   3.672
 4131TIP3    H112357   0.321   3.905   3.704
 4131TIP3    H212358   0.464   3.916   3.750
 4132TIP3   OH212359   4.380   2.973   5.148
 4132TIP3    H112360   4.366   3.053   5.198
 4132TIP3    H212361   4.467   2.983   5.110
 4133TIP3   OH212362   4.646   3.391   1.259
 4133TIP3    H112363   4.740   3.378   1.249
 4133TIP3    H212364   4.637   3.442   1.340
 4134TIP3   OH212365   2.710   2.391   3.112
 4134TIP3    H112366   2.674   2.309   3.076
 4134TIP3    H212367   2.646   2.458   3.087
 4135TIP3   OH212368   1.357   4.578   3.967
 4135TIP3    H112369   1.385   4.583   3.876
 4135TIP3    H212370   1.326   4.488   3.977
 4136TIP3   OH212371   6.093   2.214   2.588
 4136TIP3    H112372   6.173   2.188   2.633
 4136TIP3    H212373   6.057   2.285   2.642
 4137TIP3   OH212374   0.007   4.891   1.585
 4137TIP3    H112375   0.051   4.825   1.531
 4137TIP3    H212376   0.058   4.971   1.570
 4138TIP3   OH212377   0.147   2.138   5.830
 4138TIP3    H112378   0.060   2.176   5.830
 4138TIP3    H212379   0.132   2.043   5.837
 4139TIP3   OH212380   7.161   2.891   1.581
 4139TIP3    H112381   7.221   2.873   1.508
 4139TIP3    H212382   7.080   2.920   1.538
 4140TIP3   OH212383   2.529   6.703   4.033
 4140TIP3    H112384   2.597   6.745   4.085
 4140TIP3    H212385   2.574   6.631   3.989
 4141TIP3   OH212386   5.280   0.183   4.414
 4141TIP3    H112387   5.353   0.202   4.474
 4141TIP3    H212388   5.265   0.089   4.424
 4142TIP3   OH212389   4.216   2.393   2.628
 4142TIP3    H112390   4.288   2.419   2.571
 4142TIP3    H212391   4.161   2.471   2.635
 4143TIP3   OH212392   2.746   2.812   2.112
 4143TIP3    H112393   2.788   2.839   2.030
 4143TIP3    H212394   2.656   2.842   2.104
 4144TIP3   OH212395   4.918   3.356   1.275
 4144TIP3    H112396   4.938   3.381   1.365
 4144TIP3    H212397   4.953   3.428   1.222
 4145TIP3   OH212398   5.789   4.620   4.053
 4145TIP3    H112399   5.834   4.626   3.968
 4145TIP3    H212400   5.768   4.710   4.076
 4146TIP3   OH212401   0.348   2.800   5.578
 4146TIP3    H112402   0.327   2.721   5.627
 4146TIP3    H212403   0.433   2.782   5.539
 4147TIP3   OH212404   2.188   6.711   3.864
 4147TIP3    H112405   2.133   6.743   3.793
 4147TIP3    H212406   2.126   6.674   3.927
 4148TIP3   OH212407   0.744   0.982   0.985
 4148TIP3    H112408   0.704   0.985   0.898
 4148TIP3    H212409   0.769   1.073   1.003
 4149TIP3   OH212410   5.726   0.277   0.636
 4149TIP3    H112411   5.662   0.305   0.570
 4149TIP3    H212412   5.811   0.296   0.596
 4150TIP3   OH212413   6.720   5.013   3.475
 4150TIP3    H112414   6.688   4.946   3.415
 4150TIP3    H212415   6.641   5.058   3.506
 4151TIP3   OH212416   3.693   2.343   5.054
 4151TIP3    H112417   3.752   2.277   5.017
 4151TIP3    H212418   3.743   2.382   5.126
 4152TIP3   OH212419   5.263   0.421   5.756
 4152TIP3    H112420   5.249   0.358   5.685
 4152TIP3    H212421   5.179   0.425   5.802
 4153TIP3   OH212422   2.966   1.782   5.250
 4153TIP3    H112423   3.051   1.785   5.294
 4153TIP3    H212424   2.977   1.836   5.172
 4154TIP3   OH212425   5.423   4.535   0.635
 4154TIP3    H112426   5.377   4.470   0.582
 4154TIP3    H212427   5.356   4.600   0.658
 4155TIP3   OH212428   4.577   1.626   1.011
 4155TIP3    H112429   4.570   1.676   0.930
 4155TIP3    H212430   4.651   1.567   0.997
 4156TIP3   OH212431   3.228   0.886   3.734
 4156TIP3    H112432   3.189   0.894   3.647
 4156TIP3    H212433   3.314   0.848   3.718
 4157TIP3   OH212434   5.808   4.187   4.247
 4157TIP3    H112435   5.781   4.256   4.307
 4157TIP3    H212436   5.892   4.216   4.212
 4158TIP3   OH212437   3.569   4.769   1.968
 4158TIP3    H112438   3.512   4.841   1.996
 4158TIP3    H212439   3.635   4.811   1.913
 4159TIP3   OH212440   5.999   3.251   1.038
 4159TIP3    H112441   5.990   3.227   1.130
 4159TIP3    H212442   5.933   3.320   1.025
 4160TIP3   OH212443   5.116   4.075   5.859
 4160TIP3    H112444   5.187   4.138   5.873
 4160TIP3    H212445   5.150   3.992   5.891
 4161TIP3   OH212446   6.493   5.410   4.605
 4161TIP3    H112447   6.403   5.378   4.597
 4161TIP3    H212448   6.536   5.379   4.525
 4162TIP3   OH212449   4.998   1.429   1.804
 4162TIP3    H112450   4.906   1.436   1.781
 4162TIP3    H212451   5.045   1.466   1.729
 4163TIP3   OH212452   0.634   3.452   4.216
 4163TIP3    H112453   0.557   3.417   4.171
 4163TIP3    H212454   0.701   3.384   4.207
 4164TIP3   OH212455   2.133   5.293   1.275
 4164TIP3    H112456   2.211   5.306   1.329
 4164TIP3    H212457   2.084   5.224   1.319
 4165TIP3   OH212458   2.864   5.256   2.155
 4165TIP3    H112459   2.870   5.210   2.071
 4165TIP3    H212460   2.866   5.187   2.221
 4166TIP3   OH212461   3.197   0.481   4.113
 4166TIP3    H112462   3.268   0.451   4.171
 4166TIP3    H212463   3.118   0.473   4.166
 4167TIP3   OH212464   2.386   6.605   5.041
 4167TIP3    H112465   2.418   6.588   5.129
 4167TIP3    H212466   2.291   6.592   5.046
 4168TIP3   OH212467   1.064   0.152   3.320
 4168TIP3    H112468   1.109   0.204   3.253
 4168TIP3    H212469   0.974   0.184   3.319
 4169TIP3   OH212470   2.323   2.129   1.580
 4169TIP3    H112471   2.365   2.203   1.623
 4169TIP3    H212472   2.307   2.158   1.491
 4170TIP3   OH212473   5.331   2.458   4.566
 4170TIP3    H112474   5.350   2.487   4.655
 4170TIP3    H212475   5.412   2.476   4.517
 4171TIP3   OH212476   0.051   5.993   4.049
 4171TIP3    H112477   0.132   6.013   4.097
 4171TIP3    H212478   0.051   6.054   3.976
 4172TIP3   OH212479   2.633   0.008   1.830
 4172TIP3    H112480   2.592   0.088   1.863
 4172TIP3    H212481   2.727   0.022   1.844
 4173TIP3   OH212482   0.565   1.649   1.819
 4173TIP3    H112483   0.477   1.680   1.799
 4173TIP3    H212484   0.562   1.626   1.912
 4174TIP3   OH212485   4.746   1.132   4.351
 4174TIP3    H112486   4.817   1.129   4.287
 4174TIP3    H212487   4.730   1.040   4.372
 4175TIP3   OH212488   6.586   0.351   2.261
 4175TIP3    H112489   6.518   0.284   2.258
 4175TIP3    H212490   6.622   0.353   2.172
 4176TIP3   OH212491   4.610   6.214   2.268
 4176TIP3    H112492   4.579   6.287   2.321
 4176TIP3    H212493   4.641   6.254   2.187
 4177TIP3   OH212494   0.946   1.389   2.465
 4177TIP3    H112495   1.033   1.422   2.486
 4177TIP3    H212496   0.906   1.370   2.549
 4178TIP3   OH212497   0.246   4.862   1.759
 4178TIP3    H112498   0.224   4.922   1.689
 4178TIP3    H212499   0.162   4.842   1.801
 4179TIP3   OH212500   0.427   3.195   1.839
 4179TIP3    H112501   0.489   3.265   1.817
 4179TIP3    H212502   0.372   3.232   1.908
 4180TIP3   OH212503   7.234   3.532   0.451
 4180TIP3    H112504   7.203   3.466   0.388
 4180TIP3    H212505   7.163   3.542   0.513
 4181TIP3   OH212506   6.373   0.211   5.055
 4181TIP3    H112507   6.425   0.156   4.996
 4181TIP3    H212508   6.417   0.296   5.053
 4182TIP3   OH212509   2.005   0.673   1.956
 4182TIP3    H112510   1.945   0.744   1.932
 4182TIP3    H212511   1.950   0.594   1.954
 4183TIP3   OH212512   2.812   5.700   0.259
 4183TIP3    H112513   2.776   5.786   0.279
 4183TIP3    H212514   2.735   5.645   0.243
 4184TIP3   OH212515   6.821   1.179   2.612
 4184TIP3    H112516   6.740   1.198   2.660
 4184TIP3    H212517   6.885   1.242   2.647
 4185TIP3   OH212518   5.184   3.117   1.650
 4185TIP3    H112519   5.195   3.193   1.593
 4185TIP3    H212520   5.098   3.130   1.690
 4186TIP3   OH212521   5.087   2.469   3.499
 4186TIP3    H112522   5.060   2.487   3.409
 4186TIP3    H212523   5.157   2.404   3.490
 4187TIP3   OH212524   5.288   5.209   1.698
 4187TIP3    H112525   5.265   5.188   1.788
 4187TIP3    H212526   5.376   5.174   1.686
 4188TIP3   OH212527   5.795   4.724   4.993
 4188TIP3    H112528   5.769   4.689   4.907
 4188TIP3    H212529   5.717   4.771   5.024
 4189TIP3   OH212530   5.975   4.851   5.143
 4189TIP3    H112531   6.059   4.808   5.161
 4189TIP3    H212532   5.917   4.780   5.116
 4190TIP3   OH212533   4.817   6.493   2.541
 4190TIP3    H112534   4.794   6.562   2.604
 4190TIP3    H212535   4.796   6.412   2.586
 4191TIP3   OH212536   0.588   4.611   5.092
 4191TIP3    H112537   0.575   4.618   5.187
 4191TIP3    H212538   0.680   4.585   5.083
 4192TIP3   OH212539   2.240   1.680   1.090
 4192TIP3    H112540   2.222   1.773   1.098
 4192TIP3    H212541   2.158   1.642   1.056
 4193TIP3   OH212542   0.965   6.838   0.248
 4193TIP3    H112543   0.914   6.756   0.243
 4193TIP3    H212544   1.048   6.812   0.288
 4194TIP3   OH212545   7.187   2.816   2.520
 4194TIP3    H112546   7.194   2.722   2.501
 4194TIP3    H212547   7.262   2.834   2.577
 4195TIP3   OH212548   1.540   3.735   5.740
 4195TIP3    H112549   1.527   3.722   5.646
 4195TIP3    H212550   1.531   3.829   5.753
 4196TIP3   OH212551   6.626   2.570   3.555
 4196TIP3    H112552   6.544   2.614   3.577
 4196TIP3    H212553   6.606   2.518   3.478
 4197TIP3   OH212554   4.006   5.993   1.674
 4197TIP3    H112555   4.046   6.029   1.594
 4197TIP3    H212556   4.061   5.917   1.695
 4198TIP3   OH212557   0.411   4.101   5.055
 4198TIP3    H112558   0.422   4.191   5.085
 4198TIP3    H212559   0.468   4.094   4.978
 4199TIP3   OH212560   5.650   0.457   0.425
 4199TIP3    H112561   5.569   0.477   0.473
 4199TIP3    H212562   5.690   0.542   0.410
 4200TIP3   OH212563   2.569   0.055   1.546
 4200TIP3    H112564   2.578   0.036   1.639
 4200TIP3    H212565   2.603   0.144   1.537
 4201TIP3   OH212566   5.769   4.917   5.327
 4201TIP3    H112567   5.827   4.981   5.368
 4201TIP3    H212568   5.824   4.873   5.262
 4202TIP3   OH212569   6.536   0.120   3.521
 4202TIP3    H112570   6.559   0.131   3.613
 4202TIP3    H212571   6.571   0.035   3.497
 4203TIP3   OH212572   0.469   4.170   0.085
 4203TIP3    H112573   0.407   4.114   0.132
 4203TIP3    H212574   0.554   4.126   0.097
 4204TIP3   OH212575   0.533   6.723   3.783
 4204TIP3    H112576   0.444   6.732   3.749
 4204TIP3    H212577   0.589   6.746   3.709
 4205TIP3   OH212578   0.181   3.563   1.668
 4205TIP3    H112579   0.227   3.502   1.611
 4205TIP3    H212580   0.227   3.646   1.655
 4206TIP3   OH212581   4.635   5.591   2.586
 4206TIP3    H112582   4.565   5.628   2.533
 4206TIP3    H212583   4.602   5.593   2.675
 4207TIP3   OH212584   4.444   5.804   1.053
 4207TIP3    H112585   4.508   5.808   1.124
 4207TIP3    H212586   4.362   5.781   1.097
 4208TIP3   OH212587   2.772   1.360   3.517
 4208TIP3    H112588   2.737   1.293   3.459
 4208TIP3    H212589   2.836   1.314   3.571
 4209TIP3   OH212590   6.757   0.090   2.452
 4209TIP3    H112591   6.758   0.185   2.465
 4209TIP3    H212592   6.795   0.055   2.533
 4210TIP3   OH212593   1.987   4.218   4.094
 4210TIP3    H112594   1.911   4.275   4.093
 4210TIP3    H212595   1.995   4.190   4.186
 4211TIP3   OH212596   4.376   5.233   4.485
 4211TIP3    H112597   4.353   5.143   4.461
 4211TIP3    H212598   4.373   5.233   4.581
 4212TIP3   OH212599   2.649   2.711   3.579
 4212TIP3    H112600   2.619   2.644   3.518
 4212TIP3    H212601   2.634   2.794   3.532
 4213TIP3   OH212602   4.999   1.353   3.001
 4213TIP3    H112603   5.048   1.366   2.919
 4213TIP3    H212604   5.047   1.285   3.047
 4214TIP3   OH212605   5.037   2.708   1.142
 4214TIP3    H112606   5.065   2.778   1.083
 4214TIP3    H212607   5.079   2.728   1.225
 4215TIP3   OH212608   1.219   3.271   0.383
 4215TIP3    H112609   1.218   3.199   0.319
 4215TIP3    H212610   1.164   3.239   0.455
 4216TIP3   OH212611   4.384   5.885   3.769
 4216TIP3    H112612   4.406   5.844   3.686
 4216TIP3    H212613   4.348   5.814   3.822
 4217TIP3   OH212614   4.797   4.502   2.843
 4217TIP3    H112615   4.822   4.413   2.818
 4217TIP3    H212616   4.831   4.558   2.773
 4218TIP3   OH212617   5.768   0.286   4.034
 4218TIP3    H112618   5.791   0.378   4.050
 4218TIP3    H212619   5.677   0.290   4.005
 4219TIP3   OH212620   6.409   5.393   2.784
 4219TIP3    H112621   6.343   5.428   2.844
 4219TIP3    H212622   6.409   5.299   2.801
 4220TIP3   OH212623   7.224   5.969   1.793
 4220TIP3    H112624   7.175   5.887   1.800
 4220TIP3    H212625   7.293   5.961   1.859
 4221TIP3   OH212626   2.291   2.088   3.494
 4221TIP3    H112627   2.264   2.020   3.432
 4221TIP3    H212628   2.261   2.056   3.579
 4222TIP3   OH212629   2.645   0.921   5.662
 4222TIP3    H112630   2.614   1.004   5.626
 4222TIP3    H212631   2.708   0.888   5.597
 4223TIP3   OH212632   7.124   1.351   3.274
 4223TIP3    H112633   7.081   1.297   3.207
 4223TIP3    H212634   7.087   1.320   3.357
 4224TIP3   OH212635   6.350   1.838   4.953
 4224TIP3    H112636   6.431   1.854   5.001
 4224TIP3    H212637   6.287   1.811   5.019
 4225TIP3   OH212638   5.038   3.133   3.873
 4225TIP3    H112639   5.026   3.223   3.903
 4225TIP3    H212640   5.112   3.100   3.923
 4226TIP3   OH212641   3.546   3.125   2.498
 4226TIP3    H112642   3.606   3.073   2.444
 4226TIP3    H212643   3.526   3.201   2.444
 4227TIP3   OH212644   4.428   3.637   5.718
 4227TIP3    H112645   4.484   3.609   5.790
 4227TIP3    H212646   4.403   3.556   5.674
 4228TIP3   OH212647   1.111   2.326   0.616
 4228TIP3    H112648   1.068   2.241   0.610
 4228TIP3    H212649   1.121   2.354   0.525
 4229TIP3   OH212650   3.246   5.710   0.323
 4229TIP3    H112651   3.199   5.659   0.257
 4229TIP3    H212652   3.271   5.645   0.389
 4230TIP3   OH212653   0.698   0.776   5.411
 4230TIP3    H112654   0.729   0.695   5.371
 4230TIP3    H212655   0.635   0.812   5.348
 4231TIP3   OH212656   2.723   1.244   2.900
 4231TIP3    H112657   2.661   1.267   2.830
 4231TIP3    H212658   2.806   1.282   2.872
 4232TIP3   OH212659   5.900   1.563   5.048
 4232TIP3    H112660   5.848   1.528   5.121
 4232TIP3    H212661   5.873   1.654   5.041
 4233TIP3   OH212662   6.421   3.068   4.590
 4233TIP3    H112663   6.395   3.138   4.651
 4233TIP3    H212664   6.391   3.099   4.504
 4234TIP3   OH212665   5.697   6.010   0.414
 4234TIP3    H112666   5.780   5.973   0.444
 4234TIP3    H212667   5.644   5.933   0.391
 4235TIP3   OH212668   4.297   4.066   2.621
 4235TIP3    H112669   4.235   4.110   2.562
 4235TIP3    H212670   4.277   3.973   2.610
 4236TIP3   OH212671   1.693   0.998   0.992
 4236TIP3    H112672   1.690   0.925   1.053
 4236TIP3    H212673   1.750   0.969   0.922
 4237TIP3   OH212674   0.123   6.507   1.292
 4237TIP3    H112675   0.135   6.421   1.251
 4237TIP3    H212676   0.039   6.538   1.258
 4238TIP3   OH212677   1.695   2.359   3.490
 4238TIP3    H112678   1.680   2.267   3.468
 4238TIP3    H212679   1.789   2.370   3.483
 4239TIP3   OH212680   0.543   3.468   3.102
 4239TIP3    H112681   0.616   3.501   3.155
 4239TIP3    H212682   0.532   3.378   3.131
 4240TIP3   OH212683   2.993   0.698   5.352
 4240TIP3    H112684   2.916   0.697   5.295
 4240TIP3    H212685   3.067   0.711   5.293
 4241TIP3   OH212686   5.441   6.169   3.481
 4241TIP3    H112687   5.438   6.073   3.487
 4241TIP3    H212688   5.372   6.199   3.540
 4242TIP3   OH212689   3.350   2.872   5.749
 4242TIP3    H112690   3.379   2.824   5.826
 4242TIP3    H212691   3.424   2.866   5.688
 4243TIP3   OH212692   6.422   3.009   2.338
 4243TIP3    H112693   6.361   2.970   2.276
 4243TIP3    H212694   6.374   3.011   2.421
 4244TIP3   OH212695   5.169   3.770   2.689
 4244TIP3    H112696   5.076   3.772   2.670
 4244TIP3    H212697   5.182   3.837   2.757
 4245TIP3   OH212698   5.323   3.511   1.319
 4245TIP3    H112699   5.369   3.495   1.236
 4245TIP3    H212700   5.357   3.595   1.349
 4246TIP3   OH212701   3.132   4.230   5.398
 4246TIP3    H112702   3.073   4.302   5.422
 4246TIP3    H212703   3.172   4.259   5.316
 4247TIP3   OH212704   2.758   3.347   2.106
 4247TIP3    H112705   2.767   3.407   2.180
 4247TIP3    H212706   2.665   3.352   2.082
 4248TIP3   OH212707   2.913   4.438   1.889
 4248TIP3    H112708   2.873   4.352   1.902
 4248TIP3    H212709   2.898   4.457   1.796
 4249TIP3   OH212710   0.570   4.588   5.360
 4249TIP3    H112711   0.655   4.558   5.392
 4249TIP3    H212712   0.534   4.640   5.431
 4250TIP3   OH212713   1.929   6.793   1.268
 4250TIP3    H112714   2.023   6.810   1.272
 4250TIP3    H212715   1.919   6.732   1.194
 4251TIP3   OH212716   2.494   2.865   3.879
 4251TIP3    H112717   2.456   2.842   3.795
 4251TIP3    H212718   2.505   2.960   3.876
 4252TIP3   OH212719   5.406   2.744   2.011
 4252TIP3    H112720   5.502   2.748   2.019
 4252TIP3    H212721   5.386   2.651   2.009
 4253TIP3   OH212722   1.691   5.589   0.798
 4253TIP3    H112723   1.722   5.500   0.786
 4253TIP3    H212724   1.651   5.612   0.714
 4254TIP3   OH212725   3.179   5.000   0.436
 4254TIP3    H112726   3.122   5.070   0.468
 4254TIP3    H212727   3.120   4.937   0.395
 4255TIP3   OH212728   3.223   3.882   3.028
 4255TIP3    H112729   3.307   3.928   3.023
 4255TIP3    H212730   3.158   3.952   3.030
 4256TIP3   OH212731   2.237   6.418   2.053
 4256TIP3    H112732   2.313   6.427   1.995
 4256TIP3    H212733   2.249   6.332   2.094
 4257TIP3   OH212734   2.495   3.117   2.238
 4257TIP3    H112735   2.481   3.075   2.322
 4257TIP3    H212736   2.429   3.186   2.234
 4258TIP3   OH212737   6.842   0.430   4.070
 4258TIP3    H112738   6.900   0.381   4.128
 4258TIP3    H212739   6.854   0.522   4.095
 4259TIP3   OH212740   0.758   1.763   0.301
 4259TIP3    H112741   0.806   1.839   0.271
 4259TIP3    H212742   0.803   1.735   0.381
 4260TIP3   OH212743   3.436   3.563   5.064
 4260TIP3    H112744   3.447   3.653   5.033
 4260TIP3    H212745   3.482   3.560   5.147
 4261TIP3   OH212746   1.158   1.751   2.054
 4261TIP3    H112747   1.229   1.710   2.005
 4261TIP3    H212748   1.184   1.743   2.145
 4262TIP3   OH212749   6.861   5.599   0.643
 4262TIP3    H112750   6.789   5.555   0.688
 4262TIP3    H212751   6.821   5.637   0.565
 4263TIP3   OH212752   5.926   5.161   5.400
 4263TIP3    H112753   5.890   5.213   5.472
 4263TIP3    H212754   5.979   5.223   5.350
 4264TIP3   OH212755   0.363   1.942   2.466
 4264TIP3    H112756   0.326   1.884   2.400
 4264TIP3    H212757   0.456   1.947   2.444
 4265TIP3   OH212758   1.283   6.044   0.489
 4265TIP3    H112759   1.366   6.067   0.530
 4265TIP3    H212760   1.229   6.010   0.561
 4266TIP3   OH212761   6.068   1.788   0.760
 4266TIP3    H112762   5.991   1.821   0.714
 4266TIP3    H212763   6.049   1.695   0.775
 4267TIP3   OH212764   2.476   5.333   0.414
 4267TIP3    H112765   2.434   5.329   0.328
 4267TIP3    H212766   2.423   5.393   0.465
 4268TIP3   OH212767   3.015   3.305   5.686
 4268TIP3    H112768   3.065   3.351   5.619
 4268TIP3    H212769   2.933   3.354   5.692
 4269TIP3   OH212770   5.284   6.664   4.599
 4269TIP3    H112771   5.319   6.725   4.533
 4269TIP3    H212772   5.333   6.583   4.583
 4270TIP3   OH212773   3.503   4.844   5.863
 4270TIP3    H112774   3.448   4.781   5.908
 4270TIP3    H212775   3.571   4.791   5.820
 4271TIP3   OH212776   2.469   1.027   4.334
 4271TIP3    H112777   2.472   0.932   4.346
 4271TIP3    H212778   2.493   1.040   4.242
 4272TIP3   OH212779   4.805   4.985   2.631
 4272TIP3    H112780   4.800   4.988   2.535
 4272TIP3    H212781   4.838   4.897   2.650
 4273TIP3   OH212782   4.732   0.080   2.854
 4273TIP3    H112783   4.790   0.004   2.851
 4273TIP3    H212784   4.682   0.075   2.772
 4274TIP3   OH212785   0.725   4.283   5.516
 4274TIP3    H112786   0.637   4.257   5.545
 4274TIP3    H212787   0.738   4.235   5.434
 4275TIP3   OH212788   6.840   3.808   5.660
 4275TIP3    H112789   6.915   3.835   5.714
 4275TIP3    H212790   6.821   3.885   5.606
 4276TIP3   OH212791   1.441   1.401   0.730
 4276TIP3    H112792   1.373   1.390   0.796
 4276TIP3    H212793   1.522   1.411   0.781
 4277TIP3   OH212794   1.360   0.426   3.231
 4277TIP3    H112795   1.322   0.442   3.145
 4277TIP3    H212796   1.447   0.466   3.227
 4278TIP3   OH212797   1.484   5.630   1.795
 4278TIP3    H112798   1.528   5.596   1.873
 4278TIP3    H212799   1.395   5.594   1.800
 4279TIP3   OH212800   0.609   1.706   1.167
 4279TIP3    H112801   0.602   1.799   1.146
 4279TIP3    H212802   0.690   1.677   1.123
 4280TIP3   OH212803   1.715   5.779   5.137
 4280TIP3    H112804   1.743   5.771   5.046
 4280TIP3    H212805   1.693   5.690   5.164
 4281TIP3   OH212806   3.860   0.419   2.432
 4281TIP3    H112807   3.773   0.425   2.471
 4281TIP3    H212808   3.848   0.441   2.340
 4282TIP3   OH212809   1.294   1.761   3.927
 4282TIP3    H112810   1.386   1.785   3.920
 4282TIP3    H212811   1.246   1.841   3.907
 4283TIP3   OH212812   0.844   1.843   5.577
 4283TIP3    H112813   0.838   1.935   5.553
 4283TIP3    H212814   0.927   1.834   5.622
 4284TIP3   OH212815   3.481   2.395   4.729
 4284TIP3    H112816   3.554   2.334   4.719
 4284TIP3    H212817   3.506   2.471   4.676
 4285TIP3   OH212818   2.248   1.385   0.816
 4285TIP3    H112819   2.311   1.412   0.883
 4285TIP3    H212820   2.164   1.419   0.846
 4286TIP3   OH212821   5.216   3.089   3.280
 4286TIP3    H112822   5.307   3.080   3.309
 4286TIP3    H212823   5.175   3.007   3.306
 4287TIP3   OH212824   4.869   2.274   1.228
 4287TIP3    H112825   4.825   2.358   1.233
 4287TIP3    H212826   4.960   2.293   1.253
 4288TIP3   OH212827   6.774   4.109   5.897
 4288TIP3    H112828   6.692   4.062   5.883
 4288TIP3    H212829   6.828   4.048   5.948
 4289TIP3   OH212830   2.980   6.633   2.403
 4289TIP3    H112831   2.896   6.647   2.359
 4289TIP3    H212832   3.035   6.593   2.335
 4290TIP3   OH212833   2.506   2.580   3.142
 4290TIP3    H112834   2.463   2.530   3.211
 4290TIP3    H212835   2.590   2.606   3.179
 4291TIP3   OH212836   4.570   2.269   4.231
 4291TIP3    H112837   4.516   2.316   4.294
 4291TIP3    H212838   4.564   2.320   4.150
 4292TIP3   OH212839   5.276   3.948   2.261
 4292TIP3    H112840   5.188   3.914   2.242
 4292TIP3    H212841   5.325   3.932   2.181
 4293TIP3   OH212842   3.851   0.761   5.448
 4293TIP3    H112843   3.902   0.751   5.367
 4293TIP3    H212844   3.813   0.675   5.463
 4294TIP3   OH212845   3.822   3.849   0.248
 4294TIP3    H112846   3.793   3.771   0.295
 4294TIP3    H212847   3.918   3.845   0.252
 4295TIP3   OH212848   1.906   6.172   1.678
 4295TIP3    H112849   1.874   6.254   1.641
 4295TIP3    H212850   1.964   6.199   1.750
 4296TIP3   OH212851   1.365   4.570   0.590
 4296TIP3    H112852   1.306   4.497   0.573
 4296TIP3    H212853   1.418   4.543   0.665
 4297TIP3   OH212854   5.221   1.733   4.222
 4297TIP3    H112855   5.212   1.699   4.133
 4297TIP3    H212856   5.156   1.684   4.273
 4298TIP3   OH212857   3.739   4.111   1.366
 4298TIP3    H112858   3.733   4.152   1.452
 4298TIP3    H212859   3.648   4.096   1.339
 4299TIP3   OH212860   0.269   1.735   1.344
 4299TIP3    H112861   0.319   1.817   1.344
 4299TIP3    H212862   0.213   1.741   1.267
 4300TIP3   OH212863   2.173   4.919   0.608
 4300TIP3    H112864   2.119   4.899   0.683
 4300TIP3    H212865   2.169   5.015   0.600
 4301TIP3   OH212866   4.709   6.758   4.286
 4301TIP3    H112867   4.759   6.805   4.353
 4301TIP3    H212868   4.635   6.719   4.334
 4302TIP3   OH212869   3.353   2.688   4.975
 4302TIP3    H112870   3.287   2.731   5.030
 4302TIP3    H212871   3.330   2.595   4.978
 4303TIP3   OH212872   6.351   6.792   3.926
 4303TIP3    H112873   6.410   6.826   3.993
 4303TIP3    H212874   6.363   6.697   3.930
 4304TIP3   OH212875   0.536   0.079   3.564
 4304TIP3    H112876   0.505   0.066   3.654
 4304TIP3    H212877   0.503   0.002   3.516
 4305TIP3   OH212878   4.698   1.645   1.475
 4305TIP3    H112879   4.779   1.689   1.448
 4305TIP3    H212880   4.650   1.711   1.525
 4306TIP3   OH212881   5.831   2.364   0.126
 4306TIP3    H112882   5.885   2.403   0.194
 4306TIP3    H212883   5.868   2.397   0.044
 4307TIP3   OH212884   6.853   6.454   1.275
 4307TIP3    H112885   6.936   6.459   1.323
 4307TIP3    H212886   6.878   6.462   1.183
 4308TIP3   OH212887   7.218   0.727   1.806
 4308TIP3    H112888   7.295   0.775   1.776
 4308TIP3    H212889   7.169   0.790   1.859
 4309TIP3   OH212890   7.099   5.140   0.681
 4309TIP3    H112891   7.165   5.072   0.671
 4309TIP3    H212892   7.147   5.222   0.674
 4310TIP3   OH212893   1.623   3.414   5.580
 4310TIP3    H112894   1.665   3.406   5.665
 4310TIP3    H212895   1.677   3.361   5.521
 4311TIP3   OH212896   6.443   6.352   3.445
 4311TIP3    H112897   6.372   6.402   3.404
 4311TIP3    H212898   6.410   6.331   3.532
 4312TIP3   OH212899   3.974   3.122   1.492
 4312TIP3    H112900   4.011   3.038   1.520
 4312TIP3    H212901   3.998   3.128   1.399
 4313TIP3   OH212902   4.815   0.354   3.701
 4313TIP3    H112903   4.768   0.274   3.682
 4313TIP3    H212904   4.811   0.405   3.620
 4314TIP3   OH212905   5.371   3.470   0.688
 4314TIP3    H112906   5.347   3.455   0.780
 4314TIP3    H212907   5.334   3.396   0.641
 4315TIP3   OH212908   6.418   0.894   0.190
 4315TIP3    H112909   6.365   0.826   0.231
 4315TIP3    H212910   6.475   0.847   0.129
 4316TIP3   OH212911   1.197   2.966   4.434
 4316TIP3    H112912   1.259   3.022   4.388
 4316TIP3    H212913   1.112   2.992   4.400
 4317TIP3   OH212914   5.026   2.359   0.675
 4317TIP3    H112915   5.005   2.417   0.602
 4317TIP3    H212916   5.120   2.370   0.690
 4318TIP3   OH212917   3.431   3.351   2.414
 4318TIP3    H112918   3.387   3.397   2.485
 4318TIP3    H212919   3.367   3.349   2.343
 4319TIP3   OH212920   4.072   5.540   3.073
 4319TIP3    H112921   4.006   5.592   3.027
 4319TIP3    H212922   4.075   5.579   3.161
 4320TIP3   OH212923   0.559   4.591   5.847
 4320TIP3    H112924   0.653   4.574   5.860
 4320TIP3    H212925   0.521   4.584   5.934
 4321TIP3   OH212926   4.309   3.441   5.524
 4321TIP3    H112927   4.225   3.396   5.525
 4321TIP3    H212928   4.302   3.505   5.453
 4322TIP3   OH212929   3.441   1.313   2.888
 4322TIP3    H112930   3.437   1.222   2.859
 4322TIP3    H212931   3.531   1.339   2.872
 4323TIP3   OH212932   5.986   5.858   0.034
 4323TIP3    H112933   6.033   5.782   0.000
 4323TIP3    H212934   6.054   5.925   0.045
 4324TIP3   OH212935   0.560   5.601   2.630
 4324TIP3    H112936   0.486   5.598   2.571
 4324TIP3    H212937   0.598   5.513   2.627
 4325TIP3   OH212938   5.294   0.106   5.834
 4325TIP3    H112939   5.344   0.054   5.771
 4325TIP3    H212940   5.247   0.170   5.782
 4326TIP3   OH212941   0.363   4.837   3.794
 4326TIP3    H112942   0.322   4.879   3.870
 4326TIP3    H212943   0.290   4.813   3.737
 4327TIP3   OH212944   1.527   1.859   2.098
 4327TIP3    H112945   1.466   1.885   2.167
 4327TIP3    H212946   1.575   1.786   2.135
 4328TIP3   OH212947   3.839   5.394   1.294
 4328TIP3    H112948   3.844   5.489   1.300
 4328TIP3    H212949   3.818   5.377   1.202
 4329TIP3   OH212950   2.870   0.883   5.482
 4329TIP3    H112951   2.900   0.955   5.426
 4329TIP3    H212952   2.895   0.804   5.434
 4330TIP3   OH212953   3.557   5.977   4.564
 4330TIP3    H112954   3.516   5.909   4.618
 4330TIP3    H212955   3.492   5.998   4.498
 4331TIP3   OH212956   4.800   2.716   4.219
 4331TIP3    H112957   4.767   2.766   4.294
 4331TIP3    H212958   4.892   2.741   4.213
 4332TIP3   OH212959   3.171   2.051   2.209
 4332TIP3    H112960   3.156   2.146   2.207
 4332TIP3    H212961   3.256   2.040   2.167
 4333TIP3   OH212962   1.114   0.207   1.769
 4333TIP3    H112963   1.121   0.201   1.864
 4333TIP3    H212964   1.140   0.120   1.738
 4334TIP3   OH212965   3.405   5.612   0.048
 4334TIP3    H112966   3.457   5.686   0.080
 4334TIP3    H212967   3.314   5.638   0.062
 4335TIP3   OH212968   6.588   6.720   0.289
 4335TIP3    H112969   6.578   6.748   0.380
 4335TIP3    H212970   6.629   6.634   0.294
 4336TIP3   OH212971   0.749   4.132   5.267
 4336TIP3    H112972   0.687   4.188   5.220
 4336TIP3    H212973   0.697   4.056   5.293
 4337TIP3   OH212974   4.697   0.121   3.596
 4337TIP3    H112975   4.725   0.077   3.676
 4337TIP3    H212976   4.760   0.092   3.530
 4338TIP3   OH212977   4.472   3.910   4.232
 4338TIP3    H112978   4.549   3.916   4.289
 4338TIP3    H212979   4.434   3.824   4.253
 4339TIP3   OH212980   2.739   4.406   3.121
 4339TIP3    H112981   2.792   4.461   3.179
 4339TIP3    H212982   2.758   4.439   3.033
 4340TIP3   OH212983   5.232   0.341   5.373
 4340TIP3    H112984   5.293   0.267   5.372
 4340TIP3    H212985   5.277   0.409   5.423
 4341TIP3   OH212986   1.872   5.107   4.696
 4341TIP3    H112987   1.968   5.100   4.694
 4341TIP3    H212988   1.843   5.023   4.732
 4342TIP3   OH212989   3.905   1.572   0.345
 4342TIP3    H112990   3.938   1.509   0.408
 4342TIP3    H212991   3.812   1.581   0.366
 4343TIP3   OH212992   3.438   4.233   1.599
 4343TIP3    H112993   3.418   4.144   1.626
 4343TIP3    H212994   3.362   4.284   1.624
 4344TIP3   OH212995   4.173   6.669   3.435
 4344TIP3    H112996   4.087   6.635   3.409
 4344TIP3    H212997   4.223   6.590   3.458
 4345TIP3   OH212998   4.802   2.928   2.962
 4345TIP3    H112999   4.837   3.009   2.924
 4345TIP3    H213000   4.793   2.948   3.055
 4346TIP3   OH213001   5.457   3.605   0.441
 4346TIP3    H113002   5.417   3.587   0.356
 4346TIP3    H213003   5.438   3.528   0.493
 4347TIP3   OH213004   0.636   6.258   2.784
 4347TIP3    H113005   0.583   6.233   2.708
 4347TIP3    H213006   0.662   6.175   2.823
 4348TIP3   OH213007   5.935   1.227   5.353
 4348TIP3    H113008   5.969   1.245   5.441
 4348TIP3    H213009   6.012   1.230   5.296
 4349TIP3   OH213010   2.335   1.652   2.872
 4349TIP3    H113011   2.310   1.567   2.906
 4349TIP3    H213012   2.347   1.639   2.778
 4350TIP3   OH213013   5.739   6.241   5.562
 4350TIP3    H113014   5.699   6.299   5.627
 4350TIP3    H213015   5.817   6.206   5.606
 4351TIP3   OH213016   3.190   5.508   5.794
 4351TIP3    H113017   3.121   5.534   5.855
 4351TIP3    H213018   3.143   5.479   5.716
 4352TIP3   OH213019   3.766   1.301   1.797
 4352TIP3    H113020   3.814   1.256   1.727
 4352TIP3    H213021   3.809   1.385   1.805
 4353TIP3   OH213022   6.591   1.550   1.165
 4353TIP3    H113023   6.629   1.631   1.131
 4353TIP3    H213024   6.569   1.570   1.256
 4354TIP3   OH213025   2.201   5.098   1.659
 4354TIP3    H113026   2.127   5.037   1.655
 4354TIP3    H213027   2.277   5.041   1.672
 4355TIP3   OH213028   5.575   4.799   5.768
 4355TIP3    H113029   5.591   4.721   5.716
 4355TIP3    H213030   5.511   4.849   5.717
 4356TIP3   OH213031   6.193   4.516   5.280
 4356TIP3    H113032   6.253   4.555   5.217
 4356TIP3    H213033   6.238   4.438   5.312
 4357TIP3   OH213034   5.936   3.702   5.749
 4357TIP3    H113035   6.011   3.645   5.763
 4357TIP3    H213036   5.907   3.681   5.660
 4358TIP3   OH213037   2.672   5.144   3.449
 4358TIP3    H113038   2.716   5.078   3.503
 4358TIP3    H213039   2.732   5.159   3.376
 4359TIP3   OH213040   5.720   5.223   0.762
 4359TIP3    H113041   5.756   5.222   0.673
 4359TIP3    H213042   5.737   5.134   0.795
 4360TIP3   OH213043   0.746   6.103   1.344
 4360TIP3    H113044   0.746   6.146   1.258
 4360TIP3    H213045   0.835   6.071   1.355
 4361TIP3   OH213046   5.719   5.561   3.832
 4361TIP3    H113047   5.655   5.491   3.819
 4361TIP3    H213048   5.682   5.636   3.785
 4362TIP3   OH213049   3.966   1.229   3.756
 4362TIP3    H113050   3.877   1.241   3.722
 4362TIP3    H213051   4.014   1.307   3.727
 4363TIP3   OH213052   4.006   4.049   4.355
 4363TIP3    H113053   4.040   4.097   4.280
 4363TIP3    H213054   4.052   4.086   4.430
 4364TIP3   OH213055   5.789   1.292   1.395
 4364TIP3    H113056   5.776   1.248   1.479
 4364TIP3    H213057   5.817   1.223   1.335
 4365TIP3   OH213058   2.501   4.542   3.282
 4365TIP3    H113059   2.550   4.621   3.260
 4365TIP3    H213060   2.470   4.509   3.197
 4366TIP3   OH213061   6.253   0.152   4.625
 4366TIP3    H113062   6.193   0.222   4.650
 4366TIP3    H213063   6.266   0.164   4.531
 4367TIP3   OH213064   0.479   1.874   0.512
 4367TIP3    H113065   0.500   1.884   0.420
 4367TIP3    H213066   0.402   1.817   0.514
 4368TIP3   OH213067   0.447   2.068   5.033
 4368TIP3    H113068   0.459   2.159   5.007
 4368TIP3    H213069   0.535   2.037   5.054
 4369TIP3   OH213070   2.215   4.998   5.007
 4369TIP3    H113071   2.150   5.042   5.061
 4369TIP3    H213072   2.194   5.024   4.917
 4370TIP3   OH213073   3.023   3.053   4.327
 4370TIP3    H113074   3.024   2.957   4.325
 4370TIP3    H213075   2.963   3.076   4.398
 4371TIP3   OH213076   1.848   5.193   4.159
 4371TIP3    H113077   1.808   5.257   4.218
 4371TIP3    H213078   1.814   5.109   4.189
 4372TIP3   OH213079   0.399   6.477   1.611
 4372TIP3    H113080   0.391   6.540   1.539
 4372TIP3    H213081   0.491   6.449   1.607
 4373TIP3   OH213082   2.431   1.428   1.454
 4373TIP3    H113083   2.376   1.362   1.495
 4373TIP3    H213084   2.520   1.397   1.468
 4374TIP3   OH213085   5.591   0.639   1.318
 4374TIP3    H113086   5.675   0.635   1.272
 4374TIP3    H213087   5.564   0.547   1.326
 4375TIP3   OH213088   7.000   5.762   2.209
 4375TIP3    H113089   6.927   5.815   2.175
 4375TIP3    H213090   6.964   5.719   2.287
 4376TIP3   OH213091   2.788   2.624   5.527
 4376TIP3    H113092   2.717   2.574   5.488
 4376TIP3    H213093   2.745   2.695   5.574
 4377TIP3   OH213094   0.720   2.620   1.741
 4377TIP3    H113095   0.813   2.622   1.762
 4377TIP3    H213096   0.712   2.674   1.662
 4378TIP3   OH213097   5.830   4.560   2.288
 4378TIP3    H113098   5.828   4.572   2.193
 4378TIP3    H213099   5.901   4.616   2.317
 4379TIP3   OH213100   6.865   4.566   0.324
 4379TIP3    H113101   6.839   4.512   0.399
 4379TIP3    H213102   6.949   4.529   0.296
 4380TIP3   OH213103   1.771   1.332   3.987
 4380TIP3    H113104   1.679   1.341   3.962
 4380TIP3    H213105   1.816   1.401   3.937
 4381TIP3   OH213106   2.596   3.668   2.882
 4381TIP3    H113107   2.601   3.755   2.922
 4381TIP3    H213108   2.651   3.613   2.938
 4382TIP3   OH213109   6.101   0.679   4.137
 4382TIP3    H113110   6.108   0.585   4.153
 4382TIP3    H213111   6.192   0.710   4.139
 4383TIP3   OH213112   4.869   2.801   3.545
 4383TIP3    H113113   4.836   2.881   3.585
 4383TIP3    H213114   4.801   2.777   3.481
 4384TIP3   OH213115   6.572   2.920   5.802
 4384TIP3    H113116   6.603   2.920   5.712
 4384TIP3    H213117   6.482   2.888   5.796
 4385TIP3   OH213118   4.491   6.497   2.080
 4385TIP3    H113119   4.482   6.505   2.175
 4385TIP3    H213120   4.402   6.477   2.050
 4386TIP3   OH213121   6.392   6.808   0.969
 4386TIP3    H113122   6.415   6.716   0.983
 4386TIP3    H213123   6.299   6.807   0.949
 4387TIP3   OH213124   2.797   5.467   1.465
 4387TIP3    H113125   2.795   5.557   1.431
 4387TIP3    H213126   2.723   5.424   1.422
 4388TIP3   OH213127   1.005   6.303   5.419
 4388TIP3    H113128   1.086   6.338   5.381
 4388TIP3    H213129   1.028   6.213   5.445
 4389TIP3   OH213130   3.148   3.818   5.685
 4389TIP3    H113131   3.219   3.796   5.744
 4389TIP3    H213132   3.189   3.872   5.617
 4390TIP3   OH213133   2.321   0.601   1.615
 4390TIP3    H113134   2.377   0.643   1.550
 4390TIP3    H213135   2.381   0.551   1.670
 4391TIP3   OH213136   4.207   1.163   0.197
 4391TIP3    H113137   4.115   1.174   0.174
 4391TIP3    H213138   4.244   1.251   0.193
 4392TIP3   OH213139   5.553   2.285   5.047
 4392TIP3    H113140   5.644   2.262   5.062
 4392TIP3    H213141   5.514   2.207   5.007
 4393TIP3   OH213142   6.838   5.864   1.644
 4393TIP3    H113143   6.797   5.908   1.719
 4393TIP3    H213144   6.864   5.935   1.585
 4394TIP3   OH213145   6.482   5.792   3.834
 4394TIP3    H113146   6.454   5.721   3.891
 4394TIP3    H213147   6.488   5.753   3.747
 4395TIP3   OH213148   5.315   0.602   5.041
 4395TIP3    H113149   5.278   0.683   5.077
 4395TIP3    H213150   5.292   0.604   4.948
 4396TIP3   OH213151   5.584   2.652   1.759
 4396TIP3    H113152   5.612   2.620   1.673
 4396TIP3    H213153   5.523   2.585   1.791
 4397TIP3   OH213154   6.762   1.577   4.709
 4397TIP3    H113155   6.791   1.510   4.648
 4397TIP3    H213156   6.843   1.610   4.749
 4398TIP3   OH213157   7.123   4.043   0.268
 4398TIP3    H113158   7.083   3.964   0.304
 4398TIP3    H213159   7.201   4.057   0.320
 4399TIP3   OH213160   0.765   3.567   2.064
 4399TIP3    H113161   0.803   3.488   2.102
 4399TIP3    H213162   0.840   3.621   2.040
 4400TIP3   OH213163   5.955   2.790   2.960
 4400TIP3    H113164   5.860   2.776   2.961
 4400TIP3    H213165   5.966   2.880   2.991
 4401TIP3   OH213166   2.131   3.502   0.236
 4401TIP3    H113167   2.099   3.564   0.301
 4401TIP3    H213168   2.137   3.419   0.282
 4402TIP3   OH213169   1.300   0.622   4.290
 4402TIP3    H113170   1.210   0.641   4.316
 4402TIP3    H213171   1.331   0.559   4.355
 4403TIP3   OH213172   3.958   1.998   1.897
 4403TIP3    H113173   3.940   2.080   1.851
 4403TIP3    H213174   4.009   2.024   1.974
 4404TIP3   OH213175   0.898   1.127   3.570
 4404TIP3    H113176   0.907   1.033   3.559
 4404TIP3    H213177   0.915   1.143   3.663
 4405TIP3   OH213178   6.965   6.278   2.302
 4405TIP3    H113179   6.933   6.221   2.372
 4405TIP3    H213180   7.020   6.222   2.248
 4406TIP3   OH213181   2.118   2.140   5.652
 4406TIP3    H113182   2.054   2.203   5.618
 4406TIP3    H213183   2.194   2.193   5.676
 4407TIP3   OH213184   7.185   4.650   0.046
 4407TIP3    H113185   7.112   4.666  -0.015
 4407TIP3    H213186   7.193   4.732   0.095
 4408TIP3   OH213187   0.349   1.602   1.124
 4408TIP3    H113188   0.309   1.593   1.211
 4408TIP3    H213189   0.424   1.660   1.138
 4409TIP3   OH213190   6.150   1.920   5.211
 4409TIP3    H113191   6.072   1.869   5.231
 4409TIP3    H213192   6.120   2.011   5.208
 4410TIP3   OH213193   5.745   4.015   3.525
 4410TIP3    H113194   5.669   4.058   3.564
 4410TIP3    H213195   5.817   4.076   3.541
 4411TIP3   OH213196   3.301   0.470   0.554
 4411TIP3    H113197   3.370   0.491   0.490
 4411TIP3    H213198   3.283   0.377   0.541
 4412TIP3   OH213199   5.096   1.591   0.861
 4412TIP3    H113200   5.121   1.652   0.791
 4412TIP3    H213201   5.175   1.583   0.914
 4413TIP3   OH213202   6.686   2.699   2.310
 4413TIP3    H113203   6.685   2.791   2.285
 4413TIP3    H213204   6.709   2.652   2.230
 4414TIP3   OH213205   5.858   4.024   3.124
 4414TIP3    H113206   5.817   4.086   3.184
 4414TIP3    H213207   5.811   4.037   3.041
 4415TIP3   OH213208   3.546   0.777   2.827
 4415TIP3    H113209   3.623   0.750   2.778
 4415TIP3    H213210   3.552   0.728   2.909
 4416TIP3   OH213211   5.010   0.371   5.858
 4416TIP3    H113212   4.935   0.430   5.853
 4416TIP3    H213213   4.974   0.288   5.888
 4417TIP3   OH213214   4.667   1.162   3.497
 4417TIP3    H113215   4.739   1.146   3.558
 4417TIP3    H213216   4.588   1.137   3.546
 4418TIP3   OH213217   2.605   4.566   3.529
 4418TIP3    H113218   2.539   4.552   3.461
 4418TIP3    H213219   2.679   4.606   3.483
 4419TIP3   OH213220   2.995   4.538   1.061
 4419TIP3    H113221   3.028   4.456   1.022
 4419TIP3    H213222   3.062   4.563   1.124
 4420TIP3   OH213223   3.468   3.817   0.826
 4420TIP3    H113224   3.494   3.737   0.780
 4420TIP3    H213225   3.390   3.792   0.875
 4421TIP3   OH213226   3.943   4.731   0.658
 4421TIP3    H113227   4.024   4.780   0.669
 4421TIP3    H213228   3.970   4.639   0.660
 4422TIP3   OH213229   5.239   4.975   4.052
 4422TIP3    H113230   5.209   4.959   3.962
 4422TIP3    H213231   5.225   5.068   4.066
 4423TIP3   OH213232   4.111   4.532   2.373
 4423TIP3    H113233   4.087   4.614   2.417
 4423TIP3    H213234   4.206   4.532   2.373
 4424TIP3   OH213235   4.286   1.890   0.949
 4424TIP3    H113236   4.303   1.820   1.012
 4424TIP3    H213237   4.278   1.969   1.002
 4425TIP3   OH213238   6.051   2.883   3.641
 4425TIP3    H113239   5.965   2.864   3.604
 4425TIP3    H213240   6.109   2.820   3.598
 4426TIP3   OH213241   7.125   1.256   2.505
 4426TIP3    H113242   7.143   1.164   2.487
 4426TIP3    H213243   7.052   1.255   2.567
 4427TIP3   OH213244   2.174   5.045   2.864
 4427TIP3    H113245   2.268   5.054   2.879
 4427TIP3    H213246   2.135   5.063   2.950
 4428TIP3   OH213247   4.584   4.777   5.280
 4428TIP3    H113248   4.525   4.703   5.297
 4428TIP3    H213249   4.623   4.796   5.365
 4429TIP3   OH213250   4.895   4.248   1.843
 4429TIP3    H113251   4.878   4.224   1.934
 4429TIP3    H213252   4.835   4.192   1.792
 4430TIP3   OH213253   0.411   5.613   4.957
 4430TIP3    H113254   0.501   5.585   4.968
 4430TIP3    H213255   0.415   5.709   4.959
 4431TIP3   OH213256   2.957   2.393   0.959
 4431TIP3    H113257   2.914   2.440   0.888
 4431TIP3    H213258   2.885   2.358   1.012
 4432TIP3   OH213259   3.156   4.534   3.986
 4432TIP3    H113260   3.178   4.441   3.985
 4432TIP3    H213261   3.075   4.539   4.037
 4433TIP3   OH213262   5.982   5.568   5.747
 4433TIP3    H113263   5.991   5.552   5.841
 4433TIP3    H213264   5.992   5.663   5.739
 4434TIP3   OH213265   4.942   5.513   3.023
 4434TIP3    H113266   4.891   5.585   3.060
 4434TIP3    H213267   4.883   5.471   2.960
 4435TIP3   OH213268   1.545   0.635   3.138
 4435TIP3    H113269   1.531   0.728   3.154
 4435TIP3    H213270   1.576   0.631   3.047
 4436TIP3   OH213271   0.157   4.455   0.389
 4436TIP3    H113272   0.117   4.541   0.380
 4436TIP3    H213273   0.084   4.397   0.413
 4437TIP3   OH213274   3.441   6.026   5.684
 4437TIP3    H113275   3.388   6.068   5.618
 4437TIP3    H213276   3.379   5.977   5.738
 4438TIP3   OH213277   7.049   5.124   0.396
 4438TIP3    H113278   7.103   5.200   0.376
 4438TIP3    H213279   7.048   5.119   0.491
 4439TIP3   OH213280   5.431   0.882   3.231
 4439TIP3    H113281   5.484   0.961   3.236
 4439TIP3    H213282   5.352   0.908   3.183
 4440TIP3   OH213283   3.441   6.778   1.589
 4440TIP3    H113284   3.479   6.691   1.595
 4440TIP3    H213285   3.403   6.782   1.501
 4441TIP3   OH213286   0.755   4.217   4.598
 4441TIP3    H113287   0.810   4.263   4.534
 4441TIP3    H213288   0.753   4.275   4.674
 4442TIP3   OH213289   0.594   2.977   2.961
 4442TIP3    H113290   0.602   2.920   3.038
 4442TIP3    H213291   0.672   2.957   2.909
 4443TIP3   OH213292   6.033   5.128   3.648
 4443TIP3    H113293   6.027   5.208   3.596
 4443TIP3    H213294   6.127   5.112   3.659
 4444TIP3   OH213295   5.735   6.731   3.834
 4444TIP3    H113296   5.801   6.692   3.776
 4444TIP3    H213297   5.669   6.766   3.775
 4445TIP3   OH213298   1.543   6.591   2.923
 4445TIP3    H113299   1.547   6.680   2.959
 4445TIP3    H213300   1.611   6.544   2.971
 4446TIP3   OH213301   2.400   6.321   2.357
 4446TIP3    H113302   2.440   6.365   2.282
 4446TIP3    H213303   2.351   6.248   2.319
 4447TIP3   OH213304   6.284   5.677   4.256
 4447TIP3    H113305   6.376   5.662   4.278
 4447TIP3    H213306   6.245   5.589   4.256
 4448TIP3   OH213307   1.943   4.406   2.847
 4448TIP3    H113308   1.952   4.495   2.880
 4448TIP3    H213309   1.865   4.371   2.891
 4449TIP3   OH213310   2.622   5.884   1.906
 4449TIP3    H113311   2.594   5.859   1.994
 4449TIP3    H213312   2.552   5.941   1.874
 4450TIP3   OH213313   0.979   4.989   0.625
 4450TIP3    H113314   0.975   5.084   0.616
 4450TIP3    H213315   1.051   4.973   0.686
 4451TIP3   OH213316   2.228   2.028   0.341
 4451TIP3    H113317   2.237   2.118   0.372
 4451TIP3    H213318   2.152   2.030   0.283
 4452TIP3   OH213319   6.238   4.138   4.819
 4452TIP3    H113320   6.233   4.066   4.756
 4452TIP3    H213321   6.199   4.212   4.774
 4453TIP3   OH213322   3.945   2.754   3.494
 4453TIP3    H113323   3.950   2.838   3.448
 4453TIP3    H213324   4.036   2.731   3.513
 4454TIP3   OH213325   7.265   0.623   5.039
 4454TIP3    H113326   7.238   0.637   5.130
 4454TIP3    H213327   7.239   0.533   5.020
 4455TIP3   OH213328   2.757   5.223   0.870
 4455TIP3    H113329   2.809   5.143   0.871
 4455TIP3    H213330   2.672   5.195   0.836
 4456TIP3   OH213331   4.852   2.840   5.462
 4456TIP3    H113332   4.885   2.918   5.505
 4456TIP3    H213333   4.810   2.872   5.382
 4457TIP3   OH213334   5.656   0.982   3.996
 4457TIP3    H113335   5.705   1.056   4.032
 4457TIP3    H213336   5.587   1.022   3.943
 4458TIP3   OH213337   0.647   0.713   4.116
 4458TIP3    H113338   0.655   0.654   4.191
 4458TIP3    H213339   0.733   0.711   4.074
 4459TIP3   OH213340   6.718   0.029   5.336
 4459TIP3    H113341   6.676  -0.055   5.357
 4459TIP3    H213342   6.677   0.092   5.395
 4460TIP3   OH213343   1.253   2.985   2.225
 4460TIP3    H113344   1.295   3.053   2.173
 4460TIP3    H213345   1.176   3.027   2.263
 4461TIP3   OH213346   7.206   2.447   5.226
 4461TIP3    H113347   7.200   2.460   5.131
 4461TIP3    H213348   7.184   2.533   5.263
 4462TIP3   OH213349   6.366   4.939   5.185
 4462TIP3    H113350   6.313   4.883   5.129
 4462TIP3    H213351   6.438   4.967   5.129
 4463TIP3   OH213352   5.241   4.504   5.366
 4463TIP3    H113353   5.162   4.470   5.408
 4463TIP3    H213354   5.237   4.471   5.276
 4464TIP3   OH213355   2.782   0.881   4.290
 4464TIP3    H113356   2.721   0.896   4.218
 4464TIP3    H213357   2.742   0.810   4.341
 4465TIP3   OH213358   4.978   1.361   5.668
 4465TIP3    H113359   4.885   1.342   5.655
 4465TIP3    H213360   4.979   1.427   5.737
 4466TIP3   OH213361   5.388   2.819   3.933
 4466TIP3    H113362   5.444   2.748   3.902
 4466TIP3    H213363   5.343   2.850   3.855
 4467TIP3   OH213364   6.177   5.596   0.275
 4467TIP3    H113365   6.092   5.589   0.233
 4467TIP3    H213366   6.197   5.689   0.275
 4468TIP3   OH213367   0.419   3.763   4.092
 4468TIP3    H113368   0.337   3.787   4.134
 4468TIP3    H213369   0.401   3.681   4.047
 4469TIP3   OH213370   1.315   0.258   5.904
 4469TIP3    H113371   1.310   0.281   5.811
 4469TIP3    H213372   1.248   0.190   5.915
 4470TIP3   OH213373   4.315   0.484   3.493
 4470TIP3    H113374   4.359   0.409   3.534
 4470TIP3    H213375   4.292   0.453   3.406
 4471TIP3   OH213376   0.379   6.276   3.970
 4471TIP3    H113377   0.444   6.339   4.001
 4471TIP3    H213378   0.388   6.201   4.028
 4472TIP3   OH213379   5.098   2.588   4.451
 4472TIP3    H113380   5.031   2.558   4.512
 4472TIP3    H213381   5.180   2.553   4.485
 4473TIP3   OH213382   2.543   2.157   4.558
 4473TIP3    H113383   2.631   2.126   4.582
 4473TIP3    H213384   2.501   2.079   4.521
 4474TIP3   OH213385   1.976   4.469   1.936
 4474TIP3    H113386   2.067   4.496   1.924
 4474TIP3    H213387   1.940   4.535   1.995
 4475TIP3   OH213388   5.718   0.451   4.588
 4475TIP3    H113389   5.723   0.506   4.666
 4475TIP3    H213390   5.805   0.411   4.580
 4476TIP3   OH213391   4.282   4.990   4.377
 4476TIP3    H113392   4.367   4.970   4.337
 4476TIP3    H213393   4.217   4.962   4.312
 4477TIP3   OH213394   4.080   0.318   1.533
 4477TIP3    H113395   4.059   0.237   1.578
 4477TIP3    H213396   4.164   0.345   1.570
 4478TIP3   OH213397   3.525   2.016   4.540
 4478TIP3    H113398   3.522   2.055   4.628
 4478TIP3    H213399   3.559   2.087   4.485
 4479TIP3   OH213400   3.983   2.314   3.178
 4479TIP3    H113401   4.072   2.348   3.168
 4479TIP3    H213402   3.930   2.391   3.196
 4480TIP3   OH213403   3.898   2.894   0.798
 4480TIP3    H113404   3.981   2.856   0.769
 4480TIP3    H213405   3.900   2.984   0.764
 4481TIP3   OH213406   5.654   3.053   5.034
 4481TIP3    H113407   5.624   3.035   5.123
 4481TIP3    H213408   5.710   2.979   5.012
 4482TIP3   OH213409   3.911   3.556   1.077
 4482TIP3    H113410   3.994   3.596   1.049
 4482TIP3    H213411   3.876   3.617   1.142
 4483TIP3   OH213412   1.705   4.789   0.165
 4483TIP3    H113413   1.673   4.718   0.109
 4483TIP3    H213414   1.788   4.757   0.199
 4484TIP3   OH213415   6.539   6.072   1.422
 4484TIP3    H113416   6.613   6.122   1.387
 4484TIP3    H213417   6.484   6.055   1.345
 4485TIP3   OH213418   4.441   4.286   2.340
 4485TIP3    H113419   4.510   4.302   2.275
 4485TIP3    H213420   4.360   4.299   2.291
 4486TIP3   OH213421   7.215   0.539   0.648
 4486TIP3    H113422   7.133   0.571   0.684
 4486TIP3    H213423   7.280   0.605   0.672
 4487TIP3   OH213424   1.607   4.300   1.645
 4487TIP3    H113425   1.696   4.326   1.665
 4487TIP3    H213426   1.552   4.365   1.690
 4488TIP3   OH213427   3.916   4.739   1.875
 4488TIP3    H113428   3.901   4.833   1.865
 4488TIP3    H213429   3.840   4.698   1.835
 4489TIP3   OH213430   4.316   2.651   4.072
 4489TIP3    H113431   4.367   2.723   4.108
 4489TIP3    H213432   4.375   2.576   4.073
 4490TIP3   OH213433   1.078   0.851   5.024
 4490TIP3    H113434   0.984   0.867   5.031
 4490TIP3    H213435   1.115   0.886   5.105
 4491TIP3   OH213436   1.171   3.415   2.288
 4491TIP3    H113437   1.153   3.508   2.300
 4491TIP3    H213438   1.203   3.386   2.374
 4492TIP3   OH213439   2.256   5.414   2.206
 4492TIP3    H113440   2.238   5.494   2.256
 4492TIP3    H213441   2.351   5.402   2.214
 4493TIP3   OH213442   4.192   3.191   2.795
 4493TIP3    H113443   4.162   3.147   2.716
 4493TIP3    H213444   4.164   3.134   2.867
 4494TIP3   OH213445   0.985   0.074   1.135
 4494TIP3    H113446   0.915   0.021   1.173
 4494TIP3    H213447   1.005   0.138   1.203
 4495TIP3   OH213448   3.130   0.743   1.572
 4495TIP3    H113449   3.190   0.782   1.636
 4495TIP3    H213450   3.174   0.754   1.488
 4496TIP3   OH213451   4.972   6.036   3.051
 4496TIP3    H113452   5.062   6.007   3.065
 4496TIP3    H213453   4.932   5.967   2.998
 4497TIP3   OH213454   5.022   4.883   1.954
 4497TIP3    H113455   5.031   4.896   1.860
 4497TIP3    H213456   5.003   4.790   1.964
 4498TIP3   OH213457   4.351   0.103   4.205
 4498TIP3    H113458   4.344   0.092   4.111
 4498TIP3    H213459   4.326   0.194   4.221
 4499TIP3   OH213460   4.116   4.668   3.842
 4499TIP3    H113461   4.053   4.611   3.888
 4499TIP3    H213462   4.116   4.749   3.893
 4500TIP3   OH213463   3.595   0.526   5.480
 4500TIP3    H113464   3.539   0.548   5.406
 4500TIP3    H213465   3.680   0.506   5.441
 4501TIP3   OH213466   1.438   1.931   5.147
 4501TIP3    H113467   1.513   1.894   5.100
 4501TIP3    H213468   1.468   1.938   5.238
 4502TIP3   OH213469   1.762   4.384   4.193
 4502TIP3    H113470   1.806   4.462   4.227
 4502TIP3    H213471   1.674   4.389   4.230
 4503TIP3   OH213472   0.227   1.130   2.755
 4503TIP3    H113473   0.314   1.101   2.729
 4503TIP3    H213474   0.169   1.058   2.732
 4504TIP3   OH213475   3.396   3.924   0.365
 4504TIP3    H113476   3.359   4.008   0.390
 4504TIP3    H213477   3.416   3.933   0.272
 4505TIP3   OH213478   1.005   5.109   5.879
 4505TIP3    H113479   1.014   5.019   5.911
 4505TIP3    H213480   1.093   5.134   5.853
 4506TIP3   OH213481   2.745   2.840   3.999
 4506TIP3    H113482   2.656   2.830   3.966
 4506TIP3    H213483   2.748   2.929   4.035
 4507TIP3   OH213484   6.999   6.471   2.960
 4507TIP3    H113485   7.015   6.436   3.047
 4507TIP3    H213486   7.064   6.429   2.904
 4508TIP3   OH213487   2.040   6.677   2.506
 4508TIP3    H113488   1.976   6.647   2.441
 4508TIP3    H213489   2.110   6.717   2.454
 4509TIP3   OH213490   0.531   6.652   0.210
 4509TIP3    H113491   0.519   6.564   0.174
 4509TIP3    H213492   0.443   6.683   0.229
 4510TIP3   OH213493   7.036   3.726   0.935
 4510TIP3    H113494   7.094   3.673   0.990
 4510TIP3    H213495   7.071   3.815   0.941
 4511TIP3   OH213496   3.059   6.750   2.658
 4511TIP3    H113497   3.028   6.719   2.572
 4511TIP3    H213498   3.149   6.777   2.642
 4512TIP3   OH213499   1.300   5.384   0.467
 4512TIP3    H113500   1.289   5.290   0.482
 4512TIP3    H213501   1.232   5.424   0.521
 4513TIP3   OH213502   5.296   1.000   2.022
 4513TIP3    H113503   5.349   1.066   1.978
 4513TIP3    H213504   5.205   1.024   2.001
 4514TIP3   OH213505   7.055   4.296   3.195
 4514TIP3    H113506   6.984   4.306   3.131
 4514TIP3    H213507   7.098   4.214   3.171
 4515TIP3   OH213508   3.838   4.528   3.174
 4515TIP3    H113509   3.844   4.432   3.170
 4515TIP3    H213510   3.744   4.546   3.170
 4516TIP3   OH213511   3.430   2.210   5.031
 4516TIP3    H113512   3.511   2.254   5.058
 4516TIP3    H213513   3.423   2.135   5.090
 4517TIP3   OH213514   0.823   5.025   5.096
 4517TIP3    H113515   0.871   4.955   5.139
 4517TIP3    H213516   0.753   4.980   5.048
 4518TIP3   OH213517   6.156   0.165   0.942
 4518TIP3    H113518   6.217   0.196   1.009
 4518TIP3    H213519   6.075   0.148   0.990
 4519TIP3   OH213520   2.293   3.230   3.963
 4519TIP3    H113521   2.253   3.190   4.041
 4519TIP3    H213522   2.247   3.190   3.889
 4520TIP3   OH213523   7.056   6.451   1.487
 4520TIP3    H113524   7.131   6.481   1.538
 4520TIP3    H213525   6.980   6.485   1.535
 4521TIP3   OH213526   6.229   1.555   2.118
 4521TIP3    H113527   6.316   1.537   2.152
 4521TIP3    H213528   6.243   1.579   2.026
 4522TIP3   OH213529   3.128   3.939   4.550
 4522TIP3    H113530   3.115   4.015   4.494
 4522TIP3    H213531   3.131   3.975   4.639
 4523TIP3   OH213532   3.457   5.534   4.710
 4523TIP3    H113533   3.502   5.486   4.780
 4523TIP3    H213534   3.408   5.468   4.662
 4524TIP3   OH213535   5.871   0.787   1.998
 4524TIP3    H113536   5.902   0.735   2.073
 4524TIP3    H213537   5.851   0.722   1.931
 4525TIP3   OH213538   3.018   3.647   3.808
 4525TIP3    H113539   2.923   3.653   3.794
 4525TIP3    H213540   3.054   3.631   3.721
 4526TIP3   OH213541   4.949   4.691   3.729
 4526TIP3    H113542   4.855   4.703   3.718
 4526TIP3    H213543   4.979   4.652   3.647
 4527TIP3   OH213544   3.792   4.313   4.168
 4527TIP3    H113545   3.819   4.227   4.134
 4527TIP3    H213546   3.867   4.343   4.219
 4528TIP3   OH213547   4.667   3.825   3.572
 4528TIP3    H113548   4.743   3.825   3.630
 4528TIP3    H213549   4.688   3.761   3.504
 4529TIP3   OH213550   4.256   1.027   1.876
 4529TIP3    H113551   4.211   0.942   1.871
 4529TIP3    H213552   4.187   1.089   1.899
 4530TIP3   OH213553   6.451   4.123   4.371
 4530TIP3    H113554   6.387   4.194   4.381
 4530TIP3    H213555   6.511   4.155   4.303
 4531TIP3   OH213556   4.866   3.593   3.083
 4531TIP3    H113557   4.926   3.667   3.086
 4531TIP3    H213558   4.922   3.518   3.061
 4532TIP3   OH213559   0.375   3.809   4.820
 4532TIP3    H113560   0.414   3.722   4.830
 4532TIP3    H213561   0.314   3.800   4.747
 4533TIP3   OH213562   5.215   4.523   5.847
 4533TIP3    H113563   5.230   4.593   5.912
 4533TIP3    H213564   5.149   4.560   5.788
 4534TIP3   OH213565   1.552   1.499   2.706
 4534TIP3    H113566   1.600   1.429   2.749
 4534TIP3    H213567   1.543   1.470   2.615
 4535TIP3   OH213568   3.599   5.351   0.657
 4535TIP3    H113569   3.619   5.358   0.564
 4535TIP3    H213570   3.510   5.314   0.660
 4536TIP3   OH213571   2.624   5.542   3.847
 4536TIP3    H113572   2.647   5.575   3.933
 4536TIP3    H213573   2.654   5.609   3.786
 4537TIP3   OH213574   4.084   1.477   5.222
 4537TIP3    H113575   4.164   1.529   5.215
 4537TIP3    H213576   4.049   1.474   5.133
 4538TIP3   OH213577   4.380   5.295   2.609
 4538TIP3    H113578   4.441   5.262   2.542
 4538TIP3    H213579   4.348   5.378   2.574
 4539TIP3   OH213580   5.205   4.543   4.424
 4539TIP3    H113581   5.214   4.638   4.418
 4539TIP3    H213582   5.193   4.515   4.333
 4540TIP3   OH213583   3.859   1.327   5.139
 4540TIP3    H113584   3.793   1.264   5.109
 4540TIP3    H213585   3.866   1.390   5.068
 4541TIP3   OH213586   0.741   3.888   0.228
 4541TIP3    H113587   0.682   3.940   0.281
 4541TIP3    H213588   0.690   3.812   0.201
 4542TIP3   OH213589   2.798   0.320   0.842
 4542TIP3    H113590   2.718   0.321   0.894
 4542TIP3    H213591   2.868   0.334   0.905
 4543TIP3   OH213592   3.229   0.909   0.891
 4543TIP3    H113593   3.229   0.866   0.806
 4543TIP3    H213594   3.251   1.000   0.872
 4544TIP3   OH213595   1.475   4.181   3.794
 4544TIP3    H113596   1.540   4.166   3.725
 4544TIP3    H213597   1.520   4.235   3.858
 4545TIP3   OH213598   0.503  -0.023   5.768
 4545TIP3    H113599   0.454   0.045   5.721
 4545TIP3    H213600   0.553   0.025   5.834
 4546TIP3   OH213601   1.951   3.666   4.384
 4546TIP3    H113602   1.884   3.733   4.395
 4546TIP3    H213603   2.019   3.690   4.446
 4547TIP3   OH213604   0.618   3.594   3.466
 4547TIP3    H113605   0.541   3.641   3.433
 4547TIP3    H213606   0.637   3.637   3.550
 4548TIP3   OH213607   3.128   1.430   5.407
 4548TIP3    H113608   3.105   1.398   5.319
 4548TIP3    H213609   3.084   1.369   5.467
 4549TIP3   OH213610   1.933   4.909   0.738
 4549TIP3    H113611   1.864   4.919   0.673
 4549TIP3    H213612   1.922   4.821   0.772
 4550TIP3   OH213613   6.710   4.476   3.039
 4550TIP3    H113614   6.759   4.523   3.106
 4550TIP3    H213615   6.663   4.545   2.991
 4551TIP3   OH213616   4.299   6.211   1.887
 4551TIP3    H113617   4.282   6.208   1.793
 4551TIP3    H213618   4.230   6.157   1.926
 4552TIP3   OH213619   6.033   4.440   2.513
 4552TIP3    H113620   5.948   4.407   2.482
 4552TIP3    H213621   6.052   4.514   2.455
 4553TIP3   OH213622   3.586   6.262   3.569
 4553TIP3    H113623   3.539   6.187   3.604
 4553TIP3    H213624   3.555   6.336   3.621
 4554TIP3   OH213625   4.027   5.002   4.285
 4554TIP3    H113626   3.947   5.002   4.337
 4554TIP3    H213627   4.050   4.909   4.278
 4555TIP3   OH213628   1.719   0.139   3.217
 4555TIP3    H113629   1.673   0.198   3.158
 4555TIP3    H213630   1.655   0.071   3.237
 4556TIP3   OH213631   4.268   1.442   2.366
 4556TIP3    H113632   4.300   1.375   2.426
 4556TIP3    H213633   4.203   1.396   2.312
 4557TIP3   OH213634   4.796   2.360   1.925
 4557TIP3    H113635   4.708   2.331   1.902
 4557TIP3    H213636   4.851   2.282   1.913
 4558TIP3   OH213637   3.216   3.870   4.993
 4558TIP3    H113638   3.156   3.868   5.068
 4558TIP3    H213639   3.168   3.826   4.923
 4559TIP3   OH213640   4.153   3.967   1.115
 4559TIP3    H113641   4.094   3.894   1.103
 4559TIP3    H213642   4.096   4.044   1.119
 4560TIP3   OH213643   3.942   0.173   0.050
 4560TIP3    H113644   3.866   0.160   0.107
 4560TIP3    H213645   4.014   0.189   0.111
 4561TIP3   OH213646   5.740   6.661   0.607
 4561TIP3    H113647   5.668   6.610   0.571
 4561TIP3    H213648   5.701   6.714   0.676
 4562TIP3   OH213649   2.757   2.264   5.861
 4562TIP3    H113650   2.680   2.320   5.870
 4562TIP3    H213651   2.730   2.180   5.899
 4563TIP3   OH213652   6.823   3.878   3.550
 4563TIP3    H113653   6.813   3.955   3.606
 4563TIP3    H213654   6.849   3.913   3.465
 4564TIP3   OH213655   6.902   0.495   1.872
 4564TIP3    H113656   6.974   0.481   1.933
 4564TIP3    H213657   6.943   0.487   1.785
 4565TIP3   OH213658   7.004   0.464   0.304
 4565TIP3    H113659   7.086   0.437   0.346
 4565TIP3    H213660   6.945   0.485   0.376
 4566TIP3   OH213661   0.205   1.656   0.634
 4566TIP3    H113662   0.187   1.592   0.566
 4566TIP3    H213663   0.189   1.609   0.716
 4567TIP3   OH213664   3.363   6.711   0.993
 4567TIP3    H113665   3.328   6.710   0.904
 4567TIP3    H213666   3.378   6.619   1.014
 4568TIP3   OH213667   3.985   4.739   4.215
 4568TIP3    H113668   3.895   4.716   4.193
 4568TIP3    H213669   3.994   4.713   4.307
 4569TIP3   OH213670   6.252   4.991   3.701
 4569TIP3    H113671   6.285   4.906   3.672
 4569TIP3    H213672   6.169   4.971   3.745
 4570TIP3   OH213673   1.185   2.629   3.909
 4570TIP3    H113674   1.133   2.670   3.978
 4570TIP3    H213675   1.181   2.535   3.930
 4571TIP3   OH213676   3.947   1.016   4.883
 4571TIP3    H113677   3.858   1.005   4.848
 4571TIP3    H213678   4.000   0.951   4.836
 4572TIP3   OH213679   6.721   1.899   3.273
 4572TIP3    H113680   6.696   1.808   3.260
 4572TIP3    H213681   6.792   1.914   3.210
 4573TIP3   OH213682   3.534   4.265   4.334
 4573TIP3    H113683   3.617   4.277   4.287
 4573TIP3    H213684   3.469   4.251   4.265
 4574TIP3   OH213685   5.385   5.856   2.620
 4574TIP3    H113686   5.383   5.934   2.675
 4574TIP3    H213687   5.401   5.889   2.531
 4575TIP3   OH213688   5.695   1.229   0.324
 4575TIP3    H113689   5.751   1.290   0.373
 4575TIP3    H213690   5.753   1.157   0.300
 4576TIP3   OH213691   4.528   6.551   5.780
 4576TIP3    H113692   4.479   6.624   5.741
 4576TIP3    H213693   4.464   6.506   5.836
 4577TIP3   OH213694   1.473   2.934   0.097
 4577TIP3    H113695   1.497   2.972   0.012
 4577TIP3    H213696   1.547   2.957   0.154
 4578TIP3   OH213697   6.819   0.566   5.216
 4578TIP3    H113698   6.794   0.653   5.184
 4578TIP3    H213699   6.736   0.526   5.244
 4579TIP3   OH213700   1.997   3.423   3.044
 4579TIP3    H113701   1.965   3.440   3.133
 4579TIP3    H213702   1.925   3.376   3.002
 4580TIP3   OH213703   6.844   5.126   4.256
 4580TIP3    H113704   6.806   5.190   4.196
 4580TIP3    H213705   6.791   5.047   4.244
 4581TIP3   OH213706   3.161   0.422   2.487
 4581TIP3    H113707   3.192   0.393   2.573
 4581TIP3    H213708   3.239   0.454   2.442
 4582TIP3   OH213709   4.022   1.324   2.997
 4582TIP3    H113710   3.993   1.278   2.918
 4582TIP3    H213711   3.942   1.339   3.047
 4583TIP3   OH213712   1.558   1.500   2.415
 4583TIP3    H113713   1.593   1.542   2.337
 4583TIP3    H213714   1.616   1.426   2.431
 4584TIP3   OH213715   4.982   3.376   2.994
 4584TIP3    H113716   4.995   3.298   3.048
 4584TIP3    H213717   5.032   3.358   2.914
 4585TIP3   OH213718   0.196   6.427   5.754
 4585TIP3    H113719   0.185   6.357   5.690
 4585TIP3    H213720   0.270   6.479   5.720
 4586TIP3   OH213721   3.762   6.157   4.465
 4586TIP3    H113722   3.701   6.084   4.454
 4586TIP3    H213723   3.770   6.166   4.560
 4587TIP3   OH213724   6.629   4.359   2.533
 4587TIP3    H113725   6.626   4.292   2.465
 4587TIP3    H213726   6.635   4.310   2.615
 4588TIP3   OH213727   1.281   4.311   3.988
 4588TIP3    H113728   1.228   4.240   4.025
 4588TIP3    H213729   1.353   4.267   3.943
 4589TIP3   OH213730   1.003   3.427   1.571
 4589TIP3    H113731   1.034   3.477   1.496
 4589TIP3    H213732   0.926   3.475   1.601
 4590TIP3   OH213733   1.267   1.379   5.429
 4590TIP3    H113734   1.193   1.403   5.484
 4590TIP3    H213735   1.232   1.316   5.367
 4591TIP3   OH213736   4.811   1.664   2.476
 4591TIP3    H113737   4.823   1.569   2.486
 4591TIP3    H213738   4.805   1.697   2.565
 4592TIP3   OH213739   2.991   6.716   5.637
 4592TIP3    H113740   3.006   6.700   5.544
 4592TIP3    H213741   2.969   6.630   5.673
 4593TIP3   OH213742   4.093   2.226   0.895
 4593TIP3    H113743   4.048   2.212   0.812
 4593TIP3    H213744   4.179   2.185   0.883
 4594TIP3   OH213745   1.385   3.457   3.246
 4594TIP3    H113746   1.412   3.509   3.171
 4594TIP3    H213747   1.328   3.516   3.297
 4595TIP3   OH213748   1.327   2.369   0.780
 4595TIP3    H113749   1.252   2.346   0.726
 4595TIP3    H213750   1.312   2.460   0.806
 4596TIP3   OH213751   4.146   3.525   2.889
 4596TIP3    H113752   4.221   3.556   2.941
 4596TIP3    H213753   4.162   3.431   2.879
 4597TIP3   OH213754   0.170   6.510   5.060
 4597TIP3    H113755   0.259   6.479   5.077
 4597TIP3    H213756   0.125   6.499   5.144
 4598TIP3   OH213757   5.306   3.698   5.265
 4598TIP3    H113758   5.265   3.777   5.230
 4598TIP3    H213759   5.276   3.628   5.207
 4599TIP3   OH213760   4.059   3.739   0.626
 4599TIP3    H113761   4.062   3.644   0.636
 4599TIP3    H213762   3.975   3.764   0.664
 4600TIP3   OH213763   4.165   4.093   4.838
 4600TIP3    H113764   4.192   4.113   4.928
 4600TIP3    H213765   4.070   4.097   4.840
 4601TIP3   OH213766   5.516   3.913   1.599
 4601TIP3    H113767   5.453   3.985   1.591
 4601TIP3    H213768   5.481   3.859   1.671
 4602TIP3   OH213769   5.399   5.047   5.682
 4602TIP3    H113770   5.312   5.072   5.652
 4602TIP3    H213771   5.458   5.107   5.635
 4603TIP3   OH213772   4.599   6.523   1.245
 4603TIP3    H113773   4.659   6.457   1.210
 4603TIP3    H213774   4.535   6.474   1.296
 4604TIP3   OH213775   4.027   5.367   0.575
 4604TIP3    H113776   4.046   5.304   0.505
 4604TIP3    H213777   4.083   5.443   0.555
 4605TIP3   OH213778   2.383   2.306   5.020
 4605TIP3    H113779   2.289   2.299   5.039
 4605TIP3    H213780   2.407   2.220   4.985
 4606TIP3   OH213781   3.281   0.652   3.040
 4606TIP3    H113782   3.331   0.615   2.967
 4606TIP3    H213783   3.336   0.638   3.117
 4607TIP3   OH213784   3.847   3.728   0.839
 4607TIP3    H113785   3.870   3.651   0.892
 4607TIP3    H213786   3.861   3.802   0.897
 4608TIP3   OH213787   6.632   4.461   1.033
 4608TIP3    H113788   6.624   4.495   0.944
 4608TIP3    H213789   6.616   4.537   1.089
 4609TIP3   OH213790   3.023   4.545   5.723
 4609TIP3    H113791   2.977   4.526   5.805
 4609TIP3    H213792   3.101   4.592   5.749
 4610TIP3   OH213793   1.381   3.615   0.141
 4610TIP3    H113794   1.471   3.598   0.112
 4610TIP3    H213795   1.327   3.574   0.073
 4611TIP3   OH213796   1.617   2.252   4.033
 4611TIP3    H113797   1.640   2.301   4.112
 4611TIP3    H213798   1.663   2.297   3.962
 4612TIP3   OH213799  -0.042   5.369   0.357
 4612TIP3    H113800  -0.063   5.449   0.308
 4612TIP3    H213801   0.048   5.349   0.333
 4613TIP3   OH213802   3.604   4.569   4.710
 4613TIP3    H113803   3.697   4.548   4.710
 4613TIP3    H213804   3.562   4.494   4.668
 4614TIP3   OH213805   0.601   3.904   5.285
 4614TIP3    H113806   0.602   3.869   5.196
 4614TIP3    H213807   0.511   3.890   5.315
 4615TIP3   OH213808   2.880   5.853   1.781
 4615TIP3    H113809   2.812   5.857   1.848
 4615TIP3    H213810   2.929   5.774   1.801
 4616TIP3   OH213811   6.668   5.004   2.347
 4616TIP3    H113812   6.668   5.078   2.407
 4616TIP3    H213813   6.704   4.932   2.398
 4617TIP3   OH213814   6.705   5.890   4.470
 4617TIP3    H113815   6.691   5.938   4.389
 4617TIP3    H213816   6.778   5.936   4.513
 4618TIP3   OH213817   1.130   0.118   3.634
 4618TIP3    H113818   1.164   0.116   3.724
 4618TIP3    H213819   1.035   0.111   3.643
 4619TIP3   OH213820   5.611   0.817   4.853
 4619TIP3    H113821   5.587   0.874   4.926
 4619TIP3    H213822   5.578   0.863   4.776
 4620TIP3   OH213823   1.005   3.797   0.145
 4620TIP3    H113824   0.925   3.844   0.170
 4620TIP3    H213825   0.991   3.774   0.053
 4621TIP3   OH213826   3.766   4.554   0.313
 4621TIP3    H113827   3.795   4.495   0.382
 4621TIP3    H213828   3.738   4.497   0.242
 4622TIP3   OH213829   1.780   2.226   2.162
 4622TIP3    H113830   1.744   2.144   2.128
 4622TIP3    H213831   1.819   2.269   2.085
 4623TIP3   OH213832   1.623   5.852   3.159
 4623TIP3    H113833   1.599   5.891   3.243
 4623TIP3    H213834   1.638   5.927   3.101
 4624TIP3   OH213835   4.876   1.604   3.852
 4624TIP3    H113836   4.905   1.694   3.868
 4624TIP3    H213837   4.851   1.572   3.938
 4625TIP3   OH213838   2.647   5.381   5.111
 4625TIP3    H113839   2.703   5.379   5.033
 4625TIP3    H213840   2.567   5.423   5.082
 4626TIP3   OH213841   2.354   1.942   4.604
 4626TIP3    H113842   2.297   1.898   4.666
 4626TIP3    H213843   2.329   1.907   4.519
 4627TIP3   OH213844   5.822   0.231   3.650
 4627TIP3    H113845   5.915   0.235   3.671
 4627TIP3    H213846   5.792   0.150   3.692
 4628TIP3   OH213847   6.604   5.065   2.093
 4628TIP3    H113848   6.626   5.032   2.180
 4628TIP3    H213849   6.602   4.987   2.038
 4629TIP3   OH213850   3.987   0.849   1.419
 4629TIP3    H113851   3.900   0.814   1.437
 4629TIP3    H213852   3.976   0.901   1.339
 4630TIP3   OH213853   1.802   6.428   5.379
 4630TIP3    H113854   1.888   6.404   5.414
 4630TIP3    H213855   1.816   6.513   5.337
 4631TIP3   OH213856   7.031   5.108   4.764
 4631TIP3    H113857   7.102   5.123   4.701
 4631TIP3    H213858   7.056   5.028   4.810
 4632TIP3   OH213859   2.767   4.486   2.866
 4632TIP3    H113860   2.861   4.494   2.847
 4632TIP3    H213861   2.729   4.454   2.784
 4633TIP3   OH213862   0.153   0.064   3.543
 4633TIP3    H113863   0.165  -0.022   3.503
 4633TIP3    H213864   0.225   0.117   3.508
 4634TIP3   OH213865   4.982   0.968   3.922
 4634TIP3    H113866   4.901   0.930   3.888
 4634TIP3    H213867   5.039   0.893   3.939
 4635TIP3   OH213868   4.954   4.750   2.696
 4635TIP3    H113869   5.046   4.775   2.696
 4635TIP3    H213870   4.918   4.790   2.775
 4636TIP3   OH213871   0.944   3.032   3.585
 4636TIP3    H113872   0.978   2.996   3.667
 4636TIP3    H213873   1.022   3.045   3.531
 4637TIP3   OH213874   2.860   4.830   4.196
 4637TIP3    H113875   2.900   4.914   4.220
 4637TIP3    H213876   2.796   4.814   4.266
 4638TIP3   OH213877   0.823   5.471   1.910
 4638TIP3    H113878   0.821   5.566   1.922
 4638TIP3    H213879   0.751   5.454   1.849
 4639TIP3   OH213880   2.921   5.493   5.873
 4639TIP3    H113881   2.932   5.400   5.850
 4639TIP3    H213882   2.840   5.518   5.829
 4640TIP3   OH213883   2.612   3.732   0.486
 4640TIP3    H113884   2.636   3.643   0.514
 4640TIP3    H213885   2.689   3.785   0.506
 4641TIP3   OH213886   5.039   3.361   4.336
 4641TIP3    H113887   4.968   3.338   4.396
 4641TIP3    H213888   5.095   3.284   4.335
 4642TIP3   OH213889   4.789   2.538   1.257
 4642TIP3    H113890   4.856   2.605   1.244
 4642TIP3    H213891   4.726   2.579   1.316
 4643TIP3   OH213892   4.369   4.859   2.480
 4643TIP3    H113893   4.439   4.868   2.545
 4643TIP3    H213894   4.293   4.829   2.530
 4644TIP3   OH213895   5.007   6.311   0.017
 4644TIP3    H113896   4.975   6.342   0.101
 4644TIP3    H213897   5.047   6.226   0.036
 4645TIP3   OH213898   6.868   4.022   4.949
 4645TIP3    H113899   6.920   4.101   4.935
 4645TIP3    H213900   6.822   4.038   5.031
 4646TIP3   OH213901   6.304   0.656   2.559
 4646TIP3    H113902   6.339   0.742   2.581
 4646TIP3    H213903   6.306   0.653   2.464
 4647TIP3   OH213904   1.141   0.161   2.365
 4647TIP3    H113905   1.077   0.232   2.356
 4647TIP3    H213906   1.108   0.091   2.308
 4648TIP3   OH213907   6.029   3.616   2.538
 4648TIP3    H113908   6.020   3.700   2.494
 4648TIP3    H213909   5.973   3.623   2.615
 4649TIP3   OH213910   6.411   5.518   1.046
 4649TIP3    H113911   6.371   5.488   1.128
 4649TIP3    H213912   6.464   5.594   1.072
 4650TIP3   OH213913   0.584   0.815   0.302
 4650TIP3    H113914   0.542   0.901   0.312
 4650TIP3    H213915   0.567   0.791   0.211
 4651TIP3   OH213916   4.967   3.822   2.396
 4651TIP3    H113917   4.975   3.754   2.329
 4651TIP3    H213918   4.934   3.775   2.473
 4652TIP3   OH213919   6.601   6.426   4.128
 4652TIP3    H113920   6.521   6.387   4.164
 4652TIP3    H213921   6.583   6.434   4.034
 4653TIP3   OH213922   2.795   4.815   2.985
 4653TIP3    H113923   2.849   4.769   2.920
 4653TIP3    H213924   2.848   4.813   3.065
 4654TIP3   OH213925   6.957   0.393   1.596
 4654TIP3    H113926   6.872   0.423   1.564
 4654TIP3    H213927   6.936   0.324   1.659
 4655TIP3   OH213928   3.678   2.860   3.521
 4655TIP3    H113929   3.665   2.906   3.439
 4655TIP3    H213930   3.752   2.801   3.504
 4656TIP3   OH213931   3.536   6.481   5.525
 4656TIP3    H113932   3.565   6.572   5.535
 4656TIP3    H213933   3.610   6.429   5.555
 4657TIP3   OH213934   3.407   1.064   4.841
 4657TIP3    H113935   3.474   1.115   4.796
 4657TIP3    H213936   3.382   1.119   4.916
 4658TIP3   OH213937   1.564   3.686   4.130
 4658TIP3    H113938   1.484   3.737   4.140
 4658TIP3    H213939   1.628   3.730   4.185
 4659TIP3   OH213940   3.732   0.616   2.688
 4659TIP3    H113941   3.740   0.561   2.765
 4659TIP3    H213942   3.690   0.561   2.622
 4660TIP3   OH213943   6.886   4.341   2.196
 4660TIP3    H113944   6.950   4.409   2.177
 4660TIP3    H213945   6.900   4.275   2.128
 4661TIP3   OH213946   0.867   3.385   2.249
 4661TIP3    H113947   0.936   3.336   2.204
 4661TIP3    H213948   0.913   3.456   2.293
 4662TIP3   OH213949   3.125   6.552   1.798
 4662TIP3    H113950   3.179   6.575   1.874
 4662TIP3    H213951   3.187   6.521   1.732
 4663TIP3   OH213952   0.748   1.776   4.101
 4663TIP3    H113953   0.704   1.847   4.147
 4663TIP3    H213954   0.836   1.773   4.139
 4664TIP3   OH213955   1.603   1.652   5.788
 4664TIP3    H113956   1.641   1.646   5.875
 4664TIP3    H213957   1.676   1.680   5.732
 4665TIP3   OH213958   0.695   5.173   4.111
 4665TIP3    H113959   0.667   5.172   4.019
 4665TIP3    H213960   0.747   5.093   4.121
 4666TIP3   OH213961   4.094   5.371   1.425
 4666TIP3    H113962   4.019   5.366   1.366
 4666TIP3    H213963   4.170   5.367   1.368
 4667TIP3   OH213964   4.976   6.628   1.086
 4667TIP3    H113965   5.069   6.641   1.105
 4667TIP3    H213966   4.931   6.678   1.154
 4668TIP3   OH213967   3.436   3.268   1.930
 4668TIP3    H113968   3.450   3.321   1.852
 4668TIP3    H213969   3.440   3.178   1.899
 4669TIP3   OH213970   4.674   6.450   3.582
 4669TIP3    H113971   4.599   6.478   3.529
 4669TIP3    H213972   4.674   6.355   3.576
 4670TIP3   OH213973   2.658   4.435   5.809
 4670TIP3    H113974   2.752   4.421   5.826
 4670TIP3    H213975   2.640   4.383   5.731
 4671TIP3   OH213976   6.247   1.333   5.322
 4671TIP3    H113977   6.289   1.282   5.391
 4671TIP3    H213978   6.229   1.418   5.362
 4672TIP3   OH213979   5.833   1.625   2.896
 4672TIP3    H113980   5.837   1.675   2.814
 4672TIP3    H213981   5.806   1.688   2.962
 4673TIP3   OH213982   5.029   6.292   2.521
 4673TIP3    H113983   5.003   6.313   2.611
 4673TIP3    H213984   4.982   6.355   2.467
 4674TIP3   OH213985   5.338   4.552   1.550
 4674TIP3    H113986   5.296   4.510   1.475
 4674TIP3    H213987   5.431   4.556   1.526
 4675TIP3   OH213988   3.533   0.007   3.224
 4675TIP3    H113989   3.448   0.023   3.264
 4675TIP3    H213990   3.570  -0.066   3.273
 4676TIP3   OH213991   3.852   6.223   0.638
 4676TIP3    H113992   3.847   6.319   0.641
 4676TIP3    H213993   3.782   6.197   0.578
 4677TIP3   OH213994   3.330   4.932   2.626
 4677TIP3    H113995   3.259   4.967   2.679
 4677TIP3    H213996   3.296   4.931   2.536
 4678TIP3   OH213997   3.469   3.511   0.015
 4678TIP3    H113998   3.420   3.563  -0.048
 4678TIP3    H213999   3.417   3.513   0.095
 4679TIP3   OH214000   0.992   2.554   1.551
 4679TIP3    H114001   0.984   2.544   1.645
 4679TIP3    H214002   1.074   2.509   1.529
 4680TIP3   OH214003   4.257   3.593   1.891
 4680TIP3    H114004   4.259   3.535   1.967
 4680TIP3    H214005   4.232   3.678   1.926
 4681TIP3   OH214006   2.322   6.245   5.366
 4681TIP3    H114007   2.247   6.186   5.369
 4681TIP3    H214008   2.388   6.203   5.421
 4682TIP3   OH214009   7.040   2.970   3.479
 4682TIP3    H114010   7.107   2.905   3.458
 4682TIP3    H214011   6.999   2.990   3.394
 4683TIP3   OH214012   6.040   2.319   4.570
 4683TIP3    H114013   5.953   2.340   4.536
 4683TIP3    H214014   6.098   2.329   4.494
 4684TIP3   OH214015   1.561   3.121   3.817
 4684TIP3    H114016   1.588   3.166   3.897
 4684TIP3    H214017   1.537   3.033   3.847
 4685TIP3   OH214018   6.009   4.996   4.058
 4685TIP3    H114019   5.972   5.055   3.992
 4685TIP3    H214020   6.068   4.939   4.009
 4686TIP3   OH214021   4.965   0.157   0.155
 4686TIP3    H114022   4.966   0.250   0.132
 4686TIP3    H214023   4.998   0.154   0.245
 4687TIP3   OH214024   0.449   1.048   1.201
 4687TIP3    H114025   0.356   1.066   1.215
 4687TIP3    H214026   0.455   0.953   1.193
 4688TIP3   OH214027   5.986   0.746   0.101
 4688TIP3    H114028   6.052   0.679   0.114
 4688TIP3    H214029   5.948   0.760   0.188
 4689TIP3   OH214030   0.316   4.104   2.859
 4689TIP3    H114031   0.368   4.035   2.819
 4689TIP3    H214032   0.309   4.080   2.951
 4690TIP3   OH214033   3.700   5.159   3.162
 4690TIP3    H114034   3.619   5.143   3.113
 4690TIP3    H214035   3.677   5.138   3.252
 4691TIP3   OH214036   4.517   2.983   3.876
 4691TIP3    H114037   4.558   3.055   3.827
 4691TIP3    H214038   4.473   3.026   3.949
 4692TIP3   OH214039   5.318   0.060   3.696
 4692TIP3    H114040   5.263   0.022   3.765
 4692TIP3    H214041   5.309   0.154   3.708
 4693TIP3   OH214042   2.969   5.832   1.498
 4693TIP3    H114043   2.948   5.846   1.590
 4693TIP3    H214044   2.897   5.780   1.464
 4694TIP3   OH214045   6.067   5.400   5.310
 4694TIP3    H114046   6.162   5.394   5.307
 4694TIP3    H214047   6.041   5.415   5.219
 4695TIP3   OH214048   2.219   3.444   4.272
 4695TIP3    H114049   2.144   3.409   4.224
 4695TIP3    H214050   2.236   3.529   4.232
 4696TIP3   OH214051   5.570   3.244   3.654
 4696TIP3    H114052   5.636   3.312   3.669
 4696TIP3    H214053   5.578   3.187   3.731
 4697TIP3   OH214054   3.206   3.941   2.215
 4697TIP3    H114055   3.201   3.849   2.240
 4697TIP3    H214056   3.151   3.986   2.279
 4698TIP3   OH214057   2.929   3.572   5.030
 4698TIP3    H114058   2.939   3.651   5.083
 4698TIP3    H214059   2.942   3.601   4.940
 4699TIP3   OH214060   1.540   0.284   0.922
 4699TIP3    H114061   1.619   0.338   0.932
 4699TIP3    H214062   1.565   0.199   0.959
 4700TIP3   OH214063   5.783   3.485   1.650
 4700TIP3    H114064   5.776   3.393   1.676
 4700TIP3    H214065   5.714   3.497   1.585
 4701TIP3   OH214066   4.193   5.793   1.747
 4701TIP3    H114067   4.190   5.718   1.689
 4701TIP3    H214068   4.203   5.755   1.835
 4702TIP3   OH214069   2.150   2.044   3.749
 4702TIP3    H114070   2.072   1.989   3.759
 4702TIP3    H214071   2.155   2.093   3.831
 4703TIP3   OH214072   2.598   4.881   3.173
 4703TIP3    H114073   2.653   4.918   3.241
 4703TIP3    H214074   2.658   4.861   3.101
 4704TIP3   OH214075   2.215   3.154   1.391
 4704TIP3    H114076   2.294   3.121   1.433
 4704TIP3    H214077   2.198   3.092   1.320
 4705TIP3   OH214078   2.114   5.484   3.683
 4705TIP3    H114079   2.131   5.435   3.603
 4705TIP3    H214080   2.072   5.565   3.654
 4706TIP3   OH214081   7.096   1.043   0.465
 4706TIP3    H114082   7.034   1.093   0.518
 4706TIP3    H214083   7.055   0.957   0.456
 4707TIP3   OH214084   1.181   6.337   2.873
 4707TIP3    H114085   1.190   6.410   2.813
 4707TIP3    H214086   1.135   6.269   2.823
 4708TIP3   OH214087   0.024   1.827   3.569
 4708TIP3    H114088   0.037   1.922   3.567
 4708TIP3    H214089   0.112   1.791   3.578
 4709TIP3   OH214090   5.919   6.630   0.036
 4709TIP3    H114091   5.901   6.636  -0.058
 4709TIP3    H214092   5.836   6.654   0.078
 4710TIP3   OH214093   3.695   5.090   2.863
 4710TIP3    H114094   3.753   5.166   2.869
 4710TIP3    H214095   3.613   5.126   2.829
 4711TIP3   OH214096   4.775   5.318   3.190
 4711TIP3    H114097   4.704   5.376   3.218
 4711TIP3    H214098   4.850   5.376   3.177
 4712TIP3   OH214099   2.482   6.058   2.732
 4712TIP3    H114100   2.547   5.994   2.706
 4712TIP3    H214101   2.402   6.007   2.749
 4713TIP3   OH214102   0.637   0.725   2.117
 4713TIP3    H114103   0.570   0.744   2.183
 4713TIP3    H214104   0.628   0.795   2.053
 4714TIP3   OH214105   4.964   2.855   0.730
 4714TIP3    H114106   4.871   2.831   0.737
 4714TIP3    H214107   4.965   2.950   0.729
 4715TIP3   OH214108   0.488   4.047   1.496
 4715TIP3    H114109   0.575   4.007   1.501
 4715TIP3    H214110   0.461   4.057   1.587
 4716TIP3   OH214111   6.494   5.126   3.602
 4716TIP3    H114112   6.462   5.057   3.660
 4716TIP3    H214113   6.419   5.184   3.590
 4717TIP3   OH214114   4.508   6.394   2.539
 4717TIP3    H114115   4.461   6.316   2.510
 4717TIP3    H214116   4.590   6.361   2.577
 4718TIP3   OH214117   3.537   0.944   0.857
 4718TIP3    H114118   3.458   0.997   0.858
 4718TIP3    H214119   3.506   0.853   0.850
 4719TIP3   OH214120   0.932   0.465   3.687
 4719TIP3    H114121   0.890   0.397   3.634
 4719TIP3    H214122   0.918   0.437   3.777
 4720TIP3   OH214123   3.146   0.773   5.137
 4720TIP3    H114124   3.211   0.840   5.159
 4720TIP3    H214125   3.097   0.809   5.064
 4721TIP3   OH214126   5.086   2.385   1.358
 4721TIP3    H114127   5.179   2.397   1.341
 4721TIP3    H214128   5.082   2.350   1.447
 4722TIP3   OH214129   2.395   3.140   4.919
 4722TIP3    H114130   2.428   3.212   4.972
 4722TIP3    H214131   2.301   3.158   4.908
 4723TIP3   OH214132   6.342   0.592   1.428
 4723TIP3    H114133   6.382   0.678   1.415
 4723TIP3    H214134   6.414   0.530   1.415
 4724TIP3   OH214135   2.515   2.674   4.481
 4724TIP3    H114136   2.603   2.637   4.480
 4724TIP3    H214137   2.510   2.722   4.564
 4725TIP3   OH214138   2.956   5.164   3.419
 4725TIP3    H114139   2.984   5.226   3.352
 4725TIP3    H214140   2.978   5.078   3.384
 4726TIP3   OH214141   1.855   3.267   3.773
 4726TIP3    H114142   1.868   3.303   3.861
 4726TIP3    H214143   1.898   3.181   3.776
 4727TIP3   OH214144   6.137   4.812   3.887
 4727TIP3    H114145   6.097   4.789   3.803
 4727TIP3    H214146   6.158   4.727   3.927
 4728TIP3   OH214147   6.710   0.309   1.144
 4728TIP3    H114148   6.761   0.346   1.072
 4728TIP3    H214149   6.775   0.294   1.213
 4729TIP3   OH214150   1.713   6.375   2.781
 4729TIP3    H114151   1.630   6.351   2.822
 4729TIP3    H214152   1.727   6.466   2.806
 4730TIP3   OH214153   4.047   2.841   1.857
 4730TIP3    H114154   4.082   2.849   1.768
 4730TIP3    H214155   4.062   2.926   1.897
 4731TIP3   OH214156   6.644   1.249   2.802
 4731TIP3    H114157   6.648   1.163   2.843
 4731TIP3    H214158   6.577   1.296   2.851
 4732TIP3   OH214159   1.955   4.306   5.633
 4732TIP3    H114160   1.938   4.371   5.565
 4732TIP3    H214161   2.048   4.317   5.653
 4733TIP3   OH214162   7.136   5.921   0.419
 4733TIP3    H114163   7.067   5.987   0.422
 4733TIP3    H214164   7.215   5.969   0.447
 4734TIP3   OH214165   0.196   3.993   4.930
 4734TIP3    H114166   0.250   3.916   4.911
 4734TIP3    H214167   0.257   4.067   4.927
 4735TIP3   OH214168   1.517   0.050   1.369
 4735TIP3    H114169   1.457   0.014   1.304
 4735TIP3    H214170   1.486   0.015   1.453
 4736TIP3   OH214171   7.164   0.017   0.966
 4736TIP3    H114172   7.133   0.080   0.901
 4736TIP3    H214173   7.149   0.060   1.050
 4737TIP3   OH214174   1.237   3.958   2.519
 4737TIP3    H114175   1.265   3.972   2.610
 4737TIP3    H214176   1.210   4.045   2.489
 4738TIP3   OH214177   4.649   6.271   4.610
 4738TIP3    H114178   4.665   6.298   4.701
 4738TIP3    H214179   4.698   6.333   4.557
 4739TIP3   OH214180   5.581   3.585   1.989
 4739TIP3    H114181   5.575   3.628   2.074
 4739TIP3    H214182   5.662   3.618   1.951
 4740TIP3   OH214183   1.769   0.188   3.501
 4740TIP3    H114184   1.775   0.151   3.413
 4740TIP3    H214185   1.729   0.119   3.554
 4741TIP3   OH214186   6.535   0.567   1.799
 4741TIP3    H114187   6.597   0.628   1.839
 4741TIP3    H214188   6.575   0.543   1.716
 4742TIP3   OH214189   4.620   4.586   4.891
 4742TIP3    H114190   4.665   4.574   4.975
 4742TIP3    H214191   4.560   4.511   4.885
 4743TIP3   OH214192   1.101   1.705   0.886
 4743TIP3    H114193   1.066   1.624   0.922
 4743TIP3    H214194   1.125   1.682   0.796
 4744TIP3   OH214195   3.850   5.322   0.793
 4744TIP3    H114196   3.770   5.296   0.748
 4744TIP3    H214197   3.914   5.337   0.723
 4745TIP3   OH214198   7.086   5.792   4.018
 4745TIP3    H114199   7.153   5.860   4.019
 4745TIP3    H214200   7.091   5.752   4.105
 4746TIP3   OH214201   0.191   5.617   4.611
 4746TIP3    H114202   0.272   5.568   4.604
 4746TIP3    H214203   0.218   5.707   4.628
 4747TIP3   OH214204   5.717   1.723   5.572
 4747TIP3    H114205   5.756   1.810   5.565
 4747TIP3    H214206   5.710   1.693   5.481
 4748TIP3   OH214207   2.725   0.542   2.223
 4748TIP3    H114208   2.726   0.473   2.157
 4748TIP3    H214209   2.727   0.624   2.172
 4749TIP3   OH214210   3.091   4.990   2.143
 4749TIP3    H114211   3.022   4.926   2.159
 4749TIP3    H214212   3.102   4.991   2.048
 4750TIP3   OH214213   1.425   4.324   2.519
 4750TIP3    H114214   1.356   4.360   2.463
 4750TIP3    H214215   1.457   4.248   2.471
 4751TIP3   OH214216   1.669   3.533   5.224
 4751TIP3    H114217   1.744   3.531   5.282
 4751TIP3    H214218   1.704   3.563   5.140
 4752TIP3   OH214219   3.489   1.759   2.828
 4752TIP3    H114220   3.522   1.844   2.856
 4752TIP3    H214221   3.399   1.775   2.802
 4753TIP3   OH214222   2.297   0.068   2.283
 4753TIP3    H114223   2.247   0.015   2.344
 4753TIP3    H214224   2.345   0.130   2.339
 4754TIP3   OH214225   4.242   1.710   1.170
 4754TIP3    H114226   4.311   1.669   1.223
 4754TIP3    H214227   4.215   1.786   1.220
 4755TIP3   OH214228   4.143   4.905   4.968
 4755TIP3    H114229   4.074   4.839   4.979
 4755TIP3    H214230   4.109   4.964   4.901
 4756TIP3   OH214231   2.075   2.880   1.793
 4756TIP3    H114232   2.132   2.803   1.796
 4756TIP3    H214233   2.079   2.917   1.881
 4757TIP3   OH214234   7.003   1.302   5.914
 4757TIP3    H114235   6.944   1.344   5.853
 4757TIP3    H214236   6.977   1.210   5.914
 4758TIP3   OH214237   4.252   0.268   0.508
 4758TIP3    H114238   4.170   0.317   0.510
 4758TIP3    H214239   4.305   0.313   0.442
 4759TIP3   OH214240   2.978   0.338   2.858
 4759TIP3    H114241   3.007   0.418   2.902
 4759TIP3    H214242   3.057   0.283   2.855
 4760TIP3   OH214243   0.468   6.755   2.857
 4760TIP3    H114244   0.491   6.758   2.764
 4760TIP3    H214245   0.505   6.672   2.888
 4761TIP3   OH214246   2.338   2.270   0.410
 4761TIP3    H114247   2.418   2.260   0.462
 4761TIP3    H214248   2.356   2.344   0.352
 4762TIP3   OH214249   6.916   6.082   1.459
 4762TIP3    H114250   6.853   6.148   1.429
 4762TIP3    H214251   7.002   6.119   1.439
 4763TIP3   OH214252   5.575   0.741   2.698
 4763TIP3    H114253   5.593   0.821   2.749
 4763TIP3    H214254   5.550   0.773   2.612
 4764TIP3   OH214255   4.813   3.403   0.674
 4764TIP3    H114256   4.883   3.409   0.739
 4764TIP3    H214257   4.756   3.477   0.693
 4765TIP3   OH214258   6.713   3.237   4.939
 4765TIP3    H114259   6.717   3.215   4.845
 4765TIP3    H214260   6.755   3.163   4.982
 4766TIP3   OH214261   0.280   4.645   2.614
 4766TIP3    H114262   0.264   4.739   2.606
 4766TIP3    H214263   0.290   4.615   2.523
 4767TIP3   OH214264   0.235   1.749   2.618
 4767TIP3    H114265   0.260   1.841   2.609
 4767TIP3    H214266   0.157   1.750   2.673
 4768TIP3   OH214267   0.269   1.121   1.880
 4768TIP3    H114268   0.304   1.209   1.886
 4768TIP3    H214269   0.314   1.072   1.949
 4769TIP3   OH214270   6.620   1.960   5.680
 4769TIP3    H114271   6.699   1.914   5.653
 4769TIP3    H214272   6.615   1.946   5.775
 4770TIP3   OH214273   6.371   2.644   5.843
 4770TIP3    H114274   6.367   2.576   5.911
 4770TIP3    H214275   6.332   2.604   5.766
 4771TIP3   OH214276   6.146   3.482   0.074
 4771TIP3    H114277   6.067   3.535   0.063
 4771TIP3    H214278   6.144   3.456   0.166
 4772TIP3   OH214279   6.404   2.158   0.794
 4772TIP3    H114280   6.334   2.104   0.830
 4772TIP3    H214281   6.440   2.106   0.722
 4773TIP3   OH214282   2.604   4.372   3.731
 4773TIP3    H114283   2.509   4.378   3.721
 4773TIP3    H214284   2.638   4.386   3.642
 4774TIP3   OH214285   1.023   4.116   2.295
 4774TIP3    H114286   1.052   4.193   2.246
 4774TIP3    H214287   0.967   4.151   2.364
 4775TIP3   OH214288   1.386   5.809   4.080
 4775TIP3    H114289   1.334   5.843   4.007
 4775TIP3    H214290   1.378   5.714   4.074
 4776TIP3   OH214291   6.014   5.973   0.383
 4776TIP3    H114292   6.027   6.010   0.296
 4776TIP3    H214293   6.034   6.044   0.444
 4777TIP3   OH214294   4.176   6.335   5.562
 4777TIP3    H114295   4.252   6.350   5.618
 4777TIP3    H214296   4.187   6.397   5.489
 4778TIP3   OH214297   1.032   4.921   1.906
 4778TIP3    H114298   1.013   4.938   1.814
 4778TIP3    H214299   1.118   4.879   1.905
 4779TIP3   OH214300   3.621   2.519   0.029
 4779TIP3    H114301   3.622   2.481  -0.060
 4779TIP3    H214302   3.567   2.597   0.021
 4780TIP3   OH214303   0.544   2.707   4.365
 4780TIP3    H114304   0.520   2.798   4.384
 4780TIP3    H214305   0.462   2.658   4.376
 4781TIP3   OH214306   3.255   6.022   0.418
 4781TIP3    H114307   3.244   5.928   0.425
 4781TIP3    H214308   3.169   6.058   0.441
 4782TIP3   OH214309   4.401   6.807   4.207
 4782TIP3    H114310   4.476   6.838   4.156
 4782TIP3    H214311   4.326   6.816   4.148
 4783TIP3   OH214312   6.949   2.906   0.834
 4783TIP3    H114313   7.032   2.876   0.871
 4783TIP3    H214314   6.938   2.995   0.869
 4784TIP3   OH214315   0.581   3.415   2.375
 4784TIP3    H114316   0.539   3.365   2.305
 4784TIP3    H214317   0.667   3.440   2.338
 4785TIP3   OH214318   6.995   1.942   2.595
 4785TIP3    H114319   7.066   1.929   2.532
 4785TIP3    H214320   6.965   1.854   2.617
 4786TIP3   OH214321   2.916   0.025   2.299
 4786TIP3    H114322   2.852   0.070   2.353
 4786TIP3    H214323   2.883  -0.064   2.290
 4787TIP3   OH214324   2.171   5.198   0.603
 4787TIP3    H114325   2.174   5.277   0.658
 4787TIP3    H214326   2.146   5.230   0.516
 4788TIP3   OH214327   5.318   0.212   1.905
 4788TIP3    H114328   5.246   0.193   1.845
 4788TIP3    H214329   5.298   0.298   1.941
 4789TIP3   OH214330   0.511   0.218   4.262
 4789TIP3    H114331   0.477   0.295   4.308
 4789TIP3    H214332   0.477   0.226   4.173
 4790TIP3   OH214333   1.845   5.642   1.125
 4790TIP3    H114334   1.802   5.644   1.210
 4790TIP3    H214335   1.915   5.578   1.135
 4791TIP3   OH214336   0.903   3.118   1.847
 4791TIP3    H114337   0.972   3.182   1.864
 4791TIP3    H214338   0.899   3.066   1.928
 4792TIP3   OH214339   1.584   1.419   3.122
 4792TIP3    H114340   1.606   1.488   3.059
 4792TIP3    H214341   1.539   1.352   3.071
 4793TIP3   OH214342   2.666   5.225   3.127
 4793TIP3    H114343   2.718   5.285   3.180
 4793TIP3    H214344   2.576   5.256   3.137
 4794TIP3   OH214345   4.089   2.640   2.655
 4794TIP3    H114346   4.148   2.709   2.685
 4794TIP3    H214347   4.044   2.610   2.734
 4795TIP3   OH214348   4.797   2.310   0.874
 4795TIP3    H114349   4.837   2.274   0.795
 4795TIP3    H214350   4.864   2.367   0.910
 4796TIP3   OH214351   0.463   3.174   1.494
 4796TIP3    H114352   0.473   3.084   1.524
 4796TIP3    H214353   0.549   3.214   1.509
 4797TIP3   OH214354   5.874   0.224   2.222
 4797TIP3    H114355   5.929   0.178   2.158
 4797TIP3    H214356   5.822   0.285   2.169
 4798TIP3   OH214357   7.218   4.689   3.063
 4798TIP3    H114358   7.138   4.713   3.110
 4798TIP3    H214359   7.211   4.594   3.052
 4799TIP3   OH214360   4.988   1.428   3.288
 4799TIP3    H114361   4.976   1.399   3.198
 4799TIP3    H214362   4.921   1.494   3.302
 4800TIP3   OH214363   0.306   2.521   3.460
 4800TIP3    H114364   0.303   2.476   3.375
 4800TIP3    H214365   0.397   2.512   3.489
 4801TIP3   OH214366   1.374   6.630   3.167
 4801TIP3    H114367   1.445   6.672   3.215
 4801TIP3    H214368   1.356   6.550   3.216
 4802TIP3   OH214369   4.096   0.262   4.407
 4802TIP3    H114370   4.186   0.262   4.441
 4802TIP3    H214371   4.058   0.181   4.441
 4803TIP3   OH214372   3.824   0.470   2.183
 4803TIP3    H114373   3.778   0.403   2.132
 4803TIP3    H214374   3.784   0.553   2.155
 4804TIP3   OH214375   6.208   0.407   2.305
 4804TIP3    H114376   6.174   0.408   2.215
 4804TIP3    H214377   6.280   0.344   2.303
 4805TIP3   OH214378   2.733   5.233   0.201
 4805TIP3    H114379   2.704   5.147   0.170
 4805TIP3    H214380   2.706   5.236   0.293
 4806TIP3   OH214381   3.013   4.523   2.176
 4806TIP3    H114382   3.097   4.536   2.219
 4806TIP3    H214383   3.008   4.429   2.160
 4807TIP3   OH214384   0.235   1.264   0.873
 4807TIP3    H114385   0.326   1.234   0.871
 4807TIP3    H214386   0.191   1.203   0.933
 4808TIP3   OH214387   1.252   3.359   2.568
 4808TIP3    H114388   1.252   3.446   2.609
 4808TIP3    H214389   1.184   3.311   2.614
 4809TIP3   OH214390   4.656   3.103   5.090
 4809TIP3    H114391   4.702   3.116   5.008
 4809TIP3    H214392   4.633   3.192   5.118
 4810TIP3   OH214393   2.268   5.917   2.359
 4810TIP3    H114394   2.192   5.937   2.413
 4810TIP3    H214395   2.250   5.961   2.276
 4811TIP3   OH214396   0.223   2.543   2.024
 4811TIP3    H114397   0.227   2.472   2.088
 4811TIP3    H214398   0.199   2.499   1.942
 4812TIP3   OH214399   3.807   1.883  -0.001
 4812TIP3    H114400   3.748   1.843  -0.064
 4812TIP3    H214401   3.753   1.898   0.077
 4813TIP3   OH214402   3.058   1.362   4.307
 4813TIP3    H114403   3.082   1.291   4.247
 4813TIP3    H214404   3.141   1.396   4.339
 4814TIP3   OH214405   3.722   6.037   4.042
 4814TIP3    H114406   3.740   6.121   4.001
 4814TIP3    H214407   3.763   5.973   3.983
 4815TIP3   OH214408   5.157   6.327   5.820
 4815TIP3    H114409   5.230   6.376   5.782
 4815TIP3    H214410   5.197   6.274   5.889
 4816TIP3   OH214411   2.096   5.247   2.062
 4816TIP3    H114412   2.153   5.268   2.136
 4816TIP3    H214413   2.118   5.312   1.995
 4817TIP3   OH214414   2.391   0.441   2.073
 4817TIP3    H114415   2.349   0.520   2.038
 4817TIP3    H214416   2.319   0.380   2.088
 4818TIP3   OH214417   5.699   4.675   5.441
 4818TIP3    H114418   5.606   4.672   5.420
 4818TIP3    H214419   5.722   4.768   5.435
 4819TIP3   OH214420   1.581   3.025   2.164
 4819TIP3    H114421   1.514   3.043   2.098
 4819TIP3    H214422   1.615   3.111   2.189
 4820TIP3   OH214423   0.822   5.931   2.754
 4820TIP3    H114424   0.732   5.959   2.771
 4820TIP3    H214425   0.815   5.867   2.684
 4821TIP3   OH214426   6.429   2.768   3.573
 4821TIP3    H114427   6.344   2.733   3.546
 4821TIP3    H214428   6.477   2.781   3.491
 4822TIP3   OH214429   6.192   0.720   3.563
 4822TIP3    H114430   6.168   0.728   3.655
 4822TIP3    H214431   6.260   0.786   3.550
 4823TIP3   OH214432   4.481   1.824   1.433
 4823TIP3    H114433   4.480   1.733   1.405
 4823TIP3    H214434   4.401   1.862   1.397
 4824TIP3   OH214435   4.820   4.506   2.225
 4824TIP3    H114436   4.905   4.471   2.251
 4824TIP3    H214437   4.792   4.559   2.299
 4825TIP3   OH214438   4.172   0.010   2.258
 4825TIP3    H114439   4.222   0.036   2.336
 4825TIP3    H214440   4.127   0.090   2.230
 4826TIP3   OH214441   0.076   1.541   4.247
 4826TIP3    H114442   0.034   1.525   4.162
 4826TIP3    H214443   0.021   1.496   4.310
 4827TIP3   OH214444   2.876   4.407   0.723
 4827TIP3    H114445   2.814   4.375   0.789
 4827TIP3    H214446   2.835   4.386   0.639
 4828TIP3   OH214447   3.113   1.976   1.510
 4828TIP3    H114448   3.133   2.064   1.478
 4828TIP3    H214449   3.057   1.938   1.443
 4829TIP3   OH214450   5.000   1.599   1.201
 4829TIP3    H114451   5.092   1.608   1.174
 4829TIP3    H214452   4.978   1.683   1.240
 4830TIP3   OH214453   5.856   4.451   3.172
 4830TIP3    H114454   5.857   4.451   3.076
 4830TIP3    H214455   5.763   4.449   3.194
 4831TIP3   OH214456   0.542   1.168   0.089
 4831TIP3    H114457   0.522   1.137   0.177
 4831TIP3    H214458   0.516   1.260   0.090
 4832TIP3   OH214459   0.846   4.936   4.532
 4832TIP3    H114460   0.827   4.941   4.625
 4832TIP3    H214461   0.932   4.975   4.522
 4833TIP3   OH214462   3.221   2.581   0.819
 4833TIP3    H114463   3.185   2.499   0.853
 4833TIP3    H214464   3.277   2.614   0.889
 4834TIP3   OH214465   2.109   1.648   1.580
 4834TIP3    H114466   2.126   1.623   1.490
 4834TIP3    H214467   2.104   1.566   1.628
 4835TIP3   OH214468   5.554   4.942   1.092
 4835TIP3    H114469   5.491   4.983   1.032
 4835TIP3    H214470   5.518   4.957   1.179
 4836TIP3   OH214471   1.672   1.643   2.201
 4836TIP3    H114472   1.721   1.593   2.135
 4836TIP3    H214473   1.731   1.713   2.227
 4837TIP3   OH214474   2.024   5.120   3.342
 4837TIP3    H114475   2.018   5.068   3.422
 4837TIP3    H214476   1.940   5.165   3.337
 4838TIP3   OH214477   1.942   3.954   1.871
 4838TIP3    H114478   1.932   3.868   1.911
 4838TIP3    H214479   1.854   3.977   1.841
 4839TIP3   OH214480   5.764   1.980   2.758
 4839TIP3    H114481   5.831   1.949   2.697
 4839TIP3    H214482   5.694   1.914   2.753
 4840TIP3   OH214483   7.109   4.540   3.361
 4840TIP3    H114484   7.078   4.477   3.296
 4840TIP3    H214485   7.028   4.579   3.397
 4841TIP3   OH214486   6.761   2.034   1.316
 4841TIP3    H114487   6.668   2.059   1.312
 4841TIP3    H214488   6.807   2.117   1.325
 4842TIP3   OH214489   3.454   0.847   0.292
 4842TIP3    H114490   3.446   0.752   0.280
 4842TIP3    H214491   3.545   0.861   0.316
 4843TIP3   OH214492   3.492   0.239   0.990
 4843TIP3    H114493   3.579   0.273   0.971
 4843TIP3    H214494   3.452   0.304   1.047
 4844TIP3   OH214495   6.018   1.486   0.681
 4844TIP3    H114496   6.087   1.448   0.735
 4844TIP3    H214497   5.943   1.429   0.694
 4845TIP3   OH214498   3.780   0.071   4.227
 4845TIP3    H114499   3.812   0.044   4.141
 4845TIP3    H214500   3.832   0.149   4.249
 4846TIP3   OH214501   1.666   3.970   0.409
 4846TIP3    H114502   1.702   4.016   0.484
 4846TIP3    H214503   1.664   4.035   0.339
 4847TIP3   OH214504   2.178   0.704   3.595
 4847TIP3    H114505   2.150   0.712   3.504
 4847TIP3    H214506   2.118   0.640   3.633
 4848TIP3   OH214507   1.235   3.857   1.899
 4848TIP3    H114508   1.179   3.916   1.848
 4848TIP3    H214509   1.202   3.865   1.989
 4849TIP3   OH214510   2.559   3.773   2.083
 4849TIP3    H114511   2.518   3.708   2.140
 4849TIP3    H214512   2.640   3.732   2.053
 4850TIP3   OH214513   1.065   5.708   3.164
 4850TIP3    H114514   1.003   5.775   3.195
 4850TIP3    H214515   1.031   5.682   3.078
 4851TIP3   OH214516   2.036   0.180   2.596
 4851TIP3    H114517   2.106   0.133   2.551
 4851TIP3    H214518   2.014   0.123   2.670
 4852TIP3   OH214519   1.918   1.484   3.067
 4852TIP3    H114520   1.956   1.426   3.132
 4852TIP3    H214521   1.868   1.548   3.117
 4853TIP3   OH214522   0.341   6.744   5.435
 4853TIP3    H114523   0.356   6.717   5.525
 4853TIP3    H214524   0.266   6.804   5.440
 4854TIP3   OH214525   5.395   2.032   4.947
 4854TIP3    H114526   5.406   2.011   4.854
 4854TIP3    H214527   5.321   2.094   4.948
 4855TIP3   OH214528   6.801   6.349   5.392
 4855TIP3    H114529   6.860   6.275   5.380
 4855TIP3    H214530   6.858   6.426   5.392
 4856TIP3   OH214531   4.454   2.948   0.745
 4856TIP3    H114532   4.499   3.033   0.751
 4856TIP3    H214533   4.370   2.963   0.789
 4857TIP3   OH214534   5.480   0.165   3.257
 4857TIP3    H114535   5.551   0.219   3.292
 4857TIP3    H214536   5.437   0.222   3.193
 4858TIP3   OH214537   1.194   5.442   4.324
 4858TIP3    H114538   1.256   5.413   4.390
 4858TIP3    H214539   1.248   5.464   4.248
 4859TIP3   OH214540   2.237   3.135   5.329
 4859TIP3    H114541   2.320   3.086   5.326
 4859TIP3    H214542   2.176   3.082   5.278
 4860TIP3   OH214543   0.223   6.219   5.548
 4860TIP3    H114544   0.189   6.178   5.628
 4860TIP3    H214545   0.149   6.218   5.488
 4861TIP3   OH214546   5.284   4.677   2.372
 4861TIP3    H114547   5.193   4.705   2.363
 4861TIP3    H214548   5.327   4.711   2.293
 4862TIP3   OH214549   5.045   0.507   0.847
 4862TIP3    H114550   5.009   0.437   0.792
 4862TIP3    H214551   5.046   0.470   0.935
 4863TIP3   OH214552   2.784   5.827   5.762
 4863TIP3    H114553   2.694   5.860   5.771
 4863TIP3    H214554   2.773   5.739   5.724
 4864TIP3   OH214555   2.728   4.382   0.485
 4864TIP3    H114556   2.714   4.298   0.442
 4864TIP3    H214557   2.639   4.415   0.502
 4865TIP3   OH214558   3.020   2.707   5.829
 4865TIP3    H114559   3.097   2.708   5.886
 4865TIP3    H214560   3.014   2.617   5.798
 4866TIP3   OH214561   3.695   1.574   0.084
 4866TIP3    H114562   3.707   1.668   0.082
 4866TIP3    H214563   3.767   1.538   0.032
 4867TIP3   OH214564   1.305   5.850   2.041
 4867TIP3    H114565   1.280   5.758   2.041
 4867TIP3    H214566   1.379   5.855   1.980
 4868TIP3   OH214567   3.797   6.233   1.723
 4868TIP3    H114568   3.821   6.324   1.703
 4868TIP3    H214569   3.881   6.190   1.738
 4869TIP3   OH214570   4.515   4.700   3.150
 4869TIP3    H114571   4.581   4.743   3.095
 4869TIP3    H214572   4.440   4.759   3.146
 4870TIP3   OH214573   0.949   2.687   4.069
 4870TIP3    H114574   0.900   2.761   4.103
 4870TIP3    H214575   0.905   2.664   3.988
 4871TIP3   OH214576   3.777   1.144   3.483
 4871TIP3    H114577   3.839   1.216   3.481
 4871TIP3    H214578   3.692   1.185   3.468
 4872TIP3   OH214579   0.689   5.913   1.131
 4872TIP3    H114580   0.780   5.895   1.153
 4872TIP3    H214581   0.686   6.008   1.117
 4873TIP3   OH214582   6.014   5.569   2.510
 4873TIP3    H114583   6.031   5.651   2.465
 4873TIP3    H214584   6.073   5.570   2.585
 4874TIP3   OH214585   6.504   4.905   5.676
 4874TIP3    H114586   6.501   4.933   5.585
 4874TIP3    H214587   6.539   4.816   5.672
 4875TIP3   OH214588   2.405   1.728   0.590
 4875TIP3    H114589   2.437   1.642   0.615
 4875TIP3    H214590   2.398   1.725   0.495
 4876TIP3   OH214591   6.556   5.748   1.153
 4876TIP3    H114592   6.544   5.809   1.081
 4876TIP3    H214593   6.621   5.789   1.209
 4877TIP3   OH214594   5.034   5.944   0.468
 4877TIP3    H114595   5.023   6.021   0.524
 4877TIP3    H214596   5.117   5.959   0.423
 4878TIP3   OH214597   3.965   5.228   4.452
 4878TIP3    H114598   3.908   5.151   4.445
 4878TIP3    H214599   4.038   5.208   4.393
 4879TIP3   OH214600   4.297   1.300   3.649
 4879TIP3    H114601   4.332   1.314   3.737
 4879TIP3    H214602   4.328   1.213   3.625
 4880TIP3   OH214603   2.379   4.087   1.778
 4880TIP3    H114604   2.312   4.127   1.833
 4880TIP3    H214605   2.337   4.009   1.743
 4881TIP3   OH214606   2.280   1.885   4.348
 4881TIP3    H114607   2.349   1.925   4.294
 4881TIP3    H214608   2.210   1.950   4.351
 4882TIP3   OH214609   1.077   2.815   0.098
 4882TIP3    H114610   0.988   2.794   0.124
 4882TIP3    H214611   1.116   2.731   0.073
 4883TIP3   OH214612   1.584   0.850   5.719
 4883TIP3    H114613   1.530   0.777   5.687
 4883TIP3    H214614   1.577   0.916   5.650
 4884TIP3   OH214615   6.258   0.428   1.144
 4884TIP3    H114616   6.336   0.413   1.197
 4884TIP3    H214617   6.291   0.469   1.064
 4885TIP3   OH214618   5.106   0.636   3.133
 4885TIP3    H114619   5.189   0.682   3.121
 4885TIP3    H214620   5.131   0.552   3.171
 4886TIP3   OH214621   0.070   5.426   2.889
 4886TIP3    H114622   0.035   5.462   2.970
 4886TIP3    H214623   0.068   5.331   2.902
 4887TIP3   OH214624   1.210   5.317   5.198
 4887TIP3    H114625   1.154   5.285   5.269
 4887TIP3    H214626   1.243   5.238   5.155
 4888TIP3   OH214627   5.978   3.388   3.193
 4888TIP3    H114628   6.007   3.466   3.240
 4888TIP3    H214629   5.907   3.418   3.137
 4889TIP3   OH214630   2.827   1.608   2.402
 4889TIP3    H114631   2.807   1.517   2.423
 4889TIP3    H214632   2.818   1.614   2.307
 4890TIP3   OH214633   7.074   2.097   5.905
 4890TIP3    H114634   6.985   2.118   5.932
 4890TIP3    H214635   7.069   2.091   5.810
 4891TIP3   OH214636   2.766   5.880   3.094
 4891TIP3    H114637   2.820   5.926   3.030
 4891TIP3    H214638   2.692   5.846   3.043
 4892TIP3   OH214639   2.588   0.030   1.108
 4892TIP3    H114640   2.618  -0.052   1.068
 4892TIP3    H214641   2.505   0.007   1.149
 4893TIP3   OH214642   2.388   5.464   2.564
 4893TIP3    H114643   2.473   5.422   2.547
 4893TIP3    H214644   2.354   5.420   2.641
 4894TIP3   OH214645   1.791   5.346   0.906
 4894TIP3    H114646   1.845   5.424   0.912
 4894TIP3    H214647   1.852   5.275   0.884
 4895TIP3   OH214648   3.941   2.736   1.344
 4895TIP3    H114649   3.971   2.705   1.258
 4895TIP3    H214650   3.879   2.806   1.324
 4896TIP3   OH214651   6.096   6.352   0.032
 4896TIP3    H114652   6.040   6.426   0.055
 4896TIP3    H214653   6.143   6.382  -0.046
 4897TIP3   OH214654   2.865   4.815   1.051
 4897TIP3    H114655   2.945   4.764   1.065
 4897TIP3    H214656   2.886   4.902   1.087
 4898TIP3   OH214657   2.216   5.265   4.755
 4898TIP3    H114658   2.203   5.194   4.692
 4898TIP3    H214659   2.266   5.331   4.707
 4899TIP3   OH214660   1.153   2.229   0.295
 4899TIP3    H114661   1.181   2.321   0.294
 4899TIP3    H214662   1.196   2.190   0.220
 4900TIP3   OH214663   3.920   5.572   5.437
 4900TIP3    H114664   3.923   5.510   5.364
 4900TIP3    H214665   4.012   5.593   5.455
 4901TIP3   OH214666   3.198   1.686   5.416
 4901TIP3    H114667   3.167   1.601   5.385
 4901TIP3    H214668   3.284   1.669   5.452
 4902TIP3   OH214669   5.412   5.554   4.036
 4902TIP3    H114670   5.424   5.549   3.941
 4902TIP3    H214671   5.464   5.482   4.072
 4903TIP3   OH214672   0.382   5.121   1.344
 4903TIP3    H114673   0.364   5.204   1.299
 4903TIP3    H214674   0.477   5.116   1.348
 4904TIP3   OH214675   5.948   0.083   1.111
 4904TIP3    H114676   5.873   0.119   1.159
 4904TIP3    H214677   5.913   0.006   1.066
 4905TIP3   OH214678   0.619   0.645   3.552
 4905TIP3    H114679   0.538   0.599   3.531
 4905TIP3    H214680   0.626   0.638   3.647
 4906TIP3   OH214681   0.572   3.997   4.846
 4906TIP3    H114682   0.505   3.932   4.825
 4906TIP3    H214683   0.576   4.053   4.769
 4907TIP3   OH214684   2.426   5.464   1.826
 4907TIP3    H114685   2.339   5.438   1.858
 4907TIP3    H214686   2.467   5.505   1.901
 4908TIP3   OH214687   6.649   2.184   2.860
 4908TIP3    H114688   6.652   2.089   2.849
 4908TIP3    H214689   6.740   2.209   2.875
 4909TIP3   OH214690   1.101   2.769   3.273
 4909TIP3    H114691   1.087   2.827   3.348
 4909TIP3    H214692   1.064   2.817   3.199
 4910TIP3   OH214693   4.281   6.432   0.967
 4910TIP3    H114694   4.274   6.337   0.976
 4910TIP3    H214695   4.374   6.450   0.985
 4911TIP3   OH214696   1.407   3.270   4.654
 4911TIP3    H114697   1.439   3.307   4.572
 4911TIP3    H214698   1.312   3.283   4.651
 4912TIP3   OH214699   6.192   3.667   1.870
 4912TIP3    H114700   6.268   3.621   1.907
 4912TIP3    H214701   6.176   3.739   1.931
 4913TIP3   OH214702   3.080   5.507   4.706
 4913TIP3    H114703   3.103   5.536   4.794
 4913TIP3    H214704   3.125   5.424   4.696
 4914TIP3   OH214705   5.652   0.217   5.412
 4914TIP3    H114706   5.598   0.289   5.379
 4914TIP3    H214707   5.705   0.190   5.337
 4915TIP3   OH214708   2.280   6.049   4.966
 4915TIP3    H114709   2.195   6.005   4.965
 4915TIP3    H214710   2.263   6.134   4.926
 4916TIP3   OH214711   7.174   3.727   3.306
 4916TIP3    H114712   7.224   3.646   3.309
 4916TIP3    H214713   7.101   3.708   3.247
 4917TIP3   OH214714   3.026   0.616   2.952
 4917TIP3    H114715   3.100   0.653   3.001
 4917TIP3    H214716   2.973   0.692   2.928
 4918TIP3   OH214717   0.400   5.235   0.557
 4918TIP3    H114718   0.356   5.319   0.551
 4918TIP3    H214719   0.343   5.175   0.508
 4919TIP3   OH214720   3.955   1.279   5.516
 4919TIP3    H114721   3.956   1.287   5.612
 4919TIP3    H214722   3.889   1.342   5.488
 4920TIP3   OH214723   2.200   2.161   5.369
 4920TIP3    H114724   2.223   2.253   5.355
 4920TIP3    H214725   2.254   2.134   5.443
 4921TIP3   OH214726   3.948   3.373   5.750
 4921TIP3    H114727   4.003   3.396   5.825
 4921TIP3    H214728   3.858   3.374   5.785
 4922TIP3   OH214729   0.846   0.867   4.320
 4922TIP3    H114730   0.762   0.908   4.301
 4922TIP3    H214731   0.892   0.865   4.236
 4923TIP3   OH214732   3.400   2.288   2.380
 4923TIP3    H114733   3.382   2.201   2.417
 4923TIP3    H214734   3.319   2.310   2.334
 4924TIP3   OH214735   2.748   4.043   2.415
 4924TIP3    H114736   2.655   4.054   2.433
 4924TIP3    H214737   2.792   4.101   2.477
 4925TIP3   OH214738   5.427   0.344   1.612
 4925TIP3    H114739   5.407   0.377   1.699
 4925TIP3    H214740   5.513   0.303   1.620
 4926TIP3   OH214741   7.141   2.394   5.884
 4926TIP3    H114742   7.104   2.393   5.796
 4926TIP3    H214743   7.091   2.328   5.932
 4927TIP3   OH214744   6.314   2.576   0.075
 4927TIP3    H114745   6.275   2.644   0.020
 4927TIP3    H214746   6.345   2.510   0.013
 4928TIP3   OH214747   6.461   2.908   3.112
 4928TIP3    H114748   6.394   2.850   3.078
 4928TIP3    H214749   6.419   2.953   3.185
 4929TIP3   OH214750   5.517   3.159   1.438
 4929TIP3    H114751   5.462   3.140   1.362
 4929TIP3    H214752   5.601   3.185   1.401
 4930TIP3   OH214753   0.017   3.000   2.877
 4930TIP3    H114754  -0.004   3.014   2.969
 4930TIP3    H214755   0.105   3.036   2.867
 4931TIP3   OH214756   2.787   2.307   3.748
 4931TIP3    H114757   2.879   2.284   3.766
 4931TIP3    H214758   2.786   2.402   3.743
 4932TIP3   OH214759   2.621   2.144   3.012
 4932TIP3    H114760   2.574   2.129   3.094
 4932TIP3    H214761   2.622   2.059   2.968
 4933TIP3   OH214762   2.823   6.531   5.151
 4933TIP3    H114763   2.782   6.617   5.138
 4933TIP3    H214764   2.917   6.548   5.146
 4934TIP3   OH214765   2.085   0.974   4.164
 4934TIP3    H114766   2.056   1.065   4.173
 4934TIP3    H214767   2.079   0.956   4.070
 4935TIP3   OH214768   2.664   5.121   1.204
 4935TIP3    H114769   2.728   5.124   1.275
 4935TIP3    H214770   2.622   5.035   1.213
 4936TIP3   OH214771   4.770   0.110   0.789
 4936TIP3    H114772   4.725   0.121   0.873
 4936TIP3    H214773   4.834   0.181   0.786
 4937TIP3   OH214774   1.853   6.414   1.546
 4937TIP3    H114775   1.759   6.406   1.528
 4937TIP3    H214776   1.866   6.508   1.561
 4938TIP3   OH214777   1.223   2.179   1.017
 4938TIP3    H114778   1.247   2.087   1.022
 4938TIP3    H214779   1.237   2.203   0.926
 4939TIP3   OH214780   5.146   2.703   4.933
 4939TIP3    H114781   5.152   2.615   4.970
 4939TIP3    H214782   5.056   2.709   4.900
 4940TIP3   OH214783   6.478   4.850   5.414
 4940TIP3    H114784   6.412   4.785   5.437
 4940TIP3    H214785   6.441   4.897   5.339
 4941TIP3   OH214786   2.845   0.598   3.417
 4941TIP3    H114787   2.936   0.589   3.389
 4941TIP3    H214788   2.796   0.602   3.335
 4942TIP3   OH214789   3.411   6.710   5.138
 4942TIP3    H114790   3.457   6.774   5.190
 4942TIP3    H214791   3.363   6.656   5.202
 4943TIP3   OH214792   5.028   0.203   0.423
 4943TIP3    H114793   5.000   0.277   0.478
 4943TIP3    H214794   5.081   0.149   0.482
 4944TIP3   OH214795   3.339   6.731   2.555
 4944TIP3    H114796   3.374   6.643   2.538
 4944TIP3    H214797   3.278   6.747   2.482
 4945TIP3   OH214798   2.467   2.033   4.219
 4945TIP3    H114799   2.493   2.122   4.196
 4945TIP3    H214800   2.545   1.980   4.204
 4946TIP3   OH214801   3.003   0.354   3.191
 4946TIP3    H114802   2.999   0.313   3.277
 4946TIP3    H214803   2.944   0.303   3.136
 4947TIP3   OH214804   4.181   0.479   2.081
 4947TIP3    H114805   4.231   0.405   2.049
 4947TIP3    H214806   4.185   0.471   2.176
 4948TIP3   OH214807   1.838   0.890   5.821
 4948TIP3    H114808   1.867   0.981   5.824
 4948TIP3    H214809   1.759   0.892   5.766
 4949TIP3   OH214810   5.770   2.244   2.832
 4949TIP3    H114811   5.677   2.267   2.831
 4949TIP3    H214812   5.774   2.161   2.785
 4950TIP3   OH214813   4.624   1.371   3.083
 4950TIP3    H114814   4.581   1.295   3.122
 4950TIP3    H214815   4.592   1.374   2.994
 4951TIP3   OH214816   7.101   2.541   2.467
 4951TIP3    H114817   7.157   2.464   2.462
 4951TIP3    H214818   7.059   2.535   2.553
 4952TIP3   OH214819   7.028   1.780   4.109
 4952TIP3    H114820   7.098   1.783   4.173
 4952TIP3    H214821   7.045   1.701   4.058
 4953TIP3   OH214822   5.803   3.389   0.930
 4953TIP3    H114823   5.722   3.352   0.964
 4953TIP3    H214824   5.777   3.434   0.849
 4954TIP3   OH214825   3.620   5.640   3.498
 4954TIP3    H114826   3.681   5.566   3.503
 4954TIP3    H214827   3.572   5.625   3.416
 4955TIP3   OH214828   0.330   2.192   4.093
 4955TIP3    H114829   0.353   2.106   4.128
 4955TIP3    H214830   0.270   2.173   4.021
 4956TIP3   OH214831   2.203   6.445   4.046
 4956TIP3    H114832   2.265   6.477   4.111
 4956TIP3    H214833   2.138   6.515   4.038
 4957TIP3   OH214834   4.425   4.237   5.594
 4957TIP3    H114835   4.492   4.172   5.616
 4957TIP3    H214836   4.409   4.285   5.675
 4958TIP3   OH214837   6.649   2.725   4.250
 4958TIP3    H114838   6.619   2.637   4.274
 4958TIP3    H214839   6.569   2.775   4.234
 4959TIP3   OH214840   3.226   5.891   1.758
 4959TIP3    H114841   3.306   5.906   1.708
 4959TIP3    H214842   3.160   5.944   1.714
 4960TIP3   OH214843   6.351   2.238   2.156
 4960TIP3    H114844   6.372   2.163   2.100
 4960TIP3    H214845   6.415   2.233   2.228
 4961TIP3   OH214846   3.031   0.277   5.448
 4961TIP3    H114847   3.100   0.251   5.509
 4961TIP3    H214848   2.952   0.280   5.502
 4962TIP3   OH214849   2.899   0.380   2.412
 4962TIP3    H114850   2.987   0.383   2.449
 4962TIP3    H214851   2.896   0.453   2.351
 4963TIP3   OH214852   5.043   2.476   1.858
 4963TIP3    H114853   4.957   2.441   1.880
 4963TIP3    H214854   5.102   2.434   1.921
 4964TIP3   OH214855   0.631   4.792   3.035
 4964TIP3    H114856   0.570   4.856   3.073
 4964TIP3    H214857   0.637   4.723   3.100
 4965TIP3   OH214858   1.490   3.303   3.624
 4965TIP3    H114859   1.500   3.230   3.686
 4965TIP3    H214860   1.546   3.372   3.659
 4966TIP3   OH214861   0.495   2.919   1.589
 4966TIP3    H114862   0.499   2.928   1.684
 4966TIP3    H214863   0.572   2.868   1.566
 4967TIP3   OH214864   4.359   2.350   1.315
 4967TIP3    H114865   4.265   2.334   1.327
 4967TIP3    H214866   4.373   2.438   1.350
 4968TIP3   OH214867   4.114   3.060   3.642
 4968TIP3    H114868   4.100   3.154   3.643
 4968TIP3    H214869   4.075   3.028   3.723
 4969TIP3   OH214870   6.720   6.001   0.470
 4969TIP3    H114871   6.780   6.071   0.444
 4969TIP3    H214872   6.732   5.933   0.404
 4970TIP3   OH214873   0.072   4.422   3.051
 4970TIP3    H114874   0.033   4.351   3.102
 4970TIP3    H214875   0.146   4.452   3.105
 4971TIP3   OH214876   4.193   4.825   0.725
 4971TIP3    H114877   4.284   4.813   0.752
 4971TIP3    H214878   4.181   4.920   0.724
 4972TIP3   OH214879   4.076   5.243   2.798
 4972TIP3    H114880   3.999   5.254   2.854
 4972TIP3    H214881   4.043   5.260   2.709
 4973TIP3   OH214882   1.402   0.113   4.506
 4973TIP3    H114883   1.455   0.120   4.585
 4973TIP3    H214884   1.340   0.043   4.525
 4974TIP3   OH214885   0.093   1.742   4.618
 4974TIP3    H114886   0.170   1.798   4.630
 4974TIP3    H214887   0.128   1.653   4.619
 4975TIP3   OH214888   5.632   5.495   2.904
 4975TIP3    H114889   5.712   5.525   2.948
 4975TIP3    H214890   5.645   5.521   2.812
 4976TIP3   OH214891   4.122   6.780   4.671
 4976TIP3    H114892   4.178   6.777   4.593
 4976TIP3    H214893   4.049   6.721   4.650
 4977TIP3   OH214894   4.525   2.822   5.345
 4977TIP3    H114895   4.611   2.844   5.310
 4977TIP3    H214896   4.493   2.752   5.288
 4978TIP3   OH214897   3.888   2.750   0.066
 4978TIP3    H114898   3.859   2.830   0.109
 4978TIP3    H214899   3.871   2.681   0.131
 4979TIP3   OH214900   3.836   6.417   1.309
 4979TIP3    H114901   3.875   6.429   1.223
 4979TIP3    H214902   3.894   6.466   1.368
 4980TIP3   OH214903   3.559   4.983   4.634
 4980TIP3    H114904   3.543   4.905   4.687
 4980TIP3    H214905   3.500   4.974   4.560
 4981TIP3   OH214906   6.599   5.259   0.427
 4981TIP3    H114907   6.640   5.259   0.514
 4981TIP3    H214908   6.664   5.218   0.370
 4982TIP3   OH214909   4.638   5.672   5.895
 4982TIP3    H114910   4.686   5.611   5.838
 4982TIP3    H214911   4.549   5.673   5.859
 4983TIP3   OH214912   3.576   5.404   3.683
 4983TIP3    H114913   3.481   5.404   3.697
 4983TIP3    H214914   3.603   5.494   3.705
 4984TIP3   OH214915   5.164   5.574   5.784
 4984TIP3    H114916   5.095   5.604   5.724
 4984TIP3    H214917   5.161   5.636   5.857
 4985TIP3   OH214918   2.656   1.134   3.720
 4985TIP3    H114919   2.748   1.128   3.744
 4985TIP3    H214920   2.614   1.174   3.797
 4986TIP3   OH214921   1.422   0.450   4.831
 4986TIP3    H114922   1.344   0.419   4.784
 4986TIP3    H214923   1.421   0.545   4.819
 4987TIP3   OH214924   3.911   5.136   1.657
 4987TIP3    H114925   3.943   5.118   1.569
 4987TIP3    H214926   3.827   5.178   1.644
 4988TIP3   OH214927   2.740   3.301   3.100
 4988TIP3    H114928   2.770   3.250   3.025
 4988TIP3    H214929   2.646   3.312   3.086
 4989TIP3   OH214930   1.483   0.553   1.162
 4989TIP3    H114931   1.442   0.640   1.168
 4989TIP3    H214932   1.410   0.495   1.141
 4990TIP3   OH214933   2.586   2.893   2.993
 4990TIP3    H114934   2.535   2.959   2.945
 4990TIP3    H214935   2.535   2.877   3.072
 4991TIP3   OH214936   2.476   5.156   0.749
 4991TIP3    H114937   2.434   5.147   0.663
 4991TIP3    H214938   2.421   5.220   0.795
 4992TIP3   OH214939   6.467   2.804   4.548
 4992TIP3    H114940   6.439   2.895   4.556
 4992TIP3    H214941   6.561   2.809   4.528
 4993TIP3   OH214942   5.176   3.728   0.653
 4993TIP3    H114943   5.271   3.730   0.663
 4993TIP3    H214944   5.159   3.653   0.596
 4994TIP3   OH214945   4.039   3.460   3.276
 4994TIP3    H114946   4.027   3.406   3.198
 4994TIP3    H214947   4.057   3.547   3.243
 4995TIP3   OH214948   0.090   3.330   3.486
 4995TIP3    H114949   0.061   3.255   3.537
 4995TIP3    H214950   0.176   3.304   3.453
 4996TIP3   OH214951   3.458   3.537   5.364
 4996TIP3    H114952   3.412   3.474   5.421
 4996TIP3    H214953   3.448   3.621   5.408
 4997TIP3   OH214954   3.174   5.488   4.954
 4997TIP3    H114955   3.204   5.436   5.029
 4997TIP3    H214956   3.236   5.560   4.949
 4998TIP3   OH214957   2.119   4.951   3.814
 4998TIP3    H114958   2.106   4.934   3.721
 4998TIP3    H214959   2.032   4.973   3.847
 4999TIP3   OH214960   5.284   6.471   1.597
 4999TIP3    H114961   5.343   6.492   1.524
 4999TIP3    H214962   5.238   6.553   1.615
 5000TIP3   OH214963   4.327   4.051   3.884
 5000TIP3    H114964   4.366   4.047   3.797
 5000TIP3    H214965   4.387   4.000   3.939
 5001TIP3   OH214966   5.590   0.106   1.878
 5001TIP3    H114967   5.640   0.168   1.929
 5001TIP3    H214968   5.499   0.125   1.900
 5002TIP3   OH214969   4.131   4.829   2.109
 5002TIP3    H114970   4.134   4.735   2.126
 5002TIP3    H214971   4.059   4.840   2.047
 5003TIP3   OH214972   3.287   6.013   2.407
 5003TIP3    H114973   3.323   6.028   2.320
 5003TIP3    H214974   3.331   6.078   2.462
 5004TIP3   OH214975   6.531   2.177   1.381
 5004TIP3    H114976   6.559   2.233   1.453
 5004TIP3    H214977   6.437   2.194   1.373
 5005TIP3   OH214978   3.744   0.515   4.660
 5005TIP3    H114979   3.731   0.421   4.669
 5005TIP3    H214980   3.781   0.542   4.744
 5006TIP3   OH214981   4.663   1.884   1.625
 5006TIP3    H114982   4.696   1.973   1.634
 5006TIP3    H214983   4.598   1.889   1.556
 5007TIP3   OH214984   3.104   5.668   1.874
 5007TIP3    H114985   3.153   5.586   1.868
 5007TIP3    H214986   3.166   5.735   1.843
 5008TIP3   OH214987   4.671   3.505   4.349
 5008TIP3    H114988   4.627   3.584   4.382
 5008TIP3    H214989   4.614   3.434   4.378
 5009TIP3   OH214990   2.105   3.308   1.964
 5009TIP3    H114991   2.062   3.358   2.033
 5009TIP3    H214992   2.054   3.227   1.958
 5010TIP3   OH214993   0.697   2.453   4.746
 5010TIP3    H114994   0.791   2.440   4.756
 5010TIP3    H214995   0.680   2.434   4.654
 5011TIP3   OH214996   3.939   3.117   2.309
 5011TIP3    H114997   3.935   3.213   2.310
 5011TIP3    H214998   3.886   3.093   2.233
 5012TIP3   OH214999   2.469   2.527   4.858
 5012TIP3    H115000   2.542   2.479   4.819
 5012TIP3    H215001   2.437   2.469   4.927
 5013TIP3   OH215002   0.628   2.453   4.427
 5013TIP3    H115003   0.633   2.545   4.400
 5013TIP3    H215004   0.534   2.435   4.432
 5014TIP3   OH215005   5.214   1.034   2.560
 5014TIP3    H115006   5.140   1.030   2.621
 5014TIP3    H215007   5.174   1.024   2.474
 5015TIP3   OH215008   3.045   3.954   0.415
 5015TIP3    H115009   3.119   3.897   0.436
 5015TIP3    H215010   3.061   3.980   0.324
 5016TIP3   OH215011   5.149   5.082   2.893
 5016TIP3    H115012   5.095   5.142   2.842
 5016TIP3    H215013   5.130   5.105   2.984
 5017TIP3   OH215014   6.042   1.241   4.113
 5017TIP3    H115015   5.958   1.217   4.074
 5017TIP3    H215016   6.025   1.240   4.207
 5018TIP3   OH215017   0.335   2.266   4.394
 5018TIP3    H115018   0.330   2.258   4.299
 5018TIP3    H215019   0.331   2.360   4.411
 5019TIP3   OH215020   3.224   5.189   2.267
 5019TIP3    H115021   3.182   5.122   2.213
 5019TIP3    H215022   3.311   5.199   2.229
 5020TIP3   OH215023   2.623   4.156   3.141
 5020TIP3    H115024   2.570   4.171   3.219
 5020TIP3    H215025   2.678   4.234   3.134
 5021TIP3   OH215026   4.646   2.607   3.326
 5021TIP3    H115027   4.586   2.579   3.256
 5021TIP3    H215028   4.624   2.699   3.340
 5022TIP3   OH215029   0.491   6.772   0.811
 5022TIP3    H115030   0.544   6.751   0.887
 5022TIP3    H215031   0.531   6.851   0.775
 5023TIP3   OH215032   5.003   4.465   3.902
 5023TIP3    H115033   5.077   4.475   3.842
 5023TIP3    H215034   4.943   4.535   3.878
 5024TIP3   OH215035   3.782   4.783   3.583
 5024TIP3    H115036   3.712   4.746   3.636
 5024TIP3    H215037   3.739   4.807   3.500
 5025TIP3   OH215038   6.100   0.942   1.151
 5025TIP3    H115039   6.186   0.901   1.153
 5025TIP3    H215040   6.095   0.985   1.066
 5026TIP3   OH215041   1.246   5.369   2.693
 5026TIP3    H115042   1.329   5.376   2.740
 5026TIP3    H215043   1.182   5.345   2.761
 5027TIP3   OH215044   2.636   5.838   3.777
 5027TIP3    H115045   2.630   5.933   3.770
 5027TIP3    H215046   2.545   5.808   3.774
 5028TIP3   OH215047   1.175   4.172   0.894
 5028TIP3    H115048   1.253   4.173   0.840
 5028TIP3    H215049   1.120   4.103   0.856
 5029TIP3   OH215050   4.627   4.258   3.740
 5029TIP3    H115051   4.584   4.181   3.704
 5029TIP3    H215052   4.569   4.331   3.717
 5030TIP3   OH215053   2.039   5.454   1.059
 5030TIP3    H115054   2.062   5.383   0.999
 5030TIP3    H215055   2.039   5.412   1.146
 5031TIP3   OH215056   3.466   4.487   2.873
 5031TIP3    H115057   3.474   4.427   2.948
 5031TIP3    H215058   3.533   4.554   2.888
 5032TIP3   OH215059   0.212   6.025   1.971
 5032TIP3    H115060   0.272   6.059   1.905
 5032TIP3    H215061   0.268   5.974   2.030
 5033TIP3   OH215062   5.627   0.804   2.977
 5033TIP3    H115063   5.633   0.748   3.054
 5033TIP3    H215064   5.718   0.829   2.959
 5034TIP3   OH215065   6.304   0.127   5.550
 5034TIP3    H115066   6.256   0.146   5.470
 5034TIP3    H215067   6.314   0.031   5.550
 5035TIP3   OH215068   1.610   1.865   0.328
 5035TIP3    H115069   1.536   1.815   0.294
 5035TIP3    H215070   1.574   1.911   0.404
 5036TIP3   OH215071   4.498   2.069   4.519
 5036TIP3    H115072   4.469   1.984   4.550
 5036TIP3    H215073   4.475   2.130   4.589
 5037TIP3   OH215074   5.179   1.949   4.509
 5037TIP3    H115075   5.210   1.868   4.469
 5037TIP3    H215076   5.084   1.949   4.491
 5038TIP3   OH215077   0.203   5.304   2.645
 5038TIP3    H115078   0.296   5.323   2.656
 5038TIP3    H215079   0.169   5.295   2.734
 5039TIP3   OH215080   2.322   2.207   1.959
 5039TIP3    H115081   2.244   2.245   1.919
 5039TIP3    H215082   2.319   2.114   1.935
 5040TIP3   OH215083   6.646   3.993   3.765
 5040TIP3    H115084   6.590   4.037   3.828
 5040TIP3    H215085   6.595   3.918   3.734
 5041TIP3   OH215086   3.456   6.215   0.568
 5041TIP3    H115087   3.418   6.145   0.515
 5041TIP3    H215088   3.472   6.174   0.653
 5042TIP3   OH215089   6.812   2.656   2.030
 5042TIP3    H115090   6.887   2.654   2.090
 5042TIP3    H215091   6.808   2.746   1.999
 5043TIP3   OH215092   1.432   3.678   1.975
 5043TIP3    H115093   1.371   3.737   1.932
 5043TIP3    H215094   1.517   3.723   1.970
 5044TIP3   OH215095   5.970   3.601   1.044
 5044TIP3    H115096   5.941   3.691   1.032
 5044TIP3    H215097   5.909   3.549   0.992
 5045TIP3   OH215098   3.627   3.953   0.979
 5045TIP3    H115099   3.579   3.888   0.927
 5045TIP3    H215100   3.603   4.037   0.938
 5046TIP3   OH215101   1.019   0.069   4.655
 5046TIP3    H115102   1.066   0.009   4.596
 5046TIP3    H215103   0.927   0.049   4.641
 5047TIP3   OH215104   3.006   4.230   0.950
 5047TIP3    H115105   2.989   4.141   0.919
 5047TIP3    H215106   2.998   4.285   0.872
 5048TIP3   OH215107   3.052   3.356   3.341
 5048TIP3    H115108   2.977   3.404   3.306
 5048TIP3    H215109   3.041   3.267   3.309
 5049TIP3   OH215110   6.492   2.964   1.971
 5049TIP3    H115111   6.474   3.046   1.926
 5049TIP3    H215112   6.587   2.963   1.982
 5050TIP3   OH215113   5.356   4.146   1.230
 5050TIP3    H115114   5.354   4.205   1.154
 5050TIP3    H215115   5.331   4.061   1.194
 5051TIP3   OH215116   6.029   0.348   2.524
 5051TIP3    H115117   6.112   0.376   2.486
 5051TIP3    H215118   5.972   0.332   2.448
 5052TIP3   OH215119   6.656   0.535   0.337
 5052TIP3    H115120   6.649   0.627   0.311
 5052TIP3    H215121   6.737   0.530   0.387
 5053TIP3   OH215122   2.174   2.254   0.926
 5053TIP3    H115123   2.249   2.195   0.927
 5053TIP3    H215124   2.098   2.196   0.928
 5054TIP3   OH215125   2.818   5.328   4.549
 5054TIP3    H115126   2.813   5.284   4.464
 5054TIP3    H215127   2.875   5.403   4.534
 5055TIP3   OH215128   2.725   4.846   1.580
 5055TIP3    H115129   2.738   4.936   1.551
 5055TIP3    H215130   2.709   4.853   1.674
 5056TIP3   OH215131   5.261   1.527   3.262
 5056TIP3    H115132   5.175   1.484   3.252
 5056TIP3    H215133   5.240   1.615   3.292
 5057TIP3   OH215134   6.672   6.628   5.449
 5057TIP3    H115135   6.739   6.643   5.384
 5057TIP3    H215136   6.590   6.622   5.399
 5058TIP3   OH215137   2.075   4.058   2.465
 5058TIP3    H115138   2.087   4.020   2.552
 5058TIP3    H215139   1.993   4.108   2.473
 5059TIP3   OH215140   1.752   1.878   0.893
 5059TIP3    H115141   1.724   1.873   0.801
 5059TIP3    H215142   1.747   1.788   0.925
 5060TIP3   OH215143   6.334   6.045   4.480
 5060TIP3    H115144   6.302   6.107   4.545
 5060TIP3    H215145   6.418   6.014   4.515
 5061TIP3   OH215146   0.015   6.464   4.583
 5061TIP3    H115147  -0.037   6.490   4.658
 5061TIP3    H215148   0.070   6.393   4.615
 5062TIP3   OH215149   6.060   3.092   4.080
 5062TIP3    H115150   6.008   3.023   4.039
 5062TIP3    H215151   6.073   3.157   4.012
 5063TIP3   OH215152   6.306   4.069   1.354
 5063TIP3    H115153   6.233   4.076   1.293
 5063TIP3    H215154   6.361   4.145   1.336
 5064TIP3   OH215155   2.596   0.977   2.882
 5064TIP3    H115156   2.678   0.927   2.885
 5064TIP3    H215157   2.624   1.068   2.873
 5065TIP3   OH215158   1.399   4.747   5.693
 5065TIP3    H115159   1.459   4.745   5.618
 5065TIP3    H215160   1.321   4.791   5.659
 5066TIP3   OH215161   4.511   1.715   3.911
 5066TIP3    H115162   4.562   1.795   3.922
 5066TIP3    H215163   4.552   1.671   3.837
 5067TIP3   OH215164   3.931   3.421   1.979
 5067TIP3    H115165   3.840   3.394   1.986
 5067TIP3    H215166   3.964   3.376   1.901
 5068TIP3   OH215167   6.581   4.799   3.357
 5068TIP3    H115168   6.628   4.854   3.294
 5068TIP3    H215169   6.551   4.724   3.305
 5069TIP3   OH215170   1.888   0.095   4.364
 5069TIP3    H115171   1.857   0.063   4.448
 5069TIP3    H215172   1.835   0.173   4.347
 5070TIP3   OH215173   5.705   3.828   3.297
 5070TIP3    H115174   5.773   3.869   3.244
 5070TIP3    H215175   5.703   3.878   3.378
 5071TIP3   OH215176   1.990   4.287   1.168
 5071TIP3    H115177   1.949   4.358   1.119
 5071TIP3    H215178   2.029   4.230   1.101
 5072TIP3   OH215179   1.115   6.416   0.568
 5072TIP3    H115180   1.021   6.435   0.565
 5072TIP3    H215181   1.148   6.470   0.640
 5073TIP3   OH215182   5.537   5.727   4.624
 5073TIP3    H115183   5.558   5.804   4.571
 5073TIP3    H215184   5.498   5.665   4.562
 5074TIP3   OH215185   0.628   2.241   3.720
 5074TIP3    H115186   0.655   2.296   3.646
 5074TIP3    H215187   0.702   2.244   3.781
 5075TIP3   OH215188   4.776   0.315   5.360
 5075TIP3    H115189   4.735   0.370   5.426
 5075TIP3    H215190   4.800   0.375   5.289
 5076TIP3   OH215191   3.913   3.930   5.249
 5076TIP3    H115192   3.947   3.844   5.273
 5076TIP3    H215193   3.880   3.967   5.332
 5077TIP3   OH215194   5.606   2.175   0.362
 5077TIP3    H115195   5.582   2.245   0.301
 5077TIP3    H215196   5.700   2.187   0.376
 5078TIP3   OH215197   3.037   6.398   0.370
 5078TIP3    H115198   3.131   6.397   0.387
 5078TIP3    H215199   3.030   6.417   0.277
 5079TIP3   OH215200   2.721   6.370   2.826
 5079TIP3    H115201   2.703   6.324   2.744
 5079TIP3    H215202   2.637   6.373   2.870
 5080TIP3   OH215203   1.062   6.268   5.744
 5080TIP3    H115204   1.025   6.267   5.656
 5080TIP3    H215205   1.000   6.319   5.796
 5081TIP3   OH215206   0.350   3.777   4.518
 5081TIP3    H115207   0.375   3.688   4.493
 5081TIP3    H215208   0.332   3.821   4.436
 5082TIP3   OH215209   3.518   3.106   3.597
 5082TIP3    H115210   3.553   3.189   3.565
 5082TIP3    H215211   3.595   3.049   3.602
 5083TIP3   OH215212   4.319   3.428   3.328
 5083TIP3    H115213   4.239   3.472   3.356
 5083TIP3    H215214   4.300   3.396   3.239
 5084TIP3   OH215215   1.302   4.014   2.776
 5084TIP3    H115216   1.331   3.977   2.859
 5084TIP3    H215217   1.231   4.073   2.800
 5085TIP3   OH215218   2.711   0.662   4.785
 5085TIP3    H115219   2.718   0.569   4.766
 5085TIP3    H215220   2.787   0.681   4.840
 5086TIP3   OH215221   0.819   2.435   2.131
 5086TIP3    H115222   0.874   2.391   2.066
 5086TIP3    H215223   0.876   2.501   2.171
 5087TIP3   OH215224   6.975   2.500   4.041
 5087TIP3    H115225   7.051   2.459   4.000
 5087TIP3    H215226   6.949   2.439   4.110
 5088TIP3   OH215227   4.470   3.050   4.863
 5088TIP3    H115228   4.391   3.067   4.914
 5088TIP3    H215229   4.504   2.967   4.897
 5089TIP3   OH215230   6.429   4.823   3.576
 5089TIP3    H115231   6.451   4.784   3.661
 5089TIP3    H215232   6.493   4.787   3.515
 5090TIP3   OH215233   3.509   3.851   1.687
 5090TIP3    H115234   3.441   3.907   1.725
 5090TIP3    H215235   3.540   3.799   1.761
 5091TIP3   OH215236   4.482   5.573   0.100
 5091TIP3    H115237   4.446   5.487   0.076
 5091TIP3    H215238   4.562   5.552   0.149
 5092TIP3   OH215239   4.072   5.566   5.104
 5092TIP3    H115240   4.036   5.501   5.164
 5092TIP3    H215241   4.103   5.637   5.161
 5093TIP3   OH215242   7.160   2.861   0.186
 5093TIP3    H115243   7.080   2.818   0.157
 5093TIP3    H215244   7.134   2.909   0.265
 5094TIP3   OH215245   2.209   6.587   1.172
 5094TIP3    H115246   2.128   6.538   1.157
 5094TIP3    H215247   2.206   6.612   1.264
 5095TIP3   OH215248   5.779   3.966   0.884
 5095TIP3    H115249   5.845   4.032   0.906
 5095TIP3    H215250   5.823   3.909   0.820
 5096TIP3   OH215251   6.086   5.359   5.580
 5096TIP3    H115252   6.077   5.381   5.487
 5096TIP3    H215253   6.056   5.438   5.625
 5097TIP3   OH215254   2.729   2.683   3.262
 5097TIP3    H115255   2.719   2.612   3.326
 5097TIP3    H215256   2.823   2.703   3.264
 5098TIP3   OH215257   5.393   4.965   4.335
 5098TIP3    H115258   5.413   4.872   4.343
 5098TIP3    H215259   5.346   4.972   4.252
 5099TIP3   OH215260   3.634   2.153   4.256
 5099TIP3    H115261   3.620   2.068   4.297
 5099TIP3    H215262   3.578   2.152   4.178
 5100TIP3   OH215263   6.915   3.135   2.190
 5100TIP3    H115264   6.952   3.067   2.248
 5100TIP3    H215265   6.821   3.117   2.190
 5101TIP3   OH215266   5.746   0.586   3.493
 5101TIP3    H115267   5.839   0.602   3.477
 5101TIP3    H215268   5.700   0.642   3.431
 5102TIP3   OH215269   0.743   4.008   5.706
 5102TIP3    H115270   0.772   3.976   5.620
 5102TIP3    H215271   0.823   4.015   5.758
 5103TIP3   OH215272   2.376   4.150   5.718
 5103TIP3    H115273   2.311   4.090   5.680
 5103TIP3    H215274   2.327   4.231   5.734
 5104TIP3   OH215275   2.833   3.242   3.670
 5104TIP3    H115276   2.927   3.237   3.651
 5104TIP3    H215277   2.791   3.222   3.586
 5105TIP3   OH215278   1.859   2.200   3.251
 5105TIP3    H115279   1.874   2.106   3.239
 5105TIP3    H215280   1.892   2.218   3.339
 5106TIP3   OH215281   3.956   6.065   2.792
 5106TIP3    H115282   3.873   6.069   2.744
 5106TIP3    H215283   3.992   6.154   2.784
 5107TIP3   OH215284   2.312   2.799   5.141
 5107TIP3    H115285   2.228   2.823   5.102
 5107TIP3    H215286   2.316   2.704   5.133
 5108TIP3   OH215287   5.868   5.472   1.417
 5108TIP3    H115288   5.898   5.450   1.328
 5108TIP3    H215289   5.774   5.486   1.407
 5109TIP3   OH215290   2.278   5.726   5.189
 5109TIP3    H115291   2.234   5.779   5.123
 5109TIP3    H215292   2.252   5.765   5.273
 5110TIP3   OH215293   1.333   2.497   5.596
 5110TIP3    H115294   1.420   2.459   5.590
 5110TIP3    H215295   1.312   2.495   5.690
 5111TIP3   OH215296   7.015   0.140   5.870
 5111TIP3    H115297   6.977   0.184   5.794
 5111TIP3    H215298   7.067   0.069   5.833
 5112TIP3   OH215299   5.810   5.911   3.365
 5112TIP3    H115300   5.801   5.821   3.333
 5112TIP3    H215301   5.903   5.918   3.388
 5113TIP3   OH215302   3.757   5.580   0.256
 5113TIP3    H115303   3.847   5.568   0.286
 5113TIP3    H215304   3.765   5.632   0.176
 5114TIP3   OH215305   6.140   2.727   3.870
 5114TIP3    H115306   6.225   2.770   3.857
 5114TIP3    H215307   6.106   2.715   3.782
 5115TIP3   OH215308   1.979   6.678   0.503
 5115TIP3    H115309   1.967   6.584   0.488
 5115TIP3    H215310   2.061   6.684   0.552
 5116TIP3   OH215311   0.350   5.294   1.757
 5116TIP3    H115312   0.265   5.319   1.793
 5116TIP3    H215313   0.405   5.279   1.834
 5117TIP3   OH215314   2.368   1.851   3.653
 5117TIP3    H115315   2.374   1.923   3.716
 5117TIP3    H215316   2.281   1.813   3.668
 5118TIP3   OH215317   2.806   0.441   5.018
 5118TIP3    H115318   2.796   0.410   4.928
 5118TIP3    H215319   2.900   0.456   5.028
 5119TIP3   OH215320   0.264   0.690   2.113
 5119TIP3    H115321   0.317   0.690   2.033
 5119TIP3    H215322   0.327   0.681   2.184
 5120TIP3   OH215323   2.799   6.511   1.075
 5120TIP3    H115324   2.707   6.535   1.070
 5120TIP3    H215325   2.815   6.458   0.997
 5121TIP3   OH215326   5.600   1.445   1.226
 5121TIP3    H115327   5.676   1.391   1.247
 5121TIP3    H215328   5.625   1.493   1.147
 5122TIP3   OH215329   4.752   1.704   2.836
 5122TIP3    H115330   4.781   1.635   2.776
 5122TIP3    H215331   4.818   1.707   2.904
 5123TIP3   OH215332   3.121   6.490   3.858
 5123TIP3    H115333   3.102   6.582   3.876
 5123TIP3    H215334   3.064   6.469   3.784
 5124TIP3   OH215335   0.977   5.213   3.590
 5124TIP3    H115336   0.882   5.207   3.576
 5124TIP3    H215337   1.002   5.295   3.548
 5125TIP3   OH215338   3.628   2.291   5.463
 5125TIP3    H115339   3.659   2.285   5.554
 5125TIP3    H215340   3.707   2.280   5.411
 5126TIP3   OH215341   0.742   4.238   4.914
 5126TIP3    H115342   0.649   4.259   4.927
 5126TIP3    H215343   0.776   4.310   4.861
 5127TIP3   OH215344   6.427   6.380   4.944
 5127TIP3    H115345   6.345   6.429   4.948
 5127TIP3    H215346   6.446   6.357   5.035
 5128TIP3   OH215347   6.869   0.991   5.632
 5128TIP3    H115348   6.856   1.079   5.595
 5128TIP3    H215349   6.906   0.940   5.560
 5129TIP3   OH215350   3.718   6.288   3.944
 5129TIP3    H115351   3.736   6.337   3.864
 5129TIP3    H215352   3.757   6.341   4.014
 5130TIP3   OH215353   2.977   3.387   1.970
 5130TIP3    H115354   3.006   3.469   2.009
 5130TIP3    H215355   2.899   3.363   2.021
 5131TIP3   OH215356   3.544   6.761   2.797
 5131TIP3    H115357   3.475   6.818   2.762
 5131TIP3    H215358   3.498   6.681   2.822
 5132TIP3   OH215359   4.898   4.423   1.468
 5132TIP3    H115360   4.907   4.439   1.374
 5132TIP3    H215361   4.813   4.380   1.477
 5133TIP3   OH215362   5.129   0.977   4.748
 5133TIP3    H115363   5.077   0.897   4.757
 5133TIP3    H215364   5.100   1.015   4.665
 5134TIP3   OH215365   6.068   0.309   5.366
 5134TIP3    H115366   6.073   0.394   5.409
 5134TIP3    H215367   6.039   0.329   5.277
 5135TIP3   OH215368   4.949   1.462   3.608
 5135TIP3    H115369   4.862   1.442   3.574
 5135TIP3    H215370   4.933   1.529   3.675
 5136TIP3   OH215371   0.790   2.336   0.721
 5136TIP3    H115372   0.842   2.333   0.801
 5136TIP3    H215373   0.720   2.399   0.741
 5137TIP3   OH215374   2.670   5.048   4.035
 5137TIP3    H115375   2.723   5.080   4.108
 5137TIP3    H215376   2.717   4.972   4.002
 5138TIP3   OH215377   4.393   2.560   1.512
 5138TIP3    H115378   4.488   2.546   1.505
 5138TIP3    H215379   4.381   2.653   1.493
 5139TIP3   OH215380   4.048   6.386   4.354
 5139TIP3    H115381   4.120   6.414   4.409
 5139TIP3    H215382   4.044   6.291   4.366
 5140TIP3   OH215383   6.601   3.008   3.849
 5140TIP3    H115384   6.647   3.067   3.789
 5140TIP3    H215385   6.582   3.062   3.926
 5141TIP3   OH215386   6.373   4.366   3.006
 5141TIP3    H115387   6.445   4.397   3.061
 5141TIP3    H215388   6.369   4.271   3.022
 5142TIP3   OH215389   4.821   4.320   1.182
 5142TIP3    H115390   4.911   4.293   1.162
 5142TIP3    H215391   4.771   4.238   1.181
 5143TIP3   OH215392   0.913   1.976   4.951
 5143TIP3    H115393   0.899   1.892   4.907
 5143TIP3    H215394   0.988   1.961   5.009
 5144TIP3   OH215395   2.877   3.975   3.269
 5144TIP3    H115396   2.784   3.954   3.266
 5144TIP3    H215397   2.898   3.980   3.362
 5145TIP3   OH215398   2.604   0.328   3.402
 5145TIP3    H115399   2.520   0.374   3.399
 5145TIP3    H215400   2.636   0.330   3.312
 5146TIP3   OH215401   4.500   2.923   4.616
 5146TIP3    H115402   4.591   2.926   4.589
 5146TIP3    H215403   4.496   2.976   4.695
 5147TIP3   OH215404   3.482   5.967   3.962
 5147TIP3    H115405   3.556   6.006   4.010
 5147TIP3    H215406   3.520   5.892   3.916
 5148TIP3   OH215407   4.722   3.367   5.195
 5148TIP3    H115408   4.813   3.367   5.166
 5148TIP3    H215409   4.672   3.394   5.118
 5149TIP3   OH215410   0.123   3.381   5.606
 5149TIP3    H115411   0.183   3.396   5.533
 5149TIP3    H215412   0.055   3.447   5.595
 5150TIP3   OH215413   3.165   5.985   4.242
 5150TIP3    H115414   3.135   5.960   4.155
 5150TIP3    H215415   3.094   6.037   4.278
 5151TIP3   OH215416   6.190   2.885   1.812
 5151TIP3    H115417   6.190   2.893   1.717
 5151TIP3    H215418   6.097   2.884   1.835
 5152TIP3   OH215419   6.431   6.366   1.464
 5152TIP3    H115420   6.416   6.440   1.524
 5152TIP3    H215421   6.445   6.291   1.522
 5153TIP3   OH215422   7.130   0.202   1.973
 5153TIP3    H115423   7.038   0.186   1.949
 5153TIP3    H215424   7.135   0.297   1.985
 5154TIP3   OH215425   0.942   3.600   2.419
 5154TIP3    H115426   1.023   3.650   2.419
 5154TIP3    H215427   0.883   3.650   2.362
 5155TIP3   OH215428   2.279   0.966   3.579
 5155TIP3    H115429   2.225   1.009   3.513
 5155TIP3    H215430   2.254   0.874   3.574
 5156TIP3   OH215431   3.877   2.374   5.276
 5156TIP3    H115432   3.948   2.344   5.333
 5156TIP3    H215433   3.855   2.462   5.308
 5157TIP3   OH215434   6.497   3.142   1.248
 5157TIP3    H115435   6.532   3.206   1.310
 5157TIP3    H215436   6.524   3.175   1.162
 5158TIP3   OH215437   1.431   0.721   0.224
 5158TIP3    H115438   1.444   0.815   0.230
 5158TIP3    H215439   1.485   0.684   0.294
 5159TIP3   OH215440   2.532   3.551   2.325
 5159TIP3    H115441   2.526   3.629   2.380
 5159TIP3    H215442   2.538   3.479   2.388
 5160TIP3   OH215443   1.202   2.736   5.594
 5160TIP3    H115444   1.257   2.658   5.596
 5160TIP3    H215445   1.113   2.703   5.590
 5161TIP3   OH215446   6.632   4.495   4.505
 5161TIP3    H115447   6.539   4.494   4.527
 5161TIP3    H215448   6.677   4.502   4.590
 5162TIP3   OH215449   1.635   3.544   0.099
 5162TIP3    H115450   1.693   3.559   0.025
 5162TIP3    H215451   1.651   3.619   0.157
 5163TIP3   OH215452   0.431   2.958   4.344
 5163TIP3    H115453   0.340   2.970   4.319
 5163TIP3    H215454   0.456   3.040   4.385
 5164TIP3   OH215455   2.041   0.537   3.790
 5164TIP3    H115456   2.011   0.451   3.760
 5164TIP3    H215457   2.093   0.519   3.868
 5165TIP3   OH215458   0.470   4.360   3.821
 5165TIP3    H115459   0.387   4.407   3.819
 5165TIP3    H215460   0.535   4.428   3.842
 5166TIP3   OH215461   1.749   0.387   5.804
 5166TIP3    H115462   1.701   0.326   5.859
 5166TIP3    H215463   1.825   0.413   5.857
 5167TIP3   OH215464   3.397   0.875   4.270
 5167TIP3    H115465   3.319   0.917   4.307
 5167TIP3    H215466   3.423   0.811   4.336
 5168TIP3   OH215467   5.325   2.153   0.460
 5168TIP3    H115468   5.408   2.161   0.412
 5168TIP3    H215469   5.346   2.182   0.549
 5169TIP3   OH215470   6.172   6.517   5.013
 5169TIP3    H115471   6.144   6.447   5.071
 5169TIP3    H215472   6.100   6.527   4.950
 5170TIP3   OH215473   2.460   6.298   5.103
 5170TIP3    H115474   2.469   6.372   5.163
 5170TIP3    H215475   2.383   6.250   5.135
 5171TIP3   OH215476   1.650   5.370   3.621
 5171TIP3    H115477   1.600   5.421   3.558
 5171TIP3    H215478   1.692   5.435   3.677
 5172TIP3   OH215479   0.603   4.982   3.696
 5172TIP3    H115480   0.603   5.063   3.747
 5172TIP3    H215481   0.522   4.938   3.722
 5173TIP3   OH215482   4.329   5.006   0.388
 5173TIP3    H115483   4.312   4.914   0.365
 5173TIP3    H215484   4.370   5.001   0.474
 5174TIP3   OH215485   1.728   4.970   2.084
 5174TIP3    H115486   1.707   4.972   2.178
 5174TIP3    H215487   1.808   4.917   2.079
 5175TIP3   OH215488   6.425   5.248   3.281
 5175TIP3    H115489   6.377   5.167   3.262
 5175TIP3    H215490   6.356   5.313   3.296
 5176TIP3   OH215491   4.418   2.701   4.427
 5176TIP3    H115492   4.423   2.775   4.487
 5176TIP3    H215493   4.450   2.735   4.344
 5177TIP3   OH215494   2.628   0.667   1.576
 5177TIP3    H115495   2.636   0.672   1.481
 5177TIP3    H215496   2.705   0.619   1.605
 5178TIP3   OH215497   2.683   2.872   2.416
 5178TIP3    H115498   2.590   2.874   2.393
 5178TIP3    H215499   2.726   2.925   2.349
 5179TIP3   OH215500   0.077   2.304   1.751
 5179TIP3    H115501   0.119   2.272   1.671
 5179TIP3    H215502   0.040   2.389   1.727
 5180TIP3   OH215503   2.247   4.290   4.005
 5180TIP3    H115504   2.156   4.260   4.010
 5180TIP3    H215505   2.260   4.314   3.914
 5181TIP3   OH215506   3.416   5.106   5.807
 5181TIP3    H115507   3.438   5.014   5.819
 5181TIP3    H215508   3.472   5.135   5.735
 5182TIP3   OH215509   6.012   0.793   2.777
 5182TIP3    H115510   6.077   0.855   2.743
 5182TIP3    H215511   6.004   0.816   2.869
 5183TIP3   OH215512   6.548   1.118   0.292
 5183TIP3    H115513   6.492   1.058   0.243
 5183TIP3    H215514   6.594   1.168   0.225
 5184TIP3   OH215515   2.366   0.517   0.705
 5184TIP3    H115516   2.410   0.465   0.638
 5184TIP3    H215517   2.382   0.608   0.679
 5185TIP3   OH215518   6.256   5.864   0.309
 5185TIP3    H115519   6.296   5.907   0.233
 5185TIP3    H215520   6.190   5.926   0.340
 5186TIP3   OH215521   6.038   2.350   3.452
 5186TIP3    H115522   6.003   2.423   3.503
 5186TIP3    H215523   6.072   2.289   3.518
 5187TIP3   OH215524   6.566   5.152   4.743
 5187TIP3    H115525   6.598   5.228   4.695
 5187TIP3    H215526   6.634   5.135   4.808
 5188TIP3   OH215527   1.472   1.367   5.700
 5188TIP3    H115528   1.541   1.410   5.751
 5188TIP3    H215529   1.415   1.327   5.766
 5189TIP3   OH215530   5.437   4.025   5.750
 5189TIP3    H115531   5.462   4.115   5.773
 5189TIP3    H215532   5.382   3.997   5.823
 5190TIP3   OH215533   5.458   1.641   3.842
 5190TIP3    H115534   5.434   1.606   3.928
 5190TIP3    H215535   5.503   1.569   3.798
 5191TIP3   OH215536   6.600   3.024   0.926
 5191TIP3    H115537   6.692   3.040   0.948
 5191TIP3    H215538   6.562   3.111   0.918
 5192TIP3   OH215539   6.943   4.864   3.860
 5192TIP3    H115540   6.931   4.955   3.888
 5192TIP3    H215541   6.906   4.861   3.772
 5193TIP3   OH215542   1.466   1.591   4.941
 5193TIP3    H115543   1.403   1.653   4.906
 5193TIP3    H215544   1.548   1.641   4.948
 5194TIP3   OH215545   0.233   6.598   0.974
 5194TIP3    H115546   0.264   6.518   1.017
 5194TIP3    H215547   0.245   6.580   0.880
 5195TIP3   OH215548   6.866   4.129   2.025
 5195TIP3    H115549   6.792   4.073   2.047
 5195TIP3    H215550   6.877   4.118   1.930
 5196TIP3   OH215551   7.155   6.817   3.602
 5196TIP3    H115552   7.148   6.774   3.517
 5196TIP3    H215553   7.212   6.760   3.653
 5197TIP3   OH215554   6.365   2.006   5.358
 5197TIP3    H115555   6.297   1.975   5.298
 5197TIP3    H215556   6.401   1.926   5.397
 5198TIP3   OH215557   0.281   2.432   2.640
 5198TIP3    H115558   0.356   2.434   2.580
 5198TIP3    H215559   0.314   2.390   2.719
 5199TIP3   OH215560   6.254   2.070   4.035
 5199TIP3    H115561   6.183   2.034   3.982
 5199TIP3    H215562   6.237   2.164   4.037
 5200TIP3   OH215563   2.291   3.247   5.904
 5200TIP3    H115564   2.246   3.331   5.890
 5200TIP3    H215565   2.223   3.181   5.893
 5201TIP3   OH215566   4.098   2.788   1.560
 5201TIP3    H115567   4.156   2.790   1.484
 5201TIP3    H215568   4.011   2.773   1.524
 5202TIP3   OH215569   5.391   5.528   4.486
 5202TIP3    H115570   5.394   5.476   4.405
 5202TIP3    H215571   5.327   5.596   4.468
 5203TIP3   OH215572   5.471   4.639   2.955
 5203TIP3    H115573   5.448   4.617   2.864
 5203TIP3    H215574   5.532   4.712   2.947
 5204TIP3   OH215575   2.933   2.932   0.320
 5204TIP3    H115576   2.945   2.844   0.285
 5204TIP3    H215577   2.854   2.965   0.276
 5205TIP3   OH215578   2.780   5.446   0.732
 5205TIP3    H115579   2.768   5.363   0.778
 5205TIP3    H215580   2.784   5.422   0.639
 5206TIP3   OH215581   2.159   0.444   5.103
 5206TIP3    H115582   2.240   0.486   5.072
 5206TIP3    H215583   2.091   0.476   5.044
 5207TIP3   OH215584   6.037   2.590   5.858
 5207TIP3    H115585   6.087   2.520   5.816
 5207TIP3    H215586   6.096   2.624   5.925
 5208TIP3   OH215587   2.940   1.039   0.744
 5208TIP3    H115588   2.871   1.065   0.682
 5208TIP3    H215589   3.021   1.046   0.693
 5209TIP3   OH215590   7.202   5.262   5.915
 5209TIP3    H115591   7.245   5.310   5.844
 5209TIP3    H215592   7.158   5.189   5.871
 5210TIP3   OH215593   7.085   2.465   4.670
 5210TIP3    H115594   7.084   2.371   4.686
 5210TIP3    H215595   7.014   2.480   4.609
 5211TIP3   OH215596   4.608   4.933   2.160
 5211TIP3    H115597   4.518   4.913   2.186
 5211TIP3    H215598   4.598   4.984   2.079
 5212TIP3   OH215599   1.963   5.197   3.702
 5212TIP3    H115600   1.994   5.216   3.790
 5212TIP3    H215601   1.952   5.283   3.661
 5213TIP3   OH215602   3.925   6.745   0.569
 5213TIP3    H115603   3.855   6.702   0.520
 5213TIP3    H215604   3.889   6.757   0.657
 5214TIP3   OH215605   6.614   5.260   3.073
 5214TIP3    H115606   6.627   5.353   3.088
 5214TIP3    H215607   6.563   5.230   3.149
 5215TIP3   OH215608   5.932   2.555   0.998
 5215TIP3    H115609   6.025   2.539   0.979
 5215TIP3    H215610   5.906   2.481   1.053
 5216TIP3   OH215611   7.116   3.918   3.767
 5216TIP3    H115612   7.122   3.966   3.685
 5216TIP3    H215613   7.205   3.892   3.788
 5217TIP3   OH215614   1.080   3.257   2.068
 5217TIP3    H115615   1.127   3.312   2.131
 5217TIP3    H215616   1.146   3.196   2.035
 5218TIP3   OH215617   5.867   6.369   4.882
 5218TIP3    H115618   5.936   6.303   4.880
 5218TIP3    H215619   5.866   6.401   4.972
 5219TIP3   OH215620   6.477   0.097   3.025
 5219TIP3    H115621   6.406   0.159   3.013
 5219TIP3    H215622   6.557   0.150   3.019
 5220TIP3   OH215623   0.161   2.231   4.869
 5220TIP3    H115624   0.222   2.246   4.796
 5220TIP3    H215625   0.123   2.145   4.851
 5221TIP3   OH215626   5.719   0.276   5.786
 5221TIP3    H115627   5.677   0.200   5.745
 5221TIP3    H215628   5.710   0.346   5.722
 5222TIP3   OH215629   0.125   5.013   1.266
 5222TIP3    H115630   0.217   5.027   1.284
 5222TIP3    H215631   0.123   4.934   1.212
 5223TIP3   OH215632   5.114   3.106   1.991
 5223TIP3    H115633   5.022   3.084   2.005
 5223TIP3    H215634   5.154   3.100   2.078
 5224TIP3   OH215635   2.975   0.726   4.814
 5224TIP3    H115636   2.971   0.701   4.722
 5224TIP3    H215637   3.014   0.813   4.814
 5225TIP3   OH215638   5.786   1.641   3.769
 5225TIP3    H115639   5.769   1.723   3.722
 5225TIP3    H215640   5.727   1.577   3.729
 5226TIP3   OH215641   1.559   6.538   1.244
 5226TIP3    H115642   1.578   6.444   1.237
 5226TIP3    H215643   1.621   6.570   1.309
 5227TIP3   OH215644   4.544   1.356   2.787
 5227TIP3    H115645   4.554   1.425   2.721
 5227TIP3    H215646   4.450   1.354   2.805
 5228TIP3   OH215647   6.344   6.316   5.294
 5228TIP3    H115648   6.435   6.300   5.268
 5228TIP3    H215649   6.352   6.369   5.374
 5229TIP3   OH215650   6.921   5.873   3.794
 5229TIP3    H115651   6.984   5.909   3.732
 5229TIP3    H215652   6.970   5.869   3.877
 5230TIP3   OH215653   4.458   0.915   2.921
 5230TIP3    H115654   4.489   0.831   2.954
 5230TIP3    H215655   4.512   0.932   2.844
 5231TIP3   OH215656   0.434   4.137   3.152
 5231TIP3    H115657   0.418   4.221   3.109
 5231TIP3    H215658   0.474   4.159   3.236
 5232TIP3   OH215659   4.142   6.694   4.934
 5232TIP3    H115660   4.061   6.745   4.930
 5232TIP3    H215661   4.176   6.696   4.845
 5233TIP3   OH215662   2.975   2.363   2.787
 5233TIP3    H115663   2.944   2.408   2.709
 5233TIP3    H215664   2.958   2.424   2.858
 5234TIP3   OH215665   6.878   1.131   2.323
 5234TIP3    H115666   6.808   1.179   2.369
 5234TIP3    H215667   6.894   1.055   2.378
 5235TIP3   OH215668   6.674   6.178   5.866
 5235TIP3    H115669   6.580   6.167   5.853
 5235TIP3    H215670   6.699   6.107   5.924
 5236TIP3   OH215671   2.907   0.845   3.997
 5236TIP3    H115672   2.933   0.935   4.016
 5236TIP3    H215673   2.857   0.851   3.916
 5237TIP3   OH215674   0.391   0.929   0.576
 5237TIP3    H115675   0.332   1.003   0.585
 5237TIP3    H215676   0.445   0.932   0.655
 5238TIP3   OH215677   0.380   5.399   3.925
 5238TIP3    H115678   0.359   5.334   3.992
 5238TIP3    H215679   0.330   5.477   3.951
 5239TIP3   OH215680   3.876   5.022   3.720
 5239TIP3    H115681   3.872   4.939   3.673
 5239TIP3    H215682   3.819   5.010   3.795
 5240TIP3   OH215683   6.355   4.452   1.734
 5240TIP3    H115684   6.335   4.388   1.803
 5240TIP3    H215685   6.416   4.513   1.775
 5241TIP3   OH215686   7.147   2.721   0.917
 5241TIP3    H115687   7.234   2.733   0.955
 5241TIP3    H215688   7.158   2.741   0.824
 5242TIP3   OH215689   5.749   3.551   3.521
 5242TIP3    H115690   5.842   3.528   3.527
 5242TIP3    H215691   5.709   3.480   3.471
 5243TIP3   OH215692   0.811   6.296   5.860
 5243TIP3    H115693   0.809   6.225   5.795
 5243TIP3    H215694   0.724   6.336   5.854
 5244TIP3   OH215695   2.895   0.603   1.573
 5244TIP3    H115696   2.941   0.585   1.492
 5244TIP3    H215697   2.944   0.675   1.613
 5245TIP3   OH215698   5.335   6.510   5.758
 5245TIP3    H115699   5.323   6.604   5.773
 5245TIP3    H215700   5.399   6.484   5.824
 5246TIP3   OH215701   2.973   4.435   3.781
 5246TIP3    H115702   2.946   4.368   3.844
 5246TIP3    H215703   2.985   4.514   3.834
 5247TIP3   OH215704   4.110   0.768   5.622
 5247TIP3    H115705   4.015   0.769   5.609
 5247TIP3    H215706   4.146   0.801   5.539
 5248TIP3   OH215707   5.402   5.141   0.955
 5248TIP3    H115708   5.378   5.141   0.863
 5248TIP3    H215709   5.422   5.233   0.975
 5249TIP3   OH215710   0.069   4.221   0.509
 5249TIP3    H115711   0.070   4.134   0.548
 5249TIP3    H215712  -0.016   4.257   0.535
 5250TIP3   OH215713   6.984   0.278   4.729
 5250TIP3    H115714   6.909   0.224   4.755
 5250TIP3    H215715   6.961   0.366   4.759
 5251TIP3   OH215716   3.895   6.570   5.784
 5251TIP3    H115717   3.822   6.620   5.819
 5251TIP3    H215718   3.973   6.613   5.821
 5252TIP3   OH215719   2.135   1.000   1.669
 5252TIP3    H115720   2.040   0.991   1.667
 5252TIP3    H215721   2.162   0.950   1.746
 5253TIP3   OH215722   6.813   1.649   5.310
 5253TIP3    H115723   6.718   1.657   5.306
 5253TIP3    H215724   6.838   1.620   5.222
 5254TIP3   OH215725   0.291   4.752   5.298
 5254TIP3    H115726   0.203   4.755   5.336
 5254TIP3    H215727   0.316   4.660   5.301
 5255TIP3   OH215728   0.021   1.399   4.491
 5255TIP3    H115729   0.044   1.308   4.508
 5255TIP3    H215730   0.104   1.446   4.492
 5256TIP3   OH215731   1.284   5.978   3.019
 5256TIP3    H115732   1.311   5.894   3.053
 5256TIP3    H215733   1.189   5.969   3.006
 5257TIP3   OH215734   4.187   4.203   1.351
 5257TIP3    H115735   4.144   4.119   1.338
 5257TIP3    H215736   4.240   4.191   1.430
 5258TIP3   OH215737   1.543   0.699   2.524
 5258TIP3    H115738   1.568   0.768   2.463
 5258TIP3    H215739   1.611   0.632   2.514
 5259TIP3   OH215740   5.406   5.512   5.118
 5259TIP3    H115741   5.444   5.512   5.030
 5259TIP3    H215742   5.340   5.443   5.115
 5260TIP3   OH215743   6.097   4.632   0.724
 5260TIP3    H115744   6.005   4.606   0.728
 5260TIP3    H215745   6.108   4.669   0.636
 5261TIP3   OH215746   1.794   0.551   4.083
 5261TIP3    H115747   1.745   0.619   4.130
 5261TIP3    H215748   1.728   0.485   4.060
 5262TIP3   OH215749   6.086   3.262   1.936
 5262TIP3    H115750   6.054   3.181   1.975
 5262TIP3    H215751   6.017   3.326   1.952
 5263TIP3   OH215752   3.136   3.777   1.189
 5263TIP3    H115753   3.067   3.711   1.192
 5263TIP3    H215754   3.158   3.793   1.281
 5264TIP3   OH215755   2.154   0.433   2.899
 5264TIP3    H115756   2.216   0.399   2.833
 5264TIP3    H215757   2.104   0.357   2.926
 5265TIP3   OH215758   6.029   0.572   4.893
 5265TIP3    H115759   6.109   0.602   4.937
 5265TIP3    H215760   6.060   0.504   4.833
 5266TIP3   OH215761   0.888   4.648   5.054
 5266TIP3    H115762   0.916   4.599   5.131
 5266TIP3    H215763   0.969   4.686   5.019
 5267TIP3   OH215764   3.518   6.752   4.862
 5267TIP3    H115765   3.484   6.767   4.950
 5267TIP3    H215766   3.565   6.833   4.841
 5268TIP3   OH215767   1.391   1.350   5.009
 5268TIP3    H115768   1.477   1.330   5.045
 5268TIP3    H215769   1.398   1.441   4.981
 5269TIP3   OH215770   6.065   3.151   1.632
 5269TIP3    H115771   6.081   3.156   1.538
 5269TIP3    H215772   6.151   3.163   1.672
 5270TIP3   OH215773   3.490   2.564   2.490
 5270TIP3    H115774   3.465   2.477   2.460
 5270TIP3    H215775   3.464   2.566   2.582
 5271TIP3   OH215776   6.392   1.660   0.859
 5271TIP3    H115777   6.447   1.737   0.874
 5271TIP3    H215778   6.436   1.613   0.788
 5272TIP3   OH215779   5.289   2.951   2.167
 5272TIP3    H115780   5.371   2.999   2.154
 5272TIP3    H215781   5.300   2.871   2.115
 5273TIP3   OH215782   0.418   3.857   0.327
 5273TIP3    H115783   0.343   3.888   0.275
 5273TIP3    H215784   0.415   3.762   0.319
 5274TIP3   OH215785   6.926   5.890   3.413
 5274TIP3    H115786   6.994   5.839   3.457
 5274TIP3    H215787   6.973   5.962   3.372
 5275TIP3   OH215788   0.861   2.282   2.504
 5275TIP3    H115789   0.862   2.307   2.597
 5275TIP3    H215790   0.774   2.309   2.474
 5276TIP3   OH215791   5.910   2.757   0.793
 5276TIP3    H115792   5.919   2.720   0.881
 5276TIP3    H215793   5.956   2.695   0.737
 5277TIP3   OH215794   1.967   4.430   0.730
 5277TIP3    H115795   2.050   4.440   0.777
 5277TIP3    H215796   1.926   4.517   0.737
 5278TIP3   OH215797   1.503   4.776   5.442
 5278TIP3    H115798   1.426   4.769   5.385
 5278TIP3    H215799   1.576   4.789   5.381
 5279TIP3   OH215800   4.619   1.952   3.931
 5279TIP3    H115801   4.584   1.964   4.020
 5279TIP3    H215802   4.660   2.036   3.910
 5280TIP3   OH215803   3.831   3.298   1.153
 5280TIP3    H115804   3.745   3.324   1.186
 5280TIP3    H215805   3.876   3.381   1.135
 5281TIP3   OH215806   6.676   2.163   0.526
 5281TIP3    H115807   6.634   2.097   0.581
 5281TIP3    H215808   6.751   2.118   0.487
 5282TIP3   OH215809   0.079   0.493   2.240
 5282TIP3    H115810   0.050   0.498   2.331
 5282TIP3    H215811   0.165   0.535   2.239
 5283TIP3   OH215812   3.416   4.690   0.721
 5283TIP3    H115813   3.367   4.769   0.744
 5283TIP3    H215814   3.397   4.677   0.628
 5284TIP3   OH215815   7.053   4.250   0.654
 5284TIP3    H115816   7.123   4.282   0.711
 5284TIP3    H215817   7.005   4.187   0.708
 5285TIP3   OH215818   5.391   1.708   0.550
 5285TIP3    H115819   5.305   1.749   0.560
 5285TIP3    H215820   5.452   1.771   0.588
 5286TIP3   OH215821   5.848   4.042   5.002
 5286TIP3    H115822   5.885   3.978   4.941
 5286TIP3    H215823   5.780   4.086   4.952
 5287TIP3   OH215824   5.921   2.200   2.277
 5287TIP3    H115825   5.985   2.155   2.332
 5287TIP3    H215826   5.944   2.174   2.188
 5288TIP3   OH215827   2.796   3.665   2.034
 5288TIP3    H115828   2.862   3.720   1.992
 5288TIP3    H215829   2.834   3.642   2.119
 5289TIP3   OH215830   0.588   3.416   0.796
 5289TIP3    H115831   0.535   3.482   0.751
 5289TIP3    H215832   0.524   3.356   0.834
 5290TIP3   OH215833   0.695   5.254   5.070
 5290TIP3    H115834   0.768   5.191   5.066
 5290TIP3    H215835   0.647   5.240   4.988
 5291TIP3   OH215836   0.899   2.106   0.585
 5291TIP3    H115837   0.859   2.190   0.604
 5291TIP3    H215838   0.828   2.042   0.599
 5292TIP3   OH215839   0.395   6.344   4.861
 5292TIP3    H115840   0.370   6.293   4.784
 5292TIP3    H215841   0.452   6.413   4.827
 5293TIP3   OH215842   6.277   2.713   4.720
 5293TIP3    H115843   6.242   2.800   4.741
 5293TIP3    H215844   6.341   2.729   4.650
 5294TIP3   OH215845   5.708   1.639   1.555
 5294TIP3    H115846   5.671   1.583   1.624
 5294TIP3    H215847   5.760   1.580   1.501
 5295TIP3   OH215848   4.716   5.238   1.464
 5295TIP3    H115849   4.744   5.150   1.438
 5295TIP3    H215850   4.623   5.241   1.443
 5296TIP3   OH215851   6.967   1.364   2.753
 5296TIP3    H115852   6.909   1.377   2.828
 5296TIP3    H215853   7.042   1.316   2.789
 5297TIP3   OH215854   2.355   1.090   4.806
 5297TIP3    H115855   2.440   1.112   4.843
 5297TIP3    H215856   2.354   1.131   4.720
 5298TIP3   OH215857   0.858   4.341   4.020
 5298TIP3    H115858   0.849   4.425   4.065
 5298TIP3    H215859   0.924   4.357   3.953
 5299TIP3   OH215860   1.883   1.953   4.813
 5299TIP3    H115861   1.866   1.966   4.907
 5299TIP3    H215862   1.877   2.040   4.775
 5300TIP3   OH215863   2.441   0.215   0.496
 5300TIP3    H115864   2.416   0.304   0.472
 5300TIP3    H215865   2.535   0.220   0.510
 5301TIP3   OH215866   4.677   5.319   3.808
 5301TIP3    H115867   4.705   5.410   3.796
 5301TIP3    H215868   4.733   5.286   3.877
 5302TIP3   OH215869   5.001   6.019   2.223
 5302TIP3    H115870   4.914   6.026   2.263
 5302TIP3    H215871   5.005   5.930   2.189
 5303TIP3   OH215872   0.520   3.867   3.428
 5303TIP3    H115873   0.535   3.894   3.519
 5303TIP3    H215874   0.587   3.913   3.378
 5304TIP3   OH215875   5.410   2.257   2.132
 5304TIP3    H115876   5.437   2.278   2.221
 5304TIP3    H215877   5.483   2.205   2.097
 5305TIP3   OH215878   0.370   6.289   1.391
 5305TIP3    H115879   0.401   6.318   1.476
 5305TIP3    H215880   0.391   6.196   1.388
 5306TIP3   OH215881   7.046   6.187   5.415
 5306TIP3    H115882   6.998   6.119   5.366
 5306TIP3    H215883   7.071   6.251   5.348
 5307TIP3   OH215884   5.191   4.463   4.156
 5307TIP3    H115885   5.257   4.428   4.096
 5307TIP3    H215886   5.109   4.458   4.106
 5308TIP3   OH215887   5.389   1.092   4.792
 5308TIP3    H115888   5.436   1.089   4.875
 5308TIP3    H215889   5.313   1.035   4.805
 5309TIP3   OH215890   7.113   4.916   0.239
 5309TIP3    H115891   7.119   4.990   0.300
 5309TIP3    H215892   7.024   4.884   0.248
 5310TIP3   OH215893   7.185   0.608   3.012
 5310TIP3    H115894   7.169   0.701   3.032
 5310TIP3    H215895   7.158   0.562   3.091
 5311TIP3   OH215896   6.835   6.097   4.614
 5311TIP3    H115897   6.903   6.161   4.592
 5311TIP3    H215898   6.774   6.144   4.670
 5312TIP3   OH215899   1.717   2.488   5.838
 5312TIP3    H115900   1.811   2.506   5.832
 5312TIP3    H215901   1.676   2.574   5.832
 5313TIP3   OH215902   0.898   1.927   1.166
 5313TIP3    H115903   0.873   1.865   1.097
 5313TIP3    H215904   0.952   1.875   1.226
 5314TIP3   OH215905   0.315   0.365   5.865
 5314TIP3    H115906   0.274   0.379   5.950
 5314TIP3    H215907   0.409   0.374   5.882
 5315TIP3   OH215908   1.984   5.708   3.329
 5315TIP3    H115909   1.906   5.659   3.355
 5315TIP3    H215910   1.957   5.755   3.250
 5316TIP3   OH215911   3.310   4.113   4.904
 5316TIP3    H115912   3.353   4.145   4.983
 5316TIP3    H215913   3.262   4.035   4.932
 5317TIP3   OH215914   2.004   4.632   4.568
 5317TIP3    H115915   1.983   4.716   4.529
 5317TIP3    H215916   2.092   4.644   4.605
 5318TIP3   OH215917   6.238   2.337   0.942
 5318TIP3    H115918   6.314   2.371   0.990
 5318TIP3    H215919   6.275   2.303   0.860
 5319TIP3   OH215920   1.576   1.473   3.421
 5319TIP3    H115921   1.507   1.434   3.475
 5319TIP3    H215922   1.559   1.440   3.333
 5320TIP3   OH215923   2.081   4.757   2.761
 5320TIP3    H115924   2.090   4.852   2.760
 5320TIP3    H215925   2.039   4.738   2.845
 5321TIP3   OH215926   2.381   6.159   5.765
 5321TIP3    H115927   2.336   6.231   5.721
 5321TIP3    H215928   2.323   6.135   5.837
 5322TIP3   OH215929   6.499   6.261   0.806
 5322TIP3    H115930   6.478   6.215   0.724
 5322TIP3    H215931   6.586   6.229   0.830
 5323TIP3   OH215932   5.368   0.117   5.396
 5323TIP3    H115933   5.435   0.125   5.465
 5323TIP3    H215934   5.411   0.070   5.325
 5324TIP3   OH215935   3.256   4.875   5.616
 5324TIP3    H115936   3.271   4.808   5.681
 5324TIP3    H215937   3.162   4.871   5.598
 5325TIP3   OH215938   5.549   1.813   2.782
 5325TIP3    H115939   5.501   1.744   2.827
 5325TIP3    H215940   5.516   1.812   2.693
 5326TIP3   OH215941   3.442   4.681   0.997
 5326TIP3    H115942   3.530   4.646   1.010
 5326TIP3    H215943   3.428   4.678   0.903
 5327TIP3   OH215944   4.190   4.157   0.175
 5327TIP3    H115945   4.262   4.173   0.236
 5327TIP3    H215946   4.218   4.198   0.093
 5328TIP3   OH215947   4.019   2.940   5.839
 5328TIP3    H115948   3.936   2.945   5.792
 5328TIP3    H215949   4.009   3.002   5.912
 5329TIP3   OH215950   5.379   0.083   2.895
 5329TIP3    H115951   5.454   0.142   2.892
 5329TIP3    H215952   5.394   0.020   2.824
 5330TIP3   OH215953   6.185   6.083   3.193
 5330TIP3    H115954   6.181   6.070   3.287
 5330TIP3    H215955   6.278   6.095   3.174
 5331TIP3   OH215956   5.253   2.682   3.289
 5331TIP3    H115957   5.328   2.676   3.348
 5331TIP3    H215958   5.225   2.591   3.276
 5332TIP3   OH215959   2.256   5.344   2.779
 5332TIP3    H115960   2.196   5.380   2.844
 5332TIP3    H215961   2.205   5.278   2.732
 5333TIP3   OH215962   5.834   1.419   5.872
 5333TIP3    H115963   5.780   1.418   5.793
 5333TIP3    H215964   5.772   1.421   5.944
 5334TIP3   OH215965   1.285   5.877   4.931
 5334TIP3    H115966   1.221   5.811   4.905
 5334TIP3    H215967   1.240   5.960   4.918
 5335TIP3   OH215968   5.829   2.789   5.807
 5335TIP3    H115969   5.808   2.825   5.720
 5335TIP3    H215970   5.903   2.730   5.792
 5336TIP3   OH215971   4.180   3.783   2.683
 5336TIP3    H115972   4.092   3.797   2.649
 5336TIP3    H215973   4.167   3.752   2.773
 5337TIP3   OH215974   3.699   1.546   3.430
 5337TIP3    H115975   3.747   1.624   3.403
 5337TIP3    H215976   3.616   1.579   3.465
 5338TIP3   OH215977   1.976   3.972   4.279
 5338TIP3    H115978   1.946   3.956   4.369
 5338TIP3    H215979   2.029   4.051   4.286
 5339TIP3   OH215980   0.684   5.613   2.907
 5339TIP3    H115981   0.600   5.634   2.947
 5339TIP3    H215982   0.671   5.623   2.813
 5340TIP3   OH215983   4.326   5.006   5.419
 5340TIP3    H115984   4.326   4.945   5.345
 5340TIP3    H215985   4.244   5.054   5.411
 5341TIP3   OH215986   3.190   1.305   0.514
 5341TIP3    H115987   3.165   1.348   0.595
 5341TIP3    H215988   3.150   1.358   0.445
 5342TIP3   OH215989   7.227   5.749   5.129
 5342TIP3    H115990   7.144   5.792   5.109
 5342TIP3    H215991   7.206   5.656   5.127
 5343TIP3   OH215992   6.889   3.350   1.922
 5343TIP3    H115993   6.962   3.301   1.884
 5343TIP3    H215994   6.900   3.338   2.017
 5344TIP3   OH215995   5.585   2.716   2.335
 5344TIP3    H115996   5.503   2.720   2.383
 5344TIP3    H215997   5.652   2.737   2.400
 5345TIP3   OH215998   2.444   5.654   3.634
 5345TIP3    H115999   2.356   5.689   3.618
 5345TIP3    H216000   2.454   5.585   3.569
 5346TIP3   OH216001   2.049   6.657   5.713
 5346TIP3    H116002   2.085   6.571   5.695
 5346TIP3    H216003   1.969   6.661   5.660
 5347TIP3   OH216004   1.540   4.895   3.879
 5347TIP3    H116005   1.561   4.801   3.884
 5347TIP3    H216006   1.574   4.922   3.794
 5348TIP3   OH216007   4.613   2.497   5.618
 5348TIP3    H116008   4.607   2.446   5.698
 5348TIP3    H216009   4.694   2.467   5.577
 5349TIP3   OH216010   6.163   2.954   4.739
 5349TIP3    H116011   6.114   3.004   4.674
 5349TIP3    H216012   6.140   2.994   4.823
 5350TIP3   OH216013   0.048   4.478   2.597
 5350TIP3    H116014   0.120   4.539   2.611
 5350TIP3    H216015   0.083   4.393   2.623
 5351TIP3   OH216016   5.787   5.814   3.972
 5351TIP3    H116017   5.834   5.764   4.038
 5351TIP3    H216018   5.746   5.748   3.916
 5352TIP3   OH216019   6.691   0.366   4.610
 5352TIP3    H116020   6.675   0.321   4.692
 5352TIP3    H216021   6.746   0.306   4.560
 5353TIP3   OH216022   4.597   5.295   4.815
 5353TIP3    H116023   4.678   5.251   4.840
 5353TIP3    H216024   4.626   5.375   4.771
 5354TIP3   OH216025   1.102   0.790   1.358
 5354TIP3    H116026   1.022   0.824   1.397
 5354TIP3    H216027   1.100   0.696   1.375
 5355TIP3   OH216028   2.248   0.890   0.625
 5355TIP3    H116029   2.282   0.977   0.606
 5355TIP3    H216030   2.208   0.862   0.543
 5356TIP3   OH216031   2.458   6.539   1.911
 5356TIP3    H116032   2.400   6.613   1.891
 5356TIP3    H216033   2.523   6.541   1.841
 5357TIP3   OH216034   3.428   4.841   2.888
 5357TIP3    H116035   3.390   4.888   2.814
 5357TIP3    H216036   3.513   4.811   2.856
 5358TIP3   OH216037   0.320   5.363   1.218
 5358TIP3    H116038   0.409   5.388   1.194
 5358TIP3    H216039   0.267   5.442   1.202
 5359TIP3   OH216040   0.379   0.941   5.614
 5359TIP3    H116041   0.326   0.997   5.671
 5359TIP3    H216042   0.315   0.886   5.569
 5360TIP3   OH216043   4.572   5.108   1.884
 5360TIP3    H116044   4.484   5.080   1.862
 5360TIP3    H216045   4.589   5.183   1.826
 5361TIP3   OH216046   2.966   6.730   3.128
 5361TIP3    H116047   2.949   6.775   3.045
 5361TIP3    H216048   2.979   6.801   3.192
 5362TIP3   OH216049   2.448   2.931   0.495
 5362TIP3    H116050   2.364   2.890   0.477
 5362TIP3    H216051   2.489   2.939   0.409
 5363TIP3   OH216052   6.737   6.543   2.628
 5363TIP3    H116053   6.728   6.524   2.534
 5363TIP3    H216054   6.789   6.471   2.662
 5364TIP3   OH216055   7.197   0.333   5.568
 5364TIP3    H116056   7.273   0.358   5.516
 5364TIP3    H216057   7.177   0.411   5.621
 5365TIP3   OH216058   3.209   4.268   4.008
 5365TIP3    H116059   3.199   4.214   3.930
 5365TIP3    H216060   3.142   4.234   4.068
 5366TIP3   OH216061   1.344   2.105   4.872
 5366TIP3    H116062   1.426   2.149   4.849
 5366TIP3    H216063   1.367   2.012   4.874
 5367TIP3   OH216064   5.377   4.955   5.265
 5367TIP3    H116065   5.321   4.898   5.319
 5367TIP3    H216066   5.433   5.000   5.329
 5368TIP3   OH216067   0.176   3.581   1.207
 5368TIP3    H116068   0.098   3.549   1.162
 5368TIP3    H216069   0.236   3.607   1.137
 5369TIP3   OH216070   3.397   5.815   3.077
 5369TIP3    H116071   3.424   5.875   3.146
 5369TIP3    H216072   3.478   5.793   3.031
 5370TIP3   OH216073   1.675   2.470   0.471
 5370TIP3    H116074   1.588   2.499   0.499
 5370TIP3    H216075   1.671   2.374   0.475
 5371TIP3   OH216076   4.622   0.620   5.649
 5371TIP3    H116077   4.531   0.632   5.678
 5371TIP3    H216078   4.662   0.706   5.658
 5372TIP3   OH216079   5.452  -0.031   3.479
 5372TIP3    H116080   5.426  -0.001   3.566
 5372TIP3    H216081   5.424   0.040   3.421
 5373TIP3   OH216082   3.722   2.322   2.250
 5373TIP3    H116083   3.685   2.394   2.197
 5373TIP3    H216084   3.691   2.339   2.339
 5374TIP3   OH216085   5.744   1.866   1.025
 5374TIP3    H116086   5.722   1.952   1.061
 5374TIP3    H216087   5.832   1.848   1.059
 5375TIP3   OH216088   5.735   4.175   2.636
 5375TIP3    H116089   5.828   4.165   2.613
 5375TIP3    H216090   5.691   4.103   2.591
 5376TIP3   OH216091   6.969   1.421   4.550
 5376TIP3    H116092   6.944   1.504   4.509
 5376TIP3    H216093   7.064   1.421   4.548
 5377TIP3   OH216094   6.733   5.402   2.120
 5377TIP3    H116095   6.783   5.427   2.042
 5377TIP3    H216096   6.655   5.360   2.086
 5378TIP3   OH216097   4.746   5.721   1.253
 5378TIP3    H116098   4.738   5.638   1.208
 5378TIP3    H216099   4.839   5.741   1.251
 5379TIP3   OH216100   6.076   3.477   3.501
 5379TIP3    H116101   6.013   3.408   3.522
 5379TIP3    H216102   6.119   3.496   3.584
 5380TIP3   OH216103   6.454   2.027   2.003
 5380TIP3    H116104   6.392   1.964   2.040
 5380TIP3    H216105   6.526   1.974   1.969
 5381TIP3   OH216106   6.175   1.877   5.631
 5381TIP3    H116107   6.080   1.879   5.616
 5381TIP3    H216108   6.184   1.879   5.726
 5382TIP3   OH216109   6.389   0.909   3.578
 5382TIP3    H116110   6.438   0.944   3.503
 5382TIP3    H216111   6.409   0.968   3.650
 5383TIP3   OH216112   1.901   2.613   3.773
 5383TIP3    H116113   1.974   2.601   3.833
 5383TIP3    H216114   1.942   2.618   3.686
 5384TIP3   OH216115   1.069   4.357   5.832
 5384TIP3    H116116   1.091   4.275   5.877
 5384TIP3    H216117   1.068   4.333   5.739
 5385TIP3   OH216118   3.653   4.916   1.419
 5385TIP3    H116119   3.719   4.858   1.457
 5385TIP3    H216120   3.677   4.922   1.327
 5386TIP3   OH216121   5.522   0.867   0.715
 5386TIP3    H116122   5.511   0.773   0.702
 5386TIP3    H216123   5.437   0.905   0.689
 5387TIP3   OH216124   6.243   2.407   5.096
 5387TIP3    H116125   6.262   2.501   5.095
 5387TIP3    H216126   6.264   2.379   5.185
 5388TIP3   OH216127   2.009   3.765   1.084
 5388TIP3    H116128   1.960   3.843   1.110
 5388TIP3    H216129   2.095   3.776   1.124
 5389TIP3   OH216130   0.302   3.588   0.390
 5389TIP3    H116131   0.331   3.523   0.327
 5389TIP3    H216132   0.219   3.554   0.423
 5390TIP3   OH216133   1.593   3.814   5.076
 5390TIP3    H116134   1.688   3.799   5.080
 5390TIP3    H216135   1.557   3.759   5.145
 5391TIP3   OH216136   2.754   3.083   0.210
 5391TIP3    H116137   2.676   3.100   0.262
 5391TIP3    H216138   2.736   3.122   0.125
 5392TIP3   OH216139   5.016   3.269   2.500
 5392TIP3    H116140   5.077   3.342   2.511
 5392TIP3    H216141   4.950   3.301   2.439
 5393TIP3   OH216142   3.094   4.212   3.301
 5393TIP3    H116143   3.041   4.195   3.223
 5393TIP3    H216144   3.095   4.307   3.308
 5394TIP3   OH216145   2.000   3.649   2.849
 5394TIP3    H116146   2.001   3.659   2.944
 5394TIP3    H216147   2.007   3.554   2.836
 5395TIP3   OH216148   5.506   3.576   5.401
 5395TIP3    H116149   5.459   3.618   5.329
 5395TIP3    H216150   5.498   3.638   5.474
 5396TIP3   OH216151   0.570   1.659   2.116
 5396TIP3    H116152   0.618   1.582   2.146
 5396TIP3    H216153   0.599   1.729   2.174
 5397TIP3   OH216154   5.455   2.132   1.270
 5397TIP3    H116155   5.403   2.172   1.200
 5397TIP3    H216156   5.393   2.076   1.317
 5398TIP3   OH216157   5.302   1.445   0.199
 5398TIP3    H116158   5.385   1.472   0.241
 5398TIP3    H216159   5.303   1.350   0.204
 5399TIP3   OH216160   3.010   6.103   2.264
 5399TIP3    H116161   3.053   6.092   2.179
 5399TIP3    H216162   3.065   6.166   2.310
 5400TIP3   OH216163   4.700   1.439   3.491
 5400TIP3    H116164   4.709   1.458   3.397
 5400TIP3    H216165   4.683   1.345   3.495
 5401TIP3   OH216166   0.161   3.703   5.190
 5401TIP3    H116167   0.078   3.656   5.199
 5401TIP3    H216168   0.174   3.744   5.276
 5402TIP3   OH216169   5.300   3.046   0.839
 5402TIP3    H116170   5.356   3.117   0.869
 5402TIP3    H216171   5.357   2.969   0.839
 5403TIP3   OH216172   4.665   2.767   0.476
 5403TIP3    H116173   4.619   2.835   0.427
 5403TIP3    H216174   4.641   2.685   0.433
 5404TIP3   OH216175   1.897   2.155   0.244
 5404TIP3    H116176   1.858   2.077   0.205
 5404TIP3    H216177   1.917   2.211   0.169
 5405TIP3   OH216178   6.176   4.510   4.832
 5405TIP3    H116179   6.131   4.450   4.773
 5405TIP3    H216180   6.191   4.588   4.779
 5406TIP3   OH216181   5.582   5.521   1.509
 5406TIP3    H116182   5.616   5.515   1.598
 5406TIP3    H216183   5.518   5.592   1.512
 5407TIP3   OH216184   2.121   3.477   3.948
 5407TIP3    H116185   2.148   3.459   3.858
 5407TIP3    H216186   2.166   3.558   3.970
 5408TIP3   OH216187   0.578   6.828   1.393
 5408TIP3    H116188   0.623   6.769   1.332
 5408TIP3    H216189   0.495   6.784   1.412
 5409TIP3   OH216190   5.150   5.324   3.777
 5409TIP3    H116191   5.077   5.309   3.716
 5409TIP3    H216192   5.125   5.404   3.824
 5410TIP3   OH216193   2.014   6.067   0.832
 5410TIP3    H116194   2.039   6.017   0.910
 5410TIP3    H216195   2.090   6.059   0.774
 5411TIP3   OH216196   6.366   6.413   4.246
 5411TIP3    H116197   6.394   6.375   4.329
 5411TIP3    H216198   6.337   6.501   4.269
 5412TIP3   OH216199   3.033   3.341   4.265
 5412TIP3    H116200   3.046   3.264   4.320
 5412TIP3    H216201   2.942   3.333   4.234
 5413TIP3   OH216202   6.552   5.908   5.845
 5413TIP3    H116203   6.463   5.872   5.842
 5413TIP3    H216204   6.608   5.833   5.825
 5414TIP3   OH216205   5.507   0.259   4.541
 5414TIP3    H116206   5.479   0.257   4.633
 5414TIP3    H216207   5.600   0.278   4.545
 5415TIP3   OH216208   3.694   6.004   5.566
 5415TIP3    H116209   3.712   5.911   5.556
 5415TIP3    H216210   3.602   6.008   5.591
 5416TIP3   OH216211   2.543   3.325   1.318
 5416TIP3    H116212   2.552   3.403   1.265
 5416TIP3    H216213   2.494   3.264   1.263
 5417TIP3   OH216214   6.136   6.309   2.369
 5417TIP3    H116215   6.148   6.398   2.336
 5417TIP3    H216216   6.182   6.307   2.453
 5418TIP3   OH216217   4.027   4.173   0.764
 5418TIP3    H116218   3.961   4.185   0.695
 5418TIP3    H216219   4.089   4.111   0.727
 5419TIP3   OH216220   0.410   5.559   2.988
 5419TIP3    H116221   0.357   5.583   2.913
 5419TIP3    H216222   0.420   5.464   2.982
 5420TIP3   OH216223   6.264   3.128   4.321
 5420TIP3    H116224   6.340   3.186   4.321
 5420TIP3    H216225   6.245   3.114   4.228
 5421TIP3   OH216226   4.061   5.313   1.812
 5421TIP3    H116227   4.099   5.375   1.751
 5421TIP3    H216228   4.005   5.256   1.758
 5422TIP3   OH216229   6.522   3.554   4.277
 5422TIP3    H116230   6.597   3.611   4.260
 5422TIP3    H216231   6.485   3.536   4.190
 5423TIP3   OH216232   4.051   5.575   2.715
 5423TIP3    H116233   4.145   5.572   2.699
 5423TIP3    H216234   4.011   5.547   2.633
 5424TIP3   OH216235   3.458   0.820   2.120
 5424TIP3    H116236   3.549   0.810   2.092
 5424TIP3    H216237   3.443   0.915   2.120
 5425TIP3   OH216238   4.437   3.071   2.418
 5425TIP3    H116239   4.360   3.016   2.419
 5425TIP3    H216240   4.403   3.160   2.425
 5426TIP3   OH216241   5.175   6.824   0.203
 5426TIP3    H116242   5.084   6.831   0.234
 5426TIP3    H216243   5.186   6.730   0.185
 5427TIP3   OH216244   3.239   2.453   1.967
 5427TIP3    H116245   3.147   2.481   1.960
 5427TIP3    H216246   3.247   2.380   1.906
 5428TIP3   OH216247   0.835   0.145   2.551
 5428TIP3    H116248   0.869   0.232   2.569
 5428TIP3    H216249   0.786   0.154   2.470
 5429TIP3   OH216250   0.126   2.074   2.316
 5429TIP3    H116251   0.215   2.045   2.334
 5429TIP3    H216252   0.128   2.102   2.225
 5430TIP3   OH216253   2.519   0.056   5.028
 5430TIP3    H116254   2.579  -0.007   5.067
 5430TIP3    H216255   2.549   0.141   5.060
 5431TIP3   OH216256   6.988   4.441   1.792
 5431TIP3    H116257   6.904   4.439   1.745
 5431TIP3    H216258   6.979   4.512   1.855
 5432TIP3   OH216259   2.419   3.219   4.361
 5432TIP3    H116260   2.394   3.287   4.299
 5432TIP3    H216261   2.350   3.153   4.354
 5433TIP3   OH216262   5.830   5.586   1.686
 5433TIP3    H116263   5.816   5.538   1.768
 5433TIP3    H216264   5.866   5.521   1.626
 5434TIP3   OH216265   5.304   4.057   3.642
 5434TIP3    H116266   5.262   4.030   3.724
 5434TIP3    H216267   5.363   3.986   3.620
 5435TIP3   OH216268   5.302   6.826   4.057
 5435TIP3    H116269   5.336   6.765   4.123
 5435TIP3    H216270   5.230   6.871   4.101
 5436TIP3   OH216271   3.664   4.594   5.742
 5436TIP3    H116272   3.700   4.625   5.825
 5436TIP3    H216273   3.741   4.579   5.687
 5437TIP3   OH216274   6.013   0.513   4.444
 5437TIP3    H116275   6.012   0.607   4.462
 5437TIP3    H216276   6.088   0.500   4.386
 5438TIP3   OH216277   1.759   5.407   0.265
 5438TIP3    H116278   1.817   5.382   0.194
 5438TIP3    H216279   1.807   5.385   0.345
 5439TIP3   OH216280   3.221   3.777   3.367
 5439TIP3    H116281   3.182   3.795   3.281
 5439TIP3    H216282   3.312   3.755   3.348
 5440TIP3   OH216283   6.393   1.834   1.281
 5440TIP3    H116284   6.454   1.792   1.342
 5440TIP3    H216285   6.330   1.879   1.337
 5441TIP3   OH216286   4.334   2.184   5.730
 5441TIP3    H116287   4.338   2.257   5.669
 5441TIP3    H216288   4.329   2.225   5.817
 5442TIP3   OH216289   0.630   3.674   3.795
 5442TIP3    H116290   0.569   3.736   3.835
 5442TIP3    H216291   0.702   3.729   3.763
 5443TIP3   OH216292   5.550   3.687   0.169
 5443TIP3    H116293   5.597   3.763   0.206
 5443TIP3    H216294   5.463   3.721   0.149
 5444TIP3   OH216295   5.254   0.778   2.669
 5444TIP3    H116296   5.272   0.716   2.598
 5444TIP3    H216297   5.285   0.862   2.637
 5445TIP3   OH216298   2.841   6.389   0.841
 5445TIP3    H116299   2.866   6.323   0.776
 5445TIP3    H216300   2.751   6.367   0.865
 5446TIP3   OH216301   6.294   0.927   2.492
 5446TIP3    H116302   6.226   0.867   2.462
 5446TIP3    H216303   6.306   0.988   2.419
 5447TIP3   OH216304   2.284   4.922   4.217
 5447TIP3    H116305   2.230   4.991   4.256
 5447TIP3    H216306   2.230   4.886   4.147
 5448TIP3   OH216307   1.129   6.598   0.203
 5448TIP3    H116308   1.100   6.511   0.228
 5448TIP3    H216309   1.157   6.639   0.284
 5449TIP3   OH216310   2.961   1.976   1.011
 5449TIP3    H116311   3.035   1.934   0.966
 5449TIP3    H216312   2.894   1.984   0.944
 5450TIP3   OH216313   1.129   2.196   4.264
 5450TIP3    H116314   1.105   2.221   4.353
 5450TIP3    H216315   1.065   2.242   4.208
 5451TIP3   OH216316   3.973   4.738   0.970
 5451TIP3    H116317   4.028   4.753   1.046
 5451TIP3    H216318   4.024   4.770   0.896
 5452TIP3   OH216319   6.985   0.324   2.540
 5452TIP3    H116320   6.979   0.270   2.619
 5452TIP3    H216321   6.902   0.371   2.536
 5453TIP3   OH216322   2.378   6.766   2.461
 5453TIP3    H116323   2.332   6.699   2.511
 5453TIP3    H216324   2.379   6.734   2.371
 5454TIP3   OH216325   5.986   0.206   0.510
 5454TIP3    H116326   5.935   0.131   0.478
 5454TIP3    H216327   6.026   0.243   0.432
 5455TIP3   OH216328   0.381   6.449   4.487
 5455TIP3    H116329   0.343   6.385   4.547
 5455TIP3    H216330   0.350   6.422   4.401
 5456TIP3   OH216331   3.132   0.068   2.949
 5456TIP3    H116332   3.055   0.017   2.922
 5456TIP3    H216333   3.118   0.085   3.042
 5457TIP3   OH216334   4.546   4.794   2.669
 5457TIP3    H116335   4.633   4.832   2.678
 5457TIP3    H216336   4.517   4.778   2.759
 5458TIP3   OH216337   0.058   4.280   5.250
 5458TIP3    H116338   0.011   4.321   5.323
 5458TIP3    H216339   0.077   4.191   5.281
 5459TIP3   OH216340   4.266   6.729   4.446
 5459TIP3    H116341   4.343   6.745   4.391
 5459TIP3    H216342   4.222   6.655   4.404
 5460TIP3   OH216343   3.782   4.993   4.411
 5460TIP3    H116344   3.782   4.936   4.487
 5460TIP3    H216345   3.698   4.974   4.367
 5461TIP3   OH216346   4.631   3.392   0.428
 5461TIP3    H116347   4.584   3.474   0.418
 5461TIP3    H216348   4.680   3.402   0.510
 5462TIP3   OH216349   0.542   3.535   4.908
 5462TIP3    H116350   0.632   3.568   4.900
 5462TIP3    H216351   0.546   3.471   4.979
 5463TIP3   OH216352   4.704   6.000   5.806
 5463TIP3    H116353   4.783   5.946   5.803
 5463TIP3    H216354   4.730   6.082   5.764
 5464TIP3   OH216355   4.562   2.777   4.945
 5464TIP3    H116356   4.522   2.726   4.875
 5464TIP3    H216357   4.562   2.718   5.021
 5465TIP3   OH216358   2.309   1.307   3.731
 5465TIP3    H116359   2.288   1.226   3.779
 5465TIP3    H216360   2.343   1.276   3.647
 5466TIP3   OH216361   1.364   3.100   4.274
 5466TIP3    H116362   1.368   3.195   4.286
 5466TIP3    H216363   1.451   3.075   4.245
 5467TIP3   OH216364   1.426   4.729   2.192
 5467TIP3    H116365   1.480   4.701   2.266
 5467TIP3    H216366   1.336   4.723   2.224
 5468TIP3   OH216367   3.912   6.284   2.176
 5468TIP3    H116368   3.951   6.350   2.233
 5468TIP3    H216369   3.831   6.324   2.145
 5469TIP3   OH216370   0.193   6.670   4.568
 5469TIP3    H116371   0.149   6.598   4.523
 5469TIP3    H216372   0.186   6.648   4.661
 5470TIP3   OH216373   3.571   2.621   3.918
 5470TIP3    H116374   3.630   2.545   3.922
 5470TIP3    H216375   3.485   2.584   3.938
 5471TIP3   OH216376   2.532   6.306   4.050
 5471TIP3    H116377   2.519   6.372   4.118
 5471TIP3    H216378   2.469   6.237   4.070
 5472TIP3   OH216379   5.264   0.832   3.849
 5472TIP3    H116380   5.215   0.753   3.826
 5472TIP3    H216381   5.356   0.807   3.835
 5473TIP3   OH216382   7.064   4.780   2.812
 5473TIP3    H116383   6.992   4.717   2.806
 5473TIP3    H216384   7.101   4.766   2.899
 5474TIP3   OH216385   5.596   2.628   5.766
 5474TIP3    H116386   5.581   2.719   5.790
 5474TIP3    H216387   5.664   2.599   5.827
 5475TIP3   OH216388   3.236   1.231   1.243
 5475TIP3    H116389   3.265   1.318   1.270
 5475TIP3    H216390   3.245   1.177   1.322
 5476TIP3   OH216391   1.894   0.769   0.480
 5476TIP3    H116392   1.815   0.743   0.434
 5476TIP3    H216393   1.863   0.800   0.565
 5477TIP3   OH216394   1.118   3.331   5.849
 5477TIP3    H116395   1.168   3.325   5.931
 5477TIP3    H216396   1.092   3.424   5.845
 5478TIP3   OH216397   5.366   0.828   4.132
 5478TIP3    H116398   5.303   0.774   4.180
 5478TIP3    H216399   5.330   0.831   4.043
 5479TIP3   OH216400   0.696   6.592   1.555
 5479TIP3    H116401   0.768   6.654   1.558
 5479TIP3    H216402   0.684   6.565   1.646
 5480TIP3   OH216403   5.334   3.891   3.356
 5480TIP3    H116404   5.255   3.921   3.400
 5480TIP3    H216405   5.385   3.849   3.425
 5481TIP3   OH216406   6.492   3.284   0.998
 5481TIP3    H116407   6.404   3.247   0.998
 5481TIP3    H216408   6.477   3.379   1.002
 5482TIP3   OH216409   2.860   6.093   5.695
 5482TIP3    H116410   2.818   6.007   5.700
 5482TIP3    H216411   2.787   6.155   5.698
 5483TIP3   OH216412   4.038   3.892   3.983
 5483TIP3    H116413   4.032   3.878   3.889
 5483TIP3    H216414   4.131   3.877   4.003
 5484TIP3   OH216415   7.113   3.692   4.056
 5484TIP3    H116416   7.130   3.709   4.149
 5484TIP3    H216417   7.046   3.755   4.032
 5485TIP3   OH216418   2.030   6.337   1.176
 5485TIP3    H116419   2.076   6.270   1.125
 5485TIP3    H216420   1.938   6.326   1.152
 5486TIP3   OH216421   4.884   4.875   5.267
 5486TIP3    H116422   4.808   4.876   5.209
 5486TIP3    H216423   4.944   4.940   5.229
 5487TIP3   OH216424   6.602   2.431   3.334
 5487TIP3    H116425   6.669   2.368   3.361
 5487TIP3    H216426   6.549   2.384   3.269
 5488TIP3   OH216427   1.601   5.106   5.594
 5488TIP3    H116428   1.657   5.031   5.611
 5488TIP3    H216429   1.535   5.103   5.662
 5489TIP3   OH216430   6.004   5.330   4.866
 5489TIP3    H116431   6.012   5.255   4.924
 5489TIP3    H216432   6.088   5.334   4.820
 5490TIP3   OH216433   4.372   3.347   4.555
 5490TIP3    H116434   4.300   3.293   4.587
 5490TIP3    H216435   4.331   3.415   4.502
 5491TIP3   OH216436   1.769   4.317   2.629
 5491TIP3    H116437   1.817   4.335   2.710
 5491TIP3    H216438   1.709   4.392   2.620
 5492TIP3   OH216439   6.660   5.599   3.539
 5492TIP3    H116440   6.750   5.589   3.570
 5492TIP3    H216441   6.636   5.511   3.509
 5493TIP3   OH216442   4.983   3.851   1.646
 5493TIP3    H116443   5.012   3.891   1.564
 5493TIP3    H216444   5.011   3.760   1.639
 5494TIP3   OH216445   5.379   1.949   0.179
 5494TIP3    H116446   5.396   1.983   0.267
 5494TIP3    H216447   5.458   1.900   0.156
 5495TIP3   OH216448   4.927   0.866   5.630
 5495TIP3    H116449   4.942   0.951   5.671
 5495TIP3    H216450   4.832   0.863   5.616
 5496TIP3   OH216451   6.248   4.735   5.476
 5496TIP3    H116452   6.196   4.673   5.425
 5496TIP3    H216453   6.215   4.821   5.451
 5497TIP3   OH216454   4.546   6.475   0.372
 5497TIP3    H116455   4.487   6.487   0.297
 5497TIP3    H216456   4.532   6.552   0.427
 5498TIP3   OH216457   3.903   0.835   4.273
 5498TIP3    H116458   3.993   0.809   4.257
 5498TIP3    H216459   3.882   0.893   4.200
 5499TIP3   OH216460   3.774   2.655   5.749
 5499TIP3    H116461   3.831   2.681   5.678
 5499TIP3    H216462   3.692   2.703   5.734
 5500TIP3   OH216463   4.680   5.485   0.624
 5500TIP3    H116464   4.762   5.436   0.617
 5500TIP3    H216465   4.706   5.577   0.613
 5501TIP3   OH216466   1.530   0.560   0.399
 5501TIP3    H116467   1.604   0.510   0.435
 5501TIP3    H216468   1.519   0.526   0.310
 5502TIP3   OH216469   1.899   2.459   0.656
 5502TIP3    H116470   1.985   2.476   0.618
 5502TIP3    H216471   1.837   2.482   0.587
 5503TIP3   OH216472   4.155   0.408   2.929
 5503TIP3    H116473   4.145   0.492   2.884
 5503TIP3    H216474   4.172   0.346   2.858
 5504TIP3   OH216475   5.526   5.662   2.256
 5504TIP3    H116476   5.453   5.604   2.233
 5504TIP3    H216477   5.491   5.750   2.244
 5505TIP3   OH216478   3.019   6.011   3.952
 5505TIP3    H116479   3.087   6.078   3.941
 5505TIP3    H216480   2.937   6.060   3.960
 5506TIP3   OH216481   1.121   3.051   3.385
 5506TIP3    H116482   1.105   3.114   3.315
 5506TIP3    H216483   1.215   3.055   3.401
 5507TIP3   OH216484   6.185   4.298   4.073
 5507TIP3    H116485   6.106   4.309   4.021
 5507TIP3    H216486   6.189   4.204   4.093
 5508TIP3   OH216487   3.868   0.198   3.701
 5508TIP3    H116488   3.907   0.116   3.672
 5508TIP3    H216489   3.905   0.265   3.644
 5509TIP3   OH216490   6.475   6.672   2.656
 5509TIP3    H116491   6.539   6.600   2.649
 5509TIP3    H216492   6.495   6.730   2.582
 5510TIP3   OH216493   0.921   3.815   1.905
 5510TIP3    H116494   0.953   3.881   1.966
 5510TIP3    H216495   0.852   3.860   1.855
 5511TIP3   OH216496   1.483   5.174   1.301
 5511TIP3    H116497   1.530   5.255   1.319
 5511TIP3    H216498   1.397   5.186   1.341
 5512TIP3   OH216499   0.361   2.302   4.681
 5512TIP3    H116500   0.349   2.313   4.587
 5512TIP3    H216501   0.406   2.218   4.691
 5513TIP3   OH216502   3.839   4.133   0.567
 5513TIP3    H116503   3.830   4.144   0.473
 5513TIP3    H216504   3.802   4.046   0.585
 5514TIP3   OH216505   6.567   3.121   4.083
 5514TIP3    H116506   6.485   3.169   4.069
 5514TIP3    H216507   6.615   3.175   4.146
 5515TIP3   OH216508   4.943   2.840   1.783
 5515TIP3    H116509   4.883   2.766   1.775
 5515TIP3    H216510   5.030   2.799   1.784
 5516TIP3   OH216511   4.045   6.362   4.798
 5516TIP3    H116512   4.068   6.385   4.888
 5516TIP3    H216513   4.001   6.440   4.764
 5517TIP3   OH216514   0.065   3.118   1.301
 5517TIP3    H116515   0.027   3.031   1.315
 5517TIP3    H216516   0.077   3.153   1.389
 5518TIP3   OH216517   3.490   1.880   0.968
 5518TIP3    H116518   3.460   1.847   1.053
 5518TIP3    H216519   3.467   1.972   0.969
 5519TIP3   OH216520   0.489   4.748   2.093
 5519TIP3    H116521   0.482   4.795   2.010
 5519TIP3    H216522   0.545   4.673   2.073
 5520TIP3   OH216523   5.932   6.640   1.257
 5520TIP3    H116524   6.012   6.589   1.247
 5520TIP3    H216525   5.861   6.576   1.243
 5521TIP3   OH216526   1.905   5.203   2.310
 5521TIP3    H116527   1.986   5.156   2.289
 5521TIP3    H216528   1.841   5.134   2.326
 5522TIP3   OH216529   3.504   1.499   4.800
 5522TIP3    H116530   3.442   1.449   4.747
 5522TIP3    H216531   3.449   1.552   4.858
 5523TIP3   OH216532   4.968   6.305   3.734
 5523TIP3    H116533   5.006   6.218   3.720
 5523TIP3    H216534   4.892   6.308   3.676
 5524TIP3   OH216535   0.245   2.569   5.418
 5524TIP3    H116536   0.235   2.474   5.422
 5524TIP3    H216537   0.282   2.585   5.331
 5525TIP3   OH216538   0.296   6.747   0.306
 5525TIP3    H116539   0.248   6.809   0.251
 5525TIP3    H216540   0.235   6.726   0.377
 5526TIP3   OH216541   1.333   3.781   5.513
 5526TIP3    H116542   1.311   3.695   5.477
 5526TIP3    H216543   1.270   3.841   5.472
 5527TIP3   OH216544   4.174   2.380   5.129
 5527TIP3    H116545   4.263   2.369   5.095
 5527TIP3    H216546   4.141   2.458   5.086
 5528TIP3   OH216547   0.089   0.087   5.656
 5528TIP3    H116548   0.026   0.016   5.649
 5528TIP3    H216549   0.041   0.165   5.627
 5529TIP3   OH216550   3.783   5.011   5.020
 5529TIP3    H116551   3.839   5.016   4.942
 5529TIP3    H216552   3.695   5.030   4.987
 5530TIP3   OH216553   2.662   3.031   4.191
 5530TIP3    H116554   2.568   3.023   4.207
 5530TIP3    H216555   2.703   2.993   4.269
 5531TIP3   OH216556   1.684   5.306   4.965
 5531TIP3    H116557   1.592   5.312   4.941
 5531TIP3    H216558   1.731   5.346   4.892
 5532TIP3   OH216559   7.139   3.280   0.888
 5532TIP3    H116560   7.052   3.320   0.884
 5532TIP3    H216561   7.169   3.278   0.798
 5533TIP3   OH216562   3.447   4.353   3.127
 5533TIP3    H116563   3.426   4.260   3.137
 5533TIP3    H216564   3.542   4.357   3.135
 5534TIP3   OH216565   1.659   3.785   2.455
 5534TIP3    H116566   1.612   3.733   2.520
 5534TIP3    H216567   1.727   3.830   2.505
 5535TIP3   OH216568   0.624   1.836   2.355
 5535TIP3    H116569   0.643   1.902   2.421
 5535TIP3    H216570   0.569   1.772   2.400
 5536TIP3   OH216571   4.083   3.932   0.300
 5536TIP3    H116572   4.163   3.885   0.276
 5536TIP3    H216573   4.101   4.023   0.279
 5537TIP3   OH216574   4.178   1.695   2.847
 5537TIP3    H116575   4.274   1.689   2.849
 5537TIP3    H216576   4.155   1.742   2.927
 5538TIP3   OH216577   2.185   5.537   4.312
 5538TIP3    H116578   2.177   5.633   4.316
 5538TIP3    H216579   2.152   5.506   4.396
 5539TIP3   OH216580   4.669   0.074   4.616
 5539TIP3    H116581   4.669   0.097   4.709
 5539TIP3    H216582   4.736   0.006   4.608
 5540TIP3   OH216583   1.043   5.653   2.250
 5540TIP3    H116584   1.088   5.629   2.331
 5540TIP3    H216585   1.051   5.576   2.195
 5541TIP3   OH216586   6.356   3.982   2.779
 5541TIP3    H116587   6.406   3.953   2.703
 5541TIP3    H216588   6.268   3.947   2.765
 5542TIP3   OH216589   6.981   4.869   2.192
 5542TIP3    H116590   6.960   4.837   2.280
 5542TIP3    H216591   6.930   4.949   2.183
 5543TIP3   OH216592   5.674   2.758   0.987
 5543TIP3    H116593   5.746   2.705   0.953
 5543TIP3    H216594   5.701   2.848   0.972
 5544TIP3   OH216595   0.564   0.176   1.158
 5544TIP3    H116596   0.584   0.199   1.068
 5544TIP3    H216597   0.647   0.188   1.206
 5545TIP3   OH216598   5.533   4.791   5.073
 5545TIP3    H116599   5.512   4.864   5.132
 5545TIP3    H216600   5.526   4.713   5.128
 5546TIP3   OH216601   7.000   5.457   1.791
 5546TIP3    H116602   6.958   5.382   1.834
 5546TIP3    H216603   7.038   5.421   1.712
 5547TIP3   OH216604   3.444   3.628   1.123
 5547TIP3    H116605   3.396   3.583   1.193
 5547TIP3    H216606   3.461   3.716   1.158
 5548TIP3   OH216607   5.118   5.341   1.198
 5548TIP3    H116608   5.093   5.304   1.113
 5548TIP3    H216609   5.077   5.283   1.262
 5549TIP3   OH216610   3.284   3.598   1.842
 5549TIP3    H116611   3.339   3.538   1.791
 5549TIP3    H216612   3.329   3.605   1.926
 5550TIP3   OH216613   0.307   5.550   1.923
 5550TIP3    H116614   0.242   5.518   1.985
 5550TIP3    H216615   0.256   5.596   1.856
 5551TIP3   OH216616   6.107   6.097   0.155
 5551TIP3    H116617   6.102   6.173   0.098
 5551TIP3    H216618   6.167   6.123   0.225
 5552TIP3   OH216619   4.838   5.494   2.433
 5552TIP3    H116620   4.908   5.557   2.416
 5552TIP3    H216621   4.770   5.545   2.478
 5553TIP3   OH216622   6.575   0.959   2.550
 5553TIP3    H116623   6.490   0.939   2.512
 5553TIP3    H216624   6.606   1.035   2.502
 5554TIP3   OH216625   1.535   3.127   4.857
 5554TIP3    H116626   1.515   3.180   4.780
 5554TIP3    H216627   1.491   3.043   4.840
 5555TIP3   OH216628   0.631   0.815   5.872
 5555TIP3    H116629   0.674   0.785   5.791
 5555TIP3    H216630   0.604   0.905   5.852
 5556TIP3   OH216631   6.050   6.706   3.464
 5556TIP3    H116632   6.033   6.638   3.398
 5556TIP3    H216633   6.126   6.673   3.513
 5557TIP3   OH216634   6.791   3.179   1.326
 5557TIP3    H116635   6.724   3.110   1.322
 5557TIP3    H216636   6.751   3.248   1.379
 5558TIP3   OH216637   0.950   0.884   3.245
 5558TIP3    H116638   0.897   0.961   3.267
 5558TIP3    H216639   0.971   0.844   3.329
 5559TIP3   OH216640   4.539   5.595   1.759
 5559TIP3    H116641   4.577   5.645   1.831
 5559TIP3    H216642   4.566   5.641   1.680
 5560TIP3   OH216643   5.177   2.410   2.106
 5560TIP3    H116644   5.129   2.457   2.175
 5560TIP3    H216645   5.234   2.349   2.153
 5561TIP3   OH216646   4.376   4.479   5.009
 5561TIP3    H116647   4.405   4.562   4.970
 5561TIP3    H216648   4.293   4.501   5.051
 5562TIP3   OH216649   4.660   1.632   3.694
 5562TIP3    H116650   4.728   1.604   3.755
 5562TIP3    H216651   4.662   1.567   3.624
 5563TIP3   OH216652   6.184   1.689   2.958
 5563TIP3    H116653   6.255   1.741   2.995
 5563TIP3    H216654   6.117   1.686   3.026
 5564TIP3   OH216655   4.386   5.061   1.490
 5564TIP3    H116656   4.366   5.125   1.559
 5564TIP3    H216657   4.418   5.115   1.417
 5565TIP3   OH216658   3.014   5.504   2.482
 5565TIP3    H116659   2.988   5.424   2.527
 5565TIP3    H216660   2.988   5.490   2.390
 5566TIP3   OH216661   6.115   2.512   4.741
 5566TIP3    H116662   6.101   2.448   4.671
 5566TIP3    H216663   6.188   2.566   4.709
 5567TIP3   OH216664   6.010   3.002   3.331
 5567TIP3    H116665   6.032   3.088   3.369
 5567TIP3    H216666   6.090   2.976   3.285
 5568TIP3   OH216667   1.204   6.152   4.939
 5568TIP3    H116668   1.159   6.217   4.993
 5568TIP3    H216669   1.296   6.159   4.965
 5569TIP3   OH216670   1.942   1.103   3.196
 5569TIP3    H116671   1.857   1.134   3.228
 5569TIP3    H216672   1.922   1.024   3.146
 5570TIP3   OH216673   6.962   6.546   5.330
 5570TIP3    H116674   6.936   6.627   5.286
 5570TIP3    H216675   7.022   6.575   5.400
 5571TIP3   OH216676   4.914   3.418   0.298
 5571TIP3    H116677   4.854   3.447   0.229
 5571TIP3    H216678   4.865   3.351   0.346
 5572TIP3   OH216679   0.540   3.766   1.279
 5572TIP3    H116680   0.584   3.818   1.212
 5572TIP3    H216681   0.452   3.803   1.283
 5573TIP3   OH216682   7.201   4.407   5.489
 5573TIP3    H116683   7.163   4.374   5.570
 5573TIP3    H216684   7.176   4.500   5.487
 5574TIP3   OH216685   4.103   2.290   5.383
 5574TIP3    H116686   4.180   2.288   5.440
 5574TIP3    H216687   4.131   2.344   5.309
 5575TIP3   OH216688   1.084   6.235   3.442
 5575TIP3    H116689   1.085   6.327   3.468
 5575TIP3    H216690   1.047   6.189   3.518
 5576TIP3   OH216691   0.083   0.022   1.238
 5576TIP3    H116692   0.051   0.046   1.325
 5576TIP3    H216693   0.151   0.087   1.219
 5577TIP3   OH216694   6.723   0.137   0.709
 5577TIP3    H116695   6.798   0.147   0.651
 5577TIP3    H216696   6.660   0.085   0.658
 5578TIP3   OH216697   2.667   2.532   1.340
 5578TIP3    H116698   2.620   2.615   1.328
 5578TIP3    H216699   2.757   2.559   1.360
 5579TIP3   OH216700   3.162   2.809   2.013
 5579TIP3    H116701   3.143   2.748   1.942
 5579TIP3    H216702   3.104   2.781   2.085
 5580TIP3   OH216703   4.175   1.057   0.597
 5580TIP3    H116704   4.212   0.969   0.606
 5580TIP3    H216705   4.201   1.103   0.677
 5581TIP3   OH216706   5.357   2.446   4.238
 5581TIP3    H116707   5.265   2.457   4.214
 5581TIP3    H216708   5.366   2.352   4.258
 5582TIP3   OH216709   0.595   2.184   0.484
 5582TIP3    H116710   0.643   2.237   0.420
 5582TIP3    H216711   0.638   2.202   0.567
 5583TIP3   OH216712   1.821   4.367   4.998
 5583TIP3    H116713   1.734   4.334   4.977
 5583TIP3    H216714   1.879   4.293   4.982
 5584TIP3   OH216715   6.305   6.061   3.496
 5584TIP3    H116716   6.333   6.080   3.585
 5584TIP3    H216717   6.386   6.064   3.445
 5585TIP3   OH216718   5.255   1.800   3.373
 5585TIP3    H116719   5.340   1.809   3.417
 5585TIP3    H216720   5.192   1.790   3.444
 5586TIP3   OH216721   1.110   2.339   2.355
 5586TIP3    H116722   1.031   2.314   2.403
 5586TIP3    H216723   1.145   2.257   2.321
 5587TIP3   OH216724   3.646   2.292   2.533
 5587TIP3    H116725   3.684   2.204   2.541
 5587TIP3    H216726   3.556   2.276   2.505
 5588TIP3   OH216727   2.190   2.496   1.226
 5588TIP3    H116728   2.284   2.506   1.244
 5588TIP3    H216729   2.179   2.533   1.139
 5589TIP3   OH216730   3.840   5.660   1.400
 5589TIP3    H116731   3.886   5.736   1.364
 5589TIP3    H216732   3.774   5.638   1.334
 5590TIP3   OH216733   6.273   1.329   1.609
 5590TIP3    H116734   6.238   1.416   1.631
 5590TIP3    H216735   6.316   1.300   1.689
 5591TIP3   OH216736   4.558   6.324   1.826
 5591TIP3    H116737   4.577   6.418   1.820
 5591TIP3    H216738   4.464   6.320   1.843
 5592TIP3   OH216739   4.170   0.947   3.708
 5592TIP3    H116740   4.179   0.992   3.623
 5592TIP3    H216741   4.147   0.857   3.684
 5593TIP3   OH216742   0.985   1.814   4.321
 5593TIP3    H116743   0.994   1.883   4.387
 5593TIP3    H216744   0.942   1.742   4.368
 5594TIP3   OH216745   1.647   0.335   5.431
 5594TIP3    H116746   1.649   0.385   5.349
 5594TIP3    H216747   1.718   0.272   5.423
 5595TIP3   OH216748   1.550   6.006   2.336
 5595TIP3    H116749   1.629   5.953   2.348
 5595TIP3    H216750   1.526   6.033   2.425
 5596TIP3   OH216751   0.552   6.178   5.520
 5596TIP3    H116752   0.457   6.182   5.508
 5596TIP3    H216753   0.585   6.250   5.466
 5597TIP3   OH216754   3.312   3.296   2.155
 5597TIP3    H116755   3.265   3.215   2.172
 5597TIP3    H216756   3.344   3.287   2.065
 5598TIP3   OH216757   0.214   4.327   4.023
 5598TIP3    H116758   0.221   4.366   3.936
 5598TIP3    H216759   0.227   4.399   4.084
 5599TIP3   OH216760   5.806   3.670   1.845
 5599TIP3    H116761   5.785   3.612   1.772
 5599TIP3    H216762   5.827   3.754   1.804
 5600TIP3   OH216763   4.726   6.044   3.302
 5600TIP3    H116764   4.779   6.104   3.250
 5600TIP3    H216765   4.666   6.004   3.239
 5601TIP3   OH216766   0.589   2.256   0.988
 5601TIP3    H116767   0.644   2.191   0.943
 5601TIP3    H216768   0.651   2.310   1.037
 5602TIP3   OH216769   3.013   5.837   4.671
 5602TIP3    H116770   3.071   5.872   4.603
 5602TIP3    H216771   2.932   5.887   4.663
 5603TIP3   OH216772   1.712   2.911   3.494
 5603TIP3    H116773   1.663   2.893   3.574
 5603TIP3    H216774   1.802   2.886   3.514
 5604TIP3   OH216775   4.830   4.750   4.476
 5604TIP3    H116776   4.836   4.810   4.401
 5604TIP3    H216777   4.770   4.682   4.447
 5605TIP3   OH216778   6.855   1.660   4.348
 5605TIP3    H116779   6.772   1.678   4.304
 5605TIP3    H216780   6.908   1.738   4.333
 5606TIP3   OH216781   6.368   6.611   5.361
 5606TIP3    H116782   6.398   6.636   5.273
 5606TIP3    H216783   6.282   6.651   5.369
 5607TIP3   OH216784   1.273   1.000   1.967
 5607TIP3    H116785   1.237   0.956   1.890
 5607TIP3    H216786   1.294   0.929   2.028
 5608TIP3   OH216787   1.379   1.701   0.277
 5608TIP3    H116788   1.373   1.674   0.368
 5608TIP3    H216789   1.299   1.752   0.262
 5609TIP3   OH216790   2.451   4.650   1.114
 5609TIP3    H116791   2.465   4.556   1.126
 5609TIP3    H216792   2.501   4.691   1.185
 5610TIP3   OH216793   6.746   6.367   3.378
 5610TIP3    H116794   6.784   6.455   3.378
 5610TIP3    H216795   6.671   6.374   3.437
 5611TIP3   OH216796   1.077   2.553   2.178
 5611TIP3    H116797   1.132   2.519   2.107
 5611TIP3    H216798   1.084   2.486   2.247
 5612TIP3   OH216799   4.218   6.140   0.806
 5612TIP3    H116800   4.224   6.185   0.722
 5612TIP3    H216801   4.279   6.067   0.799
 5613TIP3   OH216802   4.639   6.433   0.621
 5613TIP3    H116803   4.615   6.360   0.678
 5613TIP3    H216804   4.586   6.420   0.542
 5614TIP3   OH216805   5.802   4.989   2.296
 5614TIP3    H116806   5.799   5.015   2.204
 5614TIP3    H216807   5.766   5.063   2.344
 5615TIP3   OH216808   5.609   0.612   1.622
 5615TIP3    H116809   5.524   0.585   1.656
 5615TIP3    H216810   5.598   0.612   1.527
 5616TIP3   OH216811   6.414   1.519   5.115
 5616TIP3    H116812   6.465   1.554   5.041
 5616TIP3    H216813   6.433   1.426   5.116
 5617TIP3   OH216814   5.993   6.052   1.007
 5617TIP3    H116815   5.995   6.125   0.945
 5617TIP3    H216816   5.901   6.037   1.024
 5618TIP3   OH216817   0.809   2.495   5.198
 5618TIP3    H116818   0.785   2.430   5.132
 5618TIP3    H216819   0.736   2.496   5.259
 5619TIP3   OH216820   6.351   1.312   2.950
 5619TIP3    H116821   6.378   1.401   2.926
 5619TIP3    H216822   6.259   1.307   2.923
 5620TIP3   OH216823   3.008   1.856   4.938
 5620TIP3    H116824   2.975   1.945   4.930
 5620TIP3    H216825   3.069   1.846   4.864
 5621TIP3   OH216826   2.086   4.166   2.764
 5621TIP3    H116827   2.044   4.088   2.802
 5621TIP3    H216828   2.044   4.240   2.809
 5622TIP3   OH216829   4.371   5.612   4.264
 5622TIP3    H116830   4.381   5.707   4.251
 5622TIP3    H216831   4.409   5.573   4.186
 5623TIP3   OH216832   4.087   1.741   4.538
 5623TIP3    H116833   4.133   1.682   4.598
 5623TIP3    H216834   4.006   1.695   4.517
 5624TIP3   OH216835   6.090   4.909   1.034
 5624TIP3    H116836   6.008   4.867   1.058
 5624TIP3    H216837   6.071   4.950   0.949
 5625TIP3   OH216838   1.373   4.221   1.943
 5625TIP3    H116839   1.329   4.259   2.019
 5625TIP3    H216840   1.422   4.147   1.978
 5626TIP3   OH216841   4.320   5.271   4.747
 5626TIP3    H116842   4.413   5.280   4.767
 5626TIP3    H216843   4.278   5.346   4.789
 5627TIP3   OH216844   2.763   1.764   1.013
 5627TIP3    H116845   2.740   1.769   1.106
 5627TIP3    H216846   2.844   1.814   1.005
 5628TIP3   OH216847   0.793   2.974   5.789
 5628TIP3    H116848   0.766   2.885   5.769
 5628TIP3    H216849   0.787   3.020   5.706
 5629TIP3   OH216850   3.799   2.128   3.193
 5629TIP3    H116851   3.802   2.101   3.285
 5629TIP3    H216852   3.858   2.203   3.188
 5630TIP3   OH216853   6.265   3.160   0.941
 5630TIP3    H116854   6.173   3.181   0.958
 5630TIP3    H216855   6.266   3.064   0.931
 5631TIP3   OH216856   4.223   3.391   0.140
 5631TIP3    H116857   4.285   3.432   0.080
 5631TIP3    H216858   4.275   3.328   0.190
 5632TIP3   OH216859   0.566   3.785   5.631
 5632TIP3    H116860   0.636   3.846   5.653
 5632TIP3    H216861   0.611   3.700   5.622
 5633TIP3   OH216862   1.969   2.507   5.008
 5633TIP3    H116863   1.899   2.549   5.057
 5633TIP3    H216864   2.015   2.579   4.965
 5634TIP3   OH216865   5.122   6.476   0.779
 5634TIP3    H116866   5.207   6.517   0.793
 5634TIP3    H216867   5.141   6.383   0.766
 5635TIP3   OH216868   3.923   2.241   1.770
 5635TIP3    H116869   3.939   2.325   1.815
 5635TIP3    H216870   3.926   2.263   1.677
 5636TIP3   OH216871   5.905   3.884   4.792
 5636TIP3    H116872   5.932   3.871   4.701
 5636TIP3    H216873   5.819   3.842   4.797
 5637TIP3   OH216874   3.594   1.836   4.974
 5637TIP3    H116875   3.510   1.851   4.931
 5637TIP3    H216876   3.651   1.803   4.905
 5638TIP3   OH216877  -0.046   1.209   2.811
 5638TIP3    H116878   0.009   1.272   2.859
 5638TIP3    H216879   0.016   1.161   2.756
 5639TIP3   OH216880   2.064   1.900   1.370
 5639TIP3    H116881   2.034   1.987   1.347
 5639TIP3    H216882   1.989   1.843   1.354
 5640TIP3   OH216883   6.587   3.994   3.302
 5640TIP3    H116884   6.606   4.077   3.258
 5640TIP3    H216885   6.522   3.951   3.246
 5641TIP3   OH216886   0.204   4.018   3.133
 5641TIP3    H116887   0.293   4.049   3.152
 5641TIP3    H216888   0.196   3.937   3.182
 5642TIP3   OH216889   5.271   5.086   3.675
 5642TIP3    H116890   5.232   5.163   3.716
 5642TIP3    H216891   5.248   5.094   3.582
 5643TIP3   OH216892   0.915   4.440   1.496
 5643TIP3    H116893   0.835   4.484   1.527
 5643TIP3    H216894   0.883   4.360   1.455
 5644TIP3   OH216895   2.249   5.672   4.754
 5644TIP3    H116896   2.239   5.763   4.725
 5644TIP3    H216897   2.266   5.623   4.674
 5645TIP3   OH216898   0.008   3.960   5.135
 5645TIP3    H116899   0.078   3.930   5.194
 5645TIP3    H216900   0.055   4.004   5.064
 5646TIP3   OH216901   4.457   1.398   4.734
 5646TIP3    H116902   4.398   1.365   4.666
 5646TIP3    H216903   4.542   1.361   4.712
 5647TIP3   OH216904   6.481   6.368   0.395
 5647TIP3    H116905   6.414   6.437   0.397
 5647TIP3    H216906   6.533   6.388   0.317
 5648TIP3   OH216907   5.644   6.531   2.694
 5648TIP3    H116908   5.629   6.439   2.675
 5648TIP3    H216909   5.690   6.531   2.778
 5649TIP3   OH216910   7.133   3.339   0.271
 5649TIP3    H116911   7.038   3.329   0.270
 5649TIP3    H216912   7.156   3.365   0.181
 5650TIP3   OH216913   6.585   3.681   1.280
 5650TIP3    H116914   6.544   3.726   1.206
 5650TIP3    H216915   6.637   3.611   1.240
 5651TIP3   OH216916   0.693   5.532   5.013
 5651TIP3    H116917   0.712   5.443   5.045
 5651TIP3    H216918   0.698   5.524   4.917
 5652TIP3   OH216919   5.548   4.914   0.129
 5652TIP3    H116920   5.640   4.934   0.109
 5652TIP3    H216921   5.520   4.855   0.059
 5653TIP3   OH216922   4.451   0.632   2.955
 5653TIP3    H116923   4.360   0.627   2.926
 5653TIP3    H216924   4.458   0.570   3.027
 5654TIP3   OH216925   2.519   2.534   2.615
 5654TIP3    H116926   2.568   2.496   2.541
 5654TIP3    H216927   2.440   2.570   2.575
 5655TIP3   OH216928   4.406   0.827   3.506
 5655TIP3    H116929   4.465   0.784   3.443
 5655TIP3    H216930   4.318   0.803   3.476
 5656TIP3   OH216931   7.099   1.133   5.151
 5656TIP3    H116932   7.037   1.078   5.199
 5656TIP3    H216933   7.096   1.217   5.196
 5657TIP3   OH216934   1.557   1.284   5.376
 5657TIP3    H116935   1.557   1.269   5.282
 5657TIP3    H216936   1.648   1.271   5.403
 5658TIP3   OH216937   4.803   5.426   2.811
 5658TIP3    H116938   4.711   5.411   2.835
 5658TIP3    H216939   4.798   5.485   2.736
 5659TIP3   OH216940   0.864   1.198   1.518
 5659TIP3    H116941   0.905   1.282   1.537
 5659TIP3    H216942   0.785   1.220   1.468
 5660TIP3   OH216943   4.055   2.059   4.535
 5660TIP3    H116944   4.026   1.970   4.556
 5660TIP3    H216945   4.114   2.048   4.460
 5661TIP3   OH216946   4.695   0.052   2.019
 5661TIP3    H116947   4.772   0.075   2.071
 5661TIP3    H216948   4.648  -0.010   2.074
 5662TIP3   OH216949   6.401   0.991   1.452
 5662TIP3    H116950   6.436   1.076   1.478
 5662TIP3    H216951   6.469   0.952   1.398
 5663TIP3   OH216952   2.167   4.035   5.582
 5663TIP3    H116953   2.151   4.115   5.530
 5663TIP3    H216954   2.093   3.978   5.561
 5664TIP3   OH216955   6.872   0.558   1.254
 5664TIP3    H116956   6.956   0.516   1.271
 5664TIP3    H216957   6.818   0.535   1.329
 5665TIP3   OH216958   3.767   5.585   0.642
 5665TIP3    H116959   3.723   5.502   0.655
 5665TIP3    H216960   3.703   5.640   0.597
 5666TIP3   OH216961   5.385   0.967   1.577
 5666TIP3    H116962   5.393   0.973   1.482
 5666TIP3    H216963   5.475   0.954   1.608
 5667TIP3   OH216964   1.004   5.038   3.792
 5667TIP3    H116965   1.004   5.106   3.725
 5667TIP3    H216966   1.096   5.023   3.811
 5668TIP3   OH216967   5.734   5.444   0.931
 5668TIP3    H116968   5.703   5.358   0.902
 5668TIP3    H216969   5.802   5.424   0.996
 5669TIP3   OH216970   2.717   5.655   4.081
 5669TIP3    H116971   2.668   5.698   4.151
 5669TIP3    H216972   2.806   5.645   4.116
 5670TIP3   OH216973   5.474   6.181   0.758
 5670TIP3    H116974   5.559   6.225   0.751
 5670TIP3    H216975   5.493   6.097   0.800
 5671TIP3   OH216976   1.666   3.498   3.730
 5671TIP3    H116977   1.707   3.564   3.787
 5671TIP3    H216978   1.722   3.421   3.740
 5672TIP3   OH216979   3.595   5.051   0.851
 5672TIP3    H116980   3.541   5.098   0.788
 5672TIP3    H216981   3.628   4.975   0.803
 5673TIP3   OH216982   5.138   4.625   2.024
 5673TIP3    H116983   5.190   4.654   2.099
 5673TIP3    H216984   5.142   4.529   2.028
 5674TIP3   OH216985   0.500   6.016   1.419
 5674TIP3    H116986   0.490   5.940   1.362
 5674TIP3    H216987   0.594   6.034   1.420
 5675TIP3   OH216988   2.523   3.403   5.358
 5675TIP3    H116989   2.589   3.356   5.408
 5675TIP3    H216990   2.562   3.488   5.340
 5676TIP3   OH216991   1.763   4.709   3.653
 5676TIP3    H116992   1.718   4.626   3.667
 5676TIP3    H216993   1.732   4.738   3.567
 5677TIP3   OH216994   0.060   2.553   3.943
 5677TIP3    H116995   0.155   2.554   3.932
 5677TIP3    H216996   0.026   2.546   3.853
 5678TIP3   OH216997   6.004   1.186   0.959
 5678TIP3    H116998   5.944   1.257   0.938
 5678TIP3    H216999   6.091   1.219   0.936
 5679TIP3   OH217000   2.638   4.550   5.298
 5679TIP3    H117001   2.709   4.513   5.245
 5679TIP3    H217002   2.562   4.549   5.240
 5680TIP3   OH217003   3.054   1.511   0.385
 5680TIP3    H117004   2.972   1.476   0.421
 5680TIP3    H217005   3.038   1.605   0.377
 5681TIP3   OH217006   1.504   5.472   1.220
 5681TIP3    H117007   1.598   5.459   1.234
 5681TIP3    H217008   1.499   5.530   1.144
 5682TIP3   OH217009   7.156   2.573   5.507
 5682TIP3    H117010   7.229   2.596   5.450
 5682TIP3    H217011   7.164   2.633   5.581
 5683TIP3   OH217012   4.734   2.887   4.456
 5683TIP3    H117013   4.703   2.958   4.400
 5683TIP3    H217014   4.823   2.913   4.480
 5684TIP3   OH217015   2.620   3.936   3.357
 5684TIP3    H117016   2.593   3.902   3.442
 5684TIP3    H217017   2.586   4.026   3.355
 5685TIP3   OH217018   1.538   4.640   5.914
 5685TIP3    H117019   1.616   4.596   5.881
 5685TIP3    H217020   1.516   4.704   5.847
 5686TIP3   OH217021   4.955   3.145   0.723
 5686TIP3    H117022   4.899   3.213   0.688
 5686TIP3    H217023   5.002   3.188   0.795
 5687TIP3   OH217024   4.834   6.571   0.805
 5687TIP3    H117025   4.892   6.507   0.765
 5687TIP3    H217026   4.746   6.534   0.797
 5688TIP3   OH217027   3.767   2.366   4.356
 5688TIP3    H117028   3.701   2.435   4.344
 5688TIP3    H217029   3.733   2.292   4.306
 5689TIP3   OH217030   2.887   3.223   0.406
 5689TIP3    H117031   2.852   3.182   0.327
 5689TIP3    H217032   2.831   3.299   0.421
 5690TIP3   OH217033   6.898   5.676   0.165
 5690TIP3    H117034   6.871   5.738   0.097
 5690TIP3    H217035   6.840   5.600   0.152
 5691TIP3   OH217036   1.994   6.142   0.459
 5691TIP3    H117037   2.010   6.093   0.378
 5691TIP3    H217038   1.990   6.234   0.431
 5692TIP3   OH217039   1.171   3.578   4.379
 5692TIP3    H117040   1.145   3.597   4.289
 5692TIP3    H217041   1.109   3.627   4.433
 5693TIP3   OH217042   7.066  -0.002   2.347
 5693TIP3    H117043   7.136  -0.017   2.410
 5693TIP3    H217044   7.074   0.091   2.324
 5694TIP3   OH217045   2.778   4.917   3.608
 5694TIP3    H117046   2.869   4.887   3.608
 5694TIP3    H217047   2.740   4.879   3.687
 5695TIP3   OH217048   7.215   2.618   0.642
 5695TIP3    H117049   7.273   2.543   0.624
 5695TIP3    H217050   7.145   2.610   0.578
 5696TIP3   OH217051   3.912   0.975   0.528
 5696TIP3    H117052   3.995   1.023   0.530
 5696TIP3    H217053   3.852   1.030   0.578
 5697TIP3   OH217054   0.034   0.064   4.505
 5697TIP3    H117055   0.006   0.154   4.525
 5697TIP3    H217056   0.119   0.056   4.547
 5698TIP3   OH217057   4.005   4.098   2.397
 5698TIP3    H117058   4.005   4.189   2.426
 5698TIP3    H217059   4.035   4.102   2.306
 5699TIP3   OH217060   4.686   4.789   4.688
 5699TIP3    H117061   4.766   4.759   4.644
 5699TIP3    H217062   4.667   4.721   4.753
 5700TIP3   OH217063   3.219   1.872   3.235
 5700TIP3    H117064   3.210   1.945   3.175
 5700TIP3    H217065   3.313   1.854   3.237
 5701TIP3   OH217066   3.334   1.449   1.029
 5701TIP3    H117067   3.331   1.378   1.093
 5701TIP3    H217068   3.416   1.494   1.046
 5702TIP3   OH217069   6.387   0.155   2.283
 5702TIP3    H117070   6.378   0.097   2.358
 5702TIP3    H217071   6.387   0.096   2.207
 5703TIP3   OH217072   4.678   0.575   3.778
 5703TIP3    H117073   4.696   0.637   3.708
 5703TIP3    H217074   4.727   0.497   3.754
 5704TIP3   OH217075   2.964   2.441   5.151
 5704TIP3    H117076   2.906   2.421   5.078
 5704TIP3    H217077   3.021   2.364   5.159
 5705TIP3   OH217078   0.883   2.474   0.504
 5705TIP3    H117079   0.882   2.420   0.583
 5705TIP3    H217080   0.825   2.547   0.524
 5706TIP3   OH217081   2.713   0.466   3.605
 5706TIP3    H117082   2.776   0.508   3.547
 5706TIP3    H217083   2.658   0.413   3.547
 5707TIP3   OH217084   1.305   2.102   1.600
 5707TIP3    H117085   1.324   2.063   1.685
 5707TIP3    H217086   1.275   2.028   1.546
 5708TIP3   OH217087   4.362   0.925   0.300
 5708TIP3    H117088   4.285   0.980   0.281
 5708TIP3    H217089   4.333   0.836   0.280
 5709TIP3   OH217090   4.211   3.578   5.016
 5709TIP3    H117091   4.265   3.507   4.985
 5709TIP3    H217092   4.123   3.541   5.022
 5710TIP3   OH217093   6.502   0.239   3.792
 5710TIP3    H117094   6.448   0.167   3.824
 5710TIP3    H217095   6.590   0.219   3.823
 5711TIP3   OH217096   0.720   0.866   3.450
 5711TIP3    H117097   0.687   0.779   3.472
 5711TIP3    H217098   0.670   0.926   3.506
 5712TIP3   OH217099   3.532   2.441   1.228
 5712TIP3    H117100   3.587   2.455   1.151
 5712TIP3    H217101   3.479   2.364   1.207
 5713TIP3   OH217102   3.667   4.458   0.751
 5713TIP3    H117103   3.629   4.543   0.730
 5713TIP3    H217104   3.746   4.479   0.801
 5714TIP3   OH217105   6.306   2.533   1.401
 5714TIP3    H117106   6.375   2.534   1.467
 5714TIP3    H217107   6.338   2.472   1.334
 5715TIP3   OH217108   4.669   6.434   4.288
 5715TIP3    H117109   4.743   6.423   4.348
 5715TIP3    H217110   4.689   6.374   4.216
 5716TIP3   OH217111   0.734   5.741   1.729
 5716TIP3    H117112   0.715   5.656   1.690
 5716TIP3    H217113   0.675   5.747   1.804
 5717TIP3   OH217114   3.598   3.350   1.308
 5717TIP3    H117115   3.518   3.397   1.334
 5717TIP3    H217116   3.645   3.336   1.390
 5718TIP3   OH217117   6.739   4.503   5.872
 5718TIP3    H117118   6.832   4.483   5.880
 5718TIP3    H217119   6.709   4.513   5.962
 5719TIP3   OH217120   3.374   3.144   2.736
 5719TIP3    H117121   3.363   3.239   2.740
 5719TIP3    H217122   3.444   3.131   2.673
 5720TIP3   OH217123   3.817   1.257   2.202
 5720TIP3    H117124   3.740   1.221   2.245
 5720TIP3    H217125   3.890   1.228   2.256
 5721TIP3   OH217126   2.477   4.481   0.527
 5721TIP3    H117127   2.405   4.447   0.474
 5721TIP3    H217128   2.438   4.552   0.577
 5722TIP3   OH217129   4.342   4.741   4.549
 5722TIP3    H117130   4.346   4.662   4.604
 5722TIP3    H217131   4.325   4.708   4.461
 5723TIP3   OH217132   4.190   5.542   0.161
 5723TIP3    H117133   4.134   5.588   0.098
 5723TIP3    H217134   4.279   5.570   0.138
 5724TIP3   OH217135   5.491   5.078   4.577
 5724TIP3    H117136   5.452   5.027   4.506
 5724TIP3    H217137   5.446   5.046   4.656
 5725TIP3   OH217138   2.089   1.125   0.943
 5725TIP3    H117139   2.138   1.200   0.976
 5725TIP3    H217140   2.143   1.089   0.873
 5726TIP3   OH217141   5.023   6.073   4.815
 5726TIP3    H117142   5.099   6.038   4.768
 5726TIP3    H217143   4.949   6.058   4.756
 5727TIP3   OH217144   1.436   2.588   4.664
 5727TIP3    H117145   1.441   2.493   4.650
 5727TIP3    H217146   1.374   2.619   4.598
 5728TIP3   OH217147   6.148   3.163   2.912
 5728TIP3    H117148   6.102   3.215   2.846
 5728TIP3    H217149   6.080   3.138   2.974
 5729TIP3   OH217150   6.615   0.344   3.083
 5729TIP3    H117151   6.617   0.381   2.995
 5729TIP3    H217152   6.658   0.409   3.138
 5730TIP3   OH217153   6.784   0.154   5.096
 5730TIP3    H117154   6.774   0.130   5.188
 5730TIP3    H217155   6.879   0.158   5.082
 5731TIP3   OH217156   3.905   0.101   5.095
 5731TIP3    H117157   3.988   0.145   5.075
 5731TIP3    H217158   3.901   0.029   5.032
 5732TIP3   OH217159   6.404   4.930   4.746
 5732TIP3    H117160   6.411   5.024   4.731
 5732TIP3    H217161   6.492   4.901   4.768
 5733TIP3   OH217162   0.022   0.840   2.202
 5733TIP3    H117163   0.110   0.809   2.181
 5733TIP3    H217164  -0.026   0.833   2.120
 5734TIP3   OH217165   4.968   1.867   1.734
 5734TIP3    H117166   4.931   1.904   1.814
 5734TIP3    H217167   4.923   1.914   1.663
 5735TIP3   OH217168   7.162   5.149   2.298
 5735TIP3    H117169   7.166   5.127   2.391
 5735TIP3    H217170   7.071   5.130   2.273
 5736TIP3   OH217171   6.410   2.685   1.891
 5736TIP3    H117172   6.498   2.665   1.858
 5736TIP3    H217173   6.353   2.623   1.847
 5737TIP3   OH217174   6.823   4.484   4.701
 5737TIP3    H117175   6.888   4.552   4.682
 5737TIP3    H217176   6.843   4.414   4.638
 5738TIP3   OH217177   6.890   2.454   3.621
 5738TIP3    H117178   6.871   2.405   3.541
 5738TIP3    H217179   6.823   2.522   3.624
 5739TIP3   OH217180   3.423   3.811   4.455
 5739TIP3    H117181   3.339   3.825   4.501
 5739TIP3    H217182   3.415   3.723   4.417
 5740TIP3   OH217183   2.164   0.191   1.128
 5740TIP3    H117184   2.091   0.234   1.173
 5740TIP3    H217185   2.198   0.258   1.069
 5741TIP3   OH217186   1.294   3.316   0.033
 5741TIP3    H117187   1.272   3.230   0.068
 5741TIP3    H217188   1.219   3.371   0.055
 5742TIP3   OH217189   5.162   1.639   4.485
 5742TIP3    H117190   5.151   1.548   4.514
 5742TIP3    H217191   5.255   1.657   4.498
 5743TIP3   OH217192   4.604   3.866   4.667
 5743TIP3    H117193   4.518   3.881   4.705
 5743TIP3    H217194   4.666   3.897   4.732
 5744TIP3   OH217195   6.323   6.113   2.251
 5744TIP3    H117196   6.408   6.156   2.267
 5744TIP3    H217197   6.259   6.179   2.276
 5745TIP3   OH217198   6.347   2.222   3.158
 5745TIP3    H117199   6.318   2.179   3.077
 5745TIP3    H217200   6.326   2.159   3.227
 5746TIP3   OH217201   0.208   5.538   0.750
 5746TIP3    H117202   0.163   5.551   0.667
 5746TIP3    H217203   0.287   5.593   0.744
 5747TIP3   OH217204   6.062   3.243   4.778
 5747TIP3    H117205   6.041   3.199   4.860
 5747TIP3    H217206   6.157   3.241   4.773
 5748TIP3   OH217207   1.971   1.317   0.128
 5748TIP3    H117208   2.041   1.379   0.111
 5748TIP3    H217209   1.978   1.252   0.058
 5749TIP3   OH217210   5.676   6.270   0.507
 5749TIP3    H117211   5.734   6.329   0.459
 5749TIP3    H217212   5.693   6.183   0.470
 5750TIP3   OH217213   2.116   4.806   4.055
 5750TIP3    H117214   2.077   4.813   3.968
 5750TIP3    H217215   2.088   4.721   4.087
 5751TIP3   OH217216   5.925   2.654   4.886
 5751TIP3    H117217   5.848   2.597   4.884
 5751TIP3    H217218   5.977   2.626   4.811
 5752TIP3   OH217219   5.718   5.110   4.381
 5752TIP3    H117220   5.770   5.186   4.405
 5752TIP3    H217221   5.652   5.102   4.451
 5753TIP3   OH217222   0.733   5.032   5.336
 5753TIP3    H117223   0.694   5.035   5.249
 5753TIP3    H217224   0.793   4.957   5.334
 5754TIP3   OH217225   5.088   6.545   3.747
 5754TIP3    H117226   5.055   6.622   3.794
 5754TIP3    H217227   5.030   6.474   3.774
 5755TIP3   OH217228   3.981   6.447   0.496
 5755TIP3    H117229   4.008   6.468   0.586
 5755TIP3    H217230   4.002   6.526   0.446
 5756TIP3   OH217231   1.239   0.985   3.921
 5756TIP3    H117232   1.286   1.057   3.964
 5756TIP3    H217233   1.279   0.978   3.835
 5757TIP3   OH217234   5.504   0.458   4.002
 5757TIP3    H117235   5.504   0.405   3.922
 5757TIP3    H217236   5.465   0.401   4.068
 5758TIP3   OH217237   5.565   6.364   1.979
 5758TIP3    H117238   5.486   6.415   1.961
 5758TIP3    H217239   5.582   6.376   2.072
 5759TIP3   OH217240   1.091   1.912   0.445
 5759TIP3    H117241   1.023   1.979   0.442
 5759TIP3    H217242   1.109   1.892   0.353
 5760TIP3   OH217243   4.573   3.649   5.401
 5760TIP3    H117244   4.599   3.601   5.480
 5760TIP3    H217245   4.490   3.609   5.375
 5761TIP3   OH217246   4.148   6.713   2.585
 5761TIP3    H117247   4.078   6.777   2.598
 5761TIP3    H217248   4.210   6.757   2.527
 5762TIP3   OH217249   0.775   1.110   0.683
 5762TIP3    H117250   0.784   1.034   0.626
 5762TIP3    H217251   0.703   1.160   0.645
 5763TIP3   OH217252   1.149   1.229   4.946
 5763TIP3    H117253   1.233   1.263   4.977
 5763TIP3    H217254   1.100   1.209   5.026
 5764TIP3   OH217255   5.512   4.389   1.071
 5764TIP3    H117256   5.539   4.336   0.996
 5764TIP3    H217257   5.565   4.356   1.144
 5765TIP3   OH217258   6.229   6.026   5.722
 5765TIP3    H117259   6.268   5.947   5.759
 5765TIP3    H217260   6.267   6.098   5.773
 5766TIP3   OH217261   4.121   2.082   2.102
 5766TIP3    H117262   4.053   2.130   2.150
 5766TIP3    H217263   4.198   2.139   2.106
 5767TIP3   OH217264   5.071   6.274   4.596
 5767TIP3    H117265   5.058   6.266   4.691
 5767TIP3    H217266   5.157   6.314   4.587
 5768TIP3   OH217267   0.162   1.958   0.679
 5768TIP3    H117268   0.121   2.024   0.623
 5768TIP3    H217269   0.137   1.874   0.639
 5769TIP3   OH217270   1.035   5.778   3.696
 5769TIP3    H117271   1.114   5.828   3.717
 5769TIP3    H217272   1.008   5.811   3.611
 5770TIP3   OH217273   1.085   2.904   1.700
 5770TIP3    H117274   1.113   2.884   1.789
 5770TIP3    H217275   1.113   2.994   1.685
 5771TIP3   OH217276   0.260   6.708   4.236
 5771TIP3    H117277   0.302   6.662   4.163
 5771TIP3    H217278   0.175   6.664   4.245
 5772TIP3   OH217279   3.066   4.095   4.760
 5772TIP3    H117280   2.987   4.084   4.813
 5772TIP3    H217281   3.123   4.152   4.812
 5773TIP3   OH217282   5.325   5.952   3.920
 5773TIP3    H117283   5.407   5.999   3.938
 5773TIP3    H217284   5.301   5.913   4.004
 5774TIP3   OH217285   3.308   4.189   1.091
 5774TIP3    H117286   3.264   4.114   1.051
 5774TIP3    H217287   3.309   4.256   1.023
 5775TIP3   OH217288   5.461   6.506   1.361
 5775TIP3    H117289   5.445   6.424   1.312
 5775TIP3    H217290   5.521   6.481   1.431
 5776TIP3   OH217291   1.453   3.253   2.403
 5776TIP3    H117292   1.484   3.312   2.335
 5776TIP3    H217293   1.392   3.306   2.455
 5777TIP3   OH217294   3.814   4.056   5.496
 5777TIP3    H117295   3.891   4.053   5.554
 5777TIP3    H217296   3.819   4.143   5.455
 5778TIP3   OH217297   3.332   4.893   5.141
 5778TIP3    H117298   3.417   4.877   5.181
 5778TIP3    H217299   3.269   4.876   5.210
 5779TIP3   OH217300   5.389   2.629   2.739
 5779TIP3    H117301   5.469   2.664   2.778
 5779TIP3    H217302   5.418   2.551   2.692
 5780TIP3   OH217303   6.907   2.688   2.714
 5780TIP3    H117304   6.971   2.668   2.783
 5780TIP3    H217305   6.947   2.758   2.663
 5781TIP3   OH217306   4.354   5.794   2.628
 5781TIP3    H117307   4.271   5.835   2.603
 5781TIP3    H217308   4.391   5.852   2.695
 5782TIP3   OH217309   0.563   1.819   3.520
 5782TIP3    H117310   0.607   1.805   3.604
 5782TIP3    H217311   0.520   1.736   3.501
 5783TIP3   OH217312   0.384   0.382   1.337
 5783TIP3    H117313   0.426   0.433   1.267
 5783TIP3    H217314   0.443   0.308   1.351
 5784TIP3   OH217315   0.622   1.802   5.824
 5784TIP3    H117316   0.671   1.724   5.799
 5784TIP3    H217317   0.684   1.854   5.874
 5785TIP3   OH217318   7.032   2.916   2.320
 5785TIP3    H117319   7.000   2.834   2.283
 5785TIP3    H217320   7.101   2.890   2.381
 5786TIP3   OH217321   1.791   3.481   3.224
 5786TIP3    H117322   1.815   3.496   3.316
 5786TIP3    H217323   1.715   3.424   3.228
 5787TIP3   OH217324   4.627   3.957   0.672
 5787TIP3    H117325   4.618   3.968   0.766
 5787TIP3    H217326   4.630   4.046   0.637
 5788TIP3   OH217327   4.687   5.798   5.328
 5788TIP3    H117328   4.602   5.828   5.295
 5788TIP3    H217329   4.750   5.862   5.294
 5789TIP3   OH217330   6.093   2.558   2.960
 5789TIP3    H117331   6.053   2.641   2.986
 5789TIP3    H217332   6.081   2.500   3.035
 5790TIP3   OH217333   1.479   2.762   2.655
 5790TIP3    H117334   1.552   2.709   2.623
 5790TIP3    H217335   1.471   2.833   2.590
 5791TIP3   OH217336   6.827   4.228   3.936
 5791TIP3    H117337   6.768   4.267   3.871
 5791TIP3    H217338   6.857   4.147   3.895
 5792TIP3   OH217339   4.511   4.471   2.944
 5792TIP3    H117340   4.481   4.534   3.008
 5792TIP3    H217341   4.586   4.513   2.901
 5793TIP3   OH217342   7.052   5.310   5.247
 5793TIP3    H117343   6.975   5.259   5.220
 5793TIP3    H217344   7.060   5.292   5.341
 5794TIP3   OH217345   3.139   4.242   5.738
 5794TIP3    H117346   3.048   4.213   5.737
 5794TIP3    H217347   3.146   4.298   5.815
 5795TIP3   OH217348   4.917   1.976   1.017
 5795TIP3    H117349   4.864   2.008   0.944
 5795TIP3    H217350   4.865   1.994   1.095
 5796TIP3   OH217351   5.951   6.448   4.612
 5796TIP3    H117352   5.945   6.357   4.582
 5796TIP3    H217353   5.925   6.445   4.704
 5797TIP3   OH217354   6.858   5.218   4.979
 5797TIP3    H117355   6.905   5.204   4.897
 5797TIP3    H217356   6.907   5.168   5.044
 5798TIP3   OH217357   6.647   2.750   0.050
 5798TIP3    H117358   6.603   2.818  -0.002
 5798TIP3    H217359   6.654   2.676  -0.009
 5799TIP3   OH217360   3.356   2.426   5.747
 5799TIP3    H117361   3.397   2.461   5.667
 5799TIP3    H217362   3.429   2.415   5.808
 5800TIP3   OH217363   1.409   1.225   1.302
 5800TIP3    H117364   1.486   1.171   1.318
 5800TIP3    H217365   1.335   1.168   1.325
 5801TIP3   OH217366   1.687   3.917   4.271
 5801TIP3    H117367   1.774   3.956   4.258
 5801TIP3    H217368   1.630   3.965   4.211
 5802TIP3   OH217369   6.670   5.083   3.840
 5802TIP3    H117370   6.750   5.131   3.862
 5802TIP3    H217371   6.648   5.113   3.752
 5803TIP3   OH217372   3.692   4.695   3.843
 5803TIP3    H117373   3.644   4.658   3.917
 5803TIP3    H217374   3.737   4.771   3.878
 5804TIP3   OH217375   1.756   4.598   2.622
 5804TIP3    H117376   1.773   4.637   2.708
 5804TIP3    H217377   1.831   4.624   2.569
 5805TIP3   OH217378   1.722   6.095   2.106
 5805TIP3    H117379   1.789   6.027   2.113
 5805TIP3    H217380   1.673   6.090   2.188
 5806TIP3   OH217381   5.946   5.252   2.092
 5806TIP3    H117382   5.909   5.164   2.097
 5806TIP3    H217383   5.988   5.265   2.177
 5807TIP3   OH217384   2.687   2.755   1.605
 5807TIP3    H117385   2.648   2.755   1.693
 5807TIP3    H217386   2.735   2.672   1.600
 5808TIP3   OH217387   0.656   3.048   5.213
 5808TIP3    H117388   0.609   3.018   5.136
 5808TIP3    H217389   0.587   3.063   5.278
 5809TIP3   OH217390   4.096   1.796   5.324
 5809TIP3    H117391   4.087   1.805   5.419
 5809TIP3    H217392   4.167   1.733   5.312
 5810TIP3   OH217393   1.380   0.737   5.122
 5810TIP3    H117394   1.373   0.681   5.199
 5810TIP3    H217395   1.295   0.731   5.079
 5811TIP3   OH217396   0.021   3.071   1.019
 5811TIP3    H117397  -0.025   3.146   0.983
 5811TIP3    H217398   0.045   3.097   1.108
 5812TIP3   OH217399   1.576   2.964   4.531
 5812TIP3    H117400   1.544   2.916   4.607
 5812TIP3    H217401   1.519   3.041   4.526
 5813TIP3   OH217402   6.720   0.053   3.718
 5813TIP3    H117403   6.740  -0.039   3.737
 5813TIP3    H217404   6.768   0.102   3.785
 5814TIP3   OH217405   1.709   1.582   5.315
 5814TIP3    H117406   1.702   1.626   5.230
 5814TIP3    H217407   1.802   1.563   5.324
 5815TIP3   OH217408   0.381   4.516   4.442
 5815TIP3    H117409   0.430   4.443   4.480
 5815TIP3    H217410   0.367   4.575   4.516
 5816TIP3   OH217411   5.079   1.364   0.540
 5816TIP3    H117412   5.166   1.399   0.561
 5816TIP3    H217413   5.056   1.405   0.457
 5817TIP3   OH217414   5.833   4.572   0.305
 5817TIP3    H117415   5.782   4.621   0.369
 5817TIP3    H217416   5.829   4.624   0.225
 5818TIP3   OH217417   2.717   4.993   2.078
 5818TIP3    H117418   2.782   4.998   2.148
 5818TIP3    H217419   2.646   5.051   2.105
 5819TIP3   OH217420   0.546   6.250   3.084
 5819TIP3    H117421   0.492   6.311   3.135
 5819TIP3    H217422   0.515   6.259   2.994
 5820TIP3   OH217423   4.435   1.167   0.489
 5820TIP3    H117424   4.363   1.150   0.549
 5820TIP3    H217425   4.427   1.100   0.421
 5821TIP3   OH217426   0.163   3.182   4.767
 5821TIP3    H117427   0.256   3.159   4.771
 5821TIP3    H217428   0.124   3.137   4.842
 5822TIP3   OH217429   2.021   0.382   4.277
 5822TIP3    H117430   2.030   0.439   4.354
 5822TIP3    H217431   2.105   0.389   4.232
 5823TIP3   OH217432   0.359   2.141   3.688
 5823TIP3    H117433   0.296   2.211   3.675
 5823TIP3    H217434   0.441   2.186   3.711
 5824TIP3   OH217435   2.108   5.748   0.726
 5824TIP3    H117436   2.202   5.756   0.739
 5824TIP3    H217437   2.071   5.824   0.772
 5825TIP3   OH217438   0.173   0.695   0.819
 5825TIP3    H117439   0.169   0.790   0.832
 5825TIP3    H217440   0.140   0.658   0.901
 5826TIP3   OH217441   6.623   2.194   0.968
 5826TIP3    H117442   6.606   2.102   0.990
 5826TIP3    H217443   6.583   2.206   0.882
 5827TIP3   OH217444   1.921   5.733   3.065
 5827TIP3    H117445   1.915   5.785   2.985
 5827TIP3    H217446   1.950   5.646   3.036
 5828TIP3   OH217447   2.221   4.466   0.821
 5828TIP3    H117448   2.220   4.562   0.816
 5828TIP3    H217449   2.314   4.443   0.822
 5829TIP3   OH217450   0.047   4.875   0.647
 5829TIP3    H117451   0.136   4.876   0.681
 5829TIP3    H217452   0.055   4.839   0.559
 5830TIP3   OH217453   4.711   6.278   1.142
 5830TIP3    H117454   4.654   6.237   1.076
 5830TIP3    H217455   4.797   6.283   1.100
 5831TIP3   OH217456   4.651   1.756   5.184
 5831TIP3    H117457   4.706   1.692   5.229
 5831TIP3    H217458   4.706   1.834   5.177
 5832TIP3   OH217459   2.038   2.788   5.868
 5832TIP3    H117460   2.002   2.725   5.932
 5832TIP3    H217461   2.063   2.733   5.794
 5833TIP3   OH217462   4.362   4.317   1.157
 5833TIP3    H117463   4.345   4.316   1.063
 5833TIP3    H217464   4.278   4.294   1.196
 5834TIP3   OH217465   5.388   4.595   2.667
 5834TIP3    H117466   5.297   4.622   2.667
 5834TIP3    H217467   5.437   4.673   2.639
 5835TIP3   OH217468   6.065   1.859   4.832
 5835TIP3    H117469   5.978   1.895   4.847
 5835TIP3    H217470   6.051   1.764   4.823
 5836TIP3   OH217471   1.899   1.320   1.542
 5836TIP3    H117472   1.929   1.246   1.489
 5836TIP3    H217473   1.955   1.318   1.619
 5837TIP3   OH217474   5.122   6.171   0.897
 5837TIP3    H117475   5.073   6.198   0.975
 5837TIP3    H217476   5.214   6.183   0.921
 5838TIP3   OH217477   5.745   6.399   1.157
 5838TIP3    H117478   5.651   6.405   1.175
 5838TIP3    H217479   5.761   6.306   1.139
 5839TIP3   OH217480   2.338   5.508   4.561
 5839TIP3    H117481   2.339   5.534   4.469
 5839TIP3    H217482   2.430   5.498   4.584
 5840TIP3   OH217483   4.279   3.334   4.920
 5840TIP3    H117484   4.197   3.296   4.951
 5840TIP3    H217485   4.283   3.311   4.827
 5841TIP3   OH217486   3.575   0.477   4.194
 5841TIP3    H117487   3.593   0.484   4.100
 5841TIP3    H217488   3.563   0.384   4.209
 5842TIP3   OH217489   2.974   1.009   5.197
 5842TIP3    H117490   3.042   0.995   5.262
 5842TIP3    H217491   3.020   1.008   5.113
 5843TIP3   OH217492   5.401   3.244   2.443
 5843TIP3    H117493   5.318   3.260   2.399
 5843TIP3    H217494   5.440   3.171   2.394
 5844TIP3   OH217495   0.837   2.081   1.927
 5844TIP3    H117496   0.922   2.037   1.925
 5844TIP3    H217497   0.774   2.013   1.903
 5845TIP3   OH217498   3.772   1.975   3.663
 5845TIP3    H117499   3.712   2.028   3.716
 5845TIP3    H217500   3.800   1.905   3.722
 5846TIP3   OH217501   6.921   2.695   4.225
 5846TIP3    H117502   6.934   2.647   4.143
 5846TIP3    H217503   6.828   2.718   4.225
 5847TIP3   OH217504   1.748   2.132   2.941
 5847TIP3    H117505   1.814   2.091   2.996
 5847TIP3    H217506   1.780   2.119   2.851
 5848TIP3   OH217507   0.167   4.768   4.321
 5848TIP3    H117508   0.105   4.768   4.394
 5848TIP3    H217509   0.253   4.769   4.363
 5849TIP3   OH217510   0.337   6.664   1.390
 5849TIP3    H117511   0.276   6.606   1.345
 5849TIP3    H217512   0.283   6.736   1.422
 5850TIP3   OH217513   6.089   0.486   0.057
 5850TIP3    H117514   6.163   0.483  -0.005
 5850TIP3    H217515   6.026   0.423   0.022
 5851TIP3   OH217516   4.553   1.784   0.756
 5851TIP3    H117517   4.598   1.700   0.746
 5851TIP3    H217518   4.468   1.772   0.714
 5852TIP3   OH217519   0.336   0.276   2.174
 5852TIP3    H117520   0.425   0.246   2.160
 5852TIP3    H217521   0.320   0.339   2.104
 5853TIP3   OH217522   1.273   4.184   1.158
 5853TIP3    H117523   1.220   4.170   1.080
 5853TIP3    H217524   1.361   4.200   1.124
 5854TIP3   OH217525   0.652   5.860   4.746
 5854TIP3    H117526   0.593   5.856   4.821
 5854TIP3    H217527   0.709   5.934   4.764
 5855TIP3   OH217528   3.520   2.957   4.595
 5855TIP3    H117529   3.528   3.024   4.663
 5855TIP3    H217530   3.429   2.961   4.567
 5856TIP3   OH217531   1.437   0.830   0.686
 5856TIP3    H117532   1.437   0.867   0.774
 5856TIP3    H217533   1.344   0.819   0.665
 5857TIP3   OH217534   5.786   2.332   4.712
 5857TIP3    H117535   5.771   2.398   4.645
 5857TIP3    H217536   5.718   2.266   4.697
 5858TIP3   OH217537   1.421   4.598   1.108
 5858TIP3    H117538   1.382   4.660   1.170
 5858TIP3    H217539   1.354   4.586   1.041
 5859TIP3   OH217540   1.163   2.856   0.668
 5859TIP3    H117541   1.073   2.839   0.697
 5859TIP3    H217542   1.153   2.889   0.579
 5860TIP3   OH217543   1.092   3.154   1.586
 5860TIP3    H117544   1.011   3.108   1.563
 5860TIP3    H217545   1.074   3.245   1.564
 5861TIP3   OH217546   6.181   5.754   2.992
 5861TIP3    H117547   6.234   5.770   3.070
 5861TIP3    H217548   6.147   5.840   2.968
 5862TIP3   OH217549   2.357   0.531   3.766
 5862TIP3    H117550   2.329   0.460   3.709
 5862TIP3    H217551   2.336   0.611   3.717
 5863TIP3   OH217552   2.133   3.400   4.570
 5863TIP3    H117553   2.117   3.309   4.595
 5863TIP3    H217554   2.151   3.396   4.477
 5864TIP3   OH217555   6.891   5.156   2.179
 5864TIP3    H117556   6.919   5.210   2.106
 5864TIP3    H217557   6.804   5.190   2.202
 5865TIP3   OH217558   3.965   1.627   3.100
 5865TIP3    H117559   3.914   1.708   3.092
 5865TIP3    H217560   4.054   1.657   3.121
 5866TIP3   OH217561   6.922   4.853   5.388
 5866TIP3    H117562   6.944   4.775   5.336
 5866TIP3    H217563   6.991   4.858   5.454
 5867TIP3   OH217564   7.173   1.977   1.369
 5867TIP3    H117565   7.256   2.018   1.392
 5867TIP3    H217566   7.121   1.979   1.450
 5868TIP3   OH217567   6.180   4.492   5.656
 5868TIP3    H117568   6.244   4.434   5.696
 5868TIP3    H217569   6.232   4.562   5.617
 5869TIP3   OH217570   6.626   6.098   4.114
 5869TIP3    H117571   6.659   6.161   4.049
 5869TIP3    H217572   6.638   6.142   4.198
 5870TIP3   OH217573   5.195   1.415   2.180
 5870TIP3    H117574   5.259   1.395   2.249
 5870TIP3    H217575   5.224   1.499   2.145
 5871TIP3   OH217576   5.040   0.811   2.868
 5871TIP3    H117577   5.036   0.775   2.779
 5871TIP3    H217578   4.957   0.784   2.908
 5872TIP3   OH217579   1.340   3.103   5.044
 5872TIP3    H117580   1.416   3.130   4.993
 5872TIP3    H217581   1.270   3.163   5.018
 5873TIP3   OH217582   0.514   1.994   1.046
 5873TIP3    H117583   0.426   1.981   1.012
 5873TIP3    H217584   0.542   2.079   1.013
 5874TIP3   OH217585   1.192   1.625   5.284
 5874TIP3    H117586   1.254   1.561   5.320
 5874TIP3    H217587   1.187   1.694   5.350
 5875TIP3   OH217588   3.122   1.923   0.069
 5875TIP3    H117589   3.083   1.950  -0.015
 5875TIP3    H217590   3.063   1.856   0.102
 5876TIP3   OH217591   4.552   1.613   0.440
 5876TIP3    H117592   4.465   1.573   0.439
 5876TIP3    H217593   4.591   1.583   0.522
 5877TIP3   OH217594   1.801   6.606   3.327
 5877TIP3    H117595   1.763   6.666   3.263
 5877TIP3    H217596   1.890   6.637   3.339
 5878TIP3   OH217597   5.320   3.480   2.045
 5878TIP3    H117598   5.305   3.422   1.971
 5878TIP3    H217599   5.412   3.505   2.038
 5879TIP3   OH217600   4.611   3.535   3.186
 5879TIP3    H117601   4.591   3.458   3.133
 5879TIP3    H217602   4.699   3.559   3.160
 5880TIP3   OH217603   2.867   0.568   1.035
 5880TIP3    H117604   2.898   0.631   0.970
 5880TIP3    H217605   2.775   0.554   1.012
 5881TIP3   OH217606   0.397   5.461   4.500
 5881TIP3    H117607   0.432   5.542   4.464
 5881TIP3    H217608   0.464   5.395   4.479
 5882TIP3   OH217609   5.777   0.874   1.044
 5882TIP3    H117610   5.859   0.835   1.073
 5882TIP3    H217611   5.716   0.801   1.036
 5883TIP3   OH217612   4.710   3.035   4.203
 5883TIP3    H117613   4.674   3.123   4.191
 5883TIP3    H217614   4.803   3.044   4.181
 5884TIP3   OH217615   4.802   4.581   1.955
 5884TIP3    H117616   4.863   4.537   1.896
 5884TIP3    H217617   4.808   4.532   2.037
 5885TIP3   OH217618   5.599   0.522   2.862
 5885TIP3    H117619   5.576   0.600   2.811
 5885TIP3    H217620   5.691   0.506   2.840
 5886TIP3   OH217621   4.163   4.677   1.708
 5886TIP3    H117622   4.106   4.703   1.781
 5886TIP3    H217623   4.167   4.754   1.652
 5887TIP3   OH217624   3.724   1.648   4.727
 5887TIP3    H117625   3.708   1.709   4.655
 5887TIP3    H217626   3.639   1.605   4.741
 5888TIP3   OH217627   6.613   6.346   5.204
 5888TIP3    H117628   6.638   6.426   5.158
 5888TIP3    H217629   6.668   6.346   5.283
 5889TIP3   OH217630   5.628   5.242   1.289
 5889TIP3    H117631   5.694   5.236   1.220
 5889TIP3    H217632   5.612   5.336   1.298
 5890TIP3   OH217633   6.984   0.831   2.290
 5890TIP3    H117634   6.960   0.805   2.379
 5890TIP3    H217635   7.075   0.802   2.281
 5891TIP3   OH217636   5.693   6.400   1.519
 5891TIP3    H117637   5.694   6.318   1.469
 5891TIP3    H217638   5.784   6.411   1.547
 5892TIP3   OH217639   6.587   1.713   4.249
 5892TIP3    H117640   6.530   1.687   4.321
 5892TIP3    H217641   6.537   1.781   4.203
 5893TIP3   OH217642   1.746   4.279   5.366
 5893TIP3    H117643   1.804   4.354   5.376
 5893TIP3    H217644   1.803   4.209   5.333
 5894TIP3   OH217645   0.089   4.263   3.714
 5894TIP3    H117646   0.039   4.343   3.728
 5894TIP3    H217647   0.066   4.207   3.789
 5895TIP3   OH217648   2.227   4.545   1.891
 5895TIP3    H117649   2.250   4.586   1.808
 5895TIP3    H217650   2.223   4.617   1.954
 5896TIP3   OH217651   5.555   4.474   3.154
 5896TIP3    H117652   5.515   4.389   3.140
 5896TIP3    H217653   5.530   4.526   3.078
 5897TIP3   OH217654   0.419   5.040   3.086
 5897TIP3    H117655   0.447   4.985   3.160
 5897TIP3    H217656   0.333   5.005   3.062
 5898TIP3   OH217657   2.333   4.689   3.895
 5898TIP3    H117658   2.259   4.731   3.940
 5898TIP3    H217659   2.402   4.685   3.962
 5899TIP3   OH217660   0.219   0.526   5.465
 5899TIP3    H117661   0.282   0.571   5.521
 5899TIP3    H217662   0.138   0.575   5.477
 5900TIP3   OH217663   0.212   2.937   4.562
 5900TIP3    H117664   0.205   2.976   4.475
 5900TIP3    H217665   0.305   2.943   4.583
 5901TIP3   OH217666   0.358   3.800   1.662
 5901TIP3    H117667   0.387   3.884   1.697
 5901TIP3    H217668   0.327   3.820   1.574
 5902TIP3   OH217669   0.846   5.339   5.575
 5902TIP3    H117670   0.776   5.334   5.511
 5902TIP3    H217671   0.816   5.285   5.648
 5903TIP3   OH217672   1.232   6.118   5.291
 5903TIP3    H117673   1.184   6.038   5.313
 5903TIP3    H217674   1.315   6.087   5.254
 5904TIP3   OH217675   0.108   5.913   5.328
 5904TIP3    H117676   0.073   5.938   5.243
 5904TIP3    H217677   0.120   5.818   5.323
 5905TIP3   OH217678   5.671   0.056   5.639
 5905TIP3    H117679   5.603  -0.011   5.647
 5905TIP3    H217680   5.670   0.079   5.546
 5906TIP3   OH217681   3.984   1.246   2.439
 5906TIP3    H117682   4.057   1.250   2.376
 5906TIP3    H217683   3.985   1.332   2.482
 5907TIP3   OH217684   7.170   0.950   0.073
 5907TIP3    H117685   7.120   0.869   0.089
 5907TIP3    H217686   7.104   1.012   0.041
 5908TIP3   OH217687   4.300   3.744   0.271
 5908TIP3    H117688   4.336   3.753   0.182
 5908TIP3    H217689   4.369   3.702   0.321
 5909TIP3   OH217690   5.137   2.654   0.781
 5909TIP3    H117691   5.073   2.702   0.728
 5909TIP3    H217692   5.186   2.723   0.826
 5910TIP3   OH217693   0.132   1.805   4.165
 5910TIP3    H117694   0.135   1.711   4.178
 5910TIP3    H217695   0.110   1.817   4.073
 5911TIP3   OH217696   1.380   4.552   0.262
 5911TIP3    H117697   1.294   4.571   0.300
 5911TIP3    H217698   1.439   4.547   0.337
 5912TIP3   OH217699   6.871   1.919   0.002
 5912TIP3    H117700   6.908   1.991  -0.048
 5912TIP3    H217701   6.877   1.948   0.093
 5913TIP3   OH217702   0.730   2.893   3.444
 5913TIP3    H117703   0.795   2.944   3.493
 5913TIP3    H217704   0.725   2.810   3.491
 5914TIP3   OH217705   0.213   0.144   4.824
 5914TIP3    H117706   0.174   0.200   4.891
 5914TIP3    H217707   0.227   0.060   4.868
 5915TIP3   OH217708   5.478   0.649   0.274
 5915TIP3    H117709   5.563   0.649   0.318
 5915TIP3    H217710   5.492   0.595   0.196
 5916TIP3   OH217711   6.970   2.604   0.526
 5916TIP3    H117712   6.993   2.598   0.433
 5916TIP3    H217713   6.875   2.612   0.526
 5917TIP3   OH217714   6.580   1.393   2.072
 5917TIP3    H117715   6.532   1.433   2.144
 5917TIP3    H217716   6.659   1.357   2.112
 5918TIP3   OH217717   3.946   1.804   5.832
 5918TIP3    H117718   3.888   1.863   5.881
 5918TIP3    H217719   4.021   1.790   5.890
 5919TIP3   OH217720   5.984   5.332   3.452
 5919TIP3    H117721   6.039   5.287   3.388
 5919TIP3    H217722   5.985   5.424   3.425
 5920TIP3   OH217723   5.825   5.255   0.246
 5920TIP3    H117724   5.848   5.328   0.187
 5920TIP3    H217725   5.809   5.181   0.187
 5921TIP3   OH217726   3.096   5.395   3.940
 5921TIP3    H117727   3.017   5.437   3.973
 5921TIP3    H217728   3.111   5.321   3.998
 5922TIP3   OH217729   5.649   4.453   0.813
 5922TIP3    H117730   5.594   4.509   0.759
 5922TIP3    H217731   5.602   4.369   0.815
 5923TIP3   OH217732   1.459   3.652   3.036
 5923TIP3    H117733   1.427   3.742   3.049
 5923TIP3    H217734   1.522   3.660   2.964
 5924TIP3   OH217735   3.548   5.936   2.612
 5924TIP3    H117736   3.564   5.852   2.655
 5924TIP3    H217737   3.452   5.944   2.611
 5925TIP3   OH217738   5.471   4.458   0.287
 5925TIP3    H117739   5.465   4.452   0.192
 5925TIP3    H217740   5.458   4.551   0.307
 5926TIP3   OH217741   3.377   2.121   4.764
 5926TIP3    H117742   3.390   2.155   4.853
 5926TIP3    H217743   3.399   2.194   4.707
 5927TIP3   OH217744   0.236   4.037   5.302
 5927TIP3    H117745   0.296   3.990   5.360
 5927TIP3    H217746   0.282   4.043   5.219
 5928TIP3   OH217747   2.296   3.905   1.484
 5928TIP3    H117748   2.305   3.811   1.495
 5928TIP3    H217749   2.225   3.930   1.542
 5929TIP3   OH217750   0.489   1.198   0.854
 5929TIP3    H117751   0.575   1.238   0.835
 5929TIP3    H217752   0.507   1.105   0.860
 5930TIP3   OH217753   3.316   3.937   2.529
 5930TIP3    H117754   3.408   3.920   2.548
 5930TIP3    H217755   3.289   3.864   2.473
 5931TIP3   OH217756   2.097   0.818   0.840
 5931TIP3    H117757   2.161   0.841   0.772
 5931TIP3    H217758   2.138   0.848   0.922
 5932TIP3   OH217759   1.674   0.156   1.175
 5932TIP3    H117760   1.617   0.102   1.230
 5932TIP3    H217761   1.670   0.114   1.089
 5933TIP3   OH217762   6.206   3.035   5.530
 5933TIP3    H117763   6.278   3.012   5.589
 5933TIP3    H217764   6.232   3.002   5.445
 5934TIP3   OH217765   4.570   6.600   1.776
 5934TIP3    H117766   4.502   6.617   1.710
 5934TIP3    H217767   4.547   6.658   1.848
 5935TIP3   OH217768   1.460   3.432   3.981
 5935TIP3    H117769   1.530   3.434   3.915
 5935TIP3    H217770   1.484   3.501   4.043
 5936TIP3   OH217771   1.415   0.205   2.399
 5936TIP3    H117772   1.421   0.193   2.305
 5936TIP3    H217773   1.323   0.191   2.420
 5937TIP3   OH217774   1.501   0.731   3.667
 5937TIP3    H117775   1.482   0.677   3.744
 5937TIP3    H217776   1.596   0.723   3.655
 5938TIP3   OH217777   2.684   3.526   5.624
 5938TIP3    H117778   2.624   3.452   5.617
 5938TIP3    H217779   2.637   3.599   5.584
 5939TIP3   OH217780   0.600   6.549   1.284
 5939TIP3    H117781   0.649   6.542   1.366
 5939TIP3    H217782   0.513   6.514   1.305
 5940TIP3   OH217783   4.678   4.219   2.947
 5940TIP3    H117784   4.629   4.299   2.962
 5940TIP3    H217785   4.650   4.188   2.861
 5941TIP3   OH217786   3.578   0.063   3.733
 5941TIP3    H117787   3.538   0.019   3.808
 5941TIP3    H217788   3.650   0.005   3.708
 5942TIP3   OH217789   1.975   5.426   5.528
 5942TIP3    H117790   1.910   5.490   5.559
 5942TIP3    H217791   2.059   5.472   5.537
 5943TIP3   OH217792   6.901   5.815   5.079
 5943TIP3    H117793   6.883   5.836   4.987
 5943TIP3    H217794   6.878   5.722   5.087
 5944TIP3   OH217795   0.725   3.113   4.759
 5944TIP3    H117796   0.689   3.059   4.689
 5944TIP3    H217797   0.790   3.056   4.801
 5945TIP3   OH217798   4.813   6.595   2.831
 5945TIP3    H117799   4.905   6.569   2.838
 5945TIP3    H217800   4.816   6.691   2.834
 5946TIP3   OH217801   6.364   0.616   0.062
 5946TIP3    H117802   6.316   0.637  -0.018
 5946TIP3    H217803   6.414   0.537   0.041
 5947TIP3   OH217804   2.654   4.075   5.775
 5947TIP3    H117805   2.578   4.119   5.735
 5947TIP3    H217806   2.621   3.987   5.797
 5948TIP3   OH217807   6.057   1.650   2.408
 5948TIP3    H117808   6.011   1.572   2.436
 5948TIP3    H217809   6.040   1.656   2.314
 5949TIP3   OH217810   0.720   4.718   1.636
 5949TIP3    H117811   0.673   4.729   1.718
 5949TIP3    H217812   0.658   4.745   1.569
 5950TIP3   OH217813   4.984   6.770   3.858
 5950TIP3    H117814   4.965   6.848   3.806
 5950TIP3    H217815   4.910   6.762   3.918
 5951TIP3   OH217816   2.338   0.466   0.420
 5951TIP3    H117817   2.380   0.486   0.336
 5951TIP3    H217818   2.244   0.471   0.401
 5952TIP3   OH217819   2.044   6.544   1.887
 5952TIP3    H117820   2.108   6.489   1.932
 5952TIP3    H217821   1.959   6.507   1.911
 5953TIP3   OH217822   4.754   5.994   2.339
 5953TIP3    H117823   4.688   5.925   2.346
 5953TIP3    H217824   4.707   6.068   2.301
 5954TIP3   OH217825   6.156   0.762   2.308
 5954TIP3    H117826   6.075   0.711   2.314
 5954TIP3    H217827   6.158   0.792   2.217
 5955TIP3   OH217828   6.293   1.801   1.665
 5955TIP3    H117829   6.311   1.755   1.747
 5955TIP3    H217830   6.254   1.884   1.693
 5956TIP3   OH217831   2.883   6.401   1.784
 5956TIP3    H117832   2.959   6.452   1.811
 5956TIP3    H217833   2.916   6.312   1.772
 5957TIP3   OH217834   5.080   5.712   0.582
 5957TIP3    H117835   5.031   5.636   0.550
 5957TIP3    H217836   5.046   5.786   0.533
 5958TIP3   OH217837   2.195   3.875   3.170
 5958TIP3    H117838   2.207   3.947   3.108
 5958TIP3    H217839   2.103   3.852   3.163
 5959TIP3   OH217840   7.113   5.088   1.874
 5959TIP3    H117841   7.055   5.029   1.826
 5959TIP3    H217842   7.196   5.042   1.878
 5960TIP3   OH217843   5.628   2.082   4.218
 5960TIP3    H117844   5.548   2.032   4.231
 5960TIP3    H217845   5.599   2.173   4.209
 5961TIP3   OH217846   5.557   4.474   3.709
 5961TIP3    H117847   5.475   4.444   3.748
 5961TIP3    H217848   5.562   4.429   3.625
 5962TIP3   OH217849   1.534   4.111   5.428
 5962TIP3    H117850   1.601   4.165   5.386
 5962TIP3    H217851   1.452   4.138   5.386
 5963TIP3   OH217852   0.308   2.294   2.888
 5963TIP3    H117853   0.326   2.234   2.816
 5963TIP3    H217854   0.312   2.239   2.966
 5964TIP3   OH217855   6.978   4.898   1.727
 5964TIP3    H117856   7.062   4.894   1.681
 5964TIP3    H217857   6.913   4.907   1.656
 5965TIP3   OH217858   6.337   5.142   2.147
 5965TIP3    H117859   6.305   5.187   2.069
 5965TIP3    H217860   6.429   5.121   2.127
 5966TIP3   OH217861   5.045   5.770   5.440
 5966TIP3    H117862   5.126   5.743   5.396
 5966TIP3    H217863   5.053   5.865   5.447
 5967TIP3   OH217864   5.782   0.389   3.146
 5967TIP3    H117865   5.762   0.482   3.153
 5967TIP3    H217866   5.758   0.353   3.232
 5968TIP3   OH217867   2.997   3.028   4.021
 5968TIP3    H117868   3.030   3.018   4.110
 5968TIP3    H217869   3.023   2.947   3.976
 5969TIP3   OH217870   2.046   3.595   4.799
 5969TIP3    H117871   2.113   3.549   4.850
 5969TIP3    H217872   2.033   3.539   4.722
 5970TIP3   OH217873   2.568   4.909   0.973
 5970TIP3    H117874   2.656   4.929   0.940
 5970TIP3    H217875   2.509   4.944   0.906
 5971TIP3   OH217876   5.883   0.752   4.749
 5971TIP3    H117877   5.901   0.685   4.815
 5971TIP3    H217878   5.791   0.776   4.764
 5972TIP3   OH217879   1.468   5.838   1.212
 5972TIP3    H117880   1.477   5.793   1.128
 5972TIP3    H217881   1.433   5.772   1.272
 5973TIP3   OH217882   5.891   6.520   4.203
 5973TIP3    H117883   5.946   6.493   4.130
 5973TIP3    H217884   5.922   6.608   4.225
 5974TIP3   OH217885   4.139   5.793   4.071
 5974TIP3    H117886   4.146   5.884   4.100
 5974TIP3    H217887   4.227   5.770   4.042
 5975TIP3   OH217888   2.349   4.711   0.650
 5975TIP3    H117889   2.305   4.776   0.595
 5975TIP3    H217890   2.314   4.727   0.738
 5976TIP3   OH217891   4.977   3.296   5.148
 5976TIP3    H117892   5.013   3.272   5.063
 5976TIP3    H217893   5.038   3.259   5.211
 5977TIP3   OH217894   6.403   1.181   4.445
 5977TIP3    H117895   6.316   1.141   4.439
 5977TIP3    H217896   6.405   1.246   4.374
 5978TIP3   OH217897   3.619   3.516   0.867
 5978TIP3    H117898   3.581   3.575   0.932
 5978TIP3    H217899   3.557   3.443   0.861
 5979TIP3   OH217900   7.049   1.396   5.273
 5979TIP3    H117901   7.008   1.473   5.233
 5979TIP3    H217902   7.041   1.411   5.368
 5980TIP3   OH217903   0.890   1.332   0.142
 5980TIP3    H117904   0.825   1.377   0.196
 5980TIP3    H217905   0.955   1.300   0.205
 5981TIP3   OH217906   0.760   1.156   2.603
 5981TIP3    H117907   0.684   1.190   2.557
 5981TIP3    H217908   0.777   1.221   2.673
 5982TIP3   OH217909   0.302   5.185   4.095
 5982TIP3    H117910   0.267   5.096   4.091
 5982TIP3    H217911   0.287   5.213   4.185
 5983TIP3   OH217912   5.396   1.271   4.598
 5983TIP3    H117913   5.366   1.200   4.656
 5983TIP3    H217914   5.426   1.340   4.658
 5984TIP3   OH217915   6.681   0.704   4.754
 5984TIP3    H117916   6.718   0.785   4.789
 5984TIP3    H217917   6.668   0.722   4.661
 5985TIP3   OH217918   4.917   4.852   2.949
 5985TIP3    H117919   4.983   4.790   2.980
 5985TIP3    H217920   4.939   4.934   2.994
 5986TIP3   OH217921   2.593   0.990   2.306
 5986TIP3    H117922   2.511   1.030   2.335
 5986TIP3    H217923   2.617   0.931   2.378
 5987TIP3   OH217924   5.907   1.084   4.994
 5987TIP3    H117925   5.876   1.126   5.075
 5987TIP3    H217926   5.956   1.008   5.025
 5988TIP3   OH217927   6.602   4.300   4.783
 5988TIP3    H117928   6.539   4.228   4.796
 5988TIP3    H217929   6.554   4.379   4.806
 5989TIP3   OH217930   3.841   4.399   0.538
 5989TIP3    H117931   3.855   4.307   0.561
 5989TIP3    H217932   3.773   4.429   0.599
 5990TIP3   OH217933   1.254   2.917   4.059
 5990TIP3    H117934   1.338   2.931   4.017
 5990TIP3    H217935   1.250   2.982   4.129
 5991TIP3   OH217936   6.897   6.288   0.632
 5991TIP3    H117937   6.907   6.310   0.540
 5991TIP3    H217938   6.850   6.362   0.670
 5992TIP3   OH217939   2.674   1.870   4.182
 5992TIP3    H117940   2.671   1.803   4.250
 5992TIP3    H217941   2.744   1.841   4.123
 5993TIP3   OH217942   5.820   2.975   1.250
 5993TIP3    H117943   5.805   3.065   1.277
 5993TIP3    H217944   5.775   2.967   1.166
 5994TIP3   OH217945   5.035   1.133   0.682
 5994TIP3    H117946   5.025   1.224   0.653
 5994TIP3    H217947   4.963   1.119   0.743
 5995TIP3   OH217948   2.538   2.804   1.344
 5995TIP3    H117949   2.537   2.810   1.440
 5995TIP3    H217950   2.604   2.867   1.317
 5996TIP3   OH217951   3.646   6.482   0.051
 5996TIP3    H117952   3.729   6.520   0.022
 5996TIP3    H217953   3.586   6.496  -0.023
 5997TIP3   OH217954   0.808   4.757   2.069
 5997TIP3    H117955   0.895   4.797   2.075
 5997TIP3    H217956   0.753   4.826   2.033
 5998TIP3   OH217957   3.174   4.788   3.355
 5998TIP3    H117958   3.134   4.707   3.386
 5998TIP3    H217959   3.209   4.765   3.269
 5999TIP3   OH217960   0.714   3.967   3.242
 5999TIP3    H117961   0.809   3.961   3.230
 5999TIP3    H217962   0.677   3.921   3.167
 6000TIP3   OH217963   4.258   0.336   5.248
 6000TIP3    H117964   4.217   0.392   5.183
 6000TIP3    H217965   4.245   0.382   5.331
 6001TIP3   OH217966   0.356   3.690   3.098
 6001TIP3    H117967   0.301   3.681   3.175
 6001TIP3    H217968   0.435   3.641   3.119
 6002TIP3   OH217969   3.310   5.367   4.557
 6002TIP3    H117970   3.341   5.413   4.479
 6002TIP3    H217971   3.257   5.295   4.523
 6003TIP3   OH217972   3.140   3.093   0.301
 6003TIP3    H117973   3.134   3.169   0.360
 6003TIP3    H217974   3.060   3.044   0.318
 6004TIP3   OH217975   0.463   0.984   2.681
 6004TIP3    H117976   0.506   1.048   2.738
 6004TIP3    H217977   0.474   0.900   2.726
 6005TIP3   OH217978   2.363   5.108   3.471
 6005TIP3    H117979   2.447   5.151   3.487
 6005TIP3    H217980   2.381   5.015   3.479
 6006TIP3   OH217981   4.902   3.158   3.370
 6006TIP3    H117982   4.893   3.080   3.425
 6006TIP3    H217983   4.950   3.220   3.424
 6007TIP3   OH217984   5.251   2.050   1.973
 6007TIP3    H117985   5.264   2.014   2.061
 6007TIP3    H217986   5.306   2.128   1.970
 6008TIP3   OH217987   0.760   1.108   2.229
 6008TIP3    H117988   0.736   1.196   2.200
 6008TIP3    H217989   0.818   1.075   2.161
 6009TIP3   OH217990   4.342   5.992   4.487
 6009TIP3    H117991   4.323   5.950   4.571
 6009TIP3    H217992   4.361   6.083   4.510
 6010TIP3   OH217993   3.917   2.710   1.039
 6010TIP3    H117994   3.949   2.631   0.996
 6010TIP3    H217995   3.918   2.777   0.971
 6011TIP3   OH217996   4.558   0.622   5.308
 6011TIP3    H117997   4.481   0.582   5.267
 6011TIP3    H217998   4.633   0.576   5.271
 6012TIP3   OH217999   5.927   2.638   2.164
 6012TIP3    H118000   5.978   2.718   2.175
 6012TIP3    H218001   5.990   2.573   2.133
 6013TIP3   OH218002   0.149   4.198   5.755
 6013TIP3    H118003   0.122   4.286   5.780
 6013TIP3    H218004   0.204   4.168   5.827
 6014TIP3   OH218005   2.444   3.770   2.493
 6014TIP3    H118006   2.440   3.852   2.443
 6014TIP3    H218007   2.387   3.784   2.568
 6015TIP3   OH218008   0.457   4.830   0.455
 6015TIP3    H118009   0.547   4.830   0.489
 6015TIP3    H218010   0.449   4.747   0.408
 6016TIP3   OH218011   4.781   6.040   4.967
 6016TIP3    H118012   4.837   5.987   4.911
 6016TIP3    H218013   4.700   6.050   4.918
 6017TIP3   OH218014   4.957   5.197   2.741
 6017TIP3    H118015   4.906   5.266   2.782
 6017TIP3    H218016   4.892   5.139   2.702
 6018TIP3   OH218017   6.047   4.880   0.245
 6018TIP3    H118018   6.064   4.816   0.313
 6018TIP3    H218019   6.116   4.866   0.181
 6019TIP3   OH218020   0.000   1.507   2.500
 6019TIP3    H118021   0.076   1.471   2.546
 6019TIP3    H218022  -0.049   1.431   2.469
 6020TIP3   OH218023   6.375   3.654   3.954
 6020TIP3    H118024   6.377   3.734   4.008
 6020TIP3    H218025   6.323   3.592   4.006
 6021TIP3   OH218026   4.640   0.884   5.593
 6021TIP3    H118027   4.566   0.936   5.625
 6021TIP3    H218028   4.623   0.873   5.500
 6022TIP3   OH218029   4.410   1.102   4.083
 6022TIP3    H118030   4.490   1.051   4.098
 6022TIP3    H218031   4.387   1.137   4.169
 6023TIP3   OH218032   3.391   6.405   1.867
 6023TIP3    H118033   3.414   6.472   1.803
 6023TIP3    H218034   3.452   6.334   1.851
 6024TIP3   OH218035   3.550   6.189   1.871
 6024TIP3    H118036   3.551   6.102   1.911
 6024TIP3    H218037   3.622   6.187   1.807
 6025TIP3   OH218038   1.587   5.252   5.345
 6025TIP3    H118039   1.589   5.229   5.438
 6025TIP3    H218040   1.524   5.191   5.307
 6026TIP3   OH218041   1.221   0.498   4.054
 6026TIP3    H118042   1.218   0.404   4.070
 6026TIP3    H218043   1.260   0.535   4.133
 6027TIP3   OH218044   0.991   2.953   3.859
 6027TIP3    H118045   1.063   2.937   3.921
 6027TIP3    H218046   0.988   2.874   3.805
 6028TIP3   OH218047   4.384   2.412   0.599
 6028TIP3    H118048   4.370   2.337   0.541
 6028TIP3    H218049   4.476   2.405   0.625
 6029TIP3   OH218050   6.389   0.379   2.523
 6029TIP3    H118051   6.347   0.406   2.441
 6029TIP3    H218052   6.359   0.443   2.588
 6030TIP3   OH218053   4.561   1.047   0.147
 6030TIP3    H118054   4.504   1.001   0.208
 6030TIP3    H218055   4.604   0.978   0.096
 6031TIP3   OH218056   1.772   2.816   4.919
 6031TIP3    H118057   1.781   2.761   4.997
 6031TIP3    H218058   1.815   2.767   4.849
 6032TIP3   OH218059   3.105   0.980   4.945
 6032TIP3    H118060   3.077   1.061   4.903
 6032TIP3    H218061   3.186   0.956   4.900
 6033TIP3   OH218062   7.006   0.815   2.544
 6033TIP3    H118063   6.979   0.727   2.571
 6033TIP3    H218064   6.980   0.872   2.617
 6034TIP3   OH218065   2.911   6.676   2.020
 6034TIP3    H118066   2.966   6.608   2.060
 6034TIP3    H218067   2.908   6.745   2.086
 6035TIP3   OH218068   1.427   5.329   4.886
 6035TIP3    H118069   1.397   5.408   4.931
 6035TIP3    H218070   1.365   5.316   4.815
 6036TIP3   OH218071   0.597   3.725   4.639
 6036TIP3    H118072   0.506   3.734   4.609
 6036TIP3    H218073   0.649   3.741   4.561
 6037TIP3   OH218074   6.060   6.143   4.912
 6037TIP3    H118075   6.048   6.049   4.918
 6037TIP3    H218076   6.088   6.170   5.000
 6038TIP3   OH218077   5.503   6.719   2.429
 6038TIP3    H118078   5.493   6.715   2.525
 6038TIP3    H218079   5.469   6.806   2.405
 6039TIP3   OH218080   5.581   4.875   2.943
 6039TIP3    H118081   5.629   4.958   2.942
 6039TIP3    H218082   5.506   4.891   3.000
 6040TIP3   OH218083   6.092   4.159   3.078
 6040TIP3    H118084   6.108   4.195   3.165
 6040TIP3    H218085   6.000   4.133   3.079
 6041TIP3   OH218086   5.572   0.881   4.313
 6041TIP3    H118087   5.564   0.790   4.342
 6041TIP3    H218088   5.527   0.885   4.229
 6042TIP3   OH218089   4.401   4.167   3.437
 6042TIP3    H118090   4.410   4.256   3.401
 6042TIP3    H218091   4.307   4.154   3.446
 6043TIP3   OH218092   2.664   4.656   0.896
 6043TIP3    H118093   2.728   4.692   0.957
 6043TIP3    H218094   2.586   4.710   0.910
 6044TIP3   OH218095   5.039   4.610   4.837
 6044TIP3    H118096   5.012   4.530   4.883
 6044TIP3    H218097   5.019   4.592   4.745
 6045TIP3   OH218098   4.160   1.798   2.145
 6045TIP3    H118099   4.203   1.742   2.080
 6045TIP3    H218100   4.154   1.884   2.102
 6046TIP3   OH218101   1.517   5.968   0.836
 6046TIP3    H118102   1.603   5.930   0.856
 6046TIP3    H218103   1.538   6.052   0.794
 6047TIP3   OH218104   5.416   3.750   1.819
 6047TIP3    H118105   5.382   3.807   1.888
 6047TIP3    H218106   5.475   3.689   1.865
 6048TIP3   OH218107   3.317   1.342   5.866
 6048TIP3    H118108   3.326   1.433   5.836
 6048TIP3    H218109   3.406   1.307   5.865
 6049TIP3   OH218110   2.948   4.280   1.600
 6049TIP3    H118111   2.884   4.351   1.604
 6049TIP3    H218112   2.902   4.209   1.554
 6050TIP3   OH218113   0.760   2.820   4.207
 6050TIP3    H118114   0.694   2.853   4.146
 6050TIP3    H218115   0.710   2.794   4.285
 6051TIP3   OH218116   7.217   5.574   1.997
 6051TIP3    H118117   7.170   5.564   2.081
 6051TIP3    H218118   7.158   5.536   1.932
 6052TIP3   OH218119   0.611   4.406   0.455
 6052TIP3    H118120   0.517   4.392   0.443
 6052TIP3    H218121   0.619   4.500   0.472
 6053TIP3   OH218122   5.361   4.962   3.073
 6053TIP3    H118123   5.352   5.057   3.080
 6053TIP3    H218124   5.271   4.929   3.071
 6054TIP3   OH218125   4.699   1.387   2.471
 6054TIP3    H118126   4.698   1.385   2.375
 6054TIP3    H218127   4.608   1.372   2.496
 6055TIP3   OH218128   2.161   1.944   0.965
 6055TIP3    H118129   2.081   1.980   1.002
 6055TIP3    H218130   2.149   1.951   0.870
 6056TIP3   OH218131   1.363   5.920   5.181
 6056TIP3    H118132   1.347   5.913   5.087
 6056TIP3    H218133   1.368   5.829   5.211
 6057TIP3   OH218134   1.290   5.975   2.303
 6057TIP3    H118135   1.383   5.980   2.323
 6057TIP3    H218136   1.286   5.953   2.210
 6058TIP3   OH218137   3.167   1.020   2.397
 6058TIP3    H118138   3.192   0.985   2.482
 6058TIP3    H218139   3.195   0.953   2.334
 6059TIP3   OH218140   5.535   5.091   4.023
 6059TIP3    H118141   5.476   5.025   4.060
 6059TIP3    H218142   5.604   5.041   3.980
 6060TIP3   OH218143   4.884   2.846   3.904
 6060TIP3    H118144   4.905   2.937   3.927
 6060TIP3    H218145   4.837   2.853   3.821
 6061TIP3   OH218146   3.340   0.606   2.750
 6061TIP3    H118147   3.262   0.645   2.711
 6061TIP3    H218148   3.410   0.670   2.735
 6062TIP3   OH218149   3.608   0.979   2.548
 6062TIP3    H118150   3.627   0.894   2.508
 6062TIP3    H218151   3.571   0.957   2.634
 6063TIP3   OH218152   4.858   2.542   5.493
 6063TIP3    H118153   4.949   2.527   5.468
 6063TIP3    H218154   4.847   2.637   5.486
 6064TIP3   OH218155   5.753   4.370   0.049
 6064TIP3    H118156   5.671   4.421   0.056
 6064TIP3    H218157   5.819   4.435   0.024
 6065TIP3   OH218158   0.748   5.104   5.761
 6065TIP3    H118159   0.838   5.107   5.792
 6065TIP3    H218160   0.733   5.012   5.740
 6066TIP3   OH218161   1.194   0.416   2.794
 6066TIP3    H118162   1.202   0.431   2.700
 6066TIP3    H218163   1.278   0.378   2.820
 6067TIP3   OH218164   6.084   0.913   5.135
 6067TIP3    H118165   6.145   0.923   5.062
 6067TIP3    H218166   6.126   0.959   5.207
 6068TIP3   OH218167   0.197   1.715   5.095
 6068TIP3    H118168   0.209   1.738   5.002
 6068TIP3    H218169   0.278   1.670   5.119
 6069TIP3   OH218170   3.267   4.541   4.975
 6069TIP3    H118171   3.324   4.520   5.048
 6069TIP3    H218172   3.181   4.558   5.015
 6070TIP3   OH218173   0.945   3.924   3.037
 6070TIP3    H118174   0.883   3.926   2.964
 6070TIP3    H218175   1.023   3.882   3.001
 6071TIP3   OH218176   2.671   4.060   0.234
 6071TIP3    H118177   2.616   4.084   0.310
 6071TIP3    H218178   2.751   4.110   0.247
 6072TIP3   OH218179   6.467   3.788   3.705
 6072TIP3    H118180   6.444   3.712   3.650
 6072TIP3    H218181   6.402   3.786   3.776
 6073TIP3   OH218182   6.929   5.163   3.194
 6073TIP3    H118183   6.978   5.144   3.274
 6073TIP3    H218184   6.886   5.247   3.211
 6074TIP3   OH218185   3.323   1.712   1.834
 6074TIP3    H118186   3.392   1.747   1.890
 6074TIP3    H218187   3.317   1.774   1.761
 6075TIP3   OH218188   0.748   2.057   0.880
 6075TIP3    H118189   0.709   1.986   0.931
 6075TIP3    H218190   0.724   2.037   0.790
 6076TIP3   OH218191   2.439   5.610   0.960
 6076TIP3    H118192   2.360   5.628   1.011
 6076TIP3    H218193   2.432   5.669   0.885
 6077TIP3   OH218194   2.868   5.457   2.995
 6077TIP3    H118195   2.776   5.449   2.969
 6077TIP3    H218196   2.865   5.497   3.081
 6078TIP3   OH218197   4.938   1.940   3.201
 6078TIP3    H118198   5.018   1.898   3.232
 6078TIP3    H218199   4.963   2.032   3.187
 6079TIP3   OH218200   2.525   4.578   2.280
 6079TIP3    H118201   2.504   4.492   2.243
 6079TIP3    H218202   2.440   4.621   2.292
 6080TIP3   OH218203   1.556   2.210   0.494
 6080TIP3    H118204   1.469   2.174   0.476
 6080TIP3    H218205   1.583   2.168   0.576
 6081TIP3   OH218206   4.361   6.162   5.020
 6081TIP3    H118207   4.314   6.237   5.058
 6081TIP3    H218208   4.291   6.105   4.987
 6082TIP3   OH218209   2.336   2.714   4.051
 6082TIP3    H118210   2.241   2.713   4.039
 6082TIP3    H218211   2.369   2.770   3.981
 6083TIP3   OH218212   1.897   5.251   0.062
 6083TIP3    H118213   1.983   5.217   0.037
 6083TIP3    H218214   1.838   5.177   0.048
 6084TIP3   OH218215   2.960   5.837   2.503
 6084TIP3    H118216   2.977   5.872   2.416
 6084TIP3    H218217   2.878   5.879   2.531
 6085TIP3   OH218218   7.098   4.088   5.400
 6085TIP3    H118219   7.013   4.131   5.391
 6085TIP3    H218220   7.132   4.083   5.310
 6086TIP3   OH218221   0.867   4.003   2.766
 6086TIP3    H118222   0.875   3.979   2.674
 6086TIP3    H218223   0.775   4.024   2.778
 6087TIP3   OH218224   0.601   5.023   0.298
 6087TIP3    H118225   0.596   5.119   0.300
 6087TIP3    H218226   0.556   4.995   0.377
 6088TIP3   OH218227   5.186   4.872   2.701
 6088TIP3    H118228   5.156   4.920   2.624
 6088TIP3    H218229   5.190   4.939   2.770
 6089TIP3   OH218230   3.178   5.088   0.882
 6089TIP3    H118231   3.105   5.083   0.944
 6089TIP3    H218232   3.181   5.001   0.841
 6090TIP3   OH218233   5.739   2.093   0.708
 6090TIP3    H118234   5.804   2.134   0.766
 6090TIP3    H218235   5.780   2.012   0.679
 6091TIP3   OH218236   1.153   1.861   5.072
 6091TIP3    H118237   1.248   1.875   5.067
 6091TIP3    H218238   1.135   1.853   5.165
 6092TIP3   OH218239   3.348   6.323   4.175
 6092TIP3    H118240   3.435   6.312   4.215
 6092TIP3    H218241   3.360   6.393   4.111
 6093TIP3   OH218242   2.058   3.073   3.484
 6093TIP3    H118243   2.024   2.988   3.511
 6093TIP3    H218244   2.029   3.083   3.393
 6094TIP3   OH218245   6.908   2.900   1.425
 6094TIP3    H118246   6.838   2.965   1.433
 6094TIP3    H218247   6.924   2.894   1.331
 6095TIP3   OH218248   4.685   0.492   3.488
 6095TIP3    H118249   4.673   0.585   3.507
 6095TIP3    H218250   4.673   0.485   3.393
 6096TIP3   OH218251   4.690   1.782   2.231
 6096TIP3    H118252   4.732   1.864   2.257
 6096TIP3    H218253   4.692   1.727   2.310
 6097TIP3   OH218254   0.461   6.734   4.467
 6097TIP3    H118255   0.391   6.680   4.503
 6097TIP3    H218256   0.433   6.756   4.378
 6098TIP3   OH218257   6.452   4.453   3.643
 6098TIP3    H118258   6.378   4.412   3.689
 6098TIP3    H218259   6.448   4.545   3.668
 6099TIP3   OH218260   4.487   3.507   2.661
 6099TIP3    H118261   4.524   3.451   2.593
 6099TIP3    H218262   4.552   3.507   2.730
 6100TIP3   OH218263   2.412   1.734   1.671
 6100TIP3    H118264   2.366   1.764   1.593
 6100TIP3    H218265   2.441   1.645   1.648
 6101TIP3   OH218266   0.166   4.033   2.354
 6101TIP3    H118267   0.157   4.089   2.430
 6101TIP3    H218268   0.099   4.064   2.293
 6102TIP3   OH218269   4.630   0.501   1.548
 6102TIP3    H118270   4.639   0.587   1.507
 6102TIP3    H218271   4.704   0.495   1.609
 6103TIP3   OH218272   6.628   0.350   0.119
 6103TIP3    H118273   6.608   0.371   0.210
 6103TIP3    H218274   6.707   0.401   0.100
 6104TIP3   OH218275   0.850   4.146   1.533
 6104TIP3    H118276   0.912   4.133   1.604
 6104TIP3    H218277   0.861   4.070   1.476
 6105TIP3   OH218278   4.568   0.580   4.293
 6105TIP3    H118279   4.560   0.675   4.302
 6105TIP3    H218280   4.647   0.558   4.342
 6106TIP3   OH218281   7.157   6.578   2.613
 6106TIP3    H118282   7.229   6.544   2.561
 6106TIP3    H218283   7.135   6.506   2.673
 6107TIP3   OH218284   5.677   2.751   3.008
 6107TIP3    H118285   5.586   2.743   3.036
 6107TIP3    H218286   5.673   2.801   2.926
 6108TIP3   OH218287   2.881   1.507   3.865
 6108TIP3    H118288   2.861   1.414   3.873
 6108TIP3    H218289   2.853   1.545   3.949
 6109TIP3   OH218290   4.750   4.336   5.295
 6109TIP3    H118291   4.776   4.261   5.242
 6109TIP3    H218292   4.655   4.328   5.303
 6110TIP3   OH218293   6.610   3.022   5.239
 6110TIP3    H118294   6.589   3.084   5.308
 6110TIP3    H218295   6.532   3.020   5.184
 6111TIP3   OH218296   0.905   4.070   1.994
 6111TIP3    H118297   0.810   4.063   2.006
 6111TIP3    H218298   0.918   4.059   1.900
 6112TIP3   OH218299   6.069   2.350   1.576
 6112TIP3    H118300   6.037   2.408   1.507
 6112TIP3    H218301   5.994   2.336   1.633
 6113TIP3   OH218302   0.837   2.731   5.022
 6113TIP3    H118303   0.741   2.738   5.026
 6113TIP3    H218304   0.855   2.641   5.051
 6114TIP3   OH218305   2.452   6.272   2.935
 6114TIP3    H118306   2.368   6.315   2.926
 6114TIP3    H218307   2.447   6.196   2.877
 6115TIP3   OH218308   2.142   4.365   2.582
 6115TIP3    H118309   2.091   4.321   2.513
 6115TIP3    H218310   2.149   4.299   2.652
 6116TIP3   OH218311   2.309   1.414   5.372
 6116TIP3    H118312   2.358   1.465   5.436
 6116TIP3    H218313   2.342   1.445   5.287
 6117TIP3   OH218314   0.490   2.488   2.937
 6117TIP3    H118315   0.420   2.423   2.925
 6117TIP3    H218316   0.507   2.521   2.848
 6118TIP3   OH218317   0.421   3.578   4.347
 6118TIP3    H118318   0.512   3.553   4.332
 6118TIP3    H218319   0.374   3.494   4.350
 6119TIP3   OH218320   5.420   3.394   4.428
 6119TIP3    H118321   5.502   3.409   4.380
 6119TIP3    H218322   5.436   3.315   4.479
 6120TIP3   OH218323   1.911   4.034   1.259
 6120TIP3    H118324   1.918   3.996   1.347
 6120TIP3    H218325   1.923   4.128   1.272
 6121TIP3   OH218326   0.625   6.272   2.438
 6121TIP3    H118327   0.658   6.190   2.473
 6121TIP3    H218328   0.595   6.251   2.350
 6122TIP3   OH218329   0.706   1.521   5.284
 6122TIP3    H118330   0.663   1.456   5.229
 6122TIP3    H218331   0.766   1.567   5.225
 6123TIP3   OH218332   5.446   5.565   5.807
 6123TIP3    H118333   5.364   5.558   5.758
 6123TIP3    H218334   5.514   5.564   5.739
 6124TIP3   OH218335   5.717   5.927   4.774
 6124TIP3    H118336   5.694   5.859   4.837
 6124TIP3    H218337   5.805   5.903   4.744
 6125TIP3   OH218338   5.506   5.288   5.277
 6125TIP3    H118339   5.480   5.351   5.210
 6125TIP3    H218340   5.494   5.334   5.360
 6126TIP3   OH218341   5.941   0.579   0.773
 6126TIP3    H118342   5.962   0.486   0.761
 6126TIP3    H218343   5.991   0.605   0.850
 6127TIP3   OH218344   6.981   5.198   0.968
 6127TIP3    H118345   7.005   5.130   0.905
 6127TIP3    H218346   7.047   5.266   0.957
 6128TIP3   OH218347   2.756   3.326   4.182
 6128TIP3    H118348   2.776   3.298   4.092
 6128TIP3    H218349   2.689   3.264   4.211
 6129TIP3   OH218350   0.005   6.450   1.774
 6129TIP3    H118351   0.044   6.495   1.700
 6129TIP3    H218352   0.078   6.410   1.820
 6130TIP3   OH218353   1.274   6.690   3.467
 6130TIP3    H118354   1.292   6.678   3.560
 6130TIP3    H218355   1.223   6.614   3.442
 6131TIP3   OH218356   3.530   2.933   3.033
 6131TIP3    H118357   3.478   2.863   2.993
 6131TIP3    H218358   3.619   2.917   3.001
 6132TIP3   OH218359   5.288   5.181   3.235
 6132TIP3    H118360   5.210   5.234   3.216
 6132TIP3    H218361   5.327   5.224   3.311
 6133TIP3   OH218362   1.277   1.148   1.575
 6133TIP3    H118363   1.373   1.146   1.570
 6133TIP3    H218364   1.258   1.222   1.632
 6134TIP3   OH218365   4.336   2.726   1.791
 6134TIP3    H118366   4.368   2.645   1.753
 6134TIP3    H218367   4.254   2.744   1.744
 6135TIP3   OH218368   3.960   3.153   0.728
 6135TIP3    H118369   3.883   3.208   0.720
 6135TIP3    H218370   4.021   3.203   0.781
 6136TIP3   OH218371   5.527   5.266   4.909
 6136TIP3    H118372   5.490   5.326   4.844
 6136TIP3    H218373   5.453   5.212   4.936
 6137TIP3   OH218374   1.659   0.053   4.202
 6137TIP3    H118375   1.734   0.112   4.194
 6137TIP3    H218376   1.673   0.008   4.285
 6138TIP3   OH218377   2.416   3.126   0.691
 6138TIP3    H118378   2.448   3.046   0.649
 6138TIP3    H218379   2.367   3.096   0.767
 6139TIP3   OH218380   4.608   4.965   4.177
 6139TIP3    H118381   4.655   4.890   4.140
 6139TIP3    H218382   4.672   5.006   4.236
 6140TIP3   OH218383   2.899   6.158   0.684
 6140TIP3    H118384   2.995   6.148   0.682
 6140TIP3    H218385   2.872   6.109   0.761
 6141TIP3   OH218386   0.370   6.659   5.755
 6141TIP3    H118387   0.416   6.598   5.812
 6141TIP3    H218388   0.358   6.737   5.809
 6142TIP3   OH218389   1.954   3.132   0.987
 6142TIP3    H118390   1.966   3.093   1.074
 6142TIP3    H218391   1.910   3.215   1.004
 6143TIP3   OH218392   3.437   6.539   0.222
 6143TIP3    H118393   3.350   6.527   0.185
 6143TIP3    H218394   3.497   6.505   0.155
 6144TIP3   OH218395   5.769   0.229   2.464
 6144TIP3    H118396   5.815   0.219   2.380
 6144TIP3    H218397   5.700   0.163   2.461
 6145TIP3   OH218398   0.298   5.542   3.279
 6145TIP3    H118399   0.265   5.600   3.211
 6145TIP3    H218400   0.272   5.583   3.361
 6146TIP3   OH218401   6.095   3.788   4.968
 6146TIP3    H118402   6.088   3.857   5.033
 6146TIP3    H218403   6.024   3.806   4.906
 6147TIP3   OH218404   1.810   3.666   0.914
 6147TIP3    H118405   1.886   3.709   0.952
 6147TIP3    H218406   1.847   3.596   0.860
 6148TIP3   OH218407   6.006   6.544   2.085
 6148TIP3    H118408   5.927   6.539   2.031
 6148TIP3    H218409   5.973   6.549   2.174
 6149TIP3   OH218410   0.431   2.439   4.116
 6149TIP3    H118411   0.523   2.433   4.091
 6149TIP3    H218412   0.395   2.352   4.095
 6150TIP3   OH218413   2.223   3.891   4.683
 6150TIP3    H118414   2.185   3.831   4.747
 6150TIP3    H218415   2.307   3.851   4.660
 6151TIP3   OH218416   6.378   5.323   5.301
 6151TIP3    H118417   6.465   5.295   5.276
 6151TIP3    H218418   6.352   5.263   5.371
 6152TIP3   OH218419   6.609   2.676   3.096
 6152TIP3    H118420   6.656   2.634   3.168
 6152TIP3    H218421   6.593   2.765   3.127
 6153TIP3   OH218422   4.135   1.125   3.153
 6153TIP3    H118423   4.099   1.179   3.082
 6153TIP3    H218424   4.058   1.099   3.204
 6154TIP3   OH218425   1.436   3.913   1.190
 6154TIP3    H118426   1.430   3.927   1.096
 6154TIP3    H218427   1.389   3.987   1.228
 6155TIP3   OH218428   2.272   4.460   3.056
 6155TIP3    H118429   2.210   4.531   3.075
 6155TIP3    H218430   2.242   4.388   3.111
 6156TIP3   OH218431   6.241   3.510   4.640
 6156TIP3    H118432   6.300   3.584   4.625
 6156TIP3    H218433   6.206   3.490   4.553
 6157TIP3   OH218434   5.031   2.802   2.123
 6157TIP3    H118435   5.069   2.822   2.037
 6157TIP3    H218436   4.990   2.883   2.151
 6158TIP3   OH218437   1.580   3.289   0.799
 6158TIP3    H118438   1.565   3.308   0.891
 6158TIP3    H218439   1.565   3.194   0.792
 6159TIP3   OH218440   4.760   4.602   1.256
 6159TIP3    H118441   4.691   4.563   1.203
 6159TIP3    H218442   4.718   4.677   1.298
 6160TIP3   OH218443   2.812   3.225   3.938
 6160TIP3    H118444   2.856   3.143   3.959
 6160TIP3    H218445   2.823   3.234   3.843
 6161TIP3   OH218446   1.236   6.797   2.963
 6161TIP3    H118447   1.300   6.726   2.957
 6161TIP3    H218448   1.224   6.810   3.057
 6162TIP3   OH218449   4.148   4.935   3.947
 6162TIP3    H118450   4.183   4.962   3.862
 6162TIP3    H218451   4.217   4.958   4.009
 6163TIP3   OH218452   3.702   2.193   0.981
 6163TIP3    H118453   3.624   2.243   0.954
 6163TIP3    H218454   3.731   2.150   0.901
 6164TIP3   OH218455   4.208   2.458   3.140
 6164TIP3    H118456   4.193   2.536   3.193
 6164TIP3    H218457   4.293   2.425   3.168
 6165TIP3   OH218458   2.898   4.056   5.407
 6165TIP3    H118459   2.847   4.073   5.328
 6165TIP3    H218460   2.984   4.096   5.388
 6166TIP3   OH218461   5.958   0.285   2.992
 6166TIP3    H118462   5.913   0.263   2.910
 6166TIP3    H218463   5.897   0.343   3.038
 6167TIP3   OH218464   3.336   4.595   0.461
 6167TIP3    H118465   3.350   4.513   0.413
 6167TIP3    H218466   3.252   4.627   0.429
 6168TIP3   OH218467   6.555   4.358   0.564
 6168TIP3    H118468   6.505   4.428   0.522
 6168TIP3    H218469   6.646   4.387   0.559
 6169TIP3   OH218470   0.680   1.393   4.142
 6169TIP3    H118471   0.745   1.430   4.083
 6169TIP3    H218472   0.667   1.303   4.110
 6170TIP3   OH218473   2.590   3.274   4.562
 6170TIP3    H118474   2.534   3.244   4.491
 6170TIP3    H218475   2.533   3.329   4.615
 6171TIP3   OH218476   0.972   2.632   5.365
 6171TIP3    H118477   0.907   2.595   5.306
 6171TIP3    H218478   0.923   2.695   5.418
 6172TIP3   OH218479   2.997   5.736   4.160
 6172TIP3    H118480   2.981   5.648   4.195
 6172TIP3    H218481   3.087   5.733   4.128
 6173TIP3   OH218482   3.360   2.871   2.553
 6173TIP3    H118483   3.374   2.965   2.538
 6173TIP3    H218484   3.382   2.830   2.469
 6174TIP3   OH218485   7.024   4.421   5.146
 6174TIP3    H118486   7.119   4.428   5.137
 6174TIP3    H218487   6.994   4.383   5.064
 6175TIP3   OH218488   1.975   4.045   2.131
 6175TIP3    H118489   1.907   4.082   2.187
 6175TIP3    H218490   1.942   4.056   2.042
 6176TIP3   OH218491   7.082   1.711   0.627
 6176TIP3    H118492   7.125   1.796   0.623
 6176TIP3    H218493   7.151   1.649   0.650
 6177TIP3   OH218494   6.854   3.368   0.320
 6177TIP3    H118495   6.777   3.420   0.300
 6177TIP3    H218496   6.872   3.386   0.413
 6178TIP3   OH218497   0.376   2.352   1.154
 6178TIP3    H118498   0.422   2.392   1.228
 6178TIP3    H218499   0.438   2.288   1.119
 6179TIP3   OH218500   6.361   0.115   2.611
 6179TIP3    H118501   6.274   0.134   2.647
 6179TIP3    H218502   6.403   0.201   2.603
 6180TIP3   OH218503   2.207   5.780   3.504
 6180TIP3    H118504   2.135   5.738   3.455
 6180TIP3    H218505   2.186   5.874   3.501
 6181TIP3   OH218506   5.936   4.715   1.555
 6181TIP3    H118507   5.928   4.702   1.650
 6181TIP3    H218508   5.985   4.639   1.525
 6182TIP3   OH218509   1.898   1.711   4.665
 6182TIP3    H118510   1.812   1.683   4.637
 6182TIP3    H218511   1.881   1.788   4.721
 6183TIP3   OH218512   2.380   2.008   5.187
 6183TIP3    H118513   2.435   2.008   5.109
 6183TIP3    H218514   2.300   1.962   5.160
 6184TIP3   OH218515   1.038   5.917   3.440
 6184TIP3    H118516   1.131   5.899   3.428
 6184TIP3    H218517   1.011   5.959   3.358
 6185TIP3   OH218518   1.176   1.393   1.991
 6185TIP3    H118519   1.213   1.336   2.058
 6185TIP3    H218520   1.229   1.472   1.995
 6186TIP3   OH218521   3.172   6.671   0.418
 6186TIP3    H118522   3.143   6.701   0.332
 6186TIP3    H218523   3.095   6.680   0.474
 6187TIP3   OH218524   2.093   5.722   1.766
 6187TIP3    H118525   2.179   5.763   1.759
 6187TIP3    H218526   2.050   5.739   1.682
 6188TIP3   OH218527   7.072   1.679   2.663
 6188TIP3    H118528   7.138   1.725   2.714
 6188TIP3    H218529   7.119   1.607   2.621
 6189TIP3   OH218530   5.598   0.027   2.329
 6189TIP3    H118531   5.515  -0.018   2.343
 6189TIP3    H218532   5.590   0.064   2.241
 6190TIP3   OH218533   0.585   1.608   3.027
 6190TIP3    H118534   0.651   1.551   3.065
 6190TIP3    H218535   0.589   1.688   3.080
 6191TIP3   OH218536   1.305   0.386   1.819
 6191TIP3    H118537   1.226   0.343   1.787
 6191TIP3    H218538   1.373   0.361   1.756
 6192TIP3   OH218539   5.518   3.087   2.116
 6192TIP3    H118540   5.522   3.177   2.083
 6192TIP3    H218541   5.583   3.040   2.064
 6193TIP3   OH218542   0.656   3.958   2.967
 6193TIP3    H118543   0.622   4.030   3.021
 6193TIP3    H218544   0.578   3.918   2.929
 6194TIP3   OH218545   0.186   2.259   5.300
 6194TIP3    H118546   0.159   2.181   5.253
 6194TIP3    H218547   0.110   2.317   5.298
 6195TIP3   OH218548   1.569   4.122   3.277
 6195TIP3    H118549   1.508   4.196   3.272
 6195TIP3    H218550   1.532   4.057   3.217
 6196TIP3   OH218551   3.162   2.296   5.550
 6196TIP3    H118552   3.107   2.345   5.489
 6196TIP3    H218553   3.186   2.359   5.618
 6197TIP3   OH218554   1.499   4.326   2.804
 6197TIP3    H118555   1.418   4.356   2.845
 6197TIP3    H218556   1.480   4.325   2.711
 6198TIP3   OH218557   0.629   6.096   3.713
 6198TIP3    H118558   0.693   6.167   3.709
 6198TIP3    H218559   0.660   6.040   3.785
 6199TIP3   OH218560   0.136   1.386   5.182
 6199TIP3    H118561   0.113   1.432   5.263
 6199TIP3    H218562   0.054   1.345   5.153
 6200TIP3   OH218563   0.921   4.651   2.558
 6200TIP3    H118564   0.939   4.561   2.531
 6200TIP3    H218565   0.852   4.681   2.498
 6201TIP3   OH218566   6.776   1.423   0.927
 6201TIP3    H118567   6.829   1.483   0.876
 6201TIP3    H218568   6.833   1.391   0.997
 6202TIP3   OH218569   2.631   0.539   3.840
 6202TIP3    H118570   2.538   0.531   3.819
 6202TIP3    H218571   2.676   0.511   3.760
 6203TIP3   OH218572   6.095   2.738   2.521
 6203TIP3    H118573   6.094   2.798   2.595
 6203TIP3    H218574   6.018   2.682   2.533
 6204TIP3   OH218575   3.672   6.246   0.952
 6204TIP3    H118576   3.762   6.230   0.925
 6204TIP3    H218577   3.619   6.196   0.890
 6205TIP3   OH218578   2.067   6.771   5.093
 6205TIP3    H118579   2.072   6.817   5.177
 6205TIP3    H218580   2.091   6.838   5.028
 6206TIP3   OH218581   6.152   4.995   5.508
 6206TIP3    H118582   6.082   5.045   5.466
 6206TIP3    H218583   6.226   5.055   5.512
 6207TIP3   OH218584   5.344   6.709   4.889
 6207TIP3    H118585   5.350   6.675   4.800
 6207TIP3    H218586   5.358   6.803   4.881
 6208TIP3   OH218587   5.186   3.339   1.501
 6208TIP3    H118588   5.233   3.391   1.436
 6208TIP3    H218589   5.150   3.404   1.562
 6209TIP3   OH218590   3.674   2.651   2.856
 6209TIP3    H118591   3.587   2.678   2.827
 6209TIP3    H218592   3.677   2.557   2.839
 6210TIP3   OH218593   0.159   3.755   5.800
 6210TIP3    H118594   0.162   3.808   5.880
 6210TIP3    H218595   0.239   3.702   5.803
 6211TIP3   OH218596   3.671   1.675   5.791
 6211TIP3    H118597   3.649   1.587   5.761
 6211TIP3    H218598   3.766   1.674   5.801
 6212TIP3   OH218599   0.739   4.620   0.129
 6212TIP3    H118600   0.725   4.594   0.038
 6212TIP3    H218601   0.743   4.716   0.125
 6213TIP3   OH218602   1.594   3.549   5.929
 6213TIP3    H118603   1.637   3.622   5.975
 6213TIP3    H218604   1.565   3.586   5.846
 6214TIP3   OH218605   0.800   2.859   1.090
 6214TIP3    H118606   0.803   2.923   1.161
 6214TIP3    H218607   0.867   2.795   1.112
 6215TIP3   OH218608   0.572   4.537   0.848
 6215TIP3    H118609   0.560   4.451   0.887
 6215TIP3    H218610   0.642   4.525   0.784
 6216TIP3   OH218611   0.643   2.647   0.971
 6216TIP3    H118612   0.687   2.715   1.023
 6216TIP3    H218613   0.672   2.565   1.010
 6217TIP3   OH218614   7.140   4.828   0.877
 6217TIP3    H118615   7.180   4.855   0.794
 6217TIP3    H218616   7.161   4.735   0.884
 6218TIP3   OH218617   3.182   3.038   2.154
 6218TIP3    H118618   3.153   3.008   2.240
 6218TIP3    H218619   3.180   2.960   2.099
 6219TIP3   OH218620   0.382   6.039   2.454
 6219TIP3    H118621   0.341   5.953   2.458
 6219TIP3    H218622   0.399   6.054   2.361
 6220TIP3   OH218623   6.729   4.010   0.535
 6220TIP3    H118624   6.635   3.997   0.543
 6220TIP3    H218625   6.740   4.055   0.451
 6221TIP3   OH218626   1.565   4.999   0.314
 6221TIP3    H118627   1.590   4.923   0.261
 6221TIP3    H218628   1.486   4.970   0.360
 6222TIP3   OH218629   4.186   5.894   2.250
 6222TIP3    H118630   4.192   5.933   2.338
 6222TIP3    H218631   4.115   5.830   2.257
 6223TIP3   OH218632   3.599   5.367   0.379
 6223TIP3    H118633   3.523   5.374   0.320
 6223TIP3    H218634   3.658   5.436   0.348
 6224TIP3   OH218635   1.636   6.421   0.534
 6224TIP3    H118636   1.594   6.497   0.492
 6224TIP3    H218637   1.650   6.449   0.625
 6225TIP3   OH218638   4.727   1.269   5.495
 6225TIP3    H118639   4.772   1.325   5.432
 6225TIP3    H218640   4.644   1.246   5.453
 6226TIP3   OH218641   6.780   4.931   1.091
 6226TIP3    H118642   6.872   4.954   1.099
 6226TIP3    H218643   6.733   5.006   1.127
 6227TIP3   OH218644   2.902   3.952   0.897
 6227TIP3    H118645   2.858   3.930   0.979
 6227TIP3    H218646   2.834   3.941   0.830
 6228TIP3   OH218647   3.013   4.458   2.746
 6228TIP3    H118648   3.069   4.381   2.759
 6228TIP3    H218649   3.072   4.523   2.708
 6229TIP3   OH218650   3.172   6.026   3.660
 6229TIP3    H118651   3.132   5.969   3.595
 6229TIP3    H218652   3.101   6.082   3.690
 6230TIP3   OH218653   5.666   1.528   2.226
 6230TIP3    H118654   5.734   1.552   2.163
 6230TIP3    H218655   5.714   1.501   2.304
 6231TIP3   OH218656   4.527   2.386   2.811
 6231TIP3    H118657   4.531   2.462   2.754
 6231TIP3    H218658   4.552   2.312   2.756
 6232TIP3   OH218659   3.227   4.532   2.379
 6232TIP3    H118660   3.302   4.584   2.348
 6232TIP3    H218661   3.246   4.514   2.471
 6233TIP3   OH218662   4.010   3.604   5.631
 6233TIP3    H118663   4.062   3.670   5.677
 6233TIP3    H218664   4.006   3.530   5.691
 6234TIP3   OH218665   6.769   2.841   4.491
 6234TIP3    H118666   6.743   2.807   4.406
 6234TIP3    H218667   6.819   2.920   4.471
 6235TIP3   OH218668   5.480   5.041   2.559
 6235TIP3    H118669   5.559   4.987   2.552
 6235TIP3    H218670   5.481   5.074   2.649
 6236TIP3   OH218671   6.626   2.601   5.665
 6236TIP3    H118672   6.635   2.543   5.589
 6236TIP3    H218673   6.535   2.630   5.663
 6237TIP3   OH218674   6.729   3.244   4.548
 6237TIP3    H118675   6.802   3.210   4.601
 6237TIP3    H218676   6.769   3.312   4.494
 6238TIP3   OH218677   3.282   3.534   0.219
 6238TIP3    H118678   3.286   3.597   0.290
 6238TIP3    H218679   3.300   3.449   0.260
 6239TIP3   OH218680   3.314   1.571   0.114
 6239TIP3    H118681   3.383   1.505   0.106
 6239TIP3    H218682   3.233   1.524   0.096
 6240TIP3   OH218683   5.292   0.773   1.761
 6240TIP3    H118684   5.348   0.819   1.699
 6240TIP3    H218685   5.277   0.835   1.832
 6241TIP3   OH218686   3.709   5.379   5.178
 6241TIP3    H118687   3.655   5.311   5.218
 6241TIP3    H218688   3.676   5.387   5.089
 6242TIP3   OH218689   3.675   5.894   2.348
 6242TIP3    H118690   3.632   5.919   2.430
 6242TIP3    H218691   3.722   5.813   2.368
 6243TIP3   OH218692   6.822   1.956   4.909
 6243TIP3    H118693   6.879   2.029   4.932
 6243TIP3    H218694   6.874   1.903   4.848
 6244TIP3   OH218695   6.765   2.649   0.758
 6244TIP3    H118696   6.796   2.737   0.778
 6244TIP3    H218697   6.684   2.663   0.709
 6245TIP3   OH218698   4.168   6.270   3.861
 6245TIP3    H118699   4.156   6.225   3.944
 6245TIP3    H218700   4.259   6.254   3.838
 6246TIP3   OH218701   0.713   2.793   3.156
 6246TIP3    H118702   0.795   2.840   3.139
 6246TIP3    H218703   0.704   2.795   3.251
 6247TIP3   OH218704   0.349   5.991   1.710
 6247TIP3    H118705   0.392   6.035   1.637
 6247TIP3    H218706   0.261   5.971   1.679
 6248TIP3   OH218707   7.160   0.481   4.013
 6248TIP3    H118708   7.121   0.458   4.098
 6248TIP3    H218709   7.086   0.513   3.961
 6249TIP3   OH218710   1.921   0.282   1.231
 6249TIP3    H118711   1.856   0.212   1.223
 6249TIP3    H218712   1.871   0.362   1.221
 6250TIP3   OH218713   3.926   4.722   2.969
 6250TIP3    H118714   3.946   4.814   2.983
 6250TIP3    H218715   3.888   4.693   3.052
 6251TIP3   OH218716   4.746   5.671   3.117
 6251TIP3    H118717   4.713   5.645   3.203
 6251TIP3    H218718   4.676   5.648   3.056
 6252TIP3   OH218719   6.957   3.867   0.087
 6252TIP3    H118720   6.888   3.837   0.028
 6252TIP3    H218721   6.916   3.869   0.173
 6253TIP3   OH218722   2.043   5.606   0.164
 6253TIP3    H118723   2.025   5.677   0.225
 6253TIP3    H218724   1.989   5.626   0.087
 6254TIP3   OH218725   4.744   2.345   5.270
 6254TIP3    H118726   4.787   2.427   5.243
 6254TIP3    H218727   4.754   2.287   5.194
 6255TIP3   OH218728   6.329   6.252   4.720
 6255TIP3    H118729   6.390   6.291   4.784
 6255TIP3    H218730   6.274   6.193   4.773
 6256TIP3   OH218731   2.059   0.610   4.059
 6256TIP3    H118732   2.095   0.538   4.113
 6256TIP3    H218733   1.965   0.608   4.076
 6257TIP3   OH218734   2.609   3.691   3.211
 6257TIP3    H118735   2.613   3.778   3.252
 6257TIP3    H218736   2.699   3.660   3.213
 6258TIP3   OH218737   3.827   0.608   3.234
 6258TIP3    H118738   3.898   0.662   3.199
 6258TIP3    H218739   3.750   0.633   3.181
 6259TIP3   OH218740   4.054   5.466   3.391
 6259TIP3    H118741   4.116   5.398   3.366
 6259TIP3    H218742   4.105   5.547   3.388
 6260TIP3   OH218743   0.101   2.790   5.179
 6260TIP3    H118744   0.007   2.773   5.165
 6260TIP3    H218745   0.106   2.822   5.269
 6261TIP3   OH218746   1.710   1.537   4.543
 6261TIP3    H118747   1.712   1.465   4.480
 6261TIP3    H218748   1.714   1.494   4.629
 6262TIP3   OH218749   2.640   0.164   0.156
 6262TIP3    H118750   2.623   0.258   0.155
 6262TIP3    H218751   2.683   0.145   0.073
 6263TIP3   OH218752   4.841   5.957   3.513
 6263TIP3    H118753   4.925   5.997   3.490
 6263TIP3    H218754   4.786   5.971   3.436
 6264TIP3   OH218755   2.786   4.557   1.255
 6264TIP3    H118756   2.851   4.583   1.320
 6264TIP3    H218757   2.824   4.582   1.171
 6265TIP3   OH218758   5.089   5.484   4.155
 6265TIP3    H118759   5.104   5.564   4.106
 6265TIP3    H218760   5.047   5.513   4.236
 6266TIP3   OH218761   1.568   6.005   4.064
 6266TIP3    H118762   1.509   5.940   4.104
 6266TIP3    H218763   1.651   5.994   4.111
 6267TIP3   OH218764   2.492   3.349   5.685
 6267TIP3    H118765   2.446   3.340   5.769
 6267TIP3    H218766   2.473   3.268   5.638
 6268TIP3   OH218767   1.597   6.695   3.930
 6268TIP3    H118768   1.620   6.672   4.020
 6268TIP3    H218769   1.548   6.777   3.938
 6269TIP3   OH218770   5.543   0.816   5.443
 6269TIP3    H118771   5.632   0.827   5.411
 6269TIP3    H218772   5.553   0.810   5.538
 6270TIP3   OH218773   3.793   3.818   5.857
 6270TIP3    H118774   3.728   3.838   5.924
 6270TIP3    H218775   3.868   3.784   5.905
 6271TIP3   OH218776   6.055   1.051   3.131
 6271TIP3    H118777   6.058   0.987   3.203
 6271TIP3    H218778   6.098   1.129   3.167
 6272TIP3   OH218779   0.367   5.345   3.667
 6272TIP3    H118780   0.274   5.362   3.654
 6272TIP3    H218781   0.381   5.359   3.761
 6273TIP3   OH218782   2.736   1.750   0.335
 6273TIP3    H118783   2.693   1.818   0.387
 6273TIP3    H218784   2.708   1.668   0.374
 6274TIP3   OH218785   1.835   2.919   3.856
 6274TIP3    H118786   1.835   2.856   3.784
 6274TIP3    H218787   1.822   2.865   3.935
 6275TIP3   OH218788   3.498   0.718   3.726
 6275TIP3    H118789   3.440   0.649   3.759
 6275TIP3    H218790   3.577   0.709   3.779
 6276TIP3   OH218791   2.542   0.316   4.217
 6276TIP3    H118792   2.574   0.328   4.128
 6276TIP3    H218793   2.608   0.261   4.259
 6277TIP3   OH218794   5.986   2.497   0.666
 6277TIP3    H118795   6.061   2.548   0.698
 6277TIP3    H218796   6.022   2.443   0.596
 6278TIP3   OH218797   1.310   4.174   4.302
 6278TIP3    H118798   1.221   4.167   4.268
 6278TIP3    H218799   1.308   4.127   4.386
 6279TIP3   OH218800   1.861   4.039   4.955
 6279TIP3    H118801   1.879   3.949   4.929
 6279TIP3    H218802   1.786   4.065   4.901
 6280TIP3   OH218803   1.684   6.420   2.265
 6280TIP3    H118804   1.733   6.382   2.338
 6280TIP3    H218805   1.647   6.344   2.219
 6281TIP3   OH218806   1.399   4.076   1.681
 6281TIP3    H118807   1.415   3.982   1.694
 6281TIP3    H218808   1.367   4.106   1.766
 6282TIP3   OH218809   4.429   0.529   3.235
 6282TIP3    H118810   4.426   0.618   3.270
 6282TIP3    H218811   4.522   0.507   3.231
 6283TIP3   OH218812   4.790   4.966   0.342
 6283TIP3    H118813   4.775   5.049   0.296
 6283TIP3    H218814   4.724   4.907   0.307
 6284TIP3   OH218815   5.733   3.503   1.245
 6284TIP3    H118816   5.663   3.515   1.182
 6284TIP3    H218817   5.810   3.540   1.202
 6285TIP3   OH218818   2.401   0.798   0.166
 6285TIP3    H118819   2.430   0.866   0.104
 6285TIP3    H218820   2.470   0.795   0.232
 6286TIP3   OH218821   6.762   0.207   3.924
 6286TIP3    H118822   6.763   0.278   3.989
 6286TIP3    H218823   6.844   0.160   3.939
 6287TIP3   OH218824   2.663   5.258   3.764
 6287TIP3    H118825   2.756   5.243   3.743
 6287TIP3    H218826   2.660   5.349   3.794
 6288TIP3   OH218827   7.038   0.320   4.221
 6288TIP3    H118828   7.131   0.332   4.242
 6288TIP3    H218829   6.999   0.291   4.303
 6289TIP3   OH218830   5.231   6.274   0.626
 6289TIP3    H118831   5.290   6.287   0.552
 6289TIP3    H218832   5.273   6.206   0.679
 6290TIP3   OH218833   4.101   2.487   0.604
 6290TIP3    H118834   4.081   2.468   0.513
 6290TIP3    H218835   4.192   2.459   0.615
 6291TIP3   OH218836   3.345   6.154   2.881
 6291TIP3    H118837   3.264   6.138   2.930
 6291TIP3    H218838   3.402   6.198   2.944
 6292TIP3   OH218839   4.375   2.291   1.020
 6292TIP3    H118840   4.406   2.273   0.931
 6292TIP3    H218841   4.444   2.346   1.058
 6293TIP3   OH218842   3.995   6.622   2.995
 6293TIP3    H118843   3.932   6.634   2.924
 6293TIP3    H218844   4.033   6.709   3.008
 6294TIP3   OH218845   5.076   0.771   2.311
 6294TIP3    H118846   4.988   0.741   2.333
 6294TIP3    H218847   5.065   0.862   2.286
 6295TIP3   OH218848   2.637   2.196   2.577
 6295TIP3    H118849   2.653   2.121   2.521
 6295TIP3    H218850   2.629   2.270   2.516
 6296TIP3   OH218851   5.316   0.096   2.181
 6296TIP3    H118852   5.324   0.124   2.090
 6296TIP3    H218853   5.222   0.103   2.200
 6297TIP3   OH218854   0.505   6.476   2.887
 6297TIP3    H118855   0.530   6.390   2.851
 6297TIP3    H218856   0.420   6.494   2.847
 6298TIP3   OH218857   5.914   3.334   2.495
 6298TIP3    H118858   5.948   3.415   2.534
 6298TIP3    H218859   5.893   3.359   2.404
 6299TIP3   OH218860   1.021   2.315   0.020
 6299TIP3    H118861   1.058   2.388   0.069
 6299TIP3    H218862   0.933   2.344  -0.003
 6300TIP3   OH218863   5.622   2.109   4.579
 6300TIP3    H118864   5.536   2.145   4.559
 6300TIP3    H218865   5.650   2.068   4.497
 6301TIP3   OH218866   2.106   5.081   0.069
 6301TIP3    H118867   2.093   5.034  -0.013
 6301TIP3    H218868   2.201   5.081   0.082
 6302TIP3   OH218869   3.992   5.462   4.605
 6302TIP3    H118870   3.984   5.367   4.599
 6302TIP3    H218871   4.083   5.481   4.585
 6303TIP3   OH218872   1.618   6.652   2.001
 6303TIP3    H118873   1.530   6.629   2.030
 6303TIP3    H218874   1.673   6.581   2.032
 6304TIP3   OH218875   5.453   1.016   3.686
 6304TIP3    H118876   5.537   0.989   3.650
 6304TIP3    H218877   5.389   0.996   3.617
 6305TIP3   OH218878   6.510   4.579   1.274
 6305TIP3    H118879   6.538   4.668   1.298
 6305TIP3    H218880   6.483   4.539   1.357
 6306TIP3   OH218881   6.169   2.648   5.383
 6306TIP3    H118882   6.208   2.594   5.315
 6306TIP3    H218883   6.108   2.705   5.337
 6307TIP3   OH218884   1.454   0.647   5.495
 6307TIP3    H118885   1.428   0.582   5.429
 6307TIP3    H218886   1.547   0.631   5.508
 6308TIP3   OH218887   1.392   2.619   0.518
 6308TIP3    H118888   1.304   2.647   0.494
 6308TIP3    H218889   1.391   2.619   0.614
 6309TIP3   OH218890   7.218   5.776   1.428
 6309TIP3    H118891   7.257   5.853   1.468
 6309TIP3    H218892   7.183   5.807   1.345
 6310TIP3   OH218893   5.625   6.567   0.918
 6310TIP3    H118894   5.694   6.627   0.888
 6310TIP3    H218895   5.668   6.482   0.922
 6311TIP3   OH218896   5.647   6.611   4.988
 6311TIP3    H118897   5.649   6.707   4.994
 6311TIP3    H218898   5.738   6.586   4.975
 6312TIP3   OH218899   2.204   3.676   5.559
 6312TIP3    H118900   2.190   3.598   5.507
 6312TIP3    H218901   2.124   3.728   5.548
 6313TIP3   OH218902   0.335   0.932   3.539
 6313TIP3    H118903   0.417   0.978   3.556
 6313TIP3    H218904   0.292   0.928   3.625
 6314TIP3   OH218905   5.680   0.323   2.043
 6314TIP3    H118906   5.601   0.354   2.087
 6314TIP3    H218907   5.721   0.402   2.008
 6315TIP3   OH218908   2.067   4.731   1.150
 6315TIP3    H118909   2.016   4.708   1.227
 6315TIP3    H218910   2.021   4.806   1.113
 6316TIP3   OH218911   4.270   3.199   1.578
 6316TIP3    H118912   4.280   3.144   1.500
 6316TIP3    H218913   4.260   3.287   1.544
 6317TIP3   OH218914   2.935   2.180   3.235
 6317TIP3    H118915   2.881   2.210   3.162
 6317TIP3    H218916   2.913   2.239   3.307
 6318TIP3   OH218917   2.481   5.084   2.867
 6318TIP3    H118918   2.565   5.039   2.869
 6318TIP3    H218919   2.496   5.166   2.915
 6319TIP3   OH218920   6.831   5.906   4.808
 6319TIP3    H118921   6.743   5.915   4.846
 6319TIP3    H218922   6.840   5.980   4.749
 6320TIP3   OH218923   4.658   4.444   1.026
 6320TIP3    H118924   4.603   4.367   1.015
 6320TIP3    H218925   4.735   4.413   1.072
 6321TIP3   OH218926   5.137   5.737   2.643
 6321TIP3    H118927   5.165   5.655   2.601
 6321TIP3    H218928   5.205   5.800   2.619
 6322TIP3   OH218929   4.431   1.069   3.616
 6322TIP3    H118930   4.430   1.036   3.707
 6322TIP3    H218931   4.393   0.997   3.565
 6323TIP3   OH218932   2.724   4.873   5.044
 6323TIP3    H118933   2.797   4.857   4.984
 6323TIP3    H218934   2.646   4.854   4.992
 6324TIP3   OH218935   2.789   4.195   1.923
 6324TIP3    H118936   2.794   4.154   2.009
 6324TIP3    H218937   2.745   4.131   1.868
 6325TIP3   OH218938   5.199   5.297   2.609
 6325TIP3    H118939   5.205   5.379   2.560
 6325TIP3    H218940   5.109   5.295   2.641
 6326TIP3   OH218941   2.195   5.125   3.135
 6326TIP3    H118942   2.159   5.134   3.224
 6326TIP3    H218943   2.243   5.042   3.137
 6327TIP3   OH218944   5.724   2.979   2.798
 6327TIP3    H118945   5.635   3.014   2.798
 6327TIP3    H218946   5.780   3.054   2.781
 6328TIP3   OH218947   1.018   4.766   0.835
 6328TIP3    H118948   0.934   4.806   0.809
 6328TIP3    H218949   1.005   4.740   0.926
 6329TIP3   OH218950   4.282   4.984   0.095
 6329TIP3    H118951   4.337   4.974   0.173
 6329TIP3    H218952   4.234   5.066   0.110
 6330TIP3   OH218953   3.176   0.806   2.214
 6330TIP3    H118954   3.265   0.815   2.182
 6330TIP3    H218955   3.146   0.722   2.179
 6331TIP3   OH218956   2.320   0.901   1.869
 6331TIP3    H118957   2.368   0.938   1.943
 6331TIP3    H218958   2.382   0.902   1.797
 6332TIP3   OH218959   6.668   3.783   4.071
 6332TIP3    H118960   6.655   3.720   4.000
 6332TIP3    H218961   6.750   3.828   4.049
 6333TIP3   OH218962   0.191   0.830   5.484
 6333TIP3    H118963   0.110   0.781   5.473
 6333TIP3    H218964   0.167   0.921   5.468
 6334TIP3   OH218965   7.185   3.482   1.084
 6334TIP3    H118966   7.193   3.404   1.028
 6334TIP3    H218967   7.129   3.454   1.156
 6335TIP3   OH218968   6.879   1.383   1.377
 6335TIP3    H118969   6.942   1.332   1.428
 6335TIP3    H218970   6.857   1.457   1.433
 6336TIP3   OH218971   4.587   2.257   2.574
 6336TIP3    H118972   4.623   2.340   2.541
 6336TIP3    H218973   4.577   2.203   2.496
 6337TIP3   OH218974   5.111   1.785   0.201
 6337TIP3    H118975   5.189   1.838   0.189
 6337TIP3    H218976   5.091   1.791   0.294
 6338TIP3   OH218977   4.886   6.746   1.610
 6338TIP3    H118978   4.812   6.749   1.549
 6338TIP3    H218979   4.885   6.832   1.653
 6339TIP3   OH218980   0.084   4.367   0.777
 6339TIP3    H118981   0.085   4.286   0.828
 6339TIP3    H218982   0.162   4.363   0.723
 6340TIP3   OH218983   4.691   0.521   0.634
 6340TIP3    H118984   4.723   0.611   0.642
 6340TIP3    H218985   4.626   0.512   0.704
 6341TIP3   OH218986   3.902   1.529   5.693
 6341TIP3    H118987   3.898   1.625   5.694
 6341TIP3    H218988   3.995   1.509   5.683
 6342TIP3   OH218989   1.010   4.663   3.708
 6342TIP3    H118990   1.064   4.600   3.662
 6342TIP3    H218991   1.065   4.694   3.780
 6343TIP3   OH218992   0.740   1.458   1.810
 6343TIP3    H118993   0.730   1.418   1.896
 6343TIP3    H218994   0.702   1.545   1.819
 6344TIP3   OH218995   3.487   0.911   5.547
 6344TIP3    H118996   3.448   0.844   5.604
 6344TIP3    H218997   3.416   0.937   5.488
 6345TIP3   OH218998   2.474   3.079   1.585
 6345TIP3    H118999   2.535   3.042   1.649
 6345TIP3    H219000   2.502   3.170   1.575
 6346TIP3   OH219001   0.205   1.373   2.639
 6346TIP3    H119002   0.215   1.288   2.680
 6346TIP3    H219003   0.249   1.434   2.698
 6347TIP3   OH219004   2.719   5.560   5.322
 6347TIP3    H119005   2.672   5.488   5.280
 6347TIP3    H219006   2.808   5.555   5.287
 6348TIP3   OH219007   6.924   4.800   4.856
 6348TIP3    H119008   6.933   4.713   4.895
 6348TIP3    H219009   6.983   4.855   4.907
 6349TIP3   OH219010   3.153   4.761   5.307
 6349TIP3    H119011   3.226   4.713   5.347
 6349TIP3    H219012   3.108   4.801   5.381
 6350TIP3   OH219013   4.427   0.665   2.626
 6350TIP3    H119014   4.456   0.574   2.631
 6350TIP3    H219015   4.404   0.678   2.534
 6351TIP3   OH219016   2.890   2.965   0.597
 6351TIP3    H119017   2.939   2.889   0.627
 6351TIP3    H219018   2.916   2.975   0.505
 6352TIP3   OH219019   5.015   6.645   4.624
 6352TIP3    H119020   4.992   6.636   4.716
 6352TIP3    H219021   5.110   6.640   4.622
 6353TIP3   OH219022   2.000   5.746   0.450
 6353TIP3    H119023   2.083   5.782   0.417
 6353TIP3    H219024   2.010   5.748   0.545
 6354TIP3   OH219025   2.099   2.800   4.882
 6354TIP3    H119026   2.186   2.794   4.841
 6354TIP3    H219027   2.038   2.780   4.812
 6355TIP3   OH219028   4.233   4.452   1.924
 6355TIP3    H119029   4.328   4.439   1.916
 6355TIP3    H219030   4.212   4.519   1.859
 6356TIP3   OH219031   6.650   2.592   1.806
 6356TIP3    H119032   6.702   2.635   1.738
 6356TIP3    H219033   6.704   2.599   1.885
 6357TIP3   OH219034   6.299   5.800   1.248
 6357TIP3    H119035   6.376   5.748   1.223
 6357TIP3    H219036   6.293   5.791   1.343
 6358TIP3   OH219037   5.304   6.494   2.505
 6358TIP3    H119038   5.347   6.572   2.541
 6358TIP3    H219039   5.211   6.514   2.508
 6359TIP3   OH219040   3.856   4.787   1.529
 6359TIP3    H119041   3.917   4.861   1.531
 6359TIP3    H219042   3.909   4.712   1.505
 6360TIP3   OH219043   4.459   0.571   5.009
 6360TIP3    H119044   4.414   0.574   4.924
 6360TIP3    H219045   4.536   0.626   4.997
 6361TIP3   OH219046   1.911   5.384   1.769
 6361TIP3    H119047   1.980   5.423   1.822
 6361TIP3    H219048   1.876   5.314   1.825
 6362TIP3   OH219049   3.133   6.398   5.853
 6362TIP3    H119050   3.165   6.444   5.776
 6362TIP3    H219051   3.179   6.439   5.927
 6363TIP3   OH219052   1.694   5.526   1.614
 6363TIP3    H119053   1.640   5.557   1.687
 6363TIP3    H219054   1.777   5.501   1.655
 6364TIP3   OH219055   6.388   3.215   1.889
 6364TIP3    H119056   6.299   3.187   1.868
 6364TIP3    H219057   6.404   3.290   1.831
 6365TIP3   OH219058   6.842   1.112   0.571
 6365TIP3    H119059   6.855   1.162   0.490
 6365TIP3    H219060   6.759   1.066   0.557
 6366TIP3   OH219061   7.054   0.115   5.120
 6366TIP3    H119062   7.064   0.126   5.214
 6366TIP3    H219063   7.116   0.046   5.097
 6367TIP3   OH219064   6.511   4.346   1.506
 6367TIP3    H119065   6.491   4.283   1.437
 6367TIP3    H219066   6.440   4.334   1.570
 6368TIP3   OH219067   6.883   6.649   3.790
 6368TIP3    H119068   6.953   6.675   3.851
 6368TIP3    H219069   6.927   6.593   3.726
 6369TIP3   OH219070   3.334   4.013   1.807
 6369TIP3    H119071   3.335   4.086   1.868
 6369TIP3    H219072   3.242   3.985   1.805
 6370TIP3   OH219073   2.680   6.747   4.778
 6370TIP3    H119074   2.656   6.658   4.753
 6370TIP3    H219075   2.596   6.788   4.802
 6371TIP3   OH219076   0.188   0.052   5.167
 6371TIP3    H119077   0.235   0.021   5.245
 6371TIP3    H219078   0.177  -0.027   5.113
 6372TIP3   OH219079   6.485   5.135   5.028
 6372TIP3    H119080   6.392   5.115   5.022
 6372TIP3    H219081   6.508   5.166   4.940
 6373TIP3   OH219082   3.101   6.773   3.949
 6373TIP3    H119083   3.015   6.817   3.950
 6373TIP3    H219084   3.106   6.729   4.034
 6374TIP3   OH219085   1.028   5.946   2.953
 6374TIP3    H119086   0.953   5.981   2.904
 6374TIP3    H219087   1.004   5.856   2.972
 6375TIP3   OH219088   5.902   3.853   1.342
 6375TIP3    H119089   5.924   3.783   1.404
 6375TIP3    H219090   5.849   3.809   1.275
 6376TIP3   OH219091   2.169   1.542   4.398
 6376TIP3    H119092   2.120   1.574   4.322
 6376TIP3    H219093   2.258   1.530   4.365
 6377TIP3   OH219094   0.080   4.735   5.821
 6377TIP3    H119095   0.053   4.780   5.901
 6377TIP3    H219096   0.148   4.791   5.784
 6378TIP3   OH219097   5.395   0.446   3.407
 6378TIP3    H119098   5.377   0.492   3.325
 6378TIP3    H219099   5.478   0.401   3.392
 6379TIP3   OH219100   3.618   2.202   3.812
 6379TIP3    H119101   3.709   2.232   3.817
 6379TIP3    H219102   3.582   2.223   3.898
 6380TIP3   OH219103   5.038   4.846   3.234
 6380TIP3    H119104   5.110   4.783   3.240
 6380TIP3    H219105   4.960   4.796   3.260
 6381TIP3   OH219106   3.344   4.208   2.506
 6381TIP3    H119107   3.311   4.229   2.418
 6381TIP3    H219108   3.317   4.117   2.519
 6382TIP3   OH219109   3.859   5.916   2.141
 6382TIP3    H119110   3.789   5.905   2.205
 6382TIP3    H219111   3.883   6.008   2.148
 6383TIP3   OH219112   2.460   3.671   1.058
 6383TIP3    H119113   2.514   3.648   1.134
 6383TIP3    H219114   2.481   3.763   1.041
 6384TIP3   OH219115   1.208   2.501   5.328
 6384TIP3    H119116   1.264   2.511   5.405
 6384TIP3    H219117   1.144   2.571   5.335
 6385TIP3   OH219118   3.280   2.538   3.921
 6385TIP3    H119119   3.184   2.541   3.911
 6385TIP3    H219120   3.307   2.466   3.864
 6386TIP3   OH219121   3.040   5.461   2.207
 6386TIP3    H119122   2.973   5.401   2.175
 6386TIP3    H219123   3.111   5.454   2.143
 6387TIP3   OH219124   2.308   3.043   0.931
 6387TIP3    H119125   2.300   2.949   0.946
 6387TIP3    H219126   2.218   3.074   0.918
 6388TIP3   OH219127   5.592   2.680   4.695
 6388TIP3    H119128   5.612   2.609   4.756
 6388TIP3    H219129   5.667   2.739   4.702
 6389TIP3   OH219130   3.789   5.440   3.388
 6389TIP3    H119131   3.807   5.363   3.440
 6389TIP3    H219132   3.874   5.465   3.350
 6390TIP3   OH219133   5.806   4.816   1.088
 6390TIP3    H119134   5.777   4.727   1.065
 6390TIP3    H219135   5.724   4.864   1.102
 6391TIP3   OH219136   4.076   0.479   0.568
 6391TIP3    H119137   4.044   0.542   0.502
 6391TIP3    H219138   4.022   0.496   0.645
 6392TIP3   OH219139   2.554   0.901   3.617
 6392TIP3    H119140   2.460   0.917   3.603
 6392TIP3    H219141   2.586   0.981   3.660
 6393TIP3   OH219142   2.145   5.734   1.358
 6393TIP3    H119143   2.141   5.826   1.332
 6393TIP3    H219144   2.149   5.737   1.454
 6394TIP3   OH219145   0.443   3.572   0.619
 6394TIP3    H119146   0.417   3.562   0.528
 6394TIP3    H219147   0.360   3.570   0.668
 6395TIP3   OH219148   4.321   4.601   5.744
 6395TIP3    H119149   4.227   4.617   5.750
 6395TIP3    H219150   4.355   4.672   5.690
 6396TIP3   OH219151   4.698   0.822   0.074
 6396TIP3    H119152   4.773   0.781   0.030
 6396TIP3    H219153   4.712   0.804   0.167
 6397TIP3   OH219154   0.669   6.688   2.025
 6397TIP3    H119155   0.676   6.668   2.118
 6397TIP3    H219156   0.740   6.751   2.009
 6398TIP3   OH219157   6.049   4.971   1.796
 6398TIP3    H119158   6.064   4.893   1.850
 6398TIP3    H219159   5.954   4.972   1.781
 6399TIP3   OH219160   6.899   4.570   0.788
 6399TIP3    H119161   6.922   4.478   0.798
 6399TIP3    H219162   6.805   4.570   0.772
 6400TIP3   OH219163   1.527   1.053   1.622
 6400TIP3    H119164   1.546   0.961   1.643
 6400TIP3    H219165   1.541   1.099   1.705
 6401TIP3   OH219166   3.523   5.408   3.296
 6401TIP3    H119167   3.611   5.432   3.326
 6401TIP3    H219168   3.467   5.481   3.323
 6402TIP3   OH219169   3.076   0.882   1.137
 6402TIP3    H119170   3.064   0.870   1.043
 6402TIP3    H219171   3.169   0.904   1.147
 6403TIP3   OH219172   1.769   0.346   4.317
 6403TIP3    H119173   1.732   0.406   4.381
 6403TIP3    H219174   1.854   0.385   4.293
 6404TIP3   OH219175   2.229   4.029   5.079
 6404TIP3    H119176   2.205   3.941   5.050
 6404TIP3    H219177   2.268   4.016   5.166
 6405TIP3   OH219178   1.181   5.339   1.290
 6405TIP3    H119179   1.224   5.347   1.375
 6405TIP3    H219180   1.253   5.327   1.227
 6406TIP3   OH219181   7.163   6.339   2.760
 6406TIP3    H119182   7.256   6.356   2.772
 6406TIP3    H219183   7.153   6.245   2.778
 6407TIP3   OH219184   1.513   3.858   2.239
 6407TIP3    H119185   1.559   3.870   2.322
 6407TIP3    H219186   1.479   3.768   2.243
 6408TIP3   OH219187   1.101   2.050   5.353
 6408TIP3    H119188   1.149   2.056   5.270
 6408TIP3    H219189   1.062   2.136   5.365
 6409TIP3   OH219190   4.108   2.154   4.802
 6409TIP3    H119191   4.074   2.137   4.714
 6409TIP3    H219192   4.144   2.070   4.831
 6410TIP3   OH219193   6.786   3.295   1.613
 6410TIP3    H119194   6.824   3.372   1.655
 6410TIP3    H219195   6.727   3.331   1.546
 6411TIP3   OH219196   1.635   4.107   4.105
 6411TIP3    H119197   1.696   4.180   4.108
 6411TIP3    H219198   1.636   4.077   4.014
 6412TIP3   OH219199   4.611   4.142   1.365
 6412TIP3    H119200   4.692   4.095   1.385
 6412TIP3    H219201   4.561   4.082   1.310
 6413TIP3   OH219202   2.743   6.226   3.585
 6413TIP3    H119203   2.743   6.320   3.570
 6413TIP3    H219204   2.756   6.188   3.498
 6414TIP3   OH219205   1.407   0.951   3.150
 6414TIP3    H119206   1.480   0.924   3.204
 6414TIP3    H219207   1.446   1.008   3.084
 6415TIP3   OH219208   6.977   2.211   1.278
 6415TIP3    H119209   6.916   2.273   1.239
 6415TIP3    H219210   7.058   2.222   1.228
 6416TIP3   OH219211   5.628   1.378   0.111
 6416TIP3    H119212   5.638   1.330   0.194
 6416TIP3    H219213   5.589   1.461   0.137
 6417TIP3   OH219214   4.891   5.820   3.755
 6417TIP3    H119215   4.981   5.851   3.751
 6417TIP3    H219216   4.856   5.833   3.667
 6418TIP3   OH219217   3.088   1.221   3.396
 6418TIP3    H119218   3.160   1.204   3.336
 6418TIP3    H219219   3.045   1.300   3.362
 6419TIP3   OH219220   0.591   3.316   2.684
 6419TIP3    H119221   0.575   3.223   2.697
 6419TIP3    H219222   0.618   3.348   2.770
 6420TIP3   OH219223   1.694   0.500   4.571
 6420TIP3    H119224   1.619   0.441   4.566
 6420TIP3    H219225   1.769   0.442   4.585
 6421TIP3   OH219226   1.368   0.136   0.202
 6421TIP3    H119227   1.357   0.107   0.112
 6421TIP3    H219228   1.357   0.231   0.199
 6422TIP3   OH219229   5.795   2.409   1.621
 6422TIP3    H119230   5.769   2.492   1.582
 6422TIP3    H219231   5.713   2.366   1.644
 6423TIP3   OH219232   0.572   5.107   5.540
 6423TIP3    H119233   0.621   5.067   5.468
 6423TIP3    H219234   0.638   5.126   5.607
 6424TIP3   OH219235   0.445   3.098   0.890
 6424TIP3    H119236   0.404   3.106   0.976
 6424TIP3    H219237   0.372   3.088   0.829
 6425TIP3   OH219238   6.312   0.054   3.827
 6425TIP3    H119239   6.229   0.096   3.806
 6425TIP3    H219240   6.288  -0.038   3.843
 6426TIP3   OH219241   5.744   1.274   3.938
 6426TIP3    H119242   5.801   1.291   3.863
 6426TIP3    H219243   5.664   1.240   3.899
 6427TIP3   OH219244   2.656   1.657   4.412
 6427TIP3    H119245   2.721   1.592   4.437
 6427TIP3    H219246   2.594   1.659   4.485
 6428TIP3   OH219247   6.502   0.419   1.265
 6428TIP3    H119248   6.560   0.388   1.196
 6428TIP3    H219249   6.560   0.461   1.329
 6429TIP3   OH219250   0.047   6.086   3.570
 6429TIP3    H119251   0.092   6.114   3.490
 6429TIP3    H219252  -0.035   6.135   3.569
 6430TIP3   OH219253   1.245   5.530   3.345
 6430TIP3    H119254   1.167   5.500   3.298
 6430TIP3    H219255   1.317   5.515   3.284
 6431TIP3   OH219256   6.505   3.271   4.376
 6431TIP3    H119257   6.507   3.367   4.375
 6431TIP3    H219258   6.579   3.246   4.432
 6432TIP3   OH219259   4.711   0.722   2.900
 6432TIP3    H119260   4.752   0.666   2.965
 6432TIP3    H219261   4.635   0.673   2.871
 6433TIP3   OH219262   3.159   2.607   0.134
 6433TIP3    H119263   3.129   2.624   0.045
 6433TIP3    H219264   3.107   2.532   0.164
 6434TIP3   OH219265   7.071   4.238   1.525
 6434TIP3    H119266   7.043   4.308   1.584
 6434TIP3    H219267   6.990   4.193   1.500
 6435TIP3   OH219268   7.007   0.085   3.950
 6435TIP3    H119269   7.071   0.128   4.006
 6435TIP3    H219270   7.040   0.099   3.861
 6436TIP3   OH219271   3.606   4.507   4.072
 6436TIP3    H119272   3.643   4.424   4.104
 6436TIP3    H219273   3.655   4.575   4.118
 6437TIP3   OH219274   5.256   5.025   1.987
 6437TIP3    H119275   5.201   5.078   2.045
 6437TIP3    H219276   5.199   4.953   1.960
 6438TIP3   OH219277   1.483   3.604   0.958
 6438TIP3    H119278   1.571   3.625   0.924
 6438TIP3    H219279   1.442   3.553   0.889
 6439TIP3   OH219280   6.204   4.745   4.671
 6439TIP3    H119281   6.204   4.811   4.601
 6439TIP3    H219282   6.259   4.783   4.739
 6440TIP3   OH219283   5.440   3.383   2.668
 6440TIP3    H119284   5.490   3.459   2.640
 6440TIP3    H219285   5.423   3.334   2.588
 6441TIP3   OH219286   0.268   2.995   5.003
 6441TIP3    H119287   0.194   2.969   4.948
 6441TIP3    H219288   0.295   2.915   5.046
 6442TIP3   OH219289   4.988   1.551   4.916
 6442TIP3    H119290   5.027   1.635   4.891
 6442TIP3    H219291   4.996   1.549   5.011
 6443TIP3   OH219292   4.776   5.982   1.077
 6443TIP3    H119293   4.818   5.948   0.998
 6443TIP3    H219294   4.707   6.040   1.044
 6444TIP3   OH219295   1.544   1.996   3.770
 6444TIP3    H119296   1.630   2.031   3.745
 6444TIP3    H219297   1.556   1.964   3.859
 6445TIP3   OH219298   2.316   0.276   4.742
 6445TIP3    H119299   2.348   0.367   4.746
 6445TIP3    H219300   2.253   0.276   4.670
 6446TIP3   OH219301   6.043   5.867   1.204
 6446TIP3    H119302   6.126   5.821   1.201
 6446TIP3    H219303   6.043   5.923   1.127
 6447TIP3   OH219304   2.498   4.127   2.852
 6447TIP3    H119305   2.533   4.115   2.940
 6447TIP3    H219306   2.552   4.071   2.796
 6448TIP3   OH219307   4.887   3.865   3.763
 6448TIP3    H119308   4.941   3.786   3.765
 6448TIP3    H219309   4.817   3.848   3.825
 6449TIP3   OH219310   2.404   4.314   0.998
 6449TIP3    H119311   2.428   4.273   1.081
 6449TIP3    H219312   2.311   4.334   1.007
 6450TIP3   OH219313   1.929   2.213   4.771
 6450TIP3    H119314   2.018   2.184   4.755
 6450TIP3    H219315   1.936   2.309   4.776
 6451TIP3   OH219316   6.507   1.107   0.596
 6451TIP3    H119317   6.490   1.125   0.504
 6451TIP3    H219318   6.537   1.191   0.632
 6452TIP3   OH219319   2.996   4.574   0.455
 6452TIP3    H119320   2.932   4.527   0.508
 6452TIP3    H219321   3.018   4.513   0.385
 6453TIP3   OH219322   0.055   6.308   4.826
 6453TIP3    H119323   0.096   6.274   4.746
 6453TIP3    H219324   0.073   6.402   4.822
 6454TIP3   OH219325   0.438   1.902   3.841
 6454TIP3    H119326   0.438   1.973   3.777
 6454TIP3    H219327   0.405   1.942   3.922
 6455TIP3   OH219328   0.916   1.579   4.467
 6455TIP3    H119329   0.839   1.526   4.444
 6455TIP3    H219330   0.980   1.514   4.499
 6456TIP3   OH219331   3.694   0.294   2.038
 6456TIP3    H119332   3.687   0.325   1.948
 6456TIP3    H219333   3.686   0.199   2.031
 6457TIP3   OH219334   1.687   6.392   3.865
 6457TIP3    H119335   1.631   6.383   3.942
 6457TIP3    H219336   1.679   6.309   3.818
 6458TIP3   OH219337   2.816   1.461   1.935
 6458TIP3    H119338   2.877   1.457   1.861
 6458TIP3    H219339   2.840   1.385   1.989
 6459TIP3   OH219340   3.352   1.813  -0.013
 6459TIP3    H119341   3.276   1.849   0.032
 6459TIP3    H219342   3.373   1.733   0.034
 6460TIP3   OH219343   5.496   3.725   4.480
 6460TIP3    H119344   5.425   3.687   4.532
 6460TIP3    H219345   5.465   3.814   4.460
 6461TIP3   OH219346   5.533   2.419   2.337
 6461TIP3    H119347   5.512   2.509   2.314
 6461TIP3    H219348   5.627   2.411   2.318
 6462TIP3   OH219349   6.535   3.506   3.633
 6462TIP3    H119350   6.616   3.458   3.616
 6462TIP3    H219351   6.499   3.466   3.712
 6463TIP3   OH219352   3.406   0.169   4.509
 6463TIP3    H119353   3.380   0.208   4.593
 6463TIP3    H219354   3.489   0.127   4.528
 6464TIP3   OH219355   7.113   0.259   0.711
 6464TIP3    H119356   7.143   0.339   0.667
 6464TIP3    H219357   7.068   0.290   0.789
 6465TIP3   OH219358   3.120   1.244   0.095
 6465TIP3    H119359   3.159   1.287   0.018
 6465TIP3    H219360   3.172   1.164   0.106
 6466TIP3   OH219361   1.364   4.903   2.631
 6466TIP3    H119362   1.413   4.824   2.654
 6466TIP3    H219363   1.275   4.873   2.617
 6467TIP3   OH219364   5.252   0.656   4.769
 6467TIP3    H119365   5.294   0.708   4.701
 6467TIP3    H219366   5.204   0.589   4.721
 6468TIP3   OH219367   5.197   0.392   2.757
 6468TIP3    H119368   5.204   0.436   2.672
 6468TIP3    H219369   5.281   0.347   2.767
 6469TIP3   OH219370   3.085   6.571   1.088
 6469TIP3    H119371   3.059   6.646   1.034
 6469TIP3    H219372   3.003   6.527   1.110
 6470TIP3   OH219373   6.196   2.660   0.754
 6470TIP3    H119374   6.224   2.714   0.828
 6470TIP3    H219375   6.278   2.627   0.717
 6471TIP3   OH219376   2.813   4.956   0.813
 6471TIP3    H119377   2.868   4.904   0.871
 6471TIP3    H219378   2.806   4.903   0.733
 6472TIP3   OH219379   0.565   5.978   2.809
 6472TIP3    H119380   0.559   5.964   2.903
 6472TIP3    H219381   0.478   5.960   2.775
 6473TIP3   OH219382   5.291   3.899   1.125
 6473TIP3    H119383   5.334   3.863   1.047
 6473TIP3    H219384   5.198   3.881   1.112
 6474TIP3   OH219385   6.834   2.161   5.457
 6474TIP3    H119386   6.764   2.115   5.410
 6474TIP3    H219387   6.903   2.173   5.391
 6475TIP3   OH219388   3.550   2.932   3.966
 6475TIP3    H119389   3.457   2.929   3.944
 6475TIP3    H219390   3.579   2.841   3.962
 6476TIP3   OH219391   5.184   4.150   5.398
 6476TIP3    H119392   5.198   4.226   5.341
 6476TIP3    H219393   5.272   4.124   5.424
 6477TIP3   OH219394   2.615   6.372   5.500
 6477TIP3    H119395   2.522   6.397   5.502
 6477TIP3    H219396   2.613   6.278   5.484
 6478TIP3   OH219397   0.893   0.639   5.201
 6478TIP3    H119398   0.818   0.581   5.185
 6478TIP3    H219399   0.873   0.718   5.150
 6479TIP3   OH219400   5.149   2.139   4.881
 6479TIP3    H119401   5.143   2.234   4.889
 6479TIP3    H219402   5.078   2.115   4.821
 6480TIP3   OH219403   6.925   1.888   1.145
 6480TIP3    H119404   6.852   1.940   1.180
 6480TIP3    H219405   6.946   1.929   1.062
 6481TIP3   OH219406   1.483   3.206   2.777
 6481TIP3    H119407   1.500   3.188   2.870
 6481TIP3    H219408   1.393   3.178   2.763
 6482TIP3   OH219409   5.027   1.059   4.503
 6482TIP3    H119410   4.950   1.026   4.457
 6482TIP3    H219411   5.088   1.084   4.434
 6483TIP3   OH219412   6.973   0.725   3.937
 6483TIP3    H119413   6.892   0.755   3.896
 6483TIP3    H219414   6.981   0.777   4.017
 6484TIP3   OH219415   4.190   0.814   4.850
 6484TIP3    H119416   4.218   0.904   4.837
 6484TIP3    H219417   4.145   0.790   4.769
 6485TIP3   OH219418   7.218   4.381   1.204
 6485TIP3    H119419   7.207   4.288   1.221
 6485TIP3    H219420   7.174   4.424   1.277
 6486TIP3   OH219421   7.225   5.048   3.833
 6486TIP3    H119422   7.244   5.058   3.740
 6486TIP3    H219423   7.264   4.963   3.856
 6487TIP3   OH219424   1.475   1.282   4.672
 6487TIP3    H119425   1.524   1.315   4.747
 6487TIP3    H219426   1.541   1.237   4.619
 6488TIP3   OH219427   4.414   6.682   2.962
 6488TIP3    H119428   4.399   6.636   2.879
 6488TIP3    H219429   4.341   6.655   3.018
 6489TIP3   OH219430   5.531   2.344   5.809
 6489TIP3    H119431   5.533   2.427   5.763
 6489TIP3    H219432   5.619   2.333   5.844
 6490TIP3   OH219433   0.732   4.264   3.127
 6490TIP3    H119434   0.740   4.171   3.150
 6490TIP3    H219435   0.689   4.265   3.042
 6491TIP3   OH219436   3.441   1.037   2.800
 6491TIP3    H119437   3.391   0.998   2.729
 6491TIP3    H219438   3.481   0.962   2.845
 6492TIP3   OH219439   0.903   0.286   0.039
 6492TIP3    H119440   0.843   0.213   0.044
 6492TIP3    H219441   0.857   0.359   0.080
 6493TIP3   OH219442   1.949   4.894   2.502
 6493TIP3    H119443   1.977   4.803   2.513
 6493TIP3    H219444   2.014   4.931   2.442
 6494TIP3   OH219445   5.437   5.807   4.877
 6494TIP3    H119446   5.446   5.765   4.791
 6494TIP3    H219447   5.515   5.779   4.925
 6495TIP3   OH219448   6.946   1.785   3.539
 6495TIP3    H119449   7.040   1.792   3.558
 6495TIP3    H219450   6.905   1.851   3.595
 6496TIP3   OH219451   3.972   2.891   0.452
 6496TIP3    H119452   3.928   2.927   0.375
 6496TIP3    H219453   3.901   2.874   0.514
 6497TIP3   OH219454   4.685   5.184   1.067
 6497TIP3    H119455   4.754   5.173   1.132
 6497TIP3    H219456   4.710   5.125   0.995
 6498TIP3   OH219457   2.729   5.725   1.425
 6498TIP3    H119458   2.682   5.745   1.506
 6498TIP3    H219459   2.675   5.763   1.356
 6499TIP3   OH219460   3.859   2.754   4.784
 6499TIP3    H119461   3.886   2.662   4.787
 6499TIP3    H219462   3.766   2.752   4.809
 6500TIP3   OH219463   6.149   1.953   1.388
 6500TIP3    H119464   6.151   1.909   1.474
 6500TIP3    H219465   6.078   1.909   1.341
 6501TIP3   OH219466   3.042   6.148   4.901
 6501TIP3    H119467   2.954   6.113   4.884
 6501TIP3    H219468   3.049   6.147   4.996
 6502TIP3   OH219469   5.125   6.730   5.367
 6502TIP3    H119470   5.091   6.707   5.453
 6502TIP3    H219471   5.186   6.660   5.345
 6503TIP3   OH219472   7.124   3.971   3.483
 6503TIP3    H119473   7.062   4.023   3.432
 6503TIP3    H219474   7.121   3.884   3.443
 6504TIP3   OH219475   4.321   2.194   1.826
 6504TIP3    H119476   4.273   2.265   1.785
 6504TIP3    H219477   4.258   2.152   1.884
 6505TIP3   OH219478   0.520   5.385   3.229
 6505TIP3    H119479   0.437   5.425   3.255
 6505TIP3    H219480   0.501   5.345   3.143
 6506TIP3   OH219481   2.020   0.749   3.387
 6506TIP3    H119482   1.982   0.671   3.346
 6506TIP3    H219483   2.078   0.784   3.319
 6507TIP3   OH219484   0.350   5.502   0.428
 6507TIP3    H119485   0.261   5.536   0.438
 6507TIP3    H219486   0.406   5.578   0.441
 6508TIP3   OH219487   2.802   2.042   2.720
 6508TIP3    H119488   2.775   2.098   2.647
 6508TIP3    H219489   2.829   1.960   2.678
 6509TIP3   OH219490   4.054   1.937   3.369
 6509TIP3    H119491   4.141   1.971   3.347
 6509TIP3    H219492   4.009   2.011   3.410
 6510TIP3   OH219493   5.430   2.039   5.552
 6510TIP3    H119494   5.518   2.016   5.581
 6510TIP3    H219495   5.393   2.088   5.625
 6511TIP3   OH219496   4.794   1.224   2.843
 6511TIP3    H119497   4.863   1.270   2.892
 6511TIP3    H219498   4.720   1.284   2.844
 6512TIP3   OH219499   1.530   1.153   1.874
 6512TIP3    H119500   1.526   1.202   1.956
 6512TIP3    H219501   1.510   1.063   1.899
 6513TIP3   OH219502   2.191   4.741   5.098
 6513TIP3    H119503   2.221   4.827   5.069
 6513TIP3    H219504   2.096   4.742   5.083
 6514TIP3   OH219505   5.167   2.261   5.605
 6514TIP3    H119506   5.237   2.239   5.666
 6514TIP3    H219507   5.117   2.330   5.649
 6515TIP3   OH219508   4.975   1.863   5.534
 6515TIP3    H119509   5.071   1.859   5.534
 6515TIP3    H219510   4.955   1.951   5.567
 6516TIP3   OH219511   5.050   5.791   3.334
 6516TIP3    H119512   5.109   5.827   3.399
 6516TIP3    H219513   5.082   5.826   3.250
 6517TIP3   OH219514   5.496   5.745   3.020
 6517TIP3    H119515   5.503   5.821   2.962
 6517TIP3    H219516   5.526   5.671   2.967
 6518TIP3   OH219517   2.736   5.127   2.638
 6518TIP3    H119518   2.766   5.218   2.639
 6518TIP3    H219519   2.749   5.096   2.728
 6519TIP3   OH219520   6.963   2.944   0.405
 6519TIP3    H119521   6.899   2.971   0.471
 6519TIP3    H219522   7.048   2.960   0.446
 6520TIP3   OH219523   1.512   2.837   4.820
 6520TIP3    H119524   1.496   2.756   4.772
 6520TIP3    H219525   1.599   2.826   4.857
 6521TIP3   OH219526   3.260   6.239   5.277
 6521TIP3    H119527   3.175   6.204   5.248
 6521TIP3    H219528   3.310   6.248   5.196
 6522TIP3   OH219529   4.577   4.748   0.292
 6522TIP3    H119530   4.490   4.749   0.331
 6522TIP3    H219531   4.563   4.717   0.202
 6523TIP3   OH219532   4.965   5.341   3.568
 6523TIP3    H119533   4.907   5.269   3.542
 6523TIP3    H219534   4.931   5.418   3.522
 6524TIP3   OH219535   1.375   3.423   5.688
 6524TIP3    H119536   1.453   3.431   5.633
 6524TIP3    H219537   1.386   3.339   5.732
 6525TIP3   OH219538   5.687   4.850   2.518
 6525TIP3    H119539   5.724   4.882   2.436
 6525TIP3    H219540   5.665   4.759   2.501
 6526TIP3   OH219541   6.444   3.802   5.175
 6526TIP3    H119542   6.381   3.758   5.118
 6526TIP3    H219543   6.528   3.795   5.130
 6527TIP3   OH219544   4.033   4.184   5.137
 6527TIP3    H119545   4.019   4.098   5.175
 6527TIP3    H219546   3.945   4.214   5.114
 6528TIP3   OH219547   1.068   5.937   0.350
 6528TIP3    H119548   1.133   6.007   0.359
 6528TIP3    H219549   1.120   5.856   0.352
 6529TIP3   OH219550   1.156   2.869   5.344
 6529TIP3    H119551   1.139   2.824   5.427
 6529TIP3    H219552   1.071   2.873   5.301
 6530TIP3   OH219553   1.629   3.419   4.787
 6530TIP3    H119554   1.553   3.456   4.743
 6530TIP3    H219555   1.592   3.357   4.851
 6531TIP3   OH219556   2.230   3.037   4.299
 6531TIP3    H119557   2.163   3.045   4.231
 6531TIP3    H219558   2.267   2.950   4.285
 6532TIP3   OH219559   3.718   6.171   4.997
 6532TIP3    H119560   3.769   6.141   5.073
 6532TIP3    H219561   3.644   6.111   4.993
 6533TIP3   OH219562   0.734   6.576   3.913
 6533TIP3    H119563   0.664   6.602   3.853
 6533TIP3    H219564   0.745   6.652   3.971
 6534TIP3   OH219565   3.506   0.748   3.446
 6534TIP3    H119566   3.599   0.759   3.427
 6534TIP3    H219567   3.502   0.721   3.537
 6535TIP3   OH219568   4.253   2.074   4.319
 6535TIP3    H119569   4.340   2.078   4.358
 6535TIP3    H219570   4.242   1.983   4.292
 6536TIP3   OH219571   4.270   2.241   2.893
 6536TIP3    H119572   4.236   2.303   2.957
 6536TIP3    H219573   4.339   2.288   2.847
 6537TIP3   OH219574   3.166   1.155   4.136
 6537TIP3    H119575   3.168   1.118   4.048
 6537TIP3    H219576   3.251   1.198   4.146
 6538TIP3   OH219577   5.367   0.314   4.753
 6538TIP3    H119578   5.305   0.378   4.718
 6538TIP3    H219579   5.312   0.246   4.792
 6539TIP3   OH219580   2.793   2.869   4.471
 6539TIP3    H119581   2.716   2.826   4.510
 6539TIP3    H219582   2.810   2.943   4.529
 6540TIP3   OH219583   1.949   3.170   1.475
 6540TIP3    H119584   1.939   3.086   1.521
 6540TIP3    H219585   2.040   3.170   1.444
 6541TIP3   OH219586   2.443   4.314   2.233
 6541TIP3    H119587   2.493   4.236   2.258
 6541TIP3    H219588   2.359   4.304   2.277
 6542TIP3   OH219589   4.575   1.972   5.649
 6542TIP3    H119590   4.591   2.030   5.575
 6542TIP3    H219591   4.581   2.030   5.726
 6543TIP3   OH219592   2.019   6.125   2.860
 6543TIP3    H119593   1.981   6.042   2.832
 6543TIP3    H219594   1.967   6.151   2.936
 6544TIP3   OH219595   3.529   3.091   4.182
 6544TIP3    H119596   3.538   3.001   4.212
 6544TIP3    H219597   3.536   3.085   4.086
 6545TIP3   OH219598   5.441   2.046   0.826
 6545TIP3    H119599   5.490   2.117   0.868
 6545TIP3    H219600   5.350   2.062   0.852
 6546TIP3   OH219601   5.004   1.786   2.293
 6546TIP3    H119602   5.065   1.719   2.324
 6546TIP3    H219603   4.934   1.786   2.359
 6547TIP3   OH219604   0.440   3.101   2.529
 6547TIP3    H119605   0.393   3.030   2.573
 6547TIP3    H219606   0.401   3.104   2.441
 6548TIP3   OH219607   5.911   5.518   2.958
 6548TIP3    H119608   6.000   5.511   2.921
 6548TIP3    H219609   5.908   5.451   3.025
 6549TIP3   OH219610   6.784   1.191   3.137
 6549TIP3    H119611   6.808   1.160   3.224
 6549TIP3    H219612   6.868   1.202   3.092
 6550TIP3   OH219613   2.056   0.072   3.538
 6550TIP3    H119614   1.999   0.033   3.604
 6550TIP3    H219615   2.126   0.113   3.587
 6551TIP3   OH219616   4.837   0.986   3.335
 6551TIP3    H119617   4.816   0.980   3.241
 6551TIP3    H219618   4.771   1.045   3.371
 6552TIP3   OH219619   0.913   5.445   1.597
 6552TIP3    H119620   0.893   5.377   1.533
 6552TIP3    H219621   0.937   5.396   1.676
 6553TIP3   OH219622   4.197   6.374   5.132
 6553TIP3    H119623   4.119   6.319   5.139
 6553TIP3    H219624   4.190   6.435   5.205
 6554TIP3   OH219625   5.400   1.609   2.109
 6554TIP3    H119626   5.471   1.566   2.158
 6554TIP3    H219627   5.443   1.645   2.031
 6555TIP3   OH219628   7.101   3.612   0.690
 6555TIP3    H119629   7.082   3.682   0.628
 6555TIP3    H219630   7.119   3.657   0.773
 6556TIP3   OH219631   0.164   3.127   4.059
 6556TIP3    H119632   0.189   3.048   4.010
 6556TIP3    H219633   0.099   3.170   4.003
 6557TIP3   OH219634   4.835   4.405   0.829
 6557TIP3    H119635   4.760   4.438   0.878
 6557TIP3    H219636   4.911   4.442   0.874
 6558TIP3   OH219637   2.419   5.207   4.537
 6558TIP3    H119638   2.446   5.298   4.539
 6558TIP3    H219639   2.454   5.173   4.455
 6559TIP3   OH219640   0.618   1.697   4.578
 6559TIP3    H119641   0.658   1.765   4.524
 6559TIP3    H219642   0.656   1.615   4.545
 6560TIP3   OH219643   7.217   2.413   0.824
 6560TIP3    H119644   7.234   2.506   0.808
 6560TIP3    H219645   7.122   2.406   0.827
 6561TIP3   OH219646   1.821   6.252   0.179
 6561TIP3    H119647   1.732   6.259   0.215
 6561TIP3    H219648   1.809   6.262   0.085
 6562TIP3   OH219649   2.595   3.126   3.773
 6562TIP3    H119650   2.649   3.166   3.704
 6562TIP3    H219651   2.659   3.097   3.838
 6563TIP3   OH219652   4.215   6.450   2.009
 6563TIP3    H119653   4.231   6.380   1.946
 6563TIP3    H219654   4.168   6.517   1.959
 6564TIP3   OH219655   2.686   0.588   0.596
 6564TIP3    H119656   2.637   0.665   0.623
 6564TIP3    H219657   2.774   0.620   0.579
 6565TIP3   OH219658   6.776   4.018   5.487
 6565TIP3    H119659   6.695   3.988   5.444
 6565TIP3    H219660   6.754   4.104   5.521
 6566TIP3   OH219661   3.002   4.751   1.661
 6566TIP3    H119662   2.921   4.800   1.642
 6566TIP3    H219663   2.999   4.737   1.755
 6567TIP3   OH219664   0.276   6.792   3.672
 6567TIP3    H119665   0.216   6.841   3.727
 6567TIP3    H219666   0.241   6.802   3.583
 6568TIP3   OH219667   0.828   3.863   3.712
 6568TIP3    H119668   0.889   3.893   3.645
 6568TIP3    H219669   0.823   3.935   3.774
 6569TIP3   OH219670   3.101   6.592   4.148
 6569TIP3    H119671   3.095   6.497   4.142
 6569TIP3    H219672   3.080   6.612   4.239
 6570TIP3   OH219673   2.841   3.195   4.500
 6570TIP3    H119674   2.881   3.240   4.574
 6570TIP3    H219675   2.751   3.228   4.498
 6571TIP3   OH219676   5.281   3.039   0.126
 6571TIP3    H119677   5.314   2.993   0.049
 6571TIP3    H219678   5.217   2.980   0.164
 6572TIP3   OH219679   1.722   0.045   0.059
 6572TIP3    H119680   1.732   0.011   0.148
 6572TIP3    H219681   1.787  -0.004   0.008
 6573TIP3   OH219682   5.705   3.945   0.527
 6573TIP3    H119683   5.685   3.976   0.439
 6573TIP3    H219684   5.742   4.021   0.571
 6574TIP3   OH219685   6.030   4.087   2.457
 6574TIP3    H119686   6.089   4.153   2.493
 6574TIP3    H219687   5.986   4.131   2.385
 6575TIP3   OH219688   0.268   6.140   5.885
 6575TIP3    H119689   0.222   6.059   5.904
 6575TIP3    H219690   0.218   6.208   5.930
 6576TIP3   OH219691   6.495   0.460   4.440
 6576TIP3    H119692   6.541   0.423   4.515
 6576TIP3    H219693   6.423   0.509   4.479
 6577TIP3   OH219694   1.303   4.536   2.400
 6577TIP3    H119695   1.258   4.608   2.356
 6577TIP3    H219696   1.302   4.561   2.493
 6578TIP3   OH219697   3.430   1.791   2.097
 6578TIP3    H119698   3.520   1.785   2.063
 6578TIP3    H219699   3.405   1.882   2.085
 6579TIP3   OH219700   6.176   0.032   2.940
 6579TIP3    H119701   6.222   0.080   2.872
 6579TIP3    H219702   6.096  -0.001   2.898
 6580TIP3   OH219703   5.059   6.689   3.184
 6580TIP3    H119704   4.999   6.643   3.243
 6580TIP3    H219705   5.028   6.780   3.185
 6581TIP3   OH219706   2.230   5.533   3.232
 6581TIP3    H119707   2.225   5.465   3.300
 6581TIP3    H219708   2.177   5.605   3.267
 6582TIP3   OH219709   4.790   1.984   5.244
 6582TIP3    H119710   4.851   2.047   5.205
 6582TIP3    H219711   4.830   1.962   5.329
 6583TIP3   OH219712   3.662   3.765   3.725
 6583TIP3    H119713   3.600   3.789   3.793
 6583TIP3    H219714   3.729   3.715   3.771
 6584TIP3   OH219715   1.339   4.466   4.429
 6584TIP3    H119716   1.332   4.419   4.513
 6584TIP3    H219717   1.256   4.448   4.385
 6585TIP3   OH219718   6.964   0.748   5.560
 6585TIP3    H119719   6.949   0.759   5.654
 6585TIP3    H219720   6.883   0.709   5.527
 6586TIP3   OH219721   4.956   1.641   3.032
 6586TIP3    H119722   4.973   1.550   3.007
 6586TIP3    H219723   5.034   1.688   3.002
 6587TIP3   OH219724   3.578   3.888   2.553
 6587TIP3    H119725   3.612   3.976   2.536
 6587TIP3    H219726   3.618   3.834   2.485
 6588TIP3   OH219727   5.158   5.544   1.354
 6588TIP3    H119728   5.196   5.580   1.274
 6588TIP3    H219729   5.136   5.454   1.331
 6589TIP3   OH219730   5.977  -0.006   3.848
 6589TIP3    H119731   5.890   0.034   3.852
 6589TIP3    H219732   6.030   0.058   3.802
 6590TIP3   OH219733   6.906   2.516   4.466
 6590TIP3    H119734   6.932   2.442   4.410
 6590TIP3    H219735   6.899   2.590   4.407
 6591TIP3   OH219736   6.744   5.770   2.745
 6591TIP3    H119737   6.689   5.773   2.667
 6591TIP3    H219738   6.723   5.685   2.786
 6592TIP3   OH219739   2.658   1.650   3.415
 6592TIP3    H119740   2.719   1.696   3.358
 6592TIP3    H219741   2.571   1.677   3.385
 6593TIP3   OH219742   3.539   0.323   3.635
 6593TIP3    H119743   3.614   0.367   3.594
 6593TIP3    H219744   3.571   0.236   3.658
 6594TIP3   OH219745   2.772   6.456   4.241
 6594TIP3    H119746   2.777   6.483   4.150
 6594TIP3    H219747   2.860   6.424   4.262
 6595TIP3   OH219748   5.648   4.817   1.584
 6595TIP3    H119749   5.706   4.820   1.507
 6595TIP3    H219750   5.621   4.725   1.590
 6596TIP3   OH219751   5.504   0.581   5.721
 6596TIP3    H119752   5.578   0.552   5.668
 6596TIP3    H219753   5.445   0.505   5.723
 6597TIP3   OH219754   3.265   6.686   3.306
 6597TIP3    H119755   3.186   6.736   3.329
 6597TIP3    H219756   3.337   6.748   3.316
 6598TIP3   OH219757   5.804   2.226   2.545
 6598TIP3    H119758   5.826   2.283   2.618
 6598TIP3    H219759   5.874   2.240   2.482
 6599TIP3   OH219760   4.534   3.404   4.999
 6599TIP3    H119761   4.448   3.373   4.972
 6599TIP3    H219762   4.550   3.483   4.947
 6600TIP3   OH219763   7.089   6.801   0.387
 6600TIP3    H119764   7.139   6.720   0.374
 6600TIP3    H219765   7.154   6.865   0.416
 6601TIP3   OH219766   0.395   0.822   4.233
 6601TIP3    H119767   0.466   0.838   4.296
 6601TIP3    H219768   0.415   0.735   4.197
 6602TIP3   OH219769   2.416   0.345   1.419
 6602TIP3    H119770   2.359   0.274   1.450
 6602TIP3    H219771   2.486   0.349   1.484
 6603TIP3   OH219772   6.107   6.180   1.269
 6603TIP3    H119773   6.131   6.213   1.356
 6603TIP3    H219774   6.011   6.179   1.270
 6604TIP3   OH219775   4.925   0.394   0.638
 6604TIP3    H119776   4.833   0.416   0.654
 6604TIP3    H219777   4.955   0.461   0.576
 6605TIP3   OH219778   3.580   0.124   1.702
 6605TIP3    H119779   3.613   0.214   1.710
 6605TIP3    H219780   3.652   0.070   1.734
 6606TIP3   OH219781   2.793   2.047   3.877
 6606TIP3    H119782   2.715   2.093   3.847
 6606TIP3    H219783   2.837   2.018   3.797
 6607TIP3   OH219784   2.361   1.933   1.863
 6607TIP3    H119785   2.375   1.868   1.794
 6607TIP3    H219786   2.416   1.903   1.935
 6608TIP3   OH219787   3.334   4.329   0.411
 6608TIP3    H119788   3.419   4.285   0.401
 6608TIP3    H219789   3.289   4.279   0.479
 6609TIP3   OH219790   2.718   0.200   2.390
 6609TIP3    H119791   2.715   0.191   2.485
 6609TIP3    H219792   2.775   0.275   2.374
 6610TIP3   OH219793   6.333   4.805   4.333
 6610TIP3    H119794   6.249   4.803   4.286
 6610TIP3    H219795   6.386   4.738   4.290
 6611TIP3   OH219796   2.986   6.411   1.427
 6611TIP3    H119797   2.968   6.503   1.448
 6611TIP3    H219798   3.043   6.381   1.499
 6612TIP3   OH219799   3.257   1.466   3.454
 6612TIP3    H119800   3.285   1.418   3.376
 6612TIP3    H219801   3.165   1.484   3.439
 6613TIP3   OH219802   4.081   0.626   5.300
 6613TIP3    H119803   4.160   0.601   5.347
 6613TIP3    H219804   4.111   0.645   5.211
 6614TIP3   OH219805   4.591   5.702   3.571
 6614TIP3    H119806   4.529   5.772   3.552
 6614TIP3    H219807   4.538   5.622   3.565
 6615TIP3   OH219808   1.815   3.725   5.702
 6615TIP3    H119809   1.723   3.744   5.724
 6615TIP3    H219810   1.852   3.692   5.784
 6616TIP3   OH219811   5.905   5.813   2.967
 6616TIP3    H119812   5.939   5.726   2.986
 6616TIP3    H219813   5.925   5.827   2.874
 6617TIP3   OH219814   6.806   3.020   0.605
 6617TIP3    H119815   6.845   2.961   0.669
 6617TIP3    H219816   6.719   2.983   0.588
 6618TIP3   OH219817   3.949   2.312   4.566
 6618TIP3    H119818   3.999   2.231   4.565
 6618TIP3    H219819   3.891   2.305   4.489
 6619TIP3   OH219820   5.292   0.370   1.027
 6619TIP3    H119821   5.382   0.338   1.030
 6619TIP3    H219822   5.239   0.292   1.010
 6620TIP3   OH219823   3.489   1.596   3.973
 6620TIP3    H119824   3.567   1.589   3.919
 6620TIP3    H219825   3.424   1.542   3.929
 6621TIP3   OH219826   3.620   6.479   4.250
 6621TIP3    H119827   3.696   6.434   4.212
 6621TIP3    H219828   3.645   6.494   4.341
 6622TIP3   OH219829  -0.063   0.249   3.476
 6622TIP3    H119830  -0.030   0.312   3.540
 6622TIP3    H219831  -0.024   0.166   3.503
 6623TIP3   OH219832   5.548   3.238   0.989
 6623TIP3    H119833   5.536   3.329   1.017
 6623TIP3    H219834   5.498   3.187   1.053
 6624TIP3   OH219835   6.425   0.546   0.586
 6624TIP3    H119836   6.389   0.495   0.658
 6624TIP3    H219837   6.495   0.491   0.550
 6625TIP3   OH219838   5.879   6.087   1.742
 6625TIP3    H119839   5.973   6.105   1.737
 6625TIP3    H219840   5.873   6.000   1.781
 6626TIP3   OH219841   1.160   1.091   1.325
 6626TIP3    H119842   1.158   0.996   1.329
 6626TIP3    H219843   1.172   1.119   1.415
 6627TIP3   OH219844   5.425   4.049   4.699
 6627TIP3    H119845   5.372   3.969   4.700
 6627TIP3    H219846   5.448   4.062   4.607
 6628TIP3   OH219847   3.490   6.481   4.915
 6628TIP3    H119848   3.442   6.547   4.865
 6628TIP3    H219849   3.559   6.530   4.960
 6629TIP3   OH219850   0.141   3.964   0.675
 6629TIP3    H119851   0.144   4.034   0.741
 6629TIP3    H219852   0.232   3.935   0.667
 6630TIP3   OH219853   6.923   2.230   4.955
 6630TIP3    H119854   6.832   2.254   4.941
 6630TIP3    H219855   6.963   2.235   4.867
 6631TIP3   OH219856   6.986   2.686   0.055
 6631TIP3    H119857   6.924   2.717  -0.011
 6631TIP3    H219858   6.943   2.703   0.139
 6632TIP3   OH219859   3.864   5.575   1.954
 6632TIP3    H119860   3.898   5.555   1.867
 6632TIP3    H219861   3.823   5.661   1.945
 6633TIP3   OH219862   1.548   2.691   0.322
 6633TIP3    H119863   1.489   2.687   0.397
 6633TIP3    H219864   1.490   2.699   0.246
 6634TIP3   OH219865   1.726   3.924   0.993
 6634TIP3    H119866   1.732   3.832   0.968
 6634TIP3    H219867   1.682   3.966   0.919
 6635TIP3   OH219868   5.209   5.053   1.219
 6635TIP3    H119869   5.196   5.065   1.313
 6635TIP3    H219870   5.261   5.129   1.192
 6636TIP3   OH219871   2.072   1.088   5.208
 6636TIP3    H119872   2.144   1.118   5.263
 6636TIP3    H219873   2.105   1.009   5.166
 6637TIP3   OH219874   7.204   3.231   3.894
 6637TIP3    H119875   7.134   3.289   3.924
 6637TIP3    H219876   7.184   3.215   3.802
 6638TIP3   OH219877   4.077   6.113   2.054
 6638TIP3    H119878   4.123   6.085   2.134
 6638TIP3    H219879   4.015   6.180   2.084
 6639TIP3   OH219880   6.262   4.363   4.332
 6639TIP3    H119881   6.212   4.436   4.367
 6639TIP3    H219882   6.243   4.363   4.238
 6640TIP3   OH219883   4.843   4.367   3.377
 6640TIP3    H119884   4.758   4.399   3.345
 6640TIP3    H219885   4.842   4.274   3.358
 6641TIP3   OH219886   4.681   4.548   4.367
 6641TIP3    H119887   4.645   4.461   4.351
 6641TIP3    H219888   4.726   4.570   4.285
 6642TIP3   OH219889   6.801   1.044   3.400
 6642TIP3    H119890   6.709   1.033   3.376
 6642TIP3    H219891   6.850   1.008   3.327
 6643TIP3   OH219892   0.285   5.775   0.956
 6643TIP3    H119893   0.205   5.790   0.906
 6643TIP3    H219894   0.347   5.738   0.892
 6644TIP3   OH219895   3.196   3.004   1.698
 6644TIP3    H119896   3.134   2.939   1.663
 6644TIP3    H219897   3.147   3.049   1.767
 6645TIP3   OH219898   0.856   3.370   0.762
 6645TIP3    H119899   0.762   3.378   0.774
 6645TIP3    H219900   0.867   3.352   0.668
 6646TIP3   OH219901   1.862   0.587   5.345
 6646TIP3    H119902   1.816   0.597   5.428
 6646TIP3    H219903   1.794   0.564   5.282
 6647TIP3   OH219904   1.515   5.254   0.242
 6647TIP3    H119905   1.539   5.170   0.281
 6647TIP3    H219906   1.592   5.310   0.257
 6648TIP3   OH219907   0.134   0.408   1.392
 6648TIP3    H119908   0.106   0.433   1.480
 6648TIP3    H219909   0.229   0.401   1.398
 6649TIP3   OH219910   2.020   4.619   2.548
 6649TIP3    H119911   2.045   4.529   2.569
 6649TIP3    H219912   2.051   4.671   2.622
 6650TIP3   OH219913   5.773   3.782   1.100
 6650TIP3    H119914   5.702   3.729   1.063
 6650TIP3    H219915   5.771   3.864   1.050
 6651TIP3   OH219916   5.589   3.445   2.297
 6651TIP3    H119917   5.662   3.420   2.240
 6651TIP3    H219918   5.604   3.396   2.378
 6652TIP3   OH219919   4.503   1.568   1.294
 6652TIP3    H119920   4.544   1.600   1.214
 6652TIP3    H219921   4.574   1.569   1.359
 6653TIP3   OH219922   0.838   2.313   3.054
 6653TIP3    H119923   0.784   2.391   3.039
 6653TIP3    H219924   0.926   2.348   3.071
 6654TIP3   OH219925   2.004   1.874   3.367
 6654TIP3    H119926   2.025   1.788   3.333
 6654TIP3    H219927   2.043   1.935   3.305
 6655TIP3   OH219928   6.059   5.963   3.470
 6655TIP3    H119929   6.144   6.007   3.459
 6655TIP3    H219930   6.061   5.931   3.560
 6656TIP3   OH219931   3.675   1.700   2.606
 6656TIP3    H119932   3.750   1.659   2.650
 6656TIP3    H219933   3.616   1.725   2.677
 6657TIP3   OH219934   5.771   2.599   0.334
 6657TIP3    H119935   5.686   2.617   0.294
 6657TIP3    H219936   5.832   2.656   0.289
 6658TIP3   OH219937   0.244   2.535   5.724
 6658TIP3    H119938   0.190   2.543   5.802
 6658TIP3    H219939   0.182   2.531   5.651
 6659TIP3   OH219940   5.941   4.627   5.640
 6659TIP3    H119941   6.022   4.582   5.664
 6659TIP3    H219942   5.947   4.712   5.684
 6660TIP3   OH219943   6.932   0.835   1.229
 6660TIP3    H119944   6.987   0.816   1.305
 6660TIP3    H219945   6.889   0.752   1.209
 6661TIP3   OH219946   1.162   5.025   3.475
 6661TIP3    H119947   1.223   5.085   3.431
 6661TIP3    H219948   1.085   5.079   3.494
 6662TIP3   OH219949   1.548   0.197   4.730
 6662TIP3    H119950   1.616   0.240   4.782
 6662TIP3    H219951   1.468   0.246   4.749
 6663TIP3   OH219952   4.994   5.685   2.341
 6663TIP3    H119953   4.994   5.732   2.258
 6663TIP3    H219954   5.077   5.709   2.382
 6664TIP3   OH219955   6.735   3.644   2.900
 6664TIP3    H119956   6.768   3.689   2.977
 6664TIP3    H219957   6.713   3.714   2.838
 6665TIP3   OH219958   0.903   1.675   1.954
 6665TIP3    H119959   0.862   1.592   1.978
 6665TIP3    H219960   0.987   1.674   2.000
 6666TIP3   OH219961   4.997   2.412   2.941
 6666TIP3    H119962   4.954   2.357   3.007
 6666TIP3    H219963   4.928   2.434   2.879
 6667TIP3   OH219964   0.026   6.014   5.568
 6667TIP3    H119965  -0.060   6.051   5.545
 6667TIP3    H219966   0.053   5.967   5.489
 6668TIP3   OH219967   6.806   5.152   0.279
 6668TIP3    H119968   6.867   5.135   0.207
 6668TIP3    H219969   6.861   5.160   0.356
 6669TIP3   OH219970   5.992   1.334   5.585
 6669TIP3    H119971   5.909   1.381   5.580
 6669TIP3    H219972   6.052   1.394   5.630
 6670TIP3   OH219973   1.040   5.943   1.400
 6670TIP3    H119974   1.029   5.910   1.310
 6670TIP3    H219975   1.031   5.866   1.455
 6671TIP3   OH219976   2.379   2.085   0.846
 6671TIP3    H119977   2.452   2.094   0.784
 6671TIP3    H219978   2.324   2.016   0.809
 6672TIP3   OH219979   0.901   1.764   2.752
 6672TIP3    H119980   0.917   1.840   2.695
 6672TIP3    H219981   0.950   1.693   2.711
 6673TIP3   OH219982   3.196   2.856   1.115
 6673TIP3    H119983   3.168   2.913   1.044
 6673TIP3    H219984   3.280   2.820   1.086
 6674TIP3   OH219985   7.104   5.290   5.524
 6674TIP3    H119986   7.157   5.328   5.595
 6674TIP3    H219987   7.019   5.333   5.531
 6675TIP3   OH219988   0.857   1.679   4.855
 6675TIP3    H119989   0.776   1.630   4.868
 6675TIP3    H219990   0.926   1.619   4.884
 6676TIP3   OH219991   5.682   2.766   2.617
 6676TIP3    H119992   5.718   2.840   2.665
 6676TIP3    H219993   5.757   2.708   2.602
 6677TIP3   OH219994   5.032   4.012   0.448
 6677TIP3    H119995   5.045   4.100   0.484
 6677TIP3    H219996   4.940   4.009   0.424
 6678TIP3   OH219997   0.645   5.263   0.703
 6678TIP3    H119998   0.553   5.244   0.687
 6678TIP3    H219999   0.666   5.217   0.784
 6679TIP3   OH220000   1.123   4.809   1.630
 6679TIP3    H120001   1.088   4.747   1.694
 6679TIP3    H220002   1.203   4.843   1.672
 6680TIP3   OH220003   4.074   0.009   3.237
 6680TIP3    H120004   4.151   0.065   3.250
 6680TIP3    H220005   4.046   0.028   3.147
 6681TIP3   OH220006   3.641   4.900   1.141
 6681TIP3    H120007   3.559   4.947   1.127
 6681TIP3    H220008   3.646   4.838   1.069
 6682TIP3   OH220009   1.600   4.071   3.555
 6682TIP3    H120010   1.569   3.986   3.586
 6682TIP3    H220011   1.600   4.063   3.459
 6683TIP3   OH220012   0.675   1.897   4.797
 6683TIP3    H120013   0.762   1.933   4.813
 6683TIP3    H220014   0.691   1.817   4.747
 6684TIP3   OH220015   2.070   2.357   2.743
 6684TIP3    H120016   1.980   2.331   2.725
 6684TIP3    H220017   2.117   2.338   2.663
 6685TIP3   OH220018   0.017   2.744   3.431
 6685TIP3    H120019  -0.002   2.674   3.369
 6685TIP3    H220020   0.095   2.787   3.396
 6686TIP3   OH220021   6.086   4.453   0.340
 6686TIP3    H120022   6.000   4.480   0.308
 6686TIP3    H220023   6.129   4.414   0.264
 6687TIP3   OH220024   7.159   3.254   2.218
 6687TIP3    H120025   7.074   3.209   2.216
 6687TIP3    H220026   7.164   3.298   2.133
 6688TIP3   OH220027   6.022   5.466   3.793
 6688TIP3    H120028   6.002   5.495   3.704
 6688TIP3    H220029   6.069   5.539   3.833
 6689TIP3   OH220030   6.258   0.635   0.362
 6689TIP3    H120031   6.316   0.590   0.423
 6689TIP3    H220032   6.297   0.619   0.276
 6690TIP3   OH220033   1.333   0.851   2.185
 6690TIP3    H120034   1.313   0.757   2.178
 6690TIP3    H220035   1.283   0.881   2.261
 6691TIP3   OH220036   1.115   0.246   5.008
 6691TIP3    H120037   1.095   0.340   5.009
 6691TIP3    H220038   1.171   0.233   5.085
 6692TIP3   OH220039   2.166   5.708   2.111
 6692TIP3    H120040   2.198   5.723   2.199
 6692TIP3    H220041   2.072   5.693   2.121
 6693TIP3   OH220042   5.516   1.170   5.724
 6693TIP3    H120043   5.571   1.120   5.663
 6693TIP3    H220044   5.518   1.260   5.690
 6694TIP3   OH220045   2.902   1.573   4.231
 6694TIP3    H120046   2.937   1.641   4.288
 6694TIP3    H220047   2.950   1.494   4.257
 6695TIP3   OH220048   4.198   0.662   2.790
 6695TIP3    H120049   4.131   0.713   2.744
 6695TIP3    H220050   4.279   0.712   2.777
 6696TIP3   OH220051   0.940   5.662   2.933
 6696TIP3    H120052   0.976   5.631   2.851
 6696TIP3    H220053   0.846   5.643   2.927
 6697TIP3   OH220054   6.888   1.674   2.179
 6697TIP3    H120055   6.982   1.669   2.161
 6697TIP3    H220056   6.858   1.583   2.171
 6698TIP3   OH220057   1.986   0.375   1.499
 6698TIP3    H120058   1.960   0.403   1.411
 6698TIP3    H220059   2.048   0.442   1.528
 6699TIP3   OH220060   5.289   2.281   3.168
 6699TIP3    H120061   5.265   2.250   3.255
 6699TIP3    H220062   5.376   2.244   3.152
 6700TIP3   OH220063   1.692   3.693   0.337
 6700TIP3    H120064   1.692   3.656   0.425
 6700TIP3    H220065   1.693   3.788   0.351
 6701TIP3   OH220066   6.005   2.007   2.110
 6701TIP3    H120067   6.083   1.957   2.136
 6701TIP3    H220068   5.988   1.980   2.020
 6702TIP3   OH220069   5.359   5.659   0.492
 6702TIP3    H120070   5.394   5.636   0.578
 6702TIP3    H220071   5.270   5.690   0.510
 6703TIP3   OH220072   4.064   3.028   2.970
 6703TIP3    H120073   3.975   3.008   2.941
 6703TIP3    H220074   4.108   2.943   2.972
 6704TIP3   OH220075   3.169   6.522   0.126
 6704TIP3    H120076   3.198   6.481   0.044
 6704TIP3    H220077   3.104   6.586   0.099
 6705TIP3   OH220078   3.646   5.951   3.032
 6705TIP3    H120079   3.671   6.030   2.984
 6705TIP3    H220080   3.718   5.889   3.017
 6706TIP3   OH220081   1.859   1.209   1.070
 6706TIP3    H120082   1.941   1.180   1.031
 6706TIP3    H220083   1.796   1.141   1.046
 6707TIP3   OH220084   4.128   3.088   4.129
 6707TIP3    H120085   4.053   3.108   4.184
 6707TIP3    H220086   4.121   2.994   4.112
 6708TIP3   OH220087   3.860  -0.005   5.726
 6708TIP3    H120088   3.817  -0.015   5.810
 6708TIP3    H220089   3.854   0.089   5.706
 6709TIP3   OH220090   0.994   3.872   2.548
 6709TIP3    H120091   0.967   3.848   2.459
 6709TIP3    H220092   1.088   3.890   2.540
 6710TIP3   OH220093   2.042   0.569   4.489
 6710TIP3    H120094   1.995   0.631   4.434
 6710TIP3    H220095   2.125   0.613   4.510
 6711TIP3   OH220096   3.454   1.196   4.110
 6711TIP3    H120097   3.500   1.204   4.027
 6711TIP3    H220098   3.438   1.102   4.120
 6712TIP3   OH220099   6.621   1.700   0.148
 6712TIP3    H120100   6.649   1.773   0.094
 6712TIP3    H220101   6.526   1.699   0.141
 6713TIP3   OH220102   0.702   0.404   1.927
 6713TIP3    H120103   0.701   0.336   1.859
 6713TIP3    H220104   0.625   0.385   1.980
 6714TIP3   OH220105   2.365   3.607   3.105
 6714TIP3    H120106   2.319   3.689   3.089
 6714TIP3    H220107   2.456   3.634   3.120
 6715TIP3   OH220108   2.074   4.385   3.333
 6715TIP3    H120109   2.074   4.378   3.429
 6715TIP3    H220110   2.118   4.305   3.303
 6716TIP3   OH220111   5.747   1.187   1.651
 6716TIP3    H120112   5.710   1.100   1.669
 6716TIP3    H220113   5.841   1.177   1.666
 6717TIP3   OH220114   5.540   1.261   2.104
 6717TIP3    H120115   5.635   1.275   2.111
 6717TIP3    H220116   5.525   1.244   2.011
 6718TIP3   OH220117   2.934   1.523   1.180
 6718TIP3    H120118   2.888   1.462   1.122
 6718TIP3    H220119   2.867   1.588   1.204
 6719TIP3   OH220120   5.742   5.566   5.610
 6719TIP3    H120121   5.831   5.579   5.642
 6719TIP3    H220122   5.745   5.481   5.566
 6720TIP3   OH220123   2.653   0.585   2.505
 6720TIP3    H120124   2.723   0.560   2.566
 6720TIP3    H220125   2.691   0.570   2.418
 6721TIP3   OH220126   0.822   1.391   2.753
 6721TIP3    H120127   0.862   1.389   2.840
 6721TIP3    H220128   0.747   1.450   2.762
 6722TIP3   OH220129   1.629   5.603   4.197
 6722TIP3    H120130   1.566   5.672   4.220
 6722TIP3    H220131   1.683   5.641   4.128
 6723TIP3   OH220132   4.639   1.536   0.706
 6723TIP3    H120133   4.584   1.461   0.730
 6723TIP3    H220134   4.727   1.499   0.698
 6724TIP3   OH220135   4.013   0.253   2.579
 6724TIP3    H120136   3.951   0.311   2.535
 6724TIP3    H220137   4.074   0.312   2.624
 6725TIP3   OH220138   4.864   5.217   0.047
 6725TIP3    H120139   4.775   5.192   0.070
 6725TIP3    H220140   4.859   5.240  -0.046
 6726TIP3   OH220141   4.790   3.154   4.856
 6726TIP3    H120142   4.707   3.172   4.813
 6726TIP3    H220143   4.834   3.239   4.860
 6727TIP3   OH220144   6.230   0.909   5.802
 6727TIP3    H120145   6.188   0.973   5.745
 6727TIP3    H220146   6.157   0.864   5.845
 6728TIP3   OH220147   0.529   5.315   4.824
 6728TIP3    H120148   0.454   5.321   4.883
 6728TIP3    H220149   0.496   5.270   4.746
 6729TIP3   OH220150   3.222   2.578   3.483
 6729TIP3    H120151   3.314   2.549   3.487
 6729TIP3    H220152   3.227   2.673   3.492
 6730TIP3   OH220153   6.154   0.738   5.462
 6730TIP3    H120154   6.178   0.827   5.436
 6730TIP3    H220155   6.107   0.703   5.387
 6731TIP3   OH220156   2.525   0.088   3.885
 6731TIP3    H120157   2.576   0.162   3.919
 6731TIP3    H220158   2.447   0.086   3.941
 6732TIP3   OH220159   0.876   3.855   2.285
 6732TIP3    H120160   0.799   3.846   2.341
 6732TIP3    H220161   0.869   3.943   2.249
 6733TIP3   OH220162   2.405   6.364   4.276
 6733TIP3    H120163   2.351   6.302   4.325
 6733TIP3    H220164   2.461   6.405   4.341
 6734TIP3   OH220165   3.464   5.700   2.058
 6734TIP3    H120166   3.412   5.732   2.132
 6734TIP3    H220167   3.433   5.611   2.044
 6735TIP3   OH220168   5.476   5.251   2.805
 6735TIP3    H120169   5.469   5.328   2.862
 6735TIP3    H220170   5.394   5.249   2.757
 6736TIP3   OH220171   6.625   5.644   4.676
 6736TIP3    H120172   6.615   5.700   4.599
 6736TIP3    H220173   6.585   5.561   4.651
 6737TIP3   OH220174   6.629   2.844   3.404
 6737TIP3    H120175   6.647   2.936   3.423
 6737TIP3    H220176   6.713   2.808   3.377
 6738TIP3   OH220177   3.994   5.430   1.008
 6738TIP3    H120178   3.968   5.519   0.984
 6738TIP3    H220179   3.957   5.375   0.939
 6739TIP3   OH220180   0.088   2.685   2.221
 6739TIP3    H120181   0.150   2.656   2.154
 6739TIP3    H220182   0.143   2.723   2.289
 6740TIP3   OH220183   5.502   6.162   1.503
 6740TIP3    H120184   5.553   6.182   1.581
 6740TIP3    H220185   5.412   6.188   1.527
 6741TIP3   OH220186   1.054   4.736   2.801
 6741TIP3    H120187   1.050   4.831   2.813
 6741TIP3    H220188   1.018   4.721   2.714
 6742TIP3   OH220189   4.412   3.235   1.259
 6742TIP3    H120190   4.493   3.273   1.294
 6742TIP3    H220191   4.437   3.148   1.230
 6743TIP3   OH220192   5.986   1.610   4.726
 6743TIP3    H120193   5.992   1.621   4.632
 6743TIP3    H220194   5.892   1.609   4.744
 6744TIP3   OH220195   1.174   2.569   1.210
 6744TIP3    H120196   1.248   2.521   1.171
 6744TIP3    H220197   1.166   2.533   1.298
 6745TIP3   OH220198   5.750   3.754   3.915
 6745TIP3    H120199   5.703   3.826   3.957
 6745TIP3    H220200   5.723   3.758   3.823
 6746TIP3   OH220201   0.349   0.175   5.639
 6746TIP3    H120202   0.265   0.131   5.626
 6746TIP3    H220203   0.335   0.231   5.715
 6747TIP3   OH220204   4.567   6.017   2.881
 6747TIP3    H120205   4.538   6.052   2.797
 6747TIP3    H220206   4.606   6.093   2.926
 6748TIP3   OH220207   3.725   3.753   2.361
 6748TIP3    H120208   3.740   3.663   2.388
 6748TIP3    H220209   3.671   3.746   2.282
 6749TIP3   OH220210   3.879   6.584   3.711
 6749TIP3    H120211   3.856   6.499   3.673
 6749TIP3    H220212   3.876   6.644   3.637
 6750TIP3   OH220213   2.606   2.266   1.885
 6750TIP3    H120214   2.525   2.227   1.918
 6750TIP3    H220215   2.613   2.236   1.795
 6751TIP3   OH220216   0.106   5.311   2.030
 6751TIP3    H120217   0.051   5.365   2.086
 6751TIP3    H220218   0.044   5.258   1.979
 6752TIP3   OH220219   5.550   1.884   5.133
 6752TIP3    H120220   5.583   1.919   5.216
 6752TIP3    H220221   5.493   1.953   5.099
 6753TIP3   OH220222   3.296   5.400   3.730
 6753TIP3    H120223   3.260   5.486   3.712
 6753TIP3    H220224   3.231   5.357   3.786
 6754TIP3   OH220225   4.392   2.976   3.624
 6754TIP3    H120226   4.444   2.936   3.695
 6754TIP3    H220227   4.310   3.001   3.666
 6755TIP3   OH220228   7.249   1.129   4.503
 6755TIP3    H120229   7.298   1.050   4.482
 6755TIP3    H220230   7.171   1.097   4.549
 6756TIP3   OH220231   0.214   3.057   3.606
 6756TIP3    H120232   0.225   3.016   3.520
 6756TIP3    H220233   0.152   2.999   3.652
 6757TIP3   OH220234   1.670   5.430   2.476
 6757TIP3    H120235   1.591   5.461   2.430
 6757TIP3    H220236   1.704   5.509   2.519
 6758TIP3   OH220237   3.086   4.749   5.051
 6758TIP3    H120238   3.085   4.764   5.145
 6758TIP3    H220239   3.175   4.769   5.024
 6759TIP3   OH220240   3.590   4.736   0.222
 6759TIP3    H120241   3.649   4.670   0.259
 6759TIP3    H220242   3.588   4.805   0.288
 6760TIP3   OH220243   0.699   1.932   4.430
 6760TIP3    H120244   0.650   2.004   4.470
 6760TIP3    H220245   0.745   1.972   4.357
 6761TIP3   OH220246   3.183   3.619   3.590
 6761TIP3    H120247   3.201   3.692   3.531
 6761TIP3    H220248   3.270   3.587   3.614
 6762TIP3   OH220249   3.117   0.345   0.114
 6762TIP3    H120250   3.063   0.286   0.167
 6762TIP3    H220251   3.207   0.322   0.138
 6763TIP3   OH220252   2.009   4.979   2.034
 6763TIP3    H120253   2.019   4.964   1.940
 6763TIP3    H220254   2.021   5.073   2.045
 6764TIP3   OH220255   5.857   3.599   0.018
 6764TIP3    H120256   5.873   3.626   0.109
 6764TIP3    H220257   5.762   3.604   0.007
 6765TIP3   OH220258   3.334   3.608   2.122
 6765TIP3    H120259   3.266   3.649   2.175
 6765TIP3    H220260   3.333   3.516   2.147
 6766TIP3   OH220261   2.466   0.439   1.770
 6766TIP3    H120262   2.551   0.411   1.736
 6766TIP3    H220263   2.487   0.507   1.835
 6767TIP3   OH220264   4.605   4.452   0.232
 6767TIP3    H120265   4.616   4.361   0.203
 6767TIP3    H220266   4.660   4.503   0.172
 6768TIP3   OH220267   0.821   4.321   0.307
 6768TIP3    H120268   0.795   4.303   0.217
 6768TIP3    H220269   0.748   4.369   0.345
 6769TIP3   OH220270   5.933   0.998   4.535
 6769TIP3    H120271   5.919   1.083   4.578
 6769TIP3    H220272   5.945   0.937   4.607
 6770TIP3   OH220273   5.527   1.005   5.035
 6770TIP3    H120274   5.476   1.006   5.116
 6770TIP3    H220275   5.609   1.050   5.058
 6771TIP3   OH220276   3.978   6.343   3.076
 6771TIP3    H120277   4.002   6.348   2.984
 6771TIP3    H220278   3.986   6.432   3.108
 6772TIP3   OH220279   1.863   1.290   5.262
 6772TIP3    H120280   1.911   1.220   5.216
 6772TIP3    H220281   1.932   1.340   5.306
 6773TIP3   OH220282   3.512   0.724   2.404
 6773TIP3    H120283   3.459   0.724   2.325
 6773TIP3    H220284   3.562   0.642   2.400
 6774TIP3   OH220285   7.218   6.078   5.000
 6774TIP3    H120286   7.172   6.017   4.942
 6774TIP3    H220287   7.231   6.157   4.946
 6775TIP3   OH220288   0.930   3.028   4.355
 6775TIP3    H120289   0.851   3.082   4.351
 6775TIP3    H220290   0.900   2.940   4.337
 6776TIP3   OH220291   1.326   2.652   0.792
 6776TIP3    H120292   1.297   2.730   0.744
 6776TIP3    H220293   1.335   2.683   0.882
 6777TIP3   OH220294   5.231   2.871   4.378
 6777TIP3    H120295   5.265   2.833   4.459
 6777TIP3    H220296   5.307   2.879   4.321
 6778TIP3   OH220297   6.465   1.575   2.885
 6778TIP3    H120298   6.551   1.559   2.924
 6778TIP3    H220299   6.437   1.658   2.923
 6779TIP3   OH220300   1.995   4.916   0.385
 6779TIP3    H120301   2.062   4.902   0.453
 6779TIP3    H220302   2.004   5.009   0.363
 6780TIP3   OH220303   3.514   2.800   0.518
 6780TIP3    H120304   3.498   2.840   0.603
 6780TIP3    H220305   3.571   2.725   0.536
 6781TIP3   OH220306   2.237   3.732   1.213
 6781TIP3    H120307   2.280   3.816   1.233
 6781TIP3    H220308   2.296   3.690   1.150
 6782TIP3   OH220309   5.516   3.007   3.127
 6782TIP3    H120310   5.512   2.912   3.118
 6782TIP3    H220311   5.446   3.039   3.071
 6783TIP3   OH220312   3.821   0.777   2.409
 6783TIP3    H120313   3.877   0.853   2.396
 6783TIP3    H220314   3.825   0.730   2.326
 6784TIP3   OH220315   5.093   2.819   3.118
 6784TIP3    H120316   5.129   2.751   3.061
 6784TIP3    H220317   5.130   2.799   3.204
 6785TIP3   OH220318   5.054   6.685   4.961
 6785TIP3    H120319   5.149   6.685   4.953
 6785TIP3    H220320   5.034   6.606   5.011
 6786TIP3   OH220321   2.260   0.498   2.536
 6786TIP3    H120322   2.296   0.447   2.609
 6786TIP3    H220323   2.315   0.474   2.461
 6787TIP3   OH220324   3.552   5.418   2.317
 6787TIP3    H120325   3.489   5.374   2.374
 6787TIP3    H220326   3.536   5.381   2.230
 6788TIP3   OH220327   0.425   2.825   1.009
 6788TIP3    H120328   0.456   2.860   1.092
 6788TIP3    H220329   0.490   2.759   0.985
 6789TIP3   OH220330   3.624   5.108   2.281
 6789TIP3    H120331   3.694   5.075   2.224
 6789TIP3    H220332   3.567   5.158   2.222
 6790TIP3   OH220333   3.868   0.513   4.932
 6790TIP3    H120334   3.839   0.568   5.005
 6790TIP3    H220335   3.962   0.532   4.924
 6791TIP3   OH220336   5.623   6.423   5.372
 6791TIP3    H120337   5.647   6.337   5.408
 6791TIP3    H220338   5.687   6.483   5.409
 6792TIP3   OH220339   2.937   3.634   3.490
 6792TIP3    H120340   3.026   3.610   3.517
 6792TIP3    H220341   2.941   3.635   3.395
 6793TIP3   OH220342   4.037   4.443   1.633
 6793TIP3    H120343   4.084   4.526   1.638
 6793TIP3    H220344   3.993   4.445   1.547
 6794TIP3   OH220345   4.423   5.305   5.695
 6794TIP3    H120346   4.472   5.341   5.621
 6794TIP3    H220347   4.336   5.344   5.687
 6795TIP3   OH220348   5.660   0.310   4.305
 6795TIP3    H120349   5.570   0.337   4.286
 6795TIP3    H220350   5.660   0.215   4.290
 6796TIP3   OH220351   3.338   6.517   3.113
 6796TIP3    H120352   3.297   6.568   3.183
 6796TIP3    H220353   3.430   6.511   3.139
 6797TIP3   OH220354   5.173   6.382   5.132
 6797TIP3    H120355   5.184   6.341   5.217
 6797TIP3    H220356   5.262   6.405   5.104
 6798TIP3   OH220357   0.296   6.402   4.232
 6798TIP3    H120358   0.352   6.466   4.187
 6798TIP3    H220359   0.209   6.418   4.197
 6799TIP3   OH220360   5.764   1.126   4.723
 6799TIP3    H120361   5.764   1.221   4.711
 6799TIP3    H220362   5.800   1.113   4.811
 6800TIP3   OH220363   0.046   2.002   4.804
 6800TIP3    H120364   0.052   1.968   4.714
 6800TIP3    H220365   0.117   1.957   4.851
 6801TIP3   OH220366   4.524   5.459   5.457
 6801TIP3    H120367   4.492   5.493   5.374
 6801TIP3    H220368   4.581   5.528   5.492
 6802TIP3   OH220369   3.270   4.038   5.552
 6802TIP3    H120370   3.226   4.093   5.488
 6802TIP3    H220371   3.287   4.097   5.626
 6803TIP3   OH220372   6.533   4.034   2.986
 6803TIP3    H120373   6.588   3.992   2.921
 6803TIP3    H220374   6.444   4.024   2.952
 6804TIP3   OH220375   6.375   6.097   3.997
 6804TIP3    H120376   6.441   6.115   4.064
 6804TIP3    H220377   6.419   6.042   3.933
 6805TIP3   OH220378   6.202   1.496   2.748
 6805TIP3    H120379   6.197   1.533   2.836
 6805TIP3    H220380   6.283   1.533   2.712
 6806TIP3   OH220381   0.560   0.395   5.606
 6806TIP3    H120382   0.521   0.482   5.600
 6806TIP3    H220383   0.487   0.335   5.591
 6807TIP3   OH220384   1.068   6.740   3.952
 6807TIP3    H120385   1.003   6.680   3.916
 6807TIP3    H220386   1.105   6.694   4.026
 6808TIP3   OH220387   6.006   4.280   5.590
 6808TIP3    H120388   6.036   4.221   5.521
 6808TIP3    H220389   6.075   4.346   5.597
 6809TIP3   OH220390   5.101   5.982   5.104
 6809TIP3    H120391   5.195   5.966   5.106
 6809TIP3    H220392   5.079   5.989   5.011
 6810TIP3   OH220393   1.607   6.030   5.404
 6810TIP3    H120394   1.648   6.027   5.318
 6810TIP3    H220395   1.576   5.940   5.419
 6811TIP3   OH220396   5.466   2.800   1.194
 6811TIP3    H120397   5.514   2.745   1.256
 6811TIP3    H220398   5.510   2.785   1.110
 6812TIP3   OH220399   4.916   1.476   0.715
 6812TIP3    H120400   4.960   1.447   0.634
 6812TIP3    H220401   4.985   1.519   0.765
 6813TIP3   OH220402   4.130   3.173   5.236
 6813TIP3    H120403   4.101   3.256   5.275
 6813TIP3    H220404   4.225   3.177   5.237
 6814TIP3   OH220405   2.256   1.955   0.651
 6814TIP3    H120406   2.269   2.027   0.588
 6814TIP3    H220407   2.291   1.878   0.606
 6815TIP3   OH220408   3.595   1.161   4.644
 6815TIP3    H120409   3.636   1.240   4.680
 6815TIP3    H220410   3.611   1.165   4.550
 6816TIP3   OH220411   5.303   0.153   1.410
 6816TIP3    H120412   5.349   0.202   1.478
 6816TIP3    H220413   5.372   0.107   1.362
 6817TIP3   OH220414   4.726   4.105   1.647
 6817TIP3    H120415   4.684   4.182   1.606
 6817TIP3    H220416   4.698   4.031   1.592
 6818TIP3   OH220417   0.055   0.294   5.262
 6818TIP3    H120418   0.076   0.359   5.195
 6818TIP3    H220419   0.102   0.215   5.234
 6819TIP3   OH220420   4.162   0.745   4.207
 6819TIP3    H120421   4.132   0.670   4.155
 6819TIP3    H220422   4.196   0.807   4.142
 6820TIP3   OH220423   1.419   6.096   1.288
 6820TIP3    H120424   1.432   6.007   1.253
 6820TIP3    H220425   1.416   6.152   1.210
 6821TIP3   OH220426   3.560   1.099   3.181
 6821TIP3    H120427   3.604   1.080   3.098
 6821TIP3    H220428   3.561   1.194   3.188
 6822TIP3   OH220429   0.263   3.575   3.355
 6822TIP3    H120430   0.187   3.519   3.338
 6822TIP3    H220431   0.296   3.545   3.440
 6823TIP3   OH220432   2.868   3.509   5.842
 6823TIP3    H120433   2.813   3.533   5.767
 6823TIP3    H220434   2.806   3.499   5.914
 6824TIP3   OH220435   6.518   0.228   4.264
 6824TIP3    H120436   6.471   0.299   4.308
 6824TIP3    H220437   6.490   0.148   4.310
 6825TIP3   OH220438   5.035   4.608   1.267
 6825TIP3    H120439   5.063   4.683   1.215
 6825TIP3    H220440   4.939   4.612   1.266
 6826TIP3   OH220441   6.646   4.852   4.863
 6826TIP3    H120442   6.738   4.828   4.850
 6826TIP3    H220443   6.637   4.862   4.958
 6827TIP3   OH220444   6.499   3.138   0.421
 6827TIP3    H120445   6.589   3.109   0.402
 6827TIP3    H220446   6.472   3.186   0.343
 6828TIP3   OH220447   0.694   4.251   5.849
 6828TIP3    H120448   0.672   4.187   5.781
 6828TIP3    H220449   0.737   4.322   5.802
 6829TIP3   OH220450   2.435   6.738   3.085
 6829TIP3    H120451   2.402   6.648   3.090
 6829TIP3    H220452   2.502   6.736   3.017
 6830TIP3   OH220453   2.164   1.496   0.050
 6830TIP3    H120454   2.245   1.542   0.027
 6830TIP3    H220455   2.095   1.542   0.003
 6831TIP3   OH220456   5.824   0.498   4.217
 6831TIP3    H120457   5.882   0.486   4.292
 6831TIP3    H220458   5.746   0.447   4.240
 6832TIP3   OH220459   6.749   0.194   4.837
 6832TIP3    H120460   6.719   0.111   4.799
 6832TIP3    H220461   6.757   0.176   4.930
 6833TIP3   OH220462   1.848   6.505   4.114
 6833TIP3    H120463   1.772   6.557   4.141
 6833TIP3    H220464   1.857   6.521   4.020
 6834TIP3   OH220465   6.389   2.856   4.239
 6834TIP3    H120466   6.343   2.788   4.190
 6834TIP3    H220467   6.347   2.938   4.211
 6835TIP3   OH220468   3.936   5.980   1.000
 6835TIP3    H120469   3.891   5.993   1.083
 6835TIP3    H220470   3.927   6.064   0.954
 6836TIP3   OH220471   2.362   0.555   4.728
 6836TIP3    H120472   2.369   0.593   4.641
 6836TIP3    H220473   2.287   0.601   4.767
 6837TIP3   OH220474   4.188   3.695   5.878
 6837TIP3    H120475   4.167   3.603   5.896
 6837TIP3    H220476   4.262   3.691   5.817
 6838TIP3   OH220477   2.138   1.884   5.601
 6838TIP3    H120478   2.223   1.871   5.558
 6838TIP3    H220479   2.136   1.978   5.621
 6839TIP3   OH220480   5.202   3.358   4.897
 6839TIP3    H120481   5.261   3.288   4.870
 6839TIP3    H220482   5.250   3.406   4.964
 6840TIP3   OH220483   7.192   5.185   4.560
 6840TIP3    H120484   7.242   5.262   4.588
 6840TIP3    H220485   7.161   5.208   4.473
 6841TIP3   OH220486   3.227   3.419   4.452
 6841TIP3    H120487   3.195   3.505   4.480
 6841TIP3    H220488   3.221   3.421   4.356
 6842TIP3   OH220489   3.648   4.447   2.681
 6842TIP3    H120490   3.574   4.468   2.738
 6842TIP3    H220491   3.676   4.532   2.647
 6843TIP3   OH220492   3.845   5.883   1.877
 6843TIP3    H120493   3.906   5.922   1.814
 6843TIP3    H220494   3.865   5.927   1.960
 6844TIP3   OH220495   5.222   4.393   4.663
 6844TIP3    H120496   5.179   4.384   4.577
 6844TIP3    H220497   5.270   4.476   4.657
 6845TIP3   OH220498   6.825   4.428   1.282
 6845TIP3    H120499   6.814   4.465   1.194
 6845TIP3    H220500   6.862   4.341   1.266
 6846TIP3   OH220501   0.373   4.407   5.784
 6846TIP3    H120502   0.415   4.382   5.866
 6846TIP3    H220503   0.431   4.473   5.746
 6847TIP3   OH220504   5.430   5.540   1.954
 6847TIP3    H120505   5.407   5.632   1.958
 6847TIP3    H220506   5.379   5.499   2.025
 6848TIP3   OH220507   1.373   6.553   2.031
 6848TIP3    H120508   1.287   6.531   2.068
 6848TIP3    H220509   1.427   6.477   2.049
 6849TIP3   OH220510   5.856   4.449   2.881
 6849TIP3    H120511   5.817   4.461   2.795
 6849TIP3    H220512   5.935   4.397   2.865
 6850TIP3   OH220513   4.437   4.825   3.828
 6850TIP3    H120514   4.392   4.851   3.909
 6850TIP3    H220515   4.421   4.897   3.767
 6851TIP3   OH220516   1.254   2.459   1.953
 6851TIP3    H120517   1.239   2.407   1.874
 6851TIP3    H220518   1.336   2.425   1.990
 6852TIP3   OH220519   0.438   0.616   0.732
 6852TIP3    H120520   0.373   0.683   0.755
 6852TIP3    H220521   0.518   0.645   0.775
 6853TIP3   OH220522   3.155   3.817   1.753
 6853TIP3    H120523   3.139   3.807   1.659
 6853TIP3    H220524   3.209   3.741   1.776
 6854TIP3   OH220525   1.639   1.928   4.042
 6854TIP3    H120526   1.607   1.990   4.108
 6854TIP3    H220527   1.680   1.858   4.093
 6855TIP3   OH220528   4.581   5.213   3.565
 6855TIP3    H120529   4.490   5.206   3.595
 6855TIP3    H220530   4.631   5.226   3.646
 6856TIP3   OH220531   0.416   0.648   5.598
 6856TIP3    H120532   0.392   0.652   5.690
 6856TIP3    H220533   0.455   0.733   5.579
 6857TIP3   OH220534   2.649   0.094   2.134
 6857TIP3    H120535   2.679   0.004   2.146
 6857TIP3    H220536   2.648   0.131   2.222
 6858TIP3   OH220537   3.564   1.653   3.115
 6858TIP3    H120538   3.659   1.662   3.108
 6858TIP3    H220539   3.535   1.734   3.157
 6859TIP3   OH220540   2.340   0.008   4.839
 6859TIP3    H120541   2.423   0.041   4.873
 6859TIP3    H220542   2.308   0.078   4.782
 6860TIP3   OH220543   6.380   0.039   1.208
 6860TIP3    H120544   6.413   0.056   1.120
 6860TIP3    H220545   6.451   0.066   1.266
 6861TIP3   OH220546   0.096   3.604   2.047
 6861TIP3    H120547   0.179   3.653   2.041
 6861TIP3    H220548   0.079   3.576   1.958
 6862TIP3   OH220549   5.359   1.284   3.339
 6862TIP3    H120550   5.326   1.296   3.428
 6862TIP3    H220551   5.335   1.364   3.294
 6863TIP3   OH220552   4.083   5.052   5.851
 6863TIP3    H120553   4.042   5.002   5.921
 6863TIP3    H220554   4.026   5.127   5.838
 6864TIP3   OH220555   6.446   1.883   4.081
 6864TIP3    H120556   6.383   1.951   4.054
 6864TIP3    H220557   6.422   1.807   4.028
 6865TIP3   OH220558   3.012   6.118   2.678
 6865TIP3    H120559   3.075   6.183   2.709
 6865TIP3    H220560   3.014   6.126   2.583
 6866TIP3   OH220561   2.855   2.835   5.151
 6866TIP3    H120562   2.875   2.850   5.243
 6866TIP3    H220563   2.839   2.922   5.115
 6867TIP3   OH220564   2.064   5.000   1.267
 6867TIP3    H120565   2.045   4.988   1.360
 6867TIP3    H220566   1.978   4.996   1.224
 6868TIP3   OH220567   6.695   5.856   4.188
 6868TIP3    H120568   6.649   5.928   4.145
 6868TIP3    H220569   6.781   5.892   4.208
 6869TIP3   OH220570   1.676   4.066   1.766
 6869TIP3    H120571   1.651   3.985   1.723
 6869TIP3    H220572   1.626   4.134   1.721
 6870TIP3   OH220573   3.645   1.310   1.461
 6870TIP3    H120574   3.713   1.283   1.399
 6870TIP3    H220575   3.615   1.228   1.501
 6871TIP3   OH220576   5.653   0.894   0.181
 6871TIP3    H120577   5.660   0.842   0.101
 6871TIP3    H220578   5.559   0.902   0.196
 6872TIP3   OH220579   6.843   3.131   5.169
 6872TIP3    H120580   6.762   3.086   5.193
 6872TIP3    H220581   6.847   3.206   5.228
 6873TIP3   OH220582   0.079   5.159   5.385
 6873TIP3    H120583   0.140   5.131   5.452
 6873TIP3    H220584   0.028   5.229   5.427
 6874TIP3   OH220585   2.848   3.739   4.592
 6874TIP3    H120586   2.877   3.675   4.526
 6874TIP3    H220587   2.842   3.822   4.544
 6875TIP3   OH220588   0.083   1.224   4.104
 6875TIP3    H120589   0.049   1.285   4.039
 6875TIP3    H220590   0.058   1.137   4.071
 6876TIP3   OH220591   4.938   2.331   2.497
 6876TIP3    H120592   4.876   2.374   2.556
 6876TIP3    H220593   4.948   2.393   2.425
 6877TIP3   OH220594   1.102   1.534   2.278
 6877TIP3    H120595   1.155   1.613   2.288
 6877TIP3    H220596   1.166   1.464   2.264
 6878TIP3   OH220597   2.273   0.666   1.993
 6878TIP3    H120598   2.178   0.657   1.985
 6878TIP3    H220599   2.291   0.757   1.972
 6879TIP3   OH220600   6.175   1.072   0.138
 6879TIP3    H120601   6.235   0.998   0.147
 6879TIP3    H220602   6.233   1.149   0.132
 6880TIP3   OH220603   2.516   5.976   0.621
 6880TIP3    H120604   2.549   6.026   0.696
 6880TIP3    H220605   2.558   6.016   0.546
 6881TIP3   OH220606   1.350   2.365   1.161
 6881TIP3    H120607   1.441   2.384   1.140
 6881TIP3    H220608   1.324   2.300   1.096
 6882TIP3   OH220609   3.491   4.590   1.580
 6882TIP3    H120610   3.582   4.560   1.589
 6882TIP3    H220611   3.449   4.563   1.661
 6883TIP3   OH220612   5.332   5.500   0.277
 6883TIP3    H120613   5.341   5.579   0.331
 6883TIP3    H220614   5.395   5.439   0.313
 6884TIP3   OH220615   2.048   5.292   1.557
 6884TIP3    H120616   2.108   5.230   1.597
 6884TIP3    H220617   1.982   5.309   1.624
 6885TIP3   OH220618   1.822   2.189   2.634
 6885TIP3    H120619   1.770   2.236   2.568
 6885TIP3    H220620   1.807   2.097   2.615
 6886TIP3   OH220621   6.371   5.087   0.387
 6886TIP3    H120622   6.285   5.128   0.395
 6886TIP3    H220623   6.431   5.149   0.428
 6887TIP3   OH220624   0.087   4.462   5.791
 6887TIP3    H120625   0.079   4.556   5.809
 6887TIP3    H220626   0.174   4.452   5.754
 6888TIP3   OH220627   7.162   6.044   3.215
 6888TIP3    H120628   7.244   6.068   3.259
 6888TIP3    H220629   7.114   6.127   3.207
 6889TIP3   OH220630   3.683   4.413   1.099
 6889TIP3    H120631   3.760   4.399   1.155
 6889TIP3    H220632   3.649   4.326   1.081
 6890TIP3   OH220633   1.395   2.012   1.889
 6890TIP3    H120634   1.455   1.952   1.934
 6890TIP3    H220635   1.431   2.099   1.904
 6891TIP3   OH220636   2.675   1.338   5.561
 6891TIP3    H120637   2.669   1.262   5.504
 6891TIP3    H220638   2.725   1.402   5.511
 6892TIP3   OH220639   6.111   1.629   0.209
 6892TIP3    H120640   6.038   1.588   0.162
 6892TIP3    H220641   6.072   1.707   0.250
 6893TIP3   OH220642   5.314   5.827   2.057
 6893TIP3    H120643   5.221   5.826   2.079
 6893TIP3    H220644   5.328   5.912   2.016
 6894TIP3   OH220645   6.609   0.393   5.045
 6894TIP3    H120646   6.601   0.409   5.139
 6894TIP3    H220647   6.687   0.338   5.037
 6895TIP3   OH220648   5.537   0.601   4.465
 6895TIP3    H120649   5.598   0.534   4.497
 6895TIP3    H220650   5.452   0.576   4.503
 6896TIP3   OH220651   3.320   0.251   4.765
 6896TIP3    H120652   3.385   0.280   4.829
 6896TIP3    H220653   3.287   0.332   4.726
 6897TIP3   OH220654   3.035   6.115  -0.010
 6897TIP3    H120655   3.062   6.023  -0.013
 6897TIP3    H220656   3.106   6.160   0.035
 6898TIP3   OH220657   2.979   5.552   0.445
 6898TIP3    H120658   2.978   5.634   0.395
 6898TIP3    H220659   2.980   5.483   0.379
 6899TIP3   OH220660   5.057   1.171   3.442
 6899TIP3    H120661   5.033   1.238   3.378
 6899TIP3    H220662   4.990   1.104   3.433
 6900TIP3   OH220663   6.218   5.955   2.460
 6900TIP3    H120664   6.291   5.985   2.405
 6900TIP3    H220665   6.225   6.009   2.539
 6901TIP3   OH220666   0.336   2.304   1.872
 6901TIP3    H120667   0.379   2.235   1.822
 6901TIP3    H220668   0.247   2.307   1.839
 6902TIP3   OH220669   5.110   3.285   5.752
 6902TIP3    H120670   5.048   3.322   5.688
 6902TIP3    H220671   5.055   3.236   5.813
 6903TIP3   OH220672   3.389   2.335   2.960
 6903TIP3    H120673   3.405   2.379   3.044
 6903TIP3    H220674   3.466   2.280   2.946
 6904TIP3   OH220675   3.374   2.384   5.340
 6904TIP3    H120676   3.318   2.332   5.397
 6904TIP3    H220677   3.458   2.337   5.340
 6905TIP3   OH220678   2.412   3.482   3.976
 6905TIP3    H120679   2.372   3.396   3.965
 6905TIP3    H220680   2.493   3.479   3.925
 6906TIP3   OH220681   0.499   0.542   1.155
 6906TIP3    H120682   0.521   0.623   1.201
 6906TIP3    H220683   0.583   0.513   1.118
 6907TIP3   OH220684   1.231   5.907   0.883
 6907TIP3    H120685   1.179   5.985   0.904
 6907TIP3    H220686   1.322   5.933   0.896
 6908TIP3   OH220687   6.597   2.060   3.447
 6908TIP3    H120688   6.563   1.998   3.511
 6908TIP3    H220689   6.620   2.007   3.371
 6909TIP3   OH220690   6.207   4.065   3.341
 6909TIP3    H120691   6.264   4.068   3.264
 6909TIP3    H220692   6.154   4.145   3.336
 6910TIP3   OH220693   0.097   5.395   3.648
 6910TIP3    H120694   0.040   5.430   3.580
 6910TIP3    H220695   0.067   5.438   3.728
 6911TIP3   OH220696   5.095   6.045   5.381
 6911TIP3    H120697   5.069   6.137   5.372
 6911TIP3    H220698   5.106   6.015   5.291
 6912TIP3   OH220699   3.974   3.278   4.462
 6912TIP3    H120700   4.036   3.350   4.468
 6912TIP3    H220701   3.889   3.320   4.448
 6913TIP3   OH220702   5.956   3.994   5.791
 6913TIP3    H120703   5.945   3.933   5.718
 6913TIP3    H220704   5.880   3.978   5.847
 6914TIP3   OH220705   2.908   1.915   5.557
 6914TIP3    H120706   2.863   1.998   5.576
 6914TIP3    H220707   2.849   1.868   5.499
 6915TIP3   OH220708   0.816   0.185   0.918
 6915TIP3    H120709   0.780   0.114   0.865
 6915TIP3    H220710   0.880   0.143   0.975
 6916TIP3   OH220711   2.325   3.785   0.196
 6916TIP3    H120712   2.414   3.819   0.195
 6916TIP3    H220713   2.269   3.863   0.204
 6917TIP3   OH220714   6.191   3.433   1.732
 6917TIP3    H120715   6.128   3.381   1.783
 6917TIP3    H220716   6.197   3.516   1.779
 6918TIP3   OH220717   0.383   0.434   0.506
 6918TIP3    H120718   0.302   0.390   0.533
 6918TIP3    H220719   0.411   0.483   0.584
 6919TIP3   OH220720   7.202   2.764   5.706
 6919TIP3    H120721   7.116   2.761   5.747
 6919TIP3    H220722   7.257   2.811   5.767
 6920TIP3   OH220723   4.764   2.889   1.303
 6920TIP3    H120724   4.810   2.931   1.376
 6920TIP3    H220725   4.832   2.871   1.239
 6921TIP3   OH220726   2.315   0.492   5.389
 6921TIP3    H120727   2.242   0.545   5.420
 6921TIP3    H220728   2.294   0.473   5.298
 6922TIP3   OH220729   3.079   0.226   4.056
 6922TIP3    H120730   3.006   0.264   4.008
 6922TIP3    H220731   3.132   0.301   4.083
 6923TIP3   OH220732   0.936   4.345   4.431
 6923TIP3    H120733   1.006   4.380   4.486
 6923TIP3    H220734   0.890   4.422   4.398
 6924TIP3   OH220735   0.640   4.245   2.855
 6924TIP3    H120736   0.598   4.163   2.829
 6924TIP3    H220737   0.677   4.280   2.774
 6925TIP3   OH220738   1.760   4.608   5.699
 6925TIP3    H120739   1.822   4.609   5.625
 6925TIP3    H220740   1.709   4.528   5.685
 6926TIP3   OH220741   3.152   0.254   5.747
 6926TIP3    H120742   3.118   0.165   5.756
 6926TIP3    H220743   3.090   0.309   5.795
 6927TIP3   OH220744   1.377   0.491   3.567
 6927TIP3    H120745   1.468   0.484   3.538
 6927TIP3    H220746   1.364   0.584   3.586
 6928TIP3   OH220747   1.359   2.332   3.243
 6928TIP3    H120748   1.444   2.289   3.227
 6928TIP3    H220749   1.301   2.260   3.267
 6929TIP3   OH220750   3.560   6.083   0.781
 6929TIP3    H120751   3.618   6.037   0.720
 6929TIP3    H220752   3.481   6.029   0.785
 6930TIP3   OH220753   0.435   6.726   3.329
 6930TIP3    H120754   0.463   6.664   3.397
 6930TIP3    H220755   0.350   6.757   3.359
 6931TIP3   OH220756   3.288   6.671   2.001
 6931TIP3    H120757   3.267   6.758   1.967
 6931TIP3    H220758   3.384   6.670   2.006
 6932TIP3   OH220759   3.725   5.625   1.128
 6932TIP3    H120760   3.695   5.551   1.075
 6932TIP3    H220761   3.804   5.656   1.083
 6933TIP3   OH220762   3.471   1.675   5.505
 6933TIP3    H120763   3.516   1.752   5.539
 6933TIP3    H220764   3.541   1.610   5.493
 6934TIP3   OH220765   3.749   3.088   2.105
 6934TIP3    H120766   3.679   3.046   2.156
 6934TIP3    H220767   3.774   3.021   2.040
 6935TIP3   OH220768   5.712   0.496   2.354
 6935TIP3    H120769   5.747   0.416   2.393
 6935TIP3    H220770   5.620   0.497   2.378
 6936TIP3   OH220771   3.921   3.637   2.141
 6936TIP3    H120772   3.841   3.691   2.137
 6936TIP3    H220773   3.903   3.563   2.083
 6937TIP3   OH220774   5.323   2.194   0.062
 6937TIP3    H120775   5.401   2.241   0.091
 6937TIP3    H220776   5.331   2.107   0.100
 6938TIP3   OH220777   5.293   2.873   1.579
 6938TIP3    H120778   5.278   2.962   1.611
 6938TIP3    H220779   5.269   2.817   1.652
 6939TIP3   OH220780   1.181   4.381   0.619
 6939TIP3    H120781   1.208   4.307   0.565
 6939TIP3    H220782   1.191   4.349   0.709
 6940TIP3   OH220783   5.660   1.855   0.187
 6940TIP3    H120784   5.724   1.925   0.174
 6940TIP3    H220785   5.690   1.784   0.130
 6941TIP3   OH220786   6.142   1.577   3.206
 6941TIP3    H120787   6.100   1.526   3.137
 6941TIP3    H220788   6.082   1.569   3.281
 6942TIP3   OH220789   3.789   6.487   0.784
 6942TIP3    H120790   3.708   6.483   0.733
 6942TIP3    H220791   3.791   6.577   0.818
 6943TIP3   OH220792   5.305   5.985   5.558
 6943TIP3    H120793   5.259   6.016   5.636
 6943TIP3    H220794   5.244   6.002   5.486
 6944TIP3   OH220795   3.457   4.351   4.606
 6944TIP3    H120796   3.476   4.267   4.647
 6944TIP3    H220797   3.479   4.338   4.513
 6945TIP3   OH220798   4.827   0.875   0.563
 6945TIP3    H120799   4.889   0.854   0.633
 6945TIP3    H220800   4.786   0.957   0.592
 6946TIP3   OH220801   1.326   3.090   1.282
 6946TIP3    H120802   1.237   3.091   1.320
 6946TIP3    H220803   1.328   3.012   1.228
 6947TIP3   OH220804   7.010   1.671   4.697
 6947TIP3    H120805   7.070   1.695   4.767
 6947TIP3    H220806   6.993   1.752   4.650
 6948TIP3   OH220807   0.815   2.836   5.506
 6948TIP3    H120808   0.722   2.816   5.499
 6948TIP3    H220809   0.820   2.931   5.507
 6949TIP3   OH220810   2.604   2.487   0.549
 6949TIP3    H120811   2.616   2.439   0.468
 6949TIP3    H220812   2.574   2.422   0.612
 6950TIP3   OH220813   6.679   0.748   1.071
 6950TIP3    H120814   6.738   0.714   1.004
 6950TIP3    H220815   6.595   0.761   1.025
 6951TIP3   OH220816   4.516   1.269   4.290
 6951TIP3    H120817   4.565   1.298   4.213
 6951TIP3    H220818   4.581   1.224   4.344
 6952TIP3   OH220819   3.928   1.521   1.789
 6952TIP3    H120820   3.973   1.535   1.705
 6952TIP3    H220821   3.939   1.604   1.836
 6953TIP3   OH220822   1.004   4.701   5.580
 6953TIP3    H120823   1.026   4.657   5.662
 6953TIP3    H220824   1.072   4.767   5.570
 6954TIP3   OH220825   3.214   6.149   5.541
 6954TIP3    H120826   3.154   6.087   5.500
 6954TIP3    H220827   3.264   6.186   5.469
 6955TIP3   OH220828   6.497   5.805   3.461
 6955TIP3    H120829   6.551   5.734   3.496
 6955TIP3    H220830   6.559   5.875   3.441
 6956TIP3   OH220831   2.396   1.142   4.095
 6956TIP3    H120832   2.355   1.084   4.031
 6956TIP3    H220833   2.468   1.183   4.048
 6957TIP3   OH220834   0.369   3.476   4.713
 6957TIP3    H120835   0.313   3.454   4.787
 6957TIP3    H220836   0.455   3.492   4.751
 6958TIP3   OH220837   1.727   1.103   3.843
 6958TIP3    H120838   1.741   1.167   3.913
 6958TIP3    H220839   1.710   1.021   3.889
 6959TIP3   OH220840   3.962   6.201   5.694
 6959TIP3    H120841   4.035   6.254   5.663
 6959TIP3    H220842   3.999   6.146   5.763
 6960TIP3   OH220843   1.398   4.280   5.791
 6960TIP3    H120844   1.345   4.302   5.714
 6960TIP3    H220845   1.336   4.284   5.864
 6961TIP3   OH220846   1.928   0.849   3.091
 6961TIP3    H120847   1.871   0.778   3.061
 6961TIP3    H220848   2.009   0.837   3.042
 6962TIP3   OH220849   6.607   4.313   2.811
 6962TIP3    H120850   6.654   4.364   2.877
 6962TIP3    H220851   6.527   4.285   2.855
 6963TIP3   OH220852   7.075   1.409   0.669
 6963TIP3    H120853   6.981   1.421   0.658
 6963TIP3    H220854   7.087   1.314   0.675
 6964TIP3   OH220855   6.293   5.339   3.619
 6964TIP3    H120856   6.216   5.378   3.578
 6964TIP3    H220857   6.357   5.410   3.624
 6965TIP3   OH220858   2.215   1.082   3.819
 6965TIP3    H120859   2.267   1.056   3.744
 6965TIP3    H220860   2.194   1.000   3.863
 6966TIP3   OH220861   6.195   2.280   5.849
 6966TIP3    H120862   6.251   2.323   5.913
 6966TIP3    H220863   6.256   2.232   5.792
 6967TIP3   OH220864   2.813   3.900   3.800
 6967TIP3    H120865   2.752   3.974   3.805
 6967TIP3    H220866   2.782   3.840   3.867
 6968TIP3   OH220867   1.292   4.203   5.316
 6968TIP3    H120868   1.198   4.191   5.327
 6968TIP3    H220869   1.305   4.297   5.320
 6969TIP3   OH220870   1.207   5.020   4.119
 6969TIP3    H120871   1.180   5.040   4.030
 6969TIP3    H220872   1.214   4.924   4.121
 6970TIP3   OH220873   0.879   0.649   3.966
 6970TIP3    H120874   0.946   0.700   3.921
 6970TIP3    H220875   0.916   0.560   3.971
 6971TIP3   OH220876   6.054   6.333   0.501
 6971TIP3    H120877   6.111   6.403   0.533
 6971TIP3    H220878   5.985   6.379   0.453
 6972TIP3   OH220879   6.233   1.239   3.217
 6972TIP3    H120880   6.247   1.307   3.151
 6972TIP3    H220881   6.288   1.265   3.290
 6973TIP3   OH220882   0.501   4.759   1.810
 6973TIP3    H120883   0.539   4.838   1.771
 6973TIP3    H220884   0.412   4.757   1.777
 6974TIP3   OH220885   1.224   5.301   5.875
 6974TIP3    H120886   1.309   5.342   5.859
 6974TIP3    H220887   1.169   5.372   5.908
 6975TIP3   OH220888   2.269   0.201   3.921
 6975TIP3    H120889   2.189   0.159   3.890
 6975TIP3    H220890   2.289   0.268   3.856
 6976TIP3   OH220891   1.185   4.203   1.576
 6976TIP3    H120892   1.267   4.155   1.564
 6976TIP3    H220893   1.210   4.280   1.626
 6977TIP3   OH220894   1.739   6.414   4.865
 6977TIP3    H120895   1.752   6.348   4.933
 6977TIP3    H220896   1.796   6.386   4.793
 6978TIP3   OH220897   0.942   1.238   1.947
 6978TIP3    H120898   0.884   1.281   2.010
 6978TIP3    H220899   1.020   1.294   1.944
 6979TIP3   OH220900   4.761   6.564   4.741
 6979TIP3    H120901   4.772   6.536   4.650
 6979TIP3    H220902   4.746   6.659   4.735
 6980TIP3   OH220903   3.021   3.368   2.934
 6980TIP3    H120904   3.018   3.277   2.904
 6980TIP3    H220905   3.072   3.365   3.015
 6981TIP3   OH220906   0.783   5.596   3.993
 6981TIP3    H120907   0.756   5.635   3.910
 6981TIP3    H220908   0.857   5.540   3.970
 6982TIP3   OH220909   1.559   6.284   4.086
 6982TIP3    H120910   1.535   6.192   4.071
 6982TIP3    H220911   1.557   6.294   4.181
 6983TIP3   OH220912   0.866   3.286   5.742
 6983TIP3    H120913   0.938   3.249   5.792
 6983TIP3    H220914   0.900   3.370   5.709
 6984TIP3   OH220915   1.008   4.243   5.576
 6984TIP3    H120916   0.917   4.260   5.553
 6984TIP3    H220917   1.041   4.188   5.505
 6985TIP3   OH220918   5.692   4.278   2.383
 6985TIP3    H120919   5.705   4.289   2.478
 6985TIP3    H220920   5.720   4.362   2.346
 6986TIP3   OH220921   0.383   4.697   4.944
 6986TIP3    H120922   0.300   4.689   4.991
 6986TIP3    H220923   0.446   4.652   5.000
 6987TIP3   OH220924   1.794   6.598   4.507
 6987TIP3    H120925   1.763   6.507   4.502
 6987TIP3    H220926   1.862   6.604   4.440
 6988TIP3   OH220927   6.355   5.940   0.065
 6988TIP3    H120928   6.279   5.989   0.035
 6988TIP3    H220929   6.429   5.980   0.018
 6989TIP3   OH220930   5.846   2.252   5.424
 6989TIP3    H120931   5.896   2.333   5.417
 6989TIP3    H220932   5.859   2.223   5.514
 6990TIP3   OH220933   2.101   2.806   3.226
 6990TIP3    H120934   2.096   2.780   3.318
 6990TIP3    H220935   2.018   2.777   3.188
 6991TIP3   OH220936   4.305   0.278   5.617
 6991TIP3    H120937   4.273   0.197   5.578
 6991TIP3    H220938   4.226   0.330   5.634
 6992TIP3   OH220939   5.229   2.127   1.702
 6992TIP3    H120940   5.228   2.074   1.782
 6992TIP3    H220941   5.301   2.189   1.715
 6993TIP3   OH220942   3.162   3.683   4.485
 6993TIP3    H120943   3.144   3.692   4.391
 6993TIP3    H220944   3.127   3.763   4.524
 6994TIP3   OH220945   2.840   2.078   4.739
 6994TIP3    H120946   2.869   2.166   4.762
 6994TIP3    H220947   2.818   2.037   4.822
 6995TIP3   OH220948   0.729   0.052   4.634
 6995TIP3    H120949   0.750  -0.039   4.656
 6995TIP3    H220950   0.716   0.096   4.718
 6996TIP3   OH220951   5.662   1.306   4.230
 6996TIP3    H120952   5.688   1.306   4.138
 6996TIP3    H220953   5.735   1.263   4.275
 6997TIP3   OH220954   0.596   1.139   5.208
 6997TIP3    H120955   0.524   1.085   5.175
 6997TIP3    H220956   0.586   1.222   5.162
 6998TIP3   OH220957   6.115   4.146   5.358
 6998TIP3    H120958   6.062   4.194   5.294
 6998TIP3    H220959   6.197   4.128   5.313
 6999TIP3   OH220960   5.535   0.455   5.360
 6999TIP3    H120961   5.563   0.503   5.282
 6999TIP3    H220962   5.481   0.518   5.408
 7000TIP3   OH220963   6.612   1.653   3.261
 7000TIP3    H120964   6.628   1.604   3.341
 7000TIP3    H220965   6.522   1.685   3.270
 7001TIP3   OH220966   6.517   6.226   1.927
 7001TIP3    H120967   6.590   6.247   1.986
 7001TIP3    H220968   6.560   6.203   1.844
 7002TIP3   OH220969   1.459   5.558   3.506
 7002TIP3    H120970   1.489   5.641   3.541
 7002TIP3    H220971   1.372   5.576   3.472
 7003TIP3   OH220972   2.710   1.665   2.781
 7003TIP3    H120973   2.637   1.615   2.744
 7003TIP3    H220974   2.788   1.623   2.746
 7004TIP3   OH220975   2.592   4.607   1.517
 7004TIP3    H120976   2.618   4.555   1.441
 7004TIP3    H220977   2.642   4.689   1.507
 7005TIP3   OH220978   2.285   6.363   3.784
 7005TIP3    H120979   2.208   6.391   3.734
 7005TIP3    H220980   2.271   6.397   3.872
 7006TIP3   OH220981   5.269   0.123   4.915
 7006TIP3    H120982   5.197   0.078   4.871
 7006TIP3    H220983   5.344   0.064   4.904
 7007TIP3   OH220984   6.004   6.622   3.160
 7007TIP3    H120985   6.063   6.571   3.104
 7007TIP3    H220986   5.989   6.703   3.111
 7008TIP3   OH220987   4.345   1.955   2.608
 7008TIP3    H120988   4.284   1.977   2.538
 7008TIP3    H220989   4.296   1.972   2.689
 7009TIP3   OH220990   1.154   1.154   2.626
 7009TIP3    H120991   1.116   1.175   2.541
 7009TIP3    H220992   1.214   1.082   2.608
 7010TIP3   OH220993   0.015   4.489   4.733
 7010TIP3    H120994   0.100   4.509   4.693
 7010TIP3    H220995   0.026   4.401   4.769
 7011TIP3   OH220996   6.823   3.852   4.409
 7011TIP3    H120997   6.888   3.922   4.418
 7011TIP3    H220998   6.786   3.864   4.322
 7012TIP3   OH220999   3.353   0.223   5.267
 7012TIP3    H121000   3.304   0.305   5.256
 7012TIP3    H221001   3.287   0.160   5.295
 7013TIP3   OH221002   3.673   5.946   0.556
 7013TIP3    H121003   3.632   5.864   0.529
 7013TIP3    H221004   3.764   5.937   0.529
 7014TIP3   OH221005   6.619   1.746   2.062
 7014TIP3    H121006   6.712   1.751   2.084
 7014TIP3    H221007   6.617   1.750   1.966
 7015TIP3   OH221008   3.526   2.658   4.641
 7015TIP3    H121009   3.568   2.738   4.607
 7015TIP3    H221010   3.519   2.673   4.735
 7016TIP3   OH221011   6.343   0.189   1.887
 7016TIP3    H121012   6.330   0.282   1.869
 7016TIP3    H221013   6.271   0.145   1.843
 7017TIP3   OH221014   3.916   0.193   0.601
 7017TIP3    H121015   3.836   0.201   0.550
 7017TIP3    H221016   3.955   0.281   0.598
 7018TIP3   OH221017   4.093   2.630   5.009
 7018TIP3    H121018   4.000   2.625   4.987
 7018TIP3    H221019   4.137   2.649   4.926
 7019TIP3   OH221020   1.111   0.510   1.350
 7019TIP3    H121021   1.144   0.439   1.405
 7019TIP3    H221022   1.018   0.491   1.338
 7020TIP3   OH221023   2.389   0.688   5.640
 7020TIP3    H121024   2.384   0.712   5.732
 7020TIP3    H221025   2.298   0.672   5.614
 7021TIP3   OH221026   4.101   0.085   1.947
 7021TIP3    H121027   4.058   0.138   2.014
 7021TIP3    H221028   4.087  -0.005   1.975
 7022TIP3   OH221029   2.999   4.089   3.066
 7022TIP3    H121030   2.970   4.024   3.131
 7022TIP3    H221031   2.928   4.091   3.002
 7023TIP3   OH221032   7.048   2.048   5.611
 7023TIP3    H121033   7.110   1.980   5.583
 7023TIP3    H221034   6.963   2.014   5.584
 7024TIP3   OH221035   6.627   0.705   2.522
 7024TIP3    H121036   6.628   0.800   2.533
 7024TIP3    H221037   6.591   0.691   2.434
 7025TIP3   OH221038   3.711   1.334   2.828
 7025TIP3    H121039   3.762   1.306   2.752
 7025TIP3    H221040   3.755   1.414   2.857
 7026TIP3   OH221041   3.910   3.386   4.121
 7026TIP3    H121042   3.956   3.453   4.172
 7026TIP3    H221043   3.945   3.395   4.033
 7027TIP3   OH221044   2.526   6.201   2.053
 7027TIP3    H121045   2.544   6.159   1.969
 7027TIP3    H221046   2.437   6.173   2.075
 7028TIP3   OH221047   3.374   0.169   3.431
 7028TIP3    H121048   3.349   0.245   3.483
 7028TIP3    H221049   3.426   0.115   3.490
 7029TIP3   OH221050   1.935   2.707   0.846
 7029TIP3    H121051   1.922   2.673   0.934
 7029TIP3    H221052   1.875   2.656   0.791
 7030TIP3   OH221053   4.949   0.766   4.711
 7030TIP3    H121054   4.952   0.740   4.619
 7030TIP3    H221055   4.938   0.683   4.759
 7031TIP3   OH221056   4.400   6.225   1.598
 7031TIP3    H121057   4.456   6.156   1.632
 7031TIP3    H221058   4.450   6.264   1.526
 7032TIP3   OH221059   6.487   3.826   2.222
 7032TIP3    H121060   6.466   3.733   2.208
 7032TIP3    H221061   6.405   3.864   2.255
 7033TIP3   OH221062   2.878   2.940   1.846
 7033TIP3    H121063   2.911   2.886   1.774
 7033TIP3    H221064   2.939   3.014   1.850
 7034TIP3   OH221065   2.376   5.311   3.073
 7034TIP3    H121066   2.351   5.356   3.155
 7034TIP3    H221067   2.309   5.245   3.060
 7035TIP3   OH221068   6.702   4.680   5.413
 7035TIP3    H121069   6.617   4.679   5.456
 7035TIP3    H221070   6.756   4.622   5.466
 7036TIP3   OH221071   2.867   0.209   5.241
 7036TIP3    H121072   2.914   0.222   5.324
 7036TIP3    H221073   2.804   0.281   5.238
 7037TIP3   OH221074   4.863   5.258   0.588
 7037TIP3    H121075   4.826   5.202   0.520
 7037TIP3    H221076   4.957   5.258   0.570
 7038TIP3   OH221077   5.077   6.488   0.461
 7038TIP3    H121078   5.112   6.446   0.540
 7038TIP3    H221079   5.090   6.581   0.476
 7039TIP3   OH221080   5.972   1.877   0.315
 7039TIP3    H121081   6.055   1.925   0.324
 7039TIP3    H221082   5.911   1.940   0.277
 7040TIP3   OH221083   4.408   6.387   4.382
 7040TIP3    H121084   4.501   6.411   4.387
 7040TIP3    H221085   4.378   6.389   4.473
 7041TIP3   OH221086   6.284   0.517   3.175
 7041TIP3    H121087   6.319   0.449   3.118
 7041TIP3    H221088   6.353   0.584   3.178
 7042TIP3   OH221089   6.992   0.790   4.767
 7042TIP3    H121090   6.917   0.843   4.793
 7042TIP3    H221091   7.003   0.808   4.673
 7043TIP3   OH221092   5.720   3.683   4.625
 7043TIP3    H121093   5.655   3.709   4.560
 7043TIP3    H221094   5.790   3.642   4.574
 7044TIP3   OH221095   5.241   4.322   5.137
 7044TIP3    H121096   5.260   4.395   5.078
 7044TIP3    H221097   5.228   4.247   5.078
 7045TIP3   OH221098   4.828   1.812   3.572
 7045TIP3    H121099   4.767   1.750   3.612
 7045TIP3    H221100   4.795   1.824   3.483
 7046TIP3   OH221101   6.110   3.814   0.713
 7046TIP3    H121102   6.016   3.802   0.701
 7046TIP3    H221103   6.128   3.899   0.671
 7047TIP3   OH221104   4.663   1.238   1.234
 7047TIP3    H121105   4.707   1.167   1.187
 7047TIP3    H221106   4.732   1.302   1.251
 7048TIP3   OH221107   2.433   2.494   3.701
 7048TIP3    H121108   2.433   2.415   3.647
 7048TIP3    H221109   2.518   2.494   3.743
 7049TIP3   OH221110   6.410   3.863   4.167
 7049TIP3    H121111   6.501   3.864   4.137
 7049TIP3    H221112   6.415   3.870   4.262
 7050TIP3   OH221113   0.362   4.495   2.856
 7050TIP3    H121114   0.369   4.548   2.776
 7050TIP3    H221115   0.316   4.416   2.828
 7051TIP3   OH221116   3.564   5.382   4.383
 7051TIP3    H121117   3.619   5.322   4.334
 7051TIP3    H221118   3.538   5.449   4.320
 7052TIP3   OH221119   0.419   1.405   3.151
 7052TIP3    H121120   0.376   1.467   3.210
 7052TIP3    H221121   0.474   1.459   3.095
 7053TIP3   OH221122   5.407   0.517   1.863
 7053TIP3    H121123   5.375   0.603   1.835
 7053TIP3    H221124   5.440   0.531   1.952
 7054TIP3   OH221125   5.358   3.810   2.495
 7054TIP3    H121126   5.297   3.815   2.421
 7054TIP3    H221127   5.301   3.811   2.572
 7055TIP3   OH221128   0.062   5.834   0.806
 7055TIP3    H121129   0.061   5.930   0.799
 7055TIP3    H221130  -0.027   5.807   0.782
 7056TIP3   OH221131   5.952   5.237   3.041
 7056TIP3    H121132   5.885   5.262   3.105
 7056TIP3    H221133   5.902   5.206   2.966
 7057TIP3   OH221134   6.013   3.827   2.356
 7057TIP3    H121135   6.014   3.885   2.432
 7057TIP3    H221136   5.951   3.867   2.296
 7058TIP3   OH221137   6.649   2.951   1.409
 7058TIP3    H121138   6.626   2.858   1.414
 7058TIP3    H221139   6.598   2.991   1.479
 7059TIP3   OH221140   7.208   0.351   4.983
 7059TIP3    H121141   7.186   0.351   4.890
 7059TIP3    H221142   7.134   0.308   5.026
 7060TIP3   OH221143   3.994   2.918   3.837
 7060TIP3    H121144   3.926   2.884   3.780
 7060TIP3    H221145   3.948   2.969   3.903
 7061TIP3   OH221146   0.154   5.575   1.173
 7061TIP3    H121147   0.062   5.600   1.181
 7061TIP3    H221148   0.192   5.641   1.115
 7062TIP3   OH221149   1.906   6.409   0.399
 7062TIP3    H121150   1.895   6.381   0.308
 7062TIP3    H221151   1.818   6.433   0.428
 7063TIP3   OH221152   5.453   0.378   2.436
 7063TIP3    H121153   5.384   0.318   2.462
 7063TIP3    H221154   5.517   0.374   2.507
 7064TIP3   OH221155   6.194   4.139   2.232
 7064TIP3    H121156   6.102   4.111   2.231
 7064TIP3    H221157   6.189   4.234   2.246
 7065TIP3   OH221158   5.483   4.062   0.106
 7065TIP3    H121159   5.457   4.124   0.174
 7065TIP3    H221160   5.403   4.048   0.054
 7066TIP3   OH221161   2.281   2.565   0.994
 7066TIP3    H121162   2.377   2.568   0.998
 7066TIP3    H221163   2.261   2.490   0.939
 7067TIP3   OH221164   4.292   3.324   5.775
 7067TIP3    H121165   4.257   3.244   5.736
 7067TIP3    H221166   4.325   3.374   5.701
 7068TIP3   OH221167   6.432   3.656   3.293
 7068TIP3    H121168   6.525   3.660   3.315
 7068TIP3    H221169   6.430   3.624   3.203
 7069TIP3   OH221170   2.208   4.685   4.772
 7069TIP3    H121171   2.144   4.621   4.802
 7069TIP3    H221172   2.258   4.707   4.850
 7070TIP3   OH221173   4.327   1.713   2.334
 7070TIP3    H121174   4.327   1.618   2.350
 7070TIP3    H221175   4.263   1.725   2.264
 7071TIP3   OH221176   5.807   3.347   2.179
 7071TIP3    H121177   5.885   3.393   2.148
 7071TIP3    H221178   5.828   3.254   2.166
 7072TIP3   OH221179   2.316   2.860   1.539
 7072TIP3    H121180   2.230   2.891   1.566
 7072TIP3    H221181   2.373   2.936   1.547
 7073TIP3   OH221182   2.307   5.016   1.094
 7073TIP3    H121183   2.223   5.018   1.140
 7073TIP3    H221184   2.307   4.932   1.048
 7074TIP3   OH221185   4.057   6.543   3.936
 7074TIP3    H121186   4.005   6.563   3.858
 7074TIP3    H221187   4.098   6.459   3.917
 7075TIP3   OH221188   1.832   3.702   1.513
 7075TIP3    H121189   1.807   3.759   1.440
 7075TIP3    H221190   1.906   3.651   1.479
 7076TIP3   OH221191   6.265   2.547   1.698
 7076TIP3    H121192   6.192   2.506   1.652
 7076TIP3    H221193   6.336   2.547   1.634
 7077TIP3   OH221194   2.548   4.098   5.000
 7077TIP3    H121195   2.541   4.146   4.918
 7077TIP3    H221196   2.460   4.102   5.038
 7078TIP3   OH221197   3.961   4.740   0.352
 7078TIP3    H121198   3.878   4.693   0.344
 7078TIP3    H221199   3.979   4.741   0.446
 7079TIP3   OH221200   0.129   6.439   3.880
 7079TIP3    H121201   0.223   6.419   3.875
 7079TIP3    H221202   0.087   6.354   3.894
 7080TIP3   OH221203   3.965   2.192   1.419
 7080TIP3    H121204   3.929   2.153   1.339
 7080TIP3    H221205   3.922   2.277   1.426
 7081TIP3   OH221206   1.091   6.746   0.986
 7081TIP3    H121207   1.162   6.727   1.047
 7081TIP3    H221208   1.089   6.841   0.980
 7082TIP3   OH221209   3.954   1.160   1.698
 7082TIP3    H121210   3.958   1.065   1.704
 7082TIP3    H221211   4.043   1.186   1.672
 7083TIP3   OH221212   6.713   4.497   3.581
 7083TIP3    H121213   6.636   4.443   3.564
 7083TIP3    H221214   6.779   4.466   3.519
 7084TIP3   OH221215   2.368   0.718   4.024
 7084TIP3    H121216   2.285   0.727   4.071
 7084TIP3    H221217   2.342   0.699   3.934
 7085TIP3   OH221218   5.729   5.690   3.232
 7085TIP3    H121219   5.692   5.617   3.282
 7085TIP3    H221220   5.669   5.701   3.158
 7086TIP3   OH221221   1.595   1.736   3.399
 7086TIP3    H121222   1.566   1.645   3.409
 7086TIP3    H221223   1.527   1.788   3.439
 7087TIP3   OH221224   1.136   2.563   4.211
 7087TIP3    H121225   1.077   2.492   4.236
 7087TIP3    H221226   1.080   2.626   4.167
 7088TIP3   OH221227   2.931   1.950   3.370
 7088TIP3    H121228   3.010   1.903   3.345
 7088TIP3    H221229   2.925   2.022   3.307
 7089TIP3   OH221230   2.398   0.501   0.156
 7089TIP3    H121231   2.434   0.580   0.115
 7089TIP3    H221232   2.358   0.453   0.084
 7090TIP3   OH221233   1.819   4.206   3.653
 7090TIP3    H121234   1.744   4.152   3.628
 7090TIP3    H221235   1.858   4.232   3.570
 7091TIP3   OH221236   5.101   3.980   1.439
 7091TIP3    H121237   5.082   4.069   1.468
 7091TIP3    H221238   5.193   3.983   1.410
 7092TIP3   OH221239   1.602   0.617   1.858
 7092TIP3    H121240   1.622   0.558   1.931
 7092TIP3    H221241   1.653   0.583   1.784
 7093TIP3   OH221242   1.631   3.498   2.412
 7093TIP3    H121243   1.588   3.548   2.481
 7093TIP3    H221244   1.724   3.508   2.429
 7094TIP3   OH221245   0.048   1.488   1.200
 7094TIP3    H121246  -0.029   1.543   1.215
 7094TIP3    H221247   0.035   1.453   1.112
 7095TIP3   OH221248   5.337   0.109   0.699
 7095TIP3    H121249   5.249   0.143   0.712
 7095TIP3    H221250   5.330   0.052   0.622
 7096TIP3   OH221251   6.987   3.634   2.051
 7096TIP3    H121252   6.998   3.711   2.107
 7096TIP3    H221253   7.062   3.579   2.072
 7097TIP3   OH221254   6.615   3.672   5.711
 7097TIP3    H121255   6.684   3.734   5.687
 7097TIP3    H221256   6.576   3.709   5.790
 7098TIP3   OH221257   3.490   3.719   3.309
 7098TIP3    H121258   3.520   3.697   3.221
 7098TIP3    H221259   3.568   3.751   3.354
 7099TIP3   OH221260   1.651   0.729   5.020
 7099TIP3    H121261   1.557   0.745   5.028
 7099TIP3    H221262   1.679   0.788   4.949
 7100TIP3   OH221263   4.786   0.364   0.327
 7100TIP3    H121264   4.849   0.410   0.270
 7100TIP3    H221265   4.783   0.418   0.406
 7101TIP3   OH221266   4.668   1.919   0.250
 7101TIP3    H121267   4.581   1.955   0.237
 7101TIP3    H221268   4.696   1.891   0.163
 7102TIP3   OH221269   2.780   2.149   5.595
 7102TIP3    H121270   2.801   2.184   5.682
 7102TIP3    H221271   2.699   2.194   5.570
 7103TIP3   OH221272   1.586   5.113   1.794
 7103TIP3    H121273   1.542   5.125   1.879
 7103TIP3    H221274   1.653   5.047   1.811
 7104TIP3   OH221275   6.445   5.780   2.640
 7104TIP3    H121276   6.420   5.776   2.548
 7104TIP3    H221277   6.370   5.746   2.688
 7105TIP3   OH221278   0.779   0.841   0.469
 7105TIP3    H121279   0.784   0.780   0.543
 7105TIP3    H221280   0.699   0.817   0.423
 7106TIP3   OH221281   3.459   1.702   1.464
 7106TIP3    H121282   3.526   1.651   1.511
 7106TIP3    H221283   3.448   1.781   1.517
 7107TIP3   OH221284   1.748   2.675   2.729
 7107TIP3    H121285   1.687   2.655   2.800
 7107TIP3    H221286   1.717   2.624   2.655
 7108TIP3   OH221287   5.864   0.211   4.486
 7108TIP3    H121288   5.941   0.166   4.451
 7108TIP3    H221289   5.829   0.260   4.411
 7109TIP3   OH221290   6.516   2.518   1.568
 7109TIP3    H121291   6.594   2.537   1.516
 7109TIP3    H221292   6.548   2.505   1.657
 7110TIP3   OH221293   6.167   6.566   2.463
 7110TIP3    H121294   6.195   6.524   2.544
 7110TIP3    H221295   6.072   6.550   2.460
 7111TIP3   OH221296   3.340   3.204   0.989
 7111TIP3    H121297   3.291   3.269   1.040
 7111TIP3    H221298   3.317   3.222   0.898
 7112TIP3   OH221299   5.835   4.871   3.379
 7112TIP3    H121300   5.824   4.812   3.304
 7112TIP3    H221301   5.908   4.927   3.355
 7113TIP3   OH221302   1.892   4.056   5.240
 7113TIP3    H121303   1.893   4.044   5.145
 7113TIP3    H221304   1.839   3.984   5.274
 7114TIP3   OH221305   1.222   3.725   1.260
 7114TIP3    H121306   1.274   3.768   1.193
 7114TIP3    H221307   1.285   3.676   1.312
 7115TIP3   OH221308   6.759   6.514   1.820
 7115TIP3    H121309   6.844   6.553   1.837
 7115TIP3    H221310   6.774   6.455   1.746
 7116TIP3   OH221311   4.932   5.642   1.674
 7116TIP3    H121312   4.887   5.677   1.750
 7116TIP3    H221313   5.024   5.638   1.701
 7117TIP3   OH221314   6.090   2.392   3.181
 7117TIP3    H121315   6.148   2.327   3.141
 7117TIP3    H221316   6.085   2.367   3.273
 7118TIP3   OH221317   4.360   3.756   3.437
 7118TIP3    H121318   4.365   3.811   3.359
 7118TIP3    H221319   4.452   3.743   3.462
 7119TIP3   OH221320   1.212   1.851   1.553
 7119TIP3    H121321   1.280   1.793   1.587
 7119TIP3    H221322   1.149   1.859   1.625
 7120TIP3   OH221323   6.890   5.242   1.904
 7120TIP3    H121324   6.969   5.189   1.893
 7120TIP3    H221325   6.819   5.187   1.870
 7121TIP3   OH221326   0.486   1.418   0.032
 7121TIP3    H121327   0.559   1.478   0.019
 7121TIP3    H221328   0.428   1.435  -0.043
 7122TIP3   OH221329   0.206   0.551   3.970
 7122TIP3    H121330   0.277   0.522   4.028
 7122TIP3    H221331   0.126   0.519   4.012
 7123TIP3   OH221332   3.138   1.890   2.428
 7123TIP3    H121333   3.165   1.959   2.367
 7123TIP3    H221334   3.169   1.809   2.387
 7124TIP3   OH221335   3.521   0.795   1.774
 7124TIP3    H121336   3.523   0.710   1.731
 7124TIP3    H221337   3.612   0.812   1.798
 7125TIP3   OH221338   4.671   4.994   5.109
 7125TIP3    H121339   4.626   4.932   5.166
 7125TIP3    H221340   4.699   5.064   5.167
 7126TIP3   OH221341   2.652   4.843   1.229
 7126TIP3    H121342   2.741   4.814   1.206
 7126TIP3    H221343   2.610   4.857   1.144
 7127TIP3   OH221344   6.145   2.747   5.053
 7127TIP3    H121345   6.103   2.729   4.969
 7127TIP3    H221346   6.085   2.806   5.098
 7128TIP3   OH221347   2.338   4.784   3.089
 7128TIP3    H121348   2.412   4.830   3.130
 7128TIP3    H221349   2.379   4.728   3.023
 7129TIP3   OH221350   3.311   0.417   1.595
 7129TIP3    H121351   3.312   0.425   1.499
 7129TIP3    H221352   3.247   0.348   1.612
 7130TIP3   OH221353   0.474   0.557   2.488
 7130TIP3    H121354   0.479   0.604   2.571
 7130TIP3    H221355   0.416   0.482   2.506
 7131TIP3   OH221356   3.568   3.702   3.063
 7131TIP3    H121357   3.578   3.608   3.050
 7131TIP3    H221358   3.517   3.731   2.987
 7132TIP3   OH221359   1.523   2.243   1.930
 7132TIP3    H121360   1.511   2.261   2.024
 7132TIP3    H221361   1.597   2.182   1.927
 7133TIP3   OH221362   5.652   1.692   5.853
 7133TIP3    H121363   5.650   1.700   5.758
 7133TIP3    H221364   5.737   1.729   5.878
 7134TIP3   OH221365   2.568   4.758   0.483
 7134TIP3    H121366   2.641   4.759   0.545
 7134TIP3    H221367   2.490   4.754   0.538
 7135TIP3   OH221368   3.239   0.929   3.045
 7135TIP3    H121369   3.315   0.875   3.023
 7135TIP3    H221370   3.184   0.872   3.100
 7136TIP3   OH221371   1.506   0.377   5.670
 7136TIP3    H121372   1.561   0.365   5.592
 7136TIP3    H221373   1.566   0.406   5.738
 7137TIP3   OH221374   2.082   1.810   2.985
 7137TIP3    H121375   2.141   1.867   3.034
 7137TIP3    H221376   2.087   1.726   3.030
 7138TIP3   OH221377   2.980   2.659   1.169
 7138TIP3    H121378   2.928   2.715   1.227
 7138TIP3    H221379   3.070   2.690   1.181
 7139TIP3   OH221380   0.808   1.055   4.804
 7139TIP3    H121381   0.745   0.999   4.757
 7139TIP3    H221382   0.891   1.040   4.759
 7140TIP3   OH221383   2.852   0.786   1.817
 7140TIP3    H121384   2.871   0.839   1.895
 7140TIP3    H221385   2.862   0.695   1.847
 7141TIP3   OH221386   1.819   3.102   4.611
 7141TIP3    H121387   1.809   3.124   4.704
 7141TIP3    H221388   1.745   3.044   4.592
 7142TIP3   OH221389   4.507   5.218   5.298
 7142TIP3    H121390   4.481   5.140   5.348
 7142TIP3    H221391   4.501   5.289   5.361
 7143TIP3   OH221392   4.760   3.607   4.648
 7143TIP3    H121393   4.750   3.557   4.567
 7143TIP3    H221394   4.796   3.691   4.621
 7144TIP3   OH221395   0.634   0.679   3.828
 7144TIP3    H121396   0.551   0.709   3.867
 7144TIP3    H221397   0.678   0.632   3.899
 7145TIP3   OH221398   5.725   0.715   0.363
 7145TIP3    H121399   5.688   0.775   0.298
 7145TIP3    H221400   5.818   0.737   0.365
 7146TIP3   OH221401   5.316   0.619   2.894
 7146TIP3    H121402   5.264   0.541   2.874
 7146TIP3    H221403   5.306   0.674   2.816
 7147TIP3   OH221404   5.796   2.446   3.564
 7147TIP3    H121405   5.735   2.432   3.491
 7147TIP3    H221406   5.810   2.541   3.567
 7148TIP3   OH221407   6.261   4.412   2.222
 7148TIP3    H121408   6.304   4.452   2.298
 7148TIP3    H221409   6.332   4.369   2.175
 7149TIP3   OH221410   2.036   0.111   0.445
 7149TIP3    H121411   2.039   0.183   0.382
 7149TIP3    H221412   2.120   0.067   0.435
 7150TIP3   OH221413   3.196   3.207   4.657
 7150TIP3    H121414   3.213   3.261   4.580
 7150TIP3    H221415   3.231   3.258   4.730
 7151TIP3   OH221416   6.265   5.677   3.560
 7151TIP3    H121417   6.328   5.739   3.522
 7151TIP3    H221418   6.211   5.730   3.618
 7152TIP3   OH221419   1.313   1.627   1.889
 7152TIP3    H121420   1.404   1.600   1.904
 7152TIP3    H221421   1.315   1.671   1.804
 7153TIP3   OH221422   3.702   6.604   0.463
 7153TIP3    H121423   3.662   6.584   0.548
 7153TIP3    H221424   3.729   6.520   0.428
 7154TIP3   OH221425   7.021   2.424   1.744
 7154TIP3    H121426   6.969   2.361   1.795
 7154TIP3    H221427   7.061   2.481   1.809
 7155TIP3   OH221428   1.180   5.154   5.610
 7155TIP3    H121429   1.148   5.226   5.557
 7155TIP3    H221430   1.204   5.194   5.694
 7156TIP3   OH221431   0.551   1.253   5.843
 7156TIP3    H121432   0.578   1.172   5.801
 7156TIP3    H221433   0.551   1.318   5.772
 7157TIP3   OH221434   0.698   2.971   0.811
 7157TIP3    H121435   0.604   2.979   0.822
 7157TIP3    H221436   0.735   3.000   0.894
 7158TIP3   OH221437   4.803   3.981   0.313
 7158TIP3    H121438   4.807   3.908   0.251
 7158TIP3    H221439   4.714   3.977   0.349
 7159TIP3   OH221440   0.924   6.271   2.463
 7159TIP3    H121441   0.982   6.347   2.458
 7159TIP3    H221442   0.840   6.302   2.428
 7160TIP3   OH221443   0.011   5.114   2.559
 7160TIP3    H121444  -0.068   5.168   2.569
 7160TIP3    H221445   0.083   5.174   2.577
 7161TIP3   OH221446   4.964   5.916   0.890
 7161TIP3    H121447   5.032   5.975   0.860
 7161TIP3    H221448   4.998   5.879   0.972
 7162TIP3   OH221449   4.294   6.322   0.603
 7162TIP3    H121450   4.243   6.390   0.645
 7162TIP3    H221451   4.266   6.324   0.511
 7163TIP3   OH221452   6.489   3.310   2.669
 7163TIP3    H121453   6.518   3.226   2.706
 7163TIP3    H221454   6.412   3.333   2.721
 7164TIP3   OH221455   5.634   1.498   4.455
 7164TIP3    H121456   5.726   1.498   4.430
 7164TIP3    H221457   5.590   1.449   4.385
 7165TIP3   OH221458   6.204   0.148   4.346
 7165TIP3    H121459   6.137   0.165   4.281
 7165TIP3    H221460   6.238   0.061   4.325
 7166TIP3   OH221461   4.702   4.207   3.208
 7166TIP3    H121462   4.710   4.198   3.113
 7166TIP3    H221463   4.644   4.282   3.220
 7167TIP3   OH221464   6.444   5.330   0.787
 7167TIP3    H121465   6.468   5.361   0.874
 7167TIP3    H221466   6.482   5.242   0.782
 7168TIP3   OH221467   1.580   2.401   5.600
 7168TIP3    H121468   1.646   2.430   5.663
 7168TIP3    H221469   1.630   2.356   5.532
 7169TIP3   OH221470   5.622   2.121   2.019
 7169TIP3    H121471   5.614   2.080   1.933
 7169TIP3    H221472   5.661   2.207   2.002
 7170TIP3   OH221473   1.594   2.072   2.322
 7170TIP3    H121474   1.513   2.021   2.320
 7170TIP3    H221475   1.663   2.008   2.304
 7171TIP3   OH221476   1.455   1.232   2.150
 7171TIP3    H121477   1.463   1.323   2.180
 7171TIP3    H221478   1.370   1.203   2.183
 7172TIP3   OH221479   7.145   6.090   2.833
 7172TIP3    H121480   7.210   6.041   2.882
 7172TIP3    H221481   7.090   6.023   2.793
 7173TIP3   OH221482   1.880   3.956   4.551
 7173TIP3    H121483   1.830   4.035   4.573
 7173TIP3    H221484   1.881   3.905   4.632
 7174TIP3   OH221485   4.731   3.690   3.946
 7174TIP3    H121486   4.804   3.673   4.006
 7174TIP3    H221487   4.672   3.615   3.959
 7175TIP3   OH221488   3.694   4.383   0.104
 7175TIP3    H121489   3.624   4.317   0.105
 7175TIP3    H221490   3.772   4.335   0.134
 7176TIP3   OH221491   1.441   3.545   4.442
 7176TIP3    H121492   1.351   3.545   4.412
 7176TIP3    H221493   1.483   3.476   4.390
 7177TIP3   OH221494   6.771   0.971   4.780
 7177TIP3    H121495   6.701   0.991   4.718
 7177TIP3    H221496   6.817   1.054   4.792
 7178TIP3   OH221497   4.243   0.393   2.661
 7178TIP3    H121498   4.268   0.477   2.699
 7178TIP3    H221499   4.327   0.352   2.637
 7179TIP3   OH221500   5.404   6.594   2.089
 7179TIP3    H121501   5.371   6.514   2.131
 7179TIP3    H221502   5.325   6.638   2.057
 7180TIP3   OH221503   2.438   2.680   2.183
 7180TIP3    H121504   2.482   2.599   2.159
 7180TIP3    H221505   2.347   2.667   2.155
 7181TIP3   OH221506   7.189   6.516   2.272
 7181TIP3    H121507   7.130   6.441   2.262
 7181TIP3    H221508   7.174   6.568   2.193
 7182TIP3   OH221509   2.520   4.192   3.382
 7182TIP3    H121510   2.464   4.192   3.459
 7182TIP3    H221511   2.595   4.246   3.406
 7183TIP3   OH221512   1.236   2.111   2.232
 7183TIP3    H121513   1.286   2.036   2.266
 7183TIP3    H221514   1.227   2.092   2.138
 7184TIP3   OH221515   2.799   4.285   4.670
 7184TIP3    H121516   2.856   4.361   4.657
 7184TIP3    H221517   2.831   4.244   4.750
 7185TIP3   OH221518   5.516   6.555   3.705
 7185TIP3    H121519   5.561   6.561   3.621
 7185TIP3    H221520   5.433   6.600   3.692
 7186TIP3   OH221521   1.411   5.328   4.434
 7186TIP3    H121522   1.365   5.257   4.389
 7186TIP3    H221523   1.502   5.320   4.405
 7187TIP3   OH221524   4.132   3.344   3.564
 7187TIP3    H121525   4.094   3.348   3.476
 7187TIP3    H221526   4.135   3.435   3.593
 7188TIP3   OH221527   0.158   5.020   4.784
 7188TIP3    H121528   0.165   5.110   4.755
 7188TIP3    H221529   0.245   4.999   4.819
 7189TIP3   OH221530   5.131   2.991   2.378
 7189TIP3    H121531   5.120   3.084   2.399
 7189TIP3    H221532   5.178   2.990   2.294
 7190TIP3   OH221533   5.500   5.587   2.682
 7190TIP3    H121534   5.470   5.678   2.688
 7190TIP3    H221535   5.594   5.594   2.671
 7191TIP3   OH221536   2.379   1.849   3.053
 7191TIP3    H121537   2.456   1.879   3.004
 7191TIP3    H221538   2.356   1.765   3.014
 7192TIP3   OH221539   2.641   6.206   5.814
 7192TIP3    H121540   2.549   6.188   5.792
 7192TIP3    H221541   2.638   6.237   5.904
 7193TIP3   OH221542   3.148   5.501   0.665
 7193TIP3    H121543   3.114   5.473   0.750
 7193TIP3    H221544   3.070   5.526   0.615
 7194TIP3   OH221545   0.537   2.308   4.940
 7194TIP3    H121546   0.544   2.372   4.869
 7194TIP3    H221547   0.626   2.298   4.973
 7195TIP3   OH221548   3.973   2.328   3.610
 7195TIP3    H121549   4.024   2.268   3.665
 7195TIP3    H221550   3.960   2.405   3.665
 7196TIP3   OH221551   2.505   4.407   0.134
 7196TIP3    H121552   2.415   4.405   0.168
 7196TIP3    H221553   2.543   4.485   0.176
 7197TIP3   OH221554   0.772   0.144   3.347
 7197TIP3    H121555   0.753   0.146   3.253
 7197TIP3    H221556   0.718   0.214   3.384
 7198TIP3   OH221557   1.183   1.372   3.891
 7198TIP3    H121558   1.166   1.401   3.801
 7198TIP3    H221559   1.168   1.450   3.944
 7199TIP3   OH221560   4.583   3.921   3.945
 7199TIP3    H121561   4.569   3.929   4.039
 7199TIP3    H221562   4.641   3.845   3.935
 7200TIP3   OH221563   4.610   3.242   5.426
 7200TIP3    H121564   4.624   3.316   5.485
 7200TIP3    H221565   4.653   3.268   5.344
 7201TIP3   OH221566   5.990   1.445   3.005
 7201TIP3    H121567   6.017   1.370   2.952
 7201TIP3    H221568   5.942   1.501   2.944
 7202TIP3   OH221569   4.508   1.619   5.484
 7202TIP3    H121570   4.443   1.621   5.554
 7202TIP3    H221571   4.572   1.685   5.509
 7203TIP3   OH221572   4.978   2.788   0.418
 7203TIP3    H121573   4.891   2.810   0.452
 7203TIP3    H221574   4.981   2.693   0.420
 7204TIP3   OH221575   1.617   4.749   4.270
 7204TIP3    H121576   1.598   4.831   4.315
 7204TIP3    H221577   1.624   4.684   4.340
 7205TIP3   OH221578   3.057   0.060   3.204
 7205TIP3    H121579   2.976   0.034   3.248
 7205TIP3    H221580   3.117   0.080   3.276
 7206TIP3   OH221581   1.369   6.071   0.186
 7206TIP3    H121582   1.414   6.155   0.189
 7206TIP3    H221583   1.368   6.041   0.277
 7207TIP3   OH221584   5.022   3.889   1.048
 7207TIP3    H121585   4.996   3.894   0.956
 7207TIP3    H221586   5.027   3.980   1.077
 7208TIP3   OH221587   1.274   3.985   4.535
 7208TIP3    H121588   1.355   3.946   4.500
 7208TIP3    H221589   1.230   3.913   4.579
 7209TIP3   OH221590   5.739   5.600   0.416
 7209TIP3    H121591   5.782   5.649   0.486
 7209TIP3    H221592   5.800   5.604   0.342
 7210TIP3   OH221593   1.889   1.609   0.750
 7210TIP3    H121594   1.933   1.554   0.685
 7210TIP3    H221595   1.857   1.684   0.701
 7211TIP3   OH221596   1.520   4.707   3.297
 7211TIP3    H121597   1.560   4.620   3.295
 7211TIP3    H221598   1.443   4.699   3.240
 7212TIP3   OH221599   6.744   4.789   5.159
 7212TIP3    H121600   6.834   4.762   5.142
 7212TIP3    H221601   6.723   4.752   5.244
 7213TIP3   OH221602   5.079   2.492   4.189
 7213TIP3    H121603   5.057   2.526   4.276
 7213TIP3    H221604   5.031   2.549   4.128
 7214TIP3   OH221605   1.575   3.274   1.075
 7214TIP3    H121606   1.657   3.255   1.120
 7214TIP3    H221607   1.510   3.219   1.120
 7215TIP3   OH221608   4.974   6.329   4.939
 7215TIP3    H121609   5.053   6.339   4.991
 7215TIP3    H221610   4.972   6.236   4.916
 7216TIP3   OH221611   1.056   2.730   2.394
 7216TIP3    H121612   1.103   2.811   2.374
 7216TIP3    H221613   1.090   2.666   2.331
 7217TIP3   OH221614   7.091   3.261   5.521
 7217TIP3    H121615   7.161   3.282   5.459
 7217TIP3    H221616   7.130   3.198   5.581
 7218TIP3   OH221617   2.123   4.334   0.479
 7218TIP3    H121618   2.078   4.384   0.547
 7218TIP3    H221619   2.161   4.260   0.525
 7219TIP3   OH221620   2.998   1.764   0.303
 7219TIP3    H121621   3.001   1.707   0.226
 7219TIP3    H221622   2.905   1.783   0.314
 7220TIP3   OH221623   5.864   3.643   5.506
 7220TIP3    H121624   5.947   3.631   5.461
 7220TIP3    H221625   5.805   3.678   5.439
 7221TIP3   OH221626   2.883   2.857   3.685
 7221TIP3    H121627   2.826   2.801   3.633
 7221TIP3    H221628   2.942   2.898   3.621
 7222TIP3   OH221629   5.079   0.887   3.651
 7222TIP3    H121630   5.116   0.918   3.733
 7222TIP3    H221631   5.138   0.921   3.584
 7223TIP3   OH221632   5.933   5.946   4.492
 7223TIP3    H121633   5.921   5.857   4.457
 7223TIP3    H221634   6.028   5.957   4.496
 7224TIP3   OH221635   2.239   1.401   5.040
 7224TIP3    H121636   2.323   1.373   5.005
 7224TIP3    H221637   2.212   1.330   5.098
 7225TIP3   OH221638   0.668   1.475   0.322
 7225TIP3    H121639   0.596   1.486   0.260
 7225TIP3    H221640   0.677   1.561   0.363
 7226TIP3   OH221641   5.614   2.916   3.629
 7226TIP3    H121642   5.595   2.947   3.718
 7226TIP3    H221643   5.631   2.995   3.579
 7227TIP3   OH221644   6.494   4.566   4.033
 7227TIP3    H121645   6.522   4.610   4.113
 7227TIP3    H221646   6.507   4.473   4.050
 7228TIP3   OH221647   6.710   3.668   2.081
 7228TIP3    H121648   6.708   3.744   2.023
 7228TIP3    H221649   6.803   3.647   2.089
 7229TIP3   OH221650   1.815   1.914   3.556
 7229TIP3    H121651   1.895   1.902   3.504
 7229TIP3    H221652   1.765   1.834   3.543
 7230TIP3   OH221653   5.407   4.263   2.904
 7230TIP3    H121654   5.438   4.307   2.825
 7230TIP3    H221655   5.464   4.187   2.913
 7231TIP3   OH221656   4.636   0.108   4.349
 7231TIP3    H121657   4.652   0.104   4.443
 7231TIP3    H221658   4.541   0.101   4.340
 7232TIP3   OH221659   6.615   6.310   5.610
 7232TIP3    H121660   6.673   6.330   5.536
 7232TIP3    H221661   6.660   6.240   5.657
 7233TIP3   OH221662   5.602   3.073   3.850
 7233TIP3    H121663   5.540   3.095   3.919
 7233TIP3    H221664   5.685   3.113   3.877
 7234TIP3   OH221665   3.586   6.642   1.981
 7234TIP3    H121666   3.584   6.675   2.071
 7234TIP3    H221667   3.609   6.550   1.990
 7235TIP3   OH221668   5.837   4.415   3.689
 7235TIP3    H121669   5.846   4.510   3.683
 7235TIP3    H221670   5.743   4.401   3.699
 7236TIP3   OH221671   2.411   3.433   2.585
 7236TIP3    H121672   2.492   3.392   2.616
 7236TIP3    H221673   2.369   3.468   2.664
 7237TIP3   OH221674   1.634   4.775   0.958
 7237TIP3    H121675   1.620   4.770   1.053
 7237TIP3    H221676   1.588   4.854   0.931
 7238TIP3   OH221677   4.939   5.282   0.303
 7238TIP3    H121678   4.933   5.375   0.323
 7238TIP3    H221679   4.953   5.279   0.208
 7239TIP3   OH221680   6.616   3.189   3.654
 7239TIP3    H121681   6.661   3.259   3.606
 7239TIP3    H221682   6.605   3.120   3.590
 7240TIP3   OH221683   2.940   2.044   2.053
 7240TIP3    H121684   3.014   2.031   2.112
 7240TIP3    H221685   2.977   2.034   1.965
 7241TIP3   OH221686   1.198   1.021   0.468
 7241TIP3    H121687   1.168   0.939   0.429
 7241TIP3    H221688   1.190   1.007   0.563
 7242TIP3   OH221689   3.088   2.297   0.142
 7242TIP3    H121690   3.089   2.243   0.063
 7242TIP3    H221691   3.013   2.265   0.192
 7243TIP3   OH221692   5.968   4.112   1.252
 7243TIP3    H121693   6.023   4.100   1.175
 7243TIP3    H221694   5.954   4.023   1.285
 7244TIP3   OH221695   1.063   1.777   1.313
 7244TIP3    H121696   1.115   1.700   1.289
 7244TIP3    H221697   1.113   1.818   1.384
 7245TIP3   OH221698   6.958   1.316   1.127
 7245TIP3    H121699   6.958   1.361   1.212
 7245TIP3    H221700   6.912   1.234   1.144
 7246TIP3   OH221701   4.081   6.330   1.546
 7246TIP3    H121702   4.169   6.346   1.579
 7246TIP3    H221703   4.058   6.411   1.499
 7247TIP3   OH221704   0.460   4.418   3.095
 7247TIP3    H121705   0.551   4.447   3.095
 7247TIP3    H221706   0.427   4.444   3.009
 7248TIP3   OH221707   1.430   4.734   2.923
 7248TIP3    H121708   1.366   4.789   2.968
 7248TIP3    H221709   1.401   4.644   2.941
 7249TIP3   OH221710   2.845   0.920   0.307
 7249TIP3    H121711   2.827   0.922   0.213
 7249TIP3    H221712   2.925   0.971   0.317
 7250TIP3   OH221713   2.270   5.861   0.454
 7250TIP3    H121714   2.277   5.781   0.401
 7250TIP3    H221715   2.307   5.930   0.399
 7251TIP3   OH221716   0.401   0.399   4.440
 7251TIP3    H121717   0.366   0.312   4.458
 7251TIP3    H221718   0.408   0.441   4.527
 7252TIP3   OH221719   1.117   5.406   5.508
 7252TIP3    H121720   1.027   5.372   5.506
 7252TIP3    H221721   1.109   5.497   5.478
 7253TIP3   OH221722   6.420   4.195   0.139
 7253TIP3    H121723   6.347   4.157   0.189
 7253TIP3    H221724   6.396   4.182   0.048
 7254TIP3   OH221725   3.377   4.871   1.348
 7254TIP3    H121726   3.472   4.873   1.361
 7254TIP3    H221727   3.354   4.778   1.352
 7255TIP3   OH221728   6.938   0.204   5.587
 7255TIP3    H121729   6.860   0.257   5.602
 7255TIP3    H221730   7.011   0.265   5.594
 7256TIP3   OH221731   2.554   1.954   5.418
 7256TIP3    H121732   2.513   1.932   5.334
 7256TIP3    H221733   2.611   1.880   5.437
 7257TIP3   OH221734   4.001   0.057   2.975
 7257TIP3    H121735   3.949   0.136   2.986
 7257TIP3    H221736   4.072   0.083   2.916
 7258TIP3   OH221737   4.163   4.431   5.385
 7258TIP3    H121738   4.251   4.468   5.394
 7258TIP3    H221739   4.128   4.433   5.474
 7259TIP3   OH221740   6.337   2.613   4.412
 7259TIP3    H121741   6.262   2.639   4.358
 7259TIP3    H221742   6.377   2.695   4.439
 7260TIP3   OH221743   4.554   1.606   2.644
 7260TIP3    H121744   4.510   1.679   2.687
 7260TIP3    H221745   4.559   1.632   2.552
 7261TIP3   OH221746   0.087   5.957   3.009
 7261TIP3    H121747   0.163   5.913   3.048
 7261TIP3    H221748   0.034   5.984   3.083
 7262TIP3   OH221749   0.775   6.058   2.234
 7262TIP3    H121750   0.713   5.991   2.206
 7262TIP3    H221751   0.849   6.049   2.174
 7263TIP3   OH221752   0.174   6.480   2.531
 7263TIP3    H121753   0.145   6.416   2.466
 7263TIP3    H221754   0.255   6.515   2.495
 7264TIP3   OH221755   6.064   4.912   0.542
 7264TIP3    H121756   6.107   4.836   0.502
 7264TIP3    H221757   6.062   4.978   0.473
 7265TIP3   OH221758   0.946   0.356   2.338
 7265TIP3    H121759   0.993   0.434   2.309
 7265TIP3    H221760   0.854   0.384   2.344
 7266TIP3   OH221761   6.745   5.413   3.741
 7266TIP3    H121762   6.700   5.423   3.825
 7266TIP3    H221763   6.810   5.483   3.740
 7267TIP3   OH221764   0.949   5.708   1.556
 7267TIP3    H121765   0.883   5.745   1.615
 7267TIP3    H221766   0.964   5.620   1.591
 7268TIP3   OH221767   2.011   4.235   4.434
 7268TIP3    H121768   1.926   4.267   4.464
 7268TIP3    H221769   2.053   4.201   4.514
 7269TIP3   OH221770   3.663   3.075   1.636
 7269TIP3    H121771   3.725   3.007   1.664
 7269TIP3    H221772   3.718   3.151   1.616
 7270TIP3   OH221773   2.331   4.339   2.830
 7270TIP3    H121774   2.394   4.288   2.880
 7270TIP3    H221775   2.291   4.398   2.894
 7271TIP3   OH221776   2.624   1.063   0.733
 7271TIP3    H121777   2.604   1.137   0.790
 7271TIP3    H221778   2.647   0.992   0.793
 7272TIP3   OH221779   3.159   2.835   2.733
 7272TIP3    H121780   3.108   2.809   2.657
 7272TIP3    H221781   3.244   2.862   2.697
 7273TIP3   OH221782   4.406   6.571   0.159
 7273TIP3    H121783   4.393   6.664   0.143
 7273TIP3    H221784   4.419   6.534   0.072
 7274TIP3   OH221785   3.563   0.240   4.288
 7274TIP3    H121786   3.533   0.219   4.377
 7274TIP3    H221787   3.649   0.199   4.281
 7275TIP3   OH221788   6.247   2.842   2.121
 7275TIP3    H121789   6.298   2.780   2.173
 7275TIP3    H221790   6.161   2.846   2.164
 7276TIP3   OH221791   2.081   5.170   5.495
 7276TIP3    H121792   2.041   5.249   5.531
 7276TIP3    H221793   2.105   5.193   5.405
 7277TIP3   OH221794   2.598   3.793   0.220
 7277TIP3    H121795   2.644   3.877   0.222
 7277TIP3    H221796   2.604   3.761   0.310
 7278TIP3   OH221797   7.119   3.574   5.609
 7278TIP3    H121798   7.040   3.522   5.590
 7278TIP3    H221799   7.146   3.607   5.523
 7279TIP3   OH221800   5.889   6.553   2.491
 7279TIP3    H121801   5.881   6.627   2.552
 7279TIP3    H221802   5.802   6.513   2.491
 7280TIP3   OH221803   1.241   5.764   5.666
 7280TIP3    H121804   1.270   5.780   5.576
 7280TIP3    H221805   1.320   5.734   5.711
 7281TIP3   OH221806   3.172   2.111   3.601
 7281TIP3    H121807   3.086   2.072   3.619
 7281TIP3    H221808   3.232   2.036   3.596
 7282TIP3   OH221809   4.692   4.888   1.147
 7282TIP3    H121810   4.756   4.948   1.184
 7282TIP3    H221811   4.653   4.843   1.222
 7283TIP3   OH221812   5.444   6.791   1.608
 7283TIP3    H121813   5.361   6.744   1.610
 7283TIP3    H221814   5.510   6.724   1.628
 7284TIP3   OH221815   1.747   6.671   4.774
 7284TIP3    H121816   1.724   6.590   4.819
 7284TIP3    H221817   1.761   6.645   4.683
 7285TIP3   OH221818   6.019   2.793   1.264
 7285TIP3    H121819   5.994   2.800   1.172
 7285TIP3    H221820   5.957   2.850   1.310
 7286TIP3   OH221821   6.917   0.842   0.120
 7286TIP3    H121822   6.894   0.767   0.065
 7286TIP3    H221823   6.864   0.914   0.086
 7287TIP3   OH221824   5.636   4.626   0.501
 7287TIP3    H121825   5.615   4.718   0.515
 7287TIP3    H221826   5.573   4.578   0.555
 7288TIP3   OH221827   4.407   0.359   2.341
 7288TIP3    H121828   4.354   0.297   2.391
 7288TIP3    H221829   4.456   0.305   2.279
 7289TIP3   OH221830   2.869   1.248   0.213
 7289TIP3    H121831   2.872   1.277   0.304
 7289TIP3    H221832   2.953   1.275   0.175
 7290TIP3   OH221833   4.973   4.826   4.065
 7290TIP3    H121834   5.042   4.890   4.083
 7290TIP3    H221835   5.004   4.776   3.991
 7291TIP3   OH221836   3.024   6.165   1.797
 7291TIP3    H121837   3.021   6.106   1.873
 7291TIP3    H221838   2.995   6.110   1.724
 7292TIP3   OH221839   3.166   2.326   2.233
 7292TIP3    H121840   3.196   2.361   2.149
 7292TIP3    H221841   3.073   2.348   2.237
 7293TIP3   OH221842   5.338   1.576   2.890
 7293TIP3    H121843   5.257   1.624   2.872
 7293TIP3    H221844   5.342   1.509   2.821
 7294TIP3   OH221845   1.069   1.503   4.877
 7294TIP3    H121846   1.133   1.473   4.812
 7294TIP3    H221847   1.105   1.474   4.960
 7295TIP3   OH221848   4.434   3.134   3.377
 7295TIP3    H121849   4.427   3.130   3.473
 7295TIP3    H221850   4.395   3.218   3.354
 7296TIP3   OH221851   2.068   6.568   0.180
 7296TIP3    H121852   2.118   6.649   0.181
 7296TIP3    H221853   1.996   6.584   0.118
 7297TIP3   OH221854   7.107   3.931   1.635
 7297TIP3    H121855   7.184   3.986   1.648
 7297TIP3    H221856   7.136   3.843   1.663
 7298TIP3   OH221857   1.916   3.572   5.436
 7298TIP3    H121858   1.851   3.620   5.486
 7298TIP3    H221859   1.902   3.480   5.459
 7299TIP3   OH221860   5.572   0.975   4.574
 7299TIP3    H121861   5.618   0.956   4.493
 7299TIP3    H221862   5.634   1.026   4.626
 7300TIP3   OH221863   1.837   0.868   0.768
 7300TIP3    H121864   1.927   0.846   0.791
 7300TIP3    H221865   1.844   0.949   0.719
 7301TIP3   OH221866   1.384   5.449   5.435
 7301TIP3    H121867   1.427   5.379   5.386
 7301TIP3    H221868   1.298   5.412   5.458
 7302TIP3   OH221869   6.958   2.362   0.627
 7302TIP3    H121870   6.910   2.372   0.710
 7302TIP3    H221871   6.964   2.450   0.591
 7303TIP3   OH221872   4.717   0.347   4.268
 7303TIP3    H121873   4.648   0.347   4.202
 7303TIP3    H221874   4.702   0.267   4.319
 7304TIP3   OH221875   1.853   6.334   1.947
 7304TIP3    H121876   1.805   6.284   2.013
 7304TIP3    H221877   1.925   6.276   1.922
 7305TIP3   OH221878   3.990   6.020   4.320
 7305TIP3    H121879   3.929   6.044   4.389
 7305TIP3    H221880   3.937   6.017   4.240
 7306TIP3   OH221881   0.170   3.550   0.714
 7306TIP3    H121882   0.099   3.603   0.677
 7306TIP3    H221883   0.136   3.460   0.714
 7307TIP3   OH221884   3.811   4.920   5.735
 7307TIP3    H121885   3.864   4.954   5.807
 7307TIP3    H221886   3.870   4.863   5.686
 7308TIP3   OH221887   0.413   5.272   2.308
 7308TIP3    H121888   0.491   5.274   2.251
 7308TIP3    H221889   0.372   5.188   2.288
 7309TIP3   OH221890   6.012   3.769   3.159
 7309TIP3    H121891   5.980   3.857   3.174
 7309TIP3    H221892   6.074   3.753   3.231
 7310TIP3   OH221893   2.256   0.523   3.146
 7310TIP3    H121894   2.176   0.478   3.172
 7310TIP3    H221895   2.252   0.527   3.051
 7311TIP3   OH221896   3.276   1.433   0.744
 7311TIP3    H121897   3.293   1.446   0.838
 7311TIP3    H221898   3.234   1.515   0.716
 7312TIP3   OH221899   0.756   4.763   3.622
 7312TIP3    H121900   0.850   4.781   3.631
 7312TIP3    H221901   0.715   4.823   3.685
 7313TIP3   OH221902   6.195   1.454   5.734
 7313TIP3    H121903   6.229   1.412   5.813
 7313TIP3    H221904   6.261   1.519   5.711
 7314TIP3   OH221905   7.050   0.587   2.778
 7314TIP3    H121906   7.083   0.624   2.861
 7314TIP3    H221907   6.995   0.513   2.805
 7315TIP3   OH221908   0.386   2.131   2.693
 7315TIP3    H121909   0.371   2.160   2.603
 7315TIP3    H221910   0.387   2.036   2.687
 7316TIP3   OH221911   1.093   0.681   3.578
 7316TIP3    H121912   1.141   0.651   3.501
 7316TIP3    H221913   1.040   0.605   3.604
 7317TIP3   OH221914   6.815   4.289   0.910
 7317TIP3    H121915   6.766   4.211   0.883
 7317TIP3    H221916   6.755   4.336   0.967
 7318TIP3   OH221917   1.950   0.584   1.170
 7318TIP3    H121918   2.024   0.564   1.228
 7318TIP3    H221919   1.985   0.573   1.082
 7319TIP3   OH221920   5.955   6.346   0.900
 7319TIP3    H121921   5.933   6.385   0.984
 7319TIP3    H221922   6.051   6.354   0.894
 7320TIP3   OH221923   4.122   4.514   5.125
 7320TIP3    H121924   4.079   4.447   5.071
 7320TIP3    H221925   4.145   4.467   5.206
 7321TIP3   OH221926   1.246   3.608   3.408
 7321TIP3    H121927   1.188   3.683   3.420
 7321TIP3    H221928   1.308   3.613   3.481
 7322TIP3   OH221929   1.019   1.651   3.305
 7322TIP3    H121930   0.954   1.598   3.351
 7322TIP3    H221931   0.975   1.676   3.223
 7323TIP3   OH221932   4.319   1.420   0.175
 7323TIP3    H121933   4.324   1.454   0.264
 7323TIP3    H221934   4.410   1.413   0.147
 7324TIP3   OH221935   4.254   5.686   4.683
 7324TIP3    H121936   4.216   5.773   4.670
 7324TIP3    H221937   4.234   5.639   4.601
 7325TIP3   OH221938   0.281   4.137   1.983
 7325TIP3    H121939   0.335   4.091   2.046
 7325TIP3    H221940   0.220   4.188   2.037
 7326TIP3   OH221941   4.423   0.621   3.894
 7326TIP3    H121942   4.518   0.610   3.893
 7326TIP3    H221943   4.410   0.707   3.934
 7327TIP3   OH221944   2.133   5.486   1.946
 7327TIP3    H121945   2.164   5.561   1.895
 7327TIP3    H221946   2.129   5.518   2.036
 7328TIP3   OH221947   3.713   4.865   1.751
 7328TIP3    H121948   3.634   4.916   1.733
 7328TIP3    H221949   3.742   4.834   1.665
 7329TIP3   OH221950   0.771   6.109   3.110
 7329TIP3    H121951   0.691   6.156   3.086
 7329TIP3    H221952   0.842   6.166   3.080
 7330TIP3   OH221953   0.230   4.014   0.142
 7330TIP3    H121954   0.214   3.982   0.053
 7330TIP3    H221955   0.146   4.001   0.187
 7331TIP3   OH221956   6.116   4.463   1.571
 7331TIP3    H121957   6.091   4.371   1.571
 7331TIP3    H221958   6.198   4.466   1.620
 7332TIP3   OH221959   5.700   6.145   4.931
 7332TIP3    H121960   5.699   6.077   4.864
 7332TIP3    H221961   5.788   6.183   4.927
 7333TIP3   OH221962   3.254   5.036   4.871
 7333TIP3    H121963   3.256   4.972   4.800
 7333TIP3    H221964   3.190   5.101   4.843
 7334TIP3   OH221965   3.916   1.373   3.439
 7334TIP3    H121966   3.979   1.411   3.500
 7334TIP3    H221967   3.838   1.426   3.449
 7335TIP3   OH221968   5.833   5.872   1.412
 7335TIP3    H121969   5.822   5.797   1.471
 7335TIP3    H221970   5.921   5.862   1.377
 7336TIP3   OH221971   2.846   6.284   3.052
 7336TIP3    H121972   2.815   6.280   2.962
 7336TIP3    H221973   2.941   6.272   3.045
 7337TIP3   OH221974   6.381   5.989   1.986
 7337TIP3    H121975   6.430   6.071   1.974
 7337TIP3    H221976   6.358   5.988   2.078
 7338TIP3   OH221977   2.694   6.705   2.611
 7338TIP3    H121978   2.742   6.653   2.675
 7338TIP3    H221979   2.704   6.657   2.529
 7339TIP3   OH221980   5.154   1.559   3.991
 7339TIP3    H121981   5.207   1.521   3.920
 7339TIP3    H221982   5.131   1.485   4.046
 7340TIP3   OH221983   1.195   5.622   4.848
 7340TIP3    H121984   1.119   5.577   4.812
 7340TIP3    H221985   1.198   5.596   4.940
 7341TIP3   OH221986   2.086   3.031   5.086
 7341TIP3    H121987   2.156   3.016   5.023
 7341TIP3    H221988   2.005   3.022   5.036
 7342TIP3   OH221989   1.890   4.463   5.932
 7342TIP3    H121990   1.858   4.553   5.925
 7342TIP3    H221991   1.827   4.412   5.880
 7343TIP3   OH221992   6.223   4.000   4.008
 7343TIP3    H121993   6.135   3.969   4.027
 7343TIP3    H221994   6.280   3.950   4.067
 7344TIP3   OH221995   1.212   4.480   5.358
 7344TIP3    H121996   1.219   4.573   5.338
 7344TIP3    H221997   1.200   4.476   5.453
 7345TIP3   OH221998   6.993   0.770   0.397
 7345TIP3    H121999   7.041   0.688   0.403
 7345TIP3    H222000   6.974   0.780   0.304
 7346TIP3   OH222001   0.864   6.308   1.531
 7346TIP3    H122002   0.896   6.226   1.567
 7346TIP3    H222003   0.802   6.281   1.463
 7347TIP3   OH222004   0.388   0.223   1.722
 7347TIP3    H122005   0.423   0.222   1.633
 7347TIP3    H222006   0.293   0.216   1.711
 7348TIP3   OH222007   4.478   3.031   3.061
 7348TIP3    H122008   4.541   3.047   3.131
 7348TIP3    H222009   4.473   2.936   3.053
 7349TIP3   OH222010   4.914   2.143   2.975
 7349TIP3    H122011   4.859   2.119   2.900
 7349TIP3    H222012   4.991   2.086   2.968
 7350TIP3   OH222013   0.811   5.539   0.469
 7350TIP3    H122014   0.804   5.513   0.561
 7350TIP3    H222015   0.753   5.614   0.460
 7351TIP3   OH222016   5.832   3.869   2.607
 7351TIP3    H122017   5.754   3.891   2.556
 7351TIP3    H222018   5.804   3.799   2.666
 7352TIP3   OH222019   4.615   2.362   3.453
 7352TIP3    H122020   4.683   2.310   3.411
 7352TIP3    H222021   4.642   2.453   3.439
 7353TIP3   OH222022   1.389   2.976   0.414
 7353TIP3    H122023   1.442   2.998   0.491
 7353TIP3    H222024   1.454   2.966   0.344
 7354TIP3   OH222025   6.677   3.577   0.373
 7354TIP3    H122026   6.668   3.616   0.460
 7354TIP3    H222027   6.742   3.632   0.329
 7355TIP3   OH222028   1.490   5.936   4.764
 7355TIP3    H122029   1.441   5.919   4.844
 7355TIP3    H222030   1.521   5.850   4.735
 7356TIP3   OH222031   3.105   1.654   3.727
 7356TIP3    H122032   3.035   1.613   3.778
 7356TIP3    H222033   3.167   1.583   3.710
 7357TIP3   OH222034   6.183   5.340   1.010
 7357TIP3    H122035   6.246   5.411   1.025
 7357TIP3    H222036   6.148   5.357   0.922
 7358TIP3   OH222037   1.822   5.908   2.823
 7358TIP3    H122038   1.749   5.848   2.837
 7358TIP3    H222039   1.814   5.934   2.731
 7359TIP3   OH222040   6.325   3.784   0.194
 7359TIP3    H122041   6.337   3.705   0.141
 7359TIP3    H222042   6.284   3.752   0.274
 7360TIP3   OH222043   6.302   0.962   3.015
 7360TIP3    H122044   6.368   1.023   3.049
 7360TIP3    H222045   6.226   0.975   3.072
 7361TIP3   OH222046   5.871   3.123   5.224
 7361TIP3    H122047   5.885   3.218   5.230
 7361TIP3    H222048   5.783   3.110   5.258
 7362TIP3   OH222049   5.853   1.865   0.555
 7362TIP3    H122050   5.898   1.850   0.472
 7362TIP3    H222051   5.761   1.875   0.531
 7363TIP3   OH222052   1.612   2.654   0.980
 7363TIP3    H122053   1.604   2.724   0.916
 7363TIP3    H222054   1.546   2.673   1.046
 7364TIP3   OH222055   2.262   0.363   4.152
 7364TIP3    H122056   2.350   0.351   4.187
 7364TIP3    H222057   2.253   0.295   4.086
 7365TIP3   OH222058   1.173   0.409   0.584
 7365TIP3    H122059   1.199   0.498   0.560
 7365TIP3    H222060   1.091   0.421   0.633
 7366TIP3   OH222061   0.389   0.491   4.701
 7366TIP3    H122062   0.348   0.489   4.788
 7366TIP3    H222063   0.435   0.575   4.699
 7367TIP3   OH222064   5.047   1.430   5.162
 7367TIP3    H122065   5.023   1.483   5.238
 7367TIP3    H222066   4.972   1.372   5.149
 7368TIP3   OH222067   1.255   6.778   2.450
 7368TIP3    H122068   1.217   6.757   2.535
 7368TIP3    H222069   1.322   6.711   2.436
 7369TIP3   OH222070   3.544   6.236   1.551
 7369TIP3    H122071   3.463   6.201   1.587
 7369TIP3    H222072   3.610   6.168   1.568
 7370TIP3   OH222073   0.905   5.258   1.356
 7370TIP3    H122074   0.977   5.230   1.413
 7370TIP3    H222075   0.947   5.281   1.273
 7371TIP3   OH222076   3.711   4.675   0.949
 7371TIP3    H122077   3.804   4.698   0.946
 7371TIP3    H222078   3.708   4.592   0.996
 7372TIP3   OH222079   0.960   6.466   4.295
 7372TIP3    H122080   1.044   6.485   4.252
 7372TIP3    H222081   0.918   6.552   4.303
 7373TIP3   OH222082   7.143   2.838   4.309
 7373TIP3    H122083   7.062   2.791   4.294
 7373TIP3    H222084   7.152   2.896   4.233
 7374TIP3   OH222085   2.056   4.519   4.924
 7374TIP3    H122086   2.098   4.434   4.911
 7374TIP3    H222087   1.963   4.498   4.939
 7375TIP3   OH222088   6.939   4.008   0.757
 7375TIP3    H122089   6.918   4.019   0.850
 7375TIP3    H222090   6.855   4.004   0.713
 7376TIP3   OH222091   5.771   1.773   3.117
 7376TIP3    H122092   5.681   1.745   3.101
 7376TIP3    H222093   5.778   1.781   3.212
 7377TIP3   OH222094   4.061   0.888   1.691
 7377TIP3    H122095   4.156   0.879   1.685
 7377TIP3    H222096   4.028   0.850   1.610
 7378TIP3   OH222097   4.870   5.387   3.987
 7378TIP3    H122098   4.930   5.432   3.927
 7378TIP3    H222099   4.913   5.392   4.072
 7379TIP3   OH222100   1.763   3.940   0.101
 7379TIP3    H122101   1.723   4.027   0.105
 7379TIP3    H222102   1.690   3.880   0.090
 7380TIP3   OH222103   4.547   5.819   2.399
 7380TIP3    H122104   4.481   5.838   2.332
 7380TIP3    H222105   4.506   5.845   2.482
 7381TIP3   OH222106   4.599   5.218   2.434
 7381TIP3    H122107   4.626   5.181   2.350
 7381TIP3    H222108   4.664   5.286   2.452
 7382TIP3   OH222109   3.396   4.539   0.153
 7382TIP3    H122110   3.311   4.581   0.150
 7382TIP3    H222111   3.449   4.596   0.209
 7383TIP3   OH222112   0.347   0.999   5.091
 7383TIP3    H122113   0.253   1.009   5.073
 7383TIP3    H222114   0.390   1.025   5.009
 7384TIP3   OH222115   5.774   3.689   3.024
 7384TIP3    H122116   5.851   3.732   3.059
 7384TIP3    H222117   5.707   3.701   3.091
 7385TIP3   OH222118   4.784   3.862   3.215
 7385TIP3    H122119   4.758   3.771   3.202
 7385TIP3    H222120   4.704   3.905   3.245
 7386TIP3   OH222121   0.259   0.885   3.785
 7386TIP3    H122122   0.168   0.859   3.775
 7386TIP3    H222123   0.265   0.921   3.874
 7387TIP3   OH222124   5.389   3.787   0.898
 7387TIP3    H122125   5.410   3.697   0.922
 7387TIP3    H222126   5.442   3.804   0.820
 7388TIP3   OH222127   5.968   0.155   4.206
 7388TIP3    H122128   5.957   0.062   4.186
 7388TIP3    H222129   5.918   0.200   4.138
 7389TIP3   OH222130   7.097   0.985   1.045
 7389TIP3    H122131   7.145   1.046   1.101
 7389TIP3    H222132   7.033   0.944   1.103
 7390TIP3   OH222133   4.140   1.092   1.392
 7390TIP3    H122134   4.085   1.169   1.381
 7390TIP3    H222135   4.083   1.027   1.434
 7391TIP3   OH222136   4.300   5.536   2.555
 7391TIP3    H122137   4.257   5.549   2.470
 7391TIP3    H222138   4.325   5.623   2.584
 7392TIP3   OH222139   1.508   2.079   1.326
 7392TIP3    H122140   1.418   2.104   1.346
 7392TIP3    H222141   1.508   1.983   1.328
 7393TIP3   OH222142   5.456   5.764   1.547
 7393TIP3    H122143   5.428   5.850   1.513
 7393TIP3    H222144   5.488   5.783   1.635
 7394TIP3   OH222145   5.040   2.074   5.124
 7394TIP3    H122146   5.106   2.116   5.180
 7394TIP3    H222147   5.076   2.079   5.036
 7395TIP3   OH222148   3.294   6.818   3.769
 7395TIP3    H122149   3.265   6.752   3.706
 7395TIP3    H222150   3.242   6.801   3.847
 7396TIP3   OH222151   1.375   6.169   3.490
 7396TIP3    H122152   1.292   6.180   3.443
 7396TIP3    H222153   1.349   6.156   3.581
 7397TIP3   OH222154   4.237   1.929   1.335
 7397TIP3    H122155   4.247   1.996   1.268
 7397TIP3    H222156   4.218   1.977   1.416
 7398TIP3   OH222157   7.189   3.312   1.539
 7398TIP3    H122158   7.131   3.259   1.594
 7398TIP3    H222159   7.277   3.293   1.572
 7399TIP3   OH222160   1.141   0.807   0.846
 7399TIP3    H122161   1.207   0.771   0.906
 7399TIP3    H222162   1.057   0.784   0.885
 7400TIP3   OH222163   4.141   5.260   5.022
 7400TIP3    H122164   4.228   5.231   4.993
 7400TIP3    H222165   4.132   5.348   4.986
 7401TIP3   OH222166   0.663   1.995   2.588
 7401TIP3    H122167   0.758   1.984   2.577
 7401TIP3    H222168   0.648   1.984   2.682
 7402TIP3   OH222169   1.257   1.902   1.038
 7402TIP3    H122170   1.185   1.840   1.053
 7402TIP3    H222171   1.336   1.851   1.057
 7403TIP3   OH222172   3.052   0.546   5.075
 7403TIP3    H122173   3.098   0.629   5.078
 7403TIP3    H222174   3.049   0.523   4.982
 7404TIP3   OH222175   1.206   6.593   0.785
 7404TIP3    H122176   1.278   6.639   0.741
 7404TIP3    H222177   1.176   6.654   0.852
 7405TIP3   OH222178   1.715   3.905   5.382
 7405TIP3    H122179   1.647   3.958   5.423
 7405TIP3    H222180   1.692   3.815   5.405
 7406TIP3   OH222181   4.223   1.157   1.631
 7406TIP3    H122182   4.232   1.084   1.692
 7406TIP3    H222183   4.231   1.118   1.544
 7407TIP3   OH222184   2.625   1.092   5.403
 7407TIP3    H122185   2.674   1.133   5.332
 7407TIP3    H222186   2.602   1.005   5.370
 7408TIP3   OH222187   2.975   0.715   4.347
 7408TIP3    H122188   3.019   0.748   4.425
 7408TIP3    H222189   2.912   0.783   4.323
 7409TIP3   OH222190   3.029   3.917   4.013
 7409TIP3    H122191   3.064   3.829   4.016
 7409TIP3    H222192   2.978   3.920   3.931
 7410TIP3   OH222193   5.573   0.371   1.344
 7410TIP3    H122194   5.622   0.298   1.383
 7410TIP3    H222195   5.555   0.342   1.255
 7411TIP3   OH222196   3.945   0.371   3.313
 7411TIP3    H122197   3.910   0.460   3.303
 7411TIP3    H222198   3.876   0.322   3.357
 7412TIP3   OH222199   1.793   4.083   5.698
 7412TIP3    H122200   1.849   4.146   5.652
 7412TIP3    H222201   1.848   4.048   5.768
 7413TIP3   OH222202   5.643   4.046   2.252
 7413TIP3    H122203   5.640   4.139   2.276
 7413TIP3    H222204   5.601   4.043   2.165
 7414TIP3   OH222205   0.724   0.817   2.465
 7414TIP3    H122206   0.789   0.828   2.396
 7414TIP3    H222207   0.665   0.892   2.454
 7415TIP3   OH222208   6.749   4.443   1.639
 7415TIP3    H122209   6.790   4.494   1.570
 7415TIP3    H222210   6.670   4.407   1.599
 7416TIP3   OH222211   3.251   0.597   0.063
 7416TIP3    H122212   3.205   0.518   0.036
 7416TIP3    H222213   3.198   0.668   0.026
 7417TIP3   OH222214   5.667   2.826   0.674
 7417TIP3    H122215   5.753   2.791   0.699
 7417TIP3    H222216   5.605   2.758   0.698
 7418TIP3   OH222217   2.978   6.689   1.468
 7418TIP3    H122218   3.030   6.739   1.406
 7418TIP3    H222219   2.991   6.733   1.552
 7419TIP3   OH222220   5.097   1.967   0.423
 7419TIP3    H122221   5.186   1.998   0.408
 7419TIP3    H222222   5.059   2.030   0.484
 7420TIP3   OH222223   4.379   6.550   2.713
 7420TIP3    H122224   4.443   6.490   2.673
 7420TIP3    H222225   4.294   6.519   2.680
 7421TIP3   OH222226   2.976   0.164   1.050
 7421TIP3    H122227   3.050   0.179   0.991
 7421TIP3    H222228   2.968   0.068   1.055
 7422TIP3   OH222229   1.624   3.040   4.231
 7422TIP3    H122230   1.680   3.012   4.304
 7422TIP3    H222231   1.683   3.042   4.155
 7423TIP3   OH222232   0.759   6.085   5.680
 7423TIP3    H122233   0.733   6.014   5.739
 7423TIP3    H222234   0.677   6.115   5.641
 7424TIP3   OH222235  -0.024   6.692   2.078
 7424TIP3    H122236  -0.038   6.780   2.112
 7424TIP3    H222237   0.053   6.700   2.021
 7425TIP3   OH222238   1.680   5.524   5.223
 7425TIP3    H122239   1.682   5.446   5.277
 7425TIP3    H222240   1.665   5.491   5.134
 7426TIP3   OH222241   6.748  -0.023   1.217
 7426TIP3    H122242   6.794   0.052   1.253
 7426TIP3    H222243   6.766  -0.020   1.123
 7427TIP3   OH222244   1.352   4.356   4.665
 7427TIP3    H122245   1.411   4.400   4.726
 7427TIP3    H222246   1.384   4.266   4.661
 7428TIP3   OH222247   6.277   4.865   5.798
 7428TIP3    H122248   6.366   4.894   5.776
 7428TIP3    H222249   6.242   4.830   5.716
 7429TIP3   OH222250   6.294   0.347   3.634
 7429TIP3    H122251   6.348   0.421   3.607
 7429TIP3    H222252   6.357   0.282   3.665
 7430TIP3   OH222253   6.473   1.908   3.608
 7430TIP3    H122254   6.378   1.895   3.604
 7430TIP3    H222255   6.492   1.916   3.702
 7431TIP3   OH222256   5.783   2.794   5.085
 7431TIP3    H122257   5.763   2.720   5.142
 7431TIP3    H222258   5.846   2.759   5.022
 7432TIP3   OH222259   5.562   6.393   3.958
 7432TIP3    H122260   5.476   6.359   3.982
 7432TIP3    H222261   5.547   6.487   3.943
 7433TIP3   OH222262   2.342   1.127   5.298
 7433TIP3    H122263   2.351   1.212   5.341
 7433TIP3    H222264   2.425   1.083   5.313
 7434TIP3   OH222265   4.978   3.405   1.889
 7434TIP3    H122266   5.070   3.384   1.906
 7434TIP3    H222267   4.936   3.398   1.975
 7435TIP3   OH222268   4.928   0.847   5.031
 7435TIP3    H122269   4.960   0.863   4.942
 7435TIP3    H222270   5.007   0.833   5.083
 7436TIP3   OH222271   5.544   4.508   4.115
 7436TIP3    H122272   5.639   4.520   4.108
 7436TIP3    H222273   5.508   4.558   4.041
 7437TIP3   OH222274   2.031   1.926   0.106
 7437TIP3    H122275   1.975   1.850   0.125
 7437TIP3    H222276   2.028   1.934   0.010
 7438TIP3   OH222277   2.118   2.957   2.065
 7438TIP3    H122278   2.113   2.910   2.149
 7438TIP3    H222279   2.063   3.034   2.078
 7439TIP3   OH222280   4.379   2.297   3.314
 7439TIP3    H122281   4.457   2.289   3.368
 7439TIP3    H222282   4.324   2.360   3.361
 7440TIP3   OH222283   2.183   3.935   3.524
 7440TIP3    H122284   2.160   3.848   3.559
 7440TIP3    H222285   2.232   3.916   3.444
 7441TIP3   OH222286   3.751   0.559   1.154
 7441TIP3    H122287   3.721   0.645   1.126
 7441TIP3    H222288   3.842   0.554   1.125
 7442TIP3   OH222289   4.032   6.616   5.208
 7442TIP3    H122290   4.070   6.620   5.121
 7442TIP3    H222291   3.949   6.663   5.200
 7443TIP3   OH222292   4.690   3.470   0.131
 7443TIP3    H122293   4.638   3.459   0.211
 7443TIP3    H222294   4.626   3.487   0.062
 7444TIP3   OH222295   4.523   2.753   5.634
 7444TIP3    H122296   4.521   2.776   5.541
 7444TIP3    H222297   4.569   2.670   5.637
 7445TIP3   OH222298   7.092   4.756   3.580
 7445TIP3    H122299   7.003   4.744   3.613
 7445TIP3    H222300   7.082   4.815   3.505
 7446TIP3   OH222301   1.156   4.605   5.863
 7446TIP3    H122302   1.246   4.595   5.894
 7446TIP3    H222303   1.122   4.516   5.861
 7447TIP3   OH222304   6.166   1.000   4.376
 7447TIP3    H122305   6.212   0.950   4.444
 7447TIP3    H222306   6.073   0.988   4.396
 7448TIP3   OH222307   3.832   3.611   0.410
 7448TIP3    H122308   3.812   3.538   0.468
 7448TIP3    H222309   3.916   3.589   0.371
 7449TIP3   OH222310   0.569   4.670   2.353
 7449TIP3    H122311   0.528   4.704   2.273
 7449TIP3    H222312   0.640   4.731   2.372
 7450TIP3   OH222313   5.723   4.871   4.257
 7450TIP3    H122314   5.704   4.960   4.286
 7450TIP3    H222315   5.734   4.877   4.163
 7451TIP3   OH222316   5.857   4.165   0.267
 7451TIP3    H122317   5.900   4.178   0.182
 7451TIP3    H222318   5.828   4.253   0.292
 7452TIP3   OH222319   0.633   1.089   1.394
 7452TIP3    H122320   0.593   1.085   1.481
 7452TIP3    H222321   0.560   1.104   1.334
 7453TIP3   OH222322   2.665   2.661   2.835
 7453TIP3    H122323   2.758   2.660   2.812
 7453TIP3    H222324   2.658   2.728   2.903
 7454TIP3   OH222325   4.933   2.063   0.190
 7454TIP3    H122326   4.869   1.994   0.173
 7454TIP3    H222327   5.008   2.017   0.228
 7455TIP3   OH222328   2.438   0.180   1.915
 7455TIP3    H122329   2.434   0.266   1.871
 7455TIP3    H222330   2.404   0.196   2.003
 7456TIP3   OH222331   2.171   2.568   2.132
 7456TIP3    H122332   2.142   2.572   2.223
 7456TIP3    H222333   2.092   2.578   2.081
 7457TIP3   OH222334   4.102   6.467   0.757
 7457TIP3    H122335   4.019   6.474   0.804
 7457TIP3    H222336   4.168   6.456   0.826
 7458TIP3   OH222337   6.888   5.636   3.686
 7458TIP3    H122338   6.878   5.729   3.707
 7458TIP3    H222339   6.982   5.625   3.671
 7459TIP3   OH222340   0.169   3.212   2.402
 7459TIP3    H122341   0.106   3.179   2.338
 7459TIP3    H222342   0.205   3.291   2.362
 7460TIP3   OH222343   5.754   1.878   3.611
 7460TIP3    H122344   5.774   1.869   3.517
 7460TIP3    H222345   5.694   1.953   3.615
 7461TIP3   OH222346   3.206   4.500   2.991
 7461TIP3    H122347   3.171   4.413   2.972
 7461TIP3    H222348   3.292   4.501   2.951
 7462TIP3   OH222349   4.369   5.652   3.957
 7462TIP3    H122350   4.459   5.622   3.973
 7462TIP3    H222351   4.338   5.597   3.885
 7463TIP3   OH222352   4.152   2.713   4.498
 7463TIP3    H122353   4.234   2.738   4.455
 7463TIP3    H222354   4.084   2.756   4.446
 7464TIP3   OH222355   0.711   2.446   4.016
 7464TIP3    H122356   0.733   2.372   3.959
 7464TIP3    H222357   0.720   2.523   3.961
 7465TIP3   OH222358   0.792   0.663   5.696
 7465TIP3    H122359   0.765   0.702   5.612
 7465TIP3    H222360   0.877   0.703   5.715
 7466TIP3   OH222361   6.173   1.898   2.426
 7466TIP3    H122362   6.122   1.818   2.411
 7466TIP3    H222363   6.174   1.908   2.521
 7467TIP3   OH222364   0.027   2.417   2.995
 7467TIP3    H122365   0.011   2.341   2.938
 7467TIP3    H222366   0.103   2.460   2.957
 7468TIP3   OH222367   2.715   0.549   0.326
 7468TIP3    H122368   2.676   0.636   0.314
 7468TIP3    H222369   2.699   0.529   0.418
 7469TIP3   OH222370   0.017   2.107   3.567
 7469TIP3    H122371  -0.055   2.118   3.630
 7469TIP3    H222372   0.054   2.195   3.558
 7470TIP3   OH222373   6.045   4.697   2.407
 7470TIP3    H122374   6.072   4.773   2.355
 7470TIP3    H222375   6.015   4.735   2.490
 7471TIP3   OH222376   2.819   4.283   1.176
 7471TIP3    H122377   2.811   4.378   1.188
 7471TIP3    H222378   2.878   4.274   1.101
 7472TIP3   OH222379   0.042   2.361   4.463
 7472TIP3    H122380   0.114   2.408   4.420
 7472TIP3    H222381   0.011   2.421   4.530
 7473TIP3   OH222382   2.321   3.658   3.462
 7473TIP3    H122383   2.385   3.591   3.435
 7473TIP3    H222384   2.375   3.732   3.489
 7474TIP3   OH222385   0.098   0.194   0.208
 7474TIP3    H122386   0.060   0.231   0.128
 7474TIP3    H222387   0.173   0.250   0.227
 7475TIP3   OH222388   0.757   3.685   4.841
 7475TIP3    H122389   0.771   3.775   4.870
 7475TIP3    H222390   0.686   3.691   4.777
 7476TIP3   OH222391   6.417   4.008   3.557
 7476TIP3    H122392   6.338   4.003   3.504
 7476TIP3    H222393   6.421   3.923   3.603
 7477TIP3   OH222394   1.748   2.337   3.798
 7477TIP3    H122395   1.708   2.357   3.714
 7477TIP3    H222396   1.811   2.408   3.812
 7478TIP3   OH222397   5.997   6.525   5.368
 7478TIP3    H122398   5.949   6.588   5.422
 7478TIP3    H222399   6.050   6.475   5.430
 7479TIP3   OH222400   4.448   1.293   1.669
 7479TIP3    H122401   4.389   1.222   1.694
 7479TIP3    H222402   4.432   1.305   1.575
 7480TIP3   OH222403   0.899   3.449   4.755
 7480TIP3    H122404   0.822   3.398   4.781
 7480TIP3    H222405   0.879   3.538   4.781
 7481TIP3   OH222406   4.425   2.745   3.759
 7481TIP3    H122407   4.388   2.695   3.832
 7481TIP3    H222408   4.479   2.812   3.800
 7482TIP3   OH222409   0.597   3.796   2.107
 7482TIP3    H122410   0.596   3.810   2.202
 7482TIP3    H222411   0.658   3.723   2.095
 7483TIP3   OH222412   3.503   0.284   5.586
 7483TIP3    H122413   3.457   0.301   5.669
 7483TIP3    H222414   3.531   0.370   5.556
 7484TIP3   OH222415   2.780   5.406   2.624
 7484TIP3    H122416   2.800   5.474   2.688
 7484TIP3    H222417   2.773   5.453   2.541
 7485TIP3   OH222418   7.111   3.186   3.631
 7485TIP3    H122419   7.050   3.242   3.583
 7485TIP3    H222420   7.087   3.097   3.603
 7486TIP3   OH222421   1.152   0.080   2.065
 7486TIP3    H122422   1.129  -0.004   2.026
 7486TIP3    H222423   1.069   0.128   2.069
 7487TIP3   OH222424   0.719   0.049   0.696
 7487TIP3    H122425   0.755   0.027   0.610
 7487TIP3    H222426   0.685   0.138   0.685
 7488TIP3   OH222427   7.022   5.816   0.641
 7488TIP3    H122428   6.987   5.730   0.663
 7488TIP3    H222429   7.065   5.803   0.556
 7489TIP3   OH222430   4.913   0.049   1.345
 7489TIP3    H122431   4.921  -0.018   1.277
 7489TIP3    H222432   4.914   0.132   1.297
 7490TIP3   OH222433   0.035   3.309   5.304
 7490TIP3    H122434   0.109   3.260   5.267
 7490TIP3    H222435  -0.011   3.345   5.228
 7491TIP3   OH222436   2.593   5.437   2.947
 7491TIP3    H122437   2.521   5.389   2.986
 7491TIP3    H222438   2.554   5.481   2.871
 7492TIP3   OH222439   2.635   1.901   2.884
 7492TIP3    H122440   2.650   1.808   2.866
 7492TIP3    H222441   2.673   1.946   2.809
 7493TIP3   OH222442   3.481   2.015   2.497
 7493TIP3    H122443   3.468   1.968   2.579
 7493TIP3    H222444   3.495   1.946   2.432
 7494TIP3   OH222445   0.786   1.115   3.284
 7494TIP3    H122446   0.797   1.139   3.376
 7494TIP3    H222447   0.691   1.121   3.268
 7495TIP3   OH222448   2.063   2.951   4.086
 7495TIP3    H122449   1.970   2.929   4.075
 7495TIP3    H222450   2.105   2.921   4.006
 7496TIP3   OH222451   5.524   6.543   3.086
 7496TIP3    H122452   5.490   6.527   3.174
 7496TIP3    H222453   5.547   6.456   3.053
 7497TIP3   OH222454   3.514   3.873   1.215
 7497TIP3    H122455   3.487   3.954   1.258
 7497TIP3    H222456   3.539   3.900   1.126
 7498TIP3   OH222457   7.206   1.966   1.994
 7498TIP3    H122458   7.189   1.945   1.902
 7498TIP3    H222459   7.130   2.018   2.021
 7499TIP3   OH222460   6.923   4.629   1.063
 7499TIP3    H122461   6.926   4.592   0.975
 7499TIP3    H222462   6.921   4.723   1.049
 7500TIP3   OH222463   4.346   4.557   3.713
 7500TIP3    H122464   4.256   4.565   3.743
 7500TIP3    H222465   4.384   4.644   3.727
 7501TIP3   OH222466   4.009   3.261   3.118
 7501TIP3    H122467   3.985   3.300   3.034
 7501TIP3    H222468   4.047   3.176   3.096
 7502TIP3   OH222469   6.079   0.364   4.668
 7502TIP3    H122470   6.047   0.407   4.589
 7502TIP3    H222471   6.000   0.344   4.718
 7503TIP3   OH222472   5.179   2.721   1.812
 7503TIP3    H122473   5.152   2.634   1.842
 7503TIP3    H222474   5.256   2.743   1.865
 7504TIP3   OH222475   0.995   3.548   2.699
 7504TIP3    H122476   0.913   3.578   2.739
 7504TIP3    H222477   0.982   3.563   2.606
 7505TIP3   OH222478   6.355   3.286   4.750
 7505TIP3    H122479   6.363   3.295   4.845
 7505TIP3    H222480   6.322   3.370   4.720
 7506TIP3   OH222481   0.880   0.350   4.732
 7506TIP3    H122482   0.811   0.313   4.677
 7506TIP3    H222483   0.934   0.275   4.757
 7507TIP3   OH222484   3.844   2.276   0.468
 7507TIP3    H122485   3.760   2.319   0.455
 7507TIP3    H222486   3.834   2.226   0.549
 7508TIP3   OH222487   5.699   3.965   0.259
 7508TIP3    H122488   5.645   3.972   0.180
 7508TIP3    H222489   5.724   4.056   0.278
 7509TIP3   OH222490   3.269   0.181   0.534
 7509TIP3    H122491   3.260   0.105   0.477
 7509TIP3    H222492   3.184   0.188   0.579
 7510TIP3   OH222493   6.972   1.352   3.731
 7510TIP3    H122494   7.047   1.401   3.698
 7510TIP3    H222495   6.987   1.344   3.825
 7511TIP3   OH222496   0.781   1.044   2.995
 7511TIP3    H122497   0.812   0.972   3.049
 7511TIP3    H222498   0.820   1.122   3.035
 7512TIP3   OH222499   4.727   4.863   5.545
 7512TIP3    H122500   4.726   4.942   5.599
 7512TIP3    H222501   4.780   4.886   5.469
 7513TIP3   OH222502   5.894   4.724   2.674
 7513TIP3    H122503   5.818   4.759   2.629
 7513TIP3    H222504   5.864   4.641   2.712
 7514TIP3   OH222505   4.115   3.282   0.910
 7514TIP3    H122506   4.107   3.243   0.997
 7514TIP3    H222507   4.201   3.324   0.911
 7515TIP3   OH222508   6.959   1.220   1.990
 7515TIP3    H122509   7.011   1.254   1.917
 7515TIP3    H222510   7.013   1.151   2.028
 7516TIP3   OH222511   5.202   6.312   4.314
 7516TIP3    H122512   5.167   6.340   4.229
 7516TIP3    H222513   5.126   6.312   4.372
 7517TIP3   OH222514   2.483   4.054   2.359
 7517TIP3    H122515   2.403   4.057   2.306
 7517TIP3    H222516   2.470   4.123   2.424
 7518TIP3   OH222517   5.606   5.972   1.321
 7518TIP3    H122518   5.586   6.050   1.372
 7518TIP3    H222519   5.686   5.938   1.359
 7519TIP3   OH222520   5.445   0.332   5.057
 7519TIP3    H122521   5.372   0.287   5.014
 7519TIP3    H222522   5.414   0.421   5.073
 7520TIP3   OH222523   1.596   3.171   1.856
 7520TIP3    H122524   1.528   3.124   1.807
 7520TIP3    H222525   1.678   3.132   1.826
 7521TIP3   OH222526   4.030   2.847   2.179
 7521TIP3    H122527   4.005   2.931   2.217
 7521TIP3    H222528   3.997   2.782   2.242
 7522TIP3   OH222529   0.059   2.447   0.380
 7522TIP3    H122530   0.121   2.430   0.451
 7522TIP3    H222531   0.107   2.503   0.318
 7523TIP3   OH222532   5.580   5.564   3.448
 7523TIP3    H122533   5.615   5.597   3.531
 7523TIP3    H222534   5.542   5.479   3.471
 7524TIP3   OH222535   5.619   0.049   4.220
 7524TIP3    H122536   5.701   0.000   4.229
 7524TIP3    H222537   5.619   0.078   4.129
 7525TIP3   OH222538   1.576   6.819   3.512
 7525TIP3    H122539   1.532   6.735   3.518
 7525TIP3    H222540   1.605   6.825   3.421
 7526TIP3   OH222541   1.746   2.190   1.236
 7526TIP3    H122542   1.719   2.272   1.195
 7526TIP3    H222543   1.664   2.143   1.252
 7527TIP3   OH222544   4.751   1.563   3.226
 7527TIP3    H122545   4.829   1.601   3.185
 7527TIP3    H222546   4.714   1.507   3.159
 7528TIP3   OH222547   5.262   3.925   1.958
 7528TIP3    H122548   5.173   3.891   1.967
 7528TIP3    H222549   5.253   4.001   1.900
 7529TIP3   OH222550   3.045   2.767   3.923
 7529TIP3    H122551   2.970   2.805   3.877
 7529TIP3    H222552   3.019   2.676   3.939
 7530TIP3   OH222553   0.959   5.919   4.452
 7530TIP3    H122554   0.908   5.839   4.467
 7530TIP3    H222555   1.039   5.888   4.410
 7531TIP3   OH222556   6.389   0.381   5.820
 7531TIP3    H122557   6.387   0.467   5.777
 7531TIP3    H222558   6.299   0.349   5.813
 7532TIP3   OH222559   6.967   1.478   3.046
 7532TIP3    H122560   7.058   1.501   3.030
 7532TIP3    H222561   6.944   1.526   3.126
 7533TIP3   OH222562   5.073   0.183   3.789
 7533TIP3    H122563   5.078   0.197   3.694
 7533TIP3    H222564   4.982   0.156   3.804
 7534TIP3   OH222565   0.067   6.345   0.787
 7534TIP3    H122566   0.080   6.436   0.811
 7534TIP3    H222567  -0.021   6.324   0.818
 7535TIP3   OH222568   0.409   2.260   2.443
 7535TIP3    H122569   0.492   2.300   2.417
 7535TIP3    H222570   0.361   2.248   2.361
 7536TIP3   OH222571   2.534   4.553   4.753
 7536TIP3    H122572   2.541   4.462   4.725
 7536TIP3    H222573   2.498   4.599   4.677
 7537TIP3   OH222574   2.600   6.137   3.821
 7537TIP3    H122575   2.655   6.154   3.745
 7537TIP3    H222576   2.511   6.130   3.785
 7538TIP3   OH222577   1.778   3.013   2.548
 7538TIP3    H122578   1.727   3.085   2.585
 7538TIP3    H222579   1.832   2.982   2.620
 7539TIP3   OH222580   3.556   6.325   4.706
 7539TIP3    H122581   3.577   6.234   4.725
 7539TIP3    H222582   3.540   6.365   4.791
 7540TIP3   OH222583   5.640   3.095   3.383
 7540TIP3    H122584   5.552   3.101   3.420
 7540TIP3    H222585   5.632   3.132   3.295
 7541TIP3   OH222586   0.409   0.373   0.856
 7541TIP3    H122587   0.319   0.366   0.886
 7541TIP3    H222588   0.415   0.463   0.821
 7542TIP3   OH222589   0.844   3.315   5.034
 7542TIP3    H122590   0.896   3.261   5.093
 7542TIP3    H222591   0.820   3.255   4.962
 7543TIP3   OH222592   1.764   4.192   2.240
 7543TIP3    H122593   1.673   4.167   2.255
 7543TIP3    H222594   1.766   4.222   2.149
 7544TIP3   OH222595   4.763   1.083   1.926
 7544TIP3    H122596   4.798   1.112   1.842
 7544TIP3    H222597   4.689   1.142   1.942
 7545TIP3   OH222598   2.452   2.728   0.210
 7545TIP3    H122599   2.459   2.805   0.154
 7545TIP3    H222600   2.532   2.728   0.262
 7546TIP3   OH222601   4.973   5.790   2.095
 7546TIP3    H122602   4.900   5.735   2.068
 7546TIP3    H222603   4.979   5.857   2.027
 7547TIP3   OH222604   1.184   6.300   1.358
 7547TIP3    H122605   1.170   6.234   1.426
 7547TIP3    H222606   1.279   6.309   1.353
 7548TIP3   OH222607   2.850   1.240   5.776
 7548TIP3    H122608   2.821   1.251   5.686
 7548TIP3    H222609   2.894   1.322   5.798
 7549TIP3   OH222610   6.795   1.088   1.167
 7549TIP3    H122611   6.821   0.996   1.177
 7549TIP3    H222612   6.742   1.106   1.245
 7550TIP3   OH222613   4.405   1.455   3.336
 7550TIP3    H122614   4.353   1.534   3.350
 7550TIP3    H222615   4.464   1.451   3.411
 7551TIP3   OH222616   0.084   0.951   0.854
 7551TIP3    H122617   0.046   0.985   0.773
 7551TIP3    H222618   0.011   0.951   0.916
 7552TIP3   OH222619   3.407   0.861   3.998
 7552TIP3    H122620   3.410   0.864   4.094
 7552TIP3    H222621   3.330   0.807   3.979
 7553TIP3   OH222622   1.465   2.296   2.206
 7553TIP3    H122623   1.532   2.232   2.232
 7553TIP3    H222624   1.382   2.251   2.221
 7554TIP3   OH222625   6.453   2.605   0.674
 7554TIP3    H122626   6.430   2.650   0.593
 7554TIP3    H222627   6.506   2.530   0.645
 7555TIP3   OH222628   2.518   6.566   1.455
 7555TIP3    H122629   2.528   6.510   1.378
 7555TIP3    H222630   2.500   6.653   1.419
 7556TIP3   OH222631   0.416   1.061   2.122
 7556TIP3    H122632   0.510   1.045   2.117
 7556TIP3    H222633   0.386   1.007   2.196
 7557TIP3   OH222634   1.569   0.898   4.796
 7557TIP3    H122635   1.569   0.841   4.720
 7557TIP3    H222636   1.482   0.937   4.797
 7558TIP3   OH222637   0.226   2.424   0.592
 7558TIP3    H122638   0.241   2.409   0.685
 7558TIP3    H222639   0.237   2.338   0.551
 7559TIP3   OH222640   5.503   4.992   1.346
 7559TIP3    H122641   5.509   5.087   1.347
 7559TIP3    H222642   5.576   4.963   1.402
 7560TIP3   OH222643   1.661   4.615   0.492
 7560TIP3    H122644   1.669   4.708   0.512
 7560TIP3    H222645   1.629   4.576   0.574
 7561TIP3   OH222646   2.663   0.664   4.478
 7561TIP3    H122647   2.690   0.686   4.567
 7561TIP3    H222648   2.628   0.576   4.484
 7562TIP3   OH222649   2.417   3.694   4.613
 7562TIP3    H122650   2.402   3.602   4.632
 7562TIP3    H222651   2.422   3.699   4.518
 7563TIP3   OH222652   2.498   4.804   4.880
 7563TIP3    H122653   2.481   4.868   4.811
 7563TIP3    H222654   2.496   4.719   4.836
 7564TIP3   OH222655   3.356   5.449   1.071
 7564TIP3    H122656   3.311   5.527   1.102
 7564TIP3    H222657   3.336   5.382   1.136
 7565TIP3   OH222658   4.396   1.226   3.148
 7565TIP3    H122659   4.382   1.301   3.206
 7565TIP3    H222660   4.310   1.185   3.141
 7566TIP3   OH222661   3.184   4.385   1.276
 7566TIP3    H122662   3.124   4.336   1.332
 7566TIP3    H222663   3.223   4.319   1.219
 7567TIP3   OH222664   6.217   3.913   4.607
 7567TIP3    H122665   6.276   3.901   4.533
 7567TIP3    H222666   6.131   3.887   4.574
 7568TIP3   OH222667   5.510   0.255   3.767
 7568TIP3    H122668   5.543   0.165   3.779
 7568TIP3    H222669   5.582   0.301   3.724
 7569TIP3   OH222670   5.521   2.507   5.423
 7569TIP3    H122671   5.599   2.558   5.404
 7569TIP3    H222672   5.551   2.416   5.421
 7570TIP3   OH222673   1.461   3.044   0.731
 7570TIP3    H122674   1.500   2.962   0.760
 7570TIP3    H222675   1.386   3.057   0.789
 7571TIP3   OH222676   2.723   0.471   1.253
 7571TIP3    H122677   2.739   0.377   1.258
 7571TIP3    H222678   2.769   0.499   1.173
 7572TIP3   OH222679   2.653   4.856   1.843
 7572TIP3    H122680   2.684   4.930   1.895
 7572TIP3    H222681   2.622   4.793   1.907
 7573TIP3   OH222682   4.614   4.471   3.297
 7573TIP3    H122683   4.572   4.541   3.247
 7573TIP3    H222684   4.546   4.441   3.357
 7574TIP3   OH222685   1.211   2.547   4.892
 7574TIP3    H122686   1.277   2.510   4.832
 7574TIP3    H222687   1.222   2.641   4.883
 7575TIP3   OH222688   3.183   0.438   5.282
 7575TIP3    H122689   3.105   0.393   5.314
 7575TIP3    H222690   3.157   0.471   5.195
 7576TIP3   OH222691   1.759   4.883   5.660
 7576TIP3    H122692   1.766   4.788   5.649
 7576TIP3    H222693   1.847   4.916   5.638
 7577TIP3   OH222694   6.868   6.295   2.649
 7577TIP3    H122695   6.852   6.211   2.607
 7577TIP3    H222696   6.955   6.286   2.688
 7578TIP3   OH222697   5.633   2.602   1.489
 7578TIP3    H122698   5.637   2.560   1.404
 7578TIP3    H222699   5.602   2.691   1.471
 7579TIP3   OH222700   7.100   5.016   5.577
 7579TIP3    H122701   7.112   5.108   5.553
 7579TIP3    H222702   7.069   5.018   5.667
 7580TIP3   OH222703   7.108   3.239   2.720
 7580TIP3    H122704   7.193   3.196   2.710
 7580TIP3    H222705   7.095   3.286   2.637
 7581TIP3   OH222706   0.881   5.377   2.347
 7581TIP3    H122707   0.969   5.340   2.340
 7581TIP3    H222708   0.831   5.311   2.395
 7582TIP3   OH222709   3.313   2.339   4.294
 7582TIP3    H122710   3.227   2.333   4.335
 7582TIP3    H222711   3.360   2.403   4.347
 7583TIP3   OH222712   6.929   3.822   4.716
 7583TIP3    H122713   6.929   3.727   4.720
 7583TIP3    H222714   6.836   3.846   4.711
 7584TIP3   OH222715   6.871   0.185   4.422
 7584TIP3    H122716   6.933   0.114   4.436
 7584TIP3    H222717   6.821   0.159   4.344
 7585TIP3   OH222718   1.482   6.318   2.911
 7585TIP3    H122719   1.432   6.251   2.864
 7585TIP3    H222720   1.435   6.399   2.894
 7586TIP3   OH222721   6.505   3.393   0.690
 7586TIP3    H122722   6.578   3.331   0.679
 7586TIP3    H222723   6.487   3.392   0.784
 7587TIP3   OH222724   3.339   6.346   0.813
 7587TIP3    H122725   3.400   6.402   0.860
 7587TIP3    H222726   3.308   6.401   0.740
 7588TIP3   OH222727   4.386   3.295   3.631
 7588TIP3    H122728   4.387   3.356   3.705
 7588TIP3    H222729   4.294   3.292   3.604
 7589TIP3   OH222730   5.911   2.534   5.430
 7589TIP3    H122731   5.981   2.559   5.490
 7589TIP3    H222732   5.844   2.602   5.442
 7590TIP3   OH222733   2.248   0.155   5.356
 7590TIP3    H122734   2.219   0.242   5.382
 7590TIP3    H222735   2.263   0.163   5.261
 7591TIP3   OH222736   3.061   0.249   3.442
 7591TIP3    H122737   3.130   0.304   3.479
 7591TIP3    H222738   2.996   0.241   3.512
 7592TIP3   OH222739   6.733   0.717   1.901
 7592TIP3    H122740   6.789   0.646   1.869
 7592TIP3    H222741   6.723   0.700   1.995
 7593TIP3   OH222742   1.912   0.322   3.680
 7593TIP3    H122743   1.850   0.296   3.612
 7593TIP3    H222744   1.946   0.239   3.715
 7594TIP3   OH222745   6.016   5.553   2.056
 7594TIP3    H122746   5.948   5.519   1.998
 7594TIP3    H222747   6.050   5.630   2.010
 7595TIP3   OH222748   5.127   4.258   1.456
 7595TIP3    H122749   5.053   4.319   1.455
 7595TIP3    H222750   5.193   4.299   1.401
 7596TIP3   OH222751   5.124   4.352   1.963
 7596TIP3    H122752   5.067   4.358   1.886
 7596TIP3    H222753   5.111   4.263   1.995
 7597TIP3   OH222754   5.045   5.417   2.100
 7597TIP3    H122755   4.971   5.477   2.112
 7597TIP3    H222756   5.089   5.448   2.021
 7598TIP3   OH222757   6.120   0.345   3.381
 7598TIP3    H122758   6.195   0.392   3.347
 7598TIP3    H222759   6.097   0.282   3.313
 7599TIP3   OH222760   1.487   4.894   4.560
 7599TIP3    H122761   1.403   4.851   4.544
 7599TIP3    H222762   1.495   4.957   4.488
 7600TIP3   OH222763   2.147   5.814   4.370
 7600TIP3    H122764   2.076   5.823   4.307
 7600TIP3    H222765   2.165   5.904   4.398
 7601TIP3   OH222766   0.844   5.724   2.037
 7601TIP3    H122767   0.929   5.720   2.081
 7601TIP3    H222768   0.856   5.789   1.968
 7602TIP3   OH222769   6.321   1.875   2.193
 7602TIP3    H122770   6.364   1.803   2.239
 7602TIP3    H222771   6.256   1.908   2.256
 7603TIP3   OH222772   6.550   4.588   4.857
 7603TIP3    H122773   6.526   4.572   4.766
 7603TIP3    H222774   6.586   4.677   4.857
 7604TIP3   OH222775   3.620   5.618   2.916
 7604TIP3    H122776   3.555   5.630   2.847
 7604TIP3    H222777   3.598   5.533   2.955
 7605TIP3   OH222778   7.164   5.379   3.118
 7605TIP3    H122779   7.076   5.411   3.137
 7605TIP3    H222780   7.157   5.284   3.126
 7606TIP3   OH222781   1.020   5.050   1.006
 7606TIP3    H122782   0.924   5.048   1.010
 7606TIP3    H222783   1.048   4.995   1.079
 7607TIP3   OH222784   4.796   3.774   4.993
 7607TIP3    H122785   4.738   3.704   4.964
 7607TIP3    H222786   4.780   3.846   4.931
 7608TIP3   OH222787   5.303   2.386   0.730
 7608TIP3    H122788   5.381   2.340   0.699
 7608TIP3    H222789   5.313   2.476   0.699
 7609TIP3   OH222790   2.045   1.700   1.976
 7609TIP3    H122791   2.054   1.750   2.057
 7609TIP3    H222792   2.063   1.763   1.906
 7610TIP3   OH222793   6.727   5.678   0.418
 7610TIP3    H122794   6.794   5.663   0.351
 7610TIP3    H222795   6.650   5.632   0.386
 7611TIP3   OH222796   0.430   0.766   2.306
 7611TIP3    H122797   0.449   0.696   2.367
 7611TIP3    H222798   0.401   0.839   2.361
 7612TIP3   OH222799   3.007   6.131   3.334
 7612TIP3    H122800   3.023   6.046   3.375
 7612TIP3    H222801   2.913   6.133   3.317
 7613TIP3   OH222802   2.670   5.755   0.548
 7613TIP3    H122803   2.616   5.830   0.572
 7613TIP3    H222804   2.746   5.793   0.503
 7614TIP3   OH222805   0.261   2.893   0.190
 7614TIP3    H122806   0.250   2.819   0.250
 7614TIP3    H222807   0.232   2.969   0.239
 7615TIP3   OH222808   6.004   5.574   5.097
 7615TIP3    H122809   6.024   5.504   5.035
 7615TIP3    H222810   6.088   5.616   5.114
 7616TIP3   OH222811   1.586   6.346   1.559
 7616TIP3    H122812   1.634   6.266   1.540
 7616TIP3    H222813   1.547   6.331   1.645
 7617TIP3   OH222814   6.826   4.633   1.463
 7617TIP3    H122815   6.776   4.710   1.436
 7617TIP3    H222816   6.837   4.581   1.384
 7618TIP3   OH222817   0.069   1.950   1.112
 7618TIP3    H122818   0.049   2.044   1.105
 7618TIP3    H222819   0.012   1.919   1.182
 7619TIP3   OH222820   3.875   4.368   1.356
 7619TIP3    H122821   3.893   4.294   1.298
 7619TIP3    H222822   3.818   4.331   1.424
 7620TIP3   OH222823   4.128   3.505   4.529
 7620TIP3    H122824   4.132   3.509   4.625
 7620TIP3    H222825   4.101   3.593   4.503
 7621TIP3   OH222826   5.241   3.339   1.841
 7621TIP3    H122827   5.208   3.254   1.869
 7621TIP3    H222828   5.307   3.318   1.775
 7622TIP3   OH222829   5.874   2.189   0.432
 7622TIP3    H122830   5.895   2.115   0.490
 7622TIP3    H222831   5.832   2.253   0.490
 7623TIP3   OH222832   1.760   3.623   3.481
 7623TIP3    H122833   1.798   3.547   3.523
 7623TIP3    H222834   1.721   3.674   3.552
 7624TIP3   OH222835   2.188   1.317   4.113
 7624TIP3    H122836   2.235   1.242   4.149
 7624TIP3    H222837   2.095   1.293   4.118
 7625TIP3   OH222838   1.829   0.462   2.165
 7625TIP3    H122839   1.861   0.401   2.231
 7625TIP3    H222840   1.862   0.428   2.082
 7626TIP3   OH222841   5.235   1.298   5.529
 7626TIP3    H122842   5.255   1.282   5.437
 7626TIP3    H222843   5.231   1.394   5.536
 7627TIP3   OH222844   0.928   4.851   5.306
 7627TIP3    H122845   0.903   4.763   5.332
 7627TIP3    H222846   1.023   4.853   5.316
 7628TIP3   OH222847   3.456   5.697   2.680
 7628TIP3    H122848   3.407   5.764   2.729
 7628TIP3    H222849   3.398   5.675   2.607
 7629TIP3   OH222850   4.208   5.503   4.884
 7629TIP3    H122851   4.153   5.542   4.952
 7629TIP3    H222852   4.242   5.579   4.836
 7630TIP3   OH222853   1.962   1.843   4.446
 7630TIP3    H122854   1.986   1.776   4.382
 7630TIP3    H222855   1.958   1.796   4.530
 7631TIP3   OH222856   0.716   2.439   5.877
 7631TIP3    H122857   0.642   2.434   5.818
 7631TIP3    H222858   0.695   2.378   5.948
 7632TIP3   OH222859   4.283   1.831   3.908
 7632TIP3    H122860   4.362   1.778   3.896
 7632TIP3    H222861   4.314   1.921   3.899
 7633TIP3   OH222862   6.864   5.892   0.867
 7633TIP3    H122863   6.780   5.860   0.836
 7633TIP3    H222864   6.927   5.862   0.801
 7634TIP3   OH222865   4.347   2.743   0.558
 7634TIP3    H122866   4.393   2.668   0.596
 7634TIP3    H222867   4.388   2.819   0.598
 7635TIP3   OH222868   1.668   6.747   0.528
 7635TIP3    H122869   1.762   6.765   0.522
 7635TIP3    H222870   1.629   6.828   0.561
 7636TIP3   OH222871  -0.007   0.763   5.825
 7636TIP3    H122872  -0.002   0.843   5.876
 7636TIP3    H222873   0.084   0.734   5.815
 7637TIP3   OH222874   0.472   6.465   5.575
 7637TIP3    H122875   0.546   6.482   5.517
 7637TIP3    H222876   0.401   6.518   5.538
 7638TIP3   OH222877   7.144   3.645   0.124
 7638TIP3    H122878   7.124   3.589   0.049
 7638TIP3    H222879   7.096   3.726   0.107
 7639TIP3   OH222880   3.694   2.876   1.934
 7639TIP3    H122881   3.722   2.854   1.845
 7639TIP3    H222882   3.600   2.896   1.925
 7640TIP3   OH222883   6.756   6.663   5.706
 7640TIP3    H122884   6.719   6.670   5.618
 7640TIP3    H222885   6.719   6.582   5.741
 7641TIP3   OH222886   3.284   0.727   0.640
 7641TIP3    H122887   3.345   0.782   0.591
 7641TIP3    H222888   3.294   0.640   0.600
 7642TIP3   OH222889   0.038   4.961   5.180
 7642TIP3    H122890   0.059   5.054   5.188
 7642TIP3    H222891   0.037   4.929   5.271
 7643TIP3   OH222892   1.000   4.289   3.783
 7643TIP3    H122893   1.094   4.273   3.790
 7643TIP3    H222894   0.981   4.278   3.689
 7644TIP3   OH222895   1.721   4.858   1.795
 7644TIP3    H122896   1.668   4.792   1.841
 7644TIP3    H222897   1.713   4.834   1.702
 7645TIP3   OH222898   1.140   3.313   4.385
 7645TIP3    H122899   1.148   3.408   4.378
 7645TIP3    H222900   1.077   3.290   4.317
 7646TIP3   OH222901   0.318   5.979   0.642
 7646TIP3    H122902   0.333   6.069   0.672
 7646TIP3    H222903   0.241   5.985   0.586
 7647TIP3   OH222904   3.995   5.131   3.155
 7647TIP3    H122905   4.016   5.039   3.139
 7647TIP3    H222906   3.900   5.133   3.165
 7648TIP3   OH222907   6.639   6.681   1.253
 7648TIP3    H122908   6.700   6.611   1.275
 7648TIP3    H222909   6.634   6.733   1.334
 7649TIP3   OH222910   4.646   0.245   3.975
 7649TIP3    H122911   4.687   0.184   3.913
 7649TIP3    H222912   4.555   0.250   3.948
 7650TIP3   OH222913   5.784   6.086   0.121
 7650TIP3    H122914   5.730   6.014   0.153
 7650TIP3    H222915   5.872   6.049   0.111
 7651TIP3   OH222916   4.683   6.251   2.966
 7651TIP3    H122917   4.756   6.296   3.009
 7651TIP3    H222918   4.604   6.291   3.005
 7652TIP3   OH222919   4.483   2.827   4.201
 7652TIP3    H122920   4.425   2.886   4.249
 7652TIP3    H222921   4.569   2.870   4.205
 7653TIP3   OH222922   7.060   1.500   5.535
 7653TIP3    H122923   7.077   1.589   5.504
 7653TIP3    H222924   6.973   1.505   5.575
 7654TIP3   OH222925   1.098   2.325   3.690
 7654TIP3    H122926   1.177   2.271   3.699
 7654TIP3    H222927   1.132   2.413   3.669
 7655TIP3   OH222928   1.077   0.755   2.803
 7655TIP3    H122929   1.160   0.723   2.767
 7655TIP3    H222930   1.099   0.787   2.890
 7656TIP3   OH222931   5.569   6.283   3.003
 7656TIP3    H122932   5.605   6.221   2.940
 7656TIP3    H222933   5.497   6.237   3.044
 7657TIP3   OH222934   3.958   6.573   4.635
 7657TIP3    H122935   3.926   6.528   4.557
 7657TIP3    H222936   3.879   6.606   4.678
 7658TIP3   OH222937   4.166   2.969   4.900
 7658TIP3    H122938   4.203   2.943   4.985
 7658TIP3    H222939   4.172   2.890   4.846
 7659TIP3   OH222940   4.321   0.512   4.768
 7659TIP3    H122941   4.245   0.541   4.717
 7659TIP3    H222942   4.374   0.462   4.706
 7660TIP3   OH222943   4.974   0.270   2.878
 7660TIP3    H122944   5.023   0.327   2.818
 7660TIP3    H222945   4.893   0.250   2.831
 7661TIP3   OH222946   5.087   6.572   2.768
 7661TIP3    H122947   5.172   6.592   2.808
 7661TIP3    H222948   5.050   6.657   2.746
 7662TIP3   OH222949   5.572   6.719   1.159
 7662TIP3    H122950   5.568   6.685   1.070
 7662TIP3    H222951   5.562   6.642   1.215
 7663TIP3   OH222952   2.876   5.958   0.882
 7663TIP3    H122953   2.854   5.872   0.846
 7663TIP3    H222954   2.959   5.945   0.927
 7664TIP3   OH222955   2.318   6.515   0.451
 7664TIP3    H122956   2.322   6.552   0.363
 7664TIP3    H222957   2.293   6.589   0.507
 7665TIP3   OH222958   5.067   0.129   0.790
 7665TIP3    H122959   5.047   0.113   0.882
 7665TIP3    H222960   5.061   0.043   0.749
 7666TIP3   OH222961   1.514   4.909   1.204
 7666TIP3    H122962   1.517   4.993   1.248
 7666TIP3    H222963   1.500   4.930   1.111
 7667TIP3   OH222964   4.458   3.246   2.031
 7667TIP3    H122965   4.411   3.186   1.974
 7667TIP3    H222966   4.433   3.333   1.999
 7668TIP3   OH222967   5.224   3.902   3.983
 7668TIP3    H122968   5.184   3.849   4.052
 7668TIP3    H222969   5.294   3.847   3.948
 7669TIP3   OH222970   1.189   4.172   0.441
 7669TIP3    H122971   1.231   4.087   0.446
 7669TIP3    H222972   1.099   4.153   0.415
 7670TIP3   OH222973   1.124   1.679   0.604
 7670TIP3    H122974   1.134   1.766   0.567
 7670TIP3    H222975   1.206   1.635   0.583
 7671TIP3   OH222976   2.157   1.299   5.620
 7671TIP3    H122977   2.251   1.285   5.614
 7671TIP3    H222978   2.147   1.385   5.661
 7672TIP3   OH222979   7.017   2.300   0.350
 7672TIP3    H122980   6.974   2.296   0.435
 7672TIP3    H222981   7.105   2.331   0.369
 7673TIP3   OH222982   3.997   4.530   2.055
 7673TIP3    H122983   3.932   4.583   2.008
 7673TIP3    H222984   4.065   4.513   1.991
 7674TIP3   OH222985   3.903   2.487   4.781
 7674TIP3    H122986   3.942   2.428   4.716
 7674TIP3    H222987   3.926   2.448   4.865
 7675TIP3   OH222988   6.137   1.575   1.624
 7675TIP3    H122989   6.070   1.614   1.568
 7675TIP3    H222990   6.199   1.646   1.640
 7676TIP3   OH222991   0.395   1.976   1.277
 7676TIP3    H122992   0.454   1.935   1.341
 7676TIP3    H222993   0.441   1.967   1.193
 7677TIP3   OH222994   3.241   2.013   5.307
 7677TIP3    H122995   3.218   2.009   5.400
 7677TIP3    H222996   3.334   2.037   5.306
 7678TIP3   OH222997   4.766   3.511   2.780
 7678TIP3    H122998   4.766   3.485   2.872
 7678TIP3    H222999   4.782   3.430   2.732
 7679TIP3   OH223000   7.100   1.522   1.874
 7679TIP3    H123001   7.016   1.558   1.847
 7679TIP3    H223002   7.118   1.564   1.958
 7680TIP3   OH223003   5.377   4.777   2.133
 7680TIP3    H123004   5.360   4.871   2.133
 7680TIP3    H223005   5.431   4.763   2.055
 7681TIP3   OH223006   0.345   2.205   3.150
 7681TIP3    H123007   0.283   2.263   3.194
 7681TIP3    H223008   0.309   2.117   3.162
 7682TIP3   OH223009   0.487   4.599   0.275
 7682TIP3    H123010   0.564   4.631   0.226
 7682TIP3    H223011   0.445   4.538   0.215
 7683TIP3   OH223012   6.969   6.022   5.771
 7683TIP3    H123013   6.891   6.013   5.717
 7683TIP3    H223014   7.023   5.945   5.749
 7684TIP3   OH223015   6.804   0.126   0.295
 7684TIP3    H123016   6.857   0.183   0.238
 7684TIP3    H223017   6.860   0.110   0.371
 7685TIP3   OH223018   0.970   2.652   1.066
 7685TIP3    H123019   0.986   2.598   0.989
 7685TIP3    H223020   1.040   2.628   1.127
 7686TIP3   OH223021   2.708   4.428   1.679
 7686TIP3    H123022   2.664   4.404   1.761
 7686TIP3    H223023   2.658   4.503   1.646
 7687TIP3   OH223024   3.862   0.503   5.411
 7687TIP3    H123025   3.909   0.457   5.480
 7687TIP3    H223026   3.931   0.545   5.359
 7688TIP3   OH223027   0.767   0.232   5.151
 7688TIP3    H123028   0.715   0.196   5.223
 7688TIP3    H223029   0.728   0.318   5.135
 7689TIP3   OH223030   1.224   4.477   0.916
 7689TIP3    H123031   1.192   4.483   1.006
 7689TIP3    H223032   1.302   4.421   0.923
 7690TIP3   OH223033   3.724   6.359   0.295
 7690TIP3    H123034   3.694   6.268   0.292
 7690TIP3    H223035   3.704   6.394   0.208
 7691TIP3   OH223036   2.690   3.688   0.869
 7691TIP3    H123037   2.719   3.721   0.954
 7691TIP3    H223038   2.652   3.764   0.826
 7692TIP3   OH223039   0.314   1.345   1.683
 7692TIP3    H123040   0.281   1.351   1.594
 7692TIP3    H223041   0.268   1.414   1.731
 7693TIP3   OH223042   7.047   5.464   1.209
 7693TIP3    H123043   7.140   5.442   1.207
 7693TIP3    H223044   7.002   5.379   1.207
 7694TIP3   OH223045   2.828   5.708   0.763
 7694TIP3    H123046   2.770   5.721   0.688
 7694TIP3    H223047   2.819   5.615   0.784
 7695TIP3   OH223048   1.945   0.959   4.542
 7695TIP3    H123049   2.019   0.983   4.487
 7695TIP3    H223050   1.904   1.042   4.565
 7696TIP3   OH223051   5.800   3.334   0.495
 7696TIP3    H123052   5.808   3.428   0.477
 7696TIP3    H223053   5.705   3.319   0.497
 7697TIP3   OH223054   4.310   4.299   2.870
 7697TIP3    H123055   4.284   4.333   2.785
 7697TIP3    H223056   4.375   4.360   2.903
 7698TIP3   OH223057   4.915   2.518   0.071
 7698TIP3    H123058   4.860   2.596   0.068
 7698TIP3    H223059   4.893   2.475   0.154
 7699TIP3   OH223060   1.853   6.482   3.051
 7699TIP3    H123061   1.820   6.500   3.140
 7699TIP3    H223062   1.875   6.389   3.052
 7700TIP3   OH223063   0.768   5.720   3.737
 7700TIP3    H123064   0.731   5.792   3.787
 7700TIP3    H223065   0.855   5.751   3.711
 7701TIP3   OH223066   2.883   3.496   5.307
 7701TIP3    H123067   2.902   3.472   5.216
 7701TIP3    H223068   2.835   3.421   5.342
 7702TIP3   OH223069   0.590   4.581   4.051
 7702TIP3    H123070   0.572   4.670   4.082
 7702TIP3    H223071   0.565   4.582   3.959
 7703TIP3   OH223072   4.977   0.579   0.430
 7703TIP3    H123073   4.986   0.674   0.434
 7703TIP3    H223074   5.057   0.550   0.387
 7704TIP3   OH223075   6.878   2.727   1.619
 7704TIP3    H123076   6.929   2.772   1.686
 7704TIP3    H223077   6.875   2.788   1.545
 7705TIP3   OH223078   0.503   1.672   4.225
 7705TIP3    H123079   0.460   1.594   4.258
 7705TIP3    H223080   0.586   1.640   4.190
 7706TIP3   OH223081   4.921   0.297   5.078
 7706TIP3    H123082   4.889   0.372   5.028
 7706TIP3    H223083   4.960   0.335   5.156
 7707TIP3   OH223084   4.153   1.511   4.668
 7707TIP3    H123085   4.077   1.460   4.639
 7707TIP3    H223086   4.228   1.465   4.632
 7708TIP3   OH223087   2.939   1.797   4.390
 7708TIP3    H123088   2.942   1.890   4.410
 7708TIP3    H223089   2.896   1.757   4.466
 7709TIP3   OH223090   1.838   5.625   4.359
 7709TIP3    H123091   1.858   5.713   4.330
 7709TIP3    H223092   1.766   5.596   4.302
 7710TIP3   OH223093   3.213   3.151   5.809
 7710TIP3    H123094   3.267   3.103   5.747
 7710TIP3    H223095   3.155   3.204   5.753
 7711TIP3   OH223096   2.402   5.651   2.772
 7711TIP3    H123097   2.378   5.622   2.683
 7711TIP3    H223098   2.319   5.679   2.811
 7712TIP3   OH223099   5.271   5.548   2.502
 7712TIP3    H123100   5.292   5.489   2.430
 7712TIP3    H223101   5.349   5.546   2.558
 7713TIP3   OH223102   4.240   1.460   1.735
 7713TIP3    H123103   4.278   1.548   1.732
 7713TIP3    H223104   4.311   1.402   1.707
 7714TIP3   OH223105   5.829   2.222   5.097
 7714TIP3    H123106   5.907   2.188   5.142
 7714TIP3    H223107   5.861   2.252   5.012
 7715TIP3   OH223108   0.488   1.562   5.433
 7715TIP3    H123109   0.537   1.616   5.495
 7715TIP3    H223110   0.552   1.536   5.367
 7716TIP3   OH223111   3.744   1.677   1.299
 7716TIP3    H123112   3.725   1.721   1.382
 7716TIP3    H223113   3.837   1.694   1.284
 7717TIP3   OH223114   0.702   5.977   5.334
 7717TIP3    H123115   0.650   6.030   5.395
 7717TIP3    H223116   0.663   5.890   5.338
 7718TIP3   OH223117   3.550   4.308   2.165
 7718TIP3    H123118   3.555   4.252   2.242
 7718TIP3    H223119   3.639   4.310   2.130
 7719TIP3   OH223120   2.833   1.355   0.490
 7719TIP3    H123121   2.751   1.398   0.466
 7719TIP3    H223122   2.857   1.394   0.574
 7720TIP3   OH223123   4.526   3.238   4.253
 7720TIP3    H123124   4.489   3.240   4.164
 7720TIP3    H223125   4.467   3.181   4.302
 7721TIP3   OH223126   3.248   0.506   4.639
 7721TIP3    H123127   3.294   0.512   4.555
 7721TIP3    H223128   3.158   0.532   4.620
 7722TIP3   OH223129   2.879   1.254   2.123
 7722TIP3    H123130   2.829   1.240   2.203
 7722TIP3    H223131   2.970   1.259   2.152
 7723TIP3   OH223132   3.598   5.637   5.266
 7723TIP3    H123133   3.512   5.619   5.229
 7723TIP3    H223134   3.650   5.560   5.243
 7724TIP3   OH223135   1.384   3.269   3.052
 7724TIP3    H123136   1.346   3.292   3.137
 7724TIP3    H223137   1.473   3.240   3.073
 7725TIP3   OH223138   6.261   1.263   2.151
 7725TIP3    H123139   6.194   1.227   2.209
 7725TIP3    H223140   6.233   1.352   2.133
 7726TIP3   OH223141   4.289   1.142   0.821
 7726TIP3    H123142   4.343   1.209   0.864
 7726TIP3    H223143   4.328   1.059   0.847
 7727TIP3   OH223144   4.710   1.353   4.590
 7727TIP3    H123145   4.731   1.446   4.583
 7727TIP3    H223146   4.737   1.316   4.506
 7728TIP3   OH223147   5.991   2.854   5.275
 7728TIP3    H123148   5.979   2.856   5.370
 7728TIP3    H223149   5.938   2.927   5.243
 7729TIP3   OH223150   2.265   4.418   5.677
 7729TIP3    H123151   2.314   4.479   5.622
 7729TIP3    H223152   2.241   4.470   5.754
 7730TIP3   OH223153   0.983   0.427   0.360
 7730TIP3    H123154   0.998   0.521   0.364
 7730TIP3    H223155   0.975   0.400   0.452
 7731TIP3   OH223156   4.441   5.884   3.490
 7731TIP3    H123157   4.503   5.895   3.418
 7731TIP3    H223158   4.417   5.973   3.514
 7732TIP3   OH223159   0.815   4.542   5.462
 7732TIP3    H123160   0.883   4.584   5.514
 7732TIP3    H223161   0.788   4.466   5.513
 7733TIP3   OH223162   6.265   3.554   5.049
 7733TIP3    H123163   6.344   3.582   5.003
 7733TIP3    H223164   6.201   3.623   5.031
 7734TIP3   OH223165   5.062   0.952   1.848
 7734TIP3    H123166   5.028   1.035   1.881
 7734TIP3    H223167   4.991   0.889   1.864
 7735TIP3   OH223168   6.887   4.037   1.747
 7735TIP3    H123169   6.858   4.071   1.663
 7735TIP3    H223170   6.974   4.001   1.730
 7736TIP3   OH223171   0.062   5.539   2.547
 7736TIP3    H123172   0.083   5.541   2.454
 7736TIP3    H223173   0.113   5.466   2.582
 7737TIP3   OH223174   1.357   2.766   1.043
 7737TIP3    H123175   1.328   2.845   0.997
 7737TIP3    H223176   1.303   2.762   1.122
 7738TIP3   OH223177   6.245   1.964   0.864
 7738TIP3    H123178   6.183   1.950   0.935
 7738TIP3    H223179   6.222   1.898   0.798
 7739TIP3   OH223180   7.141   4.900   4.135
 7739TIP3    H123181   7.202   4.863   4.199
 7739TIP3    H223182   7.109   4.980   4.176
 7740TIP3   OH223183   1.632   5.054   3.688
 7740TIP3    H123184   1.668   5.142   3.680
 7740TIP3    H223185   1.598   5.034   3.600
 7741TIP3   OH223186   4.344   6.136   2.395
 7741TIP3    H123187   4.278   6.201   2.369
 7741TIP3    H223188   4.400   6.126   2.318
 7742TIP3   OH223189   1.274   2.174   5.625
 7742TIP3    H123190   1.266   2.248   5.566
 7742TIP3    H223191   1.191   2.127   5.616
 7743TIP3   OH223192   5.226   4.123   1.777
 7743TIP3    H123193   5.243   4.159   1.690
 7743TIP3    H223194   5.130   4.124   1.785
 7744TIP3   OH223195   6.273   4.726   2.956
 7744TIP3    H123196   6.192   4.737   3.004
 7744TIP3    H223197   6.277   4.803   2.898
 7745TIP3   OH223198   4.327   0.460   4.339
 7745TIP3    H123199   4.405   0.510   4.313
 7745TIP3    H223200   4.295   0.422   4.258
 7746TIP3   OH223201   4.467   1.223   5.446
 7746TIP3    H123202   4.402   1.285   5.478
 7746TIP3    H223203   4.436   1.137   5.477
 7747TIP3   OH223204   6.606   1.887   2.741
 7747TIP3    H123205   6.651   1.804   2.732
 7747TIP3    H223206   6.564   1.900   2.655
 7748TIP3   OH223207   2.070   3.915   1.623
 7748TIP3    H123208   2.029   3.925   1.709
 7748TIP3    H223209   2.002   3.876   1.568
 7749TIP3   OH223210   5.653   0.958   1.941
 7749TIP3    H123211   5.615   0.973   2.028
 7749TIP3    H223212   5.732   0.908   1.958
 7750TIP3   OH223213   3.461   4.052   3.113
 7750TIP3    H123214   3.492   3.988   3.178
 7750TIP3    H223215   3.521   4.042   3.040
 7751TIP3   OH223216   5.391   6.289   4.817
 7751TIP3    H123217   5.364   6.288   4.725
 7751TIP3    H223218   5.472   6.238   4.819
 7752TIP3   OH223219   4.369   4.175   4.213
 7752TIP3    H123220   4.281   4.177   4.176
 7752TIP3    H223221   4.398   4.084   4.199
 7753TIP3   OH223222   5.883   1.295   3.399
 7753TIP3    H123223   5.853   1.323   3.313
 7753TIP3    H223224   5.902   1.202   3.389
 7754TIP3   OH223225   5.334   2.763   2.444
 7754TIP3    H123226   5.280   2.800   2.374
 7754TIP3    H223227   5.275   2.705   2.493
 7755TIP3   OH223228   4.508   0.533   0.879
 7755TIP3    H123229   4.456   0.553   0.957
 7755TIP3    H223230   4.443   0.516   0.810
 7756TIP3   OH223231   3.439   5.211   1.752
 7756TIP3    H123232   3.452   5.153   1.677
 7756TIP3    H223233   3.344   5.225   1.755
 7757TIP3   OH223234   3.443   5.642   1.317
 7757TIP3    H123235   3.493   5.607   1.243
 7757TIP3    H223236   3.394   5.715   1.281
 7758TIP3   OH223237   5.429   6.364   2.296
 7758TIP3    H123238   5.424   6.423   2.371
 7758TIP3    H223239   5.346   6.317   2.296
 7759TIP3   OH223240   7.029   0.896   4.162
 7759TIP3    H123241   7.043   0.990   4.154
 7759TIP3    H223242   6.966   0.887   4.233
 7760TIP3   OH223243   5.017   1.536   0.353
 7760TIP3    H123244   4.950   1.604   0.359
 7760TIP3    H223245   5.092   1.579   0.312
 7761TIP3   OH223246   3.366   1.274   4.997
 7761TIP3    H123247   3.279   1.285   5.036
 7761TIP3    H223248   3.423   1.332   5.049
 7762TIP3   OH223249   3.337   0.983   5.203
 7762TIP3    H123250   3.371   0.945   5.122
 7762TIP3    H223251   3.402   1.048   5.229
 7763TIP3   OH223252   4.167   5.636   3.689
 7763TIP3    H123253   4.137   5.724   3.711
 7763TIP3    H223254   4.087   5.587   3.670
 7764TIP3   OH223255   5.669   0.571   0.770
 7764TIP3    H123256   5.762   0.584   0.750
 7764TIP3    H223257   5.640   0.504   0.709
 7765TIP3   OH223258   2.178   2.489   0.525
 7765TIP3    H123259   2.176   2.430   0.450
 7765TIP3    H223260   2.245   2.453   0.583
 7766TIP3   OH223261   1.843   3.266   0.683
 7766TIP3    H123262   1.858   3.181   0.725
 7766TIP3    H223263   1.768   3.302   0.730
 7767TIP3   OH223264   5.979   2.401   2.761
 7767TIP3    H123265   5.925   2.344   2.815
 7767TIP3    H223266   6.009   2.469   2.821
 7768TIP3   OH223267   3.497   3.615   5.710
 7768TIP3    H123268   3.551   3.692   5.690
 7768TIP3    H223269   3.446   3.641   5.786
 7769TIP3   OH223270   4.324   5.542   0.597
 7769TIP3    H123271   4.337   5.484   0.521
 7769TIP3    H223272   4.316   5.630   0.559
 7770TIP3   OH223273   0.614   4.263   3.425
 7770TIP3    H123274   0.684   4.277   3.489
 7770TIP3    H223275   0.659   4.231   3.347
 7771TIP3   OH223276   2.535   4.871   2.462
 7771TIP3    H123277   2.461   4.854   2.520
 7771TIP3    H223278   2.495   4.906   2.383
 7772TIP3   OH223279   5.711   5.185   5.090
 7772TIP3    H123280   5.657   5.197   5.012
 7772TIP3    H223281   5.652   5.202   5.163
 7773TIP3   OH223282   7.164   4.664   2.373
 7773TIP3    H123283   7.191   4.585   2.419
 7773TIP3    H223284   7.187   4.735   2.433
 7774TIP3   OH223285   1.422   3.588   3.604
 7774TIP3    H123286   1.501   3.554   3.646
 7774TIP3    H223287   1.354   3.524   3.626
 7775TIP3   OH223288   3.736   1.816   4.366
 7775TIP3    H123289   3.741   1.751   4.297
 7775TIP3    H223290   3.666   1.786   4.423
 7776TIP3   OH223291   1.806   1.121   3.573
 7776TIP3    H123292   1.807   1.027   3.552
 7776TIP3    H223293   1.763   1.126   3.658
 7777TIP3   OH223294   7.134   6.701   3.920
 7777TIP3    H123295   7.203   6.646   3.883
 7777TIP3    H223296   7.150   6.787   3.881
 7778TIP3   OH223297   1.495   6.472   4.396
 7778TIP3    H123298   1.542   6.406   4.448
 7778TIP3    H223299   1.428   6.422   4.350
 7779TIP3   OH223300   3.702   0.086   4.506
 7779TIP3    H123301   3.773   0.069   4.568
 7779TIP3    H223302   3.735   0.054   4.422
 7780TIP3   OH223303   1.483   1.776   1.122
 7780TIP3    H123304   1.501   1.768   1.216
 7780TIP3    H223305   1.553   1.727   1.079
 7781TIP3   OH223306   2.472   0.001   2.659
 7781TIP3    H123307   2.463   0.055   2.580
 7781TIP3    H223308   2.417  -0.076   2.642
 7782TIP3   OH223309   0.221   5.899   4.683
 7782TIP3    H123310   0.207   5.988   4.651
 7782TIP3    H223311   0.221   5.908   4.778
 7783TIP3   OH223312   1.743   1.682   3.170
 7783TIP3    H123313   1.684   1.703   3.242
 7783TIP3    H223314   1.689   1.689   3.091
 7784TIP3   OH223315   4.718   6.186   3.594
 7784TIP3    H123316   4.687   6.144   3.674
 7784TIP3    H223317   4.737   6.113   3.534
 7785TIP3   OH223318   5.606   0.621   5.135
 7785TIP3    H123319   5.637   0.542   5.092
 7785TIP3    H223320   5.523   0.641   5.092
 7786TIP3   OH223321   3.894   5.491   5.700
 7786TIP3    H123322   3.872   5.505   5.608
 7786TIP3    H223323   3.828   5.541   5.748
 7787TIP3   OH223324   1.676   3.699   2.872
 7787TIP3    H123325   1.764   3.664   2.886
 7787TIP3    H223326   1.675   3.780   2.923
 7788TIP3   OH223327   6.389   6.711   5.106
 7788TIP3    H123328   6.358   6.700   5.016
 7788TIP3    H223329   6.480   6.740   5.097
 7789TIP3   OH223330   5.680   6.527   2.276
 7789TIP3    H123331   5.660   6.568   2.191
 7789TIP3    H223332   5.623   6.571   2.338
 7790TIP3   OH223333   6.183   1.471   4.020
 7790TIP3    H123334   6.106   1.498   3.971
 7790TIP3    H223335   6.160   1.383   4.053
 7791TIP3   OH223336   0.620   1.039   5.703
 7791TIP3    H123337   0.669   1.079   5.632
 7791TIP3    H223338   0.550   0.990   5.660
 7792TIP3   OH223339   0.994   4.606   1.737
 7792TIP3    H123340   0.917   4.618   1.682
 7792TIP3    H223341   0.961   4.568   1.818
 7793TIP3   OH223342   4.607   0.108   3.200
 7793TIP3    H123343   4.690   0.087   3.156
 7793TIP3    H223344   4.623   0.091   3.292
 7794TIP3   OH223345   1.281   3.862   0.236
 7794TIP3    H123346   1.191   3.837   0.213
 7794TIP3    H223347   1.333   3.785   0.211
 7795TIP3   OH223348   4.027   4.757   0.097
 7795TIP3    H123349   4.008   4.749   0.190
 7795TIP3    H223350   3.949   4.725   0.053
 7796TIP3   OH223351   0.678   1.772   3.828
 7796TIP3    H123352   0.585   1.787   3.849
 7796TIP3    H223353   0.718   1.751   3.912
 7797TIP3   OH223354   3.661   5.672   5.771
 7797TIP3    H123355   3.653   5.684   5.676
 7797TIP3    H223356   3.570   5.660   5.800
 7798TIP3   OH223357   6.388   4.072   2.416
 7798TIP3    H123358   6.341   4.116   2.488
 7798TIP3    H223359   6.324   4.068   2.345
 7799TIP3   OH223360   0.004   4.638   4.970
 7799TIP3    H123361  -0.014   4.601   4.883
 7799TIP3    H223362  -0.007   4.732   4.959
 7800TIP3   OH223363   4.655   6.508   3.855
 7800TIP3    H123364   4.680   6.444   3.922
 7800TIP3    H223365   4.666   6.461   3.772
 7801TIP3   OH223366   6.075   1.418   4.929
 7801TIP3    H123367   5.996   1.445   4.976
 7801TIP3    H223368   6.068   1.462   4.844
 7802TIP3   OH223369   1.240   3.096   2.881
 7802TIP3    H123370   1.274   3.023   2.932
 7802TIP3    H223371   1.275   3.174   2.924
 7803TIP3   OH223372   0.672   0.469   1.676
 7803TIP3    H123373   0.766   0.465   1.658
 7803TIP3    H223374   0.667   0.488   1.770
 7804TIP3   OH223375   6.463   4.266   1.244
 7804TIP3    H123376   6.548   4.304   1.223
 7804TIP3    H223377   6.400   4.317   1.193
 7805TIP3   OH223378   3.844   3.628   3.900
 7805TIP3    H123379   3.921   3.571   3.894
 7805TIP3    H223380   3.865   3.688   3.972
 7806TIP3   OH223381   3.218   6.336   3.604
 7806TIP3    H123382   3.246   6.270   3.667
 7806TIP3    H223383   3.123   6.339   3.613
 7807TIP3   OH223384   0.633   0.152   1.841
 7807TIP3    H123385   0.551   0.177   1.799
 7807TIP3    H223386   0.668   0.082   1.786
 7808TIP3   OH223387   3.752   3.356   5.075
 7808TIP3    H123388   3.728   3.444   5.106
 7808TIP3    H223389   3.820   3.372   5.009
 7809TIP3   OH223390   2.712   2.606   2.302
 7809TIP3    H123391   2.690   2.650   2.220
 7809TIP3    H223392   2.739   2.676   2.361
 7810TIP3   OH223393   6.712   5.016   5.421
 7810TIP3    H123394   6.636   4.958   5.420
 7810TIP3    H223395   6.788   4.957   5.419
 7811TIP3   OH223396   7.165   5.503   3.412
 7811TIP3    H123397   7.199   5.546   3.334
 7811TIP3    H223398   7.116   5.428   3.379
 7812TIP3   OH223399   6.368   6.554   0.112
 7812TIP3    H123400   6.287   6.570   0.160
 7812TIP3    H223401   6.423   6.629   0.132
 7813TIP3   OH223402   2.339   1.551   3.472
 7813TIP3    H123403   2.319   1.459   3.456
 7813TIP3    H223404   2.316   1.596   3.391
 7814TIP3   OH223405   6.304   1.535   4.798
 7814TIP3    H123406   6.365   1.581   4.856
 7814TIP3    H223407   6.252   1.481   4.857
 7815TIP3   OH223408   0.202   1.552   0.891
 7815TIP3    H123409   0.195   1.457   0.893
 7815TIP3    H223410   0.248   1.575   0.971
 7816TIP3   OH223411   3.710   0.063   0.146
 7816TIP3    H123412   3.699  -0.006   0.081
 7816TIP3    H223413   3.680   0.023   0.228
 7817TIP3   OH223414   0.575   5.571   4.155
 7817TIP3    H123415   0.659   5.583   4.110
 7817TIP3    H223416   0.555   5.478   4.143
 7818TIP3   OH223417   0.820   4.966   1.526
 7818TIP3    H123418   0.798   4.959   1.433
 7818TIP3    H223419   0.834   4.876   1.555
 7819TIP3   OH223420   1.964   2.442   0.981
 7819TIP3    H123421   2.017   2.363   0.991
 7819TIP3    H223422   1.927   2.435   0.894
 7820TIP3   OH223423   4.468   4.970   4.625
 7820TIP3    H123424   4.538   4.919   4.665
 7820TIP3    H223425   4.401   4.906   4.603
 7821TIP3   OH223426   0.323   1.551   2.805
 7821TIP3    H123427   0.363   1.579   2.887
 7821TIP3    H223428   0.330   1.627   2.748
 7822TIP3   OH223429   1.780   2.041   5.688
 7822TIP3    H123430   1.750   2.116   5.738
 7822TIP3    H223431   1.757   2.061   5.597
 7823TIP3   OH223432   5.895   2.385   1.196
 7823TIP3    H123433   5.945   2.305   1.211
 7823TIP3    H223434   5.926   2.446   1.263
 7824TIP3   OH223435   5.107   5.194   5.463
 7824TIP3    H123436   5.128   5.243   5.543
 7824TIP3    H223437   5.095   5.262   5.396
 7825TIP3   OH223438   6.530   1.058   3.993
 7825TIP3    H123439   6.587   1.023   4.062
 7825TIP3    H223440   6.446   1.075   4.037
 7826TIP3   OH223441   4.860   4.036   1.315
 7826TIP3    H123442   4.944   4.076   1.339
 7826TIP3    H223443   4.863   3.949   1.355
 7827TIP3   OH223444   0.908   4.586   0.403
 7827TIP3    H123445   0.873   4.611   0.318
 7827TIP3    H223446   0.906   4.490   0.402
 7828TIP3   OH223447   0.211   2.884   2.626
 7828TIP3    H123448   0.262   2.922   2.697
 7828TIP3    H223449   0.277   2.853   2.564
 7829TIP3   OH223450   0.848   0.089   3.615
 7829TIP3    H123451   0.770   0.101   3.669
 7829TIP3    H223452   0.816   0.091   3.525
 7830TIP3   OH223453   2.616   3.315   1.578
 7830TIP3    H123454   2.596   3.397   1.623
 7830TIP3    H223455   2.594   3.332   1.486
 7831TIP3   OH223456   0.373   5.539   2.434
 7831TIP3    H123457   0.389   5.446   2.418
 7831TIP3    H223458   0.374   5.579   2.348
 7832TIP3   OH223459   5.572   5.337   3.742
 7832TIP3    H123460   5.619   5.333   3.659
 7832TIP3    H223461   5.639   5.326   3.809
 7833TIP3   OH223462   5.112   6.321   5.417
 7833TIP3    H123463   5.191   6.366   5.446
 7833TIP3    H223464   5.041   6.368   5.461
 7834TIP3   OH223465   0.849   1.726   3.090
 7834TIP3    H123466   0.889   1.722   3.003
 7834TIP3    H223467   0.834   1.819   3.106
 7835TIP3   OH223468   3.691   2.232   4.687
 7835TIP3    H123469   3.752   2.304   4.668
 7835TIP3    H223470   3.743   2.170   4.738
 7836TIP3   OH223471   4.985   2.509   0.965
 7836TIP3    H123472   5.042   2.536   0.893
 7836TIP3    H223473   4.988   2.582   1.027
 7837TIP3   OH223474   5.433   2.785   0.870
 7837TIP3    H123475   5.526   2.790   0.890
 7837TIP3    H223476   5.410   2.693   0.888
 7838TIP3   OH223477   3.408   6.058   4.340
 7838TIP3    H123478   3.326   6.030   4.300
 7838TIP3    H223479   3.397   6.152   4.354
 7839TIP3   OH223480   1.858   3.797   4.831
 7839TIP3    H123481   1.908   3.716   4.821
 7839TIP3    H223482   1.772   3.777   4.795
 7840TIP3   OH223483   4.080   3.756   1.299
 7840TIP3    H123484   3.991   3.722   1.288
 7840TIP3    H223485   4.069   3.851   1.307
 7841TIP3   OH223486   3.316   1.706   4.666
 7841TIP3    H123487   3.295   1.661   4.748
 7841TIP3    H223488   3.268   1.789   4.670
 7842TIP3   OH223489   7.008   4.697   5.755
 7842TIP3    H123490   7.102   4.707   5.769
 7842TIP3    H223491   6.983   4.776   5.706
 7843TIP3   OH223492   0.018   5.567   4.825
 7843TIP3    H123493  -0.029   5.651   4.832
 7843TIP3    H223494   0.086   5.583   4.759
 7844TIP3   OH223495   4.504   3.764   5.146
 7844TIP3    H123496   4.505   3.690   5.086
 7844TIP3    H223497   4.523   3.727   5.232
 7845TIP3   OH223498   4.421   3.369   2.377
 7845TIP3    H123499   4.367   3.432   2.424
 7845TIP3    H223500   4.436   3.409   2.291
 7846TIP3   OH223501   1.979   6.158   2.332
 7846TIP3    H123502   2.049   6.166   2.267
 7846TIP3    H223503   1.994   6.230   2.393
 7847TIP3   OH223504   3.358   2.103   5.872
 7847TIP3    H123505   3.441   2.069   5.838
 7847TIP3    H223506   3.291   2.047   5.834
 7848TIP3   OH223507   3.075   3.663   4.123
 7848TIP3    H123508   3.089   3.592   4.060
 7848TIP3    H223509   3.159   3.671   4.169
 7849TIP3   OH223510   3.828   6.504   1.704
 7849TIP3    H123511   3.890   6.509   1.631
 7849TIP3    H223512   3.877   6.536   1.779
 7850TIP3   OH223513   5.921   5.606   0.178
 7850TIP3    H123514   5.927   5.692   0.137
 7850TIP3    H223515   5.864   5.555   0.120
 7851TIP3   OH223516   5.715   6.113   1.091
 7851TIP3    H123517   5.645   6.135   1.030
 7851TIP3    H223518   5.669   6.092   1.173
 7852TIP3   OH223519   1.752   0.000   2.438
 7852TIP3    H123520   1.670  -0.003   2.387
 7852TIP3    H223521   1.819   0.018   2.373
 7853TIP3   OH223522   2.122   5.003   2.285
 7853TIP3    H123523   2.212   4.973   2.299
 7853TIP3    H223524   2.099   4.970   2.198
 7854TIP3   OH223525   7.128   2.751   2.857
 7854TIP3    H123526   7.210   2.709   2.831
 7854TIP3    H223527   7.155   2.837   2.890
 7855TIP3   OH223528   4.341   6.482   4.903
 7855TIP3    H123529   4.411   6.434   4.946
 7855TIP3    H223530   4.293   6.523   4.974
 7856TIP3   OH223531   5.666   2.518   4.937
 7856TIP3    H123532   5.700   2.490   5.022
 7856TIP3    H223533   5.619   2.441   4.903
 7857TIP3   OH223534   6.591   6.559   4.762
 7857TIP3    H123535   6.508   6.595   4.793
 7857TIP3    H223536   6.642   6.545   4.842
 7858TIP3   OH223537   1.044   4.021   1.720
 7858TIP3    H123538   1.082   3.941   1.682
 7858TIP3    H223539   1.107   4.090   1.698
 7859TIP3   OH223540   3.216   2.796   4.455
 7859TIP3    H123541   3.226   2.742   4.533
 7859TIP3    H223542   3.134   2.766   4.416
 7860TIP3   OH223543   4.992   0.335   4.328
 7860TIP3    H123544   4.906   0.326   4.286
 7860TIP3    H223545   5.003   0.254   4.378
 7861TIP3   OH223546   5.946   3.125   3.705
 7861TIP3    H123547   5.882   3.175   3.655
 7861TIP3    H223548   5.980   3.060   3.642
 7862TIP3   OH223549   0.052   2.589   3.201
 7862TIP3    H123550   0.127   2.633   3.162
 7862TIP3    H223551   0.032   2.517   3.141
 7863TIP3   OH223552   0.066   6.692   3.083
 7863TIP3    H123553   0.078   6.622   3.019
 7863TIP3    H223554   0.129   6.760   3.057
 7864TIP3   OH223555   6.656   1.324   3.849
 7864TIP3    H123556   6.685   1.234   3.864
 7864TIP3    H223557   6.736   1.375   3.850
 7865TIP3   OH223558   5.667   3.454   5.601
 7865TIP3    H123559   5.745   3.502   5.573
 7865TIP3    H223560   5.594   3.499   5.559
 7866TIP3   OH223561   5.947   1.731   5.302
 7866TIP3    H123562   6.019   1.671   5.286
 7866TIP3    H223563   5.871   1.675   5.317
 7867TIP3   OH223564   6.073   1.661   3.839
 7867TIP3    H123565   5.984   1.653   3.804
 7867TIP3    H223566   6.067   1.732   3.904
 7868TIP3   OH223567   2.254   1.638   3.221
 7868TIP3    H123568   2.308   1.572   3.178
 7868TIP3    H223569   2.309   1.717   3.222
 7869TIP3   OH223570   2.242   0.728   4.509
 7869TIP3    H123571   2.225   0.822   4.502
 7869TIP3    H223572   2.320   0.715   4.454
 7870TIP3   OH223573   4.714   1.066   1.449
 7870TIP3    H123574   4.806   1.050   1.469
 7870TIP3    H223575   4.717   1.135   1.382
 7871TIP3   OH223576   2.786   1.240   5.258
 7871TIP3    H123577   2.800   1.334   5.269
 7871TIP3    H223578   2.874   1.204   5.243
 7872TIP3   OH223579   5.397   1.980   3.002
 7872TIP3    H123580   5.444   1.953   2.923
 7872TIP3    H223581   5.458   2.037   3.048
 7873TIP3   OH223582   5.198   3.072   1.368
 7873TIP3    H123583   5.196   3.139   1.436
 7873TIP3    H223584   5.179   2.991   1.414
 7874TIP3   OH223585   2.305   1.257   1.080
 7874TIP3    H123586   2.391   1.284   1.112
 7874TIP3    H223587   2.245   1.279   1.151
 7875TIP3   OH223588   0.739   2.108   5.380
 7875TIP3    H123589   0.726   2.044   5.310
 7875TIP3    H223590   0.797   2.174   5.343
 7876TIP3   OH223591   5.315   4.633   1.815
 7876TIP3    H123592   5.289   4.597   1.730
 7876TIP3    H223593   5.233   4.651   1.860
 7877TIP3   OH223594   4.924   2.131   5.602
 7877TIP3    H123595   5.009   2.175   5.594
 7877TIP3    H223596   4.906   2.132   5.696
 7878TIP3   OH223597   6.874   0.528   4.477
 7878TIP3    H123598   6.798   0.498   4.528
 7878TIP3    H223599   6.943   0.466   4.498
 7879TIP3   OH223600   4.122   1.277   2.220
 7879TIP3    H123601   4.085   1.320   2.143
 7879TIP3    H223602   4.202   1.234   2.187
 7880TIP3   OH223603   1.514   2.715   4.289
 7880TIP3    H123604   1.501   2.810   4.292
 7880TIP3    H223605   1.533   2.697   4.197
 7881TIP3   OH223606   5.616   6.609   4.711
 7881TIP3    H123607   5.612   6.606   4.806
 7881TIP3    H223608   5.634   6.519   4.684
 7882TIP3   OH223609   0.590   1.021   4.361
 7882TIP3    H123610   0.512   1.075   4.351
 7882TIP3    H223611   0.631   1.020   4.275
 7883TIP3   OH223612   1.866   1.494   2.071
 7883TIP3    H123613   1.831   1.450   1.994
 7883TIP3    H223614   1.917   1.567   2.036
 7884TIP3   OH223615   2.312   2.349   3.251
 7884TIP3    H123616   2.239   2.371   3.309
 7884TIP3    H223617   2.271   2.310   3.174
 7885TIP3   OH223618   4.098   6.220   3.607
 7885TIP3    H123619   4.091   6.274   3.686
 7885TIP3    H223620   4.192   6.203   3.598
 7886TIP3   OH223621   1.690   2.328   2.415
 7886TIP3    H123622   1.607   2.307   2.373
 7886TIP3    H223623   1.757   2.288   2.359
 7887TIP3   OH223624   4.036   6.593   1.848
 7887TIP3    H123625   4.075   6.646   1.779
 7887TIP3    H223626   4.011   6.657   1.916
 7888TIP3   OH223627   1.769   4.555   5.195
 7888TIP3    H123628   1.706   4.619   5.162
 7888TIP3    H223629   1.768   4.485   5.131
 7889TIP3   OH223630   7.076   2.190   4.731
 7889TIP3    H123631   7.143   2.149   4.786
 7889TIP3    H223632   7.102   2.167   4.642
 7890TIP3   OH223633   6.429   1.169   4.731
 7890TIP3    H123634   6.356   1.165   4.670
 7890TIP3    H223635   6.502   1.128   4.683
 7891TIP3   OH223636   3.438   5.222   2.766
 7891TIP3    H123637   3.433   5.165   2.843
 7891TIP3    H223638   3.359   5.275   2.771
 7892TIP3   OH223639   4.826   2.583   5.163
 7892TIP3    H123640   4.901   2.638   5.183
 7892TIP3    H223641   4.824   2.579   5.067
 7893TIP3   OH223642   2.455   3.311   3.091
 7893TIP3    H123643   2.372   3.347   3.124
 7893TIP3    H223644   2.443   3.216   3.094
 7894TIP3   OH223645   5.189   4.031   2.834
 7894TIP3    H123646   5.106   4.039   2.789
 7894TIP3    H223647   5.176   4.078   2.917
 7895TIP3   OH223648   5.393   4.362   1.840
 7895TIP3    H123649   5.392   4.456   1.826
 7895TIP3    H223650   5.303   4.338   1.859
 7896TIP3   OH223651   0.557   0.501   2.761
 7896TIP3    H123652   0.549   0.427   2.701
 7896TIP3    H223653   0.508   0.474   2.839
 7897TIP3   OH223654   0.249   4.993   4.512
 7897TIP3    H123655   0.213   4.971   4.598
 7897TIP3    H223656   0.175   4.985   4.452
 7898TIP3   OH223657   4.209   5.954   3.221
 7898TIP3    H123658   4.159   6.032   3.245
 7898TIP3    H223659   4.155   5.910   3.155
 7899TIP3   OH223660   2.331   2.727   3.572
 7899TIP3    H123661   2.352   2.640   3.605
 7899TIP3    H223662   2.236   2.727   3.562
 7900TIP3   OH223663   3.939   0.550   5.847
 7900TIP3    H123664   3.853   0.549   5.805
 7900TIP3    H223665   3.920   0.540   5.940
 7901TIP3   OH223666   5.221   3.429   0.950
 7901TIP3    H123667   5.173   3.485   1.011
 7901TIP3    H223668   5.311   3.428   0.983
 7902TIP3   OH223669   2.183   6.314   4.884
 7902TIP3    H123670   2.099   6.275   4.905
 7902TIP3    H223671   2.193   6.386   4.946
 7903TIP3   OH223672   3.049   3.525   0.045
 7903TIP3    H123673   3.077   3.609   0.011
 7903TIP3    H223674   3.114   3.503   0.112
 7904TIP3   OH223675   5.410   3.700   3.871
 7904TIP3    H123676   5.426   3.645   3.948
 7904TIP3    H223677   5.460   3.659   3.801
 7905TIP3   OH223678   5.095   3.603   3.316
 7905TIP3    H123679   5.107   3.633   3.226
 7905TIP3    H223680   5.070   3.681   3.364
 7906TIP3   OH223681   4.324   1.890   5.778
 7906TIP3    H123682   4.331   1.942   5.698
 7906TIP3    H223683   4.394   1.825   5.771
 7907TIP3   OH223684   5.274   2.525   1.549
 7907TIP3    H123685   5.232   2.611   1.547
 7907TIP3    H223686   5.286   2.502   1.456
 7908TIP3   OH223687   4.137   2.562   2.123
 7908TIP3    H123688   4.200   2.634   2.116
 7908TIP3    H223689   4.115   2.540   2.032
 7909TIP3   OH223690   3.187   5.098   3.105
 7909TIP3    H123691   3.167   5.013   3.144
 7909TIP3    H223692   3.114   5.113   3.044
 7910TIP3   OH223693   7.142   0.875   2.943
 7910TIP3    H123694   7.211   0.887   2.878
 7910TIP3    H223695   7.061   0.883   2.892
 7911TIP3   OH223696   6.342   1.724   3.869
 7911TIP3    H123697   6.390   1.652   3.828
 7911TIP3    H223698   6.250   1.701   3.858
 7912TIP3   OH223699   2.797   2.457   0.017
 7912TIP3    H123700   2.858   2.479  -0.053
 7912TIP3    H223701   2.714   2.496  -0.011
 7913TIP3   OH223702   1.307   4.774   0.790
 7913TIP3    H123703   1.361   4.703   0.756
 7913TIP3    H223704   1.222   4.734   0.806
 7914TIP3   OH223705   3.616   3.558   4.043
 7914TIP3    H123706   3.580   3.489   3.986
 7914TIP3    H223707   3.680   3.603   3.988
 7915TIP3   OH223708   0.172   4.793   3.599
 7915TIP3    H123709   0.097   4.759   3.648
 7915TIP3    H223710   0.135   4.825   3.517
 7916TIP3   OH223711   5.163   0.362   3.551
 7916TIP3    H123712   5.097   0.383   3.485
 7916TIP3    H223713   5.247   0.375   3.506
 7917TIP3   OH223714   1.539   3.541   1.219
 7917TIP3    H123715   1.601   3.474   1.191
 7917TIP3    H223716   1.522   3.593   1.140
 7918TIP3   OH223717   0.713   3.453   2.903
 7918TIP3    H123718   0.651   3.470   2.973
 7918TIP3    H223719   0.735   3.541   2.870
 7919TIP3   OH223720   4.434   2.742   3.153
 7919TIP3    H123721   4.349   2.745   3.110
 7919TIP3    H223722   4.449   2.648   3.168
 7920TIP3   OH223723   5.475   2.503   0.943
 7920TIP3    H123724   5.419   2.425   0.951
 7920TIP3    H223725   5.497   2.507   0.850
 7921TIP3   OH223726   3.775   0.698   5.102
 7921TIP3    H123727   3.699   0.735   5.148
 7921TIP3    H223728   3.844   0.764   5.114
 7922TIP3   OH223729   4.559   3.612   1.934
 7922TIP3    H123730   4.482   3.608   1.990
 7922TIP3    H223731   4.581   3.705   1.931
 7923TIP3   OH223732   2.597   0.571   0.969
 7923TIP3    H123733   2.553   0.555   1.052
 7923TIP3    H223734   2.530   0.556   0.902
 7924TIP3   OH223735   7.093   4.608   4.110
 7924TIP3    H123736   7.088   4.702   4.098
 7924TIP3    H223737   7.078   4.571   4.023
 7925TIP3   OH223738   2.689   0.346   3.135
 7925TIP3    H123739   2.641   0.353   3.052
 7925TIP3    H223740   2.719   0.435   3.153
 7926TIP3   OH223741   3.083   2.344   0.488
 7926TIP3    H123742   3.117   2.431   0.467
 7926TIP3    H223743   2.998   2.341   0.443
 7927TIP3   OH223744   6.865   1.403   2.166
 7927TIP3    H123745   6.891   1.338   2.100
 7927TIP3    H223746   6.891   1.364   2.249
 7928TIP3   OH223747   1.606   4.425   1.026
 7928TIP3    H123748   1.597   4.337   1.062
 7928TIP3    H223749   1.548   4.479   1.080
 7929TIP3   OH223750   6.921   2.471   0.926
 7929TIP3    H123751   6.857   2.536   0.896
 7929TIP3    H223752   6.979   2.520   0.985
 7930TIP3   OH223753   3.797   3.578   3.281
 7930TIP3    H123754   3.884   3.547   3.306
 7930TIP3    H223755   3.769   3.630   3.356
 7931TIP3   OH223756   0.625   2.152   1.680
 7931TIP3    H123757   0.638   2.084   1.746
 7931TIP3    H223758   0.531   2.150   1.663
 7932TIP3   OH223759   5.087   1.711   2.786
 7932TIP3    H123760   5.112   1.657   2.711
 7932TIP3    H223761   5.033   1.781   2.749
 7933TIP3   OH223762   5.695   3.215   3.150
 7933TIP3    H123763   5.695   3.269   3.071
 7933TIP3    H223764   5.633   3.145   3.131
 7934TIP3   OH223765   3.701   5.724   5.515
 7934TIP3    H123766   3.626   5.721   5.456
 7934TIP3    H223767   3.772   5.684   5.465
 7935TIP3   OH223768   4.006   0.237   2.144
 7935TIP3    H123769   4.025   0.320   2.100
 7935TIP3    H223770   3.915   0.244   2.171
 7936TIP3   OH223771   4.683   4.916   0.063
 7936TIP3    H123772   4.601   4.867   0.060
 7936TIP3    H223773   4.655   5.008   0.071
 7937TIP3   OH223774   0.756   3.698   0.672
 7937TIP3    H123775   0.679   3.645   0.653
 7937TIP3    H223776   0.799   3.710   0.588
 7938TIP3   OH223777   6.265   6.314   1.873
 7938TIP3    H123778   6.242   6.404   1.898
 7938TIP3    H223779   6.357   6.304   1.900
 7939TIP3   OH223780   4.142   4.580   3.177
 7939TIP3    H123781   4.158   4.486   3.189
 7939TIP3    H223782   4.056   4.585   3.136
 7940TIP3   OH223783   5.155   5.162   1.469
 7940TIP3    H123784   5.104   5.241   1.484
 7940TIP3    H223785   5.206   5.151   1.549
 7941TIP3   OH223786   4.838   4.994   1.468
 7941TIP3    H123787   4.855   5.010   1.561
 7941TIP3    H223788   4.856   4.901   1.456
 7942TIP3   OH223789   5.539   4.770   1.932
 7942TIP3    H123790   5.465   4.745   1.877
 7942TIP3    H223791   5.581   4.842   1.885
 7943TIP3   OH223792   1.809   5.351   0.516
 7943TIP3    H123793   1.840   5.425   0.569
 7943TIP3    H223794   1.853   5.275   0.553
 7944TIP3   OH223795   5.554   0.206   1.072
 7944TIP3    H123796   5.518   0.130   1.026
 7944TIP3    H223797   5.637   0.223   1.028
 7945TIP3   OH223798   0.110   0.300   4.246
 7945TIP3    H123799   0.111   0.206   4.266
 7945TIP3    H223800   0.172   0.309   4.173
 7946TIP3   OH223801   3.921   3.972   1.973
 7946TIP3    H123802   3.874   4.052   1.948
 7946TIP3    H223803   3.895   3.956   2.063
 7947TIP3   OH223804   3.948   4.027   1.656
 7947TIP3    H123805   3.918   3.958   1.715
 7947TIP3    H223806   3.960   4.104   1.713
 7948TIP3   OH223807   4.262   2.517   0.241
 7948TIP3    H123808   4.187   2.547   0.294
 7948TIP3    H223809   4.228   2.513   0.152
 7949TIP3   OH223810   3.127   1.085   3.882
 7949TIP3    H123811   3.116   1.140   3.804
 7949TIP3    H223812   3.184   1.014   3.854
 7950TIP3   OH223813   4.916   1.551   2.092
 7950TIP3    H123814   4.941   1.546   2.000
 7950TIP3    H223815   4.955   1.632   2.124
 7951TIP3   OH223816   4.844   3.986   4.820
 7951TIP3    H123817   4.924   3.997   4.871
 7951TIP3    H223818   4.844   4.059   4.758
 7952TIP3   OH223819   1.154   5.776   4.300
 7952TIP3    H123820   1.211   5.718   4.352
 7952TIP3    H223821   1.168   5.748   4.210
 7953TIP3   OH223822   6.566   5.527   3.119
 7953TIP3    H123823   6.506   5.492   3.184
 7953TIP3    H223824   6.603   5.606   3.159
 7954TIP3   OH223825   3.444   1.452   5.249
 7954TIP3    H123826   3.442   1.494   5.334
 7954TIP3    H223827   3.398   1.513   5.190
 7955TIP3   OH223828   2.428   6.250   1.437
 7955TIP3    H123829   2.337   6.271   1.418
 7955TIP3    H223830   2.431   6.154   1.439
 7956TIP3   OH223831   5.569   3.305   1.942
 7956TIP3    H123832   5.582   3.400   1.951
 7956TIP3    H223833   5.642   3.276   1.886
 7957TIP3   OH223834   3.040   5.577   4.459
 7957TIP3    H123835   3.046   5.565   4.554
 7957TIP3    H223836   3.106   5.642   4.438
 7958TIP3   OH223837   4.138   2.671   5.796
 7958TIP3    H123838   4.105   2.654   5.708
 7958TIP3    H223839   4.113   2.761   5.814
 7959TIP3   OH223840   1.368   5.680   5.310
 7959TIP3    H123841   1.375   5.597   5.358
 7959TIP3    H223842   1.286   5.719   5.340
 7960TIP3   OH223843   3.810   2.847   1.678
 7960TIP3    H123844   3.773   2.758   1.679
 7960TIP3    H223845   3.888   2.841   1.734
 7961TIP3   OH223846   6.326   5.680   0.499
 7961TIP3    H123847   6.301   5.754   0.443
 7961TIP3    H223848   6.346   5.610   0.437
 7962TIP3   OH223849   1.879   5.901   5.808
 7962TIP3    H123850   1.863   5.928   5.717
 7962TIP3    H223851   1.973   5.879   5.810
 7963TIP3   OH223852   4.220   3.883   1.923
 7963TIP3    H123853   4.239   3.976   1.925
 7963TIP3    H223854   4.228   3.858   1.831
 7964TIP3   OH223855   0.500   3.132   0.366
 7964TIP3    H123856   0.435   3.087   0.420
 7964TIP3    H223857   0.481   3.103   0.277
 7965TIP3   OH223858   0.213   1.223   1.170
 7965TIP3    H123859   0.190   1.315   1.155
 7965TIP3    H223860   0.176   1.203   1.256
 7966TIP3   OH223861   1.600   6.564   5.715
 7966TIP3    H123862   1.538   6.635   5.701
 7966TIP3    H223863   1.642   6.586   5.799
 7967TIP3   OH223864   0.839   0.647   0.670
 7967TIP3    H123865   0.807   0.557   0.675
 7967TIP3    H223866   0.934   0.640   0.678
 7968TIP3   OH223867   4.223   2.102   1.130
 7968TIP3    H123868   4.151   2.141   1.079
 7968TIP3    H223869   4.296   2.163   1.119
 7969TIP3   OH223870   5.286   1.176   0.223
 7969TIP3    H123871   5.345   1.101   0.225
 7969TIP3    H223872   5.208   1.147   0.270
 7970TIP3   OH223873   2.028   1.269   4.702
 7970TIP3    H123874   1.946   1.260   4.654
 7970TIP3    H223875   2.012   1.225   4.785
 7971TIP3   OH223876   4.218   4.991   3.697
 7971TIP3    H123877   4.207   5.066   3.639
 7971TIP3    H223878   4.203   4.914   3.641
 7972TIP3   OH223879   2.417   6.813   3.369
 7972TIP3    H123880   2.421   6.786   3.277
 7972TIP3    H223881   2.507   6.807   3.400
 7973TIP3   OH223882   4.695   0.267   4.814
 7973TIP3    H123883   4.769   0.212   4.841
 7973TIP3    H223884   4.646   0.283   4.895
 7974TIP3   OH223885   4.785   6.666   5.827
 7974TIP3    H123886   4.776   6.628   5.914
 7974TIP3    H223887   4.719   6.621   5.774
 7975TIP3   OH223888   6.084   6.693   4.797
 7975TIP3    H123889   6.021   6.726   4.861
 7975TIP3    H223890   6.049   6.721   4.712
 7976TIP3   OH223891   4.484   4.355   5.360
 7976TIP3    H123892   4.455   4.442   5.389
 7976TIP3    H223893   4.450   4.295   5.427
 7977TIP3   OH223894   0.712   4.660   2.827
 7977TIP3    H123895   0.803   4.631   2.834
 7977TIP3    H223896   0.690   4.689   2.915
 7978TIP3   OH223897   0.179   3.040   3.256
 7978TIP3    H123898   0.249   2.985   3.220
 7978TIP3    H223899   0.223   3.122   3.278
 7979TIP3   OH223900   6.378   6.415   5.550
 7979TIP3    H123901   6.466   6.383   5.566
 7979TIP3    H223902   6.390   6.502   5.511
 7980TIP3   OH223903   6.335   5.190   5.559
 7980TIP3    H123904   6.381   5.177   5.642
 7980TIP3    H223905   6.260   5.245   5.582
 7981TIP3   OH223906   6.561   4.626   5.711
 7981TIP3    H123907   6.647   4.605   5.748
 7981TIP3    H223908   6.501   4.618   5.785
 7982TIP3   OH223909   3.641   6.609   1.243
 7982TIP3    H123910   3.685   6.535   1.283
 7982TIP3    H223911   3.681   6.686   1.282
 7983TIP3   OH223912   4.637   4.633   3.859
 7983TIP3    H123913   4.596   4.718   3.846
 7983TIP3    H223914   4.658   4.603   3.771
 7984TIP3   OH223915   2.146   4.657   5.371
 7984TIP3    H123916   2.149   4.721   5.300
 7984TIP3    H223917   2.203   4.692   5.438
 7985TIP3   OH223918   4.574   5.399   4.343
 7985TIP3    H123919   4.503   5.354   4.390
 7985TIP3    H223920   4.573   5.488   4.377
 7986TIP3   OH223921   0.382   0.103   2.853
 7986TIP3    H123922   0.437   0.152   2.793
 7986TIP3    H223923   0.433   0.097   2.934
 7987TIP3   OH223924   5.280   6.151   3.696
 7987TIP3    H123925   5.289   6.067   3.741
 7987TIP3    H223926   5.271   6.215   3.766
 7988TIP3   OH223927   1.188   6.468   3.851
 7988TIP3    H123928   1.264   6.445   3.903
 7988TIP3    H223929   1.113   6.444   3.906
 7989TIP3   OH223930   0.711   1.919   0.651
 7989TIP3    H123931   0.744   1.831   0.634
 7989TIP3    H223932   0.630   1.924   0.601
 7990TIP3   OH223933   2.684   0.291   3.959
 7990TIP3    H123934   2.779   0.278   3.962
 7990TIP3    H223935   2.673   0.377   3.919
 7991TIP3   OH223936   4.187   3.470   2.616
 7991TIP3    H123937   4.276   3.437   2.628
 7991TIP3    H223938   4.167   3.515   2.698
 7992TIP3   OH223939   4.413   5.509   3.595
 7992TIP3    H123940   4.334   5.549   3.631
 7992TIP3    H223941   4.384   5.423   3.563
 7993TIP3   OH223942   6.741   3.059   2.549
 7993TIP3    H123943   6.827   3.031   2.580
 7993TIP3    H223944   6.760   3.118   2.476
 7994TIP3   OH223945   3.446   6.006   3.638
 7994TIP3    H123946   3.495   5.982   3.717
 7994TIP3    H223947   3.357   6.025   3.670
 7995TIP3   OH223948   4.780   2.026   2.375
 7995TIP3    H123949   4.740   2.091   2.318
 7995TIP3    H223950   4.707   1.991   2.426
 7996TIP3   OH223951   3.730   1.090   2.949
 7996TIP3    H123952   3.707   1.148   2.876
 7996TIP3    H223953   3.799   1.034   2.913
 7997TIP3   OH223954   4.079   4.818   3.272
 7997TIP3    H123955   4.074   4.805   3.367
 7997TIP3    H223956   4.108   4.734   3.238
 7998TIP3   OH223957   3.145   1.281   2.896
 7998TIP3    H123958   3.207   1.263   2.967
 7998TIP3    H223959   3.146   1.200   2.844
 7999TIP3   OH223960   5.924   4.144   2.219
 7999TIP3    H123961   5.922   4.167   2.126
 7999TIP3    H223962   5.833   4.125   2.241
 8000TIP3   OH223963   5.569   5.368   0.353
 8000TIP3    H123964   5.638   5.309   0.323
 8000TIP3    H223965   5.614   5.450   0.373
 8001TIP3   OH223966   0.259   6.423   3.526
 8001TIP3    H123967   0.279   6.350   3.584
 8001TIP3    H223968   0.345   6.457   3.500
 8002TIP3   OH223969   4.495   5.304   3.320
 8002TIP3    H123970   4.401   5.294   3.333
 8002TIP3    H223971   4.534   5.274   3.402
 8003TIP3   OH223972   2.179   3.450   5.739
 8003TIP3    H123973   2.208   3.540   5.727
 8003TIP3    H223974   2.198   3.407   5.656
 8004TIP3   OH223975   0.414   4.036   2.230
 8004TIP3    H123976   0.321   4.049   2.252
 8004TIP3    H223977   0.450   3.989   2.305
 8005TIP3   OH223978   0.430   4.740   4.279
 8005TIP3    H123979   0.441   4.653   4.317
 8005TIP3    H223980   0.477   4.798   4.339
 8006TIP3   OH223981   1.086   3.352   3.437
 8006TIP3    H123982   1.091   3.447   3.441
 8006TIP3    H223983   1.054   3.334   3.349
 8007TIP3   OH223984   0.512   5.230   2.694
 8007TIP3    H123985   0.593   5.275   2.670
 8007TIP3    H223986   0.517   5.146   2.648
 8008TIP3   OH223987   5.534   2.749   5.014
 8008TIP3    H123988   5.627   2.766   5.025
 8008TIP3    H223989   5.529   2.656   4.992
 8009TIP3   OH223990   0.573   6.793   2.589
 8009TIP3    H123991   0.667   6.806   2.606
 8009TIP3    H223992   0.551   6.857   2.522
 8010TIP3   OH223993   4.440   5.933   4.260
 8010TIP3    H123994   4.387   5.947   4.338
 8010TIP3    H223995   4.432   6.015   4.211
 8011TIP3   OH223996   0.265   5.842   0.332
 8011TIP3    H123997   0.207   5.898   0.281
 8011TIP3    H223998   0.330   5.811   0.270
 8012TIP3   OH223999   1.581   1.797   1.373
 8012TIP3    H124000   1.660   1.805   1.426
 8012TIP3    H224001   1.544   1.712   1.397
 8013TIP3   OH224002   4.802   4.699   3.279
 8013TIP3    H124003   4.711   4.714   3.254
 8013TIP3    H224004   4.836   4.642   3.211
 8014TIP3   OH224005   2.538   3.840   3.593
 8014TIP3    H124006   2.594   3.764   3.609
 8014TIP3    H224007   2.512   3.870   3.681
 8015TIP3   OH224008   6.501   6.652   4.415
 8015TIP3    H124009   6.509   6.710   4.491
 8015TIP3    H224010   6.591   6.640   4.384
 8016TIP3   OH224011   6.151   3.701   2.920
 8016TIP3    H124012   6.160   3.785   2.877
 8016TIP3    H224013   6.090   3.717   2.992
 8017TIP3   OH224014   4.233   4.016   4.574
 8017TIP3    H124015   4.221   4.029   4.668
 8017TIP3    H224016   4.298   4.081   4.548
 8018TIP3   OH224017   0.213   3.485   4.938
 8018TIP3    H124018   0.163   3.540   4.999
 8018TIP3    H224019   0.246   3.414   4.992
 8019TIP3   OH224020   6.024   3.019   0.700
 8019TIP3    H124021   6.103   2.974   0.670
 8019TIP3    H224022   5.959   2.949   0.711
 8020TIP3   OH224023   4.376   0.703   0.573
 8020TIP3    H124024   4.340   0.650   0.644
 8020TIP3    H224025   4.418   0.777   0.618
 8021TIP3   OH224026  -0.015   5.627   3.803
 8021TIP3    H124027  -0.064   5.699   3.842
 8021TIP3    H224028   0.072   5.664   3.784
 8022TIP3   OH224029   4.289   4.445   0.693
 8022TIP3    H124030   4.208   4.496   0.696
 8022TIP3    H224031   4.341   4.486   0.624
 8023TIP3   OH224032   0.096   2.874   5.438
 8023TIP3    H124033   0.042   2.925   5.498
 8023TIP3    H224034   0.169   2.843   5.493
 8024TIP3   OH224035   6.969   5.649   1.464
 8024TIP3    H124036   6.978   5.715   1.533
 8024TIP3    H224037   7.058   5.635   1.432
 8025TIP3   OH224038   0.216   4.769   1.095
 8025TIP3    H124039   0.133   4.740   1.056
 8025TIP3    H224040   0.278   4.699   1.073
 8026TIP3   OH224041   2.647   1.857   3.671
 8026TIP3    H124042   2.561   1.889   3.643
 8026TIP3    H224043   2.629   1.808   3.751
 8027TIP3   OH224044   6.681   3.857   4.651
 8027TIP3    H124045   6.724   3.852   4.566
 8027TIP3    H224046   6.665   3.766   4.675
 8028TIP3   OH224047   2.112   3.042   5.826
 8028TIP3    H124048   2.102   2.957   5.870
 8028TIP3    H224049   2.176   3.026   5.757
 8029TIP3   OH224050   4.908   3.234   1.676
 8029TIP3    H124051   4.932   3.271   1.761
 8029TIP3    H224052   4.872   3.308   1.627
 8030TIP3   OH224053   5.402   1.611   5.270
 8030TIP3    H124054   5.361   1.664   5.202
 8030TIP3    H224055   5.373   1.522   5.252
 8031TIP3   OH224056   4.734   1.147   5.020
 8031TIP3    H124057   4.675   1.092   4.968
 8031TIP3    H224058   4.743   1.227   4.968
 8032TIP3   OH224059   2.162   2.455   3.535
 8032TIP3    H124060   2.114   2.537   3.550
 8032TIP3    H224061   2.216   2.444   3.614
 8033TIP3   OH224062   0.569   2.421   1.626
 8033TIP3    H124063   0.590   2.332   1.656
 8033TIP3    H224064   0.620   2.478   1.683
 8034TIP3   OH224065   4.839   1.326   4.826
 8034TIP3    H124066   4.796   1.334   4.740
 8034TIP3    H224067   4.881   1.411   4.839
 8035TIP3   OH224068   3.567   6.278   1.267
 8035TIP3    H124069   3.654   6.310   1.292
 8035TIP3    H224070   3.534   6.235   1.346
 8036TIP3   OH224071   4.510   0.358   2.666
 8036TIP3    H124072   4.551   0.361   2.752
 8036TIP3    H224073   4.577   0.317   2.610
 8037TIP3   OH224074   3.318   0.150   3.772
 8037TIP3    H124075   3.410   0.128   3.757
 8037TIP3    H224076   3.320   0.235   3.816
 8038TIP3   OH224077   4.618   3.161   0.829
 8038TIP3    H124078   4.657   3.105   0.895
 8038TIP3    H224079   4.693   3.205   0.788
 8039TIP3   OH224080   0.116   0.880   2.731
 8039TIP3    H124081   0.138   0.793   2.765
 8039TIP3    H224082   0.097   0.865   2.638
 8040TIP3   OH224083   6.616   3.438   3.978
 8040TIP3    H124084   6.642   3.522   3.939
 8040TIP3    H224085   6.538   3.412   3.928
 8041TIP3   OH224086   3.227   5.909   5.828
 8041TIP3    H124087   3.228   5.948   5.915
 8041TIP3    H224088   3.136   5.918   5.799
 8042TIP3   OH224089   2.956   4.187   3.617
 8042TIP3    H124090   2.945   4.177   3.712
 8042TIP3    H224091   2.928   4.103   3.581
 8043TIP3   OH224092   6.185   3.734   2.156
 8043TIP3    H124093   6.126   3.770   2.221
 8043TIP3    H224094   6.233   3.665   2.201
 8044TIP3   OH224095   1.181   1.291   2.846
 8044TIP3    H124096   1.103   1.254   2.887
 8044TIP3    H224097   1.185   1.248   2.760
 8045TIP3   OH224098   1.777   5.624   5.450
 8045TIP3    H124099   1.747   5.591   5.365
 8045TIP3    H224100   1.836   5.696   5.428
 8046TIP3   OH224101   3.947   1.916   4.217
 8046TIP3    H124102   4.000   1.844   4.182
 8046TIP3    H224103   3.880   1.873   4.269
 8047TIP3   OH224104   5.019   2.581   2.305
 8047TIP3    H124105   5.013   2.660   2.251
 8047TIP3    H224106   5.044   2.614   2.392
 8048TIP3   OH224107   5.482   6.146   4.327
 8048TIP3    H124108   5.550   6.213   4.324
 8048TIP3    H224109   5.500   6.098   4.408
 8049TIP3   OH224110   5.968   3.672   1.562
 8049TIP3    H124111   6.022   3.703   1.635
 8049TIP3    H224112   5.911   3.605   1.602
 8050TIP3   OH224113   4.797   1.710   0.377
 8050TIP3    H124114   4.794   1.801   0.348
 8050TIP3    H224115   4.706   1.686   0.391
 8051TIP3   OH224116   2.569   5.474   4.297
 8051TIP3    H124117   2.494   5.533   4.283
 8051TIP3    H224118   2.554   5.401   4.236
 8052TIP3   OH224119   6.220   2.031   3.299
 8052TIP3    H124120   6.168   1.989   3.231
 8052TIP3    H224121   6.191   1.989   3.380
 8053TIP3   OH224122   1.262   1.615   3.421
 8053TIP3    H124123   1.308   1.623   3.338
 8053TIP3    H224124   1.176   1.652   3.405
 8054TIP3   OH224125   6.108   6.161   4.045
 8054TIP3    H124126   6.200   6.140   4.030
 8054TIP3    H224127   6.101   6.171   4.140
 8055TIP3   OH224128   6.279   5.850   1.767
 8055TIP3    H124129   6.232   5.921   1.722
 8055TIP3    H224130   6.319   5.892   1.843
 8056TIP3   OH224131   2.443   3.316   3.629
 8056TIP3    H124132   2.488   3.294   3.547
 8056TIP3    H224133   2.480   3.256   3.693
 8057TIP3   OH224134   1.098   2.462   4.510
 8057TIP3    H124135   1.035   2.467   4.582
 8057TIP3    H224136   1.143   2.547   4.511
 8058TIP3   OH224137   0.519   0.903   3.246
 8058TIP3    H124138   0.514   0.997   3.261
 8058TIP3    H224139   0.597   0.875   3.294
 8059TIP3   OH224140   6.990   6.491   4.745
 8059TIP3    H124141   7.013   6.551   4.816
 8059TIP3    H224142   6.908   6.527   4.710
 8060TIP3   OH224143   1.120   2.651   0.436
 8060TIP3    H124144   1.120   2.747   0.428
 8060TIP3    H224145   1.030   2.630   0.459
 8061TIP3   OH224146   5.209   6.537   0.215
 8061TIP3    H124147   5.181   6.490   0.137
 8061TIP3    H224148   5.173   6.487   0.288
 8062TIP3   OH224149   1.833   1.098   2.888
 8062TIP3    H124150   1.906   1.110   2.828
 8062TIP3    H224151   1.828   1.003   2.901
 8063TIP3   OH224152   6.376   5.013   0.877
 8063TIP3    H124153   6.301   5.009   0.817
 8063TIP3    H224154   6.345   5.065   0.951
 8064TIP3   OH224155   2.615   3.187   3.466
 8064TIP3    H124156   2.607   3.225   3.378
 8064TIP3    H224157   2.616   3.092   3.451
 8065TIP3   OH224158   5.117   4.815   1.113
 8065TIP3    H124159   5.066   4.849   1.040
 8065TIP3    H224160   5.169   4.889   1.144
 8066TIP3   OH224161   3.055   5.332   3.210
 8066TIP3    H124162   3.007   5.350   3.129
 8066TIP3    H224163   3.131   5.281   3.182
 8067TIP3   OH224164   3.632   1.683   1.867
 8067TIP3    H124165   3.609   1.688   1.774
 8067TIP3    H224166   3.629   1.589   1.887
 8068TIP3   OH224167   1.875   6.106   1.400
 8068TIP3    H124168   1.890   6.129   1.492
 8068TIP3    H224169   1.782   6.082   1.397
 8069TIP3   OH224170   5.220   6.670   1.328
 8069TIP3    H124171   5.310   6.641   1.340
 8069TIP3    H224172   5.223   6.722   1.248
 8070TIP3   OH224173   5.558   2.333   0.153
 8070TIP3    H124174   5.650   2.339   0.129
 8070TIP3    H224175   5.531   2.424   0.166
 8071TIP3   OH224176   3.030   2.731   0.648
 8071TIP3    H124177   2.957   2.713   0.708
 8071TIP3    H224178   3.103   2.680   0.682
 8072TIP3   OH224179   4.487   6.374   5.591
 8072TIP3    H124180   4.523   6.441   5.650
 8072TIP3    H224181   4.481   6.418   5.506
 8073TIP3   OH224182   7.022   0.246   0.167
 8073TIP3    H124183   7.026   0.324   0.222
 8073TIP3    H224184   7.085   0.186   0.207
 8074TIP3   OH224185   2.737   3.822   5.031
 8074TIP3    H124186   2.752   3.795   4.940
 8074TIP3    H224187   2.657   3.875   5.028
 8075TIP3   OH224188   6.497   2.422   2.599
 8075TIP3    H124189   6.584   2.454   2.578
 8075TIP3    H224190   6.440   2.499   2.589
 8076TIP3   OH224191   4.028   2.597   0.356
 8076TIP3    H124192   3.999   2.677   0.401
 8076TIP3    H224193   3.948   2.559   0.321
 8077TIP3   OH224194   2.567   5.253   5.324
 8077TIP3    H124195   2.511   5.182   5.292
 8077TIP3    H224196   2.622   5.276   5.249
 8078TIP3   OH224197   2.543   2.376   2.385
 8078TIP3    H124198   2.463   2.381   2.332
 8078TIP3    H224199   2.598   2.447   2.352
 8079TIP3   OH224200   3.982   2.258   2.624
 8079TIP3    H124201   3.951   2.265   2.534
 8079TIP3    H224202   4.068   2.302   2.622
 8080TIP3   OH224203   1.287   1.469   4.705
 8080TIP3    H124204   1.348   1.395   4.714
 8080TIP3    H224205   1.278   1.482   4.611
 8081TIP3   OH224206   0.916   0.979   2.022
 8081TIP3    H124207   0.900   0.910   1.958
 8081TIP3    H224208   0.911   1.060   1.971
 8082TIP3   OH224209   0.261   3.768   1.403
 8082TIP3    H124210   0.240   3.682   1.366
 8082TIP3    H224211   0.176   3.806   1.425
 8083TIP3   OH224212   5.472   2.465   1.950
 8083TIP3    H124213   5.413   2.428   2.015
 8083TIP3    H224214   5.547   2.497   2.000
 8084TIP3   OH224215   4.997   4.516   5.663
 8084TIP3    H124216   4.934   4.515   5.591
 8084TIP3    H224217   5.041   4.432   5.657
 8085TIP3   OH224218   0.216   6.108   4.294
 8085TIP3    H124219   0.210   6.194   4.251
 8085TIP3    H224220   0.204   6.127   4.387
 8086TIP3   OH224221   0.961   4.994   2.837
 8086TIP3    H124222   0.869   4.996   2.808
 8086TIP3    H224223   0.994   5.081   2.817
 8087TIP3   OH224224   2.142   2.529   3.886
 8087TIP3    H124225   2.141   2.458   3.950
 8087TIP3    H224226   2.229   2.568   3.893
 8088TIP3   OH224227   4.217   4.326   3.821
 8088TIP3    H124228   4.256   4.253   3.869
 8088TIP3    H224229   4.288   4.390   3.812
 8089TIP3   OH224230   6.415   5.557   3.977
 8089TIP3    H124231   6.438   5.580   4.068
 8089TIP3    H224232   6.448   5.468   3.967
 8090TIP3   OH224233   2.083   0.880   2.555
 8090TIP3    H124234   2.046   0.792   2.553
 8090TIP3    H224235   2.013   0.936   2.521
 8091TIP3   OH224236   5.364   3.176   4.763
 8091TIP3    H124237   5.393   3.172   4.672
 8091TIP3    H224238   5.445   3.168   4.814
 8092TIP3   OH224239   0.664   0.201   2.347
 8092TIP3    H124240   0.659   0.296   2.335
 8092TIP3    H224241   0.629   0.164   2.266
 8093TIP3   OH224242   4.316   4.887   3.155
 8093TIP3    H124243   4.314   4.982   3.153
 8093TIP3    H224244   4.227   4.862   3.180
 8094TIP3   OH224245   6.639   4.581   0.775
 8094TIP3    H124246   6.649   4.676   0.772
 8094TIP3    H224247   6.555   4.563   0.732
 8095TIP3   OH224248   5.401   1.504   4.798
 8095TIP3    H124249   5.447   1.534   4.876
 8095TIP3    H224250   5.342   1.435   4.829
 8096TIP3   OH224251   1.678   6.072   3.010
 8096TIP3    H124252   1.737   6.045   2.939
 8096TIP3    H224253   1.655   6.163   2.989
 8097TIP3   OH224254   0.285   0.267   4.033
 8097TIP3    H124255   0.347   0.325   3.989
 8097TIP3    H224256   0.225   0.238   3.964
 8098TIP3   OH224257   3.677   6.142   2.846
 8098TIP3    H124258   3.695   6.202   2.774
 8098TIP3    H224259   3.641   6.064   2.804
 8099TIP3   OH224260   0.505   1.480   5.736
 8099TIP3    H124261   0.577   1.514   5.683
 8099TIP3    H224262   0.428   1.488   5.680
 8100TIP3   OH224263   6.252   1.041   4.111
 8100TIP3    H124264   6.186   1.108   4.094
 8100TIP3    H224265   6.234   1.013   4.201
 8101TIP3   OH224266   6.098   1.002   1.446
 8101TIP3    H124267   6.194   1.006   1.456
 8101TIP3    H224268   6.085   0.976   1.355
 8102TIP3   OH224269   5.269   6.729   0.454
 8102TIP3    H124270   5.358   6.695   0.442
 8102TIP3    H224271   5.266   6.807   0.398
 8103TIP3   OH224272   3.045   5.178   2.493
 8103TIP3    H124273   3.085   5.190   2.407
 8103TIP3    H224274   2.962   5.134   2.475
 8104TIP3   OH224275   4.957   2.406   4.602
 8104TIP3    H124276   4.940   2.324   4.556
 8104TIP3    H224277   4.871   2.438   4.627
 8105TIP3   OH224278   7.013   6.235   5.123
 8105TIP3    H124279   6.948   6.227   5.053
 8105TIP3    H224280   7.090   6.188   5.091
 8106TIP3   OH224281   6.204   1.879   3.538
 8106TIP3    H124282   6.229   1.791   3.511
 8106TIP3    H224283   6.132   1.866   3.600
 8107TIP3   OH224284   5.403   2.759   3.048
 8107TIP3    H124285   5.333   2.775   2.983
 8107TIP3    H224286   5.356   2.748   3.131
 8108TIP3   OH224287   3.268   2.115   0.217
 8108TIP3    H124288   3.235   2.047   0.159
 8108TIP3    H224289   3.205   2.186   0.209
 8109TIP3   OH224290   4.346   4.037   2.981
 8109TIP3    H124291   4.359   4.119   2.933
 8109TIP3    H224292   4.362   3.968   2.917
 8110TIP3   OH224293   3.377   3.454   1.399
 8110TIP3    H124294   3.403   3.535   1.443
 8110TIP3    H224295   3.331   3.403   1.467
 8111TIP3   OH224296   5.082   4.176   1.139
 8111TIP3    H124297   5.128   4.240   1.084
 8111TIP3    H224298   5.146   4.152   1.206
 8112TIP3   OH224299   6.158   1.586   5.199
 8112TIP3    H124300   6.111   1.579   5.117
 8112TIP3    H224301   6.247   1.557   5.179
 8113TIP3   OH224302   6.534   3.245   3.097
 8113TIP3    H124303   6.557   3.336   3.078
 8113TIP3    H224304   6.452   3.250   3.146
 8114TIP3   OH224305   1.441   5.710   4.395
 8114TIP3    H124306   1.435   5.770   4.469
 8114TIP3    H224307   1.475   5.629   4.432
 8115TIP3   OH224308   3.549   4.054   0.619
 8115TIP3    H124309   3.582   3.964   0.628
 8115TIP3    H224310   3.563   4.093   0.704
 8116TIP3   OH224311   4.913   6.475   5.503
 8116TIP3    H124312   4.945   6.539   5.567
 8116TIP3    H224313   4.843   6.522   5.457
 8117TIP3   OH224314   0.273   3.848   3.356
 8117TIP3    H124315   0.262   3.753   3.362
 8117TIP3    H224316   0.367   3.861   3.366
 8118TIP3   OH224317   3.670   2.621   2.201
 8118TIP3    H124318   3.589   2.634   2.152
 8118TIP3    H224319   3.726   2.570   2.143
 8119TIP3   OH224320   0.403   0.745   2.815
 8119TIP3    H124321   0.338   0.706   2.756
 8119TIP3    H224322   0.352   0.781   2.887
 8120TIP3   OH224323   6.901   0.588   1.000
 8120TIP3    H124324   6.863   0.596   1.088
 8120TIP3    H224325   6.950   0.507   1.002
 8121TIP3   OH224326   6.904   4.265   2.465
 8121TIP3    H124327   6.907   4.351   2.506
 8121TIP3    H224328   6.865   4.281   2.380
 8122TIP3   OH224329   1.480   4.492   1.802
 8122TIP3    H124330   1.521   4.556   1.860
 8122TIP3    H224331   1.449   4.422   1.860
 8123TIP3   OH224332   5.634   3.420   0.201
 8123TIP3    H124333   5.622   3.515   0.197
 8123TIP3    H224334   5.549   3.385   0.228
 8124TIP3   OH224335   2.469   6.413   1.193
 8124TIP3    H124336   2.476   6.339   1.255
 8124TIP3    H224337   2.380   6.445   1.204
 8125TIP3   OH224338   3.007   4.464   4.608
 8125TIP3    H124339   3.099   4.489   4.600
 8125TIP3    H224340   2.959   4.541   4.579
 8126TIP3   OH224341   4.014   1.494   2.559
 8126TIP3    H124342   3.991   1.569   2.614
 8126TIP3    H224343   4.073   1.531   2.493
 8127TIP3   OH224344   4.445   4.435   3.978
 8127TIP3    H124345   4.508   4.486   3.927
 8127TIP3    H224346   4.496   4.364   4.016
 8128TIP3   OH224347   3.835   0.901   3.999
 8128TIP3    H124348   3.770   0.960   3.960
 8128TIP3    H224349   3.854   0.838   3.930
 8129TIP3   OH224350   1.714   4.754   2.854
 8129TIP3    H124351   1.738   4.820   2.789
 8129TIP3    H224352   1.620   4.766   2.866
 8130TIP3   OH224353   1.479   3.193   5.823
 8130TIP3    H124354   1.471   3.130   5.751
 8130TIP3    H224355   1.569   3.225   5.817
 8131TIP3   OH224356   4.500   0.934   1.965
 8131TIP3    H124357   4.412   0.961   1.938
 8131TIP3    H224358   4.554   1.012   1.952
 8132TIP3   OH224359   1.075   5.447   2.038
 8132TIP3    H124360   0.999   5.440   1.980
 8132TIP3    H224361   1.070   5.371   2.095
 8133TIP3   OH224362   4.447   1.045   1.086
 8133TIP3    H124363   4.457   0.965   1.138
 8133TIP3    H224364   4.534   1.083   1.084
 8134TIP3   OH224365   0.479   4.173   5.572
 8134TIP3    H124366   0.404   4.192   5.629
 8134TIP3    H224367   0.468   4.080   5.549
 8135TIP3   OH224368   1.788   6.037   3.556
 8135TIP3    H124369   1.773   6.058   3.648
 8135TIP3    H224370   1.705   6.002   3.525
 8136TIP3   OH224371   0.344   0.143   3.332
 8136TIP3    H124372   0.395   0.154   3.252
 8136TIP3    H224373   0.374   0.214   3.390
 8137TIP3   OH224374   1.414   6.742   2.718
 8137TIP3    H124375   1.449   6.702   2.798
 8137TIP3    H224376   1.492   6.767   2.668
 8138TIP3   OH224377   1.743   2.161   4.441
 8138TIP3    H124378   1.834   2.152   4.413
 8138TIP3    H224379   1.737   2.249   4.477
 8139TIP3   OH224380   6.543   4.018   5.774
 8139TIP3    H124381   6.492   4.051   5.847
 8139TIP3    H224382   6.489   4.038   5.697
 8140TIP3   OH224383   6.422   1.830   2.967
 8140TIP3    H124384   6.453   1.861   2.882
 8140TIP3    H224385   6.496   1.844   3.026
 8141TIP3   OH224386   2.034   4.338   3.816
 8141TIP3    H124387   2.011   4.285   3.739
 8141TIP3    H224388   2.046   4.426   3.781
 8142TIP3   OH224389   1.600   5.303   4.253
 8142TIP3    H124390   1.580   5.255   4.172
 8142TIP3    H224391   1.612   5.393   4.225
 8143TIP3   OH224392   7.040   5.380   2.503
 8143TIP3    H124393   7.065   5.472   2.504
 8143TIP3    H224394   6.959   5.378   2.452
 8144TIP3   OH224395   0.573   5.368   1.092
 8144TIP3    H124396   0.598   5.294   1.147
 8144TIP3    H224397   0.640   5.369   1.023
 8145TIP3   OH224398   1.023   6.302   3.109
 8145TIP3    H124399   1.072   6.261   3.181
 8145TIP3    H224400   1.069   6.274   3.030
 8146TIP3   OH224401   6.555   5.499   0.306
 8146TIP3    H124402   6.530   5.426   0.363
 8146TIP3    H224403   6.611   5.459   0.239
 8147TIP3   OH224404   5.539   3.637   3.190
 8147TIP3    H124405   5.586   3.680   3.261
 8147TIP3    H224406   5.497   3.561   3.230
 8148TIP3   OH224407   2.093   1.449   1.788
 8148TIP3    H124408   2.143   1.384   1.837
 8148TIP3    H224409   2.114   1.532   1.830
 8149TIP3   OH224410   3.896   4.797   5.463
 8149TIP3    H124411   3.895   4.755   5.377
 8149TIP3    H224412   3.988   4.801   5.487
 8150TIP3   OH224413   1.611   4.665   1.986
 8150TIP3    H124414   1.535   4.686   2.041
 8150TIP3    H224415   1.686   4.672   2.044
 8151TIP3   OH224416   2.351   2.373   0.716
 8151TIP3    H124417   2.427   2.318   0.698
 8151TIP3    H224418   2.292   2.317   0.767
 8152TIP3   OH224419   4.272   2.301   2.141
 8152TIP3    H124420   4.267   2.396   2.145
 8152TIP3    H224421   4.278   2.273   2.232
 8153TIP3   OH224422   3.399   5.921   1.222
 8153TIP3    H124423   3.367   5.992   1.165
 8153TIP3    H224424   3.464   5.876   1.169
 8154TIP3   OH224425   5.746   0.529   1.850
 8154TIP3    H124426   5.698   0.577   1.782
 8154TIP3    H224427   5.836   0.529   1.820
 8155TIP3   OH224428   4.707   4.555   3.582
 8155TIP3    H124429   4.700   4.622   3.513
 8155TIP3    H224430   4.778   4.498   3.552
 8156TIP3   OH224431   6.771   1.663   2.738
 8156TIP3    H124432   6.863   1.685   2.749
 8156TIP3    H224433   6.746   1.621   2.821
 8157TIP3   OH224434   1.643   6.595   0.242
 8157TIP3    H124435   1.682   6.659   0.301
 8157TIP3    H224436   1.555   6.581   0.277
 8158TIP3   OH224437   4.823   4.275   0.429
 8158TIP3    H124438   4.748   4.245   0.378
 8158TIP3    H224439   4.895   4.280   0.366
 8159TIP3   OH224440   2.421   4.606   5.096
 8159TIP3    H124441   2.472   4.684   5.075
 8159TIP3    H224442   2.334   4.640   5.117
 8160TIP3   OH224443   2.657   6.511   4.477
 8160TIP3    H124444   2.679   6.478   4.390
 8160TIP3    H224445   2.718   6.467   4.535
 8161TIP3   OH224446   4.372   3.467   3.847
 8161TIP3    H124447   4.383   3.562   3.842
 8161TIP3    H224448   4.371   3.448   3.941
 8162TIP3   OH224449   2.923   0.385   5.844
 8162TIP3    H124450   2.898   0.343   5.762
 8162TIP3    H224451   2.908   0.479   5.828
 8163TIP3   OH224452   1.272   5.351   0.184
 8163TIP3    H124453   1.353   5.308   0.214
 8163TIP3    H224454   1.242   5.399   0.261
 8164TIP3   OH224455   5.855   3.048   2.462
 8164TIP3    H124456   5.761   3.052   2.450
 8164TIP3    H224457   5.884   3.139   2.454
 8165TIP3   OH224458   4.198   4.148   5.460
 8165TIP3    H124459   4.157   4.229   5.429
 8165TIP3    H224460   4.281   4.176   5.499
 8166TIP3   OH224461   2.610   1.545   1.753
 8166TIP3    H124462   2.681   1.525   1.814
 8166TIP3    H224463   2.563   1.462   1.743
 8167TIP3   OH224464   1.004   1.086   5.769
 8167TIP3    H124465   1.016   1.078   5.864
 8167TIP3    H224466   1.046   1.008   5.733
 8168TIP3   OH224467   5.249   6.719   1.043
 8168TIP3    H124468   5.338   6.754   1.047
 8168TIP3    H224469   5.246   6.671   0.961
 8169TIP3   OH224470   2.454   3.026   2.521
 8169TIP3    H124471   2.376   3.080   2.530
 8169TIP3    H224472   2.445   2.958   2.587
 8170TIP3   OH224473   4.214   2.753   3.549
 8170TIP3    H124474   4.214   2.849   3.549
 8170TIP3    H224475   4.280   2.728   3.613
 8171TIP3   OH224476   0.252   3.238   2.054
 8171TIP3    H124477   0.167   3.233   2.011
 8171TIP3    H224478   0.244   3.313   2.113
 8172TIP3   OH224479   3.249   6.171   0.170
 8172TIP3    H124480   3.249   6.122   0.252
 8172TIP3    H224481   3.273   6.260   0.194
 8173TIP3   OH224482   2.297   6.505   1.612
 8173TIP3    H124483   2.387   6.522   1.584
 8173TIP3    H224484   2.283   6.567   1.684
 8174TIP3   OH224485   4.898   6.033   5.574
 8174TIP3    H124486   4.966   6.037   5.507
 8174TIP3    H224487   4.826   6.085   5.538
 8175TIP3   OH224488   4.541   2.535   0.306
 8175TIP3    H124489   4.551   2.440   0.314
 8175TIP3    H224490   4.447   2.547   0.293
 8176TIP3   OH224491   5.008   3.148   3.122
 8176TIP3    H124492   5.092   3.109   3.148
 8176TIP3    H224493   4.951   3.134   3.197
 8177TIP3   OH224494   4.461   2.646   0.909
 8177TIP3    H124495   4.533   2.609   0.960
 8177TIP3    H224496   4.461   2.596   0.828
 8178TIP3   OH224497   4.491   3.695   1.515
 8178TIP3    H124498   4.436   3.687   1.437
 8178TIP3    H224499   4.458   3.772   1.561
 8179TIP3   OH224500   1.030   2.542   3.100
 8179TIP3    H124501   1.033   2.484   3.176
 8179TIP3    H224502   1.013   2.629   3.136
 8180TIP3   OH224503   5.837   1.287   2.092
 8180TIP3    H124504   5.838   1.238   2.174
 8180TIP3    H224505   5.911   1.252   2.042
 8181TIP3   OH224506   1.203   1.049   0.764
 8181TIP3    H124507   1.267   1.060   0.835
 8181TIP3    H224508   1.154   0.970   0.789
 8182TIP3   OH224509   0.967   2.248   0.942
 8182TIP3    H124510   0.912   2.175   0.915
 8182TIP3    H224511   1.043   2.208   0.983
 8183TIP3   OH224512   2.335  -0.003   4.303
 8183TIP3    H124513   2.277  -0.056   4.358
 8183TIP3    H224514   2.390   0.044   4.365
 8184TIP3   OH224515   2.899   1.618   3.549
 8184TIP3    H124516   2.923   1.661   3.467
 8184TIP3    H224517   2.977   1.626   3.604
 8185TIP3   OH224518   2.430   0.515   4.984
 8185TIP3    H124519   2.420   0.604   5.018
 8185TIP3    H224520   2.439   0.526   4.890
 8186TIP3   OH224521   4.721   4.691   0.952
 8186TIP3    H124522   4.689   4.617   1.003
 8186TIP3    H224523   4.718   4.765   1.012
 8187TIP3   OH224524   0.686   5.229   1.804
 8187TIP3    H124525   0.710   5.267   1.889
 8187TIP3    H224526   0.639   5.299   1.759
 8188TIP3   OH224527   1.897   2.871   5.296
 8188TIP3    H124528   1.935   2.915   5.372
 8188TIP3    H224529   1.831   2.933   5.263
 8189TIP3   OH224530   5.124   3.506   0.475
 8189TIP3    H124531   5.176   3.431   0.504
 8189TIP3    H224532   5.058   3.468   0.416
 8190TIP3   OH224533   0.486   3.174   3.818
 8190TIP3    H124534   0.395   3.203   3.814
 8190TIP3    H224535   0.537   3.253   3.836
 8191TIP3   OH224536   5.386   0.910   1.300
 8191TIP3    H124537   5.422   0.823   1.280
 8191TIP3    H224538   5.457   0.971   1.281
 8192TIP3   OH224539   4.882   3.533   4.189
 8192TIP3    H124540   4.934   3.455   4.207
 8192TIP3    H224541   4.807   3.527   4.248
 8193TIP3   OH224542   4.686   0.526   4.669
 8193TIP3    H124543   4.675   0.433   4.691
 8193TIP3    H224544   4.604   0.550   4.627
 8194TIP3   OH224545   5.140   3.282   2.779
 8194TIP3    H124546   5.059   3.289   2.729
 8194TIP3    H224547   5.209   3.274   2.713
 8195TIP3   OH224548   6.874   1.655   1.462
 8195TIP3    H124549   6.890   1.748   1.480
 8195TIP3    H224550   6.930   1.635   1.387
 8196TIP3   OH224551   2.833   4.380   5.099
 8196TIP3    H124552   2.929   4.387   5.096
 8196TIP3    H224553   2.803   4.432   5.023
 8197TIP3   OH224554   3.681   0.925   5.330
 8197TIP3    H124555   3.752   0.865   5.352
 8197TIP3    H224556   3.625   0.925   5.407
 8198TIP3   OH224557   2.360   1.529   3.994
 8198TIP3    H124558   2.377   1.573   4.078
 8198TIP3    H224559   2.299   1.459   4.016
 8199TIP3   OH224560   7.010   2.808   3.711
 8199TIP3    H124561   6.916   2.795   3.723
 8199TIP3    H224562   7.018   2.874   3.642
 8200TIP3   OH224563   3.019   4.255   2.128
 8200TIP3    H124564   2.981   4.268   2.041
 8200TIP3    H224565   2.982   4.173   2.159
 8201TIP3   OH224566   1.566   3.047   5.609
 8201TIP3    H124567   1.551   2.958   5.577
 8201TIP3    H224568   1.660   3.052   5.623
 8202TIP3   OH224569   4.394   4.612   2.355
 8202TIP3    H124570   4.404   4.689   2.411
 8202TIP3    H224571   4.411   4.645   2.266
 8203TIP3   OH224572   1.995   5.488   0.733
 8203TIP3    H124573   2.084   5.474   0.765
 8203TIP3    H224574   1.984   5.583   0.733
 8204TIP3   OH224575   6.747   0.527   3.263
 8204TIP3    H124576   6.830   0.570   3.285
 8204TIP3    H224577   6.739   0.456   3.326
 8205TIP3   OH224578   5.368   2.792   5.677
 8205TIP3    H124579   5.451   2.840   5.687
 8205TIP3    H224580   5.321   2.809   5.759
 8206TIP3   OH224581   2.845   6.731   4.440
 8206TIP3    H124582   2.930   6.686   4.437
 8206TIP3    H224583   2.781   6.660   4.446
 8207TIP3   OH224584   1.451   5.562   5.698
 8207TIP3    H124585   1.542   5.540   5.720
 8207TIP3    H224586   1.445   5.552   5.603
 8208TIP3   OH224587   2.321   5.889   3.801
 8208TIP3    H124588   2.287   5.830   3.733
 8208TIP3    H224589   2.309   5.977   3.764
 8209TIP3   OH224590   0.390   6.003   5.365
 8209TIP3    H124591   0.412   5.990   5.458
 8209TIP3    H224592   0.296   5.986   5.360
 8210TIP3   OH224593   0.495   5.910   4.967
 8210TIP3    H124594   0.541   5.899   5.050
 8210TIP3    H224595   0.402   5.907   4.991
 8211TIP3   OH224596   7.034   3.243   1.224
 8211TIP3    H124597   6.957   3.231   1.279
 8211TIP3    H224598   7.105   3.202   1.273
 8212TIP3   OH224599   4.411   4.068   2.168
 8212TIP3    H124600   4.436   4.094   2.257
 8212TIP3    H224601   4.327   4.024   2.179
 8213TIP3   OH224602   2.014   0.021   5.278
 8213TIP3    H124603   2.094   0.072   5.264
 8213TIP3    H224604   1.957   0.079   5.328
 8214TIP3   OH224605   6.548   6.211   2.618
 8214TIP3    H124606   6.549   6.268   2.696
 8214TIP3    H224607   6.595   6.132   2.646
 8215TIP3   OH224608   3.476   3.697   1.473
 8215TIP3    H124609   3.437   3.754   1.407
 8215TIP3    H224610   3.488   3.753   1.550
 8216TIP3   OH224611   5.296   1.022   0.652
 8216TIP3    H124612   5.330   1.082   0.586
 8216TIP3    H224613   5.201   1.035   0.649
 8217TIP3   OH224614   4.728   2.027   1.243
 8217TIP3    H124615   4.648   2.060   1.203
 8217TIP3    H224616   4.777   2.106   1.268
 8218TIP3   OH224617   0.968   3.612   3.720
 8218TIP3    H124618   1.034   3.615   3.790
 8218TIP3    H224619   0.917   3.692   3.732
 8219TIP3   OH224620   1.899   3.323   1.749
 8219TIP3    H124621   1.891   3.234   1.785
 8219TIP3    H224622   1.925   3.309   1.657
 8220TIP3   OH224623   2.556   3.074   5.695
 8220TIP3    H124624   2.549   3.033   5.781
 8220TIP3    H224625   2.637   3.124   5.699
 8221TIP3   OH224626   1.642   3.052   5.293
 8221TIP3    H124627   1.598   3.136   5.291
 8221TIP3    H224628   1.572   2.988   5.283
 8222TIP3   OH224629   3.025   4.191   4.480
 8222TIP3    H124630   3.058   4.270   4.522
 8222TIP3    H224631   2.957   4.159   4.539
 8223TIP3   OH224632   6.091   5.306   3.982
 8223TIP3    H124633   6.140   5.371   4.032
 8223TIP3    H224634   6.063   5.352   3.903
 8224TIP3   OH224635   2.778   6.078   4.871
 8224TIP3    H124636   2.710   6.017   4.898
 8224TIP3    H224637   2.752   6.161   4.911
 8225TIP3   OH224638   3.000   5.198   0.529
 8225TIP3    H124639   2.920   5.238   0.495
 8225TIP3    H224640   2.995   5.213   0.624
 8226TIP3   OH224641   4.713   0.298   2.255
 8226TIP3    H124642   4.803   0.277   2.230
 8226TIP3    H224643   4.666   0.306   2.171
 8227TIP3   OH224644   0.135   2.357   3.309
 8227TIP3    H124645   0.057   2.302   3.308
 8227TIP3    H224646   0.102   2.446   3.321
 8228TIP3   OH224647   2.642   4.961   5.294
 8228TIP3    H124648   2.559   4.995   5.261
 8228TIP3    H224649   2.686   4.925   5.218
 8229TIP3   OH224650   2.023   2.056   5.184
 8229TIP3    H124651   2.072   2.078   5.263
 8229TIP3    H224652   2.024   2.137   5.132
 8230TIP3   OH224653   4.424   1.957   2.147
 8230TIP3    H124654   4.450   1.878   2.192
 8230TIP3    H224655   4.366   1.927   2.077
 8231TIP3   OH224656   2.469   1.879   5.695
 8231TIP3    H124657   2.563   1.861   5.687
 8231TIP3    H224658   2.450   1.938   5.621
 8232TIP3   OH224659   1.470   6.156   5.741
 8232TIP3    H124660   1.433   6.237   5.776
 8232TIP3    H224661   1.419   6.139   5.662
 8233TIP3   OH224662   4.448   4.777   0.051
 8233TIP3    H124663   4.411   4.701   0.005
 8233TIP3    H224664   4.374   4.836   0.063
 8234TIP3   OH224665   5.696   5.893   5.762
 8234TIP3    H124666   5.747   5.917   5.685
 8234TIP3    H224667   5.743   5.819   5.800
 8235TIP3   OH224668   2.916   5.482   4.225
 8235TIP3    H124669   2.879   5.394   4.233
 8235TIP3    H224670   2.967   5.494   4.306
 8236TIP3   OH224671   3.784   6.753   0.810
 8236TIP3    H124672   3.692   6.754   0.784
 8236TIP3    H224673   3.800   6.839   0.847
 8237TIP3   OH224674   5.985   4.875   5.745
 8237TIP3    H124675   5.997   4.960   5.703
 8237TIP3    H224676   5.981   4.895   5.839
 8238TIP3   OH224677   3.160   4.036   0.171
 8238TIP3    H124678   3.126   4.088   0.098
 8238TIP3    H224679   3.246   4.005   0.140
 8239TIP3   OH224680   1.734   1.359   2.835
 8239TIP3    H124681   1.774   1.400   2.911
 8239TIP3    H224682   1.780   1.275   2.827
 8240TIP3   OH224683   0.043   5.738   5.742
 8240TIP3    H124684   0.079   5.812   5.791
 8240TIP3    H224685   0.097   5.663   5.769
 8241TIP3   OH224686   1.341   2.727   1.639
 8241TIP3    H124687   1.330   2.800   1.577
 8241TIP3    H224688   1.276   2.743   1.707
 8242TIP3   OH224689   1.657   3.271   2.596
 8242TIP3    H124690   1.584   3.250   2.654
 8242TIP3    H224691   1.616   3.306   2.517
 8243TIP3   OH224692   5.764   5.737   1.150
 8243TIP3    H124693   5.767   5.819   1.198
 8243TIP3    H224694   5.849   5.729   1.107
 8244TIP3   OH224695   7.112   3.846   0.564
 8244TIP3    H124696   7.034   3.897   0.582
 8244TIP3    H224697   7.183   3.894   0.607
 8245TIP3   OH224698   5.278   1.708   2.341
 8245TIP3    H124699   5.273   1.796   2.303
 8245TIP3    H224700   5.318   1.655   2.272
 8246TIP3   OH224701   3.263   0.871   1.791
 8246TIP3    H124702   3.264   0.936   1.861
 8246TIP3    H224703   3.354   0.843   1.781
 8247TIP3   OH224704   2.859   5.475   1.922
 8247TIP3    H124705   2.779   5.502   1.967
 8247TIP3    H224706   2.921   5.546   1.939
 8248TIP3   OH224707   0.072   3.692   4.812
 8248TIP3    H124708   0.106   3.610   4.847
 8248TIP3    H224709   0.001   3.715   4.872
 8249TIP3   OH224710   0.383   0.459   5.256
 8249TIP3    H124711   0.330   0.491   5.329
 8249TIP3    H224712   0.393   0.365   5.274
 8250TIP3   OH224713   3.144   5.107   2.717
 8250TIP3    H124714   3.106   5.143   2.636
 8250TIP3    H224715   3.114   5.167   2.785
 8251TIP3   OH224716   5.291   6.396   1.853
 8251TIP3    H124717   5.284   6.413   1.759
 8251TIP3    H224718   5.235   6.462   1.894
 8252TIP3   OH224719   6.936   1.917   4.605
 8252TIP3    H124720   6.853   1.918   4.557
 8252TIP3    H224721   7.002   1.933   4.537
 8253TIP3   OH224722   3.680   2.594   1.721
 8253TIP3    H124723   3.694   2.573   1.628
 8253TIP3    H224724   3.593   2.634   1.723
 8254TIP3   OH224725   0.383   3.030   2.811
 8254TIP3    H124726   0.353   3.111   2.851
 8254TIP3    H224727   0.471   3.016   2.847
 8255TIP3   OH224728   0.666   6.696   1.038
 8255TIP3    H124729   0.735   6.646   0.994
 8255TIP3    H224730   0.645   6.645   1.116
 8256TIP3   OH224731   2.103   6.111   5.473
 8256TIP3    H124732   2.083   6.119   5.566
 8256TIP3    H224733   2.068   6.026   5.447
 8257TIP3   OH224734   3.264   0.098   2.578
 8257TIP3    H124735   3.273   0.187   2.612
 8257TIP3    H224736   3.235   0.109   2.487
 8258TIP3   OH224737   2.880   3.866   1.480
 8258TIP3    H124738   2.841   3.946   1.444
 8258TIP3    H224739   2.848   3.862   1.570
 8259TIP3   OH224740   0.440   2.122   5.801
 8259TIP3    H124741   0.352   2.156   5.818
 8259TIP3    H224742   0.425   2.035   5.764
 8260TIP3   OH224743   2.222   5.307   5.073
 8260TIP3    H124744   2.137   5.287   5.112
 8260TIP3    H224745   2.212   5.286   4.980
 8261TIP3   OH224746   5.107   2.390   4.817
 8261TIP3    H124747   5.084   2.380   4.725
 8261TIP3    H224748   5.042   2.451   4.852
 8262TIP3   OH224749   1.934   4.655   2.974
 8262TIP3    H124750   1.905   4.628   3.061
 8262TIP3    H224751   1.857   4.695   2.934
 8263TIP3   OH224752   3.061   1.279   3.680
 8263TIP3    H124753   3.144   1.287   3.632
 8263TIP3    H224754   3.014   1.210   3.635
 8264TIP3   OH224755   1.821   4.040   3.347
 8264TIP3    H124756   1.746   4.095   3.326
 8264TIP3    H224757   1.794   3.952   3.320
 8265TIP3   OH224758   0.316   6.230   0.732
 8265TIP3    H124759   0.338   6.318   0.703
 8265TIP3    H224760   0.222   6.232   0.746
 8266TIP3   OH224761   0.658   0.201   3.952
 8266TIP3    H124762   0.732   0.208   4.013
 8266TIP3    H224763   0.614   0.120   3.979
 8267TIP3   OH224764   4.500   1.526   4.093
 8267TIP3    H124765   4.488   1.597   4.030
 8267TIP3    H224766   4.588   1.494   4.077
 8268TIP3   OH224767   3.785   0.110   1.079
 8268TIP3    H124768   3.867   0.060   1.069
 8268TIP3    H224769   3.722   0.045   1.111
 8269TIP3   OH224770   0.193   5.679   1.692
 8269TIP3    H124771   0.216   5.622   1.619
 8269TIP3    H224772   0.139   5.748   1.652
 8270TIP3   OH224773   0.159   6.335   0.316
 8270TIP3    H124774   0.177   6.250   0.275
 8270TIP3    H224775   0.238   6.354   0.367
 8271TIP3   OH224776   4.779   0.512   5.848
 8271TIP3    H124777   4.725   0.535   5.773
 8271TIP3    H224778   4.716   0.501   5.920
 8272TIP3   OH224779   5.132   1.319   2.773
 8272TIP3    H124780   5.089   1.236   2.751
 8272TIP3    H224781   5.166   1.351   2.689
 8273TIP3   OH224782   4.001   4.776   2.607
 8273TIP3    H124783   4.054   4.854   2.593
 8273TIP3    H224784   4.061   4.713   2.647
 8274TIP3   OH224785   2.421   6.135   3.367
 8274TIP3    H124786   2.454   6.049   3.392
 8274TIP3    H224787   2.478   6.162   3.295
 8275TIP3   OH224788   6.257   6.109   2.691
 8275TIP3    H124789   6.242   6.096   2.785
 8275TIP3    H224790   6.253   6.204   2.680
 8276TIP3   OH224791   0.079   2.692   4.489
 8276TIP3    H124792   0.098   2.757   4.557
 8276TIP3    H224793   0.026   2.738   4.425
 8277TIP3   OH224794   1.943   0.783   4.327
 8277TIP3    H124795   1.986   0.825   4.252
 8277TIP3    H224796   1.935   0.854   4.391
 8278TIP3   OH224797   5.369   1.103   2.316
 8278TIP3    H124798   5.400   1.192   2.333
 8278TIP3    H224799   5.374   1.094   2.221
 8279TIP3   OH224800   1.979   5.121   5.042
 8279TIP3    H124801   1.954   5.180   5.113
 8279TIP3    H224802   1.900   5.113   4.989
 8280TIP3   OH224803   7.013   6.547   5.060
 8280TIP3    H124804   7.011   6.543   5.155
 8280TIP3    H224805   7.068   6.473   5.033
 8281TIP3   OH224806   1.558   3.010   1.610
 8281TIP3    H124807   1.564   3.068   1.534
 8281TIP3    H224808   1.580   2.924   1.576
 8282TIP3   OH224809   4.810   3.941   1.881
 8282TIP3    H124810   4.848   3.923   1.795
 8282TIP3    H224811   4.716   3.947   1.865
 8283TIP3   OH224812   2.636   3.594   2.624
 8283TIP3    H124813   2.552   3.625   2.589
 8283TIP3    H224814   2.624   3.597   2.719
 8284TIP3   OH224815   2.436   0.729   4.334
 8284TIP3    H124816   2.510   0.702   4.388
 8284TIP3    H224817   2.429   0.661   4.267
 8285TIP3   OH224818   5.632   5.760   3.650
 8285TIP3    H124819   5.552   5.811   3.658
 8285TIP3    H224820   5.689   5.812   3.594
 8286TIP3   OH224821   5.163   6.685   1.999
 8286TIP3    H124822   5.118   6.602   1.985
 8286TIP3    H224823   5.096   6.744   2.034
 8287TIP3   OH224824   3.010   0.187   0.701
 8287TIP3    H124825   2.964   0.270   0.713
 8287TIP3    H224826   3.094   0.199   0.745
 8288TIP3   OH224827   2.725   0.676   5.163
 8288TIP3    H124828   2.684   0.653   5.247
 8288TIP3    H224829   2.771   0.597   5.137
 8289TIP3   OH224830   6.533   0.010   1.645
 8289TIP3    H124831   6.522   0.056   1.562
 8289TIP3    H224832   6.542   0.080   1.710
 8290TIP3   OH224833   3.330   6.192   1.066
 8290TIP3    H124834   3.421   6.205   1.095
 8290TIP3    H224835   3.322   6.245   0.987
 8291TIP3   OH224836   2.505   1.373   4.940
 8291TIP3    H124837   2.511   1.285   4.977
 8291TIP3    H224838   2.522   1.431   5.014
 8292TIP3   OH224839   7.155   5.516   5.090
 8292TIP3    H124840   7.194   5.499   5.004
 8292TIP3    H224841   7.118   5.432   5.117
 8293TIP3   OH224842   5.927   4.219   3.514
 8293TIP3    H124843   5.938   4.257   3.427
 8293TIP3    H224844   5.914   4.295   3.571
 8294TIP3   OH224845   1.115   3.513   1.817
 8294TIP3    H124846   1.054   3.585   1.832
 8294TIP3    H224847   1.088   3.476   1.733
 8295TIP3   OH224848   0.075   3.812   0.289
 8295TIP3    H124849   0.145   3.758   0.327
 8295TIP3    H224850   0.023   3.750   0.237
 8296TIP3   OH224851   5.671   0.317   3.404
 8296TIP3    H124852   5.694   0.394   3.456
 8296TIP3    H224853   5.711   0.244   3.451
 8297TIP3   OH224854   2.156   3.781   3.841
 8297TIP3    H124855   2.149   3.875   3.824
 8297TIP3    H224856   2.085   3.743   3.789
 8298TIP3   OH224857   4.520   2.367   1.887
 8298TIP3    H124858   4.449   2.308   1.862
 8298TIP3    H224859   4.488   2.411   1.966
 8299TIP3   OH224860   4.538   3.904   1.928
 8299TIP3    H124861   4.479   3.979   1.928
 8299TIP3    H224862   4.562   3.893   2.021
 8300TIP3   OH224863   6.972   0.680   0.733
 8300TIP3    H124864   6.951   0.648   0.821
 8300TIP3    H224865   6.988   0.774   0.744
 8301TIP3   OH224866   3.938   1.292   1.407
 8301TIP3    H124867   3.906   1.249   1.486
 8301TIP3    H224868   3.946   1.384   1.432
 8302TIP3   OH224869   3.549   2.873   1.459
 8302TIP3    H124870   3.613   2.904   1.394
 8302TIP3    H224871   3.563   2.930   1.535
 8303TIP3   OH224872   2.630   2.347   2.828
 8303TIP3    H124873   2.653   2.302   2.747
 8303TIP3    H224874   2.627   2.277   2.893
 8304TIP3   OH224875   5.455   1.256   1.370
 8304TIP3    H124876   5.484   1.327   1.313
 8304TIP3    H224877   5.518   1.186   1.355
 8305TIP3   OH224878   4.972   3.300   5.513
 8305TIP3    H124879   5.027   3.252   5.451
 8305TIP3    H224880   4.971   3.390   5.480
 8306TIP3   OH224881   1.084   4.141   2.883
 8306TIP3    H124882   1.019   4.090   2.833
 8306TIP3    H224883   1.076   4.108   2.973
 8307TIP3   OH224884   1.961   1.179   4.951
 8307TIP3    H124885   1.874   1.143   4.967
 8307TIP3    H224886   2.006   1.171   5.035
 8308TIP3   OH224887   2.169   1.844   2.185
 8308TIP3    H124888   2.166   1.939   2.172
 8308TIP3    H224889   2.144   1.832   2.277
 8309TIP3   OH224890   2.954   3.243   1.003
 8309TIP3    H124891   2.919   3.328   0.976
 8309TIP3    H224892   3.026   3.265   1.062
 8310TIP3   OH224893   4.226   3.061   5.681
 8310TIP3    H124894   4.154   3.017   5.726
 8310TIP3    H224895   4.248   3.003   5.608
 8311TIP3   OH224896   6.745   5.439   5.808
 8311TIP3    H124897   6.724   5.360   5.858
 8311TIP3    H224898   6.775   5.406   5.723
 8312TIP3   OH224899   5.173   5.460   1.845
 8312TIP3    H124900   5.252   5.410   1.824
 8312TIP3    H224901   5.179   5.538   1.790
 8313TIP3   OH224902   6.905   4.336   4.192
 8313TIP3    H124903   6.997   4.339   4.217
 8313TIP3    H224904   6.906   4.337   4.096
 8314TIP3   OH224905   4.167   5.003   2.630
 8314TIP3    H124906   4.228   5.017   2.558
 8314TIP3    H224907   4.159   5.089   2.671
 8315TIP3   OH224908   5.113   1.775   3.598
 8315TIP3    H124909   5.141   1.761   3.688
 8315TIP3    H224910   5.018   1.784   3.604
 8316TIP3   OH224911   5.991   4.332   5.873
 8316TIP3    H124912   6.031   4.255   5.914
 8316TIP3    H224913   5.980   4.308   5.781
 8317TIP3   OH224914   5.701   0.950   3.613
 8317TIP3    H124915   5.694   0.950   3.518
 8317TIP3    H224916   5.795   0.947   3.630
 8318TIP3   OH224917   0.869   2.288   0.300
 8318TIP3    H124918   0.877   2.378   0.330
 8318TIP3    H224919   0.958   2.260   0.283
 8319TIP3   OH224920   6.037   5.143   4.304
 8319TIP3    H124921   5.983   5.166   4.380
 8319TIP3    H224922   5.976   5.103   4.243
 8320TIP3   OH224923   3.055   5.253   4.863
 8320TIP3    H124924   3.092   5.324   4.915
 8320TIP3    H224925   2.966   5.280   4.845
 8321TIP3   OH224926   3.070   3.763   0.754
 8321TIP3    H124927   3.054   3.817   0.831
 8321TIP3    H224928   3.138   3.701   0.781
 8322TIP3   OH224929   1.822   0.946   5.278
 8322TIP3    H124930   1.879   0.870   5.269
 8322TIP3    H224931   1.881   1.021   5.271
 8323TIP3   OH224932   3.924   5.547   2.451
 8323TIP3    H124933   3.829   5.539   2.452
 8323TIP3    H224934   3.944   5.595   2.370
 8324TIP3   OH224935   1.435   0.680   3.944
 8324TIP3    H124936   1.362   0.730   3.982
 8324TIP3    H224937   1.406   0.588   3.950
 8325TIP3   OH224938   5.193   6.549   3.512
 8325TIP3    H124939   5.109   6.530   3.471
 8325TIP3    H224940   5.176   6.545   3.606
 8326TIP3   OH224941   1.797   5.945   4.581
 8326TIP3    H124942   1.796   5.920   4.489
 8326TIP3    H224943   1.876   5.999   4.590
 8327TIP3   OH224944   3.195   0.122   2.315
 8327TIP3    H124945   3.109   0.082   2.303
 8327TIP3    H224946   3.192   0.201   2.261
 8328TIP3   OH224947   6.766   6.388   1.543
 8328TIP3    H124948   6.711   6.465   1.529
 8328TIP3    H224949   6.804   6.370   1.457
 8329TIP3   OH224950   6.010   1.644   1.878
 8329TIP3    H124951   6.056   1.569   1.839
 8329TIP3    H224952   5.920   1.614   1.888
 8330TIP3   OH224953   1.950   3.855   0.297
 8330TIP3    H124954   2.010   3.926   0.273
 8330TIP3    H224955   1.873   3.868   0.242
 8331TIP3   OH224956   0.727   6.218   1.097
 8331TIP3    H124957   0.744   6.211   1.003
 8331TIP3    H224958   0.791   6.282   1.128
 8332TIP3   OH224959   3.654   0.226   2.709
 8332TIP3    H124960   3.569   0.211   2.749
 8332TIP3    H224961   3.691   0.139   2.697
 8333TIP3   OH224962   1.628   3.597   0.590
 8333TIP3    H124963   1.600   3.506   0.577
 8333TIP3    H224964   1.547   3.648   0.587
 8334TIP3   OH224965   5.247   3.029   4.026
 8334TIP3    H124966   5.285   2.941   4.019
 8334TIP3    H224967   5.313   3.080   4.071
 8335TIP3   OH224968   1.281   0.898   3.655
 8335TIP3    H124969   1.247   0.896   3.565
 8335TIP3    H224970   1.375   0.883   3.645
 8336TIP3   OH224971   0.809   4.085   3.893
 8336TIP3    H124972   0.853   4.166   3.918
 8336TIP3    H224973   0.840   4.020   3.956
 8337TIP3   OH224974   1.876   5.460   3.862
 8337TIP3    H124975   1.951   5.491   3.811
 8337TIP3    H224976   1.909   5.384   3.910
 8338TIP3   OH224977   5.126   1.168   1.026
 8338TIP3    H124978   5.135   1.130   1.114
 8338TIP3    H224979   5.201   1.226   1.017
 8339TIP3   OH224980   3.688   2.497   0.987
 8339TIP3    H124981   3.683   2.550   0.908
 8339TIP3    H224982   3.761   2.535   1.036
 8340TIP3   OH224983   6.915   3.033   4.205
 8340TIP3    H124984   6.945   2.964   4.146
 8340TIP3    H224985   6.859   3.088   4.150
 8341TIP3   OH224986   3.757   2.613   2.503
 8341TIP3    H124987   3.663   2.611   2.484
 8341TIP3    H224988   3.770   2.541   2.566
 8342TIP3   OH224989   4.286   0.139   2.466
 8342TIP3    H124990   4.332   0.096   2.539
 8342TIP3    H224991   4.209   0.178   2.506
 8343TIP3   OH224992   6.212   6.594   1.902
 8343TIP3    H124993   6.166   6.637   1.830
 8343TIP3    H224994   6.146   6.583   1.970
 8344TIP3   OH224995   1.095   3.000   5.735
 8344TIP3    H124996   1.151   2.998   5.657
 8344TIP3    H224997   1.031   2.931   5.720
 8345TIP3   OH224998   1.517   6.342   5.399
 8345TIP3    H124999   1.536   6.248   5.393
 8345TIP3    H225000   1.602   6.384   5.389
 8346TIP3   OH225001  -0.014   3.041  -0.044
 8346TIP3    H125002   0.064   3.097  -0.047
 8346TIP3    H225003  -0.002   2.987   0.034
 8347TIP3   OH225004   2.976   2.453   5.420
 8347TIP3    H125005   3.002   2.465   5.329
 8347TIP3    H225006   2.913   2.523   5.436
 8348TIP3   OH225007   0.156   2.385   3.625
 8348TIP3    H125008   0.088   2.444   3.656
 8348TIP3    H225009   0.209   2.438   3.565
 8349TIP3   OH225010   4.916   1.019   0.182
 8349TIP3    H125011   4.962   1.098   0.211
 8349TIP3    H225012   4.862   1.049   0.109
 8350TIP3   OH225013   5.868   1.936   3.355
 8350TIP3    H125014   5.920   1.945   3.275
 8350TIP3    H225015   5.832   2.023   3.370
 8351TIP3   OH225016   0.053   2.288   2.489
 8351TIP3    H125017   0.136   2.309   2.533
 8351TIP3    H225018   0.071   2.207   2.442
 8352TIP3   OH225019   1.366   0.071   5.112
 8352TIP3    H125020   1.294   0.009   5.103
 8352TIP3    H225021   1.444   0.016   5.118
 8353TIP3   OH225022   4.844   3.792   0.652
 8353TIP3    H125023   4.769   3.839   0.617
 8353TIP3    H225024   4.888   3.855   0.709
 8354TIP3   OH225025   0.674   5.848   5.782
 8354TIP3    H125026   0.630   5.795   5.715
 8354TIP3    H225027   0.711   5.785   5.843
 8355TIP3   OH225028   5.640   2.609   2.087
 8355TIP3    H125029   5.624   2.629   2.180
 8355TIP3    H225030   5.735   2.615   2.077
 8356TIP3   OH225031   4.446   5.261   1.328
 8356TIP3    H125032   4.425   5.277   1.236
 8356TIP3    H225033   4.411   5.337   1.374
 8357TIP3   OH225034   0.555   4.044   2.639
 8357TIP3    H125035   0.571   3.982   2.568
 8357TIP3    H225036   0.509   4.117   2.598
 8358TIP3   OH225037   5.030   1.256   3.988
 8358TIP3    H125038   5.054   1.295   4.073
 8358TIP3    H225039   5.031   1.162   4.005
 8359TIP3   OH225040   0.933   1.192   4.151
 8359TIP3    H125041   1.000   1.202   4.083
 8359TIP3    H225042   0.943   1.103   4.183
 8360TIP3   OH225043   1.056   0.699   4.412
 8360TIP3    H125044   1.098   0.715   4.497
 8360TIP3    H225045   0.996   0.772   4.402
 8361TIP3   OH225046   3.959   5.917   1.323
 8361TIP3    H125047   3.878   5.968   1.311
 8361TIP3    H225048   4.016   5.974   1.375
 8362TIP3   OH225049   5.954   6.734   5.136
 8362TIP3    H125050   5.969   6.655   5.188
 8362TIP3    H225051   5.898   6.788   5.192
 8363TIP3   OH225052   0.784   4.428   2.678
 8363TIP3    H125053   0.866   4.422   2.727
 8363TIP3    H225054   0.743   4.508   2.712
 8364TIP3   OH225055   5.134   3.716   4.419
 8364TIP3    H125056   5.125   3.635   4.368
 8364TIP3    H225057   5.183   3.689   4.497
 8365TIP3   OH225058   0.919   4.080   0.368
 8365TIP3    H125059   0.841   4.033   0.395
 8365TIP3    H225060   0.887   4.164   0.336
 8366TIP3   OH225061   6.354   3.623   1.429
 8366TIP3    H125062   6.317   3.698   1.475
 8366TIP3    H225063   6.376   3.656   1.342
 8367TIP3   OH225064   5.645   1.608   1.001
 8367TIP3    H125065   5.681   1.686   1.042
 8367TIP3    H225066   5.558   1.635   0.971
 8368TIP3   OH225067   6.603   4.572   1.869
 8368TIP3    H125068   6.645   4.561   1.954
 8368TIP3    H225069   6.653   4.516   1.810
 8369TIP3   OH225070   1.218   0.881   0.121
 8369TIP3    H125071   1.225   0.790   0.148
 8369TIP3    H225072   1.304   0.919   0.139
 8370TIP3   OH225073   3.846   0.706   0.528
 8370TIP3    H125074   3.878   0.794   0.548
 8370TIP3    H225075   3.889   0.683   0.446
 8371TIP3   OH225076   2.035   5.473   4.740
 8371TIP3    H125077   2.072   5.392   4.775
 8371TIP3    H225078   2.085   5.543   4.782
 8372TIP3   OH225079   0.565   0.136   3.070
 8372TIP3    H125080   0.656   0.109   3.058
 8372TIP3    H225081   0.570   0.229   3.091
 8373TIP3   OH225082   0.580   5.080   0.026
 8373TIP3    H125083   0.578   5.051   0.118
 8373TIP3    H225084   0.674   5.087   0.006
 8374TIP3   OH225085   3.517   2.654   5.278
 8374TIP3    H125086   3.433   2.608   5.287
 8374TIP3    H225087   3.499   2.727   5.220
 8375TIP3   OH225088   4.486   1.649   5.795
 8375TIP3    H125089   4.541   1.704   5.851
 8375TIP3    H225090   4.540   1.572   5.776
 8376TIP3   OH225091   0.818   0.495   2.904
 8376TIP3    H125092   0.841   0.536   2.987
 8376TIP3    H225093   0.727   0.466   2.915
 8377TIP3   OH225094   2.635   4.401   2.606
 8377TIP3    H125095   2.544   4.390   2.579
 8377TIP3    H225096   2.656   4.492   2.587
 8378TIP3   OH225097   1.304   2.624   2.847
 8378TIP3    H125098   1.374   2.581   2.897
 8378TIP3    H225099   1.349   2.680   2.785
 8379TIP3   OH225100   5.579   1.189   3.204
 8379TIP3    H125101   5.495   1.212   3.245
 8379TIP3    H225102   5.628   1.271   3.204
 8380TIP3   OH225103   0.162   1.547   5.645
 8380TIP3    H125104   0.184   1.597   5.566
 8380TIP3    H225105   0.071   1.521   5.632
 8381TIP3   OH225106   0.153   1.084   3.388
 8381TIP3    H125107   0.220   1.041   3.441
 8381TIP3    H225108   0.164   1.177   3.406
 8382TIP3   OH225109   3.407   0.467   2.312
 8382TIP3    H125110   3.474   0.399   2.306
 8382TIP3    H225111   3.374   0.476   2.222
 8383TIP3   OH225112   2.211   3.787   2.668
 8383TIP3    H125113   2.211   3.719   2.735
 8383TIP3    H225114   2.137   3.765   2.611
 8384TIP3   OH225115   3.383   6.544   2.838
 8384TIP3    H125116   3.465   6.498   2.856
 8384TIP3    H225117   3.339   6.547   2.922
 8385TIP3   OH225118   0.865   0.230   1.436
 8385TIP3    H125119   0.907   0.297   1.490
 8385TIP3    H225120   0.918   0.151   1.450
 8386TIP3   OH225121   4.600   0.737   3.315
 8386TIP3    H125122   4.695   0.727   3.305
 8386TIP3    H225123   4.582   0.827   3.288
 8387TIP3   OH225124   6.568   6.737   1.855
 8387TIP3    H125125   6.648   6.787   1.841
 8387TIP3    H225126   6.598   6.646   1.863
 8388TIP3   OH225127   3.400   3.302   0.373
 8388TIP3    H125128   3.474   3.317   0.432
 8388TIP3    H225129   3.323   3.326   0.425
 8389TIP3   OH225130   6.877   2.705   0.286
 8389TIP3    H125131   6.890   2.786   0.336
 8389TIP3    H225132   6.782   2.699   0.276
 8390TIP3   OH225133   4.001   5.056   5.178
 8390TIP3    H125134   4.054   5.105   5.115
 8390TIP3    H225135   3.922   5.033   5.130
 8391TIP3   OH225136   1.132   1.177   3.398
 8391TIP3    H125137   1.042   1.198   3.424
 8391TIP3    H225138   1.153   1.097   3.447
 8392TIP3   OH225139   5.493   3.756   5.637
 8392TIP3    H125140   5.563   3.719   5.691
 8392TIP3    H225141   5.478   3.843   5.674
 8393TIP3   OH225142   4.476   2.320   5.074
 8393TIP3    H125143   4.553   2.311   5.017
 8393TIP3    H225144   4.484   2.248   5.136
 8394TIP3   OH225145   4.176   5.953   5.042
 8394TIP3    H125146   4.112   5.954   4.971
 8394TIP3    H225147   4.127   5.922   5.118
 8395TIP3   OH225148   5.541   4.001   4.429
 8395TIP3    H125149   5.635   3.992   4.413
 8395TIP3    H225150   5.512   4.065   4.364
 8396TIP3   OH225151   2.152   3.062   3.176
 8396TIP3    H125152   2.070   3.101   3.207
 8396TIP3    H225153   2.133   2.968   3.170
 8397TIP3   OH225154   0.068   3.338   2.951
 8397TIP3    H125155   0.031   3.393   2.883
 8397TIP3    H225156   0.038   3.249   2.929
 8398TIP3   OH225157   6.315   1.803   4.663
 8398TIP3    H125158   6.289   1.710   4.665
 8398TIP3    H225159   6.394   1.804   4.609
 8399TIP3   OH225160   5.829   6.432   5.147
 8399TIP3    H125161   5.739   6.422   5.179
 8399TIP3    H225162   5.883   6.423   5.225
 8400TIP3   OH225163   2.596   0.808   0.348
 8400TIP3    H125164   2.684   0.845   0.337
 8400TIP3    H225165   2.559   0.855   0.423
 8401TIP3   OH225166   5.377   1.217   2.875
 8401TIP3    H125167   5.283   1.233   2.881
 8401TIP3    H225168   5.387   1.125   2.900
 8402TIP3   OH225169   6.048   4.821   4.243
 8402TIP3    H125170   6.035   4.897   4.188
 8402TIP3    H225171   5.961   4.781   4.249
 8403TIP3   OH225172   6.792   2.832   5.054
 8403TIP3    H125173   6.737   2.905   5.027
 8403TIP3    H225174   6.751   2.798   5.133
 8404TIP3   OH225175   6.037   2.409   1.984
 8404TIP3    H125176   6.113   2.407   2.041
 8404TIP3    H225177   6.072   2.424   1.897
 8405TIP3   OH225178   1.158   1.581   4.078
 8405TIP3    H125179   1.237   1.557   4.127
 8405TIP3    H225180   1.189   1.639   4.009
 8406TIP3   OH225181   3.128   6.538   2.183
 8406TIP3    H125182   3.196   6.588   2.137
 8406TIP3    H225183   3.143   6.447   2.156
 8407TIP3   OH225184   6.544   2.151   4.317
 8407TIP3    H125185   6.595   2.092   4.261
 8407TIP3    H225186   6.495   2.206   4.257
 8408TIP3   OH225187   5.120   6.056   5.724
 8408TIP3    H125188   5.031   6.042   5.693
 8408TIP3    H225189   5.123   6.148   5.749
 8409TIP3   OH225190   5.152   5.403   0.115
 8409TIP3    H125191   5.227   5.455   0.146
 8409TIP3    H225192   5.179   5.312   0.127
 8410TIP3   OH225193   3.190   4.443   0.667
 8410TIP3    H125194   3.140   4.371   0.628
 8410TIP3    H225195   3.230   4.488   0.593
 8411TIP3   OH225196   6.657   6.147   1.677
 8411TIP3    H125197   6.622   6.102   1.600
 8411TIP3    H225198   6.702   6.224   1.641
 8412TIP3   OH225199   1.822   1.417   1.813
 8412TIP3    H125200   1.918   1.417   1.807
 8412TIP3    H225201   1.793   1.436   1.724
 8413TIP3   OH225202   3.911   5.254   5.859
 8413TIP3    H125203   3.858   5.253   5.939
 8413TIP3    H225204   3.869   5.320   5.804
 8414TIP3   OH225205   3.644   6.340   2.623
 8414TIP3    H125206   3.684   6.410   2.571
 8414TIP3    H225207   3.559   6.326   2.582
 8415TIP3   OH225208   4.380   3.431   1.469
 8415TIP3    H125209   4.386   3.473   1.383
 8415TIP3    H225210   4.313   3.482   1.516
 8416TIP3   OH225211   2.384   1.101   3.147
 8416TIP3    H125212   2.442   1.177   3.151
 8416TIP3    H225213   2.361   1.092   3.055
 8417TIP3   OH225214   3.158   4.879   4.154
 8417TIP3    H125215   3.242   4.835   4.164
 8417TIP3    H225216   3.156   4.907   4.063
 8418TIP3   OH225217   0.726   1.365   0.943
 8418TIP3    H125218   0.706   1.386   1.034
 8418TIP3    H225219   0.816   1.395   0.932
 8419TIP3   OH225220   3.750   0.420   2.879
 8419TIP3    H125221   3.822   0.373   2.922
 8419TIP3    H225222   3.708   0.354   2.823
 8420TIP3   OH225223   3.236   1.454   3.893
 8420TIP3    H125224   3.245   1.381   3.833
 8420TIP3    H225225   3.150   1.442   3.933
 8421TIP3   OH225226   3.792   1.639   4.169
 8421TIP3    H125227   3.883   1.663   4.147
 8421TIP3    H225228   3.770   1.571   4.106
 8422TIP3   OH225229   3.170   2.888   1.376
 8422TIP3    H125230   3.169   2.877   1.281
 8422TIP3    H225231   3.231   2.960   1.391
 8423TIP3   OH225232   1.153   3.581   5.339
 8423TIP3    H125233   1.199   3.607   5.260
 8423TIP3    H225234   1.168   3.486   5.346
 8424TIP3   OH225235   5.805   4.951   0.639
 8424TIP3    H125236   5.749   4.909   0.574
 8424TIP3    H225237   5.892   4.913   0.624
 8425TIP3   OH225238   3.344   3.020   4.979
 8425TIP3    H125239   3.264   3.000   4.930
 8425TIP3    H225240   3.413   3.019   4.913
 8426TIP3   OH225241   3.420   2.085   2.076
 8426TIP3    H125242   3.509   2.118   2.083
 8426TIP3    H225243   3.375   2.149   2.020
 8427TIP3   OH225244   1.380   5.277   3.683
 8427TIP3    H125245   1.390   5.240   3.596
 8427TIP3    H225246   1.464   5.321   3.700
 8428TIP3   OH225247   0.839   6.001   1.889
 8428TIP3    H125248   0.840   6.094   1.865
 8428TIP3    H225249   0.902   5.994   1.960
 8429TIP3   OH225250   2.426   6.764   1.085
 8429TIP3    H125251   2.473   6.727   1.010
 8429TIP3    H225252   2.355   6.701   1.102
 8430TIP3   OH225253   3.735   5.236   1.076
 8430TIP3    H125254   3.820   5.197   1.092
 8430TIP3    H225255   3.710   5.205   0.989
 8431TIP3   OH225256   4.945   4.896   0.932
 8431TIP3    H125257   4.906   4.974   0.891
 8431TIP3    H225258   4.874   4.833   0.937
 8432TIP3   OH225259   2.119   2.322   1.802
 8432TIP3    H125260   2.112   2.395   1.740
 8432TIP3    H225261   2.058   2.256   1.768
 8433TIP3   OH225262   4.528   5.680   2.833
 8433TIP3    H125263   4.436   5.669   2.859
 8433TIP3    H225264   4.545   5.773   2.845
 8434TIP3   OH225265   5.171   1.539   2.583
 8434TIP3    H125266   5.230   1.585   2.523
 8434TIP3    H225267   5.137   1.465   2.533
 8435TIP3   OH225268   3.256   5.446   2.804
 8435TIP3    H125269   3.247   5.493   2.887
 8435TIP3    H225270   3.221   5.507   2.738
 8436TIP3   OH225271   4.036   1.718   4.047
 8436TIP3    H125272   4.110   1.752   3.996
 8436TIP3    H225273   4.073   1.643   4.094
 8437TIP3   OH225274   1.277   6.291   5.921
 8437TIP3    H125275   1.224   6.267   5.845
 8437TIP3    H225276   1.289   6.386   5.913
 8438TIP3   OH225277   2.637   4.875   2.726
 8438TIP3    H125278   2.728   4.846   2.723
 8438TIP3    H225279   2.629   4.935   2.651
 8439TIP3   OH225280   4.589   1.462   0.125
 8439TIP3    H125281   4.611   1.374   0.155
 8439TIP3    H225282   4.669   1.513   0.139
 8440TIP3   OH225283   1.944   6.357   4.657
 8440TIP3    H125284   1.977   6.280   4.611
 8440TIP3    H225285   2.017   6.420   4.653
 8441TIP3   OH225286   6.703   1.253   4.237
 8441TIP3    H125287   6.742   1.193   4.301
 8441TIP3    H225288   6.776   1.310   4.210
 8442TIP3   OH225289   1.237   1.402   0.292
 8442TIP3    H125290   1.172   1.389   0.362
 8442TIP3    H225291   1.222   1.492   0.264
 8443TIP3   OH225292   5.692   4.733   3.698
 8443TIP3    H125293   5.657   4.644   3.702
 8443TIP3    H225294   5.615   4.789   3.713
 8444TIP3   OH225295   2.237   3.515   4.976
 8444TIP3    H125296   2.190   3.491   5.056
 8444TIP3    H225297   2.329   3.514   5.001
 8445TIP3   OH225298   3.201   4.791   3.877
 8445TIP3    H125299   3.135   4.807   3.810
 8445TIP3    H225300   3.193   4.698   3.897
 8446TIP3   OH225301   1.610   5.804   5.778
 8446TIP3    H125302   1.602   5.788   5.684
 8446TIP3    H225303   1.697   5.843   5.788
 8447TIP3   OH225304   3.201   2.275   3.290
 8447TIP3    H125305   3.212   2.246   3.381
 8447TIP3    H225306   3.126   2.227   3.258
 8448TIP3   OH225307   5.865   3.281   3.448
 8448TIP3    H125308   5.787   3.226   3.454
 8448TIP3    H225309   5.881   3.289   3.354
 8449TIP3   OH225310   3.920   1.101   2.008
 8449TIP3    H125311   3.920   1.159   2.084
 8449TIP3    H225312   3.891   1.157   1.935
 8450TIP3   OH225313   2.034   0.074   5.875
 8450TIP3    H125314   2.083   0.115   5.804
 8450TIP3    H225315   1.994  -0.003   5.835
 8451TIP3   OH225316   3.348   3.411   5.578
 8451TIP3    H125317   3.380   3.328   5.612
 8451TIP3    H225318   3.391   3.478   5.631
 8452TIP3   OH225319   5.392   1.916   2.204
 8452TIP3    H125320   5.465   1.974   2.225
 8452TIP3    H225321   5.429   1.849   2.147
 8453TIP3   OH225322   6.102   6.326   1.525
 8453TIP3    H125323   6.046   6.377   1.584
 8453TIP3    H225324   6.191   6.359   1.541
 8454TIP3   OH225325   1.932   3.142   2.128
 8454TIP3    H125326   1.947   3.140   2.222
 8454TIP3    H225327   1.854   3.197   2.117
 8455TIP3   OH225328   3.049   5.631   0.133
 8455TIP3    H125329   2.972   5.684   0.150
 8455TIP3    H225330   3.019   5.541   0.146
 8456TIP3   OH225331   6.059   2.421   0.264
 8456TIP3    H125332   6.053   2.396   0.356
 8456TIP3    H225333   6.114   2.353   0.224
 8457TIP3   OH225334   3.723   2.988   5.405
 8457TIP3    H125335   3.691   3.061   5.352
 8457TIP3    H225336   3.787   2.944   5.349
 8458TIP3   OH225337   4.851   2.993   2.046
 8458TIP3    H125338   4.767   3.002   2.091
 8458TIP3    H225339   4.830   2.944   1.966
 8459TIP3   OH225340   3.525   2.078   5.321
 8459TIP3    H125341   3.578   2.000   5.307
 8459TIP3    H225342   3.557   2.115   5.403
 8460TIP3   OH225343   6.187   2.827   3.150
 8460TIP3    H125344   6.109   2.782   3.183
 8460TIP3    H225345   6.259   2.795   3.203
 8461TIP3   OH225346   3.144   5.266   1.212
 8461TIP3    H125347   3.154   5.190   1.269
 8461TIP3    H225348   3.083   5.323   1.258
 8462TIP3   OH225349   3.804   3.009   4.961
 8462TIP3    H125350   3.850   2.945   4.906
 8462TIP3    H225351   3.854   3.090   4.949
 8463TIP3   OH225352   1.353   4.754   4.183
 8463TIP3    H125353   1.447   4.765   4.198
 8463TIP3    H225354   1.347   4.682   4.120
 8464TIP3   OH225355   6.561   5.165   0.127
 8464TIP3    H125356   6.562   5.199   0.216
 8464TIP3    H225357   6.597   5.077   0.135
 8465TIP3   OH225358   3.018   3.804   4.805
 8465TIP3    H125359   3.017   3.758   4.720
 8465TIP3    H225360   2.963   3.881   4.790
 8466TIP3   OH225361   3.618   4.909   5.246
 8466TIP3    H125362   3.680   4.921   5.319
 8466TIP3    H225363   3.674   4.892   5.170
 8467TIP3   OH225364   0.319   2.049   0.260
 8467TIP3    H125365   0.378   2.058   0.334
 8467TIP3    H225366   0.378   2.040   0.184
 8468TIP3   OH225367   4.772   5.785   4.609
 8468TIP3    H125368   4.758   5.774   4.703
 8468TIP3    H225369   4.814   5.870   4.601
 8469TIP3   OH225370   2.167   2.872   3.827
 8469TIP3    H125371   2.099   2.842   3.767
 8469TIP3    H225372   2.200   2.952   3.787
 8470TIP3   OH225373   0.927   5.105   3.322
 8470TIP3    H125374   0.873   5.036   3.361
 8470TIP3    H225375   0.879   5.186   3.340
 8471TIP3   OH225376   3.446   5.454   5.878
 8471TIP3    H125377   3.424   5.546   5.895
 8471TIP3    H225378   3.384   5.427   5.811
 8472TIP3   OH225379   4.636   3.180   3.707
 8472TIP3    H125380   4.546   3.181   3.674
 8472TIP3    H225381   4.671   3.266   3.682
 8473TIP3   OH225382   5.965   2.655   3.311
 8473TIP3    H125383   5.880   2.692   3.334
 8473TIP3    H225384   5.945   2.591   3.242
 8474TIP3   OH225385   6.248   4.269   2.567
 8474TIP3    H125386   6.174   4.322   2.538
 8474TIP3    H225387   6.313   4.333   2.597
 8475TIP3   OH225388   0.660   6.384   5.362
 8475TIP3    H125389   0.738   6.439   5.367
 8475TIP3    H225390   0.637   6.385   5.269
 8476TIP3   OH225391   6.868   6.000   5.292
 8476TIP3    H125392   6.782   5.975   5.328
 8476TIP3    H225393   6.872   5.957   5.207
 8477TIP3   OH225394   5.057   0.559   2.091
 8477TIP3    H125395   5.117   0.627   2.122
 8477TIP3    H225396   4.972   0.602   2.088
 8478TIP3   OH225397   4.389   1.401   1.055
 8478TIP3    H125398   4.419   1.437   1.138
 8478TIP3    H225399   4.294   1.415   1.055
 8479TIP3   OH225400   5.405   5.568   0.795
 8479TIP3    H125401   5.473   5.613   0.845
 8479TIP3    H225402   5.405   5.479   0.829
 8480TIP3   OH225403   2.899   4.905   3.279
 8480TIP3    H125404   2.982   4.857   3.278
 8480TIP3    H225405   2.837   4.844   3.319
 8481TIP3   OH225406   4.236   2.850   2.455
 8481TIP3    H125407   4.277   2.786   2.398
 8481TIP3    H225408   4.145   2.820   2.462
 8482TIP3   OH225409   5.526   2.581   0.651
 8482TIP3    H125410   5.580   2.539   0.584
 8482TIP3    H225411   5.472   2.644   0.603
 8483TIP3   OH225412   6.992   6.296   4.525
 8483TIP3    H125413   7.023   6.363   4.585
 8483TIP3    H225414   6.963   6.344   4.448
 8484TIP3   OH225415   2.806   4.736   0.632
 8484TIP3    H125416   2.770   4.668   0.689
 8484TIP3    H225417   2.900   4.722   0.635
 8485TIP3   OH225418   4.837   5.977   1.661
 8485TIP3    H125419   4.853   6.070   1.673
 8485TIP3    H225420   4.785   5.973   1.580
 8486TIP3   OH225421   5.531   6.747   5.588
 8486TIP3    H125422   5.475   6.823   5.573
 8486TIP3    H225423   5.512   6.721   5.678
 8487TIP3   OH225424   3.439   4.910   3.963
 8487TIP3    H125425   3.445   4.826   4.009
 8487TIP3    H225426   3.390   4.890   3.883
 8488TIP3   OH225427   7.171   1.938   0.483
 8488TIP3    H125428   7.125   2.013   0.521
 8488TIP3    H225429   7.187   1.964   0.392
 8489TIP3   OH225430   1.333   6.580   1.480
 8489TIP3    H125431   1.403   6.515   1.486
 8489TIP3    H225432   1.282   6.568   1.559
 8490TIP3   OH225433   0.373   1.836   5.710
 8490TIP3    H125434   0.408   1.838   5.620
 8490TIP3    H225435   0.448   1.813   5.764
 8491TIP3   OH225436   0.374   0.777   1.058
 8491TIP3    H125437   0.284   0.745   1.059
 8491TIP3    H225438   0.423   0.712   1.108
 8492TIP3   OH225439   6.976   1.158   4.916
 8492TIP3    H125440   7.003   1.248   4.934
 8492TIP3    H225441   7.011   1.107   4.989
 8493TIP3   OH225442   5.129   0.300   4.103
 8493TIP3    H125443   5.109   0.331   4.191
 8493TIP3    H225444   5.045   0.300   4.057
 8494TIP3   OH225445   5.715   1.080   5.232
 8494TIP3    H125446   5.743   0.988   5.236
 8494TIP3    H225447   5.789   1.129   5.268
 8495TIP3   OH225448   5.257   0.468   4.520
 8495TIP3    H125449   5.180   0.472   4.576
 8495TIP3    H225450   5.271   0.375   4.506
 8496TIP3   OH225451   0.056   5.279   1.306
 8496TIP3    H125452   0.145   5.306   1.283
 8496TIP3    H225453   0.050   5.188   1.278
 8497TIP3   OH225454   1.595   0.924   2.804
 8497TIP3    H125455   1.552   1.003   2.773
 8497TIP3    H225456   1.661   0.904   2.737
 8498TIP3   OH225457   6.056   4.265   0.074
 8498TIP3    H125458   6.137   4.251   0.025
 8498TIP3    H225459   5.994   4.297   0.008
 8499TIP3   OH225460   1.988   6.682   1.598
 8499TIP3    H125461   2.000   6.764   1.645
 8499TIP3    H225462   2.006   6.614   1.663
 8500TIP3   OH225463   0.556   4.843   4.536
 8500TIP3    H125464   0.594   4.918   4.581
 8500TIP3    H225465   0.498   4.802   4.600
 8501TIP3   OH225466   3.416   2.031   4.108
 8501TIP3    H125467   3.380   1.964   4.166
 8501TIP3    H225468   3.342   2.088   4.088
 8502TIP3   OH225469   3.767   3.267   0.878
 8502TIP3    H125470   3.815   3.262   0.961
 8502TIP3    H225471   3.730   3.355   0.876
 8503TIP3   OH225472   0.559   0.243   1.498
 8503TIP3    H125473   0.620   0.303   1.539
 8503TIP3    H225474   0.591   0.156   1.521
 8504TIP3   OH225475   1.288   6.119   1.547
 8504TIP3    H125476   1.239   6.038   1.560
 8504TIP3    H225477   1.336   6.105   1.465
 8505TIP3   OH225478   3.258   4.792   1.600
 8505TIP3    H125479   3.278   4.718   1.541
 8505TIP3    H225480   3.163   4.792   1.607
 8506TIP3   OH225481   4.123   4.150   3.426
 8506TIP3    H125482   4.117   4.231   3.376
 8506TIP3    H225483   4.068   4.164   3.503
 8507TIP3   OH225484   4.140   2.690   3.269
 8507TIP3    H125485   4.173   2.777   3.292
 8507TIP3    H225486   4.049   2.705   3.246
 8508TIP3   OH225487   2.445   1.834   3.360
 8508TIP3    H125488   2.458   1.923   3.326
 8508TIP3    H225489   2.416   1.848   3.451
 8509TIP3   OH225490   6.701   4.255   5.634
 8509TIP3    H125491   6.690   4.189   5.703
 8509TIP3    H225492   6.756   4.322   5.674
 8510TIP3   OH225493   5.171   1.291   1.395
 8510TIP3    H125494   5.194   1.236   1.471
 8510TIP3    H225495   5.255   1.306   1.351
 8511TIP3   OH225496   0.641   0.540   5.174
 8511TIP3    H125497   0.557   0.495   5.175
 8511TIP3    H225498   0.619   0.631   5.152
 8512TIP3   OH225499   1.349   2.347   4.541
 8512TIP3    H125500   1.255   2.364   4.553
 8512TIP3    H225501   1.354   2.252   4.528
 8513TIP3   OH225502   3.074   1.064   0.477
 8513TIP3    H125503   3.129   1.142   0.484
 8513TIP3    H225504   3.124   1.005   0.420
 8514TIP3   OH225505   3.830   6.494   2.801
 8514TIP3    H125506   3.748   6.483   2.848
 8514TIP3    H225507   3.804   6.526   2.715
 8515TIP3   OH225508   5.522   2.255   0.649
 8515TIP3    H125509   5.567   2.175   0.676
 8515TIP3    H225510   5.591   2.309   0.610
 8516TIP3   OH225511   0.845   6.596   0.868
 8516TIP3    H125512   0.842   6.607   0.773
 8516TIP3    H225513   0.889   6.675   0.899
 8517TIP3   OH225514   1.578   1.907   4.743
 8517TIP3    H125515   1.571   2.002   4.751
 8517TIP3    H225516   1.594   1.892   4.650
 8518TIP3   OH225517   3.493   2.729   3.673
 8518TIP3    H125518   3.562   2.794   3.658
 8518TIP3    H225519   3.521   2.682   3.751
 8519TIP3   OH225520   0.295   0.999   4.028
 8519TIP3    H125521   0.336   0.947   4.097
 8519TIP3    H225522   0.216   1.036   4.069
 8520TIP3   OH225523   2.539   0.941   1.189
 8520TIP3    H125524   2.551   1.026   1.233
 8520TIP3    H225525   2.601   0.883   1.234
 8521TIP3   OH225526   4.576   4.805   1.364
 8521TIP3    H125527   4.580   4.746   1.439
 8521TIP3    H225528   4.502   4.862   1.382
 8522TIP3   OH225529   2.565   1.295   3.113
 8522TIP3    H125530   2.582   1.388   3.127
 8522TIP3    H225531   2.621   1.271   3.039
 8523TIP3   OH225532   4.191   0.379   4.949
 8523TIP3    H125533   4.186   0.283   4.946
 8523TIP3    H225534   4.238   0.403   4.869
 8524TIP3   OH225535   2.494   1.495   0.695
 8524TIP3    H125536   2.401   1.477   0.701
 8524TIP3    H225537   2.510   1.563   0.760
 8525TIP3   OH225538   2.896   2.976   4.729
 8525TIP3    H125539   2.832   3.047   4.732
 8525TIP3    H225540   2.846   2.898   4.753
 8526TIP3   OH225541   6.276   3.519   2.748
 8526TIP3    H125542   6.209   3.557   2.805
 8526TIP3    H225543   6.306   3.592   2.694
 8527TIP3   OH225544   6.538   4.569   2.380
 8527TIP3    H125545   6.592   4.512   2.435
 8527TIP3    H225546   6.459   4.584   2.433
 8528TIP3   OH225547   7.108   1.144   0.760
 8528TIP3    H125548   7.030   1.090   0.761
 8528TIP3    H225549   7.129   1.158   0.853
 8529TIP3   OH225550   5.114   2.532   5.423
 8529TIP3    H125551   5.181   2.541   5.490
 8529TIP3    H225552   5.156   2.561   5.342
 8530TIP3   OH225553   3.010   6.314   5.577
 8530TIP3    H125554   3.097   6.279   5.554
 8530TIP3    H225555   2.962   6.239   5.610
 8531TIP3   OH225556   6.639   1.828   1.797
 8531TIP3    H125557   6.730   1.798   1.788
 8531TIP3    H225558   6.637   1.913   1.754
 8532TIP3   OH225559   3.264   1.060   1.987
 8532TIP3    H125560   3.346   1.106   2.006
 8532TIP3    H225561   3.210   1.075   2.065
 8533TIP3   OH225562   1.730   0.063   5.707
 8533TIP3    H125563   1.755  -0.012   5.762
 8533TIP3    H225564   1.663   0.108   5.758
 8534TIP3   OH225565   4.679   5.647   1.502
 8534TIP3    H125566   4.709   5.677   1.416
 8534TIP3    H225567   4.758   5.648   1.557
 8535TIP3   OH225568   2.878   1.788   3.982
 8535TIP3    H125569   2.883   1.873   3.937
 8535TIP3    H225570   2.968   1.769   4.007
 8536TIP3   OH225571   6.283   5.091   1.126
 8536TIP3    H125572   6.215   5.029   1.101
 8536TIP3    H225573   6.240   5.177   1.124
 8537TIP3   OH225574   6.707   5.178   2.534
 8537TIP3    H125575   6.753   5.256   2.502
 8537TIP3    H225576   6.745   5.163   2.621
 8538TIP3   OH225577   1.952   1.121   5.717
 8538TIP3    H125578   1.950   1.043   5.663
 8538TIP3    H225579   2.016   1.178   5.674
 8539TIP3   OH225580   1.172   0.270   5.310
 8539TIP3    H125581   1.247   0.217   5.283
 8539TIP3    H225582   1.097   0.210   5.304
 8540TIP3   OH225583   4.572   1.299   0.864
 8540TIP3    H125584   4.517   1.315   0.941
 8540TIP3    H225585   4.661   1.301   0.898
 8541TIP3   OH225586   1.734   1.831   1.801
 8541TIP3    H125587   1.827   1.815   1.783
 8541TIP3    H225588   1.708   1.897   1.736
 8542TIP3   OH225589   0.459   1.352   2.182
 8542TIP3    H125590   0.554   1.361   2.186
 8542TIP3    H225591   0.445   1.264   2.147
 8543TIP3   OH225592   3.572   4.194   0.856
 8543TIP3    H125593   3.624   4.262   0.814
 8543TIP3    H225594   3.495   4.239   0.889
 8544TIP3   OH225595   2.518   5.775   2.165
 8544TIP3    H125596   2.428   5.783   2.196
 8544TIP3    H225597   2.571   5.807   2.238
 8545TIP3   OH225598   4.787   4.994   2.355
 8545TIP3    H125599   4.828   5.077   2.332
 8545TIP3    H225600   4.728   4.975   2.282
 8546TIP3   OH225601   6.092   3.329   3.914
 8546TIP3    H125602   6.022   3.388   3.942
 8546TIP3    H225603   6.132   3.373   3.838
 8547TIP3   OH225604   1.348   6.480   2.666
 8547TIP3    H125605   1.360   6.572   2.692
 8547TIP3    H225606   1.407   6.468   2.592
 8548TIP3   OH225607   6.325   5.559   5.187
 8548TIP3    H125608   6.392   5.547   5.119
 8548TIP3    H225609   6.299   5.471   5.211
 8549TIP3   OH225610   1.181   3.900   2.178
 8549TIP3    H125611   1.255   3.937   2.226
 8549TIP3    H225612   1.108   3.957   2.199
 8550TIP3   OH225613   1.277   6.214   3.149
 8550TIP3    H125614   1.266   6.121   3.131
 8550TIP3    H225615   1.270   6.256   3.063
 8551TIP3   OH225616   5.965   4.504   5.048
 8551TIP3    H125617   6.039   4.507   4.988
 8551TIP3    H225618   5.901   4.564   5.011
 8552TIP3   OH225619   3.020   2.995   3.486
 8552TIP3    H125620   2.968   3.059   3.439
 8552TIP3    H225621   3.100   3.042   3.511
 8553TIP3   OH225622   6.187   3.212   3.345
 8553TIP3    H125623   6.210   3.238   3.256
 8553TIP3    H225624   6.194   3.292   3.397
 8554TIP3   OH225625   1.441   1.695   1.619
 8554TIP3    H125626   1.524   1.665   1.655
 8554TIP3    H225627   1.409   1.622   1.567
 8555TIP3   OH225628   0.152   3.086   4.336
 8555TIP3    H125629   0.062   3.113   4.357
 8555TIP3    H225630   0.154   3.083   4.240
 8556TIP3   OH225631   1.765   6.783   3.726
 8556TIP3    H125632   1.709   6.812   3.654
 8556TIP3    H225633   1.705   6.743   3.788
 8557TIP3   OH225634   7.162   0.499   1.958
 8557TIP3    H125635   7.217   0.488   2.035
 8557TIP3    H225636   7.197   0.577   1.914
 8558TIP3   OH225637   0.227   0.026   0.854
 8558TIP3    H125638   0.248   0.119   0.853
 8558TIP3    H225639   0.305  -0.017   0.820
 8559TIP3   OH225640   2.636   3.244   0.019
 8559TIP3    H125641   2.661   3.325   0.063
 8559TIP3    H225642   2.556   3.267  -0.029
 8560TIP3   OH225643   4.992   0.765   0.126
 8560TIP3    H125644   5.084   0.773   0.151
 8560TIP3    H225645   4.954   0.852   0.141
 8561TIP3   OH225646   5.938   2.280   4.038
 8561TIP3    H125647   5.889   2.355   4.005
 8561TIP3    H225648   5.898   2.261   4.123
 8562TIP3   OH225649   3.248   4.782   3.079
 8562TIP3    H125650   3.299   4.818   3.006
 8562TIP3    H225651   3.233   4.691   3.055
 8563TIP3   OH225652   0.214   5.882   4.971
 8563TIP3    H125653   0.161   5.804   4.987
 8563TIP3    H225654   0.160   5.955   5.003
 8564TIP3   OH225655   5.373   5.298   3.539
 8564TIP3    H125656   5.440   5.243   3.580
 8564TIP3    H225657   5.305   5.308   3.606
 8565TIP3   OH225658   5.375   2.171   4.456
 8565TIP3    H125659   5.326   2.224   4.519
 8565TIP3    H225660   5.310   2.143   4.393
 8566TIP3   OH225661   6.537   4.017   4.804
 8566TIP3    H125662   6.485   3.946   4.843
 8566TIP3    H225663   6.590   3.974   4.737
 8567TIP3   OH225664   6.026   1.913   1.844
 8567TIP3    H125665   6.028   1.820   1.866
 8567TIP3    H225666   5.956   1.920   1.779
 8568TIP3   OH225667   6.023   3.941   1.704
 8568TIP3    H125668   5.934   3.934   1.671
 8568TIP3    H225669   6.015   3.926   1.799
 8569TIP3   OH225670   1.041   6.546   4.830
 8569TIP3    H125671   0.982   6.621   4.818
 8569TIP3    H225672   1.012   6.506   4.912
 8570TIP3   OH225673   6.436   6.822   3.655
 8570TIP3    H125674   6.382   6.755   3.612
 8570TIP3    H225675   6.394   6.837   3.740
 8571TIP3   OH225676   7.123   3.519   3.676
 8571TIP3    H125677   7.168   3.471   3.607
 8571TIP3    H225678   7.190   3.575   3.714
 8572TIP3   OH225679   3.083   6.526   2.996
 8572TIP3    H125680   3.048   6.593   3.055
 8572TIP3    H225681   3.167   6.502   3.035
 8573TIP3   OH225682   1.091   0.046   1.450
 8573TIP3    H125683   1.145   0.023   1.525
 8573TIP3    H225684   1.084  -0.035   1.399
 8574TIP3   OH225685   3.091   0.715   2.611
 8574TIP3    H125686   3.029   0.713   2.538
 8574TIP3    H225687   3.036   0.721   2.689
 8575TIP3   OH225688   1.238   1.552   4.423
 8575TIP3    H125689   1.301   1.563   4.351
 8575TIP3    H225690   1.192   1.471   4.401
 8576TIP3   OH225691   0.486   2.393   5.730
 8576TIP3    H125692   0.441   2.311   5.751
 8576TIP3    H225693   0.416   2.456   5.717
 8577TIP3   OH225694   6.234   2.502   2.167
 8577TIP3    H125695   6.265   2.418   2.202
 8577TIP3    H225696   6.305   2.563   2.187
 8578TIP3   OH225697   1.155   3.052   2.610
 8578TIP3    H125698   1.166   3.089   2.698
 8578TIP3    H225699   1.236   3.003   2.595
 8579TIP3   OH225700   2.651   3.514   3.863
 8579TIP3    H125701   2.662   3.504   3.768
 8579TIP3    H225702   2.707   3.446   3.901
 8580TIP3   OH225703   0.782   1.089   1.772
 8580TIP3    H125704   0.846   1.147   1.815
 8580TIP3    H225705   0.798   1.100   1.679
 8581TIP3   OH225706   1.810   5.795   4.871
 8581TIP3    H125707   1.798   5.740   4.793
 8581TIP3    H225708   1.804   5.885   4.838
 8582TIP3   OH225709   2.732   1.550   0.044
 8582TIP3    H125710   2.659   1.531   0.102
 8582TIP3    H225711   2.730   1.480  -0.021
 8583TIP3   OH225712   1.977   3.872   5.527
 8583TIP3    H125713   1.913   3.929   5.485
 8583TIP3    H225714   1.924   3.805   5.571
 8584TIP3   OH225715   0.563   0.333   3.453
 8584TIP3    H125716   0.486   0.385   3.477
 8584TIP3    H225717   0.555   0.253   3.505
 8585TIP3   OH225718   3.662   0.388   3.877
 8585TIP3    H125719   3.635   0.400   3.786
 8585TIP3    H225720   3.607   0.317   3.909
 8586TIP3   OH225721   7.112   0.033   4.764
 8586TIP3    H125722   7.145   0.004   4.849
 8586TIP3    H225723   7.086   0.124   4.778
 8587TIP3   OH225724   0.518   0.678   0.038
 8587TIP3    H125725   0.492   0.603  -0.015
 8587TIP3    H225726   0.464   0.750   0.006
 8588TIP3   OH225727   1.359   0.484   5.306
 8588TIP3    H125728   1.375   0.413   5.244
 8588TIP3    H225729   1.278   0.459   5.350
 8589TIP3   OH225730   5.268   4.302   0.947
 8589TIP3    H125731   5.353   4.342   0.966
 8589TIP3    H225732   5.290   4.220   0.902
 8590TIP3   OH225733   3.977   1.803   1.428
 8590TIP3    H125734   4.043   1.834   1.367
 8590TIP3    H225735   3.905   1.865   1.420
 8591TIP3   OH225736   3.724   1.934   1.481
 8591TIP3    H125737   3.727   1.959   1.574
 8591TIP3    H225738   3.665   1.998   1.441
 8592TIP3   OH225739   3.808   5.222   3.566
 8592TIP3    H125740   3.721   5.252   3.593
 8592TIP3    H225741   3.835   5.163   3.637
 8593TIP3   OH225742   5.007   0.653   3.750
 8593TIP3    H125743   5.078   0.590   3.738
 8593TIP3    H225744   5.025   0.722   3.686
 8594TIP3   OH225745   2.974   0.230   4.419
 8594TIP3    H125746   2.939   0.296   4.359
 8594TIP3    H225747   2.897   0.181   4.448
 8595TIP3   OH225748   6.725   2.804   3.732
 8595TIP3    H125749   6.650   2.852   3.767
 8595TIP3    H225750   6.687   2.746   3.665
 8596TIP3   OH225751   4.218   4.242   1.613
 8596TIP3    H125752   4.239   4.204   1.699
 8596TIP3    H225753   4.149   4.305   1.631
 8597TIP3   OH225754   2.325   2.759   4.315
 8597TIP3    H125755   2.325   2.724   4.226
 8597TIP3    H225756   2.412   2.736   4.349
 8598TIP3   OH225757   5.724   6.288   0.779
 8598TIP3    H125758   5.814   6.298   0.810
 8598TIP3    H225759   5.730   6.301   0.684
 8599TIP3   OH225760   2.600   6.263   3.157
 8599TIP3    H125761   2.687   6.289   3.128
 8599TIP3    H225762   2.549   6.257   3.077
 8600TIP3   OH225763   1.729   2.519   1.418
 8600TIP3    H125764   1.752   2.508   1.510
 8600TIP3    H225765   1.656   2.459   1.404
 8601TIP3   OH225766   4.190   2.480   3.878
 8601TIP3    H125767   4.236   2.534   3.943
 8601TIP3    H225768   4.209   2.390   3.906
 8602TIP3   OH225769   5.919   1.145   1.220
 8602TIP3    H125770   5.989   1.203   1.251
 8602TIP3    H225771   5.950   1.113   1.135
 8603TIP3   OH225772   6.199   3.455   1.038
 8603TIP3    H125773   6.156   3.370   1.052
 8603TIP3    H225774   6.131   3.520   1.056
 8604TIP3   OH225775   1.458   0.995   0.217
 8604TIP3    H125776   1.546   1.009   0.182
 8604TIP3    H225777   1.443   1.070   0.276
 8605TIP3   OH225778   5.377   3.241   5.639
 8605TIP3    H125779   5.314   3.275   5.703
 8605TIP3    H225780   5.459   3.284   5.660
 8606TIP3   OH225781   2.782   4.660   3.358
 8606TIP3    H125782   2.861   4.628   3.403
 8606TIP3    H225783   2.799   4.644   3.266
 8607TIP3   OH225784   1.657   5.318   3.091
 8607TIP3    H125785   1.708   5.364   3.024
 8607TIP3    H225786   1.647   5.229   3.058
 8608TIP3   OH225787   1.043   5.584   5.765
 8608TIP3    H125788   1.027   5.529   5.688
 8608TIP3    H225789   1.109   5.647   5.736
 8609TIP3   OH225790   6.560   1.366   0.701
 8609TIP3    H125791   6.545   1.365   0.795
 8609TIP3    H225792   6.534   1.454   0.673
 8610TIP3   OH225793   1.001   6.634   1.343
 8610TIP3    H125794   1.053   6.637   1.262
 8610TIP3    H225795   0.970   6.724   1.355
 8611TIP3   OH225796   3.810   0.941   4.510
 8611TIP3    H125797   3.788   1.025   4.469
 8611TIP3    H225798   3.829   0.883   4.436
 8612TIP3   OH225799   4.340   1.696   1.645
 8612TIP3    H125800   4.263   1.745   1.674
 8612TIP3    H225801   4.402   1.763   1.615
 8613TIP3   OH225802   5.276   6.724   0.734
 8613TIP3    H125803   5.251   6.731   0.642
 8613TIP3    H225804   5.354   6.780   0.742
 8614TIP3   OH225805   6.357   4.335   0.880
 8614TIP3    H125806   6.348   4.367   0.969
 8614TIP3    H225807   6.340   4.412   0.825
 8615TIP3   OH225808   1.584   5.361  -0.033
 8615TIP3    H125809   1.553   5.286   0.018
 8615TIP3    H225810   1.619   5.422   0.031
 8616TIP3   OH225811   6.446   5.190   5.837
 8616TIP3    H125812   6.446   5.109   5.887
 8616TIP3    H225813   6.365   5.234   5.862
 8617TIP3   OH225814   0.061   6.226   2.092
 8617TIP3    H125815   0.105   6.151   2.052
 8617TIP3    H225816  -0.028   6.196   2.108
 8618TIP3   OH225817   2.949   2.883   5.638
 8618TIP3    H125818   2.891   2.819   5.596
 8618TIP3    H225819   2.991   2.834   5.709
 8619TIP3   OH225820   3.247   4.278   2.259
 8619TIP3    H125821   3.178   4.263   2.195
 8619TIP3    H225822   3.226   4.363   2.298
 8620TIP3   OH225823   3.129   3.379   5.438
 8620TIP3    H125824   3.193   3.423   5.493
 8620TIP3    H225825   3.112   3.440   5.366
 8621TIP3   OH225826   2.687   4.644   4.387
 8621TIP3    H125827   2.634   4.710   4.343
 8621TIP3    H225828   2.624   4.579   4.418
 8622TIP3   OH225829   4.602   2.932   2.621
 8622TIP3    H125830   4.569   2.994   2.686
 8622TIP3    H225831   4.565   2.962   2.538
 8623TIP3   OH225832   5.339   2.156   5.798
 8623TIP3    H125833   5.357   2.107   5.878
 8623TIP3    H225834   5.398   2.232   5.804
 8624TIP3   OH225835   1.945   2.076   1.082
 8624TIP3    H125836   1.898   2.132   1.143
 8624TIP3    H225837   1.877   2.034   1.031
 8625TIP3   OH225838   0.465   5.957   0.020
 8625TIP3    H125839   0.516   5.890   0.066
 8625TIP3    H225840   0.475   5.934  -0.073
 8626TIP3   OH225841   4.774   5.457   1.134
 8626TIP3    H125842   4.866   5.477   1.115
 8626TIP3    H225843   4.769   5.362   1.132
 8627TIP3   OH225844   4.911   4.114   4.577
 8627TIP3    H125845   4.941   4.205   4.574
 8627TIP3    H225846   4.901   4.089   4.485
 8628TIP3   OH225847   4.420   5.254   0.983
 8628TIP3    H125848   4.491   5.304   1.022
 8628TIP3    H225849   4.387   5.310   0.913
 8629TIP3   OH225850   5.933   1.264   4.375
 8629TIP3    H125851   6.001   1.330   4.372
 8629TIP3    H225852   5.926   1.241   4.468
 8630TIP3   OH225853   5.299   3.617   4.629
 8630TIP3    H125854   5.331   3.534   4.593
 8630TIP3    H225855   5.311   3.608   4.723
 8631TIP3   OH225856   2.670   0.630   3.168
 8631TIP3    H125857   2.687   0.722   3.188
 8631TIP3    H225858   2.676   0.624   3.073
 8632TIP3   OH225859   0.895   1.382   5.752
 8632TIP3    H125860   0.973   1.414   5.796
 8632TIP3    H225861   0.900   1.287   5.760
 8633TIP3   OH225862   0.570   2.970   1.840
 8633TIP3    H125863   0.507   3.041   1.825
 8633TIP3    H225864   0.592   2.976   1.933
 8634TIP3   OH225865   5.677   3.753   4.249
 8634TIP3    H125866   5.612   3.749   4.319
 8634TIP3    H225867   5.710   3.663   4.242
 8635TIP3   OH225868   5.076   2.481   3.223
 8635TIP3    H125869   5.024   2.488   3.142
 8635TIP3    H225870   5.136   2.408   3.206
 8636TIP3   OH225871   7.097   2.492   1.173
 8636TIP3    H125872   7.190   2.492   1.193
 8636TIP3    H225873   7.056   2.534   1.248
 8637TIP3   OH225874   4.654   5.526   3.339
 8637TIP3    H125875   4.628   5.571   3.420
 8637TIP3    H225876   4.593   5.453   3.333
 8638TIP3   OH225877   6.779   2.180   4.606
 8638TIP3    H125878   6.864   2.149   4.637
 8638TIP3    H225879   6.741   2.105   4.560
 8639TIP3   OH225880   1.310   4.073   0.040
 8639TIP3    H125881   1.342   4.124   0.114
 8639TIP3    H225882   1.307   3.983   0.072
 8640TIP3   OH225883   3.734   1.328   0.984
 8640TIP3    H125884   3.826   1.345   0.963
 8640TIP3    H225885   3.735   1.242   1.026
 8641TIP3   OH225886   2.266   1.249   1.597
 8641TIP3    H125887   2.227   1.319   1.649
 8641TIP3    H225888   2.242   1.169   1.644
 8642TIP3   OH225889   0.382   5.907   3.333
 8642TIP3    H125890   0.460   5.888   3.386
 8642TIP3    H225891   0.317   5.842   3.360
 8643TIP3   OH225892   0.644   6.566   2.268
 8643TIP3    H125893   0.674   6.487   2.223
 8643TIP3    H225894   0.683   6.559   2.355
 8644TIP3   OH225895   0.149   0.321   0.935
 8644TIP3    H125896   0.166   0.319   1.029
 8644TIP3    H225897   0.054   0.311   0.927
 8645TIP3   OH225898   4.184   0.166   1.121
 8645TIP3    H125899   4.249   0.117   1.171
 8645TIP3    H225900   4.122   0.100   1.090
 8646TIP3   OH225901   4.166   1.016   5.757
 8646TIP3    H125902   4.132   0.938   5.712
 8646TIP3    H225903   4.090   1.051   5.804
 8647TIP3   OH225904   0.796   3.096   1.589
 8647TIP3    H125905   0.832   3.082   1.676
 8647TIP3    H225906   0.752   3.181   1.595
 8648TIP3   OH225907   4.020   5.093   5.448
 8648TIP3    H125908   3.953   5.041   5.492
 8648TIP3    H225909   3.997   5.087   5.355
 8649TIP3   OH225910   0.919   5.956   4.089
 8649TIP3    H125911   0.878   5.945   4.175
 8649TIP3    H225912   0.941   5.867   4.062
 8650TIP3   OH225913   3.154   1.251   5.659
 8650TIP3    H125914   3.101   1.201   5.722
 8650TIP3    H225915   3.223   1.291   5.712
 8651TIP3   OH225916   5.765   5.485   4.906
 8651TIP3    H125917   5.853   5.447   4.906
 8651TIP3    H225918   5.706   5.410   4.909
 8652TIP3   OH225919   0.295   3.926   4.300
 8652TIP3    H125920   0.363   3.985   4.267
 8652TIP3    H225921   0.214   3.961   4.265
 8653TIP3   OH225922   1.534   5.919   2.643
 8653TIP3    H125923   1.485   5.840   2.620
 8653TIP3    H225924   1.477   5.966   2.703
 8654TIP3   OH225925   3.446   2.750   2.776
 8654TIP3    H125926   3.358   2.743   2.812
 8654TIP3    H225927   3.438   2.813   2.704
 8655TIP3   OH225928   0.375   1.997   3.430
 8655TIP3    H125929   0.438   1.932   3.462
 8655TIP3    H225930   0.385   2.071   3.490
 8656TIP3   OH225931   1.226   0.621   3.355
 8656TIP3    H125932   1.230   0.591   3.264
 8656TIP3    H225933   1.277   0.557   3.404
 8657TIP3   OH225934   2.256   5.114   5.798
 8657TIP3    H125935   2.177   5.167   5.810
 8657TIP3    H225936   2.287   5.096   5.887
 8658TIP3   OH225937   2.128   5.465   0.420
 8658TIP3    H125938   2.072   5.532   0.461
 8658TIP3    H225939   2.154   5.504   0.337
 8659TIP3   OH225940   1.001   1.455   0.971
 8659TIP3    H125941   1.015   1.399   1.047
 8659TIP3    H225942   1.041   1.407   0.898
 8660TIP3   OH225943   0.278   2.692   3.079
 8660TIP3    H125944   0.325   2.745   3.144
 8660TIP3    H225945   0.343   2.675   3.011
 8661TIP3   OH225946   2.289   6.507   0.923
 8661TIP3    H125947   2.269   6.492   1.015
 8661TIP3    H225948   2.326   6.425   0.892
 8662TIP3   OH225949   2.693   0.792   3.834
 8662TIP3    H125950   2.670   0.701   3.853
 8662TIP3    H225951   2.637   0.817   3.762
 8663TIP3   OH225952   2.087   3.114   4.604
 8663TIP3    H125953   1.992   3.120   4.605
 8663TIP3    H225954   2.109   3.086   4.515
 8664TIP3   OH225955   5.540   4.649   1.225
 8664TIP3    H125956   5.587   4.594   1.163
 8664TIP3    H225957   5.523   4.730   1.177
 8665TIP3   OH225958   3.556   4.942   4.234
 8665TIP3    H125959   3.508   4.947   4.151
 8665TIP3    H225960   3.488   4.946   4.301
 8666TIP3   OH225961   0.704   6.461  -0.044
 8666TIP3    H125962   0.699   6.380   0.008
 8666TIP3    H225963   0.733   6.527   0.019
 8667TIP3   OH225964   3.375   1.827   1.216
 8667TIP3    H125965   3.431   1.777   1.275
 8667TIP3    H225966   3.290   1.783   1.220
 8668TIP3   OH225967   0.358   1.437   4.296
 8668TIP3    H125968   0.267   1.466   4.300
 8668TIP3    H225969   0.354   1.343   4.280
 8669TIP3   OH225970   1.308   3.477   0.794
 8669TIP3    H125971   1.328   3.505   0.704
 8669TIP3    H225972   1.215   3.498   0.806
 8670TIP3   OH225973   1.642   3.426   1.969
 8670TIP3    H125974   1.638   3.341   1.924
 8670TIP3    H225975   1.692   3.482   1.911
 8671TIP3   OH225976   3.900   3.968   0.959
 8671TIP3    H125977   3.926   4.055   0.930
 8671TIP3    H225978   3.805   3.972   0.964
 8672TIP3   OH225979   2.109   2.312   4.048
 8672TIP3    H125980   2.192   2.267   4.035
 8672TIP3    H225981   2.045   2.242   4.057
 8673TIP3   OH225982   5.866   6.110   2.274
 8673TIP3    H125983   5.846   6.146   2.360
 8673TIP3    H225984   5.945   6.158   2.246
 8674TIP3   OH225985   0.062   2.354   1.460
 8674TIP3    H125986   0.024   2.424   1.514
 8674TIP3    H225987   0.098   2.400   1.384
 8675TIP3   OH225988   2.679   1.728   5.487
 8675TIP3    H125989   2.634   1.668   5.428
 8675TIP3    H225990   2.675   1.686   5.573
 8676TIP3   OH225991   2.943   4.602   3.132
 8676TIP3    H125992   3.009   4.591   3.200
 8676TIP3    H225993   2.985   4.570   3.052
 8677TIP3   OH225994   0.696   2.525   3.111
 8677TIP3    H125995   0.733   2.612   3.123
 8677TIP3    H225996   0.634   2.535   3.039
 8678TIP3   OH225997   6.083   1.202   2.913
 8678TIP3    H125998   6.026   1.144   2.963
 8678TIP3    H225999   6.141   1.144   2.864
 8679TIP3   OH226000   2.098   5.183   2.619
 8679TIP3    H126001   2.108   5.090   2.637
 8679TIP3    H226002   2.005   5.200   2.631
 8680TIP3   OH226003   6.312   0.633   5.747
 8680TIP3    H126004   6.250   0.640   5.820
 8680TIP3    H226005   6.291   0.707   5.691
 8681TIP3   OH226006   3.566   6.498   1.665
 8681TIP3    H126007   3.581   6.406   1.642
 8681TIP3    H226008   3.647   6.526   1.706
 8682TIP3   OH226009   5.660   4.151   3.305
 8682TIP3    H126010   5.564   4.151   3.298
 8682TIP3    H226011   5.678   4.102   3.384
 8683TIP3   OH226012   3.226   3.380   1.174
 8683TIP3    H126013   3.147   3.384   1.227
 8683TIP3    H226014   3.298   3.397   1.235
 8684TIP3   OH226015   6.252   0.285   1.559
 8684TIP3    H126016   6.230   0.203   1.603
 8684TIP3    H226017   6.193   0.289   1.484
 8685TIP3   OH226018   0.109   2.836   0.725
 8685TIP3    H126019   0.199   2.805   0.715
 8685TIP3    H226020   0.059   2.784   0.662
 8686TIP3   OH226021   0.667   3.567   5.916
 8686TIP3    H126022   0.629   3.485   5.947
 8686TIP3    H226023   0.651   3.566   5.821
 8687TIP3   OH226024   4.025   3.667   5.369
 8687TIP3    H126025   4.091   3.737   5.363
 8687TIP3    H226026   4.026   3.642   5.461
 8688TIP3   OH226027   2.968   1.342   1.402
 8688TIP3    H126028   2.930   1.265   1.359
 8688TIP3    H226029   3.029   1.378   1.338
 8689TIP3   OH226030   5.262   5.588   3.500
 8689TIP3    H126031   5.311   5.646   3.441
 8689TIP3    H226032   5.220   5.525   3.441
 8690TIP3   OH226033   1.429   1.915   5.590
 8690TIP3    H126034   1.421   1.849   5.658
 8690TIP3    H226035   1.373   1.987   5.620
 8691TIP3   OH226036   3.420   2.647   2.076
 8691TIP3    H126037   3.391   2.713   2.013
 8691TIP3    H226038   3.395   2.563   2.037
 8692TIP3   OH226039   1.493   6.354   0.968
 8692TIP3    H126040   1.574   6.316   1.003
 8692TIP3    H226041   1.522   6.412   0.898
 8693TIP3   OH226042   1.916   5.920   1.065
 8693TIP3    H126043   1.894   5.922   0.972
 8693TIP3    H226044   1.887   5.834   1.095
 8694TIP3   OH226045   2.498   6.028   0.058
 8694TIP3    H126046   2.464   6.118   0.060
 8694TIP3    H226047   2.427   5.976   0.020
 8695TIP3   OH226048   3.466   0.516   1.121
 8695TIP3    H126049   3.561   0.517   1.123
 8695TIP3    H226050   3.443   0.571   1.046
 8696TIP3   OH226051   5.843   2.075   0.120
 8696TIP3    H126052   5.852   2.144   0.186
 8696TIP3    H226053   5.849   2.121   0.036
 8697TIP3   OH226054   0.834   6.316   1.889
 8697TIP3    H126055   0.762   6.331   1.828
 8697TIP3    H226056   0.879   6.400   1.895
 8698TIP3   OH226057   2.250   1.227   2.274
 8698TIP3    H126058   2.289   1.168   2.338
 8698TIP3    H226059   2.198   1.169   2.218
 8699TIP3   OH226060   6.232   5.330   0.147
 8699TIP3    H126061   6.224   5.261   0.213
 8699TIP3    H226062   6.241   5.411   0.198
 8700TIP3   OH226063   4.831   2.792   3.224
 8700TIP3    H126064   4.899   2.798   3.156
 8700TIP3    H226065   4.793   2.706   3.212
 8701TIP3   OH226066   0.518   4.746   5.610
 8701TIP3    H126067   0.507   4.689   5.686
 8701TIP3    H226068   0.601   4.790   5.625
 8702TIP3   OH226069   0.556   3.945   3.894
 8702TIP3    H126070   0.504   3.994   3.958
 8702TIP3    H226071   0.646   3.975   3.909
 8703TIP3   OH226072   0.606   0.723   4.950
 8703TIP3    H126073   0.627   0.656   4.885
 8703TIP3    H226074   0.516   0.748   4.930
 8704TIP3   OH226075   7.099   1.518   3.547
 8704TIP3    H126076   7.187   1.493   3.575
 8704TIP3    H226077   7.105   1.523   3.451
 8705TIP3   OH226078   2.684   4.140   3.832
 8705TIP3    H126079   2.624   4.143   3.906
 8705TIP3    H226080   2.677   4.226   3.792
 8706TIP3   OH226081   5.658   1.827   3.970
 8706TIP3    H126082   5.726   1.762   3.954
 8706TIP3    H226083   5.590   1.807   3.907
 8707TIP3   OH226084   4.937   3.809   5.663
 8707TIP3    H126085   5.030   3.791   5.652
 8707TIP3    H226086   4.913   3.860   5.586
 8708TIP3   OH226087   1.514   4.191   1.398
 8708TIP3    H126088   1.462   4.269   1.421
 8708TIP3    H226089   1.514   4.139   1.478
 8709TIP3   OH226090   1.936   3.006   1.235
 8709TIP3    H126091   1.922   3.073   1.302
 8709TIP3    H226092   1.958   2.927   1.285
 8710TIP3   OH226093   2.332   4.586   4.286
 8710TIP3    H126094   2.334   4.623   4.374
 8710TIP3    H226095   2.327   4.491   4.301
 8711TIP3   OH226096   3.153   3.694   2.316
 8711TIP3    H126097   3.157   3.618   2.374
 8711TIP3    H226098   3.071   3.738   2.339
 8712TIP3   OH226099   2.977   2.690   4.354
 8712TIP3    H126100   2.909   2.742   4.397
 8712TIP3    H226101   2.933   2.651   4.279
 8713TIP3   OH226102   3.132   0.489   0.772
 8713TIP3    H126103   3.186   0.493   0.694
 8713TIP3    H226104   3.125   0.579   0.802
 8714TIP3   OH226105   7.114   0.102   2.931
 8714TIP3    H126106   7.125   0.166   3.001
 8714TIP3    H226107   7.031   0.124   2.891
 8715TIP3   OH226108   6.864   4.345   4.936
 8715TIP3    H126109   6.849   4.394   4.855
 8715TIP3    H226110   6.780   4.303   4.955
 8716TIP3   OH226111   3.639   3.398   2.871
 8716TIP3    H126112   3.682   3.462   2.814
 8716TIP3    H226113   3.700   3.384   2.943
 8717TIP3   OH226114   2.626   6.076   0.845
 8717TIP3    H126115   2.618   6.146   0.909
 8717TIP3    H226116   2.701   6.025   0.873
 8718TIP3   OH226117   2.817   5.028   2.342
 8718TIP3    H126118   2.751   5.046   2.409
 8718TIP3    H226119   2.846   4.939   2.361
 8719TIP3   OH226120   6.015   2.000   2.856
 8719TIP3    H126121   6.050   1.929   2.801
 8719TIP3    H226122   5.929   2.018   2.819
 8720TIP3   OH226123   5.067   5.011   3.455
 8720TIP3    H126124   4.981   5.053   3.463
 8720TIP3    H226125   5.054   4.939   3.393
 8721TIP3   OH226126   3.909   5.960   0.208
 8721TIP3    H126127   3.954   5.987   0.128
 8721TIP3    H226128   3.948   6.013   0.277
 8722TIP3   OH226129   6.029   1.193   1.603
 8722TIP3    H126130   6.050   1.108   1.565
 8722TIP3    H226131   6.106   1.247   1.586
 8723TIP3   OH226132   1.909   0.430   1.862
 8723TIP3    H126133   1.981   0.397   1.809
 8723TIP3    H226134   1.830   0.403   1.815
 8724TIP3   OH226135   1.564   2.255   0.818
 8724TIP3    H126136   1.536   2.177   0.864
 8724TIP3    H226137   1.484   2.291   0.779
 8725TIP3   OH226138   4.137   5.198   0.393
 8725TIP3    H126139   4.065   5.144   0.362
 8725TIP3    H226140   4.208   5.135   0.409
 8726TIP3   OH226141   0.021   1.016   3.918
 8726TIP3    H126142   0.004   0.922   3.922
 8726TIP3    H226143   0.035   1.034   3.826
 8727TIP3   OH226144   1.428   5.108   2.497
 8727TIP3    H126145   1.393   5.040   2.554
 8727TIP3    H226146   1.371   5.106   2.419
 8728TIP3   OH226147   3.638   1.545   0.416
 8728TIP3    H126148   3.594   1.506   0.492
 8728TIP3    H226149   3.567   1.562   0.354
 8729TIP3   OH226150   1.560   4.583   4.512
 8729TIP3    H126151   1.488   4.536   4.469
 8729TIP3    H226152   1.528   4.599   4.601
 8730TIP3   OH226153   0.574   4.472   1.556
 8730TIP3    H126154   0.544   4.538   1.618
 8730TIP3    H226155   0.505   4.468   1.490
 8731TIP3   OH226156   4.234   5.477   4.483
 8731TIP3    H126157   4.298   5.496   4.415
 8731TIP3    H226158   4.247   5.385   4.503
 8732TIP3   OH226159   6.834   0.066   0.961
 8732TIP3    H126160   6.805   0.079   0.871
 8732TIP3    H226161   6.901   0.133   0.975
 8733TIP3   OH226162   2.386   4.669   4.562
 8733TIP3    H126163   2.401   4.763   4.556
 8733TIP3    H226164   2.318   4.659   4.628
 8734TIP3   OH226165   2.988   3.170   5.334
 8734TIP3    H126166   3.001   3.084   5.374
 8734TIP3    H226167   3.062   3.222   5.366
 8735TIP3   OH226168   2.709   5.573   5.700
 8735TIP3    H126169   2.719   5.509   5.630
 8735TIP3    H226170   2.617   5.566   5.726
 8736TIP3   OH226171   6.050   2.894   1.025
 8736TIP3    H126172   6.011   2.941   0.950
 8736TIP3    H226173   6.122   2.844   0.987
 8737TIP3   OH226174   5.368   5.452   4.746
 8737TIP3    H126175   5.292   5.508   4.761
 8737TIP3    H226176   5.388   5.464   4.653
 8738TIP3   OH226177   4.423   0.087   1.782
 8738TIP3    H126178   4.450   0.006   1.823
 8738TIP3    H226179   4.501   0.117   1.734
 8739TIP3   OH226180   6.192   6.113   1.698
 8739TIP3    H126181   6.169   6.157   1.616
 8739TIP3    H226182   6.200   6.183   1.762
 8740TIP3   OH226183   2.906   4.532   4.079
 8740TIP3    H126184   2.893   4.442   4.110
 8740TIP3    H226185   2.821   4.558   4.044
 8741TIP3   OH226186   2.140   6.492   5.083
 8741TIP3    H126187   2.102   6.433   5.147
 8741TIP3    H226188   2.106   6.579   5.105
 8742TIP3   OH226189   3.606   5.770   3.828
 8742TIP3    H126190   3.619   5.689   3.877
 8742TIP3    H226191   3.600   5.742   3.737
 8743TIP3   OH226192   0.662   5.331   5.369
 8743TIP3    H126193   0.586   5.380   5.337
 8743TIP3    H226194   0.687   5.275   5.296
 8744TIP3   OH226195   7.105   0.209   3.183
 8744TIP3    H126196   7.107   0.187   3.276
 8744TIP3    H226197   7.023   0.171   3.151
 8745TIP3   OH226198   4.607   4.231   4.808
 8745TIP3    H126199   4.641   4.221   4.897
 8745TIP3    H226200   4.661   4.299   4.769
 8746TIP3   OH226201   4.691   1.854   3.306
 8746TIP3    H126202   4.695   1.763   3.277
 8746TIP3    H226203   4.772   1.893   3.273
 8747TIP3   OH226204   0.149   6.633   0.616
 8747TIP3    H126205   0.168   6.722   0.646
 8747TIP3    H226206   0.226   6.582   0.641
 8748TIP3   OH226207   3.968   2.586   3.744
 8748TIP3    H126208   4.049   2.557   3.786
 8748TIP3    H226209   3.992   2.667   3.699
 8749TIP3   OH226210   6.040   0.322   0.750
 8749TIP3    H126211   6.017   0.296   0.661
 8749TIP3    H226212   6.105   0.258   0.778
 8750TIP3   OH226213   4.735   4.367   4.625
 8750TIP3    H126214   4.686   4.359   4.543
 8750TIP3    H226215   4.819   4.405   4.599
 8751TIP3   OH226216   3.820   0.569   4.219
 8751TIP3    H126217   3.727   0.551   4.232
 8751TIP3    H226218   3.825   0.665   4.214
 8752TIP3   OH226219   4.167   6.441   2.566
 8752TIP3    H126220   4.113   6.521   2.558
 8752TIP3    H226221   4.183   6.414   2.476
 8753TIP3   OH226222   5.396   4.139   0.362
 8753TIP3    H126223   5.382   4.230   0.388
 8753TIP3    H226224   5.358   4.087   0.433
 8754TIP3   OH226225   4.831   2.345   0.287
 8754TIP3    H126226   4.739   2.335   0.312
 8754TIP3    H226227   4.858   2.257   0.262
 8755TIP3   OH226228   0.890   4.049   5.042
 8755TIP3    H126229   0.833   4.051   5.119
 8755TIP3    H226230   0.865   4.128   4.993
 8756TIP3   OH226231   2.792   1.453   4.977
 8756TIP3    H126232   2.748   1.442   5.061
 8756TIP3    H226233   2.728   1.424   4.912
 8757TIP3   OH226234   0.890   2.181   1.267
 8757TIP3    H126235   0.879   2.103   1.214
 8757TIP3    H226236   0.864   2.155   1.355
 8758TIP3   OH226237   4.608   5.169   0.126
 8758TIP3    H126238   4.575   5.190   0.214
 8758TIP3    H226239   4.546   5.211   0.067
 8759TIP3   OH226240   2.226   4.972   5.400
 8759TIP3    H126241   2.246   4.900   5.460
 8759TIP3    H226242   2.183   5.038   5.454
 8760TIP3   OH226243   5.069   2.710   5.848
 8760TIP3    H126244   5.104   2.789   5.806
 8760TIP3    H226245   5.145   2.652   5.856
 8761TIP3   OH226246   5.018   5.728   1.071
 8761TIP3    H126247   5.023   5.688   0.984
 8761TIP3    H226248   5.104   5.709   1.111
 8762TIP3   OH226249   4.649   1.541   1.965
 8762TIP3    H126250   4.645   1.520   2.058
 8762TIP3    H226251   4.652   1.637   1.963
 8763TIP3   OH226252   1.594   0.388   1.333
 8763TIP3    H126253   1.565   0.449   1.265
 8763TIP3    H226254   1.608   0.306   1.286
 8764TIP3   OH226255   0.648   4.012   1.949
 8764TIP3    H126256   0.620   3.960   2.024
 8764TIP3    H226257   0.661   3.947   1.879
 8765TIP3   OH226258   5.807   5.018   3.752
 8765TIP3    H126259   5.780   5.004   3.662
 8765TIP3    H226260   5.887   5.071   3.746
 8766TIP3   OH226261   0.965   3.671   5.541
 8766TIP3    H126262   0.991   3.641   5.629
 8766TIP3    H226263   1.029   3.630   5.483
 8767TIP3   OH226264   5.806   4.866   1.376
 8767TIP3    H126265   5.819   4.832   1.287
 8767TIP3    H226266   5.870   4.818   1.430
 8768TIP3   OH226267   6.486   4.085   5.083
 8768TIP3    H126268   6.409   4.033   5.105
 8768TIP3    H226269   6.489   4.086   4.988
 8769TIP3   OH226270   4.752   5.577   3.746
 8769TIP3    H126271   4.707   5.637   3.686
 8769TIP3    H226272   4.843   5.607   3.746
 8770TIP3   OH226273   3.193   0.248   0.904
 8770TIP3    H126274   3.192   0.340   0.879
 8770TIP3    H226275   3.285   0.231   0.927
 8771TIP3   OH226276   0.345   3.126   1.159
 8771TIP3    H126277   0.412   3.075   1.205
 8771TIP3    H226278   0.271   3.130   1.220
 8772TIP3   OH226279   0.255   5.834   4.283
 8772TIP3    H126280   0.273   5.926   4.267
 8772TIP3    H226281   0.232   5.830   4.376
 8773TIP3   OH226282   4.659   0.788   0.331
 8773TIP3    H126283   4.699   0.811   0.415
 8773TIP3    H226284   4.573   0.753   0.355
 8774TIP3   OH226285   6.063   3.370   4.466
 8774TIP3    H126286   6.027   3.316   4.536
 8774TIP3    H226287   6.113   3.310   4.412
 8775TIP3   OH226288   6.179   1.426   4.348
 8775TIP3    H126289   6.255   1.430   4.291
 8775TIP3    H226290   6.213   1.448   4.435
 8776TIP3   OH226291   5.462   3.797   0.623
 8776TIP3    H126292   5.462   3.721   0.565
 8776TIP3    H226293   5.530   3.855   0.587
 8777TIP3   OH226294   4.586   3.229   4.692
 8777TIP3    H126295   4.531   3.286   4.639
 8777TIP3    H226296   4.528   3.194   4.759
 8778TIP3   OH226297   5.243   3.470   4.228
 8778TIP3    H126298   5.297   3.443   4.302
 8778TIP3    H226299   5.154   3.446   4.253
 8779TIP3   OH226300   0.401   0.680   1.852
 8779TIP3    H126301   0.324   0.698   1.799
 8779TIP3    H226302   0.471   0.732   1.812
 8780TIP3   OH226303   1.716   5.159   1.122
 8780TIP3    H126304   1.710   5.228   1.189
 8780TIP3    H226305   1.731   5.206   1.040
 8781TIP3   OH226306   2.303   0.229   3.268
 8781TIP3    H126307   2.287   0.256   3.178
 8781TIP3    H226308   2.262   0.143   3.275
 8782TIP3   OH226309   2.557   4.132   4.346
 8782TIP3    H126310   2.540   4.182   4.266
 8782TIP3    H226311   2.470   4.107   4.378
 8783TIP3   OH226312   4.324   5.042   2.235
 8783TIP3    H126313   4.260   4.989   2.188
 8783TIP3    H226314   4.337   4.997   2.319
 8784TIP3   OH226315   3.140   3.785   1.479
 8784TIP3    H126316   3.135   3.692   1.456
 8784TIP3    H226317   3.048   3.813   1.480
 8785TIP3   OH226318   6.193   3.538   3.746
 8785TIP3    H126319   6.288   3.535   3.751
 8785TIP3    H226320   6.170   3.627   3.774
 8786TIP3   OH226321   3.556   2.554   4.342
 8786TIP3    H126322   3.522   2.620   4.282
 8786TIP3    H226323   3.565   2.599   4.426
 8787TIP3   OH226324   0.372   4.310   3.561
 8787TIP3    H126325   0.406   4.354   3.638
 8787TIP3    H226326   0.446   4.260   3.526
 8788TIP3   OH226327   1.729   5.629   3.320
 8788TIP3    H126328   1.684   5.696   3.270
 8788TIP3    H226329   1.738   5.555   3.260
 8789TIP3   OH226330   0.517   5.935   3.072
 8789TIP3    H126331   0.532   6.010   3.128
 8789TIP3    H226332   0.556   5.861   3.120
 8790TIP3   OH226333   0.003   5.304   4.078
 8790TIP3    H126334  -0.046   5.332   4.001
 8790TIP3    H226335   0.073   5.248   4.043
 8791TIP3   OH226336   6.365   2.537   0.339
 8791TIP3    H126337   6.325   2.525   0.252
 8791TIP3    H226338   6.438   2.475   0.340
 8792TIP3   OH226339   6.850   1.046   4.377
 8792TIP3    H126340   6.829   1.082   4.463
 8792TIP3    H226341   6.940   1.076   4.360
 8793TIP3   OH226342   4.906   0.595   4.486
 8793TIP3    H126343   4.980   0.551   4.444
 8793TIP3    H226344   4.870   0.530   4.546
 8794TIP3   OH226345   0.598   3.646   0.170
 8794TIP3    H126346   0.553   3.593   0.104
 8794TIP3    H226347   0.634   3.583   0.232
 8795TIP3   OH226348   4.678   3.504   1.002
 8795TIP3    H126349   4.773   3.496   0.996
 8795TIP3    H226350   4.655   3.456   1.081
 8796TIP3   OH226351   1.645   4.598   4.006
 8796TIP3    H126352   1.675   4.623   4.093
 8796TIP3    H226353   1.549   4.597   4.013
 8797TIP3   OH226354   5.084   0.069   1.558
 8797TIP3    H126355   5.007   0.074   1.502
 8797TIP3    H226356   5.158   0.090   1.500
 8798TIP3   OH226357   5.049  -0.008   3.536
 8798TIP3    H126358   5.052  -0.021   3.631
 8798TIP3    H226359   5.138  -0.029   3.506
 8799TIP3   OH226360   1.976   5.161   0.859
 8799TIP3    H126361   1.951   5.083   0.810
 8799TIP3    H226362   2.069   5.148   0.878
 8800TIP3   OH226363   0.589   1.289   4.641
 8800TIP3    H126364   0.646   1.218   4.669
 8800TIP3    H226365   0.507   1.246   4.616
 8801TIP3   OH226366   6.275   5.277   4.529
 8801TIP3    H126367   6.316   5.206   4.480
 8801TIP3    H226368   6.186   5.283   4.493
 8802TIP3   OH226369   6.896   0.160   1.739
 8802TIP3    H126370   6.845   0.156   1.820
 8802TIP3    H226371   6.876   0.078   1.694
 8803TIP3   OH226372   0.052   6.551   3.646
 8803TIP3    H126373   0.084   6.528   3.732
 8803TIP3    H226374   0.128   6.543   3.588
 8804TIP3   OH226375   1.944   0.610   5.003
 8804TIP3    H126376   1.915   0.699   5.024
 8804TIP3    H226377   1.897   0.589   4.922
 8805TIP3   OH226378   2.995   4.985   1.867
 8805TIP3    H126379   2.914   5.036   1.862
 8805TIP3    H226380   2.967   4.900   1.902
 8806TIP3   OH226381   6.030   1.863   4.058
 8806TIP3    H126382   5.960   1.904   4.110
 8806TIP3    H226383   6.087   1.821   4.123
 8807TIP3   OH226384   1.081   5.143   2.596
 8807TIP3    H126385   1.099   5.157   2.503
 8807TIP3    H226386   1.158   5.180   2.641
 8808TIP3   OH226387   1.240   2.841   4.881
 8808TIP3    H126388   1.331   2.859   4.903
 8808TIP3    H226389   1.222   2.898   4.805
 8809TIP3   OH226390   5.904   3.509   3.999
 8809TIP3    H126391   5.838   3.501   4.067
 8809TIP3    H226392   5.873   3.580   3.943
 8810TIP3   OH226393   4.773   3.154   0.316
 8810TIP3    H126394   4.697   3.172   0.371
 8810TIP3    H226395   4.736   3.129   0.231
 8811TIP3   OH226396   0.310   5.363   4.966
 8811TIP3    H126397   0.311   5.325   5.053
 8811TIP3    H226398   0.337   5.454   4.979
 8812TIP3   OH226399   6.793   6.493   2.353
 8812TIP3    H126400   6.780   6.495   2.258
 8812TIP3    H226401   6.866   6.432   2.366
 8813TIP3   OH226402   4.851   1.259   5.228
 8813TIP3    H126403   4.810   1.215   5.153
 8813TIP3    H226404   4.874   1.187   5.287
 8814TIP3   OH226405   5.031   5.934  -0.007
 8814TIP3    H126406   5.097   5.993   0.028
 8814TIP3    H226407   4.994   5.891   0.071
 8815TIP3   OH226408   0.342   0.538   4.213
 8815TIP3    H126409   0.378   0.515   4.298
 8815TIP3    H226410   0.249   0.551   4.229
 8816TIP3   OH226411   0.480   4.328   2.533
 8816TIP3    H126412   0.454   4.356   2.445
 8816TIP3    H226413   0.552   4.386   2.556
 8817TIP3   OH226414   2.777   6.713   1.267
 8817TIP3    H126415   2.790   6.646   1.199
 8817TIP3    H226416   2.847   6.697   1.331
 8818TIP3   OH226417   2.904   4.206   0.238
 8818TIP3    H126418   2.962   4.249   0.301
 8818TIP3    H226419   2.946   4.218   0.153
 8819TIP3   OH226420   3.803   2.533   0.245
 8819TIP3    H126421   3.747   2.520   0.321
 8819TIP3    H226422   3.751   2.501   0.171
 8820TIP3   OH226423   5.810   0.253   1.278
 8820TIP3    H126424   5.790   0.340   1.245
 8820TIP3    H226425   5.858   0.268   1.359
 8821TIP3   OH226426   5.359   1.905   4.698
 8821TIP3    H126427   5.412   1.851   4.640
 8821TIP3    H226428   5.294   1.945   4.641
 8822TIP3   OH226429   4.589   3.471   4.091
 8822TIP3    H126430   4.615   3.495   4.180
 8822TIP3    H226431   4.651   3.404   4.065
 8823TIP3   OH226432   6.574   1.586   3.979
 8823TIP3    H126433   6.665   1.594   3.952
 8823TIP3    H226434   6.567   1.641   4.057
 8824TIP3   OH226435   3.168   4.826   4.659
 8824TIP3    H126436   3.119   4.830   4.577
 8824TIP3    H226437   3.173   4.733   4.681
 8825TIP3   OH226438   1.168   0.494   3.046
 8825TIP3    H126439   1.161   0.586   3.019
 8825TIP3    H226440   1.143   0.445   2.968
 8826TIP3   OH226441   0.939   5.475   0.227
 8826TIP3    H126442   0.914   5.495   0.318
 8826TIP3    H226443   1.019   5.524   0.212
 8827TIP3   OH226444   4.337   3.063   1.821
 8827TIP3    H126445   4.428   3.038   1.805
 8827TIP3    H226446   4.301   3.079   1.734
 8828TIP3   OH226447   0.700   6.763   4.118
 8828TIP3    H126448   0.674   6.855   4.121
 8828TIP3    H226449   0.783   6.760   4.166
 8829TIP3   OH226450   2.331   3.647   1.594
 8829TIP3    H126451   2.280   3.651   1.676
 8829TIP3    H226452   2.419   3.676   1.620
 8830TIP3   OH226453   1.869   3.382   4.015
 8830TIP3    H126454   1.861   3.413   4.105
 8830TIP3    H226455   1.940   3.434   3.978
 8831TIP3   OH226456   3.753   4.309   5.415
 8831TIP3    H126457   3.784   4.334   5.328
 8831TIP3    H226458   3.782   4.379   5.472
 8832TIP3   OH226459   0.574   5.492   1.778
 8832TIP3    H126460   0.561   5.525   1.689
 8832TIP3    H226461   0.486   5.471   1.809
 8833TIP3   OH226462   6.959   4.801   3.162
 8833TIP3    H126463   6.909   4.724   3.191
 8833TIP3    H226464   6.937   4.869   3.225
 8834TIP3   OH226465   4.553   0.541   0.168
 8834TIP3    H126466   4.601   0.615   0.205
 8834TIP3    H226467   4.602   0.518   0.089
 8835TIP3   OH226468   4.605   1.805   1.864
 8835TIP3    H126469   4.517   1.842   1.862
 8835TIP3    H226470   4.647   1.839   1.784
 8836TIP3   OH226471   0.857   2.465   1.335
 8836TIP3    H126472   0.909   2.513   1.400
 8836TIP3    H226473   0.917   2.397   1.303
 8837TIP3   OH226474   5.268   1.366   3.837
 8837TIP3    H126475   5.258   1.380   3.742
 8837TIP3    H226476   5.205   1.297   3.857
 8838TIP3   OH226477   3.980   2.343   2.354
 8838TIP3    H126478   3.900   2.329   2.304
 8838TIP3    H226479   3.998   2.437   2.346
 8839TIP3   OH226480   4.854   4.040   5.784
 8839TIP3    H126481   4.908   4.115   5.809
 8839TIP3    H226482   4.916   3.975   5.752
 8840TIP3   OH226483   4.502   2.953   1.168
 8840TIP3    H126484   4.543   2.939   1.253
 8840TIP3    H226485   4.573   2.987   1.113
 8841TIP3   OH226486   0.521   5.618   1.537
 8841TIP3    H126487   0.431   5.592   1.516
 8841TIP3    H226488   0.520   5.713   1.530
 8842TIP3   OH226489   5.485   0.902   2.460
 8842TIP3    H126490   5.437   0.977   2.424
 8842TIP3    H226491   5.572   0.937   2.480
 8843TIP3   OH226492   4.335   2.782   2.737
 8843TIP3    H126493   4.336   2.849   2.669
 8843TIP3    H226494   4.382   2.708   2.698
 8844TIP3   OH226495   0.260   2.032   0.927
 8844TIP3    H126496   0.219   2.031   0.841
 8844TIP3    H226497   0.200   1.981   0.982
 8845TIP3   OH226498   1.844   3.431   4.273
 8845TIP3    H126499   1.892   3.506   4.308
 8845TIP3    H226500   1.795   3.396   4.347
 8846TIP3   OH226501   0.881   3.711   0.438
 8846TIP3    H126502   0.970   3.744   0.453
 8846TIP3    H226503   0.857   3.747   0.353
 8847TIP3   OH226504   4.497   5.958   3.165
 8847TIP3    H126505   4.411   5.945   3.206
 8847TIP3    H226506   4.478   6.010   3.087
 8848TIP3   OH226507   3.060   1.722   1.911
 8848TIP3    H126508   3.154   1.702   1.903
 8848TIP3    H226509   3.033   1.676   1.991
 8849TIP3   OH226510   4.543   4.432   5.772
 8849TIP3    H126511   4.466   4.481   5.743
 8849TIP3    H226512   4.603   4.438   5.698
 8850TIP3   OH226513   5.691   4.877   3.961
 8850TIP3    H126514   5.757   4.934   3.922
 8850TIP3    H226515   5.657   4.825   3.887
 8851TIP3   OH226516   4.293   4.761   0.319
 8851TIP3    H126517   4.288   4.676   0.362
 8851TIP3    H226518   4.211   4.768   0.270
 8852TIP3   OH226519   3.784   1.390   5.903
 8852TIP3    H126520   3.826   1.307   5.880
 8852TIP3    H226521   3.825   1.455   5.846
 8853TIP3   OH226522   3.279   2.482   2.661
 8853TIP3    H126523   3.274   2.543   2.735
 8853TIP3    H226524   3.236   2.402   2.692
 8854TIP3   OH226525   3.343   6.766   4.655
 8854TIP3    H126526   3.406   6.778   4.725
 8854TIP3    H226527   3.395   6.764   4.575
 8855TIP3   OH226528   4.968   4.523   4.580
 8855TIP3    H126529   5.046   4.541   4.527
 8855TIP3    H226530   4.904   4.589   4.551
 8856TIP3   OH226531   5.806   1.821   4.971
 8856TIP3    H126532   5.809   1.882   4.897
 8856TIP3    H226533   5.725   1.843   5.017
 8857TIP3   OH226534   1.032   6.147   2.683
 8857TIP3    H126535   0.988   6.185   2.606
 8857TIP3    H226536   0.993   6.060   2.692
 8858TIP3   OH226537   2.905   4.760   2.334
 8858TIP3    H126538   2.970   4.698   2.300
 8858TIP3    H226539   2.841   4.705   2.380
 8859TIP3   OH226540   3.796   0.427   0.315
 8859TIP3    H126541   3.769   0.464   0.230
 8859TIP3    H226542   3.869   0.483   0.342
 8860TIP3   OH226543   7.056   2.867   3.994
 8860TIP3    H126544   7.056   2.884   3.900
 8860TIP3    H226545   7.077   2.774   4.001
 8861TIP3   OH226546   0.775   5.030   4.778
 8861TIP3    H126547   0.861   5.016   4.818
 8861TIP3    H226548   0.769   5.125   4.767
 8862TIP3   OH226549   4.051   6.325   2.789
 8862TIP3    H126550   4.116   6.366   2.733
 8862TIP3    H226551   3.971   6.376   2.775
 8863TIP3   OH226552   3.798   2.428   2.742
 8863TIP3    H126553   3.739   2.385   2.680
 8863TIP3    H226554   3.870   2.365   2.753
 8864TIP3   OH226555   6.875   1.817   0.392
 8864TIP3    H126556   6.897   1.901   0.350
 8864TIP3    H226557   6.909   1.825   0.481
 8865TIP3   OH226558   5.253   4.200   2.383
 8865TIP3    H126559   5.228   4.154   2.463
 8865TIP3    H226560   5.254   4.132   2.315
 8866TIP3   OH226561   5.298   2.159   3.861
 8866TIP3    H126562   5.216   2.172   3.811
 8866TIP3    H226563   5.320   2.067   3.847
 8867TIP3   OH226564   6.133   0.187   2.716
 8867TIP3    H126565   6.099   0.244   2.647
 8867TIP3    H226566   6.058   0.168   2.771
 8868TIP3   OH226567   3.277   2.415   4.914
 8868TIP3    H126568   3.322   2.372   4.986
 8868TIP3    H226569   3.341   2.414   4.842
 8869TIP3   OH226570   6.711   2.732   1.032
 8869TIP3    H126571   6.685   2.824   1.019
 8869TIP3    H226572   6.641   2.682   0.989
 8870TIP3   OH226573   6.294   4.456   1.130
 8870TIP3    H126574   6.255   4.526   1.078
 8870TIP3    H226575   6.373   4.494   1.167
 8871TIP3   OH226576   6.918   2.067   0.234
 8871TIP3    H126577   6.987   2.127   0.263
 8871TIP3    H226578   6.848   2.123   0.203
 8872TIP3   OH226579   3.373   0.742   5.739
 8872TIP3    H126580   3.371   0.647   5.744
 8872TIP3    H226581   3.328   0.771   5.819
 8873TIP3   OH226582   5.940   0.878   5.853
 8873TIP3    H126583   5.931   0.958   5.905
 8873TIP3    H226584   5.987   0.817   5.910
 8874TIP3   OH226585   4.903   3.331  -0.007
 8874TIP3    H126586   4.818   3.365   0.023
 8874TIP3    H226587   4.891   3.236  -0.008
 8875TIP3   OH226588   2.328   2.637   2.462
 8875TIP3    H126589   2.397   2.657   2.398
 8875TIP3    H226590   2.285   2.722   2.478
 8876TIP3   OH226591   5.372   1.405   1.589
 8876TIP3    H126592   5.277   1.415   1.581
 8876TIP3    H226593   5.395   1.340   1.522
 8877TIP3   OH226594   2.201   2.755   0.421
 8877TIP3    H126595   2.211   2.740   0.327
 8877TIP3    H226596   2.220   2.670   0.461
 8878TIP3   OH226597   4.580   0.323   2.918
 8878TIP3    H126598   4.494   0.296   2.949
 8878TIP3    H226599   4.636   0.248   2.935
 8879TIP3   OH226600   6.971   5.532   4.142
 8879TIP3    H126601   7.055   5.555   4.181
 8879TIP3    H226602   6.914   5.513   4.217
 8880TIP3   OH226603   6.032   1.035   0.514
 8880TIP3    H126604   5.991   1.021   0.429
 8880TIP3    H226605   5.965   1.007   0.577
 8881TIP3   OH226606   0.775   4.895   2.348
 8881TIP3    H126607   0.741   4.915   2.260
 8881TIP3    H226608   0.772   4.978   2.394
 8882TIP3   OH226609   1.331   5.087   0.554
 8882TIP3    H126610   1.311   5.000   0.520
 8882TIP3    H226611   1.316   5.081   0.648
 8883TIP3   OH226612   4.097   1.839   5.596
 8883TIP3    H126613   4.022   1.837   5.656
 8883TIP3    H226614   4.169   1.874   5.648
 8884TIP3   OH226615   2.514   6.487   4.830
 8884TIP3    H126616   2.452   6.479   4.759
 8884TIP3    H226617   2.466   6.533   4.899
 8885TIP3   OH226618   6.607   4.198   2.312
 8885TIP3    H126619   6.530   4.158   2.353
 8885TIP3    H226620   6.571   4.254   2.243
 8886TIP3   OH226621   6.932   0.397   5.050
 8886TIP3    H126622   6.880   0.447   5.113
 8886TIP3    H226623   6.943   0.457   4.976
 8887TIP3   OH226624   6.780   0.003   0.041
 8887TIP3    H126625   6.779   0.074   0.106
 8887TIP3    H226626   6.850   0.027  -0.019
 8888TIP3   OH226627   2.625   2.479   3.419
 8888TIP3    H126628   2.549   2.421   3.421
 8888TIP3    H226629   2.700   2.420   3.413
 8889TIP3   OH226630   5.048   6.232   2.031
 8889TIP3    H126631   5.048   6.158   2.092
 8889TIP3    H226632   5.140   6.246   2.011
 8890TIP3   OH226633   5.824   1.880   2.350
 8890TIP3    H126634   5.843   1.950   2.287
 8890TIP3    H226635   5.866   1.803   2.313
 8891TIP3   OH226636   5.563   1.418   0.719
 8891TIP3    H126637   5.589   1.326   0.716
 8891TIP3    H226638   5.642   1.466   0.695
 8892TIP3   OH226639   3.441   4.253   0.121
 8892TIP3    H126640   3.389   4.333   0.118
 8892TIP3    H226641   3.451   4.234   0.214
 8893TIP3   OH226642   4.097   1.783   3.642
 8893TIP3    H126643   4.179   1.804   3.688
 8893TIP3    H226644   4.062   1.869   3.616
 8894TIP3   OH226645   3.984   1.130   5.289
 8894TIP3    H126646   3.975   1.174   5.374
 8894TIP3    H226647   3.927   1.179   5.230
 8895TIP3   OH226648   2.226   3.786   4.963
 8895TIP3    H126649   2.175   3.707   4.945
 8895TIP3    H226650   2.317   3.756   4.964
 8896TIP3   OH226651   2.477   0.799   5.409
 8896TIP3    H126652   2.549   0.736   5.420
 8896TIP3    H226653   2.415   0.777   5.478
 8897TIP3   OH226654   4.084   3.490   3.934
 8897TIP3    H126655   4.156   3.487   3.996
 8897TIP3    H226656   4.126   3.501   3.849
 8898TIP3   OH226657   2.060   2.729   1.345
 8898TIP3    H126658   2.138   2.674   1.354
 8898TIP3    H226659   2.023   2.703   1.260
 8899TIP3   OH226660   2.897   6.706   0.528
 8899TIP3    H126661   2.849   6.702   0.446
 8899TIP3    H226662   2.836   6.671   0.593
 8900TIP3   OH226663   7.118   3.567   4.569
 8900TIP3    H126664   7.170   3.623   4.627
 8900TIP3    H226665   7.150   3.479   4.585
 8901TIP3   OH226666   6.490   3.572   1.687
 8901TIP3    H126667   6.569   3.599   1.640
 8901TIP3    H226668   6.420   3.579   1.622
 8902TIP3   OH226669   6.624   0.357   0.582
 8902TIP3    H126670   6.576   0.311   0.513
 8902TIP3    H226671   6.651   0.288   0.642
 8903TIP3   OH226672   5.246   2.460   0.112
 8903TIP3    H126673   5.272   2.511   0.036
 8903TIP3    H226674   5.196   2.387   0.076
 8904TIP3   OH226675   7.164   1.846   3.296
 8904TIP3    H126676   7.168   1.804   3.382
 8904TIP3    H226677   7.251   1.832   3.258
 8905TIP3   OH226678   7.220   2.949   2.072
 8905TIP3    H126679   7.171   2.916   2.148
 8905TIP3    H226680   7.306   2.971   2.106
 8906TIP3   OH226681   1.811   1.746   5.645
 8906TIP3    H126682   1.825   1.840   5.638
 8906TIP3    H226683   1.889   1.707   5.606
 8907TIP3   OH226684   1.228   3.349   5.204
 8907TIP3    H126685   1.146   3.309   5.233
 8907TIP3    H226686   1.234   3.327   5.111
 8908TIP3   OH226687   0.938   5.465   4.327
 8908TIP3    H126688   0.922   5.553   4.292
 8908TIP3    H226689   1.033   5.460   4.337
 8909TIP3   OH226690   6.569   3.262   5.371
 8909TIP3    H126691   6.652   3.306   5.386
 8909TIP3    H226692   6.509   3.332   5.344
 8910TIP3   OH226693   4.866   1.579   0.092
 8910TIP3    H126694   4.948   1.592   0.045
 8910TIP3    H226695   4.849   1.663   0.135
 8911TIP3   OH226696   3.527   5.119   0.469
 8911TIP3    H126697   3.437   5.144   0.492
 8911TIP3    H226698   3.570   5.202   0.446
 8912TIP3   OH226699   4.957   0.836   1.156
 8912TIP3    H126700   5.030   0.896   1.168
 8912TIP3    H226701   4.997   0.749   1.157
 8913TIP3   OH226702   2.437   3.076   2.864
 8913TIP3    H126703   2.483   3.157   2.841
 8913TIP3    H226704   2.349   3.086   2.828
 8914TIP3   OH226705   1.366   3.899   0.926
 8914TIP3    H126706   1.382   3.819   0.876
 8914TIP3    H226707   1.280   3.929   0.897
 8915TIP3   OH226708   7.087   5.233   4.312
 8915TIP3    H126709   6.996   5.205   4.300
 8915TIP3    H226710   7.119   5.248   4.223
 8916TIP3   OH226711   5.831   6.774   0.874
 8916TIP3    H126712   5.923   6.753   0.859
 8916TIP3    H226713   5.826   6.793   0.968
 8917TIP3   OH226714   5.402   5.399   1.006
 8917TIP3    H126715   5.453   5.452   1.067
 8917TIP3    H226716   5.312   5.404   1.039
 8918TIP3   OH226717   3.061   6.116   1.166
 8918TIP3    H126718   3.128   6.159   1.114
 8918TIP3    H226719   3.005   6.187   1.196
 8919TIP3   OH226720   2.371   6.289   0.789
 8919TIP3    H126721   2.412   6.314   0.707
 8919TIP3    H226722   2.310   6.219   0.766
 8920TIP3   OH226723   2.486   1.048   2.039
 8920TIP3    H126724   2.558   1.070   1.981
 8920TIP3    H226725   2.525   1.046   2.127
 8921TIP3   OH226726   7.065   1.989   0.863
 8921TIP3    H126727   7.084   1.901   0.895
 8921TIP3    H226728   7.147   2.037   0.875
 8922TIP3   OH226729   2.796   5.340   4.832
 8922TIP3    H126730   2.743   5.268   4.867
 8922TIP3    H226731   2.774   5.342   4.738
 8923TIP3   OH226732   5.690   6.335   4.233
 8923TIP3    H126733   5.667   6.352   4.141
 8923TIP3    H226734   5.778   6.372   4.242
 8924TIP3   OH226735   1.253   0.658   0.495
 8924TIP3    H126736   1.344   0.657   0.464
 8924TIP3    H226737   1.202   0.684   0.418
 8925TIP3   OH226738   4.965   3.602   2.190
 8925TIP3    H126739   4.928   3.603   2.102
 8925TIP3    H226740   4.901   3.555   2.243
 8926TIP3   OH226741   2.020   6.428   0.688
 8926TIP3    H126742   2.107   6.390   0.690
 8926TIP3    H226743   1.985   6.404   0.603
 8927TIP3   OH226744   5.486   3.696   2.226
 8927TIP3    H126745   5.520   3.622   2.276
 8927TIP3    H226746   5.393   3.698   2.247
 8928TIP3   OH226747   0.636   1.518   4.803
 8928TIP3    H126748   0.640   1.595   4.747
 8928TIP3    H226749   0.631   1.444   4.742
 8929TIP3   OH226750   5.386   3.290   0.217
 8929TIP3    H126751   5.292   3.303   0.230
 8929TIP3    H226752   5.396   3.197   0.199
 8930TIP3   OH226753   3.004   1.594   0.079
 8930TIP3    H126754   2.914   1.562   0.087
 8930TIP3    H226755   3.023   1.591  -0.015
 8931TIP3   OH226756   5.641   0.661   4.102
 8931TIP3    H126757   5.580   0.595   4.069
 8931TIP3    H226758   5.701   0.612   4.158
 8932TIP3   OH226759   3.451   3.425   1.700
 8932TIP3    H126760   3.412   3.352   1.652
 8932TIP3    H226761   3.528   3.449   1.648
 8933TIP3   OH226762   4.349   5.274   2.074
 8933TIP3    H126763   4.358   5.211   2.146
 8933TIP3    H226764   4.269   5.322   2.095
 8934TIP3   OH226765   6.038   1.312   4.632
 8934TIP3    H126766   5.959   1.359   4.660
 8934TIP3    H226767   6.059   1.256   4.707
 8935TIP3   OH226768   6.156   1.110   3.709
 8935TIP3    H126769   6.237   1.145   3.670
 8935TIP3    H226770   6.171   1.115   3.803
 8936TIP3   OH226771   2.001   2.389   5.839
 8936TIP3    H126772   2.056   2.315   5.865
 8936TIP3    H226773   1.985   2.376   5.746
 8937TIP3   OH226774   0.381   4.272   0.407
 8937TIP3    H126775   0.361   4.358   0.372
 8937TIP3    H226776   0.306   4.250   0.462
 8938TIP3   OH226777   7.056   5.182   0.059
 8938TIP3    H126778   7.094   5.268   0.041
 8938TIP3    H226779   7.120   5.138   0.116
 8939TIP3   OH226780   1.340   0.046   3.016
 8939TIP3    H126781   1.385   0.006   2.941
 8939TIP3    H226782   1.263   0.088   2.978
 8940TIP3   OH226783   5.043   3.939   0.780
 8940TIP3    H126784   5.096   3.876   0.732
 8940TIP3    H226785   5.065   4.024   0.742
 8941TIP3   OH226786   2.835   3.439   0.817
 8941TIP3    H126787   2.763   3.379   0.836
 8941TIP3    H226788   2.798   3.526   0.835
 8942TIP3   OH226789   7.159   1.707   2.088
 8942TIP3    H126790   7.213   1.696   2.167
 8942TIP3    H226791   7.178   1.796   2.059
 8943TIP3   OH226792   6.542   5.412   1.490
 8943TIP3    H126793   6.531   5.317   1.485
 8943TIP3    H226794   6.632   5.427   1.461
 8944TIP3   OH226795   1.066   3.048   5.047
 8944TIP3    H126796   1.132   2.987   5.013
 8944TIP3    H226797   1.022   2.999   5.117
 8945TIP3   OH226798   1.978   5.415   4.465
 8945TIP3    H126799   1.960   5.495   4.416
 8945TIP3    H226800   1.988   5.445   4.556
 8946TIP3   OH226801   6.759   6.551   4.324
 8946TIP3    H126802   6.806   6.609   4.264
 8946TIP3    H226803   6.716   6.487   4.268
 8947TIP3   OH226804   0.162   4.245   2.640
 8947TIP3    H126805   0.250   4.267   2.608
 8947TIP3    H226806   0.178   4.209   2.728
 8948TIP3   OH226807   0.335   3.272   2.956
 8948TIP3    H126808   0.363   3.330   3.026
 8948TIP3    H226809   0.240   3.274   2.959
 8949TIP3   OH226810   4.223   4.324   0.929
 8949TIP3    H126811   4.155   4.266   0.895
 8949TIP3    H226812   4.262   4.363   0.851
 8950TIP3   OH226813   1.690   1.050   4.985
 8950TIP3    H126814   1.638   1.023   5.061
 8950TIP3    H226815   1.636   1.029   4.910
 8951TIP3   OH226816   6.451   6.567   2.077
 8951TIP3    H126817   6.470   6.657   2.104
 8951TIP3    H226818   6.370   6.574   2.027
 8952TIP3   OH226819   6.179   3.333   5.248
 8952TIP3    H126820   6.259   3.381   5.227
 8952TIP3    H226821   6.115   3.365   5.184
 8953TIP3   OH226822   0.332   4.669   0.829
 8953TIP3    H126823   0.270   4.612   0.784
 8953TIP3    H226824   0.418   4.632   0.808
 8954TIP3   OH226825   4.609   0.886   5.298
 8954TIP3    H126826   4.594   0.795   5.272
 8954TIP3    H226827   4.531   0.933   5.267
 8955TIP3   OH226828   5.433   4.407   2.349
 8955TIP3    H126829   5.377   4.473   2.391
 8955TIP3    H226830   5.402   4.324   2.384
 8956TIP3   OH226831   5.526   1.639   3.082
 8956TIP3    H126832   5.445   1.634   3.031
 8956TIP3    H226833   5.504   1.597   3.165
 8957TIP3   OH226834   6.547   1.625   3.512
 8957TIP3    H126835   6.531   1.713   3.547
 8957TIP3    H226836   6.631   1.600   3.550
 8958TIP3   OH226837   5.773   0.792   5.271
 8958TIP3    H126838   5.720   0.728   5.225
 8958TIP3    H226839   5.860   0.752   5.277
 8959TIP3   OH226840   2.953   2.749   2.863
 8959TIP3    H126841   3.042   2.776   2.841
 8959TIP3    H226842   2.964   2.667   2.911
 8960TIP3   OH226843   2.141   3.527   5.232
 8960TIP3    H126844   2.195   3.488   5.301
 8960TIP3    H226845   2.060   3.552   5.275
 8961TIP3   OH226846   3.331   0.473   5.717
 8961TIP3    H126847   3.274   0.396   5.716
 8961TIP3    H226848   3.309   0.520   5.637
 8962TIP3   OH226849   3.186   4.883   0.709
 8962TIP3    H126850   3.113   4.822   0.717
 8962TIP3    H226851   3.188   4.906   0.616
 8963TIP3   OH226852   3.806   2.592   5.046
 8963TIP3    H126853   3.767   2.674   5.017
 8963TIP3    H226854   3.762   2.525   4.993
 8964TIP3   OH226855   5.407   3.360   2.946
 8964TIP3    H126856   5.375   3.388   2.860
 8964TIP3    H226857   5.401   3.265   2.944
 8965TIP3   OH226858   5.075   0.001   2.940
 8965TIP3    H126859   5.047   0.070   2.880
 8965TIP3    H226860   5.140  -0.048   2.890
 8966TIP3   OH226861   4.935   4.974   0.563
 8966TIP3    H126862   4.887   4.977   0.480
 8966TIP3    H226863   4.873   4.937   0.625
 8967TIP3   OH226864   4.273   0.496   0.737
 8967TIP3    H126865   4.260   0.419   0.791
 8967TIP3    H226866   4.209   0.488   0.667
 8968TIP3   OH226867   6.022   3.246   5.475
 8968TIP3    H126868   6.047   3.303   5.402
 8968TIP3    H226869   6.080   3.170   5.467
 8969TIP3   OH226870   4.611   5.875   0.131
 8969TIP3    H126871   4.520   5.870   0.102
 8969TIP3    H226872   4.662   5.858   0.052
 8970TIP3   OH226873   4.179   5.050   1.188
 8970TIP3    H126874   4.093   5.058   1.148
 8970TIP3    H226875   4.222   5.134   1.169
 8971TIP3   OH226876   6.137   5.443   0.525
 8971TIP3    H126877   6.158   5.476   0.438
 8971TIP3    H226878   6.175   5.508   0.585
 8972TIP3   OH226879   2.856   1.733   0.733
 8972TIP3    H126880   2.812   1.734   0.818
 8972TIP3    H226881   2.797   1.782   0.675
 8973TIP3   OH226882   0.738   3.866   1.445
 8973TIP3    H126883   0.824   3.855   1.404
 8973TIP3    H226884   0.678   3.820   1.386
 8974TIP3   OH226885   0.548   2.522   0.747
 8974TIP3    H126886   0.478   2.458   0.759
 8974TIP3    H226887   0.549   2.572   0.829
 8975TIP3   OH226888   6.600   2.277   1.923
 8975TIP3    H126889   6.538   2.348   1.940
 8975TIP3    H226890   6.557   2.199   1.959
 8976TIP3   OH226891   4.499   6.151   0.971
 8976TIP3    H126892   4.495   6.171   0.877
 8976TIP3    H226893   4.459   6.065   0.979
 8977TIP3   OH226894   3.115   5.972   2.003
 8977TIP3    H126895   3.148   5.906   2.064
 8977TIP3    H226896   3.167   5.958   1.923
 8978TIP3   OH226897   6.916   5.485   2.905
 8978TIP3    H126898   6.971   5.529   2.841
 8978TIP3    H226899   6.836   5.538   2.909
 8979TIP3   OH226900   6.994   6.165   3.568
 8979TIP3    H126901   6.908   6.128   3.588
 8979TIP3    H226902   7.000   6.243   3.623
 8980TIP3   OH226903   3.299   6.491   1.592
 8980TIP3    H126904   3.298   6.509   1.498
 8980TIP3    H226905   3.392   6.497   1.617
 8981TIP3   OH226906   1.089   1.618   0.201
 8981TIP3    H126907   1.091   1.713   0.206
 8981TIP3    H226908   1.094   1.599   0.107
 8982TIP3   OH226909   1.692   2.961   3.223
 8982TIP3    H126910   1.735   2.880   3.196
 8982TIP3    H226911   1.667   2.946   3.314
 8983TIP3   OH226912   1.786   2.868   2.019
 8983TIP3    H126913   1.716   2.807   2.042
 8983TIP3    H226914   1.761   2.950   2.062
 8984TIP3   OH226915   6.131   0.443   3.809
 8984TIP3    H126916   6.178   0.419   3.730
 8984TIP3    H226917   6.104   0.534   3.795
 8985TIP3   OH226918   6.187   0.301   4.047
 8985TIP3    H126919   6.156   0.344   3.967
 8985TIP3    H226920   6.235   0.224   4.017
 8986TIP3   OH226921   1.204   1.830   5.459
 8986TIP3    H126922   1.155   1.911   5.441
 8986TIP3    H226923   1.284   1.860   5.502
 8987TIP3   OH226924   2.711   5.634   2.448
 8987TIP3    H126925   2.657   5.712   2.438
 8987TIP3    H226926   2.798   5.667   2.474
 8988TIP3   OH226927   7.083   4.251   0.976
 8988TIP3    H126928   7.127   4.266   1.059
 8988TIP3    H226929   6.990   4.249   0.998
 8989TIP3   OH226930   1.841   0.230   4.014
 8989TIP3    H126931   1.876   0.293   4.077
 8989TIP3    H226932   1.754   0.265   3.992
 8990TIP3   OH226933   4.489   0.981   3.246
 8990TIP3    H126934   4.437   1.031   3.308
 8990TIP3    H226935   4.510   1.044   3.176
 8991TIP3   OH226936   0.230   2.713   1.301
 8991TIP3    H126937   0.231   2.755   1.215
 8991TIP3    H226938   0.252   2.783   1.362
 8992TIP3   OH226939   6.233   2.162   2.916
 8992TIP3    H126940   6.154   2.111   2.898
 8992TIP3    H226941   6.282   2.160   2.833
 8993TIP3   OH226942   3.827   4.291   2.820
 8993TIP3    H126943   3.884   4.357   2.860
 8993TIP3    H226944   3.748   4.340   2.794
 8994TIP3   OH226945   2.378   4.360   4.998
 8994TIP3    H126946   2.431   4.337   4.922
 8994TIP3    H226947   2.398   4.452   5.015
 8995TIP3   OH226948   6.930   1.435   4.216
 8995TIP3    H126949   6.996   1.477   4.161
 8995TIP3    H226950   6.884   1.508   4.258
 8996TIP3   OH226951   2.734   3.179   2.505
 8996TIP3    H126952   2.761   3.155   2.416
 8996TIP3    H226953   2.646   3.141   2.514
 8997TIP3   OH226954   2.973   6.250   3.738
 8997TIP3    H126955   2.886   6.252   3.699
 8997TIP3    H226956   2.957   6.258   3.832
 8998TIP3   OH226957   1.367   3.944   0.515
 8998TIP3    H126958   1.328   3.861   0.545
 8998TIP3    H226959   1.434   3.917   0.452
 8999TIP3   OH226960   6.614   1.814   0.851
 8999TIP3    H126961   6.702   1.776   0.850
 8999TIP3    H226962   6.596   1.831   0.943
 9000TIP3   OH226963   5.079   5.289   0.922
 9000TIP3    H126964   5.112   5.235   0.849
 9000TIP3    H226965   5.068   5.376   0.884
 9001TIP3   OH226966   2.542   1.903   1.301
 9001TIP3    H126967   2.517   1.959   1.228
 9001TIP3    H226968   2.467   1.904   1.360
 9002TIP3   OH226969   2.298   4.636   1.585
 9002TIP3    H126970   2.385   4.604   1.559
 9002TIP3    H226971   2.299   4.729   1.560
 9003TIP3   OH226972   6.556   1.002   5.017
 9003TIP3    H126973   6.556   0.995   5.112
 9003TIP3    H226974   6.564   1.095   4.999
 9004TIP3   OH226975   4.200   1.528   5.771
 9004TIP3    H126976   4.265   1.597   5.761
 9004TIP3    H226977   4.201   1.507   5.864
 9005TIP3   OH226978   5.807   6.327   3.825
 9005TIP3    H126979   5.803   6.232   3.838
 9005TIP3    H226980   5.737   6.362   3.880
 9006TIP3   OH226981   1.921   6.050   3.982
 9006TIP3    H126982   1.956   6.132   4.019
 9006TIP3    H226983   1.903   5.996   4.059
 9007TIP3   OH226984   0.513   4.335   1.019
 9007TIP3    H126985   0.542   4.262   0.964
 9007TIP3    H226986   0.426   4.309   1.049
 9008TIP3   OH226987   1.339   3.096   1.728
 9008TIP3    H126988   1.293   3.140   1.656
 9008TIP3    H226989   1.414   3.054   1.686
 9009TIP3   OH226990   7.056   4.741   1.289
 9009TIP3    H126991   6.991   4.689   1.242
 9009TIP3    H226992   7.083   4.808   1.226
 9010TIP3   OH226993   3.397   3.409   0.765
 9010TIP3    H126994   3.442   3.459   0.697
 9010TIP3    H226995   3.374   3.326   0.723
 9011TIP3   OH226996   4.530   5.574   0.825
 9011TIP3    H126997   4.588   5.560   0.750
 9011TIP3    H226998   4.450   5.527   0.802
 9012TIP3   OH226999   5.587   4.371   2.105
 9012TIP3    H127000   5.540   4.396   2.185
 9012TIP3    H227001   5.531   4.303   2.065
 9013TIP3   OH227002   4.236   5.971   5.647
 9013TIP3    H127003   4.218   6.008   5.733
 9013TIP3    H227004   4.152   5.972   5.602
 9014TIP3   OH227005   7.070   3.752   5.027
 9014TIP3    H127006   7.005   3.804   4.979
 9014TIP3    H227007   7.123   3.818   5.072
 9015TIP3   OH227008   6.196   5.989   4.247
 9015TIP3    H127009   6.234   5.935   4.178
 9015TIP3    H227010   6.267   6.002   4.310
 9016TIP3   OH227011   1.109   3.244   5.541
 9016TIP3    H127012   1.174   3.175   5.546
 9016TIP3    H227013   1.123   3.297   5.620
 9017TIP3   OH227014   2.154   2.738   0.138
 9017TIP3    H127015   2.242   2.710   0.113
 9017TIP3    H227016   2.108   2.657   0.160
 9018TIP3   OH227017   0.531   6.537   4.697
 9018TIP3    H127018   0.453   6.530   4.641
 9018TIP3    H227019   0.502   6.590   4.771
 9019TIP3   OH227020   4.107   1.093   3.478
 9019TIP3    H127021   4.088   1.167   3.421
 9019TIP3    H227022   4.042   1.099   3.548
 9020TIP3   OH227023   5.099   2.918   0.985
 9020TIP3    H127024   5.169   2.978   0.959
 9020TIP3    H227025   5.052   2.899   0.904
 9021TIP3   OH227026   4.418   6.521   4.124
 9021TIP3    H127027   4.472   6.600   4.121
 9021TIP3    H227028   4.432   6.485   4.211
 9022TIP3   OH227029   6.111   0.236   1.301
 9022TIP3    H127030   6.141   0.316   1.257
 9022TIP3    H227031   6.044   0.201   1.243
 9023TIP3   OH227032   5.628   1.420   1.724
 9023TIP3    H127033   5.536   1.427   1.699
 9023TIP3    H227034   5.653   1.332   1.697
 9024TIP3   OH227035   3.370   1.592   5.728
 9024TIP3    H127036   3.332   1.679   5.742
 9024TIP3    H227037   3.429   1.603   5.653
 9025TIP3   OH227038   0.967   3.023   2.389
 9025TIP3    H127039   1.023   3.034   2.465
 9025TIP3    H227040   0.879   3.039   2.421
 9026TIP3   OH227041   4.102   3.705   3.182
 9026TIP3    H127042   4.109   3.763   3.107
 9026TIP3    H227043   4.175   3.730   3.239
 9027TIP3   OH227044   1.045   1.139   3.819
 9027TIP3    H127045   1.094   1.217   3.843
 9027TIP3    H227046   1.108   1.068   3.826
 9028TIP3   OH227047   3.381   2.102   1.293
 9028TIP3    H127048   3.395   2.013   1.261
 9028TIP3    H227049   3.289   2.104   1.318
 9029TIP3   OH227050   0.649   3.192   4.084
 9029TIP3    H127051   0.568   3.201   4.035
 9029TIP3    H227052   0.718   3.201   4.019
 9030TIP3   OH227053   4.674   6.832   3.701
 9030TIP3    H127054   4.753   6.788   3.669
 9030TIP3    H227055   4.625   6.763   3.746
 9031TIP3   OH227056   2.746   5.458   3.259
 9031TIP3    H127057   2.702   5.531   3.215
 9031TIP3    H227058   2.756   5.487   3.350
 9032TIP3   OH227059   5.028   2.632   3.949
 9032TIP3    H127060   5.076   2.619   3.867
 9032TIP3    H227061   4.971   2.707   3.932
 9033TIP3   OH227062   3.520   1.283   3.469
 9033TIP3    H127063   3.502   1.325   3.385
 9033TIP3    H227064   3.497   1.191   3.456
 9034TIP3   OH227065   1.107   4.456   4.634
 9034TIP3    H127066   1.112   4.546   4.601
 9034TIP3    H227067   1.199   4.429   4.644
 9035TIP3   OH227068   3.167   5.187   1.772
 9035TIP3    H127069   3.094   5.223   1.722
 9035TIP3    H227070   3.133   5.105   1.807
 9036TIP3   OH227071   6.467   6.325   4.488
 9036TIP3    H127072   6.437   6.416   4.495
 9036TIP3    H227073   6.426   6.280   4.561
 9037TIP3   OH227074   6.749   6.510   0.724
 9037TIP3    H127075   6.810   6.581   0.746
 9037TIP3    H227076   6.666   6.539   0.761
 9038TIP3   OH227077   6.656   0.320   5.753
 9038TIP3    H127078   6.578   0.373   5.768
 9038TIP3    H227079   6.692   0.306   5.840
 9039TIP3   OH227080   3.216   1.080   1.496
 9039TIP3    H127081   3.152   1.014   1.471
 9039TIP3    H227082   3.171   1.136   1.560
 9040TIP3   OH227083   3.793   3.244   5.573
 9040TIP3    H127084   3.780   3.318   5.513
 9040TIP3    H227085   3.858   3.276   5.636
 9041TIP3   OH227086   3.854   3.149   4.225
 9041TIP3    H127087   3.863   3.243   4.210
 9041TIP3    H227088   3.784   3.142   4.290
 9042TIP3   OH227089   6.020   4.402   0.983
 9042TIP3    H127090   5.948   4.440   1.033
 9042TIP3    H227091   6.071   4.477   0.954
 9043TIP3   OH227092   6.921   2.990   5.639
 9043TIP3    H127093   6.850   2.931   5.614
 9043TIP3    H227094   6.986   2.934   5.681
 9044TIP3   OH227095   1.867   2.184   0.768
 9044TIP3    H127096   1.884   2.275   0.743
 9044TIP3    H227097   1.779   2.186   0.806
 9045TIP3   OH227098   7.199   0.667   5.481
 9045TIP3    H127099   7.139   0.719   5.534
 9045TIP3    H227100   7.142   0.619   5.420
 9046TIP3   OH227101   5.152   0.810   5.461
 9046TIP3    H127102   5.065   0.829   5.496
 9046TIP3    H227103   5.212   0.829   5.534
 9047TIP3   OH227104   4.366   3.151   4.026
 9047TIP3    H127105   4.311   3.099   4.085
 9047TIP3    H227106   4.312   3.225   4.002
 9048TIP3   OH227107   0.427   3.219   4.414
 9048TIP3    H127108   0.416   3.230   4.320
 9048TIP3    H227109   0.341   3.239   4.451
 9049TIP3   OH227110   1.351   6.614   4.609
 9049TIP3    H127111   1.259   6.614   4.584
 9049TIP3    H227112   1.393   6.554   4.548
 9050TIP3   OH227113   3.117   6.101   3.074
 9050TIP3    H127114   3.066   6.031   3.033
 9050TIP3    H227115   3.080   6.109   3.162
 9051TIP3   OH227116   6.506   5.275   3.945
 9051TIP3    H127117   6.423   5.236   3.973
 9051TIP3    H227118   6.549   5.206   3.895
 9052TIP3   OH227119   3.621   3.265   0.555
 9052TIP3    H127120   3.695   3.239   0.499
 9052TIP3    H227121   3.658   3.267   0.643
 9053TIP3   OH227122   2.360   4.697   2.642
 9053TIP3    H127123   2.436   4.695   2.700
 9053TIP3    H227124   2.287   4.671   2.699
 9054TIP3   OH227125   4.290   2.503   3.465
 9054TIP3    H127126   4.244   2.587   3.464
 9054TIP3    H227127   4.378   2.525   3.496
 9055TIP3   OH227128   3.498   1.370   0.135
 9055TIP3    H127129   3.535   1.288   0.104
 9055TIP3    H227130   3.561   1.437   0.108
 9056TIP3   OH227131   5.727   4.061   5.273
 9056TIP3    H127132   5.772   4.028   5.351
 9056TIP3    H227133   5.790   4.050   5.202
 9057TIP3   OH227134   2.521   6.361   0.576
 9057TIP3    H127135   2.598   6.326   0.530
 9057TIP3    H227136   2.490   6.432   0.520
 9058TIP3   OH227137   2.033   0.369   5.327
 9058TIP3    H127138   1.973   0.438   5.354
 9058TIP3    H227139   2.078   0.404   5.251
 9059TIP3   OH227140   1.019   2.809   1.456
 9059TIP3    H127141   1.023   2.858   1.538
 9059TIP3    H227142   1.013   2.718   1.483
 9060TIP3   OH227143   4.353   4.606   1.252
 9060TIP3    H127144   4.362   4.573   1.341
 9060TIP3    H227145   4.404   4.544   1.199
 9061TIP3   OH227146   5.732   5.278   5.595
 9061TIP3    H127147   5.674   5.211   5.560
 9061TIP3    H227148   5.725   5.269   5.690
 9062TIP3   OH227149   6.806   1.402   0.622
 9062TIP3    H127150   6.795   1.307   0.628
 9062TIP3    H227151   6.719   1.437   0.641
 9063TIP3   OH227152   6.943   4.293   5.748
 9063TIP3    H127153   7.021   4.238   5.748
 9063TIP3    H227154   6.876   4.241   5.792
 9064TIP3   OH227155   7.090   2.101   3.264
 9064TIP3    H127156   7.116   2.012   3.286
 9064TIP3    H227157   7.094   2.148   3.347
 9065TIP3   OH227158   5.426   0.936   2.860
 9065TIP3    H127159   5.486   0.882   2.910
 9065TIP3    H227160   5.380   0.875   2.802
 9066TIP3   OH227161   5.583   3.071   5.303
 9066TIP3    H127162   5.578   3.149   5.358
 9066TIP3    H227163   5.504   3.021   5.325
 9067TIP3   OH227164   2.609   3.980   1.880
 9067TIP3    H127165   2.539   4.034   1.844
 9067TIP3    H227166   2.564   3.914   1.932
 9068TIP3   OH227167   3.431   0.143   2.856
 9068TIP3    H127168   3.352   0.134   2.909
 9068TIP3    H227169   3.491   0.077   2.890
 9069TIP3   OH227170   2.987   6.699   4.820
 9069TIP3    H127171   3.053   6.632   4.841
 9069TIP3    H227172   2.916   6.651   4.779
 9070TIP3   OH227173   1.841   2.849   4.368
 9070TIP3    H127174   1.776   2.808   4.425
 9070TIP3    H227175   1.926   2.820   4.404
 9071TIP3   OH227176   3.694   2.518   0.495
 9071TIP3    H127177   3.709   2.528   0.589
 9071TIP3    H227178   3.607   2.480   0.488
 9072TIP3   OH227179   3.298   0.084   1.350
 9072TIP3    H127180   3.207   0.112   1.360
 9072TIP3    H227181   3.348   0.166   1.352
 9073TIP3   OH227182   5.761   4.562   1.052
 9073TIP3    H127183   5.708   4.544   0.975
 9073TIP3    H227184   5.765   4.478   1.098
 9074TIP3   OH227185   3.344   5.404   1.434
 9074TIP3    H127186   3.370   5.338   1.370
 9074TIP3    H227187   3.365   5.487   1.392
 9075TIP3   OH227188   1.778   4.854   4.928
 9075TIP3    H127189   1.854   4.835   4.984
 9075TIP3    H227190   1.799   4.813   4.844
 9076TIP3   OH227191   2.427   2.854   4.866
 9076TIP3    H127192   2.422   2.801   4.945
 9076TIP3    H227193   2.433   2.944   4.898
 9077TIP3   OH227194   6.810   4.817   4.104
 9077TIP3    H127195   6.862   4.768   4.168
 9077TIP3    H227196   6.873   4.844   4.037
 9078TIP3   OH227197   2.597   4.654   2.019
 9078TIP3    H127198   2.581   4.635   2.111
 9078TIP3    H227199   2.579   4.571   1.974
 9079TIP3   OH227200   4.439   0.371   4.561
 9079TIP3    H127201   4.383   0.405   4.490
 9079TIP3    H227202   4.431   0.276   4.555
 9080TIP3   OH227203   3.573   1.559   1.092
 9080TIP3    H127204   3.642   1.609   1.138
 9080TIP3    H227205   3.618   1.481   1.061
 9081TIP3   OH227206   6.664   3.723   3.405
 9081TIP3    H127207   6.616   3.805   3.418
 9081TIP3    H227208   6.718   3.714   3.483
 9082TIP3   OH227209   1.937   1.201   4.189
 9082TIP3    H127210   1.887   1.183   4.269
 9082TIP3    H227211   1.873   1.242   4.130
 9083TIP3   OH227212   0.915   1.436   3.458
 9083TIP3    H127213   0.834   1.388   3.478
 9083TIP3    H227214   0.979   1.401   3.519
 9084TIP3   OH227215   1.603   5.024   4.348
 9084TIP3    H127216   1.576   5.062   4.265
 9084TIP3    H227217   1.657   5.091   4.390
 9085TIP3   OH227218   1.926   4.934   3.120
 9085TIP3    H127219   1.977   5.008   3.151
 9085TIP3    H227220   1.990   4.865   3.104
 9086TIP3   OH227221   1.749   4.803   4.640
 9086TIP3    H127222   1.667   4.832   4.602
 9086TIP3    H227223   1.736   4.710   4.658
 9087TIP3   OH227224   1.719   1.978   0.098
 9087TIP3    H127225   1.692   1.932   0.178
 9087TIP3    H227226   1.657   1.948   0.031
 9088TIP3   OH227227   1.695   1.374   0.830
 9088TIP3    H127228   1.760   1.391   0.762
 9088TIP3    H227229   1.738   1.315   0.891
 9089TIP3   OH227230   2.297   5.642   2.361
 9089TIP3    H127231   2.302   5.730   2.397
 9089TIP3    H227232   2.357   5.590   2.415
 9090TIP3   OH227233   1.249   3.092   0.178
 9090TIP3    H127234   1.331   3.046   0.165
 9090TIP3    H227235   1.182   3.032   0.147
 9091TIP3   OH227236   6.974   1.141   0.013
 9091TIP3    H127237   6.879   1.147   0.012
 9091TIP3    H227238   7.002   1.210   0.074
 9092TIP3   OH227239   1.823   1.333   3.376
 9092TIP3    H127240   1.750   1.392   3.359
 9092TIP3    H227241   1.821   1.318   3.471
 9093TIP3   OH227242   0.232   4.150   0.892
 9093TIP3    H127243   0.317   4.107   0.890
 9093TIP3    H227244   0.239   4.213   0.964
 9094TIP3   OH227245   6.967   6.485   1.036
 9094TIP3    H127246   6.936   6.574   1.054
 9094TIP3    H227247   7.015   6.493   0.954
 9095TIP3   OH227248   3.005   5.468   3.625
 9095TIP3    H127249   3.050   5.499   3.546
 9095TIP3    H227250   3.039   5.523   3.695
 9096TIP3   OH227251   6.334   5.473   1.292
 9096TIP3    H127252   6.395   5.458   1.364
 9096TIP3    H227253   6.248   5.478   1.334
 9097TIP3   OH227254   6.548   0.555   4.033
 9097TIP3    H127255   6.560   0.565   3.938
 9097TIP3    H227256   6.484   0.485   4.042
 9098TIP3   OH227257   5.664   0.886   5.713
 9098TIP3    H127258   5.756   0.903   5.733
 9098TIP3    H227259   5.637   0.819   5.776
 9099TIP3   OH227260   4.925   5.623   5.635
 9099TIP3    H127261   4.968   5.666   5.561
 9099TIP3    H227262   4.842   5.589   5.599
 9100TIP3   OH227263   2.464   3.370   5.060
 9100TIP3    H127264   2.492   3.357   5.151
 9100TIP3    H227265   2.546   3.378   5.011
 9101TIP3   OH227266   3.916   1.177   5.793
 9101TIP3    H127267   3.952   1.146   5.876
 9101TIP3    H227268   3.860   1.106   5.763
 9102TIP3   OH227269   4.802   3.757   0.147
 9102TIP3    H127270   4.750   3.677   0.149
 9102TIP3    H227271   4.883   3.732   0.101
 9103TIP3   OH227272   2.190   1.046   4.454
 9103TIP3    H127273   2.266   1.050   4.397
 9103TIP3    H227274   2.194   1.126   4.506
 9104TIP3   OH227275   3.739   6.436   4.502
 9104TIP3    H127276   3.688   6.409   4.579
 9104TIP3    H227277   3.734   6.361   4.443
 9105TIP3   OH227278   2.330   0.002   1.183
 9105TIP3    H127279   2.304  -0.049   1.106
 9105TIP3    H227280   2.282   0.084   1.175
 9106TIP3   OH227281   0.484   5.481   5.223
 9106TIP3    H127282   0.514   5.533   5.149
 9106TIP3    H227283   0.448   5.402   5.184
 9107TIP3   OH227284   6.081   3.279   5.735
 9107TIP3    H127285   5.996   3.260   5.774
 9107TIP3    H227286   6.066   3.274   5.641
 9108TIP3   OH227287   2.549   0.697   1.898
 9108TIP3    H127288   2.560   0.770   1.837
 9108TIP3    H227289   2.593   0.725   1.978
 9109TIP3   OH227290   4.053   3.199   4.988
 9109TIP3    H127291   4.062   3.184   5.082
 9109TIP3    H227292   4.085   3.119   4.947
 9110TIP3   OH227293   6.198   3.554   4.146
 9110TIP3    H127294   6.107   3.538   4.119
 9110TIP3    H227295   6.190   3.593   4.233
 9111TIP3   OH227296   5.600   5.771   0.080
 9111TIP3    H127297   5.577   5.815  -0.002
 9111TIP3    H227298   5.661   5.702   0.054
 9112TIP3   OH227299   5.069   5.259   4.781
 9112TIP3    H127300   5.045   5.190   4.719
 9112TIP3    H227301   4.989   5.311   4.790
 9113TIP3   OH227302   1.909   1.828   5.081
 9113TIP3    H127303   1.953   1.909   5.106
 9113TIP3    H227304   1.966   1.758   5.112
 9114TIP3   OH227305   4.414   6.243   3.713
 9114TIP3    H127306   4.417   6.209   3.624
 9114TIP3    H227307   4.491   6.206   3.755
 9115TIP3   OH227308   2.565   6.275   2.575
 9115TIP3    H127309   2.525   6.217   2.639
 9115TIP3    H227310   2.497   6.291   2.510
 9116TIP3   OH227311   6.434   0.893   5.605
 9116TIP3    H127312   6.485   0.973   5.613
 9116TIP3    H227313   6.366   0.900   5.672
 9117TIP3   OH227314   5.263   4.210   4.894
 9117TIP3    H127315   5.212   4.271   4.842
 9117TIP3    H227316   5.342   4.195   4.842
 9118TIP3   OH227317   5.716   3.332   4.924
 9118TIP3    H127318   5.811   3.322   4.928
 9118TIP3    H227319   5.681   3.248   4.953
 9119TIP3   OH227320   6.215   3.737   0.446
 9119TIP3    H127321   6.132   3.783   0.457
 9119TIP3    H227322   6.239   3.709   0.534
 9120TIP3   OH227323   6.828   0.561   5.853
 9120TIP3    H127324   6.774   0.637   5.833
 9120TIP3    H227325   6.766   0.494   5.882
 9121TIP3   OH227326   2.870   5.756   3.307
 9121TIP3    H127327   2.814   5.789   3.237
 9121TIP3    H227328   2.815   5.695   3.356
 9122TIP3   OH227329   3.736   6.483   3.468
 9122TIP3    H127330   3.714   6.440   3.550
 9122TIP3    H227331   3.731   6.414   3.402
 9123TIP3   OH227332   5.372   6.415   0.904
 9123TIP3    H127333   5.447   6.468   0.877
 9123TIP3    H227334   5.384   6.332   0.857
 9124TIP3   OH227335   2.789   6.526   3.979
 9124TIP3    H127336   2.748   6.497   3.897
 9124TIP3    H227337   2.823   6.613   3.960
 9125TIP3   OH227338   3.959   3.455   4.905
 9125TIP3    H127339   4.010   3.374   4.901
 9125TIP3    H227340   3.908   3.455   4.824
 9126TIP3   OH227341   3.458   3.197   3.251
 9126TIP3    H127342   3.417   3.183   3.165
 9126TIP3    H227343   3.433   3.286   3.275
 9127TIP3   OH227344   4.995   5.216   1.774
 9127TIP3    H127345   4.998   5.273   1.697
 9127TIP3    H227346   4.978   5.275   1.847
 9128TIP3   OH227347   5.650   4.583   4.748
 9128TIP3    H127348   5.596   4.536   4.684
 9128TIP3    H227349   5.670   4.666   4.706
 9129TIP3   OH227350   6.751   1.330   5.043
 9129TIP3    H127351   6.771   1.250   4.994
 9129TIP3    H227352   6.662   1.353   5.017
 9130TIP3   OH227353   1.751   0.022   4.616
 9130TIP3    H127354   1.729  -0.041   4.685
 9130TIP3    H227355   1.746   0.107   4.660
 9131TIP3   OH227356   1.367   4.852   4.817
 9131TIP3    H127357   1.414   4.871   4.736
 9131TIP3    H227358   1.415   4.900   4.884
 9132TIP3   OH227359   6.636   4.831   1.293
 9132TIP3    H127360   6.719   4.847   1.247
 9132TIP3    H227361   6.568   4.851   1.228
 9133TIP3   OH227362   2.292   5.278   4.189
 9133TIP3    H127363   2.246   5.362   4.198
 9133TIP3    H227364   2.239   5.216   4.238
 9134TIP3   OH227365   0.217   3.279   3.773
 9134TIP3    H127366   0.210   3.229   3.692
 9134TIP3    H227367   0.133   3.265   3.817
 9135TIP3   OH227368   3.870   0.053   5.352
 9135TIP3    H127369   3.828  -0.032   5.338
 9135TIP3    H227370   3.845   0.104   5.275
 9136TIP3   OH227371   1.830   6.259   0.855
 9136TIP3    H127372   1.867   6.174   0.832
 9136TIP3    H227373   1.876   6.321   0.799
 9137TIP3   OH227374   2.877   0.111   1.959
 9137TIP3    H127375   2.850   0.137   2.047
 9137TIP3    H227376   2.932   0.034   1.972
 9138TIP3   OH227377   3.340   3.158   0.651
 9138TIP3    H127378   3.248   3.155   0.625
 9138TIP3    H227379   3.387   3.128   0.573
 9139TIP3   OH227380   0.294   5.894   5.638
 9139TIP3    H127381   0.202   5.914   5.623
 9139TIP3    H227382   0.325   5.965   5.695
 9140TIP3   OH227383   4.447   2.602   4.731
 9140TIP3    H127384   4.477   2.621   4.642
 9140TIP3    H227385   4.483   2.516   4.750
 9141TIP3   OH227386   6.454   5.103   1.382
 9141TIP3    H127387   6.422   5.046   1.452
 9141TIP3    H227388   6.391   5.090   1.311
 9142TIP3   OH227389   2.647   4.390   0.878
 9142TIP3    H127390   2.589   4.382   0.954
 9142TIP3    H227391   2.681   4.479   0.884
 9143TIP3   OH227392   1.228   0.052   2.608
 9143TIP3    H127393   1.189   0.109   2.542
 9143TIP3    H227394   1.157  -0.006   2.635
 9144TIP3   OH227395   6.264   6.372   2.641
 9144TIP3    H127396   6.209   6.433   2.691
 9144TIP3    H227397   6.350   6.378   2.682
 9145TIP3   OH227398   3.313   4.665   4.445
 9145TIP3    H127399   3.249   4.638   4.379
 9145TIP3    H227400   3.285   4.621   4.525
 9146TIP3   OH227401   2.914   0.169   4.826
 9146TIP3    H127402   2.940   0.090   4.778
 9146TIP3    H227403   2.963   0.165   4.908
 9147TIP3   OH227404   2.355   4.938   1.921
 9147TIP3    H127405   2.361   5.010   1.858
 9147TIP3    H227406   2.417   4.873   1.888
 9148TIP3   OH227407   1.698   6.051   1.152
 9148TIP3    H127408   1.643   5.979   1.184
 9148TIP3    H227409   1.774   6.008   1.115
 9149TIP3   OH227410   5.725   5.184   4.673
 9149TIP3    H127411   5.635   5.164   4.645
 9149TIP3    H227412   5.745   5.119   4.740
 9150TIP3   OH227413   5.618   1.413   3.661
 9150TIP3    H127414   5.597   1.321   3.676
 9150TIP3    H227415   5.579   1.432   3.575
 9151TIP3   OH227416   2.116   2.271   5.021
 9151TIP3    H127417   2.087   2.219   4.946
 9151TIP3    H227418   2.069   2.354   5.011
 9152TIP3   OH227419   1.201   6.462   3.292
 9152TIP3    H127420   1.218   6.401   3.364
 9152TIP3    H227421   1.163   6.408   3.223
 9153TIP3   OH227422   4.988   4.517   0.538
 9153TIP3    H127423   4.950   4.581   0.478
 9153TIP3    H227424   4.959   4.432   0.504
 9154TIP3   OH227425   3.091   4.638   4.275
 9154TIP3    H127426   3.014   4.599   4.234
 9154TIP3    H227427   3.108   4.717   4.225
 9155TIP3   OH227428   2.430   1.397   2.172
 9155TIP3    H127429   2.352   1.348   2.197
 9155TIP3    H227430   2.493   1.330   2.143
 9156TIP3   OH227431   1.345   5.519   5.084
 9156TIP3    H127432   1.297   5.456   5.137
 9156TIP3    H227433   1.355   5.596   5.141
 9157TIP3   OH227434   0.895   5.687   0.818
 9157TIP3    H127435   0.822   5.653   0.766
 9157TIP3    H227436   0.889   5.639   0.901
 9158TIP3   OH227437   3.511   3.552   0.569
 9158TIP3    H127438   3.602   3.538   0.593
 9158TIP3    H227439   3.509   3.548   0.474
 9159TIP3   OH227440   4.441   2.428   4.431
 9159TIP3    H127441   4.355   2.404   4.467
 9159TIP3    H227442   4.437   2.523   4.421
 9160TIP3   OH227443   4.610   0.724   2.071
 9160TIP3    H127444   4.584   0.798   2.016
 9160TIP3    H227445   4.535   0.665   2.068
 9161TIP3   OH227446   3.189   2.614   1.481
 9161TIP3    H127447   3.181   2.695   1.431
 9161TIP3    H227448   3.273   2.577   1.453
 9162TIP3   OH227449   3.174   2.147   4.136
 9162TIP3    H127450   3.165   2.067   4.189
 9162TIP3    H227451   3.216   2.210   4.194
 9163TIP3   OH227452   1.878   3.317   5.508
 9163TIP3    H127453   1.954   3.269   5.541
 9163TIP3    H227454   1.863   3.282   5.420
 9164TIP3   OH227455   2.898   5.876   4.386
 9164TIP3    H127456   2.959   5.832   4.326
 9164TIP3    H227457   2.822   5.819   4.389
 9165TIP3   OH227458   1.502   4.153   2.278
 9165TIP3    H127459   1.435   4.215   2.249
 9165TIP3    H227460   1.524   4.104   2.199
 9166TIP3   OH227461   3.327   0.337   2.686
 9166TIP3    H127462   3.340   0.428   2.713
 9166TIP3    H227463   3.365   0.285   2.757
 9167TIP3   OH227464   6.334   4.756   1.790
 9167TIP3    H127465   6.291   4.702   1.724
 9167TIP3    H227466   6.307   4.717   1.874
 9168TIP3   OH227467   1.862   4.383   1.678
 9168TIP3    H127468   1.906   4.401   1.594
 9168TIP3    H227469   1.915   4.430   1.742
 9169TIP3   OH227470   3.453   4.106   1.326
 9169TIP3    H127471   3.417   4.143   1.406
 9169TIP3    H227472   3.404   4.148   1.256
 9170TIP3   OH227473   1.833   1.883   2.270
 9170TIP3    H127474   1.877   1.870   2.354
 9170TIP3    H227475   1.898   1.927   2.216
 9171TIP3   OH227476   5.001   2.892   2.585
 9171TIP3    H127477   5.048   2.928   2.510
 9171TIP3    H227478   5.043   2.933   2.661
 9172TIP3   OH227479   2.069   5.176   0.350
 9172TIP3    H127480   2.110   5.263   0.350
 9172TIP3    H227481   2.055   5.157   0.257
 9173TIP3   OH227482   4.280   2.930   3.303
 9173TIP3    H127483   4.342   2.995   3.335
 9173TIP3    H227484   4.334   2.859   3.269
 9174TIP3   OH227485   2.205   1.606   4.667
 9174TIP3    H127486   2.184   1.592   4.574
 9174TIP3    H227487   2.125   1.642   4.705
 9175TIP3   OH227488   0.348   2.072   1.711
 9175TIP3    H127489   0.291   2.063   1.635
 9175TIP3    H227490   0.366   1.982   1.739
 9176TIP3   OH227491   3.554   3.384   4.844
 9176TIP3    H127492   3.553   3.430   4.927
 9176TIP3    H227493   3.633   3.417   4.799
 9177TIP3   OH227494   6.142   5.640   2.751
 9177TIP3    H127495   6.149   5.631   2.846
 9177TIP3    H227496   6.109   5.729   2.737
 9178TIP3   OH227497   6.871   2.336   3.369
 9178TIP3    H127498   6.916   2.356   3.287
 9178TIP3    H227499   6.875   2.240   3.375
 9179TIP3   OH227500   4.920   5.823   5.812
 9179TIP3    H127501   4.921   5.739   5.859
 9179TIP3    H227502   4.912   5.798   5.720
 9180TIP3   OH227503   5.765   1.510   1.929
 9180TIP3    H127504   5.770   1.436   1.989
 9180TIP3    H227505   5.720   1.475   1.852
 9181TIP3   OH227506   5.432   1.383   2.326
 9181TIP3    H127507   5.480   1.462   2.351
 9181TIP3    H227508   5.473   1.354   2.244
 9182TIP3   OH227509   7.124   5.758   3.556
 9182TIP3    H127510   7.141   5.677   3.509
 9182TIP3    H227511   7.206   5.807   3.550
 9183TIP3   OH227512   3.991   6.590   1.447
 9183TIP3    H127513   4.077   6.615   1.411
 9183TIP3    H227514   3.956   6.672   1.483
 9184TIP3   OH227515   6.536   0.668   5.444
 9184TIP3    H127516   6.462   0.718   5.409
 9184TIP3    H227517   6.531   0.682   5.539
 9185TIP3   OH227518   1.744   6.003   1.846
 9185TIP3    H127519   1.743   6.079   1.905
 9185TIP3    H227520   1.796   6.032   1.771
 9186TIP3   OH227521   2.871   1.641   2.120
 9186TIP3    H127522   2.819   1.721   2.120
 9186TIP3    H227523   2.846   1.596   2.039
 9187TIP3   OH227524   3.280   4.038   2.780
 9187TIP3    H127525   3.278   4.032   2.684
 9187TIP3    H227526   3.355   3.983   2.805
 9188TIP3   OH227527   2.645   5.808   4.649
 9188TIP3    H127528   2.674   5.763   4.728
 9188TIP3    H227529   2.661   5.746   4.578
 9189TIP3   OH227530   6.683   6.442   2.067
 9189TIP3    H127531   6.700   6.474   1.978
 9189TIP3    H227532   6.599   6.481   2.091
 9190TIP3   OH227533   2.547   0.902   3.212
 9190TIP3    H127534   2.483   0.974   3.219
 9190TIP3    H227535   2.493   0.823   3.205
 9191TIP3   OH227536   2.162   1.258   1.327
 9191TIP3    H127537   2.182   1.239   1.419
 9191TIP3    H227538   2.194   1.347   1.313
 9192TIP3   OH227539   5.162   4.835   4.957
 9192TIP3    H127540   5.116   4.762   4.916
 9192TIP3    H227541   5.094   4.898   4.978
 9193TIP3   OH227542   2.021   4.648   3.789
 9193TIP3    H127543   1.982   4.628   3.874
 9193TIP3    H227544   1.948   4.682   3.737
 9194TIP3   OH227545   5.691   1.631   0.608
 9194TIP3    H127546   5.776   1.674   0.601
 9194TIP3    H227547   5.638   1.690   0.661
 9195TIP3   OH227548   2.439   6.654   2.741
 9195TIP3    H127549   2.401   6.595   2.675
 9195TIP3    H227550   2.532   6.658   2.718
 9196TIP3   OH227551   0.475   0.388   3.883
 9196TIP3    H127552   0.538   0.317   3.898
 9196TIP3    H227553   0.511   0.436   3.809
 9197TIP3   OH227554   2.508   1.277   3.502
 9197TIP3    H127555   2.550   1.219   3.438
 9197TIP3    H227556   2.581   1.311   3.554
 9198TIP3   OH227557   4.603   2.003   3.565
 9198TIP3    H127558   4.585   1.958   3.483
 9198TIP3    H227559   4.671   1.950   3.607
 9199TIP3   OH227560   2.002   4.886   1.528
 9199TIP3    H127561   1.913   4.920   1.525
 9199TIP3    H227562   2.002   4.825   1.602
 9200TIP3   OH227563   7.130   1.955   5.220
 9200TIP3    H127564   7.071   2.027   5.244
 9200TIP3    H227565   7.218   1.992   5.228
 9201TIP3   OH227566   5.029   1.155   4.942
 9201TIP3    H127567   4.951   1.185   4.895
 9201TIP3    H227568   5.076   1.100   4.880
 9202TIP3   OH227569   5.142   4.302   2.888
 9202TIP3    H127570   5.130   4.384   2.935
 9202TIP3    H227571   5.220   4.263   2.926
 9203TIP3   OH227572   5.419   4.659   3.918
 9203TIP3    H127573   5.333   4.700   3.924
 9203TIP3    H227574   5.426   4.634   3.826
 9204TIP3   OH227575   6.873   1.959   4.233
 9204TIP3    H127576   6.843   2.032   4.180
 9204TIP3    H227577   6.921   1.903   4.172
 9205TIP3   OH227578   2.617   5.735   2.909
 9205TIP3    H127579   2.544   5.712   2.851
 9205TIP3    H227580   2.695   5.724   2.855
 9206TIP3   OH227581   7.155   4.486   3.738
 9206TIP3    H127582   7.129   4.550   3.671
 9206TIP3    H227583   7.078   4.477   3.794
 9207TIP3   OH227584   4.653   0.145   0.404
 9207TIP3    H127585   4.687   0.128   0.492
 9207TIP3    H227586   4.698   0.225   0.376
 9208TIP3   OH227587   0.226   1.956   3.206
 9208TIP3    H127588   0.253   1.865   3.195
 9208TIP3    H227589   0.245   1.977   3.297
 9209TIP3   OH227590   4.299   6.067   0.212
 9209TIP3    H127591   4.377   6.084   0.265
 9209TIP3    H227592   4.274   5.977   0.235
 9210TIP3   OH227593   2.107   4.208   1.406
 9210TIP3    H127594   2.188   4.166   1.376
 9210TIP3    H227595   2.072   4.252   1.328
 9211TIP3   OH227596   4.630   1.002   2.720
 9211TIP3    H127597   4.696   1.069   2.706
 9211TIP3    H227598   4.671   0.921   2.692
 9212TIP3   OH227599   4.969   6.084   4.358
 9212TIP3    H127600   5.063   6.069   4.371
 9212TIP3    H227601   4.943   6.020   4.291
 9213TIP3   OH227602   7.072   0.505   5.287
 9213TIP3    H127603   6.983   0.515   5.254
 9213TIP3    H227604   7.099   0.418   5.257
 9214TIP3   OH227605   4.192   2.091   1.549
 9214TIP3    H127606   4.101   2.113   1.529
 9214TIP3    H227607   4.235   2.176   1.561
 9215TIP3   OH227608   1.280   6.641   1.181
 9215TIP3    H127609   1.341   6.567   1.175
 9215TIP3    H227610   1.249   6.639   1.271
 9216TIP3   OH227611   1.243   0.291   1.430
 9216TIP3    H127612   1.300   0.284   1.353
 9216TIP3    H227613   1.210   0.203   1.444
 9217TIP3   OH227614   6.677   0.630   4.276
 9217TIP3    H127615   6.684   0.551   4.330
 9217TIP3    H227616   6.629   0.601   4.198
 9218TIP3   OH227617   3.897   5.689   2.903
 9218TIP3    H127618   3.961   5.645   2.846
 9218TIP3    H227619   3.812   5.663   2.868
 9219TIP3   OH227620   2.270   1.395   0.309
 9219TIP3    H127621   2.218   1.416   0.231
 9219TIP3    H227622   2.347   1.451   0.303
 9220TIP3   OH227623   0.031  -0.031   2.556
 9220TIP3    H127624   0.107   0.006   2.511
 9220TIP3    H227625   0.046  -0.012   2.649
 9221TIP3   OH227626   1.956   5.806   1.546
 9221TIP3    H127627   1.967   5.896   1.515
 9221TIP3    H227628   1.888   5.769   1.490
 9222TIP3   OH227629   3.797   2.425   3.915
 9222TIP3    H127630   3.847   2.495   3.873
 9222TIP3    H227631   3.848   2.403   3.993
 9223TIP3   OH227632   3.345   3.464   3.043
 9223TIP3    H127633   3.438   3.445   3.060
 9223TIP3    H227634   3.304   3.378   3.035
 9224TIP3   OH227635   2.357   6.098   4.144
 9224TIP3    H127636   2.362   6.020   4.089
 9224TIP3    H227637   2.434   6.093   4.201
 9225TIP3   OH227638   6.472   0.559   4.861
 9225TIP3    H127639   6.512   0.500   4.924
 9225TIP3    H227640   6.544   0.614   4.830
 9226TIP3   OH227641   4.715   3.876   1.496
 9226TIP3    H127642   4.770   3.802   1.521
 9226TIP3    H227643   4.626   3.840   1.492
 9227TIP3   OH227644   2.564   5.879   2.435
 9227TIP3    H127645   2.636   5.940   2.451
 9227TIP3    H227646   2.496   5.932   2.393
 9228TIP3   OH227647   7.039   5.655   4.458
 9228TIP3    H127648   7.023   5.611   4.541
 9228TIP3    H227649   6.985   5.607   4.394
 9229TIP3   OH227650   7.214   2.174   0.652
 9229TIP3    H127651   7.124   2.144   0.638
 9229TIP3    H227652   7.208   2.234   0.727
 9230TIP3   OH227653   6.110   1.786   2.688
 9230TIP3    H127654   6.122   1.736   2.769
 9230TIP3    H227655   6.042   1.739   2.641
 9231TIP3   OH227656   0.941   6.321   0.883
 9231TIP3    H127657   0.899   6.405   0.866
 9231TIP3    H227658   1.024   6.343   0.924
 9232TIP3   OH227659   4.125   0.864   1.054
 9232TIP3    H127660   4.135   0.959   1.060
 9232TIP3    H227661   4.058   0.851   0.987
 9233TIP3   OH227662   1.422   1.560   4.219
 9233TIP3    H127663   1.489   1.493   4.233
 9233TIP3    H227664   1.429   1.582   4.126
 9234TIP3   OH227665   4.406   3.909   4.850
 9234TIP3    H127666   4.455   3.970   4.905
 9234TIP3    H227667   4.314   3.933   4.864
 9235TIP3   OH227668   6.625   1.886   5.069
 9235TIP3    H127669   6.681   1.936   5.009
 9235TIP3    H227670   6.686   1.848   5.132
 9236TIP3   OH227671   1.112   6.122   0.710
 9236TIP3    H127672   1.118   6.192   0.774
 9236TIP3    H227673   1.140   6.162   0.628
 9237TIP3   OH227674   6.697   3.469   1.158
 9237TIP3    H127675   6.730   3.514   1.081
 9237TIP3    H227676   6.645   3.396   1.123
 9238TIP3   OH227677   1.790   3.309   2.833
 9238TIP3    H127678   1.756   3.274   2.750
 9238TIP3    H227679   1.728   3.278   2.899
 9239TIP3   OH227680   1.918   1.137   1.886
 9239TIP3    H127681   1.863   1.214   1.868
 9239TIP3    H227682   1.874   1.066   1.840
 9240TIP3   OH227683   3.060   0.842   3.244
 9240TIP3    H127684   3.061   0.752   3.275
 9240TIP3    H227685   2.967   0.862   3.232
 9241TIP3   OH227686   4.188   1.143   1.128
 9241TIP3    H127687   4.176   1.117   1.220
 9241TIP3    H227688   4.282   1.136   1.114
 9242TIP3   OH227689   0.374   4.136   4.653
 9242TIP3    H127690   0.323   4.056   4.653
 9242TIP3    H227691   0.339   4.187   4.580
 9243TIP3   OH227692   2.069   2.548   2.917
 9243TIP3    H127693   2.015   2.496   2.976
 9243TIP3    H227694   2.077   2.495   2.838
 9244TIP3   OH227695   5.954   0.683   5.641
 9244TIP3    H127696   5.947   0.730   5.724
 9244TIP3    H227697   6.004   0.742   5.585
 9245TIP3   OH227698   0.642   3.362   0.266
 9245TIP3    H127699   0.632   3.333   0.176
 9245TIP3    H227700   0.605   3.291   0.318
 9246TIP3   OH227701   5.493   4.068   2.016
 9246TIP3    H127702   5.556   4.071   1.944
 9246TIP3    H227703   5.418   4.021   1.980
 9247TIP3   OH227704   0.329   1.191   4.624
 9247TIP3    H127705   0.302   1.103   4.597
 9247TIP3    H227706   0.255   1.224   4.676
 9248TIP3   OH227707   6.965   3.894   1.152
 9248TIP3    H127708   6.976   3.800   1.162
 9248TIP3    H227709   7.034   3.920   1.092
 9249TIP3   OH227710   0.866   4.418   4.738
 9249TIP3    H127711   0.844   4.509   4.758
 9249TIP3    H227712   0.954   4.422   4.701
 9250TIP3   OH227713   6.351   5.743   4.553
 9250TIP3    H127714   6.369   5.825   4.599
 9250TIP3    H227715   6.305   5.770   4.473
 9251TIP3   OH227716   0.654   6.320   4.036
 9251TIP3    H127717   0.629   6.334   4.127
 9251TIP3    H227718   0.707   6.396   4.014
 9252TIP3   OH227719   1.143   4.706   3.420
 9252TIP3    H127720   1.080   4.671   3.357
 9252TIP3    H227721   1.128   4.801   3.420
 9253TIP3   OH227722   3.682   2.854   4.399
 9253TIP3    H127723   3.616   2.850   4.331
 9253TIP3    H227724   3.638   2.897   4.473
 9254TIP3   OH227725   0.175   3.645   4.164
 9254TIP3    H127726   0.129   3.562   4.172
 9254TIP3    H227727   0.244   3.640   4.231
 9255TIP3   OH227728   3.144   0.003   3.611
 9255TIP3    H127729   3.115   0.072   3.552
 9255TIP3    H227730   3.188   0.049   3.683
 9256TIP3   OH227731   0.764   5.738   4.511
 9256TIP3    H127732   0.704   5.676   4.468
 9256TIP3    H227733   0.706   5.795   4.562
 9257TIP3   OH227734   7.152   2.242   2.780
 9257TIP3    H127735   7.219   2.211   2.719
 9257TIP3    H227736   7.089   2.288   2.725
 9258TIP3   OH227737   5.986   4.681   1.848
 9258TIP3    H127738   6.054   4.650   1.908
 9258TIP3    H227739   5.905   4.675   1.900
 9259TIP3   OH227740   1.104   2.940   0.410
 9259TIP3    H127741   1.196   2.955   0.387
 9259TIP3    H227742   1.068   3.028   0.421
 9260TIP3   OH227743   5.080   3.561   1.150
 9260TIP3    H127744   5.156   3.555   1.208
 9260TIP3    H227745   5.050   3.651   1.159
 9261TIP3   OH227746   5.197   4.473   3.664
 9261TIP3    H127747   5.130   4.436   3.607
 9261TIP3    H227748   5.229   4.550   3.617
 9262TIP3   OH227749   4.359   2.804   5.903
 9262TIP3    H127750   4.394   2.829   5.817
 9262TIP3    H227751   4.283   2.750   5.884
 9263TIP3   OH227752   3.002   3.545   0.610
 9263TIP3    H127753   2.979   3.478   0.674
 9263TIP3    H227754   2.986   3.628   0.655
 9264TIP3   OH227755   6.360   1.780   0.097
 9264TIP3    H127756   6.335   1.722   0.025
 9264TIP3    H227757   6.301   1.756   0.169
 9265TIP3   OH227758   2.284   6.046   4.473
 9265TIP3    H127759   2.359   6.052   4.414
 9265TIP3    H227760   2.312   5.986   4.542
 9266TIP3   OH227761   0.774   4.842   5.709
 9266TIP3    H127762   0.832   4.808   5.641
 9266TIP3    H227763   0.815   4.813   5.791
 9267TIP3   OH227764   6.614   3.799   1.523
 9267TIP3    H127765   6.671   3.871   1.496
 9267TIP3    H227766   6.604   3.745   1.445
 9268TIP3   OH227767   7.040   5.431   3.901
 9268TIP3    H127768   7.090   5.503   3.862
 9268TIP3    H227769   7.000   5.470   3.979
 9269TIP3   OH227770   7.014   2.579   1.455
 9269TIP3    H127771   7.107   2.592   1.473
 9269TIP3    H227772   6.972   2.592   1.540
 9270TIP3   OH227773   0.355   0.306   0.248
 9270TIP3    H127774   0.372   0.363   0.324
 9270TIP3    H227775   0.420   0.236   0.257
 9271TIP3   OH227776   5.914   2.883   1.871
 9271TIP3    H127777   5.874   2.889   1.784
 9271TIP3    H227778   5.839   2.875   1.931
 9272TIP3   OH227779   0.156   2.814   1.038
 9272TIP3    H127780   0.138   2.905   1.016
 9272TIP3    H227781   0.247   2.801   1.014
 9273TIP3   OH227782   0.994   3.560   5.074
 9273TIP3    H127783   0.998   3.560   5.170
 9273TIP3    H227784   0.954   3.476   5.051
 9274TIP3   OH227785   6.686   3.878   0.971
 9274TIP3    H127786   6.662   3.959   0.924
 9274TIP3    H227787   6.635   3.882   1.052
 9275TIP3   OH227788   3.110   2.900   5.393
 9275TIP3    H127789   3.191   2.950   5.405
 9275TIP3    H227790   3.067   2.904   5.479
 9276TIP3   OH227791   5.824   0.273   2.743
 9276TIP3    H127792   5.787   0.231   2.666
 9276TIP3    H227793   5.865   0.353   2.709
 9277TIP3   OH227794   3.424   6.305   4.454
 9277TIP3    H127795   3.459   6.308   4.543
 9277TIP3    H227796   3.351   6.366   4.455
 9278TIP3   OH227797   5.916   3.220   2.763
 9278TIP3    H127798   5.856   3.289   2.792
 9278TIP3    H227799   5.921   3.230   2.668
 9279TIP3   OH227800   0.445   5.183   3.452
 9279TIP3    H127801   0.411   5.236   3.525
 9279TIP3    H227802   0.375   5.185   3.387
 9280TIP3   OH227803   6.844   3.567   5.536
 9280TIP3    H127804   6.750   3.550   5.542
 9280TIP3    H227805   6.854   3.657   5.568
 9281TIP3   OH227806   2.523   5.680   4.881
 9281TIP3    H127807   2.486   5.628   4.952
 9281TIP3    H227808   2.455   5.680   4.813
 9282TIP3   OH227809   3.298   4.535   3.256
 9282TIP3    H127810   3.227   4.483   3.294
 9282TIP3    H227811   3.336   4.479   3.189
 9283TIP3   OH227812   3.059   5.410   0.908
 9283TIP3    H127813   2.965   5.427   0.914
 9283TIP3    H227814   3.080   5.358   0.985
 9284TIP3   OH227815   1.046   5.422   3.221
 9284TIP3    H127816   1.021   5.472   3.143
 9284TIP3    H227817   0.963   5.405   3.266
 9285TIP3   OH227818   7.007   6.390   3.709
 9285TIP3    H127819   7.085   6.424   3.665
 9285TIP3    H227820   7.034   6.380   3.801
 9286TIP3   OH227821   5.889   1.741   4.487
 9286TIP3    H127822   5.944   1.818   4.477
 9286TIP3    H227823   5.909   1.687   4.410
 9287TIP3   OH227824   4.673   0.989   4.044
 9287TIP3    H127825   4.658   1.006   3.951
 9287TIP3    H227826   4.684   0.894   4.050
 9288TIP3   OH227827   6.440   3.549   0.956
 9288TIP3    H127828   6.354   3.507   0.963
 9288TIP3    H227829   6.421   3.643   0.958
 9289TIP3   OH227830   2.788   4.116   5.156
 9289TIP3    H127831   2.696   4.111   5.130
 9289TIP3    H227832   2.815   4.205   5.131
 9290TIP3   OH227833   3.520   5.774   1.025
 9290TIP3    H127834   3.580   5.848   1.022
 9290TIP3    H227835   3.575   5.700   1.050
 9291TIP3   OH227836   3.547   3.103   4.821
 9291TIP3    H127837   3.641   3.090   4.829
 9291TIP3    H227838   3.536   3.198   4.819
 9292TIP3   OH227839   6.930   4.180   1.213
 9292TIP3    H127840   7.012   4.133   1.226
 9292TIP3    H227841   6.862   4.116   1.236
 9293TIP3   OH227842   5.584   4.198   0.877
 9293TIP3    H127843   5.510   4.139   0.885
 9293TIP3    H227844   5.653   4.146   0.835
 9294TIP3   OH227845   1.459   5.092   0.001
 9294TIP3    H127846   1.483   5.124   0.088
 9294TIP3    H227847   1.375   5.048   0.014
 9295TIP3   OH227848   3.948   2.268   0.210
 9295TIP3    H127849   3.911   2.194   0.258
 9295TIP3    H227850   3.925   2.345   0.262
 9296TIP3   OH227851   4.947   4.854   0.075
 9296TIP3    H127852   4.890   4.852  -0.003
 9296TIP3    H227853   4.890   4.886   0.145
 9297TIP3   OH227854   0.347   3.539   3.933
 9297TIP3    H127855   0.385   3.505   3.851
 9297TIP3    H227856   0.255   3.556   3.912
 9298TIP3   OH227857   6.303   2.914   5.784
 9298TIP3    H127858   6.275   2.827   5.812
 9298TIP3    H227859   6.261   2.973   5.846
 9299TIP3   OH227860   5.833   0.329   4.827
 9299TIP3    H127861   5.765   0.390   4.856
 9299TIP3    H227862   5.786   0.265   4.773
 9300TIP3   OH227863   2.637   2.702   0.395
 9300TIP3    H127864   2.601   2.762   0.460
 9300TIP3    H227865   2.634   2.616   0.437
 9301TIP3   OH227866   0.371   0.504   3.501
 9301TIP3    H127867   0.345   0.568   3.434
 9301TIP3    H227868   0.343   0.544   3.583
 9302TIP3   OH227869   6.034   0.597   1.823
 9302TIP3    H127870   6.056   0.571   1.734
 9302TIP3    H227871   6.114   0.637   1.858
 9303TIP3   OH227872   7.146   2.948   4.569
 9303TIP3    H127873   7.238   2.972   4.571
 9303TIP3    H227874   7.135   2.900   4.487
 9304TIP3   OH227875   1.100   3.495   0.071
 9304TIP3    H127876   1.067   3.543   0.147
 9304TIP3    H227877   1.095   3.558  -0.001
 9305TIP3   OH227878   1.674   6.302   4.532
 9305TIP3    H127879   1.737   6.267   4.595
 9305TIP3    H227880   1.721   6.299   4.448
 9306TIP3   OH227881   4.979   1.261   0.260
 9306TIP3    H127882   5.015   1.344   0.289
 9306TIP3    H227883   4.886   1.278   0.245
 9307TIP3   OH227884   0.258   0.845   0.135
 9307TIP3    H127885   0.305   0.799   0.206
 9307TIP3    H227886   0.221   0.774   0.082
 9308TIP3   OH227887   3.396   1.226   3.702
 9308TIP3    H127888   3.413   1.133   3.690
 9308TIP3    H227889   3.435   1.269   3.626
 9309TIP3   OH227890   6.087   0.149   3.644
 9309TIP3    H127891   6.134   0.230   3.626
 9309TIP3    H227892   6.131   0.083   3.592
 9310TIP3   OH227893   5.410   1.279   4.318
 9310TIP3    H127894   5.497   1.314   4.299
 9310TIP3    H227895   5.411   1.263   4.413
 9311TIP3   OH227896   2.151   6.163   3.241
 9311TIP3    H127897   2.227   6.129   3.289
 9311TIP3    H227898   2.141   6.252   3.273
 9312TIP3   OH227899   1.933   5.939   2.157
 9312TIP3    H127900   2.021   5.940   2.119
 9312TIP3    H227901   1.938   6.002   2.229
 9313TIP3   OH227902   6.027   0.886   3.332
 9313TIP3    H127903   6.018   0.907   3.425
 9313TIP3    H227904   6.055   0.794   3.332
 9314TIP3   OH227905   0.811   4.864   3.918
 9314TIP3    H127906   0.850   4.944   3.885
 9314TIP3    H227907   0.872   4.795   3.894
 9315TIP3   OH227908   6.306   5.859   4.993
 9315TIP3    H127909   6.320   5.770   5.027
 9315TIP3    H227910   6.223   5.853   4.945
 9316TIP3   OH227911   2.027   5.248   3.957
 9316TIP3    H127912   2.112   5.246   4.001
 9316TIP3    H227913   1.965   5.218   4.023
 9317TIP3   OH227914   1.986   2.898   1.541
 9317TIP3    H127915   2.019   2.832   1.480
 9317TIP3    H227916   2.011   2.866   1.627
 9318TIP3   OH227917   6.054   0.931   1.814
 9318TIP3    H127918   6.039   1.016   1.855
 9318TIP3    H227919   6.099   0.880   1.880
 9319TIP3   OH227920   0.549   3.345   5.116
 9319TIP3    H127921   0.534   3.391   5.199
 9319TIP3    H227922   0.641   3.319   5.120
 9320TIP3   OH227923   0.115   0.028   2.816
 9320TIP3    H127924   0.048   0.068   2.871
 9320TIP3    H227925   0.198   0.060   2.852
 9321TIP3   OH227926   1.719   4.663   1.507
 9321TIP3    H127927   1.701   4.586   1.453
 9321TIP3    H227928   1.814   4.663   1.519
 9322TIP3   OH227929   3.804   6.544   2.515
 9322TIP3    H127930   3.871   6.577   2.456
 9322TIP3    H227931   3.734   6.610   2.510
 9323TIP3   OH227932   0.997   2.318   5.379
 9323TIP3    H127933   0.939   2.349   5.449
 9323TIP3    H227934   1.040   2.397   5.346
 9324TIP3   OH227935   2.929   0.724   0.545
 9324TIP3    H127936   2.969   0.657   0.491
 9324TIP3    H227937   2.915   0.798   0.486
 9325TIP3   OH227938   2.215   6.702   0.646
 9325TIP3    H127939   2.219   6.656   0.730
 9325TIP3    H227940   2.257   6.786   0.663
 9326TIP3   OH227941   1.991   3.005   5.522
 9326TIP3    H127942   1.941   3.013   5.603
 9326TIP3    H227943   2.081   3.025   5.548
 9327TIP3   OH227944   4.487   0.756   4.646
 9327TIP3    H127945   4.423   0.696   4.682
 9327TIP3    H227946   4.502   0.820   4.715
 9328TIP3   OH227947   1.455   4.600   4.759
 9328TIP3    H127948   1.443   4.563   4.847
 9328TIP3    H227949   1.416   4.687   4.764
 9329TIP3   OH227950   1.814   6.380   3.506
 9329TIP3    H127951   1.793   6.450   3.444
 9329TIP3    H227952   1.802   6.299   3.455
 9330TIP3   OH227953   5.565   0.265   2.889
 9330TIP3    H127954   5.554   0.360   2.897
 9330TIP3    H227955   5.654   0.254   2.857
 9331TIP3   OH227956   0.035   0.384   0.403
 9331TIP3    H127957   0.109   0.323   0.405
 9331TIP3    H227958   0.038   0.428   0.488
 9332TIP3   OH227959   7.082   4.116   2.216
 9332TIP3    H127960   7.021   4.159   2.277
 9332TIP3    H227961   7.025   4.072   2.153
 9333TIP3   OH227962   5.194   1.559   5.498
 9333TIP3    H127963   5.227   1.614   5.426
 9333TIP3    H227964   5.105   1.536   5.472
 9334TIP3   OH227965   7.105   4.466   0.236
 9334TIP3    H127966   7.152   4.403   0.181
 9334TIP3    H227967   7.150   4.549   0.221
 9335TIP3   OH227968   0.999   3.750   4.518
 9335TIP3    H127969   0.976   3.805   4.593
 9335TIP3    H227970   0.916   3.736   4.472
 9336TIP3   OH227971   3.877   6.633   5.521
 9336TIP3    H127972   3.866   6.544   5.489
 9336TIP3    H227973   3.871   6.626   5.616
 9337TIP3   OH227974   4.204   6.755   0.309
 9337TIP3    H127975   4.254   6.695   0.363
 9337TIP3    H227976   4.267   6.821   0.281
 9338TIP3   OH227977   1.383   0.794   1.281
 9338TIP3    H127978   1.453   0.854   1.306
 9338TIP3    H227979   1.303   0.835   1.313
 9339TIP3   OH227980   0.443   1.101   1.604
 9339TIP3    H127981   0.436   1.048   1.683
 9339TIP3    H227982   0.391   1.179   1.623
 9340TIP3   OH227983   1.162   4.693   0.327
 9340TIP3    H127984   1.130   4.782   0.341
 9340TIP3    H227985   1.085   4.637   0.340
 9341TIP3   OH227986   3.787   0.694   3.818
 9341TIP3    H127987   3.826   0.610   3.844
 9341TIP3    H227988   3.825   0.713   3.733
 9342TIP3   OH227989   2.576   5.908   4.047
 9342TIP3    H127990   2.590   5.823   4.007
 9342TIP3    H227991   2.561   5.967   3.973
 9343TIP3   OH227992   6.275   2.099   4.784
 9343TIP3    H127993   6.348   2.140   4.738
 9343TIP3    H227994   6.231   2.172   4.828
 9344TIP3   OH227995   6.763   1.107   5.214
 9344TIP3    H127996   6.805   1.178   5.165
 9344TIP3    H227997   6.791   1.121   5.305
 9345TIP3   OH227998   7.042   4.452   4.477
 9345TIP3    H127999   7.091   4.406   4.409
 9345TIP3    H228000   7.102   4.456   4.551
 9346TIP3   OH228001   4.689   2.479   2.465
 9346TIP3    H128002   4.716   2.571   2.461
 9346TIP3    H228003   4.723   2.440   2.385
 9347TIP3   OH228004   3.903   1.042   2.566
 9347TIP3    H128005   3.810   1.039   2.543
 9347TIP3    H228006   3.938   1.113   2.512
 9348TIP3   OH228007   2.161   5.589   5.822
 9348TIP3    H128008   2.192   5.664   5.872
 9348TIP3    H228009   2.202   5.599   5.736
 9349TIP3   OH228010   6.846   3.396   4.336
 9349TIP3    H128011   6.913   3.455   4.300
 9349TIP3    H228012   6.842   3.324   4.274
 9350TIP3   OH228013   6.503   5.913   2.927
 9350TIP3    H128014   6.420   5.868   2.913
 9350TIP3    H228015   6.566   5.864   2.875
 9351TIP3   OH228016   1.013   2.134   5.654
 9351TIP3    H128017   0.941   2.192   5.628
 9351TIP3    H228018   1.018   2.143   5.749
 9352TIP3   OH228019   6.243   6.727   2.765
 9352TIP3    H128020   6.187   6.776   2.704
 9352TIP3    H228021   6.328   6.723   2.721
 9353TIP3   OH228022   1.794   2.823   0.198
 9353TIP3    H128023   1.721   2.779   0.242
 9353TIP3    H228024   1.852   2.850   0.270
 9354TIP3   OH228025   6.149   6.628   0.242
 9354TIP3    H128026   6.151   6.637   0.338
 9354TIP3    H228027   6.057   6.617   0.221
 9355TIP3   OH228028   0.814   4.542   4.208
 9355TIP3    H128029   0.774   4.564   4.292
 9355TIP3    H228030   0.745   4.558   4.144
 9356TIP3   OH228031   5.604   0.069   4.890
 9356TIP3    H128032   5.661   0.049   4.816
 9356TIP3    H228033   5.528   0.012   4.878
 9357TIP3   OH228034   0.121   5.368   5.670
 9357TIP3    H128035   0.168   5.430   5.727
 9357TIP3    H228036   0.190   5.313   5.633
 9358TIP3   OH228037   2.448   0.394   5.633
 9358TIP3    H128038   2.477   0.309   5.601
 9358TIP3    H228039   2.393   0.428   5.563
 9359TIP3   OH228040   6.927   4.582   3.899
 9359TIP3    H128041   6.875   4.615   3.973
 9359TIP3    H228042   6.951   4.660   3.850
 9360TIP3   OH228043   0.314   0.750   3.336
 9360TIP3    H128044   0.287   0.811   3.405
 9360TIP3    H228045   0.392   0.791   3.298
 9361TIP3   OH228046   3.745   0.801   2.036
 9361TIP3    H128047   3.827   0.816   2.083
 9361TIP3    H228048   3.771   0.790   1.944
 9362TIP3   OH228049   6.435   4.561   0.437
 9362TIP3    H128050   6.419   4.521   0.352
 9362TIP3    H228051   6.430   4.656   0.420
 9363TIP3   OH228052   2.961   5.618   5.192
 9363TIP3    H128053   2.890   5.666   5.148
 9363TIP3    H228054   3.036   5.627   5.133
 9364TIP3   OH228055   4.340   4.730   4.929
 9364TIP3    H128056   4.429   4.763   4.943
 9364TIP3    H228057   4.291   4.807   4.901
 9365TIP3   OH228058   0.537   5.234   4.356
 9365TIP3    H128059   0.449   5.229   4.318
 9365TIP3    H228060   0.596   5.213   4.283
 9366TIP3   OH228061   1.024   4.301   2.061
 9366TIP3    H128062   1.027   4.332   1.971
 9366TIP3    H228063   0.993   4.211   2.055
 9367TIP3   OH228064   5.455   4.097   5.192
 9367TIP3    H128065   5.519   4.070   5.258
 9367TIP3    H228066   5.507   4.123   5.117
 9368TIP3   OH228067   6.692   6.150   4.367
 9368TIP3    H128068   6.630   6.215   4.400
 9368TIP3    H228069   6.760   6.144   4.434
 9369TIP3   OH228070   4.995   6.472   3.039
 9369TIP3    H128071   5.015   6.454   2.947
 9369TIP3    H228072   5.014   6.565   3.049
 9370TIP3   OH228073   0.445   5.781   1.901
 9370TIP3    H128074   0.382   5.709   1.895
 9370TIP3    H228075   0.412   5.847   1.840
 9371TIP3   OH228076   1.151   1.395   3.205
 9371TIP3    H128077   1.140   1.350   3.289
 9371TIP3    H228078   1.177   1.484   3.229
 9372TIP3   OH228079   2.522   3.703   5.549
 9372TIP3    H128080   2.533   3.793   5.521
 9372TIP3    H228081   2.428   3.687   5.545
 9373TIP3   OH228082   1.594   4.155   1.141
 9373TIP3    H128083   1.613   4.061   1.140
 9373TIP3    H228084   1.591   4.178   1.234
 9374TIP3   OH228085   0.311   4.412   0.141
 9374TIP3    H128086   0.251   4.412   0.216
 9374TIP3    H228087   0.347   4.324   0.138
 9375TIP3   OH228088   2.740   6.621   0.713
 9375TIP3    H128089   2.788   6.545   0.745
 9375TIP3    H228090   2.659   6.623   0.765
 9376TIP3   OH228091   5.713   0.336   0.133
 9376TIP3    H128092   5.641   0.274   0.142
 9376TIP3    H228093   5.737   0.358   0.223
 9377TIP3   OH228094   0.948   0.506   4.262
 9377TIP3    H128095   0.988   0.568   4.323
 9377TIP3    H228096   0.981   0.532   4.176
 9378TIP3   OH228097   5.340   2.888   4.852
 9378TIP3    H128098   5.421   2.892   4.903
 9378TIP3    H228099   5.298   2.807   4.880
 9379TIP3   OH228100   1.006   5.507   3.842
 9379TIP3    H128101   1.048   5.545   3.765
 9379TIP3    H228102   1.068   5.442   3.874
 9380TIP3   OH228103   3.631   0.102   5.082
 9380TIP3    H128104   3.705   0.139   5.032
 9380TIP3    H228105   3.656   0.012   5.098
 9381TIP3   OH228106   3.413   5.999   0.029
 9381TIP3    H128107   3.328   5.967   0.000
 9381TIP3    H228108   3.393   6.067   0.093
 9382TIP3   OH228109   2.268   3.551   1.839
 9382TIP3    H128110   2.312   3.595   1.912
 9382TIP3    H228111   2.232   3.471   1.878
 9383TIP3   OH228112   5.562   1.190   1.021
 9383TIP3    H128113   5.482   1.244   1.019
 9383TIP3    H228114   5.549   1.132   1.097
 9384TIP3   OH228115   1.119   4.434   4.241
 9384TIP3    H128116   1.158   4.409   4.157
 9384TIP3    H228117   1.043   4.377   4.251
 9385TIP3   OH228118   3.954   4.088   3.127
 9385TIP3    H128119   3.905   4.009   3.149
 9385TIP3    H228120   3.976   4.077   3.034
 9386TIP3   OH228121   2.467   3.904   3.873
 9386TIP3    H128122   2.411   3.974   3.910
 9386TIP3    H228123   2.528   3.883   3.944
 9387TIP3   OH228124   6.466   1.345   1.336
 9387TIP3    H128125   6.415   1.387   1.405
 9387TIP3    H228126   6.507   1.418   1.289
 9388TIP3   OH228127   2.326   0.756   5.197
 9388TIP3    H128128   2.387   0.767   5.270
 9388TIP3    H228129   2.377   0.781   5.119
 9389TIP3   OH228130   2.819   1.752   4.652
 9389TIP3    H128131   2.817   1.687   4.723
 9389TIP3    H228132   2.783   1.831   4.692
 9390TIP3   OH228133   4.853   0.812   1.998
 9390TIP3    H128134   4.825   0.903   1.985
 9390TIP3    H228135   4.774   0.767   2.029
 9391TIP3   OH228136   4.720   1.467   1.667
 9391TIP3    H128137   4.697   1.538   1.608
 9391TIP3    H228138   4.673   1.487   1.748
 9392TIP3   OH228139   4.702   4.518   5.555
 9392TIP3    H128140   4.753   4.588   5.515
 9392TIP3    H228141   4.683   4.457   5.483
 9393TIP3   OH228142   7.080   6.232   0.929
 9393TIP3    H128143   6.994   6.225   0.969
 9393TIP3    H228144   7.085   6.157   0.870
 9394TIP3   OH228145   7.187   6.664   3.365
 9394TIP3    H128146   7.211   6.654   3.272
 9394TIP3    H228147   7.206   6.579   3.404
 9395TIP3   OH228148   4.515   0.301   5.034
 9395TIP3    H128149   4.506   0.390   5.070
 9395TIP3    H228150   4.435   0.287   4.984
 9396TIP3   OH228151   0.847   3.203   3.882
 9396TIP3    H128152   0.871   3.113   3.860
 9396TIP3    H228153   0.829   3.245   3.797
 9397TIP3   OH228154   2.394   3.546   0.346
 9397TIP3    H128155   2.379   3.474   0.407
 9397TIP3    H228156   2.474   3.589   0.378
 9398TIP3   OH228157   4.733   1.746   5.569
 9398TIP3    H128158   4.684   1.816   5.613
 9398TIP3    H228159   4.816   1.786   5.545
 9399TIP3   OH228160   6.247   5.808   3.259
 9399TIP3    H128161   6.178   5.817   3.325
 9399TIP3    H228162   6.328   5.798   3.310
 9400TIP3   OH228163   4.461   2.581   2.572
 9400TIP3    H128164   4.538   2.540   2.532
 9400TIP3    H228165   4.394   2.577   2.504
 9401TIP3   OH228166   6.629   0.917   1.623
 9401TIP3    H128167   6.621   0.948   1.533
 9401TIP3    H228168   6.539   0.896   1.650
 9402TIP3   OH228169   5.266   4.401   0.474
 9402TIP3    H128170   5.171   4.410   0.462
 9402TIP3    H228171   5.303   4.470   0.420
 9403TIP3   OH228172   4.908   3.552   5.390
 9403TIP3    H128173   4.818   3.534   5.363
 9403TIP3    H228174   4.920   3.645   5.370
 9404TIP3   OH228175   0.381   4.683   4.659
 9404TIP3    H128176   0.358   4.738   4.734
 9404TIP3    H228177   0.437   4.615   4.696
 9405TIP3   OH228178   2.984   1.554   1.683
 9405TIP3    H128179   3.066   1.534   1.638
 9405TIP3    H228180   3.010   1.608   1.758
 9406TIP3   OH228181   4.899   0.372   1.670
 9406TIP3    H128182   4.964   0.354   1.738
 9406TIP3    H228183   4.897   0.468   1.664
 9407TIP3   OH228184   1.614   1.020   5.500
 9407TIP3    H128185   1.676   1.000   5.430
 9407TIP3    H228186   1.636   1.110   5.527
 9408TIP3   OH228187   4.982   6.166   0.633
 9408TIP3    H128188   4.978   6.168   0.728
 9408TIP3    H228189   5.057   6.221   0.610
 9409TIP3   OH228190   2.118   5.515   2.962
 9409TIP3    H128191   2.178   5.521   3.037
 9409TIP3    H228192   2.125   5.600   2.919
 9410TIP3   OH228193   1.103   6.469   3.587
 9410TIP3    H128194   1.017   6.509   3.590
 9410TIP3    H228195   1.130   6.462   3.679
 9411TIP3   OH228196   6.306   0.442   1.794
 9411TIP3    H128197   6.383   0.498   1.787
 9411TIP3    H228198   6.294   0.406   1.706
 9412TIP3   OH228199   0.266   4.477   5.308
 9412TIP3    H128200   0.258   4.449   5.217
 9412TIP3    H228201   0.202   4.424   5.355
 9413TIP3   OH228202   6.491   1.274   4.970
 9413TIP3    H128203   6.508   1.264   4.876
 9413TIP3    H228204   6.401   1.243   4.981
 9414TIP3   OH228205   5.723   3.812   2.146
 9414TIP3    H128206   5.649   3.756   2.170
 9414TIP3    H228207   5.723   3.879   2.214
 9415TIP3   OH228208   2.492   6.668   0.841
 9415TIP3    H128209   2.431   6.739   0.820
 9415TIP3    H228210   2.436   6.595   0.866
 9416TIP3   OH228211   0.304   5.850   2.161
 9416TIP3    H128212   0.369   5.779   2.156
 9416TIP3    H228213   0.298   5.870   2.254
 9417TIP3   OH228214   6.798   6.777   2.762
 9417TIP3    H128215   6.766   6.708   2.704
 9417TIP3    H228216   6.884   6.745   2.790
 9418TIP3   OH228217   0.534   2.725   5.151
 9418TIP3    H128218   0.453   2.683   5.123
 9418TIP3    H228219   0.548   2.797   5.089
 9419TIP3   OH228220   1.703   4.285   2.960
 9419TIP3    H128221   1.629   4.305   2.902
 9419TIP3    H228222   1.709   4.189   2.958
 9420TIP3   OH228223   1.652   0.451   3.567
 9420TIP3    H128224   1.736   0.490   3.593
 9420TIP3    H228225   1.673   0.359   3.553
 9421TIP3   OH228226   1.535   5.957   3.412
 9421TIP3    H128227   1.480   5.883   3.437
 9421TIP3    H228228   1.480   6.034   3.427
 9422TIP3   OH228229   3.342   1.535   3.006
 9422TIP3    H128230   3.389   1.461   2.966
 9422TIP3    H228231   3.409   1.602   3.016
 9423TIP3   OH228232   3.425   4.665   2.227
 9423TIP3    H128233   3.463   4.744   2.188
 9423TIP3    H228234   3.465   4.593   2.178
 9424TIP3   OH228235   5.589   4.571   1.482
 9424TIP3    H128236   5.578   4.616   1.398
 9424TIP3    H228237   5.672   4.524   1.474
 9425TIP3   OH228238   3.962   6.424   1.041
 9425TIP3    H128239   3.998   6.338   1.021
 9425TIP3    H228240   3.910   6.447   0.964
 9426TIP3   OH228241   2.974   5.619   5.494
 9426TIP3    H128242   2.986   5.617   5.399
 9426TIP3    H228243   2.883   5.646   5.506
 9427TIP3   OH228244   6.769   5.885   2.116
 9427TIP3    H128245   6.743   5.970   2.151
 9427TIP3    H228246   6.798   5.903   2.027
 9428TIP3   OH228247   2.983   2.057   4.516
 9428TIP3    H128248   2.936   2.080   4.596
 9428TIP3    H228249   3.003   2.141   4.475
 9429TIP3   OH228250   4.246   2.897   1.129
 9429TIP3    H128251   4.341   2.907   1.124
 9429TIP3    H228252   4.223   2.848   1.050
 9430TIP3   OH228253   6.508   0.662   3.261
 9430TIP3    H128254   6.536   0.747   3.228
 9430TIP3    H228255   6.589   0.612   3.270
 9431TIP3   OH228256   0.888   0.796   2.218
 9431TIP3    H128257   0.821   0.747   2.170
 9431TIP3    H228258   0.926   0.854   2.153
 9432TIP3   OH228259   6.277   4.833   1.353
 9432TIP3    H128260   6.194   4.834   1.306
 9432TIP3    H228261   6.344   4.826   1.285
 9433TIP3   OH228262   0.635   6.816   5.837
 9433TIP3    H128263   0.555   6.841   5.882
 9433TIP3    H228264   0.686   6.767   5.902
 9434TIP3   OH228265   6.130   3.810   3.747
 9434TIP3    H128266   6.110   3.876   3.680
 9434TIP3    H228267   6.124   3.858   3.829
 9435TIP3   OH228268   5.365   6.379   4.545
 9435TIP3    H128269   5.459   6.393   4.533
 9435TIP3    H228270   5.331   6.369   4.457
 9436TIP3   OH228271   2.801   0.374   5.596
 9436TIP3    H128272   2.767   0.463   5.609
 9436TIP3    H228273   2.722   0.321   5.580
 9437TIP3   OH228274   4.554   3.930   3.322
 9437TIP3    H128275   4.530   4.014   3.362
 9437TIP3    H228276   4.489   3.916   3.253
 9438TIP3   OH228277   4.352   1.909   1.816
 9438TIP3    H128278   4.275   1.926   1.762
 9438TIP3    H228279   4.385   1.996   1.840
 9439TIP3   OH228280   7.013   2.153   1.556
 9439TIP3    H128281   6.978   2.234   1.594
 9439TIP3    H228282   7.026   2.173   1.463
 9440TIP3   OH228283   3.676   1.056   5.660
 9440TIP3    H128284   3.601   1.014   5.618
 9440TIP3    H228285   3.713   1.113   5.593
 9441TIP3   OH228286   7.058   4.263   2.851
 9441TIP3    H128287   6.994   4.208   2.804
 9441TIP3    H228288   7.097   4.203   2.915
 9442TIP3   OH228289   4.558   0.368   5.527
 9442TIP3    H128290   4.572   0.462   5.541
 9442TIP3    H228291   4.482   0.347   5.580
 9443TIP3   OH228292   6.139   4.931   2.298
 9443TIP3    H128293   6.188   4.977   2.230
 9443TIP3    H228294   6.091   4.999   2.345
 9444TIP3   OH228295   5.009   2.139   3.813
 9444TIP3    H128296   4.940   2.102   3.869
 9444TIP3    H228297   5.000   2.234   3.825
 9445TIP3   OH228298   2.045   6.022   0.194
 9445TIP3    H128299   2.140   6.037   0.194
 9445TIP3    H228300   2.029   5.973   0.114
 9446TIP3   OH228301   2.171   3.804   5.833
 9446TIP3    H128302   2.212   3.756   5.905
 9446TIP3    H228303   2.236   3.803   5.764
 9447TIP3   OH228304   5.417   5.727   3.309
 9447TIP3    H128305   5.469   5.743   3.230
 9447TIP3    H228306   5.470   5.667   3.361
 9448TIP3   OH228307   6.997   2.661   2.241
 9448TIP3    H128308   7.084   2.677   2.204
 9448TIP3    H228309   7.013   2.595   2.309
 9449TIP3   OH228310   6.407   2.670   2.266
 9449TIP3    H128311   6.499   2.691   2.282
 9449TIP3    H228312   6.373   2.647   2.353
 9450TIP3   OH228313   5.191   1.738   1.660
 9450TIP3    H128314   5.150   1.662   1.618
 9450TIP3    H228315   5.118   1.783   1.703
 9451TIP3   OH228316   6.334   6.765   3.259
 9451TIP3    H128317   6.266   6.781   3.194
 9451TIP3    H228318   6.343   6.670   3.261
 9452TIP3   OH228319   4.672   3.150   3.225
 9452TIP3    H128320   4.749   3.187   3.269
 9452TIP3    H228321   4.599   3.171   3.283
 9453TIP3   OH228322   7.034   2.726   5.104
 9453TIP3    H128323   6.969   2.794   5.085
 9453TIP3    H228324   7.073   2.705   5.019
 9454TIP3   OH228325   6.416   2.170   4.546
 9454TIP3    H128326   6.500   2.164   4.500
 9454TIP3    H228327   6.359   2.216   4.485
 9455TIP3   OH228328   1.376   4.831   0.455
 9455TIP3    H128329   1.310   4.788   0.400
 9455TIP3    H228330   1.393   4.769   0.526
 9456TIP3   OH228331   6.065   0.188   4.971
 9456TIP3    H128332   6.041   0.241   5.047
 9456TIP3    H228333   6.159   0.202   4.960
 9457TIP3   OH228334   0.809   3.008   2.747
 9457TIP3    H128335   0.874   2.943   2.721
 9457TIP3    H228336   0.794   3.059   2.667
 9458TIP3   OH228337   2.167   5.330   3.423
 9458TIP3    H128338   2.239   5.273   3.447
 9458TIP3    H228339   2.092   5.271   3.413
 9459TIP3   OH228340   6.105   6.037   2.940
 9459TIP3    H128341   6.010   6.044   2.939
 9459TIP3    H228342   6.129   6.046   3.032
 9460TIP3   OH228343   3.884   1.878   3.110
 9460TIP3    H128344   3.943   1.887   3.184
 9460TIP3    H228345   3.835   1.961   3.108
 9461TIP3   OH228346   6.076   0.454   5.599
 9461TIP3    H128347   6.149   0.513   5.618
 9461TIP3    H228348   5.998   0.506   5.618
 9462TIP3   OH228349   2.907   2.430   2.252
 9462TIP3    H128350   2.830   2.466   2.295
 9462TIP3    H228351   2.873   2.392   2.171
 9463TIP3   OH228352   5.109   2.058   3.571
 9463TIP3    H128353   5.075   2.077   3.659
 9463TIP3    H228354   5.122   1.963   3.571
 9464TIP3   OH228355   3.710   0.530   3.531
 9464TIP3    H128356   3.783   0.591   3.540
 9464TIP3    H228357   3.678   0.543   3.442
 9465TIP3   OH228358   6.963   2.743   1.148
 9465TIP3    H128359   7.022   2.715   1.078
 9465TIP3    H228360   6.876   2.742   1.107
 9466TIP3   OH228361   3.142   3.631   3.091
 9466TIP3    H128362   3.156   3.705   3.031
 9466TIP3    H228363   3.220   3.577   3.080
 9467TIP3   OH228364   3.679   3.483   2.380
 9467TIP3    H128365   3.693   3.462   2.287
 9467TIP3    H228366   3.600   3.434   2.404
 9468TIP3   OH228367   2.566   1.794   4.866
 9468TIP3    H128368   2.623   1.805   4.942
 9468TIP3    H228369   2.491   1.744   4.899
 9469TIP3   OH228370   1.910   2.088   4.064
 9469TIP3    H128371   1.841   2.144   4.029
 9469TIP3    H228372   1.901   2.005   4.017
 9470TIP3   OH228373   0.322   5.216   5.561
 9470TIP3    H128374   0.376   5.260   5.496
 9470TIP3    H228375   0.384   5.172   5.620
 9471TIP3   OH228376   5.611   4.140   4.886
 9471TIP3    H128377   5.560   4.098   4.818
 9471TIP3    H228378   5.601   4.234   4.870
 9472TIP3   OH228379   0.548   0.111   2.102
 9472TIP3    H128380   0.492   0.034   2.096
 9472TIP3    H228381   0.584   0.121   2.014
 9473TIP3   OH228382   2.376   3.352   0.538
 9473TIP3    H128383   2.283   3.356   0.559
 9473TIP3    H228384   2.407   3.273   0.582
 9474TIP3   OH228385   6.290   3.043   5.056
 9474TIP3    H128386   6.366   2.993   5.024
 9474TIP3    H228387   6.326   3.129   5.079
 9475TIP3   OH228388   7.046   6.075   2.119
 9475TIP3    H128389   7.062   5.981   2.121
 9475TIP3    H228390   6.991   6.089   2.042
 9476TIP3   OH228391   4.779   6.012   1.352
 9476TIP3    H128392   4.830   5.934   1.373
 9476TIP3    H228393   4.792   6.024   1.257
 9477TIP3   OH228394   4.136   3.617   3.547
 9477TIP3    H128395   4.213   3.631   3.492
 9477TIP3    H228396   4.134   3.692   3.606
 9478TIP3   OH228397   3.241   5.719   5.168
 9478TIP3    H128398   3.197   5.757   5.091
 9478TIP3    H228399   3.318   5.675   5.133
 9479TIP3   OH228400   2.807   6.297   0.477
 9479TIP3    H128401   2.839   6.261   0.559
 9479TIP3    H228402   2.880   6.348   0.442
 9480TIP3   OH228403   1.902   4.696   2.077
 9480TIP3    H128404   1.983   4.745   2.090
 9480TIP3    H228405   1.888   4.652   2.161
 9481TIP3   OH228406   0.988   3.152   0.989
 9481TIP3    H128407   1.044   3.207   1.045
 9481TIP3    H228408   0.949   3.214   0.927
 9482TIP3   OH228409   6.333   1.320   1.863
 9482TIP3    H128410   6.399   1.386   1.840
 9482TIP3    H228411   6.382   1.255   1.914
 9483TIP3   OH228412   1.651   5.740   2.062
 9483TIP3    H128413   1.626   5.808   1.999
 9483TIP3    H228414   1.736   5.710   2.031
 9484TIP3   OH228415   4.826   4.702   0.404
 9484TIP3    H128416   4.869   4.781   0.374
 9484TIP3    H228417   4.754   4.689   0.342
 9485TIP3   OH228418   0.042   6.350   3.375
 9485TIP3    H128419   0.115   6.352   3.438
 9485TIP3    H228420   0.085   6.350   3.289
 9486TIP3   OH228421   4.994   0.477   0.143
 9486TIP3    H128422   5.070   0.463   0.199
 9486TIP3    H228423   4.991   0.572   0.129
 9487TIP3   OH228424   4.337   0.076   3.921
 9487TIP3    H128425   4.282   0.041   3.850
 9487TIP3    H228426   4.357   0.166   3.893
 9488TIP3   OH228427   5.344   0.770   1.031
 9488TIP3    H128428   5.289   0.756   1.108
 9488TIP3    H228429   5.283   0.795   0.962
 9489TIP3   OH228430   5.763   1.958   5.306
 9489TIP3    H128431   5.824   2.027   5.331
 9489TIP3    H228432   5.818   1.881   5.294
 9490TIP3   OH228433   5.838   1.763   2.604
 9490TIP3    H128434   5.812   1.675   2.577
 9490TIP3    H228435   5.801   1.821   2.538
 9491TIP3   OH228436   2.337   2.347   2.216
 9491TIP3    H128437   2.291   2.407   2.156
 9491TIP3    H228438   2.358   2.271   2.162
 9492TIP3   OH228439   5.460   0.494   2.139
 9492TIP3    H128440   5.432   0.445   2.216
 9492TIP3    H228441   5.401   0.570   2.136
 9493TIP3   OH228442   0.375   1.451   0.507
 9493TIP3    H128443   0.395   1.530   0.557
 9493TIP3    H228444   0.359   1.482   0.418
 9494TIP3   OH228445   1.645   2.087   3.431
 9494TIP3    H128446   1.565   2.042   3.457
 9494TIP3    H228447   1.716   2.031   3.462
 9495TIP3   OH228448   2.058   6.689   3.362
 9495TIP3    H128449   2.112   6.633   3.417
 9495TIP3    H228450   2.102   6.689   3.277
 9496TIP3   OH228451   5.068   4.201   0.714
 9496TIP3    H128452   5.003   4.270   0.728
 9496TIP3    H228453   5.145   4.231   0.763
 9497TIP3   OH228454   0.804   0.324   5.451
 9497TIP3    H128455   0.738   0.391   5.469
 9497TIP3    H228456   0.755   0.250   5.417
 9498TIP3   OH228457   2.140   1.892   4.824
 9498TIP3    H128458   2.058   1.939   4.807
 9498TIP3    H228459   2.121   1.837   4.900
 9499TIP3   OH228460   2.226   0.856   3.215
 9499TIP3    H128461   2.203   0.884   3.126
 9499TIP3    H228462   2.265   0.934   3.255
 9500TIP3   OH228463   2.427   2.893   5.388
 9500TIP3    H128464   2.504   2.942   5.360
 9500TIP3    H228465   2.391   2.855   5.308
 9501TIP3   OH228466   6.892   0.059   2.730
 9501TIP3    H128467   6.892  -0.036   2.738
 9501TIP3    H228468   6.810   0.086   2.770
 9502TIP3   OH228469   4.814   1.503   1.007
 9502TIP3    H128470   4.876   1.544   0.947
 9502TIP3    H228471   4.849   1.520   1.094
 9503TIP3   OH228472   0.771   1.213   3.919
 9503TIP3    H128473   0.823   1.286   3.952
 9503TIP3    H228474   0.835   1.153   3.880
 9504TIP3   OH228475   6.020   0.664   5.237
 9504TIP3    H128476   6.025   0.745   5.186
 9504TIP3    H228477   6.050   0.596   5.178
 9505TIP3   OH228478   1.910   3.527   2.403
 9505TIP3    H128479   1.960   3.607   2.414
 9505TIP3    H228480   1.950   3.465   2.463
 9506TIP3   OH228481   2.796   6.196   3.993
 9506TIP3    H128482   2.793   6.280   4.037
 9506TIP3    H228483   2.710   6.186   3.953
 9507TIP3   OH228484   5.155   5.114   0.691
 9507TIP3    H128485   5.170   5.183   0.626
 9507TIP3    H228486   5.076   5.070   0.662
 9508TIP3   OH228487   0.126   4.462   1.585
 9508TIP3    H128488   0.081   4.394   1.636
 9508TIP3    H228489   0.059   4.529   1.571
 9509TIP3   OH228490   5.001   4.390   5.393
 9509TIP3    H128491   5.005   4.310   5.446
 9509TIP3    H228492   4.927   4.377   5.335
 9510TIP3   OH228493   5.962   5.575   4.196
 9510TIP3    H128494   5.913   5.626   4.261
 9510TIP3    H228495   6.008   5.509   4.248
 9511TIP3   OH228496   0.525   6.517   3.466
 9511TIP3    H128497   0.589   6.521   3.536
 9511TIP3    H228498   0.552   6.442   3.413
 9512TIP3   OH228499   6.790   2.248   3.768
 9512TIP3    H128500   6.814   2.333   3.729
 9512TIP3    H228501   6.829   2.184   3.709
 9513TIP3   OH228502   2.794   1.071   1.677
 9513TIP3    H128503   2.806   0.977   1.665
 9513TIP3    H228504   2.882   1.108   1.668
 9514TIP3   OH228505   4.988   4.200   4.036
 9514TIP3    H128506   4.987   4.280   3.983
 9514TIP3    H228507   4.896   4.172   4.038
 9515TIP3   OH228508   5.004   5.782   1.420
 9515TIP3    H128509   5.067   5.728   1.373
 9515TIP3    H228510   4.993   5.738   1.505
 9516TIP3   OH228511   3.922   1.739   1.936
 9516TIP3    H128512   3.866   1.747   2.013
 9516TIP3    H228513   3.952   1.828   1.918
 9517TIP3   OH228514   4.321   2.427   5.886
 9517TIP3    H128515   4.272   2.385   5.957
 9517TIP3    H228516   4.254   2.472   5.834
 9518TIP3   OH228517   5.821   6.428   3.555
 9518TIP3    H128518   5.794   6.356   3.612
 9518TIP3    H228519   5.778   6.410   3.471
 9519TIP3   OH228520   7.013   6.572   1.892
 9519TIP3    H128521   7.058   6.621   1.961
 9519TIP3    H228522   7.078   6.509   1.861
 9520TIP3   OH228523   6.946   0.900   3.244
 9520TIP3    H128524   7.033   0.867   3.266
 9520TIP3    H228525   6.929   0.866   3.156
 9521TIP3   OH228526   7.019   5.477   4.673
 9521TIP3    H128527   7.099   5.473   4.726
 9521TIP3    H228528   6.955   5.520   4.731
 9522TIP3   OH228529   3.125   1.064   2.761
 9522TIP3    H128530   3.198   1.014   2.797
 9522TIP3    H228531   3.052   1.003   2.760
 9523TIP3   OH228532   0.691   0.467   2.306
 9523TIP3    H128533   0.714   0.529   2.237
 9523TIP3    H228534   0.678   0.522   2.384
 9524TIP3   OH228535   3.677   1.954   1.781
 9524TIP3    H128536   3.751   1.972   1.839
 9524TIP3    H228537   3.639   1.873   1.817
 9525TIP3   OH228538   2.020   0.698   2.294
 9525TIP3    H128539   2.042   0.675   2.384
 9525TIP3    H228540   1.958   0.629   2.267
 9526TIP3   OH228541   5.193   4.363   2.602
 9526TIP3    H128542   5.177   4.457   2.596
 9526TIP3    H228543   5.172   4.340   2.693
 9527TIP3   OH228544   3.867   4.896   3.990
 9527TIP3    H128545   3.956   4.919   3.962
 9527TIP3    H228546   3.876   4.870   4.081
 9528TIP3   OH228547   3.727   1.167   4.380
 9528TIP3    H128548   3.806   1.189   4.330
 9528TIP3    H228549   3.666   1.237   4.361
 9529TIP3   OH228550   6.659   1.119   1.408
 9529TIP3    H128551   6.619   1.203   1.384
 9529TIP3    H228552   6.705   1.137   1.490
 9530TIP3   OH228553   2.934   4.728   4.503
 9530TIP3    H128554   2.847   4.717   4.463
 9530TIP3    H228555   2.994   4.728   4.428
 9531TIP3   OH228556   2.140   4.245   4.922
 9531TIP3    H128557   2.223   4.292   4.919
 9531TIP3    H228558   2.156   4.171   4.980
 9532TIP3   OH228559   4.626   4.891   2.968
 9532TIP3    H128560   4.718   4.875   2.945
 9532TIP3    H228561   4.622   4.985   2.988
 9533TIP3   OH228562   1.354   2.130   0.104
 9533TIP3    H128563   1.410   2.178   0.165
 9533TIP3    H228564   1.330   2.195   0.038
 9534TIP3   OH228565   5.122   4.922   1.715
 9534TIP3    H128566   5.172   4.896   1.637
 9534TIP3    H228567   5.075   5.001   1.688
 9535TIP3   OH228568   2.358   5.949   4.720
 9535TIP3    H128569   2.445   5.917   4.739
 9535TIP3    H228570   2.322   5.974   4.805
 9536TIP3   OH228571   1.799   2.657   5.156
 9536TIP3    H128572   1.864   2.707   5.206
 9536TIP3    H228573   1.734   2.630   5.220
 9537TIP3   OH228574   6.371   2.138   2.676
 9537TIP3    H128575   6.409   2.226   2.677
 9537TIP3    H228576   6.444   2.080   2.652
 9538TIP3   OH228577   3.475   6.229   3.115
 9538TIP3    H128578   3.394   6.239   3.164
 9538TIP3    H228579   3.533   6.180   3.174
 9539TIP3   OH228580   7.043   4.073   4.716
 9539TIP3    H128581   7.005   3.988   4.739
 9539TIP3    H228582   6.975   4.115   4.663
 9540TIP3   OH228583   2.084   2.534   2.383
 9540TIP3    H128584   2.173   2.556   2.411
 9540TIP3    H228585   2.031   2.606   2.415
 9541TIP3   OH228586   5.808   3.952   4.358
 9541TIP3    H128587   5.776   3.879   4.305
 9541TIP3    H228588   5.820   4.024   4.295
 9542TIP3   OH228589   3.670   5.698   4.854
 9542TIP3    H128590   3.760   5.674   4.875
 9542TIP3    H228591   3.662   5.680   4.760
 9543TIP3   OH228592   1.849   3.694   5.087
 9543TIP3    H128593   1.876   3.731   5.003
 9543TIP3    H228594   1.919   3.716   5.147
 9544TIP3   OH228595   3.278   3.346   4.869
 9544TIP3    H128596   3.238   3.370   4.953
 9544TIP3    H228597   3.371   3.364   4.880
 9545TIP3   OH228598   2.352   2.542   5.129
 9545TIP3    H128599   2.442   2.574   5.126
 9545TIP3    H228600   2.358   2.448   5.113
 9546TIP3   OH228601   5.787   0.278   0.934
 9546TIP3    H128602   5.878   0.262   0.908
 9546TIP3    H228603   5.737   0.271   0.852
 9547TIP3   OH228604   6.948   3.817   2.267
 9547TIP3    H128605   6.984   3.817   2.356
 9547TIP3    H228606   6.856   3.844   2.278
 9548TIP3   OH228607   4.683   3.770   5.802
 9548TIP3    H128608   4.732   3.691   5.825
 9548TIP3    H228609   4.741   3.819   5.743
 9549TIP3   OH228610   1.744   5.807   2.339
 9549TIP3    H128611   1.836   5.797   2.314
 9549TIP3    H228612   1.696   5.781   2.260
 9550TIP3   OH228613   1.365   5.212   2.020
 9550TIP3    H128614   1.402   5.126   2.036
 9550TIP3    H228615   1.287   5.215   2.075
 9551TIP3   OH228616   6.538   1.517   1.750
 9551TIP3    H128617   6.535   1.558   1.664
 9551TIP3    H228618   6.619   1.466   1.749
 9552TIP3   OH228619   4.294   0.974   4.339
 9552TIP3    H128620   4.241   0.895   4.346
 9552TIP3    H228621   4.376   0.953   4.383
 9553TIP3   OH228622   1.279   1.708   2.909
 9553TIP3    H128623   1.362   1.756   2.914
 9553TIP3    H228624   1.212   1.776   2.909
 9554TIP3   OH228625   0.166   3.717   5.520
 9554TIP3    H128626   0.171   3.753   5.609
 9554TIP3    H228627   0.073   3.721   5.498
 9555TIP3   OH228628   2.684   3.447   4.915
 9555TIP3    H128629   2.722   3.389   4.849
 9555TIP3    H228630   2.760   3.483   4.961
 9556TIP3   OH228631   1.752   0.563   1.623
 9556TIP3    H128632   1.751   0.502   1.550
 9556TIP3    H228633   1.845   0.581   1.638
 9557TIP3   OH228634   5.210   2.771   1.339
 9557TIP3    H128635   5.251   2.803   1.419
 9557TIP3    H228636   5.283   2.757   1.279
 9558TIP3   OH228637   1.350   3.393   1.919
 9558TIP3    H128638   1.395   3.472   1.948
 9558TIP3    H228639   1.261   3.422   1.898
 9559TIP3   OH228640   2.288   6.496   3.136
 9559TIP3    H128641   2.224   6.437   3.177
 9559TIP3    H228642   2.273   6.486   3.042
 9560TIP3   OH228643   4.082   5.892   2.541
 9560TIP3    H128644   4.003   5.932   2.503
 9560TIP3    H228645   4.054   5.860   2.627
 9561TIP3   OH228646   1.127   6.346   1.947
 9561TIP3    H128647   1.122   6.352   2.042
 9561TIP3    H228648   1.040   6.316   1.920
 9562TIP3   OH228649   2.037   1.544   2.831
 9562TIP3    H128650   1.998   1.527   2.916
 9562TIP3    H228651   2.128   1.568   2.850
 9563TIP3   OH228652   2.965   5.474   1.256
 9563TIP3    H128653   2.884   5.469   1.205
 9563TIP3    H228654   2.936   5.493   1.346
 9564TIP3   OH228655   3.519   4.129   5.446
 9564TIP3    H128656   3.455   4.172   5.502
 9564TIP3    H228657   3.594   4.188   5.445
 9565TIP3   OH228658   3.856   1.308   4.748
 9565TIP3    H128659   3.840   1.233   4.806
 9565TIP3    H228660   3.856   1.384   4.807
 9566TIP3   OH228661   1.954   2.417   3.115
 9566TIP3    H128662   1.902   2.339   3.135
 9566TIP3    H228663   1.967   2.459   3.200
 9567TIP3   OH228664   5.615   0.518   4.858
 9567TIP3    H128665   5.592   0.611   4.854
 9567TIP3    H228666   5.538   0.472   4.825
 9568TIP3   OH228667   1.393   2.517   5.123
 9568TIP3    H128668   1.340   2.553   5.052
 9568TIP3    H228669   1.330   2.492   5.190
 9569TIP3   OH228670   2.695   6.663   2.323
 9569TIP3    H128671   2.663   6.744   2.284
 9569TIP3    H228672   2.644   6.594   2.281
 9570TIP3   OH228673   0.863   3.199   2.960
 9570TIP3    H128674   0.843   3.292   2.948
 9570TIP3    H228675   0.852   3.161   2.873
 9571TIP3   OH228676   5.779   5.580   2.683
 9571TIP3    H128677   5.854   5.593   2.742
 9571TIP3    H228678   5.810   5.608   2.597
 9572TIP3   OH228679   1.731   4.973   1.410
 9572TIP3    H128680   1.700   4.943   1.325
 9572TIP3    H228681   1.655   5.014   1.451
 9573TIP3   OH228682   6.912   6.043   1.108
 9573TIP3    H128683   7.005   6.048   1.127
 9573TIP3    H228684   6.903   5.967   1.052
 9574TIP3   OH228685   3.334   1.587   0.406
 9574TIP3    H128686   3.249   1.553   0.433
 9574TIP3    H228687   3.336   1.574   0.311
 9575TIP3   OH228688   5.734   4.430   2.631
 9575TIP3    H128689   5.688   4.349   2.653
 9575TIP3    H228690   5.667   4.485   2.591
 9576TIP3   OH228691   5.351   6.506   5.458
 9576TIP3    H128692   5.357   6.520   5.552
 9576TIP3    H228693   5.438   6.476   5.432
 9577TIP3   OH228694   2.606   4.709   3.800
 9577TIP3    H128695   2.516   4.735   3.781
 9577TIP3    H228696   2.632   4.655   3.725
 9578TIP3   OH228697   6.035   0.595   1.524
 9578TIP3    H128698   6.027   0.500   1.518
 9578TIP3    H228699   6.114   0.615   1.474
 9579TIP3   OH228700   1.128   3.906   4.782
 9579TIP3    H128701   1.175   3.977   4.824
 9579TIP3    H228702   1.041   3.941   4.763
 9580TIP3   OH228703   3.051   3.129   1.924
 9580TIP3    H128704   3.100   3.110   2.004
 9580TIP3    H228705   3.032   3.223   1.929
 9581TIP3   OH228706   1.263   1.734   4.796
 9581TIP3    H128707   1.264   1.639   4.805
 9581TIP3    H228708   1.223   1.765   4.877
 9582TIP3   OH228709   3.340   0.577   4.916
 9582TIP3    H128710   3.368   0.496   4.958
 9582TIP3    H228711   3.281   0.550   4.846
 9583TIP3   OH228712   3.796   6.770   3.472
 9583TIP3    H128713   3.784   6.813   3.388
 9583TIP3    H228714   3.799   6.677   3.452
 9584TIP3   OH228715   1.734   0.590   5.595
 9584TIP3    H128716   1.723   0.500   5.625
 9584TIP3    H228717   1.746   0.641   5.675
 9585TIP3   OH228718   2.445   6.485   3.393
 9585TIP3    H128719   2.380   6.427   3.434
 9585TIP3    H228720   2.413   6.499   3.304
 9586TIP3   OH228721   6.107   2.180   3.642
 9586TIP3    H128722   6.194   2.148   3.668
 9586TIP3    H228723   6.047   2.137   3.703
 9587TIP3   OH228724   4.049   3.068   1.233
 9587TIP3    H128725   4.126   3.012   1.238
 9587TIP3    H228726   3.989   3.022   1.174
 9588TIP3   OH228727   6.378   6.736   4.821
 9588TIP3    H128728   6.289   6.702   4.823
 9588TIP3    H228729   6.367   6.831   4.812
 9589TIP3   OH228730   2.180   2.012   3.198
 9589TIP3    H128731   2.161   2.094   3.154
 9589TIP3    H228732   2.269   1.989   3.170
 9590TIP3   OH228733   4.544   5.651   4.496
 9590TIP3    H128734   4.482   5.723   4.489
 9590TIP3    H228735   4.630   5.693   4.502
 9591TIP3   OH228736   0.712   4.992   1.051
 9591TIP3    H128737   0.703   4.925   1.119
 9591TIP3    H228738   0.670   4.953   0.974
 9592TIP3   OH228739   4.327   2.008   3.333
 9592TIP3    H128740   4.321   2.102   3.345
 9592TIP3    H228741   4.357   1.997   3.243
 9593TIP3   OH228742   1.918   6.579   2.265
 9593TIP3    H128743   1.874   6.663   2.255
 9593TIP3    H228744   1.847   6.517   2.284
 9594TIP3   OH228745   0.304   2.630   5.078
 9594TIP3    H128746   0.265   2.611   4.992
 9594TIP3    H228747   0.236   2.679   5.124
 9595TIP3   OH228748   4.488   4.329   1.920
 9595TIP3    H128749   4.511   4.416   1.888
 9595TIP3    H228750   4.522   4.327   2.010
 9596TIP3   OH228751   6.813   5.411   1.443
 9596TIP3    H128752   6.872   5.363   1.384
 9596TIP3    H228753   6.851   5.499   1.448
 9597TIP3   OH228754   7.139   0.492   3.261
 9597TIP3    H128755   7.071   0.547   3.301
 9597TIP3    H228756   7.112   0.402   3.282
 9598TIP3   OH228757   5.663   0.986   3.343
 9598TIP3    H128758   5.732   0.951   3.286
 9598TIP3    H228759   5.624   1.058   3.293
 9599TIP3   OH228760   7.050   2.699   4.831
 9599TIP3    H128761   6.957   2.711   4.854
 9599TIP3    H228762   7.048   2.651   4.749
 9600TIP3   OH228763   2.877   0.503   1.909
 9600TIP3    H128764   2.913   0.488   1.821
 9600TIP3    H228765   2.807   0.438   1.918
 9601TIP3   OH228766   6.255   4.642   3.339
 9601TIP3    H128767   6.172   4.654   3.294
 9601TIP3    H228768   6.264   4.720   3.394
 9602TIP3   OH228769   6.772   5.829   1.312
 9602TIP3    H128770   6.831   5.767   1.355
 9602TIP3    H228771   6.805   5.915   1.337
 9603TIP3   OH228772   1.746   0.240   4.896
 9603TIP3    H128773   1.760   0.252   4.990
 9603TIP3    H228774   1.806   0.302   4.855
 9604TIP3   OH228775   0.562   1.827   3.183
 9604TIP3    H128776   0.639   1.876   3.212
 9604TIP3    H228777   0.507   1.822   3.261
 9605TIP3   OH228778   2.271   5.879   1.920
 9605TIP3    H128779   2.256   5.927   2.002
 9605TIP3    H228780   2.251   5.788   1.941
 9606TIP3   OH228781   0.702   0.274   4.464
 9606TIP3    H128782   0.698   0.193   4.515
 9606TIP3    H228783   0.642   0.260   4.391
 9607TIP3   OH228784   3.442   6.000   2.181
 9607TIP3    H128785   3.522   5.963   2.220
 9607TIP3    H228786   3.449   5.981   2.088
 9608TIP3   OH228787   1.582   4.441   3.184
 9608TIP3    H128788   1.645   4.400   3.124
 9608TIP3    H228789   1.498   4.402   3.161
 9609TIP3   OH228790   5.220   0.500   0.288
 9609TIP3    H128791   5.293   0.525   0.231
 9609TIP3    H228792   5.253   0.516   0.376
 9610TIP3   OH228793   1.854   4.198   0.568
 9610TIP3    H128794   1.886   4.281   0.604
 9610TIP3    H228795   1.929   4.139   0.578
 9611TIP3   OH228796   6.723   5.711   5.778
 9611TIP3    H128797   6.689   5.622   5.778
 9611TIP3    H228798   6.809   5.704   5.736
 9612TIP3   OH228799   2.246   4.775   5.605
 9612TIP3    H128800   2.169   4.799   5.656
 9612TIP3    H228801   2.308   4.740   5.669
 9613TIP3   OH228802   1.114   0.551   2.240
 9613TIP3    H128803   1.102   0.578   2.149
 9613TIP3    H228804   1.207   0.568   2.258
 9614TIP3   OH228805   4.987   4.718   1.504
 9614TIP3    H128806   5.066   4.761   1.536
 9614TIP3    H228807   5.017   4.661   1.433
 9615TIP3   OH228808   6.173   4.623   2.025
 9615TIP3    H128809   6.252   4.660   2.064
 9615TIP3    H228810   6.169   4.534   2.059
 9616TIP3   OH228811   3.023   3.078   2.810
 9616TIP3    H128812   3.057   3.048   2.894
 9616TIP3    H228813   3.073   3.028   2.745
 9617TIP3   OH228814   7.124   5.383   2.211
 9617TIP3    H128815   7.110   5.430   2.293
 9617TIP3    H228816   7.158   5.297   2.238
 9618TIP3   OH228817   0.018   5.458   4.497
 9618TIP3    H128818   0.076   5.517   4.544
 9618TIP3    H228819  -0.065   5.505   4.491
 9619TIP3   OH228820   0.027   3.984   4.194
 9619TIP3    H128821   0.007   4.043   4.267
 9619TIP3    H228822  -0.033   3.911   4.205
 9620TIP3   OH228823   0.711   1.982   5.150
 9620TIP3    H128824   0.752   1.942   5.074
 9620TIP3    H228825   0.649   1.917   5.182
 9621TIP3   OH228826   4.174   5.034   4.683
 9621TIP3    H128827   4.240   5.089   4.726
 9621TIP3    H228828   4.215   5.010   4.599
 9622TIP3   OH228829   0.174   2.030   3.854
 9622TIP3    H128830   0.215   2.071   3.777
 9622TIP3    H228831   0.173   1.937   3.834
 9623TIP3   OH228832   4.959   2.111   1.907
 9623TIP3    H128833   5.045   2.088   1.939
 9623TIP3    H228834   4.898   2.058   1.959
 9624TIP3   OH228835   6.401   6.085   1.170
 9624TIP3    H128836   6.310   6.110   1.180
 9624TIP3    H228837   6.398   6.001   1.124
 9625TIP3   OH228838   4.285   4.133   1.857
 9625TIP3    H128839   4.348   4.205   1.862
 9625TIP3    H228840   4.212   4.161   1.913
 9626TIP3   OH228841   5.731   4.065   3.896
 9626TIP3    H128842   5.685   4.081   3.813
 9626TIP3    H228843   5.666   4.021   3.951
 9627TIP3   OH228844   0.476   6.617   4.091
 9627TIP3    H128845   0.449   6.651   4.005
 9627TIP3    H228846   0.565   6.651   4.103
 9628TIP3   OH228847   4.117   0.504   1.819
 9628TIP3    H128848   4.136   0.484   1.911
 9628TIP3    H228849   4.199   0.486   1.773
 9629TIP3   OH228850   1.458   1.467   1.448
 9629TIP3    H128851   1.402   1.427   1.515
 9629TIP3    H228852   1.440   1.416   1.369
 9630TIP3   OH228853   2.507   5.193   2.314
 9630TIP3    H128854   2.487   5.171   2.405
 9630TIP3    H228855   2.555   5.276   2.320
 9631TIP3   OH228856   6.833   2.221   5.749
 9631TIP3    H128857   6.903   2.280   5.718
 9631TIP3    H228858   6.805   2.175   5.670
 9632TIP3   OH228859   3.909   5.045   0.318
 9632TIP3    H128860   3.851   5.089   0.257
 9632TIP3    H228861   3.864   4.962   0.337
 9633TIP3   OH228862   3.994   2.505   0.853
 9633TIP3    H128863   3.998   2.421   0.899
 9633TIP3    H228864   4.014   2.484   0.762
 9634TIP3   OH228865   5.397   3.838   3.052
 9634TIP3    H128866   5.457   3.767   3.074
 9634TIP3    H228867   5.355   3.860   3.135
 9635TIP3   OH228868   6.017   1.916   3.116
 9635TIP3    H128869   5.926   1.886   3.108
 9635TIP3    H228870   6.030   1.975   3.042
 9636TIP3   OH228871   5.154   5.322   4.519
 9636TIP3    H128872   5.179   5.302   4.609
 9636TIP3    H228873   5.237   5.325   4.471
 9637TIP3   OH228874   1.437   0.059   0.460
 9637TIP3    H128875   1.432   0.070   0.365
 9637TIP3    H228876   1.509   0.116   0.487
 9638TIP3   OH228877   0.652   5.324   2.122
 9638TIP3    H128878   0.733   5.276   2.106
 9638TIP3    H228879   0.680   5.407   2.161
 9639TIP3   OH228880   0.107   4.400   3.440
 9639TIP3    H128881   0.023   4.442   3.422
 9639TIP3    H228882   0.170   4.452   3.391
 9640TIP3   OH228883   1.656   4.121   0.778
 9640TIP3    H128884   1.721   4.128   0.708
 9640TIP3    H228885   1.690   4.178   0.848
 9641TIP3   OH228886   6.738   0.404   2.497
 9641TIP3    H128887   6.702   0.493   2.502
 9641TIP3    H228888   6.697   0.366   2.419
 9642TIP3   OH228889   3.513   2.279   0.426
 9642TIP3    H128890   3.463   2.353   0.461
 9642TIP3    H228891   3.497   2.208   0.488
 9643TIP3   OH228892   0.463   4.952   4.811
 9643TIP3    H128893   0.493   5.021   4.752
 9643TIP3    H228894   0.532   4.944   4.876
 9644TIP3   OH228895   3.388   3.800   5.459
 9644TIP3    H128896   3.446   3.803   5.535
 9644TIP3    H228897   3.342   3.884   5.461
 9645TIP3   OH228898   1.857   2.317   1.918
 9645TIP3    H128899   1.808   2.320   1.836
 9645TIP3    H228900   1.946   2.341   1.893
 9646TIP3   OH228901   3.841   5.314   2.950
 9646TIP3    H128902   3.779   5.283   3.015
 9646TIP3    H228903   3.900   5.371   2.998
 9647TIP3   OH228904   1.235   4.123   3.711
 9647TIP3    H128905   1.217   4.065   3.785
 9647TIP3    H228906   1.324   4.155   3.727
 9648TIP3   OH228907   6.226   4.561   2.748
 9648TIP3    H128908   6.160   4.525   2.808
 9648TIP3    H228909   6.269   4.630   2.798
 9649TIP3   OH228910   5.066   2.631   2.572
 9649TIP3    H128911   5.028   2.567   2.632
 9649TIP3    H228912   5.013   2.710   2.585
 9650TIP3   OH228913   0.695   4.769   1.217
 9650TIP3    H128914   0.674   4.675   1.219
 9650TIP3    H228915   0.655   4.804   1.297
 9651TIP3   OH228916   0.121   0.251   1.748
 9651TIP3    H128917   0.081   0.330   1.712
 9651TIP3    H228918   0.067   0.228   1.823
 9652TIP3   OH228919   3.980   1.529   0.697
 9652TIP3    H128920   3.937   1.516   0.781
 9652TIP3    H228921   3.922   1.588   0.649
 9653TIP3   OH228922   6.526   1.653   5.338
 9653TIP3    H128923   6.487   1.718   5.396
 9653TIP3    H228924   6.453   1.622   5.284
 9654TIP3   OH228925   0.973   0.435   1.624
 9654TIP3    H128926   0.995   0.353   1.669
 9654TIP3    H228927   1.031   0.500   1.665
 9655TIP3   OH228928   2.947   1.894   3.682
 9655TIP3    H128929   3.006   1.822   3.706
 9655TIP3    H228930   2.892   1.858   3.613
 9656TIP3   OH228931   1.114   0.169   2.935
 9656TIP3    H128932   1.121   0.255   2.893
 9656TIP3    H228933   1.020   0.152   2.940
 9657TIP3   OH228934   2.833   4.218   2.602
 9657TIP3    H128935   2.894   4.291   2.597
 9657TIP3    H228936   2.749   4.258   2.625
 9658TIP3   OH228937   1.793   0.861   3.513
 9658TIP3    H128938   1.797   0.819   3.599
 9658TIP3    H228939   1.879   0.844   3.474
 9659TIP3   OH228940   2.502   5.300   3.998
 9659TIP3    H128941   2.516   5.390   3.969
 9659TIP3    H228942   2.432   5.307   4.063
 9660TIP3   OH228943   5.367   4.112   1.495
 9660TIP3    H128944   5.298   4.177   1.511
 9660TIP3    H228945   5.382   4.117   1.400
 9661TIP3   OH228946   6.481   1.386   2.583
 9661TIP3    H128947   6.492   1.480   2.600
 9661TIP3    H228948   6.547   1.344   2.638
 9662TIP3   OH228949   4.909   3.402   4.842
 9662TIP3    H128950   4.871   3.486   4.817
 9662TIP3    H228951   5.003   3.414   4.832
 9663TIP3   OH228952   2.130   0.127   0.068
 9663TIP3    H128953   2.224   0.134   0.050
 9663TIP3    H228954   2.120   0.039   0.105
 9664TIP3   OH228955   2.740   0.368   4.745
 9664TIP3    H128956   2.671   0.330   4.690
 9664TIP3    H228957   2.795   0.294   4.770
 9665TIP3   OH228958   2.078   3.676   0.428
 9665TIP3    H128959   2.011   3.742   0.411
 9665TIP3    H228960   2.042   3.624   0.500
 9666TIP3   OH228961   5.681   6.318   4.705
 9666TIP3    H128962   5.742   6.274   4.645
 9666TIP3    H228963   5.736   6.344   4.779
 9667TIP3   OH228964   5.263   5.455   2.920
 9667TIP3    H128965   5.186   5.398   2.920
 9667TIP3    H228966   5.230   5.541   2.895
 9668TIP3   OH228967   0.991   6.538   1.597
 9668TIP3    H128968   0.979   6.571   1.508
 9668TIP3    H228969   0.970   6.445   1.591
 9669TIP3   OH228970   1.209   5.035   5.030
 9669TIP3    H128971   1.215   4.989   5.114
 9669TIP3    H228972   1.275   4.994   4.974
 9670TIP3   OH228973   2.110   6.386   4.402
 9670TIP3    H128974   2.093   6.328   4.328
 9670TIP3    H228975   2.056   6.464   4.384
 9671TIP3   OH228976   2.149   0.072   5.609
 9671TIP3    H128977   2.190   0.090   5.524
 9671TIP3    H228978   2.089  -0.001   5.592
 9672TIP3   OH228979   4.686   2.182   5.480
 9672TIP3    H128980   4.766   2.152   5.524
 9672TIP3    H228981   4.716   2.245   5.415
 9673TIP3   OH228982   1.348   2.026   0.504
 9673TIP3    H128983   1.350   2.001   0.596
 9673TIP3    H228984   1.257   2.015   0.477
 9674TIP3   OH228985   5.048   4.779   2.259
 9674TIP3    H128986   5.022   4.762   2.168
 9674TIP3    H228987   5.034   4.873   2.270
 9675TIP3   OH228988   3.281   6.215   3.331
 9675TIP3    H128989   3.275   6.272   3.408
 9675TIP3    H228990   3.192   6.212   3.297
 9676TIP3   OH228991   4.411   6.749   5.631
 9676TIP3    H128992   4.448   6.828   5.593
 9676TIP3    H228993   4.350   6.717   5.564
 9677TIP3   OH228994   3.789   5.240   0.171
 9677TIP3    H128995   3.751   5.313   0.122
 9677TIP3    H228996   3.773   5.263   0.263
 9678TIP3   OH228997   5.263   4.461   1.311
 9678TIP3    H128998   5.325   4.482   1.242
 9678TIP3    H228999   5.188   4.519   1.294
 9679TIP3   OH229000   2.677   0.369   1.596
 9679TIP3    H129001   2.759   0.346   1.640
 9679TIP3    H229002   2.704   0.428   1.525
 9680TIP3   OH229003   0.925   2.935   4.837
 9680TIP3    H129004   0.923   2.848   4.877
 9680TIP3    H229005   1.005   2.975   4.872
 9681TIP3   OH229006   2.085   2.122   2.254
 9681TIP3    H129007   2.100   2.136   2.348
 9681TIP3    H229008   2.104   2.206   2.214
 9682TIP3   OH229009   5.344   4.710   5.561
 9682TIP3    H129010   5.309   4.799   5.559
 9682TIP3    H229011   5.287   4.661   5.501
 9683TIP3   OH229012   6.261   2.352   4.422
 9683TIP3    H129013   6.287   2.444   4.427
 9683TIP3    H229014   6.302   2.320   4.342
 9684TIP3   OH229015   0.676   3.910   1.092
 9684TIP3    H129016   0.682   4.005   1.102
 9684TIP3    H229017   0.759   3.885   1.050
 9685TIP3   OH229018   4.783   2.228   4.996
 9685TIP3    H129019   4.869   2.186   4.998
 9685TIP3    H229020   4.741   2.194   4.917
 9686TIP3   OH229021   6.678   4.984   4.517
 9686TIP3    H129022   6.631   5.051   4.566
 9686TIP3    H229023   6.619   4.961   4.445
 9687TIP3   OH229024   2.142   3.204   4.869
 9687TIP3    H129025   2.120   3.152   4.792
 9687TIP3    H229026   2.059   3.218   4.914
 9688TIP3   OH229027   3.734   6.708   4.048
 9688TIP3    H129028   3.695   6.622   4.066
 9688TIP3    H229029   3.683   6.744   3.976
 9689TIP3   OH229030   4.064   4.956   2.938
 9689TIP3    H129031   4.059   4.929   2.846
 9689TIP3    H229032   4.111   5.039   2.936
 9690TIP3   OH229033   0.105   1.740   1.568
 9690TIP3    H129034   0.110   1.656   1.614
 9690TIP3    H229035   0.169   1.732   1.498
 9691TIP3   OH229036   6.371   0.777   4.383
 9691TIP3    H129037   6.281   0.760   4.410
 9691TIP3    H229038   6.371   0.759   4.289
 9692TIP3   OH229039   3.918   0.129   3.997
 9692TIP3    H129040   3.875   0.178   3.927
 9692TIP3    H229041   3.939   0.194   4.063
 9693TIP3   OH229042   5.779   1.498   2.516
 9693TIP3    H129043   5.690   1.493   2.551
 9693TIP3    H229044   5.814   1.410   2.526
 9694TIP3   OH229045   3.722   4.064   4.042
 9694TIP3    H129046   3.688   3.999   3.980
 9694TIP3    H229047   3.644   4.109   4.073
 9695TIP3   OH229048   4.166   0.901   5.393
 9695TIP3    H129049   4.159   0.989   5.357
 9695TIP3    H229050   4.142   0.843   5.321
 9696TIP3   OH229051   4.746   4.535   5.124
 9696TIP3    H129052   4.719   4.459   5.176
 9696TIP3    H229053   4.756   4.606   5.188
 9697TIP3   OH229054   2.816   6.299   1.246
 9697TIP3    H129055   2.882   6.292   1.315
 9697TIP3    H229056   2.821   6.390   1.217
 9698TIP3   OH229057   3.458   0.537   5.190
 9698TIP3    H129058   3.483   0.622   5.153
 9698TIP3    H229059   3.375   0.554   5.235
 9699TIP3   OH229060   3.115   3.225   2.388
 9699TIP3    H129061   3.120   3.211   2.294
 9699TIP3    H229062   3.107   3.137   2.425
 9700TIP3   OH229063   0.501   2.913   3.711
 9700TIP3    H129064   0.506   2.996   3.759
 9700TIP3    H229065   0.544   2.931   3.627
 9701TIP3   OH229066   5.089   6.639   5.634
 9701TIP3    H129067   5.067   6.627   5.726
 9701TIP3    H229068   5.181   6.663   5.634
 9702TIP3   OH229069   4.506   0.955   4.902
 9702TIP3    H129070   4.435   0.982   4.844
 9702TIP3    H229071   4.471   0.967   4.990
 9703TIP3   OH229072   2.031   1.760   5.326
 9703TIP3    H129073   2.121   1.750   5.295
 9703TIP3    H229074   2.019   1.854   5.333
 9704TIP3   OH229075   4.412   5.249   4.122
 9704TIP3    H129076   4.436   5.298   4.200
 9704TIP3    H229077   4.495   5.226   4.081
 9705TIP3   OH229078   0.703   3.360   1.456
 9705TIP3    H129079   0.647   3.365   1.378
 9705TIP3    H229080   0.792   3.354   1.421
 9706TIP3   OH229081   1.126   5.218  -0.024
 9706TIP3    H129082   1.166   5.132  -0.010
 9706TIP3    H229083   1.155   5.271   0.050
 9707TIP3   OH229084   3.519   1.395   3.219
 9707TIP3    H129085   3.487   1.478   3.183
 9707TIP3    H229086   3.612   1.394   3.198
 9708TIP3   OH229087   4.235   0.342   3.264
 9708TIP3    H129088   4.142   0.356   3.252
 9708TIP3    H229089   4.276   0.423   3.233
 9709TIP3   OH229090   0.602   6.431   5.081
 9709TIP3    H129091   0.648   6.502   5.037
 9709TIP3    H229092   0.586   6.367   5.012
 9710TIP3   OH229093   1.287   5.804   3.344
 9710TIP3    H129094   1.299   5.792   3.250
 9710TIP3    H229095   1.255   5.719   3.375
 9711TIP3   OH229096   0.495   3.109   0.076
 9711TIP3    H129097   0.579   3.069   0.051
 9711TIP3    H229098   0.443   3.107  -0.004
 9712TIP3   OH229099   2.775   5.016   0.458
 9712TIP3    H129100   2.829   4.990   0.384
 9712TIP3    H229101   2.739   4.933   0.492
 9713TIP3   OH229102   1.297   0.932   2.475
 9713TIP3    H129103   1.304   0.864   2.542
 9713TIP3    H229104   1.386   0.938   2.439
 9714TIP3   OH229105   6.629   0.786   4.485
 9714TIP3    H129106   6.541   0.792   4.447
 9714TIP3    H229107   6.669   0.712   4.440
 9715TIP3   OH229108   0.711   3.143   0.577
 9715TIP3    H129109   0.640   3.139   0.513
 9715TIP3    H229110   0.700   3.064   0.630
 9716TIP3   OH229111   1.118   3.302   4.656
 9716TIP3    H129112   1.113   3.294   4.561
 9716TIP3    H229113   1.049   3.364   4.679
 9717TIP3   OH229114   5.502   6.066   2.363
 9717TIP3    H129115   5.562   6.140   2.350
 9717TIP3    H229116   5.421   6.093   2.322
 9718TIP3   OH229117   3.309   2.893   3.865
 9718TIP3    H129118   3.224   2.850   3.854
 9718TIP3    H229119   3.362   2.862   3.792
 9719TIP3   OH229120   2.079   0.980   5.512
 9719TIP3    H129121   2.117   0.923   5.445
 9719TIP3    H229122   2.130   1.061   5.506
 9720TIP3   OH229123   1.096   0.535   5.018
 9720TIP3    H129124   1.036   0.575   5.081
 9720TIP3    H229125   1.096   0.595   4.943
 9721TIP3   OH229126   4.014   5.071   1.415
 9721TIP3    H129127   4.022   5.050   1.322
 9721TIP3    H229128   4.074   5.144   1.428
 9722TIP3   OH229129   5.169   5.336   5.058
 9722TIP3    H129130   5.194   5.247   5.032
 9722TIP3    H229131   5.165   5.385   4.976
 9723TIP3   OH229132   1.658   1.805   4.491
 9723TIP3    H129133   1.743   1.797   4.449
 9723TIP3    H229134   1.643   1.718   4.530
 9724TIP3   OH229135   0.192   2.818   4.207
 9724TIP3    H129136   0.174   2.803   4.115
 9724TIP3    H229137   0.113   2.787   4.252
 9725TIP3   OH229138   5.065   6.640   2.453
 9725TIP3    H129139   5.049   6.719   2.401
 9725TIP3    H229140   4.984   6.625   2.500
 9726TIP3   OH229141   5.094   0.708   1.584
 9726TIP3    H129142   5.141   0.652   1.521
 9726TIP3    H229143   5.157   0.723   1.654
 9727TIP3   OH229144   1.992   3.044   2.771
 9727TIP3    H129145   2.036   3.101   2.834
 9727TIP3    H229146   2.008   2.955   2.803
 9728TIP3   OH229147   2.232   0.353   0.899
 9728TIP3    H129148   2.231   0.312   0.812
 9728TIP3    H229149   2.258   0.443   0.883
 9729TIP3   OH229150   3.341   4.509   5.368
 9729TIP3    H129151   3.413   4.543   5.315
 9729TIP3    H229152   3.383   4.466   5.442
 9730TIP3   OH229153   3.658   4.858   3.336
 9730TIP3    H129154   3.604   4.933   3.360
 9730TIP3    H229155   3.693   4.879   3.250
 9731TIP3   OH229156   0.354   0.415   2.942
 9731TIP3    H129157   0.301   0.384   2.868
 9731TIP3    H229158   0.290   0.434   3.011
 9732TIP3   OH229159   1.579   6.577   3.636
 9732TIP3    H129160   1.607   6.543   3.551
 9732TIP3    H229161   1.624   6.521   3.700
 9733TIP3   OH229162   6.855   0.689   3.015
 9733TIP3    H129163   6.763   0.661   3.018
 9733TIP3    H229164   6.904   0.611   2.991
 9734TIP3   OH229165   7.113   2.097   3.819
 9734TIP3    H129166   7.059   2.103   3.898
 9734TIP3    H229167   7.200   2.074   3.851
 9735TIP3   OH229168   7.055   4.968   1.111
 9735TIP3    H129169   7.097   4.942   1.029
 9735TIP3    H229170   7.094   5.054   1.131
 9736TIP3   OH229171   5.104   2.886   3.418
 9736TIP3    H129172   5.158   2.807   3.408
 9736TIP3    H229173   5.014   2.854   3.416
 9737TIP3   OH229174   5.385   3.158   3.495
 9737TIP3    H129175   5.300   3.198   3.512
 9737TIP3    H229176   5.445   3.204   3.553
 9738TIP3   OH229177   3.681   5.969   1.480
 9738TIP3    H129178   3.612   5.903   1.476
 9738TIP3    H229179   3.750   5.928   1.532
 9739TIP3   OH229180   0.601   4.293   2.062
 9739TIP3    H129181   0.538   4.305   1.991
 9739TIP3    H229182   0.639   4.207   2.045
 9740TIP3   OH229183   5.353   6.224   4.084
 9740TIP3    H129184   5.358   6.212   4.179
 9740TIP3    H229185   5.424   6.170   4.049
 9741TIP3   OH229186   5.465   2.687   3.468
 9741TIP3    H129187   5.539   2.632   3.440
 9741TIP3    H229188   5.503   2.749   3.531
 9742TIP3   OH229189   2.472   2.929   2.035
 9742TIP3    H129190   2.437   2.864   2.097
 9742TIP3    H229191   2.432   3.011   2.062
 9743TIP3   OH229192   3.265   2.188   1.853
 9743TIP3    H129193   3.193   2.127   1.841
 9743TIP3    H229194   3.324   2.170   1.780
 9744TIP3   OH229195   5.048   1.548   1.549
 9744TIP3    H129196   5.050   1.498   1.468
 9744TIP3    H229197   4.960   1.586   1.552
 9745TIP3   OH229198   2.216   6.460   5.644
 9745TIP3    H129199   2.270   6.455   5.723
 9745TIP3    H229200   2.262   6.521   5.587
 9746TIP3   OH229201   6.588   4.861   1.880
 9746TIP3    H129202   6.500   4.842   1.850
 9746TIP3    H229203   6.618   4.780   1.920
 9747TIP3   OH229204   6.035   2.886   2.312
 9747TIP3    H129205   5.978   2.947   2.359
 9747TIP3    H229206   6.060   2.821   2.378
 9748TIP3   OH229207   0.713   1.581   0.015
 9748TIP3    H129208   0.776   1.510   0.025
 9748TIP3    H229209   0.766   1.659   0.004
 9749TIP3   OH229210   1.780   6.319   1.107
 9749TIP3    H129211   1.796   6.301   1.014
 9749TIP3    H229212   1.761   6.234   1.145
   7.21636   6.80365   5.89213   0.00000   0.00000  -2.40546   0.00000  -2.40546  -3.40182
