Generated by CHARMM-GUI FF-Converter
34384
    1SER      N    1   5.582   4.381   3.476
    1SER    HT1    2   5.645   4.300   3.491
    1SER    HT2    3   5.631   4.473   3.492
    1SER    HT3    4   5.556   4.378   3.375
    1SER     CA    5   5.456   4.373   3.549
    1SER     HA    6   5.478   4.386   3.652
    1SER     CB    7   5.362   4.486   3.506
    1SER    HB1    8   5.414   4.585   3.507
    1SER    HB2    9   5.278   4.494   3.578
    1SER     OG   10   5.310   4.462   3.376
    1SER    HG1   11   5.226   4.413   3.382
    1SER      C   12   5.388   4.239   3.527
    1SER      O   13   5.401   4.178   3.420
    2GLY      N   14   5.353   4.156   3.633
    2GLY     HN   15   5.358   4.194   3.726
    2GLY     CA   16   5.283   4.029   3.626
    2GLY    HA1   17   5.261   3.997   3.727
    2GLY    HA2   18   5.347   3.960   3.572
    2GLY      C   19   5.151   4.037   3.552
    2GLY      O   20   5.102   4.146   3.524
    3ASP      N   21   5.111   3.941   3.504
    3ASP     HN   22   5.160   3.855   3.504
    3ASP     CA   23   4.978   3.936   3.444
    3ASP     HA   24   4.981   3.997   3.355
    3ASP     CB   25   4.942   3.792   3.408
    3ASP    HB1   26   4.840   3.786   3.364
    3ASP    HB2   27   4.944   3.728   3.499
    3ASP     CG   28   5.037   3.730   3.306
    3ASP    OD1   29   5.098   3.805   3.227
    3ASP    OD2   30   5.050   3.606   3.306
    3ASP      C   31   4.873   3.995   3.538
    3ASP      O   32   4.889   3.990   3.660
    4SER      N   33   4.774   4.040   3.474
    4SER     HN   34   4.771   4.046   3.374
    4SER     CA   35   4.660   4.081   3.555
    4SER     HA   36   4.691   4.159   3.622
    4SER     CB   37   4.548   4.135   3.466
    4SER    HB1   38   4.460   4.167   3.526
    4SER    HB2   39   4.514   4.054   3.397
    4SER     OG   40   4.594   4.244   3.388
    4SER    HG1   41   4.627   4.312   3.449
    4SER      C   42   4.607   3.965   3.639
    4SER      O   43   4.620   3.848   3.600
    5GLY      N   44   4.574   3.991   3.772
    5GLY     HN   45   4.572   4.085   3.805
    5GLY     CA   46   4.510   3.891   3.856
    5GLY    HA1   47   4.485   3.938   3.949
    5GLY    HA2   48   4.581   3.810   3.864
    5GLY      C   49   4.381   3.837   3.795
    5GLY      O   50   4.335   3.886   3.692
    6PRO      N   51   4.327   3.738   3.854
    6PRO     CD   52   4.373   3.684   3.970
    6PRO    HD1   53   4.379   3.762   4.050
    6PRO    HD2   54   4.474   3.638   3.955
    6PRO     CA   55   4.194   3.692   3.812
    6PRO     HA   56   4.196   3.669   3.707
    6PRO     CB   57   4.170   3.570   3.901
    6PRO    HB1   58   4.191   3.478   3.842
    6PRO    HB2   59   4.066   3.562   3.940
    6PRO     CG   60   4.272   3.581   4.010
    6PRO    HG1   61   4.221   3.617   4.103
    6PRO    HG2   62   4.320   3.483   4.034
    6PRO      C   63   4.086   3.797   3.834
    6PRO      O   64   4.104   3.890   3.913
    7GLY      N   65   3.980   3.784   3.758
    7GLY     HN   66   3.973   3.711   3.692
    7GLY     CA   67   3.870   3.878   3.775
    7GLY    HA1   68   3.797   3.857   3.698
    7GLY    HA2   69   3.907   3.979   3.769
    7GLY      C   70   3.798   3.862   3.907
    7GLY      O   71   3.814   3.762   3.977
    8ASP      N   72   3.723   3.967   3.949
    8ASP     HN   73   3.719   4.050   3.894
    8ASP     CA   74   3.637   3.965   4.067
    8ASP     HA   75   3.703   3.946   4.150
    8ASP     CB   76   3.567   4.100   4.085
    8ASP    HB1   77   3.491   4.094   4.166
    8ASP    HB2   78   3.515   4.127   3.991
    8ASP     CG   79   3.662   4.211   4.122
    8ASP    OD1   80   3.778   4.183   4.161
    8ASP    OD2   81   3.622   4.329   4.113
    8ASP      C   82   3.533   3.853   4.057
    8ASP      O   83   3.492   3.816   3.947
    9PRO      N   84   3.486   3.801   4.166
    9PRO     CD   85   3.538   3.824   4.294
    9PRO    HD1   86   3.504   3.924   4.328
    9PRO    HD2   87   3.649   3.815   4.298
    9PRO     CA   88   3.373   3.708   4.159
    9PRO     HA   89   3.400   3.625   4.095
    9PRO     CB   90   3.351   3.668   4.305
    9PRO    HB1   91   3.336   3.558   4.314
    9PRO    HB2   92   3.263   3.719   4.348
    9PRO     CG   93   3.474   3.715   4.376
    9PRO    HG1   94   3.451   3.748   4.480
    9PRO    HG2   95   3.546   3.630   4.382
    9PRO      C   96   3.248   3.773   4.101
    9PRO      O   97   3.232   3.895   4.107
   10GLY      N   98   3.161   3.699   4.017
   10GLY     HN   99   3.183   3.604   3.997
   10GLY     CA  100   3.035   3.750   3.965
   10GLY    HA1  101   2.987   3.671   3.909
   10GLY    HA2  102   3.057   3.837   3.905
   10GLY      C  103   2.938   3.793   4.074
   10GLY      O  104   2.956   3.758   4.191
   11ASP      N  105   2.831   3.872   4.053
   11ASP     HN  106   2.822   3.915   3.964
   11ASP     CA  107   2.725   3.914   4.144
   11ASP     HA  108   2.772   3.963   4.228
   11ASP     CB  109   2.631   4.013   4.074
   11ASP    HB1  110   2.543   4.038   4.138
   11ASP    HB2  111   2.592   3.967   3.979
   11ASP     CG  112   2.698   4.144   4.037
   11ASP    OD1  113   2.803   4.177   4.097
   11ASP    OD2  114   2.645   4.215   3.949
   11ASP      C  115   2.646   3.795   4.196
   11ASP      O  116   2.623   3.698   4.123
   12SER      N  117   2.623   3.777   4.315
   12SER     HN  118   2.648   3.848   4.380
   12SER     CA  119   2.541   3.671   4.373
   12SER     HA  120   2.587   3.577   4.347
   12SER     CB  121   2.533   3.686   4.524
   12SER    HB1  122   2.636   3.686   4.567
   12SER    HB2  123   2.478   3.601   4.570
   12SER     OG  124   2.470   3.808   4.559
   12SER    HG1  125   2.396   3.818   4.497
   12SER      C  126   2.401   3.670   4.313
   12SER      O  127   2.348   3.775   4.276
   13GLY      N  128   2.339   3.564   4.234
   13GLY     HN  129   2.391   3.480   4.231
   13GLY     CA  130   2.208   3.548   4.173
   13GLY    HA1  131   2.194   3.444   4.150
   13GLY    HA2  132   2.205   3.613   4.087
   13GLY      C  133   2.095   3.592   4.264
   13GLY    OT1  134   2.124   3.635   4.379
   13GLY    OT2  135   1.977   3.582   4.220
   14LIT    LIT  136   1.393   5.700   2.922
   15LIT    LIT  137   0.404   4.192   4.043
   16LIT    LIT  138   5.689   1.962   7.132
   17LIT    LIT  139   4.205   4.345   3.918
   18LIT    LIT  140   1.267   2.216   4.010
   19LIT    LIT  141   6.618   1.862   1.137
   20LIT    LIT  142   1.977   1.712   3.152
   21LIT    LIT  143   0.174   4.682   1.957
   22LIT    LIT  144   1.372   1.737   2.740
   23LIT    LIT  145   3.265   5.412   7.666
   24LIT    LIT  146   5.711   1.702   5.814
   25LIT    LIT  147   5.150   3.961   5.247
   26LIT    LIT  148   6.857   3.782   7.208
   27LIT    LIT  149  -0.040   3.523   2.674
   28LIT    LIT  150   5.457   6.943   1.412
   29LIT    LIT  151   1.807   3.637   5.169
   30LIT    LIT  152   2.337   7.898   5.727
   31LIT    LIT  153   3.841   0.869   4.484
   32LIT    LIT  154   2.064   1.083   2.361
   33LIT    LIT  155   2.582   2.170   6.699
   34LIT    LIT  156   4.189   0.341   1.688
   35LIT    LIT  157   2.609   5.712   2.365
   36LIT    LIT  158   4.576   1.100   2.300
   37LIT    LIT  159   7.289   3.819   2.543
   38LIT    LIT  160   6.110   5.236   2.551
   39LIT    LIT  161   3.940   1.296   2.094
   40LIT    LIT  162   5.204   6.578   5.547
   41LIT    LIT  163   6.581   5.845   5.362
   42LIT    LIT  164   2.783   0.532   3.453
   43LIT    LIT  165   0.816   7.187   3.482
   44LIT    LIT  166   2.095   0.383   4.930
   45LIT    LIT  167   3.321   5.110   4.205
   46LIT    LIT  168   3.416   7.482   6.543
   47LIT    LIT  169   2.205   4.507   4.007
   48LIT    LIT  170   5.028   1.049   0.707
   49CLA    CLA  171   0.234   4.539   4.082
   50CLA    CLA  172   1.085   2.291   2.310
   51CLA    CLA  173   2.925   3.128   3.617
   52CLA    CLA  174   2.266   7.391   6.025
   53CLA    CLA  175   4.643   1.455   4.324
   54CLA    CLA  176   4.232   5.152   6.336
   55CLA    CLA  177   6.200   5.604   4.429
   56CLA    CLA  178   7.001   4.947   1.275
   57CLA    CLA  179   6.088   0.711   4.110
   58CLA    CLA  180   5.800   4.147   5.719
   59CLA    CLA  181   3.424   4.268   5.564
   60CLA    CLA  182   4.158   0.925   2.732
   61CLA    CLA  183   7.392   5.729   5.017
   62CLA    CLA  184   1.976   0.386   4.123
   63CLA    CLA  185   2.266   4.532   3.141
   64CLA    CLA  186   0.378   3.744   5.327
   65CLA    CLA  187   5.024   6.851   5.658
   66CLA    CLA  188   3.685   4.981   3.333
   67CLA    CLA  189   1.681   1.368   2.653
   68CLA    CLA  190   7.895   3.461   4.922
   69CLA    CLA  191   5.407   5.550   7.280
   70CLA    CLA  192   0.854   2.390   3.754
   71CLA    CLA  193   2.471   2.262   0.362
   72CLA    CLA  194   4.898   1.304   0.901
   73CLA    CLA  195   0.626   5.243   1.476
   74CLA    CLA  196   1.944   1.357   3.298
   75CLA    CLA  197   1.923   0.292   5.357
   76CLA    CLA  198   5.226   5.428   0.563
   77CLA    CLA  199   3.974  -0.157   1.649
   78CLA    CLA  200   5.637   7.166   5.469
   79CLA    CLA  201   3.970   0.904   1.651
   80CLA    CLA  202   1.398   2.387   3.956
   81TIP3   OH2  203   3.401  -0.524   2.156
   81TIP3    H1  204   3.385  -0.484   2.069
   81TIP3    H2  205   3.458  -0.459   2.200
   82TIP3   OH2  206   3.080   0.185   2.043
   82TIP3    H1  207   3.069   0.118   1.975
   82TIP3    H2  208   3.054   0.266   1.993
   83TIP3   OH2  209   3.314  -0.219   1.892
   83TIP3    H1  210   3.256  -0.143   1.904
   83TIP3    H2  211   3.353  -0.200   1.805
   84TIP3   OH2  212   3.317   0.528   2.100
   84TIP3    H1  213   3.318   0.433   2.119
   84TIP3    H2  214   3.234   0.554   2.146
   85TIP3   OH2  215   2.397   0.319   2.254
   85TIP3    H1  216   2.409   0.413   2.284
   85TIP3    H2  217   2.442   0.270   2.325
   86TIP3   OH2  218   3.205  -0.329   2.395
   86TIP3    H1  219   3.126  -0.327   2.340
   86TIP3    H2  220   3.226  -0.425   2.395
   87TIP3   OH2  221   3.012   0.875   2.201
   87TIP3    H1  222   3.008   0.899   2.106
   87TIP3    H2  223   3.092   0.924   2.228
   88TIP3   OH2  224   2.718   0.297   2.162
   88TIP3    H1  225   2.624   0.301   2.137
   88TIP3    H2  226   2.724   0.363   2.234
   89TIP3   OH2  227   3.324   0.242   2.155
   89TIP3    H1  228   3.228   0.235   2.136
   89TIP3    H2  229   3.360   0.215   2.067
   90TIP3   OH2  230   2.851   0.570   2.038
   90TIP3    H1  231   2.768   0.523   2.015
   90TIP3    H2  232   2.843   0.643   1.973
   91TIP3   OH2  233   2.882   0.569   1.671
   91TIP3    H1  234   2.856   0.586   1.578
   91TIP3    H2  235   2.978   0.557   1.655
   92TIP3   OH2  236   2.141   0.538   2.638
   92TIP3    H1  237   2.231   0.505   2.652
   92TIP3    H2  238   2.105   0.470   2.581
   93TIP3   OH2  239   2.746   0.442   2.397
   93TIP3    H1  240   2.744   0.369   2.463
   93TIP3    H2  241   2.828   0.490   2.421
   94TIP3   OH2  242   2.893   0.103   2.240
   94TIP3    H1  243   2.964   0.149   2.192
   94TIP3    H2  244   2.818   0.165   2.221
   95TIP3   OH2  245   2.743  -0.004   2.601
   95TIP3    H1  246   2.801  -0.035   2.531
   95TIP3    H2  247   2.748  -0.076   2.666
   96TIP3   OH2  248   2.972  -0.320   2.640
   96TIP3    H1  249   2.988  -0.411   2.608
   96TIP3    H2  250   3.022  -0.267   2.575
   97TIP3   OH2  251   3.005  -0.081   2.400
   97TIP3    H1  252   2.949  -0.017   2.350
   97TIP3    H2  253   3.089  -0.070   2.351
   98TIP3   OH2  254   3.148   0.590   1.610
   98TIP3    H1  255   3.167   0.651   1.684
   98TIP3    H2  256   3.156   0.650   1.534
   99TIP3   OH2  257   3.147   0.652   1.886
   99TIP3    H1  258   3.101   0.568   1.868
   99TIP3    H2  259   3.225   0.620   1.934
  100TIP3   OH2  260   3.192   0.324   2.448
  100TIP3    H1  261   3.120   0.335   2.513
  100TIP3    H2  262   3.235   0.412   2.450
  101TIP3   OH2  263   3.269   0.074   1.716
  101TIP3    H1  264   3.275   0.039   1.626
  101TIP3    H2  265   3.282   0.170   1.700
  102TIP3   OH2  266   3.007   0.402   1.892
  102TIP3    H1  267   2.953   0.458   1.952
  102TIP3    H2  268   2.940   0.385   1.822
  103TIP3   OH2  269   3.236  -0.011   2.262
  103TIP3    H1  270   3.311  -0.074   2.255
  103TIP3    H2  271   3.268   0.065   2.210
  104TIP3   OH2  272   3.423  -0.201   2.300
  104TIP3    H1  273   3.345  -0.249   2.335
  104TIP3    H2  274   3.494  -0.266   2.319
  105TIP3   OH2  275   2.432   0.578   2.324
  105TIP3    H1  276   2.469   0.592   2.413
  105TIP3    H2  277   2.490   0.633   2.269
  106TIP3   OH2  278   2.606   0.729   2.177
  106TIP3    H1  279   2.672   0.681   2.123
  106TIP3    H2  280   2.664   0.783   2.235
  107TIP3   OH2  281   2.616   0.557   1.910
  107TIP3    H1  282   2.538   0.498   1.909
  107TIP3    H2  283   2.588   0.636   1.862
  108TIP3   OH2  284   2.820   0.764   1.845
  108TIP3    H1  285   2.793   0.837   1.785
  108TIP3    H2  286   2.834   0.690   1.780
  109TIP3   OH2  287   3.070   0.605   2.203
  109TIP3    H1  288   2.993   0.578   2.149
  109TIP3    H2  289   3.054   0.702   2.206
  110TIP3   OH2  290   4.268  -0.010   1.422
  110TIP3    H1  291   4.353  -0.051   1.443
  110TIP3    H2  292   4.203  -0.069   1.461
  111TIP3   OH2  293   3.660  -0.123   1.707
  111TIP3    H1  294   3.652  -0.175   1.789
  111TIP3    H2  295   3.758  -0.112   1.703
  112TIP3   OH2  296   3.598   0.278   1.416
  112TIP3    H1  297   3.597   0.181   1.430
  112TIP3    H2  298   3.694   0.294   1.410
  113TIP3   OH2  299   4.231   0.741   1.035
  113TIP3    H1  300   4.285   0.663   1.010
  113TIP3    H2  301   4.204   0.722   1.125
  114TIP3   OH2  302   4.115   0.221   1.362
  114TIP3    H1  303   4.110   0.131   1.323
  114TIP3    H2  304   4.211   0.229   1.366
  115TIP3   OH2  305   4.053   0.219   1.648
  115TIP3    H1  306   3.960   0.224   1.679
  115TIP3    H2  307   4.036   0.170   1.565
  116TIP3   OH2  308   3.807   0.322   1.721
  116TIP3    H1  309   3.789   0.410   1.683
  116TIP3    H2  310   3.726   0.313   1.776
  117TIP3   OH2  311   4.656   0.539   1.214
  117TIP3    H1  312   4.563   0.511   1.227
  117TIP3    H2  313   4.645   0.619   1.159
  118TIP3   OH2  314   4.380   0.556   0.885
  118TIP3    H1  315   4.419   0.493   0.821
  118TIP3    H2  316   4.420   0.638   0.848
  119TIP3   OH2  317   4.868   0.443   1.550
  119TIP3    H1  318   4.864   0.372   1.481
  119TIP3    H2  319   4.854   0.523   1.496
  120TIP3   OH2  320   4.757  -0.052   1.718
  120TIP3    H1  321   4.761   0.040   1.748
  120TIP3    H2  322   4.667  -0.054   1.678
  121TIP3   OH2  323   3.857   0.319   1.337
  121TIP3    H1  324   3.839   0.307   1.241
  121TIP3    H2  325   3.951   0.292   1.345
  122TIP3   OH2  326   4.403   0.514   1.328
  122TIP3    H1  327   4.387   0.609   1.342
  122TIP3    H2  328   4.443   0.489   1.412
  123TIP3   OH2  329   4.011   0.421   1.866
  123TIP3    H1  330   3.956   0.489   1.911
  123TIP3    H2  331   3.941   0.377   1.813
  124TIP3   OH2  332   3.789   0.001   1.978
  124TIP3    H1  333   3.781   0.088   2.023
  124TIP3    H2  334   3.696  -0.025   1.971
  125TIP3   OH2  335   4.074   0.482   0.861
  125TIP3    H1  336   4.155   0.523   0.890
  125TIP3    H2  337   4.025   0.555   0.821
  126TIP3   OH2  338   3.825   0.607   1.959
  126TIP3    H1  339   3.796   0.618   1.866
  126TIP3    H2  340   3.741   0.583   2.004
  127TIP3   OH2  341   3.419   0.148   1.926
  127TIP3    H1  342   3.368   0.117   1.848
  127TIP3    H2  343   3.458   0.064   1.958
  128TIP3   OH2  344   3.328   0.334   1.661
  128TIP3    H1  345   3.351   0.316   1.569
  128TIP3    H2  346   3.263   0.405   1.651
  129TIP3   OH2  347   5.107   0.788   1.585
  129TIP3    H1  348   5.110   0.693   1.606
  129TIP3    H2  349   5.025   0.814   1.633
  130TIP3   OH2  350   4.199   0.534   1.720
  130TIP3    H1  351   4.232   0.624   1.747
  130TIP3    H2  352   4.122   0.530   1.781
  131TIP3   OH2  353   3.982   0.701   0.678
  131TIP3    H1  354   3.909   0.687   0.616
  131TIP3    H2  355   3.961   0.790   0.714
  132TIP3   OH2  356   3.425   0.580   1.035
  132TIP3    H1  357   3.466   0.565   1.123
  132TIP3    H2  358   3.374   0.498   1.025
  133TIP3   OH2  359   4.230   0.649   0.578
  133TIP3    H1  360   4.139   0.664   0.613
  133TIP3    H2  361   4.260   0.578   0.637
  134TIP3   OH2  362   5.001  -0.086   1.890
  134TIP3    H1  363   4.928  -0.052   1.834
  134TIP3    H2  364   5.001  -0.180   1.865
  135TIP3   OH2  365   3.606   0.343   1.903
  135TIP3    H1  366   3.660   0.311   1.978
  135TIP3    H2  367   3.532   0.278   1.902
  136TIP3   OH2  368   4.761  -0.300   1.834
  136TIP3    H1  369   4.776  -0.283   1.929
  136TIP3    H2  370   4.735  -0.212   1.802
  137TIP3   OH2  371   4.486  -0.087   2.007
  137TIP3    H1  372   4.455  -0.147   2.079
  137TIP3    H2  373   4.577  -0.068   2.038
  138TIP3   OH2  374   3.707  -0.292   1.921
  138TIP3    H1  375   3.793  -0.253   1.942
  138TIP3    H2  376   3.733  -0.385   1.906
  139TIP3   OH2  377   4.493  -0.085   1.640
  139TIP3    H1  378   4.451  -0.168   1.670
  139TIP3    H2  379   4.445  -0.022   1.698
  140TIP3   OH2  380   4.805   1.138   1.680
  140TIP3    H1  381   4.804   1.158   1.584
  140TIP3    H2  382   4.890   1.180   1.706
  141TIP3   OH2  383   3.764   0.245   2.112
  141TIP3    H1  384   3.844   0.274   2.161
  141TIP3    H2  385   3.699   0.241   2.185
  142TIP3   OH2  386   4.197  -0.378   1.658
  142TIP3    H1  387   4.121  -0.322   1.634
  142TIP3    H2  388   4.251  -0.317   1.712
  143TIP3   OH2  389   4.854   0.254   1.357
  143TIP3    H1  390   4.832   0.266   1.264
  143TIP3    H2  391   4.831   0.159   1.369
  144TIP3   OH2  392   3.623  -0.006   1.414
  144TIP3    H1  393   3.706  -0.037   1.375
  144TIP3    H2  394   3.626  -0.048   1.502
  145TIP3   OH2  395   3.513  -0.069   2.048
  145TIP3    H1  396   3.545  -0.089   2.138
  145TIP3    H2  397   3.477  -0.155   2.021
  146TIP3   OH2  398   4.233   0.038   2.052
  146TIP3    H1  399   4.167  -0.018   2.008
  146TIP3    H2  400   4.316   0.005   2.011
  147TIP3   OH2  401   4.481   0.533   1.649
  147TIP3    H1  402   4.399   0.583   1.651
  147TIP3    H2  403   4.529   0.578   1.723
  148TIP3   OH2  404   5.114   0.499   1.667
  148TIP3    H1  405   5.016   0.495   1.666
  148TIP3    H2  406   5.132   0.477   1.572
  149TIP3   OH2  407   3.756   0.329   1.069
  149TIP3    H1  408   3.754   0.416   1.024
  149TIP3    H2  409   3.675   0.291   1.029
  150TIP3   OH2  410   3.930   0.118   1.021
  150TIP3    H1  411   3.882   0.201   1.040
  150TIP3    H2  412   3.856   0.057   1.001
  151TIP3   OH2  413   3.992   0.642   1.506
  151TIP3    H1  414   3.979   0.737   1.531
  151TIP3    H2  415   4.072   0.624   1.557
  152TIP3   OH2  416   3.670   0.558   0.906
  152TIP3    H1  417   3.584   0.578   0.949
  152TIP3    H2  418   3.708   0.649   0.902
  153TIP3   OH2  419   4.632   0.820   1.518
  153TIP3    H1  420   4.547   0.777   1.497
  153TIP3    H2  421   4.632   0.891   1.450
  154TIP3   OH2  422   3.485   0.559   1.689
  154TIP3    H1  423   3.453   0.468   1.696
  154TIP3    H2  424   3.526   0.572   1.775
  155TIP3   OH2  425   4.377  -0.256   1.817
  155TIP3    H1  426   4.418  -0.202   1.887
  155TIP3    H2  427   4.395  -0.347   1.850
  156TIP3   OH2  428   4.667   0.799   1.116
  156TIP3    H1  429   4.619   0.847   1.044
  156TIP3    H2  430   4.759   0.823   1.092
  157TIP3   OH2  431   3.432   0.826   2.096
  157TIP3    H1  432   3.520   0.819   2.138
  157TIP3    H2  433   3.406   0.732   2.092
  158TIP3   OH2  434   3.942   0.796   2.131
  158TIP3    H1  435   4.022   0.740   2.136
  158TIP3    H2  436   3.894   0.746   2.062
  159TIP3   OH2  437   4.567   0.678   1.865
  159TIP3    H1  438   4.548   0.621   1.942
  159TIP3    H2  439   4.633   0.741   1.901
  160TIP3   OH2  440   3.562   0.226   2.299
  160TIP3    H1  441   3.574   0.130   2.305
  160TIP3    H2  442   3.472   0.232   2.258
  161TIP3   OH2  443   4.167   0.316   2.072
  161TIP3    H1  444   4.113   0.329   1.991
  161TIP3    H2  445   4.198   0.223   2.063
  162TIP3   OH2  446   4.661   0.326   1.684
  162TIP3    H1  447   4.739   0.363   1.638
  162TIP3    H2  448   4.595   0.395   1.663
  163TIP3   OH2  449   3.694  -0.040   2.281
  163TIP3    H1  450   3.777  -0.077   2.248
  163TIP3    H2  451   3.722  -0.005   2.368
  164TIP3   OH2  452   4.019  -0.132   1.947
  164TIP3    H1  453   3.939  -0.075   1.958
  164TIP3    H2  454   4.009  -0.152   1.851
  165TIP3   OH2  455   4.543   0.256   2.081
  165TIP3    H1  456   4.616   0.219   2.030
  165TIP3    H2  457   4.526   0.186   2.146
  166TIP3   OH2  458   4.144  -0.347   2.043
  166TIP3    H1  459   4.155  -0.393   1.959
  166TIP3    H2  460   4.095  -0.267   2.012
  167TIP3   OH2  461   4.230   0.015   1.736
  167TIP3    H1  462   4.192  -0.073   1.719
  167TIP3    H2  463   4.151   0.068   1.719
  168TIP3   OH2  464   4.739  -0.063   2.114
  168TIP3    H1  465   4.774  -0.154   2.121
  168TIP3    H2  466   4.815  -0.015   2.081
  169TIP3   OH2  467   4.789   0.182   1.868
  169TIP3    H1  468   4.729   0.236   1.810
  169TIP3    H2  469   4.875   0.207   1.828
  170TIP3   OH2  470   3.982  -0.241   2.297
  170TIP3    H1  471   4.011  -0.331   2.321
  170TIP3    H2  472   4.023  -0.233   2.209
  171TIP3   OH2  473   4.374  -0.268   2.175
  171TIP3    H1  474   4.396  -0.346   2.228
  171TIP3    H2  475   4.292  -0.298   2.131
  172TIP3   OH2  476   3.243   0.511   1.283
  172TIP3    H1  477   3.224   0.445   1.352
  172TIP3    H2  478   3.292   0.579   1.335
  173TIP3   OH2  479   4.914   0.927   1.087
  173TIP3    H1  480   4.931   0.921   1.183
  173TIP3    H2  481   4.938   1.020   1.071
  174TIP3   OH2  482   4.941   0.904   1.360
  174TIP3    H1  483   4.902   0.814   1.362
  174TIP3    H2  484   5.022   0.886   1.411
  175TIP3   OH2  485   4.984   0.582   1.937
  175TIP3    H1  486   4.911   0.598   2.001
  175TIP3    H2  487   5.028   0.669   1.937
  176TIP3   OH2  488   4.822   0.660   1.390
  176TIP3    H1  489   4.747   0.706   1.433
  176TIP3    H2  490   4.774   0.611   1.318
  177TIP3   OH2  491   5.031   0.246   1.769
  177TIP3    H1  492   5.100   0.176   1.760
  177TIP3    H2  493   5.064   0.316   1.709
  178TIP3   OH2  494   5.220   0.054   1.793
  178TIP3    H1  495   5.165  -0.015   1.834
  178TIP3    H2  496   5.311   0.029   1.813
  179TIP3   OH2  497   3.593  -0.410   2.331
  179TIP3    H1  498   3.682  -0.396   2.297
  179TIP3    H2  499   3.596  -0.506   2.354
  180TIP3   OH2  500   4.499   0.753   0.741
  180TIP3    H1  501   4.540   0.730   0.657
  180TIP3    H2  502   4.556   0.823   0.775
  181TIP3   OH2  503   3.597   0.570   2.127
  181TIP3    H1  504   3.510   0.536   2.097
  181TIP3    H2  505   3.602   0.532   2.216
  182TIP3   OH2  506   3.782   0.593   1.680
  182TIP3    H1  507   3.709   0.648   1.648
  182TIP3    H2  508   3.855   0.625   1.623
  183TIP3   OH2  509   4.274   0.779   1.799
  183TIP3    H1  510   4.257   0.826   1.883
  183TIP3    H2  511   4.283   0.856   1.739
  184TIP3   OH2  512   4.398   0.994   1.663
  184TIP3    H1  513   4.465   0.939   1.620
  184TIP3    H2  514   4.452   1.046   1.724
  185TIP3   OH2  515   3.457   0.865   1.707
  185TIP3    H1  516   3.379   0.889   1.653
  185TIP3    H2  517   3.418   0.870   1.795
  186TIP3   OH2  518   4.136   0.871   1.316
  186TIP3    H1  519   4.051   0.872   1.269
  186TIP3    H2  520   4.121   0.940   1.383
  187TIP3   OH2  521   4.385   0.782   1.393
  187TIP3    H1  522   4.291   0.805   1.377
  187TIP3    H2  523   4.429   0.857   1.349
  188TIP3   OH2  524   4.592   0.983   1.308
  188TIP3    H1  525   4.575   1.067   1.261
  188TIP3    H2  526   4.619   0.924   1.234
  189TIP3   OH2  527   3.391   0.670   1.450
  189TIP3    H1  528   3.420   0.662   1.544
  189TIP3    H2  529   3.466   0.625   1.405
  190TIP3   OH2  530   3.564   0.530   1.295
  190TIP3    H1  531   3.583   0.447   1.344
  190TIP3    H2  532   3.654   0.567   1.285
  191TIP3   OH2  533   3.832   0.606   1.289
  191TIP3    H1  534   3.856   0.513   1.276
  191TIP3    H2  535   3.890   0.627   1.366
  192TIP3   OH2  536   4.860   0.865   1.688
  192TIP3    H1  537   4.785   0.833   1.635
  192TIP3    H2  538   4.844   0.962   1.685
  193TIP3   OH2  539   5.820   0.717   1.346
  193TIP3    H1  540   5.744   0.765   1.387
  193TIP3    H2  541   5.774   0.656   1.286
  194TIP3   OH2  542   5.609   0.867   1.442
  194TIP3    H1  543   5.578   0.870   1.349
  194TIP3    H2  544   5.527   0.845   1.491
  195TIP3   OH2  545   5.145   0.436   1.412
  195TIP3    H1  546   5.057   0.433   1.371
  195TIP3    H2  547   5.186   0.355   1.373
  196TIP3   OH2  548   5.035   0.646   0.996
  196TIP3    H1  549   5.092   0.577   1.037
  196TIP3    H2  550   5.018   0.703   1.072
  197TIP3   OH2  551   2.961   6.883   7.125
  197TIP3    H1  552   2.959   6.963   7.180
  197TIP3    H2  553   2.885   6.834   7.158
  198TIP3   OH2  554   5.371   0.618   1.379
  198TIP3    H1  555   5.442   0.588   1.438
  198TIP3    H2  556   5.304   0.548   1.391
  199TIP3   OH2  557   6.607   1.379   1.229
  199TIP3    H1  558   6.578   1.371   1.136
  199TIP3    H2  559   6.688   1.432   1.220
  200TIP3   OH2  560   5.535   0.546   1.596
  200TIP3    H1  561   5.622   0.526   1.633
  200TIP3    H2  562   5.477   0.521   1.669
  201TIP3   OH2  563   5.249   0.751   1.168
  201TIP3    H1  564   5.299   0.696   1.232
  201TIP3    H2  565   5.264   0.840   1.202
  202TIP3   OH2  566   5.229   1.085   1.589
  202TIP3    H1  567   5.317   1.083   1.632
  202TIP3    H2  568   5.213   0.989   1.581
  203TIP3   OH2  569   5.704   1.041   1.633
  203TIP3    H1  570   5.800   1.028   1.631
  203TIP3    H2  571   5.675   0.981   1.562
  204TIP3   OH2  572   6.334   1.008   1.425
  204TIP3    H1  573   6.339   0.933   1.489
  204TIP3    H2  574   6.415   1.059   1.444
  205TIP3   OH2  575   5.350   0.501   1.800
  205TIP3    H1  576   5.373   0.406   1.793
  205TIP3    H2  577   5.260   0.501   1.760
  206TIP3   OH2  578   5.453   0.251   1.770
  206TIP3    H1  579   5.534   0.209   1.737
  206TIP3    H2  580   5.481   0.273   1.861
  207TIP3   OH2  581   5.390   0.837   1.612
  207TIP3    H1  582   5.316   0.788   1.573
  207TIP3    H2  583   5.404   0.790   1.695
  208TIP3   OH2  584   5.580   0.866   1.163
  208TIP3    H1  585   5.548   0.945   1.115
  208TIP3    H2  586   5.611   0.811   1.089
  209TIP3   OH2  587   6.001   1.095   1.287
  209TIP3    H1  588   6.035   1.092   1.379
  209TIP3    H2  589   6.074   1.143   1.242
  210TIP3   OH2  590   6.197   1.241   1.161
  210TIP3    H1  591   6.272   1.182   1.141
  210TIP3    H2  592   6.239   1.303   1.224
  211TIP3   OH2  593   5.248   1.101   1.173
  211TIP3    H1  594   5.156   1.129   1.157
  211TIP3    H2  595   5.265   1.144   1.257
  212TIP3   OH2  596   5.486   1.095   1.035
  212TIP3    H1  597   5.399   1.098   1.080
  212TIP3    H2  598   5.458   1.103   0.942
  213TIP3   OH2  599   1.187   2.020   2.217
  213TIP3    H1  600   1.150   1.971   2.292
  213TIP3    H2  601   1.152   2.110   2.236
  214TIP3   OH2  602   0.825   2.472   2.355
  214TIP3    H1  603   0.819   2.478   2.258
  214TIP3    H2  604   0.905   2.418   2.364
  215TIP3   OH2  605   1.147   1.750   2.287
  215TIP3    H1  606   1.051   1.762   2.311
  215TIP3    H2  607   1.148   1.797   2.203
  216TIP3   OH2  608   0.700   2.196   2.207
  216TIP3    H1  609   0.659   2.116   2.171
  216TIP3    H2  610   0.766   2.218   2.139
  217TIP3   OH2  611   0.578   2.001   2.554
  217TIP3    H1  612   0.591   1.934   2.623
  217TIP3    H2  613   0.665   2.043   2.547
  218TIP3   OH2  614   0.937   2.230   2.023
  218TIP3    H1  615   0.938   2.144   1.977
  218TIP3    H2  616   1.009   2.220   2.089
  219TIP3   OH2  617   1.034   1.884   2.599
  219TIP3    H1  618   0.956   1.895   2.657
  219TIP3    H2  619   1.070   1.975   2.598
  220TIP3   OH2  620   1.060   1.547   2.458
  220TIP3    H1  621   1.068   1.462   2.410
  220TIP3    H2  622   1.093   1.609   2.391
  221TIP3   OH2  623   1.302   1.402   2.522
  221TIP3    H1  624   1.212   1.364   2.526
  221TIP3    H2  625   1.356   1.323   2.507
  222TIP3   OH2  626   0.446   2.302   2.293
  222TIP3    H1  627   0.533   2.263   2.274
  222TIP3    H2  628   0.468   2.348   2.377
  223TIP3   OH2  629   0.863   2.095   2.407
  223TIP3    H1  630   0.799   2.140   2.348
  223TIP3    H2  631   0.945   2.143   2.382
  224TIP3   OH2  632   2.182   1.503   1.496
  224TIP3    H1  633   2.236   1.509   1.578
  224TIP3    H2  634   2.097   1.480   1.534
  225TIP3   OH2  635   2.424   1.834   1.189
  225TIP3    H1  636   2.424   1.773   1.264
  225TIP3    H2  637   2.453   1.917   1.230
  226TIP3   OH2  638   2.073   2.309   1.204
  226TIP3    H1  639   2.119   2.239   1.153
  226TIP3    H2  640   2.047   2.262   1.283
  227TIP3   OH2  641   1.970   1.768   1.551
  227TIP3    H1  642   1.999   1.723   1.471
  227TIP3    H2  643   2.056   1.803   1.583
  228TIP3   OH2  644   2.998   1.078   1.543
  228TIP3    H1  645   3.027   1.164   1.576
  228TIP3    H2  646   3.025   1.084   1.449
  229TIP3   OH2  647   2.389   1.258   1.582
  229TIP3    H1  648   2.442   1.179   1.601
  229TIP3    H2  649   2.340   1.229   1.505
  230TIP3   OH2  650   3.070   1.292   1.717
  230TIP3    H1  651   2.987   1.338   1.693
  230TIP3    H2  652   3.088   1.332   1.804
  231TIP3   OH2  653   1.849   1.687   1.791
  231TIP3    H1  654   1.777   1.749   1.815
  231TIP3    H2  655   1.874   1.719   1.703
  232TIP3   OH2  656   2.676   0.977   1.397
  232TIP3    H1  657   2.614   0.991   1.470
  232TIP3    H2  658   2.733   1.056   1.404
  233TIP3   OH2  659   1.661   1.879   1.866
  233TIP3    H1  660   1.636   1.968   1.834
  233TIP3    H2  661   1.582   1.857   1.919
  234TIP3   OH2  662   2.493   2.083   1.341
  234TIP3    H1  663   2.404   2.074   1.384
  234TIP3    H2  664   2.483   2.170   1.298
  235TIP3   OH2  665   2.782   0.995   1.705
  235TIP3    H1  666   2.697   1.017   1.664
  235TIP3    H2  667   2.847   1.020   1.635
  236TIP3   OH2  668   2.214   2.125   1.056
  236TIP3    H1  669   2.249   2.038   1.028
  236TIP3    H2  670   2.273   2.185   1.005
  237TIP3   OH2  671   2.304   1.888   0.944
  237TIP3    H1  672   2.366   1.855   0.877
  237TIP3    H2  673   2.350   1.862   1.027
  238TIP3   OH2  674   2.718   1.993   1.691
  238TIP3    H1  675   2.706   1.917   1.630
  238TIP3    H2  676   2.699   2.069   1.632
  239TIP3   OH2  677   2.913   1.634   1.540
  239TIP3    H1  678   2.829   1.685   1.540
  239TIP3    H2  679   2.944   1.655   1.449
  240TIP3   OH2  680   2.591   1.506   1.836
  240TIP3    H1  681   2.590   1.592   1.884
  240TIP3    H2  682   2.508   1.513   1.786
  241TIP3   OH2  683   1.706   1.865   1.472
  241TIP3    H1  684   1.721   1.835   1.382
  241TIP3    H2  685   1.793   1.847   1.513
  242TIP3   OH2  686   2.258   2.075   1.473
  242TIP3    H1  687   2.238   2.158   1.519
  242TIP3    H2  688   2.231   2.006   1.536
  243TIP3   OH2  689   1.866   1.992   2.016
  243TIP3    H1  690   1.802   2.053   2.058
  243TIP3    H2  691   1.805   1.939   1.961
  244TIP3   OH2  692   1.622   1.554   2.116
  244TIP3    H1  693   1.620   1.645   2.151
  244TIP3    H2  694   1.548   1.513   2.166
  245TIP3   OH2  695   1.962   1.989   1.048
  245TIP3    H1  696   2.044   2.041   1.054
  245TIP3    H2  697   1.915   2.035   0.977
  246TIP3   OH2  698   1.661   2.160   2.102
  246TIP3    H1  699   1.624   2.170   2.012
  246TIP3    H2  700   1.582   2.130   2.153
  247TIP3   OH2  701   2.956   2.343   1.739
  247TIP3    H1  702   2.954   2.246   1.752
  247TIP3    H2  703   2.873   2.368   1.784
  248TIP3   OH2  704   2.062   2.121   1.874
  248TIP3    H1  705   2.059   2.214   1.905
  248TIP3    H2  706   1.990   2.081   1.927
  249TIP3   OH2  707   2.007   2.215   0.850
  249TIP3    H1  708   2.023   2.232   0.756
  249TIP3    H2  709   2.097   2.205   0.883
  250TIP3   OH2  710   2.842   1.466   2.016
  250TIP3    H1  711   2.765   1.481   1.959
  250TIP3    H2  712   2.860   1.371   1.999
  251TIP3   OH2  713   1.444   1.871   2.036
  251TIP3    H1  714   1.505   1.866   2.113
  251TIP3    H2  715   1.363   1.838   2.074
  252TIP3   OH2  716   2.387   0.849   2.064
  252TIP3    H1  717   2.465   0.804   2.102
  252TIP3    H2  718   2.320   0.779   2.067
  253TIP3   OH2  719   2.607   1.243   1.931
  253TIP3    H1  720   2.559   1.249   2.016
  253TIP3    H2  721   2.594   1.331   1.892
  254TIP3   OH2  722   2.329   1.457   2.176
  254TIP3    H1  723   2.354   1.393   2.244
  254TIP3    H2  724   2.414   1.503   2.168
  255TIP3   OH2  725   2.309   1.460   1.740
  255TIP3    H1  726   2.342   1.387   1.683
  255TIP3    H2  727   2.281   1.408   1.818
  256TIP3   OH2  728   2.488   1.000   1.612
  256TIP3    H1  729   2.453   1.009   1.704
  256TIP3    H2  730   2.414   0.953   1.570
  257TIP3   OH2  731   2.650   2.688   1.837
  257TIP3    H1  732   2.646   2.714   1.743
  257TIP3    H2  733   2.729   2.737   1.867
  258TIP3   OH2  734   1.604   1.800   2.258
  258TIP3    H1  735   1.681   1.828   2.311
  258TIP3    H2  736   1.532   1.810   2.324
  259TIP3   OH2  737   2.032   1.204   1.828
  259TIP3    H1  738   1.983   1.286   1.842
  259TIP3    H2  739   2.122   1.231   1.852
  260TIP3   OH2  740   2.680   1.779   1.524
  260TIP3    H1  741   2.707   1.830   1.444
  260TIP3    H2  742   2.593   1.742   1.497
  261TIP3   OH2  743   2.183   1.862   1.893
  261TIP3    H1  744   2.203   1.847   1.986
  261TIP3    H2  745   2.141   1.949   1.894
  262TIP3   OH2  746   1.409   1.461   2.266
  262TIP3    H1  747   1.368   1.443   2.353
  262TIP3    H2  748   1.331   1.471   2.208
  263TIP3   OH2  749   2.079   1.597   2.203
  263TIP3    H1  750   2.009   1.542   2.161
  263TIP3    H2  751   2.160   1.562   2.161
  264TIP3   OH2  752   2.340   2.113   1.795
  264TIP3    H1  753   2.243   2.115   1.807
  264TIP3    H2  754   2.368   2.169   1.870
  265TIP3   OH2  755   2.969   2.050   1.778
  265TIP3    H1  756   2.871   2.045   1.769
  265TIP3    H2  757   2.995   2.019   1.688
  266TIP3   OH2  758   2.491   2.001   0.658
  266TIP3    H1  759   2.507   1.908   0.677
  266TIP3    H2  760   2.511   2.008   0.564
  267TIP3   OH2  761   2.441   1.654   1.448
  267TIP3    H1  762   2.352   1.618   1.453
  267TIP3    H2  763   2.493   1.576   1.417
  268TIP3   OH2  764   1.846   2.209   1.668
  268TIP3    H1  765   1.884   2.281   1.614
  268TIP3    H2  766   1.925   2.176   1.714
  269TIP3   OH2  767   2.228   1.832   1.625
  269TIP3    H1  768   2.221   1.837   1.723
  269TIP3    H2  769   2.319   1.803   1.614
  270TIP3   OH2  770   2.478   2.375   1.672
  270TIP3    H1  771   2.395   2.324   1.664
  270TIP3    H2  772   2.465   2.442   1.601
  271TIP3   OH2  773   1.292   2.074   1.838
  271TIP3    H1  774   1.337   1.999   1.879
  271TIP3    H2  775   1.300   2.142   1.907
  272TIP3   OH2  776   2.415   1.048   1.876
  272TIP3    H1  777   2.495   1.098   1.898
  272TIP3    H2  778   2.407   0.985   1.950
  273TIP3   OH2  779   2.261   1.305   1.954
  273TIP3    H1  780   2.280   1.358   2.034
  273TIP3    H2  781   2.313   1.224   1.969
  274TIP3   OH2  782   2.877   1.203   1.933
  274TIP3    H1  783   2.779   1.196   1.933
  274TIP3    H2  784   2.897   1.163   1.847
  275TIP3   OH2  785   2.580   1.437   1.353
  275TIP3    H1  786   2.521   1.369   1.317
  275TIP3    H2  787   2.650   1.381   1.391
  276TIP3   OH2  788   2.501   2.354   1.269
  276TIP3    H1  789   2.456   2.401   1.194
  276TIP3    H2  790   2.595   2.373   1.246
  277TIP3   OH2  791   1.349   2.391   2.179
  277TIP3    H1  792   1.410   2.398   2.255
  277TIP3    H2  793   1.268   2.356   2.223
  278TIP3   OH2  794   1.753   2.338   2.297
  278TIP3    H1  795   1.849   2.324   2.295
  278TIP3    H2  796   1.724   2.281   2.224
  279TIP3   OH2  797   2.391   2.253   2.028
  279TIP3    H1  798   2.385   2.184   2.097
  279TIP3    H2  799   2.468   2.306   2.057
  280TIP3   OH2  800   1.386   1.781   2.435
  280TIP3    H1  801   1.407   1.692   2.466
  280TIP3    H2  802   1.302   1.766   2.386
  281TIP3   OH2  803   2.006   1.875   2.222
  281TIP3    H1  804   1.963   1.898   2.137
  281TIP3    H2  805   2.033   1.782   2.208
  282TIP3   OH2  806   2.502   1.884   1.829
  282TIP3    H1  807   2.578   1.927   1.785
  282TIP3    H2  808   2.433   1.952   1.817
  283TIP3   OH2  809   1.860   1.420   2.113
  283TIP3    H1  810   1.770   1.461   2.102
  283TIP3    H2  811   1.902   1.444   2.027
  284TIP3   OH2  812   2.370   1.805   2.225
  284TIP3    H1  813   2.452   1.786   2.177
  284TIP3    H2  814   2.374   1.742   2.300
  285TIP3   OH2  815   2.013   1.507   1.901
  285TIP3    H1  816   2.092   1.534   1.853
  285TIP3    H2  817   1.949   1.575   1.870
  286TIP3   OH2  818   2.596   1.485   2.278
  286TIP3    H1  819   2.649   1.404   2.278
  286TIP3    H2  820   2.659   1.548   2.239
  287TIP3   OH2  821   2.630   1.736   2.014
  287TIP3    H1  822   2.573   1.792   1.955
  287TIP3    H2  823   2.718   1.759   1.976
  288TIP3   OH2  824   1.901   1.301   2.397
  288TIP3    H1  825   1.825   1.281   2.455
  288TIP3    H2  826   1.857   1.354   2.329
  289TIP3   OH2  827   2.197   1.214   2.313
  289TIP3    H1  828   2.246   1.247   2.391
  289TIP3    H2  829   2.164   1.297   2.274
  290TIP3   OH2  830   2.478   1.207   2.170
  290TIP3    H1  831   2.411   1.160   2.222
  290TIP3    H2  832   2.561   1.177   2.214
  291TIP3   OH2  833   2.697   1.136   2.316
  291TIP3    H1  834   2.720   1.042   2.330
  291TIP3    H2  835   2.704   1.174   2.406
  292TIP3   OH2  836   1.740   1.081   2.478
  292TIP3    H1  837   1.712   0.990   2.456
  292TIP3    H2  838   1.722   1.088   2.572
  293TIP3   OH2  839   2.757   2.439   1.228
  293TIP3    H1  840   2.783   2.475   1.315
  293TIP3    H2  841   2.818   2.483   1.168
  294TIP3   OH2  842   2.782   2.463   1.511
  294TIP3    H1  843   2.736   2.377   1.504
  294TIP3    H2  844   2.857   2.438   1.566
  295TIP3   OH2  845   2.831   2.138   2.084
  295TIP3    H1  846   2.758   2.150   2.149
  295TIP3    H2  847   2.872   2.226   2.086
  296TIP3   OH2  848   2.658   1.729   0.743
  296TIP3    H1  849   2.736   1.754   0.690
  296TIP3    H2  850   2.698   1.667   0.807
  297TIP3   OH2  851   2.770   1.535   0.904
  297TIP3    H1  852   2.711   1.474   0.954
  297TIP3    H2  853   2.839   1.555   0.970
  298TIP3   OH2  854   2.832   1.914   1.338
  298TIP3    H1  855   2.880   1.844   1.290
  298TIP3    H2  856   2.829   1.987   1.273
  299TIP3   OH2  857   2.657   2.212   1.532
  299TIP3    H1  858   2.584   2.256   1.580
  299TIP3    H2  859   2.609   2.168   1.458
  300TIP3   OH2  860   2.605   1.362   1.042
  300TIP3    H1  861   2.613   1.266   1.058
  300TIP3    H2  862   2.564   1.392   1.124
  301TIP3   OH2  863   2.875   1.802   1.909
  301TIP3    H1  864   2.948   1.737   1.897
  301TIP3    H2  865   2.898   1.870   1.843
  302TIP3   OH2  866   3.057   1.602   1.920
  302TIP3    H1  867   2.984   1.553   1.963
  302TIP3    H2  868   3.132   1.541   1.939
  303TIP3   OH2  869   2.760   1.250   1.456
  303TIP3    H1  870   2.841   1.277   1.407
  303TIP3    H2  871   2.778   1.293   1.541
  304TIP3   OH2  872   2.819   1.413   1.673
  304TIP3    H1  873   2.739   1.448   1.715
  304TIP3    H2  874   2.852   1.492   1.625
  305TIP3   OH2  875   1.455   1.177   2.497
  305TIP3    H1  876   1.542   1.214   2.472
  305TIP3    H2  877   1.459   1.191   2.593
  306TIP3   OH2  878   3.266   1.004   2.225
  306TIP3    H1  879   3.327   0.941   2.182
  306TIP3    H2  880   3.235   1.057   2.148
  307TIP3   OH2  881   3.132   1.140   2.032
  307TIP3    H1  882   3.046   1.185   2.044
  307TIP3    H2  883   3.104   1.066   1.974
  308TIP3   OH2  884   2.331   2.290   0.878
  308TIP3    H1  885   2.370   2.267   0.792
  308TIP3    H2  886   2.381   2.369   0.904
  309TIP3   OH2  887   1.450   2.088   2.266
  309TIP3    H1  888   1.359   2.065   2.237
  309TIP3    H2  889   1.433   2.146   2.341
  310TIP3   OH2  890   1.621   2.150   1.817
  310TIP3    H1  891   1.573   2.227   1.781
  310TIP3    H2  892   1.706   2.164   1.770
  311TIP3   OH2  893   2.059   2.388   1.951
  311TIP3    H1  894   2.100   2.391   2.040
  311TIP3    H2  895   2.123   2.442   1.900
  312TIP3   OH2  896   2.237   2.545   1.815
  312TIP3    H1  897   2.306   2.496   1.769
  312TIP3    H2  898   2.290   2.601   1.875
  313TIP3   OH2  899   3.040   0.906   1.919
  313TIP3    H1  900   2.949   0.886   1.889
  313TIP3    H2  901   3.080   0.816   1.910
  314TIP3   OH2  902   1.297   2.403   1.845
  314TIP3    H1  903   1.209   2.444   1.829
  314TIP3    H2  904   1.310   2.427   1.938
  315TIP3   OH2  905   1.527   2.377   1.698
  315TIP3    H1  906   1.442   2.398   1.745
  315TIP3    H2  907   1.516   2.424   1.613
  316TIP3   OH2  908   1.953   2.406   1.499
  316TIP3    H1  909   1.888   2.421   1.428
  316TIP3    H2  910   1.963   2.496   1.535
  317TIP3   OH2  911   2.223   2.346   1.550
  317TIP3    H1  912   2.129   2.364   1.531
  317TIP3    H2  913   2.267   2.417   1.500
  318TIP3   OH2  914   2.432   2.541   1.460
  318TIP3    H1  915   2.415   2.624   1.412
  318TIP3    H2  916   2.457   2.480   1.387
  319TIP3   OH2  917   1.282   2.216   1.595
  319TIP3    H1  918   1.271   2.198   1.691
  319TIP3    H2  919   1.379   2.218   1.590
  320TIP3   OH2  920   1.676   2.188   1.437
  320TIP3    H1  921   1.677   2.095   1.411
  320TIP3    H2  922   1.717   2.183   1.525
  321TIP3   OH2  923   1.733   0.814   2.413
  321TIP3    H1  924   1.682   0.758   2.475
  321TIP3    H2  925   1.823   0.804   2.450
  322TIP3   OH2  926   1.974   0.796   2.557
  322TIP3    H1  927   2.040   0.727   2.545
  322TIP3    H2  928   1.926   0.758   2.634
  323TIP3   OH2  929   2.774   0.870   2.345
  323TIP3    H1  930   2.793   0.837   2.435
  323TIP3    H2  931   2.863   0.864   2.303
  324TIP3   OH2  932   2.706   2.418   1.837
  324TIP3    H1  933   2.629   2.389   1.785
  324TIP3    H2  934   2.688   2.514   1.842
  325TIP3   OH2  935   3.977   1.795   0.601
  325TIP3    H1  936   3.945   1.885   0.578
  325TIP3    H2  937   3.903   1.742   0.565
  326TIP3   OH2  938   3.980   1.792   0.985
  326TIP3    H1  939   4.010   1.764   1.073
  326TIP3    H2  940   3.935   1.713   0.953
  327TIP3   OH2  941   3.274   1.690   1.351
  327TIP3    H1  942   3.304   1.618   1.409
  327TIP3    H2  943   3.358   1.732   1.329
  328TIP3   OH2  944   4.222   2.097   0.666
  328TIP3    H1  945   4.200   2.028   0.730
  328TIP3    H2  946   4.251   2.170   0.723
  329TIP3   OH2  947   3.249   2.102   1.075
  329TIP3    H1  948   3.241   2.004   1.074
  329TIP3    H2  949   3.345   2.111   1.065
  330TIP3   OH2  950   2.962   1.310   0.905
  330TIP3    H1  951   2.901   1.368   0.859
  330TIP3    H2  952   2.917   1.223   0.895
  331TIP3   OH2  953   3.012   1.592   1.038
  331TIP3    H1  954   3.055   1.509   1.067
  331TIP3    H2  955   3.052   1.604   0.950
  332TIP3   OH2  956   3.875   2.561   0.686
  332TIP3    H1  957   3.915   2.489   0.633
  332TIP3    H2  958   3.857   2.515   0.769
  333TIP3   OH2  959   3.771   2.020   1.033
  333TIP3    H1  960   3.810   1.944   0.987
  333TIP3    H2  961   3.855   2.065   1.059
  334TIP3   OH2  962   4.192   1.520   1.061
  334TIP3    H1  963   4.227   1.431   1.082
  334TIP3    H2  964   4.154   1.504   0.973
  335TIP3   OH2  965   3.530   1.181   1.021
  335TIP3    H1  966   3.503   1.253   0.961
  335TIP3    H2  967   3.480   1.107   0.979
  336TIP3   OH2  968   4.223   1.272   0.653
  336TIP3    H1  969   4.297   1.254   0.714
  336TIP3    H2  970   4.271   1.310   0.577
  337TIP3   OH2  971   3.155   1.381   1.144
  337TIP3    H1  972   3.243   1.356   1.178
  337TIP3    H2  973   3.151   1.324   1.064
  338TIP3   OH2  974   3.593   1.578   0.935
  338TIP3    H1  975   3.688   1.555   0.946
  338TIP3    H2  976   3.557   1.494   0.899
  339TIP3   OH2  977   4.860   1.527   1.240
  339TIP3    H1  978   4.795   1.567   1.180
  339TIP3    H2  979   4.889   1.603   1.292
  340TIP3   OH2  980   3.525   1.157   1.468
  340TIP3    H1  981   3.471   1.188   1.393
  340TIP3    H2  982   3.468   1.180   1.543
  341TIP3   OH2  983   3.867   2.015   0.470
  341TIP3    H1  984   3.822   1.998   0.386
  341TIP3    H2  985   3.820   2.097   0.499
  342TIP3   OH2  986   3.630   1.939   1.257
  342TIP3    H1  987   3.568   2.007   1.292
  342TIP3    H2  988   3.670   1.986   1.180
  343TIP3   OH2  989   4.437   1.269   0.825
  343TIP3    H1  990   4.402   1.232   0.908
  343TIP3    H2  991   4.481   1.350   0.857
  344TIP3   OH2  992   3.396   1.271   1.245
  344TIP3    H1  993   3.459   1.343   1.271
  344TIP3    H2  994   3.446   1.232   1.170
  345TIP3   OH2  995   3.459   2.135   1.358
  345TIP3    H1  996   3.432   2.221   1.319
  345TIP3    H2  997   3.379   2.117   1.411
  346TIP3   OH2  998   2.868   1.834   0.592
  346TIP3    H1  999   2.823   1.867   0.513
  346TIP3    H2 1000   2.905   1.917   0.627
  347TIP3   OH2 1001   4.290   2.341   0.833
  347TIP3    H1 1002   4.200   2.331   0.873
  347TIP3    H2 1003   4.279   2.427   0.787
  348TIP3   OH2 1004   4.575   1.233   1.192
  348TIP3    H1 1005   4.483   1.258   1.172
  348TIP3    H2 1006   4.624   1.274   1.119
  349TIP3   OH2 1007   3.881   0.880   1.183
  349TIP3    H1 1008   3.858   0.787   1.201
  349TIP3    H2 1009   3.803   0.924   1.226
  350TIP3   OH2 1010   3.988   2.385   0.504
  350TIP3    H1 1011   4.037   2.301   0.488
  350TIP3    H2 1012   4.052   2.448   0.465
  351TIP3   OH2 1013   4.133   2.170   0.416
  351TIP3    H1 1014   4.090   2.092   0.380
  351TIP3    H2 1015   4.172   2.135   0.499
  352TIP3   OH2 1016   4.515   2.248   1.176
  352TIP3    H1 1017   4.501   2.171   1.116
  352TIP3    H2 1018   4.495   2.323   1.116
  353TIP3   OH2 1019   3.810   1.646   0.437
  353TIP3    H1 1020   3.727   1.695   0.419
  353TIP3    H2 1021   3.845   1.632   0.348
  354TIP3   OH2 1022   3.783   1.418   0.166
  354TIP3    H1 1023   3.863   1.472   0.182
  354TIP3    H2 1024   3.820   1.339   0.123
  355TIP3   OH2 1025   4.712   1.890   1.030
  355TIP3    H1 1026   4.628   1.940   1.026
  355TIP3    H2 1027   4.744   1.901   0.938
  356TIP3   OH2 1028   4.155   1.729   0.404
  356TIP3    H1 1029   4.099   1.751   0.482
  356TIP3    H2 1030   4.239   1.705   0.449
  357TIP3   OH2 1031   4.387   1.764   1.320
  357TIP3    H1 1032   4.384   1.850   1.365
  357TIP3    H2 1033   4.300   1.764   1.276
  358TIP3   OH2 1034   3.382   1.720   0.817
  358TIP3    H1 1035   3.339   1.658   0.755
  358TIP3    H2 1036   3.457   1.667   0.850
  359TIP3   OH2 1037   3.515   2.138   0.969
  359TIP3    H1 1038   3.492   2.103   0.882
  359TIP3    H2 1039   3.603   2.099   0.985
  360TIP3   OH2 1040   3.523   1.693   1.184
  360TIP3    H1 1041   3.550   1.668   1.093
  360TIP3    H2 1042   3.565   1.781   1.195
  361TIP3   OH2 1043   4.050   2.334   0.955
  361TIP3    H1 1044   4.035   2.413   1.008
  361TIP3    H2 1045   4.031   2.261   1.017
  362TIP3   OH2 1046   3.662   2.251   1.503
  362TIP3    H1 1047   3.600   2.312   1.547
  362TIP3    H2 1048   3.598   2.198   1.450
  363TIP3   OH2 1049   3.999   1.585   0.229
  363TIP3    H1 1050   4.052   1.649   0.281
  363TIP3    H2 1051   4.025   1.610   0.137
  364TIP3   OH2 1052   3.420   1.803   1.613
  364TIP3    H1 1053   3.421   1.893   1.650
  364TIP3    H2 1054   3.324   1.785   1.614
  365TIP3   OH2 1055   3.740   2.260   0.512
  365TIP3    H1 1056   3.820   2.316   0.517
  365TIP3    H2 1057   3.680   2.313   0.459
  366TIP3   OH2 1058   3.455   2.417   1.589
  366TIP3    H1 1059   3.420   2.421   1.498
  366TIP3    H2 1060   3.375   2.395   1.641
  367TIP3   OH2 1061   3.238   1.551   0.621
  367TIP3    H1 1062   3.176   1.604   0.566
  367TIP3    H2 1063   3.183   1.473   0.639
  368TIP3   OH2 1064   4.298   2.201  -0.185
  368TIP3    H1 1065   4.321   2.295  -0.196
  368TIP3    H2 1066   4.386   2.158  -0.186
  369TIP3   OH2 1067   3.032   1.952   1.534
  369TIP3    H1 1068   2.966   1.933   1.465
  369TIP3    H2 1069   3.071   1.864   1.552
  370TIP3   OH2 1070   2.887   2.142   1.170
  370TIP3    H1 1071   2.983   2.139   1.158
  370TIP3    H2 1072   2.876   2.224   1.221
  371TIP3   OH2 1073   4.752   2.599   1.224
  371TIP3    H1 1074   4.751   2.502   1.238
  371TIP3    H2 1075   4.669   2.624   1.270
  372TIP3   OH2 1076   3.857   2.378   1.360
  372TIP3    H1 1077   3.854   2.472   1.391
  372TIP3    H2 1078   3.785   2.339   1.414
  373TIP3   OH2 1079   3.624   2.510   0.306
  373TIP3    H1 1080   3.574   2.491   0.224
  373TIP3    H2 1081   3.587   2.595   0.334
  374TIP3   OH2 1082   3.057   2.357   0.695
  374TIP3    H1 1083   3.101   2.348   0.782
  374TIP3    H2 1084   3.010   2.272   0.688
  375TIP3   OH2 1085   3.816   2.413  -0.040
  375TIP3    H1 1086   3.874   2.351  -0.090
  375TIP3    H2 1087   3.857   2.413   0.048
  376TIP3   OH2 1088   3.878   2.462   0.227
  376TIP3    H1 1089   3.786   2.473   0.259
  376TIP3    H2 1090   3.918   2.415   0.302
  377TIP3   OH2 1091   4.638   1.723   1.499
  377TIP3    H1 1092   4.558   1.735   1.446
  377TIP3    H2 1093   4.651   1.626   1.493
  378TIP3   OH2 1094   3.238   2.134   1.519
  378TIP3    H1 1095   3.286   2.117   1.603
  378TIP3    H2 1096   3.163   2.071   1.526
  379TIP3   OH2 1097   3.644   0.967   1.288
  379TIP3    H1 1098   3.553   0.936   1.271
  379TIP3    H2 1099   3.628   1.024   1.365
  380TIP3   OH2 1100   4.169   1.086   1.511
  380TIP3    H1 1101   4.239   1.048   1.567
  380TIP3    H2 1102   4.089   1.049   1.556
  381TIP3   OH2 1103   4.408   1.502   1.415
  381TIP3    H1 1104   4.355   1.503   1.498
  381TIP3    H2 1105   4.386   1.589   1.375
  382TIP3   OH2 1106   4.074   1.639  -0.023
  382TIP3    H1 1107   4.040   1.599  -0.103
  382TIP3    H2 1108   4.156   1.680  -0.054
  383TIP3   OH2 1109   3.805   1.024   0.284
  383TIP3    H1 1110   3.765   0.997   0.369
  383TIP3    H2 1111   3.785   0.948   0.228
  384TIP3   OH2 1112   3.572   1.469   1.326
  384TIP3    H1 1113   3.521   1.488   1.407
  384TIP3    H2 1114   3.558   1.551   1.275
  385TIP3   OH2 1115   3.453   1.362   0.833
  385TIP3    H1 1116   3.361   1.338   0.856
  385TIP3    H2 1117   3.460   1.319   0.745
  386TIP3   OH2 1118   3.944   1.446   0.575
  386TIP3    H1 1119   3.894   1.517   0.528
  386TIP3    H2 1120   3.999   1.411   0.502
  387TIP3   OH2 1121   4.121   1.721   1.650
  387TIP3    H1 1122   4.104   1.642   1.704
  387TIP3    H2 1123   4.215   1.736   1.669
  388TIP3   OH2 1124   4.103   1.473   0.806
  388TIP3    H1 1125   4.037   1.501   0.739
  388TIP3    H2 1126   4.135   1.393   0.760
  389TIP3   OH2 1127   3.391   1.502   1.533
  389TIP3    H1 1128   3.414   1.566   1.602
  389TIP3    H2 1129   3.381   1.419   1.584
  390TIP3   OH2 1130   2.992   1.059   1.124
  390TIP3    H1 1131   3.061   1.065   1.191
  390TIP3    H2 1132   3.012   0.978   1.077
  391TIP3   OH2 1133   4.117   1.716   1.228
  391TIP3    H1 1134   4.148   1.645   1.167
  391TIP3    H2 1135   4.080   1.661   1.301
  392TIP3   OH2 1136   3.786   1.177   0.903
  392TIP3    H1 1137   3.700   1.178   0.951
  392TIP3    H2 1138   3.849   1.178   0.977
  393TIP3   OH2 1139   3.222   1.243   0.907
  393TIP3    H1 1140   3.125   1.254   0.892
  393TIP3    H2 1141   3.235   1.148   0.888
  394TIP3   OH2 1142   3.496   1.234   0.588
  394TIP3    H1 1143   3.594   1.244   0.592
  394TIP3    H2 1144   3.475   1.280   0.506
  395TIP3   OH2 1145   4.269   1.255   1.103
  395TIP3    H1 1146   4.237   1.270   1.195
  395TIP3    H2 1147   4.201   1.193   1.071
  396TIP3   OH2 1148   4.446   2.945   1.324
  396TIP3    H1 1149   4.443   2.971   1.231
  396TIP3    H2 1150   4.525   2.994   1.356
  397TIP3   OH2 1151   3.400   2.056   1.743
  397TIP3    H1 1152   3.479   2.087   1.791
  397TIP3    H2 1153   3.334   2.056   1.816
  398TIP3   OH2 1154   3.859   1.514   0.998
  398TIP3    H1 1155   3.932   1.465   0.959
  398TIP3    H2 1156   3.855   1.475   1.089
  399TIP3   OH2 1157   3.384   1.001   0.877
  399TIP3    H1 1158   3.354   0.923   0.927
  399TIP3    H2 1159   3.414   0.963   0.791
  400TIP3   OH2 1160   3.843   1.425   1.258
  400TIP3    H1 1161   3.751   1.434   1.292
  400TIP3    H2 1162   3.895   1.470   1.328
  401TIP3   OH2 1163   3.579   1.799   0.386
  401TIP3    H1 1164   3.501   1.739   0.376
  401TIP3    H2 1165   3.561   1.834   0.477
  402TIP3   OH2 1166   4.476   2.031   1.009
  402TIP3    H1 1167   4.498   2.084   0.929
  402TIP3    H2 1168   4.391   1.989   0.983
  403TIP3   OH2 1169   4.056   1.114   0.261
  403TIP3    H1 1170   3.963   1.084   0.252
  403TIP3    H2 1171   4.047   1.210   0.279
  404TIP3   OH2 1172   3.980   2.120   1.379
  404TIP3    H1 1173   3.997   2.098   1.471
  404TIP3    H2 1174   3.937   2.207   1.385
  405TIP3   OH2 1175   4.104   1.369   0.363
  405TIP3    H1 1176   4.201   1.373   0.369
  405TIP3    H2 1177   4.082   1.446   0.307
  406TIP3   OH2 1178   3.277   1.829   1.055
  406TIP3    H1 1179   3.307   1.795   0.969
  406TIP3    H2 1180   3.300   1.756   1.115
  407TIP3   OH2 1181   3.718   1.946   0.205
  407TIP3    H1 1182   3.673   2.033   0.213
  407TIP3    H2 1183   3.665   1.892   0.267
  408TIP3   OH2 1184   3.151   1.738   1.672
  408TIP3    H1 1185   3.165   1.722   1.767
  408TIP3    H2 1186   3.080   1.675   1.651
  409TIP3   OH2 1187   3.876   1.854   1.694
  409TIP3    H1 1188   3.809   1.799   1.648
  409TIP3    H2 1189   3.959   1.817   1.658
  410TIP3   OH2 1190   4.136   2.378   1.276
  410TIP3    H1 1191   4.040   2.373   1.290
  410TIP3    H2 1192   4.163   2.429   1.355
  411TIP3   OH2 1193   4.550   1.434   0.230
  411TIP3    H1 1194   4.480   1.413   0.165
  411TIP3    H2 1195   4.596   1.502   0.179
  412TIP3   OH2 1196   4.765   2.309   1.263
  412TIP3    H1 1197   4.667   2.302   1.255
  412TIP3    H2 1198   4.791   2.277   1.174
  413TIP3   OH2 1199   4.258   2.266   0.092
  413TIP3    H1 1200   4.216   2.204   0.154
  413TIP3    H2 1201   4.248   2.219   0.007
  414TIP3   OH2 1202   4.242   1.895   0.928
  414TIP3    H1 1203   4.148   1.871   0.942
  414TIP3    H2 1204   4.274   1.815   0.883
  415TIP3   OH2 1205   3.371   2.126   0.687
  415TIP3    H1 1206   3.364   2.206   0.632
  415TIP3    H2 1207   3.278   2.100   0.693
  416TIP3   OH2 1208   3.505   1.889   0.628
  416TIP3    H1 1209   3.471   1.978   0.648
  416TIP3    H2 1210   3.466   1.836   0.700
  417TIP3   OH2 1211   3.640   2.467   1.152
  417TIP3    H1 1212   3.682   2.540   1.102
  417TIP3    H2 1213   3.717   2.429   1.198
  418TIP3   OH2 1214   3.288   2.364   0.538
  418TIP3    H1 1215   3.202   2.373   0.585
  418TIP3    H2 1216   3.319   2.457   0.540
  419TIP3   OH2 1217   4.025   2.100   1.111
  419TIP3    H1 1218   4.016   2.100   1.209
  419TIP3    H2 1219   4.102   2.043   1.099
  420TIP3   OH2 1220   3.995   2.012   0.004
  420TIP3    H1 1221   4.053   1.978   0.075
  420TIP3    H2 1222   3.909   1.977   0.031
  421TIP3   OH2 1223   4.275   2.632   1.161
  421TIP3    H1 1224   4.195   2.576   1.157
  421TIP3    H2 1225   4.258   2.696   1.089
  422TIP3   OH2 1226   4.341   2.477  -0.194
  422TIP3    H1 1227   4.390   2.561  -0.210
  422TIP3    H2 1228   4.258   2.513  -0.158
  423TIP3   OH2 1229   3.353   1.248   1.675
  423TIP3    H1 1230   3.256   1.252   1.683
  423TIP3    H2 1231   3.375   1.180   1.740
  424TIP3   OH2 1232   4.163   1.927   0.211
  424TIP3    H1 1233   4.152   1.861   0.282
  424TIP3    H2 1234   4.261   1.928   0.202
  425TIP3   OH2 1235   3.078   2.328   1.310
  425TIP3    H1 1236   3.131   2.254   1.342
  425TIP3    H2 1237   3.107   2.399   1.368
  426TIP3   OH2 1238   3.367   1.980  -0.007
  426TIP3    H1 1239   3.374   1.884  -0.016
  426TIP3    H2 1240   3.337   1.985   0.086
  427TIP3   OH2 1241   3.314   1.988   0.268
  427TIP3    H1 1242   3.381   1.959   0.331
  427TIP3    H2 1243   3.320   2.086   0.276
  428TIP3   OH2 1244   3.055   1.681   0.464
  428TIP3    H1 1245   2.988   1.719   0.524
  428TIP3    H2 1246   3.067   1.759   0.405
  429TIP3   OH2 1247   4.197   1.313   1.364
  429TIP3    H1 1248   4.281   1.344   1.400
  429TIP3    H2 1249   4.179   1.233   1.417
  430TIP3   OH2 1250   4.069   1.061   0.533
  430TIP3    H1 1251   4.062   1.074   0.436
  430TIP3    H2 1252   4.112   1.144   0.561
  431TIP3   OH2 1253   3.586   2.180   0.222
  431TIP3    H1 1254   3.500   2.210   0.256
  431TIP3    H2 1255   3.588   2.224   0.136
  432TIP3   OH2 1256   3.765   1.246   0.636
  432TIP3    H1 1257   3.828   1.319   0.618
  432TIP3    H2 1258   3.773   1.237   0.733
  433TIP3   OH2 1259   4.036   1.556   1.432
  433TIP3    H1 1260   4.062   1.607   1.511
  433TIP3    H2 1261   4.087   1.474   1.439
  434TIP3   OH2 1262   3.923   0.966   0.744
  434TIP3    H1 1263   3.905   1.048   0.795
  434TIP3    H2 1264   3.981   1.002   0.673
  435TIP3   OH2 1265   3.333   2.259   0.289
  435TIP3    H1 1266   3.302   2.330   0.229
  435TIP3    H2 1267   3.313   2.298   0.377
  436TIP3   OH2 1268   3.470   0.961   0.619
  436TIP3    H1 1269   3.474   1.059   0.614
  436TIP3    H2 1270   3.559   0.939   0.586
  437TIP3   OH2 1271   4.675   1.455   1.443
  437TIP3    H1 1272   4.579   1.447   1.424
  437TIP3    H2 1273   4.714   1.450   1.354
  438TIP3   OH2 1274   4.331   1.650   0.807
  438TIP3    H1 1275   4.253   1.594   0.820
  438TIP3    H2 1276   4.400   1.602   0.857
  439TIP3   OH2 1277   3.053   1.909   0.308
  439TIP3    H1 1278   3.143   1.937   0.283
  439TIP3    H2 1279   3.017   1.875   0.224
  440TIP3   OH2 1280   4.297   2.612   0.754
  440TIP3    H1 1281   4.253   2.659   0.679
  440TIP3    H2 1282   4.391   2.630   0.732
  441TIP3   OH2 1283   3.376   0.890   1.283
  441TIP3    H1 1284   3.341   0.851   1.200
  441TIP3    H2 1285   3.375   0.814   1.345
  442TIP3   OH2 1286   2.910   2.111   0.652
  442TIP3    H1 1287   2.837   2.127   0.713
  442TIP3    H2 1288   2.870   2.143   0.567
  443TIP3   OH2 1289   3.070   2.643   1.734
  443TIP3    H1 1290   3.156   2.643   1.781
  443TIP3    H2 1291   3.049   2.548   1.733
  444TIP3   OH2 1292   3.546   2.597   1.781
  444TIP3    H1 1293   3.642   2.582   1.783
  444TIP3    H2 1294   3.520   2.536   1.709
  445TIP3   OH2 1295   3.540   2.176  -0.073
  445TIP3    H1 1296   3.467   2.113  -0.054
  445TIP3    H2 1297   3.607   2.114  -0.104
  446TIP3   OH2 1298   4.188   2.509   1.513
  446TIP3    H1 1299   4.181   2.440   1.583
  446TIP3    H2 1300   4.264   2.562   1.544
  447TIP3   OH2 1301   3.988   2.226  -0.167
  447TIP3    H1 1302   3.979   2.148  -0.108
  447TIP3    H2 1303   4.073   2.206  -0.208
  448TIP3   OH2 1304   3.198   2.043   1.935
  448TIP3    H1 1305   3.213   1.947   1.939
  448TIP3    H2 1306   3.111   2.048   1.888
  449TIP3   OH2 1307   3.290   1.731   0.090
  449TIP3    H1 1308   3.306   1.730   0.186
  449TIP3    H2 1309   3.193   1.729   0.086
  450TIP3   OH2 1310   3.804   2.132   1.708
  450TIP3    H1 1311   3.761   2.154   1.623
  450TIP3    H2 1312   3.832   2.038   1.695
  451TIP3   OH2 1313   3.672   1.889  -0.060
  451TIP3    H1 1314   3.681   1.911   0.035
  451TIP3    H2 1315   3.680   1.794  -0.059
  452TIP3   OH2 1316   4.300   2.141   1.319
  452TIP3    H1 1317   4.374   2.186   1.273
  452TIP3    H2 1318   4.227   2.205   1.302
  453TIP3   OH2 1319   3.316   1.780   1.922
  453TIP3    H1 1320   3.395   1.737   1.887
  453TIP3    H2 1321   3.349   1.814   2.008
  454TIP3   OH2 1322   3.370   1.626   0.367
  454TIP3    H1 1323   3.337   1.585   0.449
  454TIP3    H2 1324   3.420   1.552   0.325
  455TIP3   OH2 1325   3.660   1.668   1.589
  455TIP3    H1 1326   3.577   1.720   1.586
  455TIP3    H2 1327   3.707   1.699   1.509
  456TIP3   OH2 1328   3.520   1.431   0.246
  456TIP3    H1 1329   3.490   1.360   0.187
  456TIP3    H2 1330   3.615   1.436   0.222
  457TIP3   OH2 1331   4.171   2.067   1.714
  457TIP3    H1 1332   4.245   2.037   1.659
  457TIP3    H2 1333   4.165   1.997   1.781
  458TIP3   OH2 1334   4.303   1.723  -0.170
  458TIP3    H1 1335   4.282   1.678  -0.253
  458TIP3    H2 1336   4.287   1.815  -0.192
  459TIP3   OH2 1337   3.783   1.461   1.714
  459TIP3    H1 1338   3.781   1.385   1.651
  459TIP3    H2 1339   3.737   1.529   1.660
  460TIP3   OH2 1340   3.770   1.274   1.522
  460TIP3    H1 1341   3.814   1.258   1.438
  460TIP3    H2 1342   3.689   1.220   1.511
  461TIP3   OH2 1343   3.804   1.780   1.395
  461TIP3    H1 1344   3.884   1.781   1.341
  461TIP3    H2 1345   3.746   1.842   1.345
  462TIP3   OH2 1346   4.393   1.739   1.768
  462TIP3    H1 1347   4.441   1.658   1.743
  462TIP3    H2 1348   4.452   1.807   1.733
  463TIP3   OH2 1349   4.427   1.994   1.505
  463TIP3    H1 1350   4.369   2.049   1.445
  463TIP3    H2 1351   4.514   2.015   1.465
  464TIP3   OH2 1352   3.649   1.567   1.940
  464TIP3    H1 1353   3.585   1.493   1.952
  464TIP3    H2 1354   3.688   1.543   1.854
  465TIP3   OH2 1355   4.041   1.503   1.791
  465TIP3    H1 1356   4.019   1.543   1.876
  465TIP3    H2 1357   3.951   1.479   1.758
  466TIP3   OH2 1358   4.281   1.467   1.651
  466TIP3    H1 1359   4.201   1.452   1.706
  466TIP3    H2 1360   4.352   1.425   1.704
  467TIP3   OH2 1361   4.497   1.387   1.810
  467TIP3    H1 1362   4.521   1.295   1.832
  467TIP3    H2 1363   4.498   1.432   1.897
  468TIP3   OH2 1364   3.491   1.343   1.990
  468TIP3    H1 1365   3.488   1.250   1.960
  468TIP3    H2 1366   3.521   1.331   2.082
  469TIP3   OH2 1367   3.289   2.456   0.103
  469TIP3    H1 1368   3.382   2.453   0.072
  469TIP3    H2 1369   3.243   2.486   0.024
  470TIP3   OH2 1370   2.677   2.445   0.721
  470TIP3    H1 1371   2.643   2.382   0.656
  470TIP3    H2 1372   2.721   2.386   0.786
  471TIP3   OH2 1373   2.816   2.300   0.912
  471TIP3    H1 1374   2.807   2.225   0.974
  471TIP3    H2 1375   2.870   2.361   0.965
  472TIP3   OH2 1376   4.553   2.698   0.715
  472TIP3    H1 1377   4.576   2.728   0.804
  472TIP3    H2 1378   4.617   2.745   0.660
  473TIP3   OH2 1379   4.579   2.718   0.995
  473TIP3    H1 1380   4.532   2.632   0.992
  473TIP3    H2 1381   4.652   2.694   1.055
  474TIP3   OH2 1382   4.627   2.395   1.571
  474TIP3    H1 1383   4.554   2.406   1.635
  474TIP3    H2 1384   4.668   2.484   1.573
  475TIP3   OH2 1385   4.441   1.914   0.194
  475TIP3    H1 1386   4.508   1.980   0.165
  475TIP3    H2 1387   4.485   1.876   0.273
  476TIP3   OH2 1388   4.569   1.779   0.394
  476TIP3    H1 1389   4.502   1.738   0.452
  476TIP3    H2 1390   4.633   1.816   0.459
  477TIP3   OH2 1391   4.627   2.174   0.825
  477TIP3    H1 1392   4.680   2.103   0.783
  477TIP3    H2 1393   4.619   2.240   0.754
  478TIP3   OH2 1394   4.454   2.470   1.018
  478TIP3    H1 1395   4.381   2.511   1.069
  478TIP3    H2 1396   4.405   2.424   0.946
  479TIP3   OH2 1397   4.503   1.698   0.030
  479TIP3    H1 1398   4.428   1.705  -0.032
  479TIP3    H2 1399   4.480   1.768   0.094
  480TIP3   OH2 1400   4.407   1.407   0.005
  480TIP3    H1 1401   4.436   1.486  -0.043
  480TIP3    H2 1402   4.455   1.335  -0.040
  481TIP3   OH2 1403   4.383   1.637   0.538
  481TIP3    H1 1404   4.383   1.541   0.525
  481TIP3    H2 1405   4.368   1.647   0.634
  482TIP3   OH2 1406   3.007   1.702   1.291
  482TIP3    H1 1407   3.005   1.671   1.197
  482TIP3    H2 1408   3.105   1.706   1.305
  483TIP3   OH2 1409   4.672   2.059   1.397
  483TIP3    H1 1410   4.743   1.993   1.384
  483TIP3    H2 1411   4.692   2.125   1.329
  484TIP3   OH2 1412   4.854   1.859   1.405
  484TIP3    H1 1413   4.779   1.810   1.446
  484TIP3    H2 1414   4.928   1.800   1.429
  485TIP3   OH2 1415   4.382   1.359   0.437
  485TIP3    H1 1416   4.406   1.264   0.446
  485TIP3    H2 1417   4.447   1.388   0.370
  486TIP3   OH2 1418   4.553   1.511   0.928
  486TIP3    H1 1419   4.644   1.508   0.895
  486TIP3    H2 1420   4.566   1.561   1.011
  487TIP3   OH2 1421   4.612   1.665   1.155
  487TIP3    H1 1422   4.533   1.699   1.202
  487TIP3    H2 1423   4.649   1.747   1.116
  488TIP3   OH2 1424   3.225   1.393   1.963
  488TIP3    H1 1425   3.323   1.389   1.960
  488TIP3    H2 1426   3.205   1.305   1.999
  489TIP3   OH2 1427   5.056   1.256   1.715
  489TIP3    H1 1428   5.120   1.194   1.674
  489TIP3    H2 1429   5.028   1.309   1.637
  490TIP3   OH2 1430   4.460   1.102   0.488
  490TIP3    H1 1431   4.483   1.080   0.579
  490TIP3    H2 1432   4.403   1.024   0.466
  491TIP3   OH2 1433   3.191   1.088   1.313
  491TIP3    H1 1434   3.255   1.014   1.310
  491TIP3    H2 1435   3.249   1.162   1.291
  492TIP3   OH2 1436   2.991   1.359   1.366
  492TIP3    H1 1437   3.034   1.345   1.279
  492TIP3    H2 1438   3.021   1.449   1.385
  493TIP3   OH2 1439   4.929   1.398   1.522
  493TIP3    H1 1440   4.840   1.438   1.525
  493TIP3    H2 1441   4.910   1.326   1.458
  494TIP3   OH2 1442   4.141   2.565   0.372
  494TIP3    H1 1443   4.189   2.556   0.288
  494TIP3    H2 1444   4.191   2.634   0.419
  495TIP3   OH2 1445   3.192   0.941   1.682
  495TIP3    H1 1446   3.137   0.942   1.761
  495TIP3    H2 1447   3.132   0.981   1.616
  496TIP3   OH2 1448   3.235   2.371   1.753
  496TIP3    H1 1449   3.142   2.347   1.736
  496TIP3    H2 1450   3.242   2.355   1.848
  497TIP3   OH2 1451   3.415   2.407   1.303
  497TIP3    H1 1452   3.366   2.482   1.263
  497TIP3    H2 1453   3.500   2.421   1.257
  498TIP3   OH2 1454   3.854   2.646   1.438
  498TIP3    H1 1455   3.896   2.647   1.527
  498TIP3    H2 1456   3.919   2.699   1.387
  499TIP3   OH2 1457   4.033   2.802   1.301
  499TIP3    H1 1458   4.103   2.751   1.258
  499TIP3    H2 1459   4.087   2.858   1.362
  500TIP3   OH2 1460   4.829   1.162   1.402
  500TIP3    H1 1461   4.743   1.157   1.358
  500TIP3    H2 1462   4.866   1.073   1.383
  501TIP3   OH2 1463   3.089   2.662   1.326
  501TIP3    H1 1464   2.998   2.693   1.303
  501TIP3    H2 1465   3.099   2.705   1.412
  502TIP3   OH2 1466   3.326   2.640   1.186
  502TIP3    H1 1467   3.238   2.653   1.229
  502TIP3    H2 1468   3.306   2.670   1.095
  503TIP3   OH2 1469   3.750   2.665   0.983
  503TIP3    H1 1470   3.680   2.682   0.918
  503TIP3    H2 1471   3.761   2.754   1.024
  504TIP3   OH2 1472   4.020   2.605   1.037
  504TIP3    H1 1473   3.925   2.622   1.016
  504TIP3    H2 1474   4.063   2.679   0.991
  505TIP3   OH2 1475   4.228   2.797   0.948
  505TIP3    H1 1476   4.213   2.881   0.899
  505TIP3    H2 1477   4.253   2.736   0.875
  506TIP3   OH2 1478   2.999   2.453   1.070
  506TIP3    H1 1479   3.026   2.426   1.160
  506TIP3    H2 1480   3.071   2.409   1.018
  507TIP3   OH2 1481   3.195   2.326   0.930
  507TIP3    H1 1482   3.210   2.243   0.981
  507TIP3    H2 1483   3.286   2.361   0.924
  508TIP3   OH2 1484   3.464   2.419   0.933
  508TIP3    H1 1485   3.492   2.327   0.920
  508TIP3    H2 1486   3.510   2.439   1.016
  509TIP3   OH2 1487   4.040   1.078   1.028
  509TIP3    H1 1488   3.994   1.011   1.082
  509TIP3    H2 1489   4.104   1.025   0.978
  510TIP3   OH2 1490   4.557   0.960   0.931
  510TIP3    H1 1491   4.593   1.009   0.854
  510TIP3    H2 1492   4.461   0.973   0.920
  511TIP3   OH2 1493   4.662   1.041   0.689
  511TIP3    H1 1494   4.689   1.018   0.599
  511TIP3    H2 1495   4.709   1.125   0.701
  512TIP3   OH2 1496   3.271   0.808   1.039
  512TIP3    H1 1497   3.176   0.789   1.023
  512TIP3    H2 1498   3.314   0.721   1.024
  513TIP3   OH2 1499   3.740   0.821   0.916
  513TIP3    H1 1500   3.796   0.878   0.861
  513TIP3    H2 1501   3.743   0.866   1.001
  514TIP3   OH2 1502   4.279   0.964   0.892
  514TIP3    H1 1503   4.270   0.927   0.804
  514TIP3    H2 1504   4.263   0.884   0.948
  515TIP3   OH2 1505   4.302   0.888   0.473
  515TIP3    H1 1506   4.210   0.917   0.458
  515TIP3    H2 1507   4.288   0.799   0.511
  516TIP3   OH2 1508   2.763   2.224   0.454
  516TIP3    H1 1509   2.668   2.212   0.432
  516TIP3    H2 1510   2.776   2.310   0.410
  517TIP3   OH2 1511   3.735   0.987   0.548
  517TIP3    H1 1512   3.797   0.958   0.617
  517TIP3    H2 1513   3.748   1.084   0.556
  518TIP3   OH2 1514   3.552   2.427   0.032
  518TIP3    H1 1515   3.645   2.445   0.004
  518TIP3    H2 1516   3.539   2.343  -0.019
  519TIP3   OH2 1517   4.284   2.534   0.134
  519TIP3    H1 1518   4.280   2.436   0.128
  519TIP3    H2 1519   4.230   2.559   0.058
  520TIP3   OH2 1520   3.490   1.073   1.944
  520TIP3    H1 1521   3.462   0.993   1.992
  520TIP3    H2 1522   3.571   1.044   1.901
  521TIP3   OH2 1523   3.795   1.096   2.069
  521TIP3    H1 1524   3.820   1.043   1.991
  521TIP3    H2 1525   3.758   1.024   2.125
  522TIP3   OH2 1526   2.875   2.256   0.135
  522TIP3    H1 1527   2.844   2.312   0.208
  522TIP3    H2 1528   2.962   2.227   0.165
  523TIP3   OH2 1529   4.594   1.116   1.848
  523TIP3    H1 1530   4.624   1.032   1.888
  523TIP3    H2 1531   4.668   1.133   1.786
  524TIP3   OH2 1532   4.504   2.676   1.322
  524TIP3    H1 1533   4.425   2.645   1.272
  524TIP3    H2 1534   4.484   2.771   1.330
  525TIP3   OH2 1535   5.817   2.052   0.091
  525TIP3    H1 1536   5.780   2.142   0.079
  525TIP3    H2 1537   5.736   2.000   0.094
  526TIP3   OH2 1538   5.773   2.045   0.471
  526TIP3    H1 1539   5.807   2.026   0.561
  526TIP3    H2 1540   5.730   1.960   0.450
  527TIP3   OH2 1541   5.069   1.950   0.834
  527TIP3    H1 1542   5.093   1.871   0.886
  527TIP3    H2 1543   5.152   1.999   0.835
  528TIP3   OH2 1544   6.057   2.356   0.158
  528TIP3    H1 1545   6.012   2.290   0.212
  528TIP3    H2 1546   6.057   2.433   0.216
  529TIP3   OH2 1547   5.043   2.358   0.558
  529TIP3    H1 1548   5.035   2.260   0.558
  529TIP3    H2 1549   5.139   2.367   0.559
  530TIP3   OH2 1550   4.749   1.561   0.372
  530TIP3    H1 1551   4.692   1.640   0.375
  530TIP3    H2 1552   4.691   1.499   0.324
  531TIP3   OH2 1553   4.803   1.849   0.524
  531TIP3    H1 1554   4.851   1.775   0.568
  531TIP3    H2 1555   4.859   1.864   0.447
  532TIP3   OH2 1556   5.627   2.790   0.194
  532TIP3    H1 1557   5.688   2.726   0.152
  532TIP3    H2 1558   5.635   2.766   0.288
  533TIP3   OH2 1559   5.568   2.278   0.517
  533TIP3    H1 1560   5.605   2.200   0.474
  533TIP3    H2 1561   5.652   2.321   0.544
  534TIP3   OH2 1562   5.956   1.735   0.569
  534TIP3    H1 1563   6.015   1.702   0.640
  534TIP3    H2 1564   6.015   1.784   0.508
  535TIP3   OH2 1565   5.280   1.414   0.506
  535TIP3    H1 1566   5.271   1.491   0.446
  535TIP3    H2 1567   5.236   1.345   0.454
  536TIP3   OH2 1568   4.953   1.659   0.644
  536TIP3    H1 1569   5.006   1.622   0.717
  536TIP3    H2 1570   4.989   1.609   0.569
  537TIP3   OH2 1571   5.393   1.836   0.415
  537TIP3    H1 1572   5.486   1.813   0.433
  537TIP3    H2 1573   5.358   1.750   0.382
  538TIP3   OH2 1574   5.309   1.424   0.954
  538TIP3    H1 1575   5.248   1.458   0.885
  538TIP3    H2 1576   5.254   1.440   1.033
  539TIP3   OH2 1577   5.681   2.288   0.021
  539TIP3    H1 1578   5.660   2.271  -0.072
  539TIP3    H2 1579   5.627   2.367   0.035
  540TIP3   OH2 1580   5.426   2.198   0.743
  540TIP3    H1 1581   5.363   2.263   0.782
  540TIP3    H2 1582   5.463   2.248   0.668
  541TIP3   OH2 1583   5.199   1.544   0.737
  541TIP3    H1 1584   5.270   1.610   0.749
  541TIP3    H2 1585   5.227   1.498   0.655
  542TIP3   OH2 1586   5.254   2.391   0.843
  542TIP3    H1 1587   5.227   2.479   0.809
  542TIP3    H2 1588   5.174   2.372   0.897
  543TIP3   OH2 1589   4.642   2.080   0.086
  543TIP3    H1 1590   4.595   2.105   0.004
  543TIP3    H2 1591   4.676   2.166   0.117
  544TIP3   OH2 1592   6.081   2.596   0.320
  544TIP3    H1 1593   5.999   2.572   0.368
  544TIP3    H2 1594   6.057   2.687   0.295
  545TIP3   OH2 1595   5.783   2.640   0.024
  545TIP3    H1 1596   5.815   2.584  -0.048
  545TIP3    H2 1597   5.785   2.728  -0.019
  546TIP3   OH2 1598   6.313   2.500   0.668
  546TIP3    H1 1599   6.294   2.423   0.610
  546TIP3    H2 1600   6.290   2.575   0.610
  547TIP3   OH2 1601   6.518   2.148   0.527
  547TIP3    H1 1602   6.428   2.185   0.537
  547TIP3    H2 1603   6.519   2.125   0.434
  548TIP3   OH2 1604   6.168   2.011   0.808
  548TIP3    H1 1605   6.177   2.097   0.851
  548TIP3    H2 1606   6.082   2.020   0.764
  549TIP3   OH2 1607   5.188   1.986   0.305
  549TIP3    H1 1608   5.137   1.925   0.247
  549TIP3    H2 1609   5.260   1.927   0.338
  550TIP3   OH2 1610   5.316   2.399   0.455
  550TIP3    H1 1611   5.289   2.353   0.374
  550TIP3    H2 1612   5.404   2.359   0.473
  551TIP3   OH2 1613   5.326   1.951   0.667
  551TIP3    H1 1614   5.350   1.929   0.574
  551TIP3    H2 1615   5.363   2.040   0.679
  552TIP3   OH2 1616   5.847   2.585   0.446
  552TIP3    H1 1617   5.833   2.669   0.495
  552TIP3    H2 1618   5.826   2.517   0.512
  553TIP3   OH2 1619   5.458   2.507   0.988
  553TIP3    H1 1620   5.396   2.569   1.034
  553TIP3    H2 1621   5.393   2.454   0.936
  554TIP3   OH2 1622   5.215   2.064   1.093
  554TIP3    H1 1623   5.216   2.153   1.135
  554TIP3    H2 1624   5.120   2.042   1.102
  555TIP3   OH2 1625   5.525   2.526  -0.012
  555TIP3    H1 1626   5.603   2.577   0.017
  555TIP3    H2 1627   5.452   2.585   0.009
  556TIP3   OH2 1628   5.251   2.673   1.076
  556TIP3    H1 1629   5.215   2.677   0.986
  556TIP3    H2 1630   5.172   2.651   1.130
  557TIP3   OH2 1631   5.044   1.826   0.132
  557TIP3    H1 1632   4.982   1.868   0.068
  557TIP3    H2 1633   5.028   1.733   0.114
  558TIP3   OH2 1634   4.830   2.208   1.021
  558TIP3    H1 1635   4.762   2.189   0.954
  558TIP3    H2 1636   4.868   2.120   1.039
  559TIP3   OH2 1637   4.683   2.404   0.646
  559TIP3    H1 1638   4.779   2.396   0.646
  559TIP3    H2 1639   4.670   2.479   0.706
  560TIP3   OH2 1640   6.550   2.856   0.714
  560TIP3    H1 1641   6.547   2.760   0.728
  560TIP3    H2 1642   6.466   2.883   0.758
  561TIP3   OH2 1643   5.653   2.635   0.845
  561TIP3    H1 1644   5.651   2.728   0.877
  561TIP3    H2 1645   5.581   2.596   0.899
  562TIP3   OH2 1646   4.850   2.613   0.183
  562TIP3    H1 1647   4.899   2.606   0.268
  562TIP3    H2 1648   4.805   2.527   0.180
  563TIP3   OH2 1649   5.034   2.390   1.005
  563TIP3    H1 1650   5.082   2.375   1.089
  563TIP3    H2 1651   4.959   2.327   1.013
  564TIP3   OH2 1652   5.384   1.193   0.789
  564TIP3    H1 1653   5.306   1.237   0.754
  564TIP3    H2 1654   5.423   1.268   0.838
  565TIP3   OH2 1655   5.972   1.344   0.987
  565TIP3    H1 1656   6.035   1.303   1.049
  565TIP3    H2 1657   5.886   1.308   1.016
  566TIP3   OH2 1658   6.255   1.769   0.908
  566TIP3    H1 1659   6.189   1.758   0.978
  566TIP3    H2 1660   6.228   1.854   0.867
  567TIP3   OH2 1661   5.381   1.737   0.821
  567TIP3    H1 1662   5.318   1.750   0.895
  567TIP3    H2 1663   5.361   1.817   0.766
  568TIP3   OH2 1664   5.257   1.615   0.317
  568TIP3    H1 1665   5.162   1.611   0.343
  568TIP3    H2 1666   5.255   1.573   0.229
  569TIP3   OH2 1667   5.911   1.977   1.140
  569TIP3    H1 1668   5.887   1.905   1.202
  569TIP3    H2 1669   6.005   1.988   1.162
  570TIP3   OH2 1670   5.186   1.758   1.014
  570TIP3    H1 1671   5.202   1.816   1.089
  570TIP3    H2 1672   5.168   1.672   1.058
  571TIP3   OH2 1673   4.856   1.232   0.618
  571TIP3    H1 1674   4.867   1.285   0.702
  571TIP3    H2 1675   4.804   1.294   0.564
  572TIP3   OH2 1676   5.900   1.968   0.709
  572TIP3    H1 1677   5.912   1.884   0.660
  572TIP3    H2 1678   5.873   1.931   0.796
  573TIP3   OH2 1679   2.534   7.458   6.417
  573TIP3    H1 1680   2.447   7.433   6.451
  573TIP3    H2 1681   2.591   7.399   6.469
  574TIP3   OH2 1682   5.014   1.535   0.402
  574TIP3    H1 1683   4.917   1.548   0.388
  574TIP3    H2 1684   5.027   1.446   0.363
  575TIP3   OH2 1685   6.243   3.201   0.816
  575TIP3    H1 1686   6.238   3.226   0.722
  575TIP3    H2 1687   6.318   3.255   0.846
  576TIP3   OH2 1688   5.196   2.314   1.230
  576TIP3    H1 1689   5.275   2.344   1.279
  576TIP3    H2 1690   5.130   2.311   1.302
  577TIP3   OH2 1691   5.653   1.774   0.497
  577TIP3    H1 1692   5.701   1.707   0.446
  577TIP3    H2 1693   5.657   1.735   0.586
  578TIP3   OH2 1694   5.639   1.665   0.772
  578TIP3    H1 1695   5.548   1.698   0.788
  578TIP3    H2 1696   5.694   1.727   0.824
  579TIP3   OH2 1697   5.322   1.977  -0.109
  579TIP3    H1 1698   5.252   1.994  -0.044
  579TIP3    H2 1699   5.390   2.032  -0.067
  580TIP3   OH2 1700   6.267   2.278   0.510
  580TIP3    H1 1701   6.301   2.313   0.425
  580TIP3    H2 1702   6.181   2.239   0.483
  581TIP3   OH2 1703   5.780   2.379   0.865
  581TIP3    H1 1704   5.790   2.348   0.956
  581TIP3    H2 1705   5.733   2.464   0.876
  582TIP3   OH2 1706   5.072   2.086   0.544
  582TIP3    H1 1707   5.108   2.047   0.462
  582TIP3    H2 1708   5.091   2.017   0.610
  583TIP3   OH2 1709   4.950   1.992   1.157
  583TIP3    H1 1710   4.959   1.977   1.253
  583TIP3    H2 1711   4.876   1.933   1.134
  584TIP3   OH2 1712   5.670   2.113   1.178
  584TIP3    H1 1713   5.604   2.052   1.141
  584TIP3    H2 1714   5.753   2.072   1.146
  585TIP3   OH2 1715   5.932   2.632   0.761
  585TIP3    H1 1716   5.836   2.629   0.778
  585TIP3    H2 1717   5.961   2.684   0.840
  586TIP3   OH2 1718   6.561   2.567   0.750
  586TIP3    H1 1719   6.464   2.558   0.735
  586TIP3    H2 1720   6.594   2.532   0.664
  587TIP3   OH2 1721   6.030   2.148   0.424
  587TIP3    H1 1722   5.933   2.139   0.428
  587TIP3    H2 1723   6.055   2.054   0.424
  588TIP3   OH2 1724   5.167   2.377   0.168
  588TIP3    H1 1725   5.155   2.463   0.121
  588TIP3    H2 1726   5.076   2.356   0.192
  589TIP3   OH2 1727   4.745   1.690  -0.111
  589TIP3    H1 1728   4.785   1.772  -0.078
  589TIP3    H2 1729   4.666   1.682  -0.055
  590TIP3   OH2 1730   5.292   2.146   0.100
  590TIP3    H1 1731   5.262   2.235   0.128
  590TIP3    H2 1732   5.267   2.093   0.179
  591TIP3   OH2 1733   5.436   2.723   0.639
  591TIP3    H1 1734   5.478   2.797   0.591
  591TIP3    H2 1735   5.512   2.687   0.688
  592TIP3   OH2 1736   5.100   2.614   0.049
  592TIP3    H1 1737   5.008   2.627   0.076
  592TIP3    H2 1738   5.128   2.707   0.033
  593TIP3   OH2 1739   5.820   2.352   0.600
  593TIP3    H1 1740   5.808   2.358   0.698
  593TIP3    H2 1741   5.902   2.299   0.595
  594TIP3   OH2 1742   6.074   2.886   0.646
  594TIP3    H1 1743   5.992   2.833   0.639
  594TIP3    H2 1744   6.055   2.959   0.584
  595TIP3   OH2 1745   5.147   1.501   1.164
  595TIP3    H1 1746   5.051   1.486   1.159
  595TIP3    H2 1747   5.172   1.444   1.239
  596TIP3   OH2 1748   4.875   2.583   0.796
  596TIP3    H1 1749   4.928   2.511   0.833
  596TIP3    H2 1750   4.896   2.655   0.856
  597TIP3   OH2 1751   5.077   2.196  -0.141
  597TIP3    H1 1752   5.145   2.206  -0.072
  597TIP3    H2 1753   5.093   2.273  -0.197
  598TIP3   OH2 1754   4.848   1.935  -0.029
  598TIP3    H1 1755   4.779   1.975   0.028
  598TIP3    H2 1756   4.852   2.001  -0.100
  599TIP3   OH2 1757   6.000   1.579   0.846
  599TIP3    H1 1758   6.086   1.593   0.885
  599TIP3    H2 1759   5.972   1.497   0.892
  600TIP3   OH2 1760   5.833   1.815   0.920
  600TIP3    H1 1761   5.858   1.862   1.002
  600TIP3    H2 1762   5.889   1.735   0.924
  601TIP3   OH2 1763   6.092   1.871   0.373
  601TIP3    H1 1764   6.072   1.902   0.282
  601TIP3    H2 1765   6.190   1.872   0.369
  602TIP3   OH2 1766   4.813   2.145  -0.211
  602TIP3    H1 1767   4.889   2.189  -0.168
  602TIP3    H2 1768   4.844   2.143  -0.304
  603TIP3   OH2 1769   6.040   2.870   0.286
  603TIP3    H1 1770   6.008   2.849   0.196
  603TIP3    H2 1771   6.135   2.882   0.267
  604TIP3   OH2 1772   4.710   2.354   0.151
  604TIP3    H1 1773   4.645   2.377   0.218
  604TIP3    H2 1774   4.669   2.392   0.070
  605TIP3   OH2 1775   4.866   2.899   1.219
  605TIP3    H1 1776   4.952   2.899   1.267
  605TIP3    H2 1777   4.845   2.805   1.220
  606TIP3   OH2 1778   5.343   2.855   1.267
  606TIP3    H1 1779   5.438   2.838   1.270
  606TIP3    H2 1780   5.316   2.794   1.195
  607TIP3   OH2 1781   5.989   2.763   0.996
  607TIP3    H1 1782   5.978   2.696   1.067
  607TIP3    H2 1783   6.062   2.818   1.031
  608TIP3   OH2 1784   4.994   2.301   1.420
  608TIP3    H1 1785   5.009   2.204   1.427
  608TIP3    H2 1786   4.907   2.304   1.375
  609TIP3   OH2 1787   5.602   2.389   1.194
  609TIP3    H1 1788   5.557   2.408   1.110
  609TIP3    H2 1789   5.629   2.295   1.184
  610TIP3   OH2 1790   6.094   2.393   0.807
  610TIP3    H1 1791   6.164   2.445   0.762
  610TIP3    H2 1792   6.018   2.453   0.798
  611TIP3   OH2 1793   5.114   2.038   1.408
  611TIP3    H1 1794   5.190   1.988   1.378
  611TIP3    H2 1795   5.145   2.071   1.494
  612TIP3   OH2 1796   5.456   1.928   1.075
  612TIP3    H1 1797   5.372   1.979   1.071
  612TIP3    H2 1798   5.502   1.959   0.993
  613TIP3   OH2 1799   5.969   2.325   1.202
  613TIP3    H1 1800   6.037   2.282   1.149
  613TIP3    H2 1801   5.954   2.259   1.273
  614TIP3   OH2 1802   5.576   1.709   1.187
  614TIP3    H1 1803   5.570   1.630   1.130
  614TIP3    H2 1804   5.531   1.778   1.133
  615TIP3   OH2 1805   5.569   1.492   0.995
  615TIP3    H1 1806   5.593   1.538   0.913
  615TIP3    H2 1807   5.474   1.473   0.981
  616TIP3   OH2 1808   5.600   2.034   0.874
  616TIP3    H1 1809   5.680   2.040   0.821
  616TIP3    H2 1810   5.540   2.097   0.828
  617TIP3   OH2 1811   6.166   1.998   1.254
  617TIP3    H1 1812   6.211   1.914   1.274
  617TIP3    H2 1813   6.238   2.057   1.228
  618TIP3   OH2 1814   6.235   2.253   0.990
  618TIP3    H1 1815   6.175   2.304   0.931
  618TIP3    H2 1816   6.320   2.263   0.943
  619TIP3   OH2 1817   5.454   1.815   1.425
  619TIP3    H1 1818   5.386   1.746   1.440
  619TIP3    H2 1819   5.484   1.793   1.335
  620TIP3   OH2 1820   5.711   1.258   1.063
  620TIP3    H1 1821   5.659   1.338   1.044
  620TIP3    H2 1822   5.641   1.189   1.057
  621TIP3   OH2 1823   5.834   1.758   1.279
  621TIP3    H1 1824   5.816   1.742   1.374
  621TIP3    H2 1825   5.746   1.735   1.243
  622TIP3   OH2 1826   6.082   1.716   1.122
  622TIP3    H1 1827   6.005   1.713   1.182
  622TIP3    H2 1828   6.154   1.682   1.178
  623TIP3   OH2 1829   6.311   1.656   1.271
  623TIP3    H1 1830   6.321   1.561   1.293
  623TIP3    H2 1831   6.305   1.696   1.361
  624TIP3   OH2 1832   5.290   1.596   1.476
  624TIP3    H1 1833   5.292   1.505   1.440
  624TIP3    H2 1834   5.327   1.581   1.566
  625TIP3   OH2 1835   5.795   1.271   1.327
  625TIP3    H1 1836   5.861   1.199   1.321
  625TIP3    H2 1837   5.759   1.268   1.236
  626TIP3   OH2 1838   5.871   1.484   1.483
  626TIP3    H1 1839   5.848   1.412   1.420
  626TIP3    H2 1840   5.791   1.541   1.477
  627TIP3   OH2 1841   4.550   2.085  -0.187
  627TIP3    H1 1842   4.641   2.121  -0.198
  627TIP3    H2 1843   4.561   1.996  -0.223
  628TIP3   OH2 1844   4.486   2.707   0.209
  628TIP3    H1 1845   4.418   2.644   0.175
  628TIP3    H2 1846   4.530   2.650   0.276
  629TIP3   OH2 1847   4.616   2.556   0.401
  629TIP3    H1 1848   4.603   2.484   0.465
  629TIP3    H2 1849   4.670   2.617   0.455
  630TIP3   OH2 1850   6.305   2.889   0.221
  630TIP3    H1 1851   6.339   2.936   0.300
  630TIP3    H2 1852   6.387   2.878   0.169
  631TIP3   OH2 1853   6.369   2.971   0.486
  631TIP3    H1 1854   6.333   2.881   0.500
  631TIP3    H2 1855   6.455   2.962   0.531
  632TIP3   OH2 1856   6.423   2.649   1.056
  632TIP3    H1 1857   6.350   2.660   1.121
  632TIP3    H2 1858   6.463   2.738   1.059
  633TIP3   OH2 1859   6.427   2.376   0.309
  633TIP3    H1 1860   6.469   2.334   0.233
  633TIP3    H2 1861   6.413   2.466   0.272
  634TIP3   OH2 1862   6.248   2.719   0.512
  634TIP3    H1 1863   6.179   2.768   0.561
  634TIP3    H2 1864   6.197   2.678   0.440
  635TIP3   OH2 1865   4.802   1.970   0.774
  635TIP3    H1 1866   4.798   1.934   0.683
  635TIP3    H2 1867   4.899   1.967   0.790
  636TIP3   OH2 1868   6.490   2.300   0.868
  636TIP3    H1 1869   6.540   2.257   0.796
  636TIP3    H2 1870   6.476   2.388   0.829
  637TIP3   OH2 1871   5.023   1.653   1.454
  637TIP3    H1 1872   5.121   1.644   1.451
  637TIP3    H2 1873   4.998   1.564   1.486
  638TIP3   OH2 1874   6.831   1.545   1.156
  638TIP3    H1 1875   6.888   1.473   1.189
  638TIP3    H2 1876   6.897   1.599   1.109
  639TIP3   OH2 1877   6.629   1.711   1.028
  639TIP3    H1 1878   6.579   1.629   1.048
  639TIP3    H2 1879   6.711   1.669   0.988
  640TIP3   OH2 1880   4.700   1.161   0.387
  640TIP3    H1 1881   4.607   1.156   0.416
  640TIP3    H2 1882   4.693   1.216   0.307
  641TIP3   OH2 1883   4.996   1.196   1.163
  641TIP3    H1 1884   4.925   1.223   1.222
  641TIP3    H2 1885   4.972   1.243   1.080
  642TIP3   OH2 1886   5.031   2.628   1.240
  642TIP3    H1 1887   4.938   2.604   1.223
  642TIP3    H2 1888   5.039   2.609   1.334
  643TIP3   OH2 1889   5.211   2.662   0.789
  643TIP3    H1 1890   5.161   2.737   0.750
  643TIP3    H2 1891   5.296   2.677   0.743
  644TIP3   OH2 1892   5.651   2.902   0.924
  644TIP3    H1 1893   5.691   2.902   1.013
  644TIP3    H2 1894   5.715   2.956   0.874
  645TIP3   OH2 1895   5.830   3.058   0.789
  645TIP3    H1 1896   5.902   3.008   0.748
  645TIP3    H2 1897   5.881   3.117   0.849
  646TIP3   OH2 1898   4.885   2.919   0.813
  646TIP3    H1 1899   4.794   2.950   0.791
  646TIP3    H2 1900   4.897   2.962   0.899
  647TIP3   OH2 1901   5.121   2.896   0.672
  647TIP3    H1 1902   5.034   2.908   0.717
  647TIP3    H2 1903   5.101   2.928   0.582
  648TIP3   OH2 1904   5.548   2.920   0.473
  648TIP3    H1 1905   5.477   2.934   0.407
  648TIP3    H2 1906   5.556   3.010   0.511
  649TIP3   OH2 1907   5.814   2.860   0.524
  649TIP3    H1 1908   5.719   2.877   0.508
  649TIP3    H2 1909   5.854   2.939   0.486
  650TIP3   OH2 1910   6.018   3.080   0.456
  650TIP3    H1 1911   6.005   3.159   0.399
  650TIP3    H2 1912   6.024   3.009   0.388
  651TIP3   OH2 1913   4.798   2.711   0.556
  651TIP3    H1 1914   4.823   2.682   0.646
  651TIP3    H2 1915   4.868   2.666   0.505
  652TIP3   OH2 1916   4.991   2.583   0.415
  652TIP3    H1 1917   5.005   2.500   0.466
  652TIP3    H2 1918   5.083   2.617   0.410
  653TIP3   OH2 1919   5.260   2.675   0.422
  653TIP3    H1 1920   5.288   2.582   0.412
  653TIP3    H2 1921   5.306   2.696   0.505
  654TIP3   OH2 1922   4.579   2.473  -0.048
  654TIP3    H1 1923   4.497   2.436  -0.087
  654TIP3    H2 1924   4.567   2.567  -0.066
  655TIP3   OH2 1925   5.286   1.320   1.416
  655TIP3    H1 1926   5.252   1.246   1.469
  655TIP3    H2 1927   5.381   1.319   1.443
  656TIP3   OH2 1928   5.539   1.321   1.531
  656TIP3    H1 1929   5.622   1.293   1.488
  656TIP3    H2 1930   5.526   1.251   1.598
  657TIP3   OH2 1931   6.355   1.388   1.332
  657TIP3    H1 1932   6.363   1.355   1.424
  657TIP3    H2 1933   6.449   1.376   1.302
  658TIP3   OH2 1934   6.302   2.932   0.809
  658TIP3    H1 1935   6.223   2.902   0.760
  658TIP3    H2 1936   6.282   3.028   0.817
  659TIP3   OH2 1937   6.823   2.233   0.380
  659TIP3    H1 1938   6.903   2.179   0.382
  659TIP3    H2 1939   6.847   2.302   0.313
  660TIP3   OH2 1940   6.979   2.380   0.586
  660TIP3    H1 1941   6.972   2.467   0.631
  660TIP3    H2 1942   6.884   2.355   0.579
  661TIP3   OH2 1943   7.039   2.942   0.592
  661TIP3    H1 1944   7.008   2.914   0.505
  661TIP3    H2 1945   6.958   2.925   0.646
  662TIP3   OH2 1946   6.631   2.470   0.502
  662TIP3    H1 1947   6.562   2.441   0.439
  662TIP3    H2 1948   6.662   2.384   0.536
  663TIP3   OH2 1949   6.478   2.603   0.168
  663TIP3    H1 1950   6.575   2.609   0.161
  663TIP3    H2 1951   6.456   2.692   0.200
  664TIP3   OH2 1952   6.826   2.674   0.486
  664TIP3    H1 1953   6.868   2.664   0.574
  664TIP3    H2 1954   6.759   2.602   0.488
  665TIP3   OH2 1955   6.961   2.611   0.726
  665TIP3    H1 1956   7.048   2.593   0.765
  665TIP3    H2 1957   6.904   2.598   0.805
  666TIP3   OH2 1958   6.723   2.271   0.671
  666TIP3    H1 1959   6.778   2.227   0.738
  666TIP3    H2 1960   6.688   2.197   0.617
  667TIP3   OH2 1961   6.667   2.831   0.320
  667TIP3    H1 1962   6.727   2.784   0.382
  667TIP3    H2 1963   6.675   2.925   0.345
  668TIP3   OH2 1964   6.663   3.152   0.711
  668TIP3    H1 1965   6.751   3.137   0.750
  668TIP3    H2 1966   6.631   3.060   0.704
  669TIP3   OH2 1967   6.776   2.563   0.921
  669TIP3    H1 1968   6.781   2.470   0.947
  669TIP3    H2 1969   6.692   2.566   0.871
  670TIP3   OH2 1970   6.884   2.231   0.917
  670TIP3    H1 1971   6.973   2.207   0.889
  670TIP3    H2 1972   6.903   2.301   0.983
  671TIP3   OH2 1973   6.819   2.895   0.744
  671TIP3    H1 1974   6.728   2.868   0.719
  671TIP3    H2 1975   6.823   2.863   0.835
  672TIP3   OH2 1976   6.665   3.115   0.347
  672TIP3    H1 1977   6.597   3.163   0.297
  672TIP3    H2 1978   6.690   3.184   0.410
  673TIP3   OH2 1979   0.275   3.432   1.337
  673TIP3    H1 1980   0.347   3.381   1.298
  673TIP3    H2 1981   0.321   3.491   1.400
  674TIP3   OH2 1982  -0.055   3.839   1.378
  674TIP3    H1 1983   0.011   3.769   1.361
  674TIP3    H2 1984  -0.060   3.835   1.475
  675TIP3   OH2 1985   0.837   2.649   1.705
  675TIP3    H1 1986   0.875   2.728   1.751
  675TIP3    H2 1987   0.866   2.665   1.614
  676TIP3   OH2 1988   0.919   2.854   1.869
  676TIP3    H1 1989   0.838   2.904   1.845
  676TIP3    H2 1990   0.913   2.856   1.965
  677TIP3   OH2 1991   0.334   3.624   1.530
  677TIP3    H1 1992   0.238   3.616   1.550
  677TIP3    H2 1993   0.336   3.708   1.478
  678TIP3   OH2 1994   0.658   2.547   1.889
  678TIP3    H1 1995   0.568   2.556   1.855
  678TIP3    H2 1996   0.711   2.572   1.811
  679TIP3   OH2 1997   0.558   3.555   1.846
  679TIP3    H1 1998   0.550   3.477   1.786
  679TIP3    H2 1999   0.546   3.629   1.782
  680TIP3   OH2 2000   0.756   3.205   1.719
  680TIP3    H1 2001   0.674   3.255   1.698
  680TIP3    H2 2002   0.779   3.166   1.632
  681TIP3   OH2 2003   0.435   3.072   1.990
  681TIP3    H1 2004   0.433   3.156   2.040
  681TIP3    H2 2005   0.350   3.077   1.942
  682TIP3   OH2 2006   0.065   3.638   1.611
  682TIP3    H1 2007   0.077   3.711   1.676
  682TIP3    H2 2008   0.068   3.558   1.669
  683TIP3   OH2 2009  -0.295   3.528   2.197
  683TIP3    H1 2010  -0.350   3.607   2.191
  683TIP3    H2 2011  -0.326   3.482   2.118
  684TIP3   OH2 2012   0.794   3.898   1.886
  684TIP3    H1 2013   0.795   3.801   1.900
  684TIP3    H2 2014   0.711   3.921   1.934
  685TIP3   OH2 2015  -0.079   3.673   2.027
  685TIP3    H1 2016  -0.086   3.769   2.047
  685TIP3    H2 2017  -0.162   3.640   2.063
  686TIP3   OH2 2018   0.681   3.025   2.163
  686TIP3    H1 2019   0.611   3.032   2.097
  686TIP3    H2 2020   0.706   2.930   2.152
  687TIP3   OH2 2021   0.446   2.807   2.073
  687TIP3    H1 2022   0.397   2.795   2.157
  687TIP3    H2 2023   0.434   2.901   2.053
  688TIP3   OH2 2024   0.168   3.030   2.326
  688TIP3    H1 2025   0.144   2.951   2.381
  688TIP3    H2 2026   0.265   3.032   2.340
  689TIP3   OH2 2027   0.172   3.045   1.889
  689TIP3    H1 2028   0.177   2.965   1.833
  689TIP3    H2 2029   0.142   3.002   1.972
  690TIP3   OH2 2030   0.487   4.255   1.984
  690TIP3    H1 2031   0.495   4.263   1.887
  690TIP3    H2 2032   0.572   4.293   2.015
  691TIP3   OH2 2033   0.526   3.351   1.675
  691TIP3    H1 2034   0.553   3.398   1.592
  691TIP3    H2 2035   0.437   3.316   1.651
  692TIP3   OH2 2036   0.010   3.408   2.040
  692TIP3    H1 2037   0.053   3.397   2.126
  692TIP3    H2 2038  -0.012   3.503   2.039
  693TIP3   OH2 2039  -0.075   3.151   2.344
  693TIP3    H1 2040  -0.109   3.131   2.254
  693TIP3    H2 2041   0.015   3.113   2.335
  694TIP3   OH2 2042   0.183   3.697   1.934
  694TIP3    H1 2043   0.089   3.678   1.950
  694TIP3    H2 2044   0.206   3.742   2.018
  695TIP3   OH2 2045   0.810   3.612   1.925
  695TIP3    H1 2046   0.713   3.602   1.920
  695TIP3    H2 2047   0.836   3.578   1.837
  696TIP3   OH2 2048   0.295   3.221   1.615
  696TIP3    H1 2049   0.264   3.147   1.669
  696TIP3    H2 2050   0.331   3.173   1.538
  697TIP3   OH2 2051  -0.282   3.779   1.819
  697TIP3    H1 2052  -0.261   3.840   1.746
  697TIP3    H2 2053  -0.199   3.731   1.830
  698TIP3   OH2 2054   0.103   3.418   1.776
  698TIP3    H1 2055   0.070   3.394   1.865
  698TIP3    H2 2056   0.178   3.358   1.765
  699TIP3   OH2 2057   0.315   3.941   1.833
  699TIP3    H1 2058   0.243   3.875   1.830
  699TIP3    H2 2059   0.298   3.994   1.752
  700TIP3   OH2 2060   0.106   2.875   2.103
  700TIP3    H1 2061   0.119   2.936   2.178
  700TIP3    H2 2062   0.139   2.793   2.143
  701TIP3   OH2 2063   0.718   2.764   2.079
  701TIP3    H1 2064   0.620   2.766   2.079
  701TIP3    H2 2065   0.732   2.694   2.014
  702TIP3   OH2 2066   0.360   3.866   1.419
  702TIP3    H1 2067   0.317   3.934   1.363
  702TIP3    H2 2068   0.453   3.892   1.405
  703TIP3   OH2 2069  -0.371   3.935   2.383
  703TIP3    H1 2070  -0.301   3.931   2.450
  703TIP3    H2 2071  -0.339   3.877   2.314
  704TIP3   OH2 2072   0.225   3.816   2.185
  704TIP3    H1 2073   0.226   3.743   2.249
  704TIP3    H2 2074   0.308   3.865   2.206
  705TIP3   OH2 2075  -0.121   3.419   2.386
  705TIP3    H1 2076  -0.172   3.453   2.309
  705TIP3    H2 2077  -0.101   3.327   2.359
  706TIP3   OH2 2078   0.343   3.449   1.982
  706TIP3    H1 2079   0.423   3.486   1.939
  706TIP3    H2 2080   0.275   3.509   1.946
  707TIP3   OH2 2081   0.225   3.371   2.379
  707TIP3    H1 2082   0.296   3.340   2.320
  707TIP3    H2 2083   0.220   3.298   2.443
  708TIP3   OH2 2084  -0.130   3.110   2.084
  708TIP3    H1 2085  -0.077   3.051   2.028
  708TIP3    H2 2086  -0.163   3.173   2.019
  709TIP3   OH2 2087   0.433   3.040   2.429
  709TIP3    H1 2088   0.471   2.952   2.443
  709TIP3    H2 2089   0.506   3.085   2.384
  710TIP3   OH2 2090   0.469   3.303   2.172
  710TIP3    H1 2091   0.417   3.357   2.108
  710TIP3    H2 2092   0.559   3.316   2.134
  711TIP3   OH2 2093  -0.270   2.862   2.565
  711TIP3    H1 2094  -0.362   2.849   2.595
  711TIP3    H2 2095  -0.263   2.805   2.487
  712TIP3   OH2 2096   0.080   2.810   2.462
  712TIP3    H1 2097   0.081   2.805   2.559
  712TIP3    H2 2098   0.021   2.735   2.444
  713TIP3   OH2 2099   0.319   2.768   2.313
  713TIP3    H1 2100   0.254   2.752   2.383
  713TIP3    H2 2101   0.401   2.735   2.357
  714TIP3   OH2 2102   0.537   2.700   2.461
  714TIP3    H1 2103   0.552   2.604   2.474
  714TIP3    H2 2104   0.547   2.734   2.553
  715TIP3   OH2 2105   0.114   2.536   2.615
  715TIP3    H1 2106   0.078   2.448   2.636
  715TIP3    H2 2107   0.037   2.592   2.638
  716TIP3   OH2 2108   0.595   3.998   1.384
  716TIP3    H1 2109   0.629   4.042   1.464
  716TIP3    H2 2110   0.651   4.036   1.315
  717TIP3   OH2 2111   0.622   4.024   1.669
  717TIP3    H1 2112   0.577   3.938   1.660
  717TIP3    H2 2113   0.700   3.996   1.720
  718TIP3   OH2 2114   0.669   3.701   2.229
  718TIP3    H1 2115   0.601   3.713   2.298
  718TIP3    H2 2116   0.716   3.787   2.233
  719TIP3   OH2 2117   0.661   3.473   1.475
  719TIP3    H1 2118   0.723   3.402   1.445
  719TIP3    H2 2119   0.676   3.543   1.409
  720TIP3   OH2 2120   0.503   3.775   1.685
  720TIP3    H1 2121   0.427   3.807   1.736
  720TIP3    H2 2122   0.460   3.720   1.618
  721TIP3   OH2 2123   0.716   3.359   2.061
  721TIP3    H1 2124   0.786   3.290   2.054
  721TIP3    H2 2125   0.742   3.420   1.990
  722TIP3   OH2 2126   0.900   3.163   2.080
  722TIP3    H1 2127   0.825   3.108   2.112
  722TIP3    H2 2128   0.974   3.100   2.094
  723TIP3   OH2 2129   0.567   2.877   1.605
  723TIP3    H1 2130   0.641   2.891   1.544
  723TIP3    H2 2131   0.613   2.884   1.690
  724TIP3   OH2 2132   0.670   2.979   1.841
  724TIP3    H1 2133   0.585   3.010   1.876
  724TIP3    H2 2134   0.704   3.060   1.797
  725TIP3   OH2 2135   1.144   2.592   2.382
  725TIP3    H1 2136   1.130   2.497   2.366
  725TIP3    H2 2137   1.099   2.631   2.305
  726TIP3   OH2 2138   0.979   2.700   2.181
  726TIP3    H1 2139   0.888   2.732   2.200
  726TIP3    H2 2140   0.956   2.618   2.132
  727TIP3   OH2 2141   0.231   3.867   0.903
  727TIP3    H1 2142   0.152   3.813   0.919
  727TIP3    H2 2143   0.208   3.948   0.949
  728TIP3   OH2 2144  -0.443   3.641   1.995
  728TIP3    H1 2145  -0.462   3.732   2.027
  728TIP3    H2 2146  -0.381   3.662   1.921
  729TIP3   OH2 2147  -0.093   3.937   2.096
  729TIP3    H1 2148  -0.053   3.940   2.185
  729TIP3    H2 2149  -0.028   3.991   2.045
  730TIP3   OH2 2150   0.078   4.099   1.960
  730TIP3    H1 2151   0.149   4.052   1.915
  730TIP3    H2 2152   0.131   4.156   2.020
  731TIP3   OH2 2153   0.864   2.486   2.057
  731TIP3    H1 2154   0.784   2.485   2.001
  731TIP3    H2 2155   0.894   2.392   2.049
  732TIP3   OH2 2156  -0.204   3.967   1.626
  732TIP3    H1 2157  -0.282   3.987   1.575
  732TIP3    H2 2158  -0.193   4.049   1.682
  733TIP3   OH2 2159   0.062   3.907   1.699
  733TIP3    H1 2160  -0.027   3.936   1.676
  733TIP3    H2 2161   0.118   3.976   1.657
  734TIP3   OH2 2162   0.260   4.083   1.601
  734TIP3    H1 2163   0.255   4.176   1.568
  734TIP3    H2 2164   0.299   4.040   1.523
  735TIP3   OH2 2165   0.596   2.434   2.501
  735TIP3    H1 2166   0.624   2.402   2.589
  735TIP3    H2 2167   0.682   2.440   2.453
  736TIP3   OH2 2168   0.545   3.982   1.991
  736TIP3    H1 2169   0.469   3.952   1.937
  736TIP3    H2 2170   0.526   4.078   1.996
  737TIP3   OH2 2171   1.820   3.353   0.752
  737TIP3    H1 2172   1.784   3.441   0.730
  737TIP3    H2 2173   1.749   3.296   0.718
  738TIP3   OH2 2174   1.813   3.353   1.140
  738TIP3    H1 2175   1.850   3.325   1.226
  738TIP3    H2 2176   1.777   3.270   1.106
  739TIP3   OH2 2177   1.111   3.242   1.499
  739TIP3    H1 2178   1.137   3.172   1.562
  739TIP3    H2 2179   1.195   3.289   1.489
  740TIP3   OH2 2180   2.062   3.656   0.817
  740TIP3    H1 2181   2.044   3.584   0.879
  740TIP3    H2 2182   2.092   3.727   0.876
  741TIP3   OH2 2183   1.087   3.659   1.224
  741TIP3    H1 2184   1.080   3.561   1.224
  741TIP3    H2 2185   1.184   3.669   1.220
  742TIP3   OH2 2186   0.869   3.163   1.185
  742TIP3    H1 2187   0.906   3.079   1.221
  742TIP3    H2 2188   0.918   3.171   1.103
  743TIP3   OH2 2189   1.713   4.116   0.835
  743TIP3    H1 2190   1.753   4.045   0.781
  743TIP3    H2 2191   1.705   4.072   0.921
  744TIP3   OH2 2192   1.614   3.578   1.182
  744TIP3    H1 2193   1.656   3.498   1.145
  744TIP3    H2 2194   1.696   3.626   1.206
  745TIP3   OH2 2195   2.631   2.895   1.182
  745TIP3    H1 2196   2.661   2.980   1.220
  745TIP3    H2 2197   2.651   2.908   1.087
  746TIP3   OH2 2198   2.029   3.077   1.212
  746TIP3    H1 2199   2.070   2.991   1.233
  746TIP3    H2 2200   1.994   3.060   1.123
  747TIP3   OH2 2201   1.367   2.737   1.173
  747TIP3    H1 2202   1.346   2.811   1.114
  747TIP3    H2 2203   1.308   2.669   1.134
  748TIP3   OH2 2204   2.072   2.841   0.804
  748TIP3    H1 2205   2.143   2.819   0.869
  748TIP3    H2 2206   2.127   2.867   0.728
  749TIP3   OH2 2207   1.004   2.944   1.272
  749TIP3    H1 2208   1.086   2.910   1.312
  749TIP3    H2 2209   0.971   2.865   1.224
  750TIP3   OH2 2210   1.438   3.135   1.087
  750TIP3    H1 2211   1.533   3.111   1.097
  750TIP3    H2 2212   1.399   3.051   1.055
  751TIP3   OH2 2213   2.706   3.107   1.349
  751TIP3    H1 2214   2.620   3.151   1.328
  751TIP3    H2 2215   2.714   3.130   1.443
  752TIP3   OH2 2216   1.362   2.723   1.615
  752TIP3    H1 2217   1.298   2.754   1.549
  752TIP3    H2 2218   1.309   2.736   1.697
  753TIP3   OH2 2219   1.699   3.569   0.626
  753TIP3    H1 2220   1.669   3.559   0.535
  753TIP3    H2 2221   1.657   3.654   0.650
  754TIP3   OH2 2222   1.470   3.498   1.405
  754TIP3    H1 2223   1.409   3.565   1.443
  754TIP3    H2 2224   1.511   3.546   1.331
  755TIP3   OH2 2225   2.277   2.834   0.980
  755TIP3    H1 2226   2.264   2.782   1.060
  755TIP3    H2 2227   2.326   2.912   1.013
  756TIP3   OH2 2228   1.234   2.835   1.392
  756TIP3    H1 2229   1.296   2.906   1.420
  756TIP3    H2 2230   1.285   2.794   1.319
  757TIP3   OH2 2231   1.297   3.694   1.508
  757TIP3    H1 2232   1.270   3.781   1.472
  757TIP3    H2 2233   1.218   3.673   1.562
  758TIP3   OH2 2234   2.129   3.900   0.984
  758TIP3    H1 2235   2.039   3.889   1.023
  758TIP3    H2 2236   2.119   3.985   0.938
  759TIP3   OH2 2237   2.422   2.797   1.348
  759TIP3    H1 2238   2.334   2.820   1.314
  759TIP3    H2 2239   2.481   2.829   1.277
  760TIP3   OH2 2240   1.721   2.436   1.324
  760TIP3    H1 2241   1.704   2.343   1.350
  760TIP3    H2 2242   1.650   2.481   1.375
  761TIP3   OH2 2243   1.825   3.942   0.651
  761TIP3    H1 2244   1.875   3.858   0.635
  761TIP3    H2 2245   1.891   4.005   0.615
  762TIP3   OH2 2246   1.970   3.727   0.568
  762TIP3    H1 2247   1.947   3.644   0.523
  762TIP3    H2 2248   2.009   3.693   0.652
  763TIP3   OH2 2249   2.355   3.807   1.326
  763TIP3    H1 2250   2.342   3.729   1.268
  763TIP3    H2 2251   2.338   3.882   1.264
  764TIP3   OH2 2252   1.655   3.198   0.587
  764TIP3    H1 2253   1.579   3.253   0.561
  764TIP3    H2 2254   1.701   3.184   0.501
  765TIP3   OH2 2255   2.551   3.450   1.175
  765TIP3    H1 2256   2.465   3.499   1.178
  765TIP3    H2 2257   2.579   3.472   1.084
  766TIP3   OH2 2258   2.000   3.290   0.556
  766TIP3    H1 2259   1.944   3.310   0.635
  766TIP3    H2 2260   2.083   3.260   0.599
  767TIP3   OH2 2261   2.229   3.322   1.471
  767TIP3    H1 2262   2.224   3.405   1.521
  767TIP3    H2 2263   2.142   3.325   1.425
  768TIP3   OH2 2264   1.237   3.279   0.977
  768TIP3    H1 2265   1.205   3.202   0.928
  768TIP3    H2 2266   1.317   3.240   1.020
  769TIP3   OH2 2267   1.359   3.698   1.120
  769TIP3    H1 2268   1.337   3.658   1.035
  769TIP3    H2 2269   1.448   3.659   1.138
  770TIP3   OH2 2270   1.362   3.253   1.332
  770TIP3    H1 2271   1.397   3.226   1.245
  770TIP3    H2 2272   1.406   3.340   1.347
  771TIP3   OH2 2273   1.887   3.892   1.104
  771TIP3    H1 2274   1.877   3.970   1.161
  771TIP3    H2 2275   1.872   3.818   1.166
  772TIP3   OH2 2276   1.503   3.811   1.650
  772TIP3    H1 2277   1.441   3.871   1.697
  772TIP3    H2 2278   1.439   3.757   1.600
  773TIP3   OH2 2279   1.835   3.157   0.382
  773TIP3    H1 2280   1.895   3.215   0.434
  773TIP3    H2 2281   1.861   3.180   0.290
  774TIP3   OH2 2282   1.259   3.367   1.755
  774TIP3    H1 2283   1.261   3.455   1.799
  774TIP3    H2 2284   1.165   3.343   1.768
  775TIP3   OH2 2285   1.578   3.821   0.652
  775TIP3    H1 2286   1.662   3.869   0.663
  775TIP3    H2 2287   1.520   3.890   0.616
  776TIP3   OH2 2288   1.295   3.977   1.738
  776TIP3    H1 2289   1.260   3.979   1.647
  776TIP3    H2 2290   1.214   3.957   1.790
  777TIP3   OH2 2291   2.149   3.757  -0.026
  777TIP3    H1 2292   2.164   3.852  -0.043
  777TIP3    H2 2293   2.240   3.722  -0.030
  778TIP3   OH2 2294   0.873   3.507   1.684
  778TIP3    H1 2295   0.812   3.480   1.613
  778TIP3    H2 2296   0.914   3.422   1.710
  779TIP3   OH2 2297   0.730   3.702   1.315
  779TIP3    H1 2298   0.825   3.688   1.303
  779TIP3    H2 2299   0.730   3.780   1.374
  780TIP3   OH2 2300   2.591   4.155   1.374
  780TIP3    H1 2301   2.592   4.059   1.389
  780TIP3    H2 2302   2.509   4.180   1.421
  781TIP3   OH2 2303   1.697   3.940   1.507
  781TIP3    H1 2304   1.694   4.032   1.541
  781TIP3    H2 2305   1.626   3.898   1.561
  782TIP3   OH2 2306   1.458   4.063   0.456
  782TIP3    H1 2307   1.411   4.055   0.372
  782TIP3    H2 2308   1.430   4.151   0.488
  783TIP3   OH2 2309   0.907   3.928   0.849
  783TIP3    H1 2310   0.952   3.916   0.935
  783TIP3    H2 2311   0.861   3.841   0.842
  784TIP3   OH2 2312   1.651   3.958   0.115
  784TIP3    H1 2313   1.713   3.905   0.060
  784TIP3    H2 2314   1.701   3.969   0.198
  785TIP3   OH2 2315   1.717   4.023   0.379
  785TIP3    H1 2316   1.626   4.030   0.414
  785TIP3    H2 2317   1.763   3.980   0.453
  786TIP3   OH2 2318   2.481   3.283   1.648
  786TIP3    H1 2319   2.397   3.292   1.600
  786TIP3    H2 2320   2.499   3.187   1.639
  787TIP3   OH2 2321   1.076   3.693   1.672
  787TIP3    H1 2322   1.128   3.674   1.753
  787TIP3    H2 2323   1.004   3.628   1.678
  788TIP3   OH2 2324   1.504   2.529   1.469
  788TIP3    H1 2325   1.423   2.494   1.425
  788TIP3    H2 2326   1.465   2.607   1.514
  789TIP3   OH2 2327   2.013   2.631   1.652
  789TIP3    H1 2328   2.081   2.601   1.716
  789TIP3    H2 2329   1.929   2.611   1.699
  790TIP3   OH2 2330   2.252   3.061   1.574
  790TIP3    H1 2331   2.198   3.057   1.657
  790TIP3    H2 2332   2.225   3.146   1.536
  791TIP3   OH2 2333   1.911   3.205   0.128
  791TIP3    H1 2334   1.911   3.130   0.068
  791TIP3    H2 2335   1.991   3.253   0.098
  792TIP3   OH2 2336   1.412   3.031   1.478
  792TIP3    H1 2337   1.358   3.049   1.559
  792TIP3    H2 2338   1.394   3.113   1.427
  793TIP3   OH2 2339   1.291   2.921   0.979
  793TIP3    H1 2340   1.216   2.857   0.984
  793TIP3    H2 2341   1.332   2.889   0.898
  794TIP3   OH2 2342   1.794   3.004   0.727
  794TIP3    H1 2343   1.740   3.072   0.680
  794TIP3    H2 2344   1.848   2.969   0.654
  795TIP3   OH2 2345   1.959   3.279   1.804
  795TIP3    H1 2346   1.937   3.206   1.867
  795TIP3    H2 2347   2.054   3.292   1.826
  796TIP3   OH2 2348   1.940   3.031   0.958
  796TIP3    H1 2349   1.877   3.050   0.885
  796TIP3    H2 2350   1.983   2.953   0.916
  797TIP3   OH2 2351   1.230   3.057   1.683
  797TIP3    H1 2352   1.261   3.115   1.754
  797TIP3    H2 2353   1.213   2.974   1.731
  798TIP3   OH2 2354   1.953   3.275   1.377
  798TIP3    H1 2355   1.986   3.203   1.318
  798TIP3    H2 2356   1.922   3.221   1.453
  799TIP3   OH2 2357   1.627   2.741   1.048
  799TIP3    H1 2358   1.543   2.726   1.097
  799TIP3    H2 2359   1.692   2.735   1.120
  800TIP3   OH2 2360   2.113   2.815   1.258
  800TIP3    H1 2361   2.077   2.829   1.348
  800TIP3    H2 2362   2.048   2.752   1.222
  801TIP3   OH2 2363   2.286   4.505   1.475
  801TIP3    H1 2364   2.285   4.527   1.380
  801TIP3    H2 2365   2.368   4.550   1.505
  802TIP3   OH2 2366   1.240   3.618   1.893
  802TIP3    H1 2367   1.321   3.644   1.942
  802TIP3    H2 2368   1.177   3.610   1.968
  803TIP3   OH2 2369   1.700   3.070   1.150
  803TIP3    H1 2370   1.770   3.028   1.098
  803TIP3    H2 2371   1.706   3.023   1.235
  804TIP3   OH2 2372   1.680   2.970   1.433
  804TIP3    H1 2373   1.589   3.001   1.452
  804TIP3    H2 2374   1.736   3.030   1.486
  805TIP3   OH2 2375   1.429   3.355   0.535
  805TIP3    H1 2376   1.345   3.309   0.526
  805TIP3    H2 2377   1.417   3.396   0.625
  806TIP3   OH2 2378   2.315   3.591   1.160
  806TIP3    H1 2379   2.338   3.642   1.079
  806TIP3    H2 2380   2.231   3.547   1.134
  807TIP3   OH2 2381   1.864   2.708   0.361
  807TIP3    H1 2382   1.790   2.677   0.414
  807TIP3    H2 2383   1.896   2.784   0.413
  808TIP3   OH2 2384   1.818   3.675   1.529
  808TIP3    H1 2385   1.846   3.651   1.618
  808TIP3    H2 2386   1.777   3.763   1.542
  809TIP3   OH2 2387   1.949   2.929   0.508
  809TIP3    H1 2388   2.046   2.936   0.521
  809TIP3    H2 2389   1.928   3.006   0.453
  810TIP3   OH2 2390   1.117   3.389   1.207
  810TIP3    H1 2391   1.154   3.350   1.126
  810TIP3    H2 2392   1.140   3.322   1.274
  811TIP3   OH2 2393   1.562   3.508   0.346
  811TIP3    H1 2394   1.512   3.593   0.352
  811TIP3    H2 2395   1.513   3.453   0.412
  812TIP3   OH2 2396   0.996   3.300   1.825
  812TIP3    H1 2397   1.009   3.279   1.919
  812TIP3    H2 2398   0.921   3.242   1.801
  813TIP3   OH2 2399   1.718   3.414   1.841
  813TIP3    H1 2400   1.656   3.353   1.800
  813TIP3    H2 2401   1.804   3.376   1.812
  814TIP3   OH2 2402   1.975   3.940   1.424
  814TIP3    H1 2403   1.879   3.933   1.440
  814TIP3    H2 2404   2.003   3.989   1.505
  815TIP3   OH2 2405   2.392   3.014   0.343
  815TIP3    H1 2406   2.336   2.969   0.275
  815TIP3    H2 2407   2.388   3.104   0.304
  816TIP3   OH2 2408   2.605   3.867   1.414
  816TIP3    H1 2409   2.508   3.859   1.407
  816TIP3    H2 2410   2.631   3.835   1.324
  817TIP3   OH2 2411   2.095   3.824   0.243
  817TIP3    H1 2412   2.058   3.756   0.301
  817TIP3    H2 2413   2.095   3.780   0.156
  818TIP3   OH2 2414   2.083   3.454   1.077
  818TIP3    H1 2415   1.989   3.429   1.091
  818TIP3    H2 2416   2.116   3.372   1.033
  819TIP3   OH2 2417   1.211   3.683   0.834
  819TIP3    H1 2418   1.207   3.764   0.780
  819TIP3    H2 2419   1.117   3.665   0.849
  820TIP3   OH2 2420   1.340   3.446   0.772
  820TIP3    H1 2421   1.308   3.536   0.794
  820TIP3    H2 2422   1.314   3.396   0.851
  821TIP3   OH2 2423   1.481   4.024   1.302
  821TIP3    H1 2424   1.525   4.096   1.253
  821TIP3    H2 2425   1.557   3.985   1.350
  822TIP3   OH2 2426   1.130   3.923   0.683
  822TIP3    H1 2427   1.048   3.933   0.735
  822TIP3    H2 2428   1.163   4.015   0.685
  823TIP3   OH2 2429   1.866   3.660   1.261
  823TIP3    H1 2430   1.855   3.658   1.359
  823TIP3    H2 2431   1.943   3.602   1.250
  824TIP3   OH2 2432   1.831   3.563   0.160
  824TIP3    H1 2433   1.900   3.533   0.222
  824TIP3    H2 2434   1.752   3.539   0.209
  825TIP3   OH2 2435   2.116   4.191   1.313
  825TIP3    H1 2436   2.037   4.133   1.310
  825TIP3    H2 2437   2.097   4.253   1.240
  826TIP3   OH2 2438   2.186   4.036  -0.043
  826TIP3    H1 2439   2.231   4.120  -0.065
  826TIP3    H2 2440   2.102   4.072  -0.009
  827TIP3   OH2 2441   1.199   2.805   1.828
  827TIP3    H1 2442   1.101   2.808   1.837
  827TIP3    H2 2443   1.223   2.742   1.898
  828TIP3   OH2 2444   2.007   3.489   0.365
  828TIP3    H1 2445   1.996   3.421   0.434
  828TIP3    H2 2446   2.104   3.483   0.351
  829TIP3   OH2 2447   0.917   3.885   1.461
  829TIP3    H1 2448   0.969   3.809   1.494
  829TIP3    H2 2449   0.952   3.956   1.516
  830TIP3   OH2 2450   1.195   3.525   0.377
  830TIP3    H1 2451   1.201   3.507   0.471
  830TIP3    H2 2452   1.169   3.619   0.379
  831TIP3   OH2 2453   2.038   2.871   1.518
  831TIP3    H1 2454   2.122   2.904   1.554
  831TIP3    H2 2455   2.024   2.788   1.569
  832TIP3   OH2 2456   1.867   2.685   0.699
  832TIP3    H1 2457   1.911   2.653   0.619
  832TIP3    H2 2458   1.934   2.747   0.736
  833TIP3   OH2 2459   1.419   3.738   0.343
  833TIP3    H1 2460   1.335   3.750   0.391
  833TIP3    H2 2461   1.438   3.830   0.317
  834TIP3   OH2 2462   1.583   2.809   0.773
  834TIP3    H1 2463   1.670   2.851   0.755
  834TIP3    H2 2464   1.594   2.782   0.866
  835TIP3   OH2 2465   1.879   3.115   1.584
  835TIP3    H1 2466   1.904   3.163   1.666
  835TIP3    H2 2467   1.930   3.032   1.591
  836TIP3   OH2 2468   1.756   2.544   0.904
  836TIP3    H1 2469   1.729   2.621   0.957
  836TIP3    H2 2470   1.798   2.589   0.828
  837TIP3   OH2 2471   1.166   3.805   0.433
  837TIP3    H1 2472   1.140   3.881   0.377
  837TIP3    H2 2473   1.152   3.843   0.523
  838TIP3   OH2 2474   2.517   3.016   1.566
  838TIP3    H1 2475   2.420   3.017   1.577
  838TIP3    H2 2476   2.523   2.965   1.484
  839TIP3   OH2 2477   2.168   3.211   0.956
  839TIP3    H1 2478   2.090   3.152   0.967
  839TIP3    H2 2479   2.238   3.161   1.004
  840TIP3   OH2 2480   2.137   4.171   0.904
  840TIP3    H1 2481   2.094   4.218   0.829
  840TIP3    H2 2482   2.231   4.188   0.883
  841TIP3   OH2 2483   1.254   2.433   1.411
  841TIP3    H1 2484   1.174   2.421   1.355
  841TIP3    H2 2485   1.243   2.363   1.478
  842TIP3   OH2 2486   0.790   3.679   0.821
  842TIP3    H1 2487   0.718   3.638   0.871
  842TIP3    H2 2488   0.748   3.691   0.735
  843TIP3   OH2 2489   0.914   4.199   1.886
  843TIP3    H1 2490   1.000   4.200   1.933
  843TIP3    H2 2491   0.897   4.103   1.882
  844TIP3   OH2 2492   1.385   4.158   1.928
  844TIP3    H1 2493   1.480   4.139   1.937
  844TIP3    H2 2494   1.361   4.095   1.856
  845TIP3   OH2 2495   1.355   3.720   0.051
  845TIP3    H1 2496   1.338   3.688   0.141
  845TIP3    H2 2497   1.445   3.686   0.036
  846TIP3   OH2 2498   2.027   4.067   1.664
  846TIP3    H1 2499   2.019   3.997   1.733
  846TIP3    H2 2500   2.106   4.117   1.694
  847TIP3   OH2 2501   1.823   3.784  -0.015
  847TIP3    H1 2502   1.830   3.703   0.039
  847TIP3    H2 2503   1.901   3.777  -0.071
  848TIP3   OH2 2504   1.038   3.602   2.086
  848TIP3    H1 2505   1.057   3.506   2.091
  848TIP3    H2 2506   0.953   3.602   2.037
  849TIP3   OH2 2507   1.644   3.689   1.860
  849TIP3    H1 2508   1.605   3.707   1.772
  849TIP3    H2 2509   1.676   3.596   1.850
  850TIP3   OH2 2510   1.486   3.439   0.092
  850TIP3    H1 2511   1.520   3.471   0.179
  850TIP3    H2 2512   1.550   3.370   0.072
  851TIP3   OH2 2513   2.139   3.701   1.467
  851TIP3    H1 2514   2.215   3.743   1.423
  851TIP3    H2 2515   2.069   3.765   1.449
  852TIP3   OH2 2516   1.160   3.344   2.068
  852TIP3    H1 2517   1.232   3.286   2.040
  852TIP3    H2 2518   1.191   3.372   2.157
  853TIP3   OH2 2519   1.495   3.223   1.732
  853TIP3    H1 2520   1.415   3.280   1.729
  853TIP3    H2 2521   1.547   3.257   1.655
  854TIP3   OH2 2522   2.013   3.624   1.862
  854TIP3    H1 2523   2.090   3.590   1.813
  854TIP3    H2 2524   2.005   3.559   1.934
  855TIP3   OH2 2525   2.144   3.280  -0.008
  855TIP3    H1 2526   2.150   3.223  -0.086
  855TIP3    H2 2527   2.130   3.367  -0.047
  856TIP3   OH2 2528   1.619   3.012   1.853
  856TIP3    H1 2529   1.618   2.932   1.796
  856TIP3    H2 2530   1.573   3.078   1.796
  857TIP3   OH2 2531   1.620   2.799   1.663
  857TIP3    H1 2532   1.648   2.836   1.577
  857TIP3    H2 2533   1.526   2.777   1.645
  858TIP3   OH2 2534   1.643   3.331   1.537
  858TIP3    H1 2535   1.729   3.339   1.493
  858TIP3    H2 2536   1.588   3.396   1.489
  859TIP3   OH2 2537   2.225   3.297   1.913
  859TIP3    H1 2538   2.272   3.213   1.927
  859TIP3    H2 2539   2.296   3.353   1.878
  860TIP3   OH2 2540   2.268   3.553   1.653
  860TIP3    H1 2541   2.211   3.607   1.594
  860TIP3    H2 2542   2.356   3.573   1.614
  861TIP3   OH2 2543   1.496   3.117   2.088
  861TIP3    H1 2544   1.430   3.046   2.103
  861TIP3    H2 2545   1.528   3.094   1.999
  862TIP3   OH2 2546   1.752   2.559   1.733
  862TIP3    H1 2547   1.701   2.640   1.708
  862TIP3    H2 2548   1.685   2.489   1.719
  863TIP3   OH2 2549   1.877   3.061   1.947
  863TIP3    H1 2550   1.860   3.045   2.042
  863TIP3    H2 2551   1.789   3.038   1.911
  864TIP3   OH2 2552   2.117   3.015   1.803
  864TIP3    H1 2553   2.042   3.014   1.866
  864TIP3    H2 2554   2.191   2.984   1.858
  865TIP3   OH2 2555   2.348   2.955   1.949
  865TIP3    H1 2556   2.360   2.859   1.966
  865TIP3    H2 2557   2.343   2.991   2.040
  866TIP3   OH2 2558   1.336   2.901   2.142
  866TIP3    H1 2559   1.333   2.809   2.107
  866TIP3    H2 2560   1.374   2.884   2.231
  867TIP3   OH2 2561   1.846   2.568   1.990
  867TIP3    H1 2562   1.911   2.495   1.982
  867TIP3    H2 2563   1.805   2.565   1.902
  868TIP3   OH2 2564   1.914   2.783   2.148
  868TIP3    H1 2565   1.892   2.712   2.084
  868TIP3    H2 2566   1.834   2.841   2.141
  869TIP3   OH2 2567   1.125   4.015   0.256
  869TIP3    H1 2568   1.216   4.020   0.221
  869TIP3    H2 2569   1.078   3.972   0.181
  870TIP3   OH2 2570   0.515   4.004   0.879
  870TIP3    H1 2571   0.432   3.954   0.872
  870TIP3    H2 2572   0.567   3.947   0.941
  871TIP3   OH2 2573   0.651   3.867   1.073
  871TIP3    H1 2574   0.650   3.787   1.129
  871TIP3    H2 2575   0.714   3.922   1.122
  872TIP3   OH2 2576   2.391   4.260   0.865
  872TIP3    H1 2577   2.419   4.287   0.954
  872TIP3    H2 2578   2.460   4.298   0.809
  873TIP3   OH2 2579   2.421   4.277   1.147
  873TIP3    H1 2580   2.374   4.191   1.143
  873TIP3    H2 2581   2.494   4.251   1.205
  874TIP3   OH2 2582   2.465   3.955   1.719
  874TIP3    H1 2583   2.394   3.964   1.786
  874TIP3    H2 2584   2.509   4.042   1.724
  875TIP3   OH2 2585   2.283   3.466   0.339
  875TIP3    H1 2586   2.349   3.532   0.309
  875TIP3    H2 2587   2.327   3.429   0.418
  876TIP3   OH2 2588   2.410   3.335   0.544
  876TIP3    H1 2589   2.343   3.291   0.601
  876TIP3    H2 2590   2.474   3.370   0.610
  877TIP3   OH2 2591   2.468   3.729   0.974
  877TIP3    H1 2592   2.520   3.659   0.929
  877TIP3    H2 2593   2.462   3.798   0.905
  878TIP3   OH2 2594   2.294   4.029   1.167
  878TIP3    H1 2595   2.222   4.068   1.219
  878TIP3    H2 2596   2.245   3.982   1.096
  879TIP3   OH2 2597   2.347   3.246   0.186
  879TIP3    H1 2598   2.272   3.239   0.123
  879TIP3    H2 2599   2.317   3.321   0.241
  880TIP3   OH2 2600   2.248   2.921   0.133
  880TIP3    H1 2601   2.178   2.940   0.068
  880TIP3    H2 2602   2.224   2.828   0.153
  881TIP3   OH2 2603   2.224   3.192   0.687
  881TIP3    H1 2604   2.230   3.095   0.676
  881TIP3    H2 2605   2.209   3.201   0.784
  882TIP3   OH2 2606   0.849   3.288   1.429
  882TIP3    H1 2607   0.848   3.246   1.340
  882TIP3    H2 2608   0.943   3.276   1.453
  883TIP3   OH2 2609   2.515   3.617   1.546
  883TIP3    H1 2610   2.585   3.549   1.536
  883TIP3    H2 2611   2.540   3.684   1.480
  884TIP3   OH2 2612   2.697   3.418   1.554
  884TIP3    H1 2613   2.622   3.369   1.594
  884TIP3    H2 2614   2.770   3.355   1.573
  885TIP3   OH2 2615   2.160   2.669   0.164
  885TIP3    H1 2616   2.245   2.621   0.175
  885TIP3    H2 2617   2.096   2.609   0.204
  886TIP3   OH2 2618   2.228   2.916   0.579
  886TIP3    H1 2619   2.268   2.827   0.595
  886TIP3    H2 2620   2.286   2.946   0.507
  887TIP3   OH2 2621   2.381   3.079   1.079
  887TIP3    H1 2622   2.466   3.104   1.037
  887TIP3    H2 2623   2.396   3.117   1.168
  888TIP3   OH2 2624   2.454   3.226   1.308
  888TIP3    H1 2625   2.376   3.259   1.356
  888TIP3    H2 2626   2.486   3.308   1.264
  889TIP3   OH2 2627   1.071   2.958   2.130
  889TIP3    H1 2628   1.168   2.946   2.122
  889TIP3    H2 2629   1.045   2.867   2.155
  890TIP3   OH2 2630   2.902   2.819   1.863
  890TIP3    H1 2631   2.964   2.755   1.821
  890TIP3    H2 2632   2.872   2.871   1.785
  891TIP3   OH2 2633   2.346   2.673   0.616
  891TIP3    H1 2634   2.386   2.653   0.703
  891TIP3    H2 2635   2.275   2.606   0.614
  892TIP3   OH2 2636   1.075   2.636   1.514
  892TIP3    H1 2637   1.135   2.564   1.489
  892TIP3    H2 2638   1.111   2.710   1.463
  893TIP3   OH2 2639   0.844   2.987   1.539
  893TIP3    H1 2640   0.840   2.896   1.503
  893TIP3    H2 2641   0.915   3.024   1.484
  894TIP3   OH2 2642   2.771   2.954   1.666
  894TIP3    H1 2643   2.687   2.998   1.687
  894TIP3    H2 2644   2.738   2.881   1.610
  895TIP3   OH2 2645   2.428   2.596   0.201
  895TIP3    H1 2646   2.453   2.519   0.255
  895TIP3    H2 2647   2.493   2.664   0.228
  896TIP3   OH2 2648   1.979   4.125   0.522
  896TIP3    H1 2649   2.027   4.113   0.438
  896TIP3    H2 2650   2.033   4.190   0.569
  897TIP3   OH2 2651   1.053   2.519   1.839
  897TIP3    H1 2652   0.989   2.504   1.910
  897TIP3    H2 2653   0.995   2.546   1.766
  898TIP3   OH2 2654   1.073   3.938   1.903
  898TIP3    H1 2655   0.983   3.904   1.887
  898TIP3    H2 2656   1.091   3.906   1.992
  899TIP3   OH2 2657   1.254   3.965   1.452
  899TIP3    H1 2658   1.209   4.042   1.412
  899TIP3    H2 2659   1.341   3.976   1.409
  900TIP3   OH2 2660   1.694   4.207   1.590
  900TIP3    H1 2661   1.738   4.204   1.679
  900TIP3    H2 2662   1.761   4.258   1.539
  901TIP3   OH2 2663   1.875   4.360   1.451
  901TIP3    H1 2664   1.944   4.307   1.408
  901TIP3    H2 2665   1.929   4.415   1.512
  902TIP3   OH2 2666   2.671   2.717   1.549
  902TIP3    H1 2667   2.581   2.707   1.513
  902TIP3    H2 2668   2.706   2.625   1.540
  903TIP3   OH2 2669   0.937   4.214   1.478
  903TIP3    H1 2670   0.845   4.244   1.459
  903TIP3    H2 2671   0.951   4.257   1.564
  904TIP3   OH2 2672   1.170   4.198   1.334
  904TIP3    H1 2673   1.082   4.209   1.378
  904TIP3    H2 2674   1.150   4.228   1.243
  905TIP3   OH2 2675   1.591   4.224   1.133
  905TIP3    H1 2676   1.522   4.242   1.067
  905TIP3    H2 2677   1.602   4.312   1.175
  906TIP3   OH2 2678   1.861   4.164   1.187
  906TIP3    H1 2679   1.767   4.181   1.165
  906TIP3    H2 2680   1.905   4.237   1.140
  907TIP3   OH2 2681   2.067   4.355   1.098
  907TIP3    H1 2682   2.053   4.438   1.048
  907TIP3    H2 2683   2.094   4.293   1.026
  908TIP3   OH2 2684   0.841   4.010   1.221
  908TIP3    H1 2685   0.866   3.983   1.312
  908TIP3    H2 2686   0.914   3.966   1.171
  909TIP3   OH2 2687   1.039   3.886   1.083
  909TIP3    H1 2688   1.052   3.801   1.131
  909TIP3    H2 2689   1.131   3.919   1.078
  910TIP3   OH2 2690   1.306   3.975   1.085
  910TIP3    H1 2691   1.335   3.883   1.075
  910TIP3    H2 2692   1.353   3.998   1.167
  911TIP3   OH2 2693   1.881   2.637   1.181
  911TIP3    H1 2694   1.835   2.564   1.226
  911TIP3    H2 2695   1.940   2.590   1.120
  912TIP3   OH2 2696   2.397   2.513   1.076
  912TIP3    H1 2697   2.433   2.564   0.999
  912TIP3    H2 2698   2.301   2.528   1.065
  913TIP3   OH2 2699   2.495   2.615   0.842
  913TIP3    H1 2700   2.566   2.563   0.799
  913TIP3    H2 2701   2.529   2.707   0.829
  914TIP3   OH2 2702   1.579   2.407   1.067
  914TIP3    H1 2703   1.642   2.447   1.004
  914TIP3    H2 2704   1.624   2.421   1.152
  915TIP3   OH2 2705   2.121   2.523   1.042
  915TIP3    H1 2706   2.107   2.484   0.955
  915TIP3    H2 2707   2.102   2.446   1.101
  916TIP3   OH2 2708   2.144   2.492   0.635
  916TIP3    H1 2709   2.058   2.485   0.591
  916TIP3    H2 2710   2.168   2.397   0.634
  917TIP3   OH2 2711   0.616   3.830   0.622
  917TIP3    H1 2712   0.581   3.796   0.539
  917TIP3    H2 2713   0.577   3.918   0.627
  918TIP3   OH2 2714   1.391   3.972   0.184
  918TIP3    H1 2715   1.484   3.987   0.155
  918TIP3    H2 2716   1.368   3.901   0.120
  919TIP3   OH2 2717   2.124   4.091   0.287
  919TIP3    H1 2718   2.118   3.993   0.278
  919TIP3    H2 2719   2.074   4.119   0.208
  920TIP3   OH2 2720   1.339   2.639   2.071
  920TIP3    H1 2721   1.311   2.554   2.110
  920TIP3    H2 2722   1.432   2.638   2.102
  921TIP3   OH2 2723   1.586   2.622   2.200
  921TIP3    H1 2724   1.668   2.593   2.157
  921TIP3    H2 2725   1.570   2.549   2.263
  922TIP3   OH2 2726   2.410   2.683   1.981
  922TIP3    H1 2727   2.427   2.653   2.073
  922TIP3    H2 2728   2.500   2.678   1.942
  923TIP3   OH2 2729   2.344   4.234   1.474
  923TIP3    H1 2730   2.266   4.204   1.423
  923TIP3    H2 2731   2.324   4.330   1.481
  924TIP3   OH2 2732   3.604   3.611   0.248
  924TIP3    H1 2733   3.580   3.703   0.224
  924TIP3    H2 2734   3.528   3.562   0.211
  925TIP3   OH2 2735   3.615   3.608   0.625
  925TIP3    H1 2736   3.649   3.582   0.713
  925TIP3    H2 2737   3.572   3.525   0.595
  926TIP3   OH2 2738   2.909   3.500   0.986
  926TIP3    H1 2739   2.937   3.430   1.048
  926TIP3    H2 2740   2.990   3.553   0.981
  927TIP3   OH2 2741   3.860   3.915   0.302
  927TIP3    H1 2742   3.839   3.847   0.367
  927TIP3    H2 2743   3.888   3.989   0.359
  928TIP3   OH2 2744   2.883   3.914   0.708
  928TIP3    H1 2745   2.876   3.816   0.708
  928TIP3    H2 2746   2.980   3.923   0.705
  929TIP3   OH2 2747   2.595   3.119   0.495
  929TIP3    H1 2748   2.542   3.198   0.513
  929TIP3    H2 2749   2.527   3.061   0.456
  930TIP3   OH2 2750   2.647   3.401   0.673
  930TIP3    H1 2751   2.695   3.322   0.707
  930TIP3    H2 2752   2.703   3.429   0.600
  931TIP3   OH2 2753   3.511   4.371   0.330
  931TIP3    H1 2754   3.549   4.299   0.276
  931TIP3    H2 2755   3.500   4.328   0.415
  932TIP3   OH2 2756   3.409   3.835   0.670
  932TIP3    H1 2757   3.449   3.757   0.627
  932TIP3    H2 2758   3.492   3.881   0.695
  933TIP3   OH2 2759   4.428   3.153   0.669
  933TIP3    H1 2760   4.456   3.236   0.712
  933TIP3    H2 2761   4.447   3.173   0.576
  934TIP3   OH2 2762   3.827   3.334   0.698
  934TIP3    H1 2763   3.866   3.247   0.720
  934TIP3    H2 2764   3.791   3.316   0.609
  935TIP3   OH2 2765   3.167   2.993   0.663
  935TIP3    H1 2766   3.143   3.065   0.602
  935TIP3    H2 2767   3.118   2.919   0.621
  936TIP3   OH2 2768   3.857   3.088   0.292
  936TIP3    H1 2769   3.929   3.069   0.356
  936TIP3    H2 2770   3.911   3.120   0.216
  937TIP3   OH2 2771   2.795   3.194   0.773
  937TIP3    H1 2772   2.878   3.174   0.821
  937TIP3    H2 2773   2.808   3.138   0.694
  938TIP3   OH2 2774   3.234   3.393   0.570
  938TIP3    H1 2775   3.328   3.368   0.582
  938TIP3    H2 2776   3.195   3.309   0.538
  939TIP3   OH2 2777   4.500   3.364   0.836
  939TIP3    H1 2778   4.415   3.408   0.817
  939TIP3    H2 2779   4.513   3.389   0.928
  940TIP3   OH2 2780   3.158   2.977   1.101
  940TIP3    H1 2781   3.098   3.013   1.034
  940TIP3    H2 2782   3.105   2.994   1.182
  941TIP3   OH2 2783   3.525   3.847   0.121
  941TIP3    H1 2784   3.483   3.818   0.037
  941TIP3    H2 2785   3.462   3.918   0.147
  942TIP3   OH2 2786   3.265   3.754   0.892
  942TIP3    H1 2787   3.205   3.822   0.930
  942TIP3    H2 2788   3.307   3.802   0.818
  943TIP3   OH2 2789   4.068   3.089   0.464
  943TIP3    H1 2790   4.043   3.045   0.547
  943TIP3    H2 2791   4.113   3.169   0.496
  944TIP3   OH2 2792   3.031   3.091   0.883
  944TIP3    H1 2793   3.093   3.163   0.908
  944TIP3    H2 2794   3.080   3.051   0.808
  945TIP3   OH2 2795   3.094   3.950   0.994
  945TIP3    H1 2796   3.068   4.037   0.958
  945TIP3    H2 2797   3.015   3.931   1.049
  946TIP3   OH2 2798   2.484   3.637   0.233
  946TIP3    H1 2799   2.445   3.662   0.147
  946TIP3    H2 2800   2.517   3.723   0.266
  947TIP3   OH2 2801   3.925   4.156   0.466
  947TIP3    H1 2802   3.836   4.146   0.508
  947TIP3    H2 2803   3.914   4.242   0.422
  948TIP3   OH2 2804   4.218   3.053   0.834
  948TIP3    H1 2805   4.130   3.078   0.801
  948TIP3    H2 2806   4.277   3.085   0.763
  949TIP3   OH2 2807   3.512   2.693   0.818
  949TIP3    H1 2808   3.495   2.598   0.835
  949TIP3    H2 2809   3.434   2.733   0.865
  950TIP3   OH2 2810   3.633   4.182   0.162
  950TIP3    H1 2811   3.682   4.101   0.137
  950TIP3    H2 2812   3.704   4.249   0.145
  951TIP3   OH2 2813   3.765   3.948   0.048
  951TIP3    H1 2814   3.679   3.907   0.072
  951TIP3    H2 2815   3.816   3.930   0.130
  952TIP3   OH2 2816   4.151   4.064   0.814
  952TIP3    H1 2817   4.138   3.986   0.754
  952TIP3    H2 2818   4.133   4.139   0.753
  953TIP3   OH2 2819   3.441   3.462   0.076
  953TIP3    H1 2820   3.358   3.511   0.060
  953TIP3    H2 2821   3.479   3.458  -0.012
  954TIP3   OH2 2822   3.390   3.233  -0.199
  954TIP3    H1 2823   3.466   3.284  -0.165
  954TIP3    H2 2824   3.434   3.155  -0.235
  955TIP3   OH2 2825   4.347   3.703   0.658
  955TIP3    H1 2826   4.262   3.754   0.664
  955TIP3    H2 2827   4.375   3.730   0.568
  956TIP3   OH2 2828   3.780   3.496   0.077
  956TIP3    H1 2829   3.727   3.533   0.151
  956TIP3    H2 2830   3.868   3.487   0.118
  957TIP3   OH2 2831   4.025   3.579   0.958
  957TIP3    H1 2832   4.022   3.662   1.009
  957TIP3    H2 2833   3.938   3.583   0.913
  958TIP3   OH2 2834   3.023   3.537   0.460
  958TIP3    H1 2835   2.983   3.479   0.392
  958TIP3    H2 2836   3.099   3.483   0.491
  959TIP3   OH2 2837   3.155   3.954   0.606
  959TIP3    H1 2838   3.133   3.915   0.520
  959TIP3    H2 2839   3.243   3.916   0.624
  960TIP3   OH2 2840   3.159   3.509   0.816
  960TIP3    H1 2841   3.191   3.484   0.727
  960TIP3    H2 2842   3.203   3.595   0.831
  961TIP3   OH2 2843   3.687   4.148   0.592
  961TIP3    H1 2844   3.674   4.228   0.646
  961TIP3    H2 2845   3.669   4.075   0.655
  962TIP3   OH2 2846   3.299   4.067   1.138
  962TIP3    H1 2847   3.237   4.127   1.185
  962TIP3    H2 2848   3.235   4.013   1.087
  963TIP3   OH2 2849   3.633   3.385  -0.134
  963TIP3    H1 2850   3.685   3.440  -0.071
  963TIP3    H2 2851   3.663   3.421  -0.220
  964TIP3   OH2 2852   3.054   3.621   1.243
  964TIP3    H1 2853   3.058   3.709   1.285
  964TIP3    H2 2854   2.959   3.600   1.256
  965TIP3   OH2 2855   3.377   4.076   0.151
  965TIP3    H1 2856   3.461   4.124   0.158
  965TIP3    H2 2857   3.321   4.135   0.099
  966TIP3   OH2 2858   3.091   4.232   1.226
  966TIP3    H1 2859   3.055   4.234   1.135
  966TIP3    H2 2860   3.011   4.211   1.279
  967TIP3   OH2 2861   4.144   2.646  -0.089
  967TIP3    H1 2862   4.063   2.643  -0.034
  967TIP3    H2 2863   4.142   2.740  -0.114
  968TIP3   OH2 2864   2.892   3.381   0.259
  968TIP3    H1 2865   2.820   3.424   0.208
  968TIP3    H2 2866   2.854   3.295   0.278
  969TIP3   OH2 2867   2.670   3.766   1.172
  969TIP3    H1 2868   2.603   3.744   1.104
  969TIP3    H2 2869   2.708   3.678   1.194
  970TIP3   OH2 2870   2.525   3.961   0.798
  970TIP3    H1 2871   2.621   3.950   0.793
  970TIP3    H2 2872   2.517   4.036   0.859
  971TIP3   OH2 2873   4.390   4.412   0.864
  971TIP3    H1 2874   4.387   4.315   0.879
  971TIP3    H2 2875   4.306   4.438   0.908
  972TIP3   OH2 2876   3.493   4.195   0.995
  972TIP3    H1 2877   3.491   4.288   1.028
  972TIP3    H2 2878   3.422   4.154   1.049
  973TIP3   OH2 2879   3.233   4.325  -0.051
  973TIP3    H1 2880   3.192   4.315  -0.138
  973TIP3    H2 2881   3.196   4.406  -0.015
  974TIP3   OH2 2882   2.694   4.172   0.334
  974TIP3    H1 2883   2.741   4.164   0.420
  974TIP3    H2 2884   2.648   4.086   0.330
  975TIP3   OH2 2885   3.498   4.378  -0.018
  975TIP3    H1 2886   3.407   4.354  -0.044
  975TIP3    H2 2887   3.538   4.291  -0.004
  976TIP3   OH2 2888   4.278   3.540   1.135
  976TIP3    H1 2889   4.193   3.550   1.090
  976TIP3    H2 2890   4.294   3.444   1.126
  977TIP3   OH2 2891   2.874   3.949   1.157
  977TIP3    H1 2892   2.924   3.932   1.240
  977TIP3    H2 2893   2.800   3.885   1.165
  978TIP3   OH2 2894   3.275   2.772   0.946
  978TIP3    H1 2895   3.187   2.740   0.916
  978TIP3    H2 2896   3.246   2.851   0.996
  979TIP3   OH2 2897   3.809   2.886   1.140
  979TIP3    H1 2898   3.878   2.858   1.204
  979TIP3    H2 2899   3.726   2.867   1.187
  980TIP3   OH2 2900   4.047   3.318   1.060
  980TIP3    H1 2901   3.994   3.314   1.143
  980TIP3    H2 2902   4.022   3.404   1.023
  981TIP3   OH2 2903   3.430   2.838  -0.081
  981TIP3    H1 2904   3.392   2.827   0.009
  981TIP3    H2 2905   3.375   2.777  -0.132
  982TIP3   OH2 2906   3.208   3.288   0.965
  982TIP3    H1 2907   3.156   3.308   1.046
  982TIP3    H2 2908   3.192   3.369   0.912
  983TIP3   OH2 2909   3.088   3.176   0.479
  983TIP3    H1 2910   2.997   3.146   0.498
  983TIP3    H2 2911   3.102   3.134   0.391
  984TIP3   OH2 2912   3.580   3.260   0.212
  984TIP3    H1 2913   3.531   3.332   0.166
  984TIP3    H2 2914   3.635   3.224   0.140
  985TIP3   OH2 2915   3.755   3.534   1.289
  985TIP3    H1 2916   3.733   3.462   1.353
  985TIP3    H2 2917   3.849   3.549   1.313
  986TIP3   OH2 2918   3.737   3.286   0.443
  986TIP3    H1 2919   3.671   3.311   0.374
  986TIP3    H2 2920   3.773   3.207   0.399
  987TIP3   OH2 2921   3.026   3.315   1.171
  987TIP3    H1 2922   3.053   3.377   1.239
  987TIP3    H2 2923   3.013   3.232   1.222
  988TIP3   OH2 2924   3.083   2.783  -0.115
  988TIP3    H1 2925   3.081   2.788  -0.018
  988TIP3    H2 2926   2.991   2.799  -0.137
  989TIP3   OH2 2927   2.614   2.844   0.761
  989TIP3    H1 2928   2.697   2.869   0.805
  989TIP3    H2 2929   2.642   2.809   0.674
  990TIP3   OH2 2930   2.589   2.816   0.272
  990TIP3    H1 2931   2.643   2.846   0.197
  990TIP3    H2 2932   2.532   2.894   0.287
  991TIP3   OH2 2933   3.749   3.531   0.864
  991TIP3    H1 2934   3.783   3.460   0.805
  991TIP3    H2 2935   3.718   3.477   0.940
  992TIP3   OH2 2936   3.423   2.997   0.538
  992TIP3    H1 2937   3.339   2.995   0.589
  992TIP3    H2 2938   3.490   2.989   0.608
  993TIP3   OH2 2939   2.853   3.051   0.545
  993TIP3    H1 2940   2.759   3.061   0.519
  993TIP3    H2 2941   2.872   2.958   0.525
  994TIP3   OH2 2942   3.121   3.046   0.243
  994TIP3    H1 2943   3.214   3.059   0.217
  994TIP3    H2 2944   3.072   3.067   0.160
  995TIP3   OH2 2945   3.909   3.071   0.738
  995TIP3    H1 2946   3.879   3.084   0.831
  995TIP3    H2 2947   3.839   3.010   0.707
  996TIP3   OH2 2948   2.960   3.082   0.031
  996TIP3    H1 2949   2.871   3.053   0.008
  996TIP3    H2 2950   3.000   3.107  -0.055
  997TIP3   OH2 2951   4.083   4.760   0.962
  997TIP3    H1 2952   4.082   4.786   0.868
  997TIP3    H2 2953   4.164   4.807   0.993
  998TIP3   OH2 2954   3.037   3.872   1.379
  998TIP3    H1 2955   3.117   3.900   1.428
  998TIP3    H2 2956   2.973   3.867   1.452
  999TIP3   OH2 2957   3.498   3.326   0.638
  999TIP3    H1 2958   3.570   3.283   0.590
  999TIP3    H2 2959   3.501   3.281   0.725
 1000TIP3   OH2 2960   3.022   2.808   0.519
 1000TIP3    H1 2961   2.982   2.734   0.569
 1000TIP3    H2 2962   3.061   2.761   0.444
 1001TIP3   OH2 2963   3.477   3.227   0.920
 1001TIP3    H1 2964   3.386   3.259   0.938
 1001TIP3    H2 2965   3.532   3.287   0.973
 1002TIP3   OH2 2966   3.201   3.602   0.024
 1002TIP3    H1 2967   3.129   3.537   0.012
 1002TIP3    H2 2968   3.181   3.637   0.114
 1003TIP3   OH2 2969   4.112   3.846   0.647
 1003TIP3    H1 2970   4.135   3.898   0.567
 1003TIP3    H2 2971   4.027   3.804   0.621
 1004TIP3   OH2 2972   3.694   2.909  -0.102
 1004TIP3    H1 2973   3.600   2.883  -0.112
 1004TIP3    H2 2974   3.690   3.005  -0.096
 1005TIP3   OH2 2975   3.613   3.931   1.017
 1005TIP3    H1 2976   3.642   3.910   1.106
 1005TIP3    H2 2977   3.573   4.019   1.026
 1006TIP3   OH2 2978   3.740   3.168  -0.000
 1006TIP3    H1 2979   3.835   3.175   0.018
 1006TIP3    H2 2980   3.721   3.249  -0.052
 1007TIP3   OH2 2981   2.909   3.639   0.694
 1007TIP3    H1 2982   2.945   3.606   0.609
 1007TIP3    H2 2983   2.946   3.576   0.758
 1008TIP3   OH2 2984   3.386   3.769  -0.094
 1008TIP3    H1 2985   3.339   3.837  -0.147
 1008TIP3    H2 2986   3.312   3.714  -0.061
 1009TIP3   OH2 2987   2.789   3.553   1.309
 1009TIP3    H1 2988   2.804   3.538   1.405
 1009TIP3    H2 2989   2.719   3.488   1.290
 1010TIP3   OH2 2990   3.515   3.671   1.328
 1010TIP3    H1 2991   3.452   3.609   1.286
 1010TIP3    H2 2992   3.600   3.633   1.299
 1011TIP3   OH2 2993   3.771   4.192   0.913
 1011TIP3    H1 2994   3.675   4.189   0.928
 1011TIP3    H2 2995   3.800   4.243   0.992
 1012TIP3   OH2 2996   4.121   3.254  -0.143
 1012TIP3    H1 2997   4.116   3.202  -0.226
 1012TIP3    H2 2998   4.143   3.343  -0.175
 1013TIP3   OH2 2999   4.401   4.121   0.903
 1013TIP3    H1 3000   4.303   4.115   0.894
 1013TIP3    H2 3001   4.428   4.091   0.813
 1014TIP3   OH2 3002   3.878   3.711   0.563
 1014TIP3    H1 3003   3.785   3.687   0.578
 1014TIP3    H2 3004   3.911   3.629   0.520
 1015TIP3   OH2 3005   3.008   3.939   0.322
 1015TIP3    H1 3006   3.004   4.019   0.266
 1015TIP3    H2 3007   2.915   3.918   0.333
 1016TIP3   OH2 3008   2.577   3.245   0.032
 1016TIP3    H1 3009   2.618   3.331   0.054
 1016TIP3    H2 3010   2.496   3.246   0.088
 1017TIP3   OH2 3011   3.140   3.701   0.265
 1017TIP3    H1 3012   3.106   3.791   0.285
 1017TIP3    H2 3013   3.105   3.650   0.341
 1018TIP3   OH2 3014   3.277   4.281   0.789
 1018TIP3    H1 3015   3.321   4.353   0.739
 1018TIP3    H2 3016   3.353   4.243   0.837
 1019TIP3   OH2 3017   2.920   4.176   0.168
 1019TIP3    H1 3018   2.836   4.183   0.218
 1019TIP3    H2 3019   2.953   4.268   0.175
 1020TIP3   OH2 3020   3.661   3.915   0.749
 1020TIP3    H1 3021   3.650   3.914   0.847
 1020TIP3    H2 3022   3.741   3.861   0.739
 1021TIP3   OH2 3023   3.912   4.445   0.799
 1021TIP3    H1 3024   3.832   4.389   0.794
 1021TIP3    H2 3025   3.895   4.509   0.726
 1022TIP3   OH2 3026   2.994   3.059   1.314
 1022TIP3    H1 3027   2.897   3.063   1.325
 1022TIP3    H2 3028   3.021   3.003   1.388
 1023TIP3   OH2 3029   3.837   3.649  -0.140
 1023TIP3    H1 3030   3.824   3.615  -0.049
 1023TIP3    H2 3031   3.865   3.741  -0.125
 1024TIP3   OH2 3032   2.714   4.141   0.948
 1024TIP3    H1 3033   2.769   4.068   0.982
 1024TIP3    H2 3034   2.741   4.213   1.007
 1025TIP3   OH2 3035   3.018   3.821  -0.345
 1025TIP3    H1 3036   2.983   3.762  -0.413
 1025TIP3    H2 3037   2.967   3.794  -0.266
 1026TIP3   OH2 3038   2.941   3.802  -0.070
 1026TIP3    H1 3039   3.022   3.765  -0.033
 1026TIP3    H2 3040   2.962   3.897  -0.077
 1027TIP3   OH2 3041   2.684   3.490   0.110
 1027TIP3    H1 3042   2.618   3.536   0.166
 1027TIP3    H2 3043   2.701   3.559   0.043
 1028TIP3   OH2 3044   3.840   3.121   0.999
 1028TIP3    H1 3045   3.918   3.160   1.042
 1028TIP3    H2 3046   3.824   3.041   1.053
 1029TIP3   OH2 3047   3.713   2.872   0.171
 1029TIP3    H1 3048   3.703   2.885   0.074
 1029TIP3    H2 3049   3.750   2.957   0.199
 1030TIP3   OH2 3050   3.239   4.018  -0.182
 1030TIP3    H1 3051   3.156   4.036  -0.134
 1030TIP3    H2 3052   3.206   3.986  -0.268
 1031TIP3   OH2 3053   3.403   3.056   0.269
 1031TIP3    H1 3054   3.467   3.129   0.253
 1031TIP3    H2 3055   3.408   3.047   0.366
 1032TIP3   OH2 3056   3.675   3.372   1.072
 1032TIP3    H1 3057   3.698   3.425   1.151
 1032TIP3    H2 3058   3.726   3.290   1.086
 1033TIP3   OH2 3059   3.545   2.777   0.369
 1033TIP3    H1 3060   3.536   2.858   0.424
 1033TIP3    H2 3061   3.607   2.809   0.300
 1034TIP3   OH2 3062   2.981   4.072  -0.079
 1034TIP3    H1 3063   2.914   4.119  -0.131
 1034TIP3    H2 3064   2.961   4.105   0.012
 1035TIP3   OH2 3065   3.064   2.780   0.162
 1035TIP3    H1 3066   3.058   2.869   0.202
 1035TIP3    H2 3067   3.160   2.765   0.171
 1036TIP3   OH2 3068   4.313   3.272   1.054
 1036TIP3    H1 3069   4.215   3.273   1.065
 1036TIP3    H2 3070   4.319   3.223   0.971
 1037TIP3   OH2 3071   3.964   3.466   0.444
 1037TIP3    H1 3072   3.886   3.408   0.457
 1037TIP3    H2 3073   4.033   3.418   0.495
 1038TIP3   OH2 3074   2.682   3.702  -0.084
 1038TIP3    H1 3075   2.760   3.759  -0.067
 1038TIP3    H2 3076   2.725   3.643  -0.151
 1039TIP3   OH2 3077   2.641   2.982   0.037
 1039TIP3    H1 3078   2.626   3.079   0.031
 1039TIP3    H2 3079   2.554   2.949   0.011
 1040TIP3   OH2 3080   3.934   4.429   0.386
 1040TIP3    H1 3081   3.890   4.474   0.311
 1040TIP3    H2 3082   4.028   4.447   0.365
 1041TIP3   OH2 3083   3.011   2.691   0.917
 1041TIP3    H1 3084   2.979   2.657   0.831
 1041TIP3    H2 3085   2.999   2.613   0.975
 1042TIP3   OH2 3086   2.548   3.915   0.296
 1042TIP3    H1 3087   2.482   3.940   0.362
 1042TIP3    H2 3088   2.511   3.954   0.214
 1043TIP3   OH2 3089   2.707   4.458   1.372
 1043TIP3    H1 3090   2.794   4.457   1.418
 1043TIP3    H2 3091   2.687   4.363   1.371
 1044TIP3   OH2 3092   3.183   4.414   1.415
 1044TIP3    H1 3093   3.277   4.396   1.423
 1044TIP3    H2 3094   3.158   4.352   1.344
 1045TIP3   OH2 3095   3.825   4.323   1.149
 1045TIP3    H1 3096   3.817   4.254   1.219
 1045TIP3    H2 3097   3.902   4.374   1.180
 1046TIP3   OH2 3098   2.835   3.860   1.571
 1046TIP3    H1 3099   2.851   3.764   1.580
 1046TIP3    H2 3100   2.748   3.862   1.525
 1047TIP3   OH2 3101   2.828   3.532  -0.230
 1047TIP3    H1 3102   2.885   3.474  -0.177
 1047TIP3    H2 3103   2.807   3.481  -0.309
 1048TIP3   OH2 3104   3.442   3.946   1.346
 1048TIP3    H1 3105   3.401   3.966   1.259
 1048TIP3    H2 3106   3.472   3.854   1.335
 1049TIP3   OH2 3107   3.935   3.956   0.953
 1049TIP3    H1 3108   4.011   4.000   0.910
 1049TIP3    H2 3109   3.865   4.022   0.937
 1050TIP3   OH2 3110   2.957   3.598   1.555
 1050TIP3    H1 3111   3.030   3.541   1.530
 1050TIP3    H2 3112   2.985   3.629   1.643
 1051TIP3   OH2 3113   3.013   3.403  -0.014
 1051TIP3    H1 3114   2.982   3.371   0.073
 1051TIP3    H2 3115   3.050   3.323  -0.054
 1052TIP3   OH2 3116   3.291   3.479   1.217
 1052TIP3    H1 3117   3.212   3.536   1.216
 1052TIP3    H2 3118   3.342   3.513   1.140
 1053TIP3   OH2 3119   3.122   3.192  -0.163
 1053TIP3    H1 3120   3.118   3.166  -0.256
 1053TIP3    H2 3121   3.219   3.201  -0.152
 1054TIP3   OH2 3122   3.808   3.880   1.349
 1054TIP3    H1 3123   3.886   3.848   1.302
 1054TIP3    H2 3124   3.800   3.816   1.422
 1055TIP3   OH2 3125   3.415   3.268   1.338
 1055TIP3    H1 3126   3.414   3.189   1.281
 1055TIP3    H2 3127   3.370   3.335   1.283
 1056TIP3   OH2 3128   3.417   3.055   1.149
 1056TIP3    H1 3129   3.444   3.094   1.064
 1056TIP3    H2 3130   3.323   3.031   1.131
 1057TIP3   OH2 3131   3.439   3.587   1.022
 1057TIP3    H1 3132   3.525   3.600   0.980
 1057TIP3    H2 3133   3.383   3.652   0.976
 1058TIP3   OH2 3134   4.021   3.553   1.400
 1058TIP3    H1 3135   4.070   3.471   1.416
 1058TIP3    H2 3136   4.090   3.611   1.366
 1059TIP3   OH2 3137   4.065   3.808   1.138
 1059TIP3    H1 3138   4.007   3.863   1.080
 1059TIP3    H2 3139   4.152   3.830   1.099
 1060TIP3   OH2 3140   3.293   3.373   1.574
 1060TIP3    H1 3141   3.225   3.304   1.590
 1060TIP3    H2 3142   3.325   3.348   1.485
 1061TIP3   OH2 3143   3.548   2.815   1.218
 1061TIP3    H1 3144   3.497   2.896   1.195
 1061TIP3    H2 3145   3.479   2.746   1.207
 1062TIP3   OH2 3146   3.674   3.317   1.433
 1062TIP3    H1 3147   3.659   3.302   1.528
 1062TIP3    H2 3148   3.585   3.294   1.399
 1063TIP3   OH2 3149   3.911   3.267   1.287
 1063TIP3    H1 3150   3.837   3.270   1.351
 1063TIP3    H2 3151   3.986   3.238   1.344
 1064TIP3   OH2 3152   4.144   3.211   1.435
 1064TIP3    H1 3153   4.156   3.115   1.452
 1064TIP3    H2 3154   4.138   3.248   1.526
 1065TIP3   OH2 3155   3.131   3.154   1.628
 1065TIP3    H1 3156   3.133   3.062   1.596
 1065TIP3    H2 3157   3.169   3.143   1.717
 1066TIP3   OH2 3158   3.641   2.825   1.476
 1066TIP3    H1 3159   3.707   2.753   1.469
 1066TIP3    H2 3160   3.601   2.821   1.387
 1067TIP3   OH2 3161   3.709   3.041   1.634
 1067TIP3    H1 3162   3.688   2.969   1.570
 1067TIP3    H2 3163   3.630   3.098   1.628
 1068TIP3   OH2 3164   2.414   3.658  -0.039
 1068TIP3    H1 3165   2.505   3.689  -0.061
 1068TIP3    H2 3166   2.413   3.572  -0.083
 1069TIP3   OH2 3167   2.327   4.263   0.363
 1069TIP3    H1 3168   2.259   4.202   0.327
 1069TIP3    H2 3169   2.371   4.205   0.429
 1070TIP3   OH2 3170   2.458   4.112   0.553
 1070TIP3    H1 3171   2.447   4.040   0.618
 1070TIP3    H2 3172   2.512   4.173   0.605
 1071TIP3   OH2 3173   4.195   4.512   0.350
 1071TIP3    H1 3174   4.212   4.536   0.443
 1071TIP3    H2 3175   4.248   4.579   0.303
 1072TIP3   OH2 3176   4.212   4.532   0.631
 1072TIP3    H1 3177   4.171   4.443   0.632
 1072TIP3    H2 3178   4.291   4.514   0.684
 1073TIP3   OH2 3179   4.262   4.210   1.207
 1073TIP3    H1 3180   4.191   4.221   1.272
 1073TIP3    H2 3181   4.305   4.298   1.210
 1074TIP3   OH2 3182   4.220   3.567   0.017
 1074TIP3    H1 3183   4.141   3.545   0.071
 1074TIP3    H2 3184   4.272   3.623   0.076
 1075TIP3   OH2 3185   4.263   3.984   0.461
 1075TIP3    H1 3186   4.316   3.916   0.415
 1075TIP3    H2 3187   4.262   4.057   0.396
 1076TIP3   OH2 3188   4.090   4.283   0.655
 1076TIP3    H1 3189   4.018   4.326   0.706
 1076TIP3    H2 3190   4.039   4.238   0.583
 1077TIP3   OH2 3191   4.029   3.446   0.180
 1077TIP3    H1 3192   4.031   3.349   0.171
 1077TIP3    H2 3193   4.016   3.458   0.276
 1078TIP3   OH2 3194   2.644   3.523   0.923
 1078TIP3    H1 3195   2.642   3.487   0.831
 1078TIP3    H2 3196   2.741   3.523   0.939
 1079TIP3   OH2 3197   4.311   3.874   1.032
 1079TIP3    H1 3198   4.382   3.807   1.021
 1079TIP3    H2 3199   4.337   3.943   0.969
 1080TIP3   OH2 3200   4.493   3.674   1.038
 1080TIP3    H1 3201   4.419   3.626   1.080
 1080TIP3    H2 3202   4.566   3.611   1.057
 1081TIP3   OH2 3203   4.015   3.163   0.084
 1081TIP3    H1 3204   4.061   3.076   0.090
 1081TIP3    H2 3205   4.054   3.198   0.001
 1082TIP3   OH2 3206   4.175   3.332   0.566
 1082TIP3    H1 3207   4.261   3.358   0.525
 1082TIP3    H2 3208   4.188   3.371   0.655
 1083TIP3   OH2 3209   4.248   3.482   0.793
 1083TIP3    H1 3210   4.171   3.515   0.844
 1083TIP3    H2 3211   4.280   3.564   0.750
 1084TIP3   OH2 3212   2.866   3.209   1.601
 1084TIP3    H1 3213   2.963   3.202   1.603
 1084TIP3    H2 3214   2.841   3.121   1.636
 1085TIP3   OH2 3215   4.700   3.077   1.350
 1085TIP3    H1 3216   4.760   3.012   1.308
 1085TIP3    H2 3217   4.668   3.127   1.272
 1086TIP3   OH2 3218   4.135   2.911   0.100
 1086TIP3    H1 3219   4.173   2.899   0.189
 1086TIP3    H2 3220   4.067   2.840   0.101
 1087TIP3   OH2 3221   2.828   2.900   0.929
 1087TIP3    H1 3222   2.888   2.823   0.936
 1087TIP3    H2 3223   2.891   2.973   0.919
 1088TIP3   OH2 3224   2.626   3.173   0.999
 1088TIP3    H1 3225   2.674   3.166   0.914
 1088TIP3    H2 3226   2.660   3.257   1.033
 1089TIP3   OH2 3227   4.568   3.210   1.154
 1089TIP3    H1 3228   4.484   3.255   1.178
 1089TIP3    H2 3229   4.532   3.139   1.097
 1090TIP3   OH2 3230   4.242   2.849  -0.301
 1090TIP3    H1 3231   4.222   2.754  -0.293
 1090TIP3    H2 3232   4.338   2.847  -0.288
 1091TIP3   OH2 3233   2.614   2.703   0.519
 1091TIP3    H1 3234   2.520   2.684   0.539
 1091TIP3    H2 3235   2.608   2.743   0.430
 1092TIP3   OH2 3236   3.808   4.365   0.073
 1092TIP3    H1 3237   3.779   4.361  -0.020
 1092TIP3    H2 3238   3.861   4.446   0.076
 1093TIP3   OH2 3239   2.833   2.757   1.315
 1093TIP3    H1 3240   2.781   2.752   1.396
 1093TIP3    H2 3241   2.767   2.795   1.253
 1094TIP3   OH2 3242   2.870   4.190   1.390
 1094TIP3    H1 3243   2.778   4.162   1.375
 1094TIP3    H2 3244   2.884   4.165   1.482
 1095TIP3   OH2 3245   3.051   4.221   0.939
 1095TIP3    H1 3246   3.004   4.297   0.899
 1095TIP3    H2 3247   3.137   4.233   0.894
 1096TIP3   OH2 3248   3.491   4.462   1.076
 1096TIP3    H1 3249   3.533   4.461   1.164
 1096TIP3    H2 3250   3.557   4.514   1.025
 1097TIP3   OH2 3251   3.672   4.617   0.938
 1097TIP3    H1 3252   3.742   4.565   0.896
 1097TIP3    H2 3253   3.724   4.673   0.999
 1098TIP3   OH2 3254   4.468   2.974   1.035
 1098TIP3    H1 3255   4.378   2.964   1.001
 1098TIP3    H2 3256   4.502   2.881   1.026
 1099TIP3   OH2 3257   2.725   4.477   0.962
 1099TIP3    H1 3258   2.634   4.509   0.941
 1099TIP3    H2 3259   2.738   4.516   1.049
 1100TIP3   OH2 3260   2.962   4.455   0.823
 1100TIP3    H1 3261   2.874   4.467   0.865
 1100TIP3    H2 3262   2.943   4.485   0.731
 1101TIP3   OH2 3263   3.387   4.480   0.621
 1101TIP3    H1 3264   3.318   4.499   0.555
 1101TIP3    H2 3265   3.399   4.568   0.663
 1102TIP3   OH2 3266   3.657   4.418   0.672
 1102TIP3    H1 3267   3.563   4.438   0.652
 1102TIP3    H2 3268   3.703   4.492   0.629
 1103TIP3   OH2 3269   3.861   4.608   0.585
 1103TIP3    H1 3270   3.847   4.694   0.539
 1103TIP3    H2 3271   3.889   4.550   0.511
 1104TIP3   OH2 3272   2.638   4.268   0.708
 1104TIP3    H1 3273   2.664   4.239   0.798
 1104TIP3    H2 3274   2.709   4.223   0.657
 1105TIP3   OH2 3275   2.833   4.141   0.567
 1105TIP3    H1 3276   2.846   4.056   0.617
 1105TIP3    H2 3277   2.925   4.175   0.563
 1106TIP3   OH2 3278   3.101   4.233   0.571
 1106TIP3    H1 3279   3.130   4.140   0.560
 1106TIP3    H2 3280   3.149   4.255   0.654
 1107TIP3   OH2 3281   3.675   2.890   0.661
 1107TIP3    H1 3282   3.630   2.819   0.711
 1107TIP3    H2 3283   3.745   2.841   0.613
 1108TIP3   OH2 3284   4.194   2.772   0.559
 1108TIP3    H1 3285   4.227   2.825   0.484
 1108TIP3    H2 3286   4.098   2.786   0.553
 1109TIP3   OH2 3287   4.291   2.872   0.323
 1109TIP3    H1 3288   4.366   2.820   0.288
 1109TIP3    H2 3289   4.324   2.963   0.310
 1110TIP3   OH2 3290   2.920   2.599   0.671
 1110TIP3    H1 3291   2.826   2.572   0.665
 1110TIP3    H2 3292   2.965   2.512   0.666
 1111TIP3   OH2 3293   2.762   2.465   0.326
 1111TIP3    H1 3294   2.767   2.537   0.259
 1111TIP3    H2 3295   2.685   2.492   0.379
 1112TIP3   OH2 3296   3.369   2.629   0.551
 1112TIP3    H1 3297   3.426   2.677   0.489
 1112TIP3    H2 3298   3.390   2.671   0.635
 1113TIP3   OH2 3299   3.913   2.778   0.532
 1113TIP3    H1 3300   3.907   2.736   0.445
 1113TIP3    H2 3301   3.901   2.701   0.592
 1114TIP3   OH2 3302   3.948   2.701   0.101
 1114TIP3    H1 3303   3.859   2.739   0.100
 1114TIP3    H2 3304   3.931   2.617   0.149
 1115TIP3   OH2 3305   2.425   4.039   0.093
 1115TIP3    H1 3306   2.340   4.004   0.061
 1115TIP3    H2 3307   2.410   4.134   0.082
 1116TIP3   OH2 3308   2.826   2.628   0.112
 1116TIP3    H1 3309   2.856   2.556   0.056
 1116TIP3    H2 3310   2.907   2.680   0.128
 1117TIP3   OH2 3311   3.339   2.805   0.180
 1117TIP3    H1 3312   3.396   2.755   0.240
 1117TIP3    H2 3313   3.362   2.897   0.207
 1118TIP3   OH2 3314   3.129   2.881   1.563
 1118TIP3    H1 3315   3.091   2.810   1.618
 1118TIP3    H2 3316   3.222   2.879   1.592
 1119TIP3   OH2 3317   3.379   2.877   1.682
 1119TIP3    H1 3318   3.464   2.850   1.643
 1119TIP3    H2 3319   3.366   2.806   1.748
 1120TIP3   OH2 3320   2.556   4.111  -0.230
 1120TIP3    H1 3321   2.495   4.106  -0.156
 1120TIP3    H2 3322   2.553   4.022  -0.265
 1121TIP3   OH2 3323   4.206   2.940   1.468
 1121TIP3    H1 3324   4.222   2.909   1.560
 1121TIP3    H2 3325   4.296   2.934   1.429
 1122TIP3   OH2 3326   4.141   4.491   0.960
 1122TIP3    H1 3327   4.062   4.461   0.910
 1122TIP3    H2 3328   4.122   4.586   0.967
 1123TIP3   OH2 3329   4.700   3.756   0.483
 1123TIP3    H1 3330   4.728   3.686   0.545
 1123TIP3    H2 3331   4.785   3.800   0.466
 1124TIP3   OH2 3332   4.634   4.149   0.241
 1124TIP3    H1 3333   4.641   4.053   0.234
 1124TIP3    H2 3334   4.719   4.177   0.205
 1125TIP3   OH2 3335   4.381   3.348  -0.029
 1125TIP3    H1 3336   4.359   3.443  -0.015
 1125TIP3    H2 3337   4.293   3.311  -0.010
 1126TIP3   OH2 3338   4.461   3.660   0.141
 1126TIP3    H1 3339   4.493   3.580   0.189
 1126TIP3    H2 3340   4.542   3.716   0.142
 1127TIP3   OH2 3341   5.628   3.603   0.176
 1127TIP3    H1 3342   5.643   3.509   0.202
 1127TIP3    H2 3343   5.715   3.629   0.141
 1128TIP3   OH2 3344   4.940   3.264   0.138
 1128TIP3    H1 3345   4.909   3.327   0.072
 1128TIP3    H2 3346   4.898   3.182   0.103
 1129TIP3   OH2 3347   4.591   3.459   0.276
 1129TIP3    H1 3348   4.675   3.446   0.323
 1129TIP3    H2 3349   4.602   3.392   0.205
 1130TIP3   OH2 3350   5.050   3.686   0.110
 1130TIP3    H1 3351   5.127   3.628   0.128
 1130TIP3    H2 3352   5.012   3.644   0.031
 1131TIP3   OH2 3353   6.294   3.595   0.333
 1131TIP3    H1 3354   6.215   3.644   0.302
 1131TIP3    H2 3355   6.321   3.653   0.407
 1132TIP3   OH2 3356   4.954   3.233   0.589
 1132TIP3    H1 3357   4.894   3.271   0.522
 1132TIP3    H2 3358   4.901   3.249   0.670
 1133TIP3   OH2 3359   5.069   4.025   0.386
 1133TIP3    H1 3360   4.993   4.070   0.429
 1133TIP3    H2 3361   5.118   4.103   0.357
 1134TIP3   OH2 3362   4.828   3.349   0.374
 1134TIP3    H1 3363   4.892   3.420   0.396
 1134TIP3    H2 3364   4.871   3.313   0.292
 1135TIP3   OH2 3365   4.887   4.206   0.479
 1135TIP3    H1 3366   4.862   4.295   0.446
 1135TIP3    H2 3367   4.808   4.188   0.535
 1136TIP3   OH2 3368   5.997   3.309   0.298
 1136TIP3    H1 3369   5.903   3.330   0.297
 1136TIP3    H2 3370   6.025   3.351   0.216
 1137TIP3   OH2 3371   5.300   2.945   0.316
 1137TIP3    H1 3372   5.285   2.849   0.331
 1137TIP3    H2 3373   5.220   2.982   0.360
 1138TIP3   OH2 3374   5.823   3.836   0.452
 1138TIP3    H1 3375   5.819   3.918   0.506
 1138TIP3    H2 3376   5.731   3.834   0.417
 1139TIP3   OH2 3377   4.935   3.788   0.329
 1139TIP3    H1 3378   4.970   3.755   0.244
 1139TIP3    H2 3379   4.988   3.870   0.340
 1140TIP3   OH2 3380   5.094   4.318   0.627
 1140TIP3    H1 3381   5.036   4.383   0.672
 1140TIP3    H2 3382   5.026   4.268   0.577
 1141TIP3   OH2 3383   4.852   3.877   0.730
 1141TIP3    H1 3384   4.855   3.966   0.772
 1141TIP3    H2 3385   4.757   3.857   0.741
 1142TIP3   OH2 3386   4.889   4.486   0.712
 1142TIP3    H1 3387   4.852   4.495   0.622
 1142TIP3    H2 3388   4.809   4.465   0.765
 1143TIP3   OH2 3389   4.466   4.022   0.660
 1143TIP3    H1 3390   4.398   4.002   0.593
 1143TIP3    H2 3391   4.504   3.934   0.680
 1144TIP3   OH2 3392   4.330   4.209   0.293
 1144TIP3    H1 3393   4.427   4.210   0.287
 1144TIP3    H2 3394   4.314   4.288   0.347
 1145TIP3   OH2 3395   5.290   4.446   0.486
 1145TIP3    H1 3396   5.286   4.535   0.526
 1145TIP3    H2 3397   5.219   4.401   0.536
 1146TIP3   OH2 3398   6.073   3.794   0.628
 1146TIP3    H1 3399   6.001   3.804   0.564
 1146TIP3    H2 3400   6.090   3.698   0.622
 1147TIP3   OH2 3401   4.672   4.202   0.643
 1147TIP3    H1 3402   4.719   4.189   0.728
 1147TIP3    H2 3403   4.596   4.141   0.651
 1148TIP3   OH2 3404   5.066   3.029   0.435
 1148TIP3    H1 3405   4.977   2.999   0.406
 1148TIP3    H2 3406   5.040   3.108   0.486
 1149TIP3   OH2 3407   5.606   3.143   0.628
 1149TIP3    H1 3408   5.673   3.116   0.693
 1149TIP3    H2 3409   5.522   3.124   0.675
 1150TIP3   OH2 3410   5.842   3.571   0.542
 1150TIP3    H1 3411   5.793   3.570   0.628
 1150TIP3    H2 3412   5.824   3.661   0.509
 1151TIP3   OH2 3413   5.002   3.549   0.450
 1151TIP3    H1 3414   4.953   3.562   0.534
 1151TIP3    H2 3415   4.984   3.633   0.404
 1152TIP3   OH2 3416   5.551   3.790   0.774
 1152TIP3    H1 3417   5.529   3.719   0.838
 1152TIP3    H2 3418   5.644   3.808   0.798
 1153TIP3   OH2 3419   4.823   3.569   0.659
 1153TIP3    H1 3420   4.846   3.635   0.726
 1153TIP3    H2 3421   4.811   3.488   0.712
 1154TIP3   OH2 3422   4.421   3.092   0.231
 1154TIP3    H1 3423   4.486   3.128   0.296
 1154TIP3    H2 3424   4.478   3.059   0.162
 1155TIP3   OH2 3425   5.565   3.792   0.365
 1155TIP3    H1 3426   5.572   3.730   0.290
 1155TIP3    H2 3427   5.522   3.735   0.432
 1156TIP3   OH2 3428   5.204   3.214   0.062
 1156TIP3    H1 3429   5.120   3.235   0.107
 1156TIP3    H2 3430   5.265   3.270   0.111
 1157TIP3   OH2 3431   4.625   3.277   0.078
 1157TIP3    H1 3432   4.533   3.271   0.048
 1157TIP3    H2 3433   4.669   3.197   0.042
 1158TIP3   OH2 3434   5.679   3.328   0.237
 1158TIP3    H1 3435   5.667   3.349   0.332
 1158TIP3    H2 3436   5.614   3.255   0.230
 1159TIP3   OH2 3437   4.835   4.125   0.867
 1159TIP3    H1 3438   4.914   4.157   0.916
 1159TIP3    H2 3439   4.769   4.126   0.939
 1160TIP3   OH2 3440   5.262   3.521   0.152
 1160TIP3    H1 3441   5.345   3.538   0.103
 1160TIP3    H2 3442   5.293   3.504   0.244
 1161TIP3   OH2 3443   4.803   3.070  -0.000
 1161TIP3    H1 3444   4.782   2.985   0.043
 1161TIP3    H2 3445   4.863   3.045  -0.072
 1162TIP3   OH2 3446   5.274   3.478   0.428
 1162TIP3    H1 3447   5.184   3.516   0.433
 1162TIP3    H2 3448   5.329   3.544   0.475
 1163TIP3   OH2 3449   5.392   4.180   0.503
 1163TIP3    H1 3450   5.434   4.168   0.589
 1163TIP3    H2 3451   5.375   4.276   0.503
 1164TIP3   OH2 3452   4.676   3.836   0.186
 1164TIP3    H1 3453   4.738   3.893   0.136
 1164TIP3    H2 3454   4.734   3.804   0.258
 1165TIP3   OH2 3455   4.587   3.807   0.795
 1165TIP3    H1 3456   4.603   3.795   0.891
 1165TIP3    H2 3457   4.515   3.744   0.780
 1166TIP3   OH2 3458   5.310   3.926   0.815
 1166TIP3    H1 3459   5.248   3.864   0.775
 1166TIP3    H2 3460   5.396   3.890   0.785
 1167TIP3   OH2 3461   5.569   4.418   0.419
 1167TIP3    H1 3462   5.475   4.442   0.411
 1167TIP3    H2 3463   5.597   4.483   0.487
 1168TIP3   OH2 3464   5.085   4.513   0.292
 1168TIP3    H1 3465   5.081   4.605   0.260
 1168TIP3    H2 3466   5.164   4.513   0.349
 1169TIP3   OH2 3467   5.477   4.129   0.245
 1169TIP3    H1 3468   5.434   4.140   0.333
 1169TIP3    H2 3469   5.569   4.122   0.275
 1170TIP3   OH2 3470   4.792   3.315   0.801
 1170TIP3    H1 3471   4.695   3.319   0.815
 1170TIP3    H2 3472   4.820   3.260   0.876
 1171TIP3   OH2 3473   4.505   4.398   0.437
 1171TIP3    H1 3474   4.567   4.331   0.471
 1171TIP3    H2 3475   4.532   4.477   0.487
 1172TIP3   OH2 3476   5.636   3.382   0.496
 1172TIP3    H1 3477   5.713   3.423   0.539
 1172TIP3    H2 3478   5.623   3.300   0.548
 1173TIP3   OH2 3479   5.469   3.629   0.560
 1173TIP3    H1 3480   5.493   3.685   0.638
 1173TIP3    H2 3481   5.523   3.550   0.575
 1174TIP3   OH2 3482   6.110   3.528   0.553
 1174TIP3    H1 3483   6.012   3.522   0.548
 1174TIP3    H2 3484   6.134   3.524   0.460
 1175TIP3   OH2 3485   4.804   2.948   0.403
 1175TIP3    H1 3486   4.775   2.911   0.317
 1175TIP3    H2 3487   4.796   2.871   0.462
 1176TIP3   OH2 3488   4.503   4.714   0.861
 1176TIP3    H1 3489   4.590   4.717   0.907
 1176TIP3    H2 3490   4.487   4.618   0.858
 1177TIP3   OH2 3491   4.977   4.666   0.909
 1177TIP3    H1 3492   5.073   4.661   0.909
 1177TIP3    H2 3493   4.954   4.607   0.835
 1178TIP3   OH2 3494   5.634   4.577   0.635
 1178TIP3    H1 3495   5.619   4.510   0.705
 1178TIP3    H2 3496   5.703   4.633   0.675
 1179TIP3   OH2 3497   4.632   4.116   1.058
 1179TIP3    H1 3498   4.646   4.020   1.066
 1179TIP3    H2 3499   4.545   4.120   1.013
 1180TIP3   OH2 3500   5.239   4.204   0.833
 1180TIP3    H1 3501   5.197   4.225   0.747
 1180TIP3    H2 3502   5.269   4.111   0.820
 1181TIP3   OH2 3503   5.730   4.202   0.414
 1181TIP3    H1 3504   5.798   4.250   0.366
 1181TIP3    H2 3505   5.663   4.273   0.424
 1182TIP3   OH2 3506   4.752   3.852   1.043
 1182TIP3    H1 3507   4.828   3.799   1.018
 1182TIP3    H2 3508   4.780   3.886   1.131
 1183TIP3   OH2 3509   5.089   3.735   0.703
 1183TIP3    H1 3510   5.009   3.792   0.704
 1183TIP3    H2 3511   5.138   3.769   0.625
 1184TIP3   OH2 3512   5.603   4.136   0.834
 1184TIP3    H1 3513   5.686   4.109   0.793
 1184TIP3    H2 3514   5.595   4.073   0.908
 1185TIP3   OH2 3515   5.212   3.525   0.826
 1185TIP3    H1 3516   5.210   3.445   0.769
 1185TIP3    H2 3517   5.166   3.591   0.770
 1186TIP3   OH2 3518   5.212   3.307   0.641
 1186TIP3    H1 3519   5.241   3.352   0.559
 1186TIP3    H2 3520   5.119   3.285   0.620
 1187TIP3   OH2 3521   5.233   3.839   0.503
 1187TIP3    H1 3522   5.321   3.855   0.466
 1187TIP3    H2 3523   5.180   3.909   0.461
 1188TIP3   OH2 3524   5.819   3.810   0.886
 1188TIP3    H1 3525   5.869   3.728   0.899
 1188TIP3    H2 3526   5.886   3.869   0.849
 1189TIP3   OH2 3527   5.860   4.071   0.617
 1189TIP3    H1 3528   5.803   4.121   0.555
 1189TIP3    H2 3529   5.949   4.095   0.582
 1190TIP3   OH2 3530   5.090   3.629   1.061
 1190TIP3    H1 3531   5.021   3.561   1.077
 1190TIP3    H2 3532   5.122   3.604   0.972
 1191TIP3   OH2 3533   5.344   3.069   0.704
 1191TIP3    H1 3534   5.294   3.151   0.683
 1191TIP3    H2 3535   5.275   3.001   0.694
 1192TIP3   OH2 3536   5.472   3.573   0.920
 1192TIP3    H1 3537   5.456   3.559   1.015
 1192TIP3    H2 3538   5.382   3.551   0.886
 1193TIP3   OH2 3539   5.708   3.522   0.772
 1193TIP3    H1 3540   5.634   3.527   0.836
 1193TIP3    H2 3541   5.783   3.495   0.829
 1194TIP3   OH2 3542   5.938   3.468   0.923
 1194TIP3    H1 3543   5.950   3.372   0.940
 1194TIP3    H2 3544   5.933   3.505   1.014
 1195TIP3   OH2 3545   4.927   3.411   1.114
 1195TIP3    H1 3546   4.930   3.318   1.083
 1195TIP3    H2 3547   4.964   3.400   1.204
 1196TIP3   OH2 3548   5.439   3.082   0.962
 1196TIP3    H1 3549   5.503   3.009   0.955
 1196TIP3    H2 3550   5.397   3.077   0.873
 1197TIP3   OH2 3551   5.505   3.297   1.121
 1197TIP3    H1 3552   5.484   3.226   1.057
 1197TIP3    H2 3553   5.426   3.355   1.115
 1198TIP3   OH2 3554   4.234   4.368   0.053
 1198TIP3    H1 3555   4.194   4.296   0.105
 1198TIP3    H2 3556   4.280   4.417   0.123
 1199TIP3   OH2 3557   6.061   4.465   0.698
 1199TIP3    H1 3558   5.988   4.478   0.762
 1199TIP3    H2 3559   6.101   4.555   0.695
 1200TIP3   OH2 3560   4.440   3.778   0.406
 1200TIP3    H1 3561   4.444   3.751   0.312
 1200TIP3    H2 3562   4.536   3.778   0.429
 1201TIP3   OH2 3563   6.108   4.142   0.512
 1201TIP3    H1 3564   6.178   4.073   0.509
 1201TIP3    H2 3565   6.117   4.182   0.424
 1202TIP3   OH2 3566   6.287   3.936   0.540
 1202TIP3    H1 3567   6.208   3.889   0.574
 1202TIP3    H2 3568   6.356   3.870   0.561
 1203TIP3   OH2 3569   6.054   3.733   0.315
 1203TIP3    H1 3570   5.973   3.775   0.347
 1203TIP3    H2 3571   6.064   3.773   0.226
 1204TIP3   OH2 3572   4.661   3.463   1.083
 1204TIP3    H1 3573   4.759   3.458   1.088
 1204TIP3    H2 3574   4.637   3.376   1.121
 1205TIP3   OH2 3575   6.501   3.335   0.837
 1205TIP3    H1 3576   6.558   3.270   0.792
 1205TIP3    H2 3577   6.466   3.387   0.761
 1206TIP3   OH2 3578   4.619   3.157   0.411
 1206TIP3    H1 3579   4.680   3.082   0.422
 1206TIP3    H2 3580   4.683   3.231   0.403
 1207TIP3   OH2 3581   4.419   3.429   0.491
 1207TIP3    H1 3582   4.473   3.432   0.409
 1207TIP3    H2 3583   4.443   3.512   0.533
 1208TIP3   OH2 3584   6.364   3.473   0.648
 1208TIP3    H1 3585   6.277   3.514   0.664
 1208TIP3    H2 3586   6.335   3.403   0.586
 1209TIP3   OH2 3587   4.391   2.941  -0.041
 1209TIP3    H1 3588   4.321   2.919   0.023
 1209TIP3    H2 3589   4.352   3.018  -0.084
 1210TIP3   OH2 3590   4.629   3.012   0.800
 1210TIP3    H1 3591   4.578   3.007   0.883
 1210TIP3    H2 3592   4.562   3.051   0.740
 1211TIP3   OH2 3593   4.668   4.439   0.875
 1211TIP3    H1 3594   4.574   4.417   0.861
 1211TIP3    H2 3595   4.678   4.428   0.970
 1212TIP3   OH2 3596   4.844   4.475   0.421
 1212TIP3    H1 3597   4.805   4.560   0.391
 1212TIP3    H2 3598   4.930   4.480   0.374
 1213TIP3   OH2 3599   5.266   4.700   0.581
 1213TIP3    H1 3600   5.314   4.709   0.666
 1213TIP3    H2 3601   5.325   4.753   0.521
 1214TIP3   OH2 3602   5.445   4.837   0.431
 1214TIP3    H1 3603   5.497   4.824   0.351
 1214TIP3    H2 3604   5.507   4.888   0.486
 1215TIP3   OH2 3605   6.260   3.226   0.538
 1215TIP3    H1 3606   6.169   3.216   0.507
 1215TIP3    H2 3607   6.295   3.136   0.521
 1216TIP3   OH2 3608   4.518   4.720   0.462
 1216TIP3    H1 3609   4.430   4.755   0.434
 1216TIP3    H2 3610   4.540   4.781   0.533
 1217TIP3   OH2 3611   4.763   4.722   0.324
 1217TIP3    H1 3612   4.671   4.739   0.356
 1217TIP3    H2 3613   4.753   4.727   0.227
 1218TIP3   OH2 3614   4.449   4.513   0.192
 1218TIP3    H1 3615   4.445   4.488   0.286
 1218TIP3    H2 3616   4.542   4.496   0.176
 1219TIP3   OH2 3617   5.484   3.133   0.210
 1219TIP3    H1 3618   5.410   3.092   0.258
 1219TIP3    H2 3619   5.501   3.065   0.143
 1220TIP3   OH2 3620   4.716   2.851   0.155
 1220TIP3    H1 3621   4.625   2.815   0.167
 1220TIP3    H2 3622   4.767   2.767   0.153
 1221TIP3   OH2 3623   4.477   2.721  -0.189
 1221TIP3    H1 3624   4.567   2.742  -0.220
 1221TIP3    H2 3625   4.460   2.791  -0.122
 1222TIP3   OH2 3626   5.161   2.886   0.052
 1222TIP3    H1 3627   5.178   2.957  -0.011
 1222TIP3    H2 3628   5.190   2.925   0.136
 1223TIP3   OH2 3629   4.925   3.137   1.049
 1223TIP3    H1 3630   4.887   3.067   1.105
 1223TIP3    H2 3631   5.019   3.135   1.079
 1224TIP3   OH2 3632   5.175   3.133   1.169
 1224TIP3    H1 3633   5.261   3.106   1.131
 1224TIP3    H2 3634   5.161   3.063   1.236
 1225TIP3   OH2 3635   6.002   3.196   0.955
 1225TIP3    H1 3636   6.019   3.166   1.047
 1225TIP3    H2 3637   6.091   3.191   0.916
 1226TIP3   OH2 3638   5.930   4.743   0.482
 1226TIP3    H1 3639   5.903   4.661   0.438
 1226TIP3    H2 3640   5.850   4.796   0.482
 1227TIP3   OH2 3641   6.569   3.595   0.346
 1227TIP3    H1 3642   6.476   3.583   0.322
 1227TIP3    H2 3643   6.608   3.511   0.315
 1228TIP3   OH2 3644   6.423   4.381   0.545
 1228TIP3    H1 3645   6.463   4.293   0.533
 1228TIP3    H2 3646   6.342   4.373   0.494
 1229TIP3   OH2 3647   6.563   4.110   0.528
 1229TIP3    H1 3648   6.564   4.013   0.526
 1229TIP3    H2 3649   6.568   4.130   0.624
 1230TIP3   OH2 3650   6.901   3.893   0.542
 1230TIP3    H1 3651   6.832   3.824   0.560
 1230TIP3    H2 3652   6.873   3.928   0.456
 1231TIP3   OH2 3653   6.742   3.673   0.591
 1231TIP3    H1 3654   6.714   3.589   0.550
 1231TIP3    H2 3655   6.756   3.646   0.683
 1232TIP3   OH2 3656   6.459   3.733   0.584
 1232TIP3    H1 3657   6.538   3.708   0.534
 1232TIP3    H2 3658   6.434   3.646   0.621
 1233TIP3   OH2 3659   6.415   3.287   0.316
 1233TIP3    H1 3660   6.364   3.277   0.399
 1233TIP3    H2 3661   6.367   3.359   0.272
 1234TIP3   OH2 3662   6.720   3.387   0.553
 1234TIP3    H1 3663   6.684   3.312   0.604
 1234TIP3    H2 3664   6.812   3.391   0.586
 1235TIP3   OH2 3665   6.971   3.394   0.667
 1235TIP3    H1 3666   7.061   3.380   0.635
 1235TIP3    H2 3667   6.961   3.322   0.734
 1236TIP3   OH2 3668   0.494   4.455   1.343
 1236TIP3    H1 3669   0.523   4.534   1.392
 1236TIP3    H2 3670   0.521   4.478   1.253
 1237TIP3   OH2 3671   0.564   4.657   1.529
 1237TIP3    H1 3672   0.472   4.691   1.524
 1237TIP3    H2 3673   0.606   4.728   1.582
 1238TIP3   OH2 3674   0.178   4.363   1.242
 1238TIP3    H1 3675   0.170   4.275   1.207
 1238TIP3    H2 3676   0.259   4.395   1.199
 1239TIP3   OH2 3677   0.287   4.346   1.513
 1239TIP3    H1 3678   0.223   4.413   1.481
 1239TIP3    H2 3679   0.354   4.357   1.445
 1240TIP3   OH2 3680   0.441   4.978   1.356
 1240TIP3    H1 3681   0.399   5.067   1.346
 1240TIP3    H2 3682   0.510   4.989   1.289
 1241TIP3   OH2 3683   0.086   4.881   1.623
 1241TIP3    H1 3684   0.113   4.952   1.683
 1241TIP3    H2 3685  -0.010   4.896   1.621
 1242TIP3   OH2 3686   0.457   5.668   1.613
 1242TIP3    H1 3687   0.428   5.575   1.625
 1242TIP3    H2 3688   0.414   5.689   1.529
 1243TIP3   OH2 3689  -0.150   4.173   1.794
 1243TIP3    H1 3690  -0.073   4.156   1.860
 1243TIP3    H2 3691  -0.227   4.162   1.849
 1244TIP3   OH2 3692   0.131   4.656   1.778
 1244TIP3    H1 3693   0.050   4.603   1.784
 1244TIP3    H2 3694   0.115   4.716   1.699
 1245TIP3   OH2 3695  -0.182   4.821   1.922
 1245TIP3    H1 3696  -0.210   4.778   2.005
 1245TIP3    H2 3697  -0.118   4.887   1.952
 1246TIP3   OH2 3698  -0.118   4.289   1.447
 1246TIP3    H1 3699  -0.111   4.225   1.455
 1246TIP3    H2 3700  -0.010   4.347   1.428
 1247TIP3   OH2 3701   0.386   5.411   1.557
 1247TIP3    H1 3702   0.334   5.442   1.481
 1247TIP3    H2 3703   0.464   5.370   1.513
 1248TIP3   OH2 3704  -0.081   4.435   1.743
 1248TIP3    H1 3705  -0.062   4.469   1.663
 1248TIP3    H2 3706  -0.119   4.347   1.730
 1249TIP3   OH2 3707  -0.306   4.645   1.751
 1249TIP3    H1 3708  -0.267   4.705   1.819
 1249TIP3    H2 3709  -0.251   4.568   1.756
 1250TIP3   OH2 3710  -0.126   5.143   1.992
 1250TIP3    H1 3711  -0.037   5.173   2.013
 1250TIP3    H2 3712  -0.158   5.114   2.080
 1251TIP3   OH2 3713   0.124   4.846   2.032
 1251TIP3    H1 3714   0.121   4.808   2.124
 1251TIP3    H2 3715   0.141   4.940   2.047
 1252TIP3   OH2 3716   0.116   5.106   1.789
 1252TIP3    H1 3717   0.053   5.170   1.754
 1252TIP3    H2 3718   0.201   5.135   1.747
 1253TIP3   OH2 3719  -0.411   4.126   1.878
 1253TIP3    H1 3720  -0.482   4.184   1.845
 1253TIP3    H2 3721  -0.461   4.044   1.892
 1254TIP3   OH2 3722  -0.270   4.638   2.110
 1254TIP3    H1 3723  -0.241   4.619   2.201
 1254TIP3    H2 3724  -0.343   4.574   2.099
 1255TIP3   OH2 3725  -0.018   4.563   2.007
 1255TIP3    H1 3726  -0.112   4.585   2.006
 1255TIP3    H2 3727  -0.022   4.476   2.051
 1256TIP3   OH2 3728  -0.271   4.138   2.116
 1256TIP3    H1 3729  -0.215   4.059   2.107
 1256TIP3    H2 3730  -0.328   4.132   2.038
 1257TIP3   OH2 3731  -0.285   4.345   2.285
 1257TIP3    H1 3732  -0.267   4.266   2.229
 1257TIP3    H2 3733  -0.356   4.383   2.229
 1258TIP3   OH2 3734   0.294   5.515   1.866
 1258TIP3    H1 3735   0.235   5.533   1.942
 1258TIP3    H2 3736   0.348   5.597   1.865
 1259TIP3   OH2 3737   0.354   5.175   1.687
 1259TIP3    H1 3738   0.437   5.127   1.678
 1259TIP3    H2 3739   0.369   5.255   1.633
 1260TIP3   OH2 3740   0.511   4.969   1.799
 1260TIP3    H1 3741   0.486   4.913   1.724
 1260TIP3    H2 3742   0.607   4.974   1.781
 1261TIP3   OH2 3743   0.257   4.682   1.238
 1261TIP3    H1 3744   0.348   4.684   1.203
 1261TIP3    H2 3745   0.274   4.699   1.332
 1262TIP3   OH2 3746   0.312   4.779   1.491
 1262TIP3    H1 3747   0.230   4.820   1.530
 1262TIP3    H2 3748   0.352   4.855   1.446
 1263TIP3   OH2 3749   0.741   4.367   2.018
 1263TIP3    H1 3750   0.804   4.302   1.979
 1263TIP3    H2 3751   0.721   4.423   1.940
 1264TIP3   OH2 3752   0.621   4.500   1.815
 1264TIP3    H1 3753   0.531   4.484   1.846
 1264TIP3    H2 3754   0.621   4.447   1.734
 1265TIP3   OH2 3755   0.511   4.271   1.701
 1265TIP3    H1 3756   0.427   4.270   1.651
 1265TIP3    H2 3757   0.542   4.178   1.691
 1266TIP3   OH2 3758   0.262   4.079   1.297
 1266TIP3    H1 3759   0.321   4.105   1.223
 1266TIP3    H2 3760   0.177   4.067   1.249
 1267TIP3   OH2 3761   0.388   4.161   1.076
 1267TIP3    H1 3762   0.421   4.112   0.999
 1267TIP3    H2 3763   0.407   4.253   1.046
 1268TIP3   OH2 3764   0.022   4.041   1.184
 1268TIP3    H1 3765  -0.040   4.043   1.110
 1268TIP3    H2 3766  -0.021   3.983   1.249
 1269TIP3   OH2 3767   0.245   4.235   2.126
 1269TIP3    H1 3768   0.266   4.217   2.219
 1269TIP3    H2 3769   0.334   4.246   2.087
 1270TIP3   OH2 3770   1.382   5.195   0.392
 1270TIP3    H1 3771   1.437   5.274   0.376
 1270TIP3    H2 3772   1.432   5.132   0.337
 1271TIP3   OH2 3773   1.456   5.165   0.777
 1271TIP3    H1 3774   1.490   5.137   0.864
 1271TIP3    H2 3775   1.413   5.083   0.746
 1272TIP3   OH2 3776   0.760   5.052   1.155
 1272TIP3    H1 3777   0.784   4.978   1.214
 1272TIP3    H2 3778   0.844   5.101   1.155
 1273TIP3   OH2 3779   1.676   5.447   0.491
 1273TIP3    H1 3780   1.694   5.393   0.570
 1273TIP3    H2 3781   1.727   5.527   0.508
 1274TIP3   OH2 3782   1.267   5.391   0.809
 1274TIP3    H1 3783   1.306   5.307   0.777
 1274TIP3    H2 3784   1.349   5.435   0.839
 1275TIP3   OH2 3785   2.266   4.711   0.819
 1275TIP3    H1 3786   2.298   4.793   0.861
 1275TIP3    H2 3787   2.288   4.728   0.725
 1276TIP3   OH2 3788   1.666   4.891   0.850
 1276TIP3    H1 3789   1.707   4.805   0.872
 1276TIP3    H2 3790   1.633   4.874   0.760
 1277TIP3   OH2 3791   1.006   4.529   0.821
 1277TIP3    H1 3792   0.980   4.590   0.747
 1277TIP3    H2 3793   0.961   4.449   0.786
 1278TIP3   OH2 3794   1.699   4.646   0.438
 1278TIP3    H1 3795   1.770   4.629   0.504
 1278TIP3    H2 3796   1.753   4.677   0.363
 1279TIP3   OH2 3797   0.657   4.740   0.942
 1279TIP3    H1 3798   0.747   4.719   0.974
 1279TIP3    H2 3799   0.654   4.694   0.857
 1280TIP3   OH2 3800   1.084   4.949   0.745
 1280TIP3    H1 3801   1.179   4.927   0.757
 1280TIP3    H2 3802   1.066   4.910   0.659
 1281TIP3   OH2 3803   2.341   4.920   0.987
 1281TIP3    H1 3804   2.256   4.965   0.967
 1281TIP3    H2 3805   2.354   4.947   1.079
 1282TIP3   OH2 3806   1.006   4.527   1.263
 1282TIP3    H1 3807   0.951   4.568   1.194
 1282TIP3    H2 3808   0.950   4.546   1.342
 1283TIP3   OH2 3809   1.120   5.316   1.034
 1283TIP3    H1 3810   1.058   5.387   1.061
 1283TIP3    H2 3811   1.156   5.352   0.950
 1284TIP3   OH2 3812   1.905   4.649   0.614
 1284TIP3    H1 3813   1.891   4.601   0.697
 1284TIP3    H2 3814   1.956   4.727   0.643
 1285TIP3   OH2 3815   0.893   4.641   1.041
 1285TIP3    H1 3816   0.955   4.713   1.066
 1285TIP3    H2 3817   0.943   4.599   0.967
 1286TIP3   OH2 3818   0.944   5.518   1.114
 1286TIP3    H1 3819   0.907   5.601   1.082
 1286TIP3    H2 3820   0.877   5.494   1.183
 1287TIP3   OH2 3821   1.775   5.716   0.627
 1287TIP3    H1 3822   1.685   5.699   0.664
 1287TIP3    H2 3823   1.757   5.794   0.571
 1288TIP3   OH2 3824   2.059   4.611   0.984
 1288TIP3    H1 3825   1.972   4.636   0.950
 1288TIP3    H2 3826   2.120   4.643   0.914
 1289TIP3   OH2 3827   1.350   4.249   0.964
 1289TIP3    H1 3828   1.337   4.155   0.985
 1289TIP3    H2 3829   1.274   4.289   1.012
 1290TIP3   OH2 3830   1.992   5.621   0.964
 1290TIP3    H1 3831   1.979   5.544   0.904
 1290TIP3    H2 3832   1.976   5.696   0.903
 1291TIP3   OH2 3833   2.187   5.262   0.812
 1291TIP3    H1 3834   2.102   5.312   0.815
 1291TIP3    H2 3835   2.218   5.287   0.722
 1292TIP3   OH2 3836   1.599   5.064   0.233
 1292TIP3    H1 3837   1.601   5.160   0.215
 1292TIP3    H2 3838   1.693   5.045   0.248
 1293TIP3   OH2 3839   1.866   5.137   1.108
 1293TIP3    H1 3840   1.862   5.221   1.158
 1293TIP3    H2 3841   1.779   5.139   1.063
 1294TIP3   OH2 3842   1.009   5.065   0.987
 1294TIP3    H1 3843   1.029   5.038   0.894
 1294TIP3    H2 3844   1.044   5.156   0.989
 1295TIP3   OH2 3845   1.529   5.700   0.735
 1295TIP3    H1 3846   1.500   5.780   0.782
 1295TIP3    H2 3847   1.511   5.629   0.799
 1296TIP3   OH2 3848   1.139   5.626   1.292
 1296TIP3    H1 3849   1.073   5.684   1.336
 1296TIP3    H2 3850   1.081   5.573   1.234
 1297TIP3   OH2 3851   0.922   5.187   1.391
 1297TIP3    H1 3852   0.941   5.270   1.440
 1297TIP3    H2 3853   0.824   5.193   1.393
 1298TIP3   OH2 3854   0.924   5.785   1.380
 1298TIP3    H1 3855   0.863   5.762   1.309
 1298TIP3    H2 3856   0.864   5.766   1.456
 1299TIP3   OH2 3857   1.991   4.200   0.067
 1299TIP3    H1 3858   1.908   4.214   0.117
 1299TIP3    H2 3859   2.000   4.284   0.019
 1300TIP3   OH2 3860   0.412   5.231   1.251
 1300TIP3    H1 3861   0.415   5.326   1.233
 1300TIP3    H2 3862   0.491   5.227   1.310
 1301TIP3   OH2 3863   2.229   5.970   1.013
 1301TIP3    H1 3864   2.228   5.873   1.027
 1301TIP3    H2 3865   2.146   5.995   1.059
 1302TIP3   OH2 3866   1.343   5.750   1.162
 1302TIP3    H1 3867   1.340   5.844   1.189
 1302TIP3    H2 3868   1.274   5.710   1.219
 1303TIP3   OH2 3869   2.117   5.097   1.286
 1303TIP3    H1 3870   2.035   5.106   1.236
 1303TIP3    H2 3871   2.135   5.001   1.276
 1304TIP3   OH2 3872   0.774   5.500   1.320
 1304TIP3    H1 3873   0.825   5.480   1.402
 1304TIP3    H2 3874   0.692   5.452   1.339
 1305TIP3   OH2 3875   1.116   4.327   1.096
 1305TIP3    H1 3876   1.028   4.297   1.066
 1305TIP3    H2 3877   1.090   4.405   1.149
 1306TIP3   OH2 3878   1.652   4.444   1.291
 1306TIP3    H1 3879   1.721   4.414   1.353
 1306TIP3    H2 3880   1.569   4.424   1.339
 1307TIP3   OH2 3881   1.886   4.874   1.209
 1307TIP3    H1 3882   1.835   4.871   1.293
 1307TIP3    H2 3883   1.862   4.961   1.172
 1308TIP3   OH2 3884   1.329   4.385   0.063
 1308TIP3    H1 3885   1.280   4.383   0.148
 1308TIP3    H2 3886   1.278   4.325   0.008
 1309TIP3   OH2 3887   1.057   4.841   1.126
 1309TIP3    H1 3888   1.006   4.863   1.207
 1309TIP3    H2 3889   1.042   4.923   1.074
 1310TIP3   OH2 3890   0.915   4.676   0.616
 1310TIP3    H1 3891   0.831   4.721   0.628
 1310TIP3    H2 3892   0.953   4.730   0.544
 1311TIP3   OH2 3893   1.422   4.817   0.353
 1311TIP3    H1 3894   1.386   4.895   0.309
 1311TIP3    H2 3895   1.483   4.784   0.284
 1312TIP3   OH2 3896   1.597   5.093   1.441
 1312TIP3    H1 3897   1.574   5.020   1.503
 1312TIP3    H2 3898   1.691   5.105   1.462
 1313TIP3   OH2 3899   1.578   4.843   0.593
 1313TIP3    H1 3900   1.516   4.870   0.522
 1313TIP3    H2 3901   1.615   4.764   0.549
 1314TIP3   OH2 3902   0.871   4.867   1.332
 1314TIP3    H1 3903   0.879   4.931   1.404
 1314TIP3    H2 3904   0.856   4.784   1.382
 1315TIP3   OH2 3905   0.446   4.396   0.959
 1315TIP3    H1 3906   0.531   4.428   0.997
 1315TIP3    H2 3907   0.459   4.406   0.864
 1316TIP3   OH2 3908   1.590   5.089   1.016
 1316TIP3    H1 3909   1.623   5.017   0.956
 1316TIP3    H2 3910   1.558   5.034   1.091
 1317TIP3   OH2 3911   1.265   4.553   0.694
 1317TIP3    H1 3912   1.183   4.547   0.748
 1317TIP3    H2 3913   1.335   4.546   0.761
 1318TIP3   OH2 3914   1.750   4.630   0.892
 1318TIP3    H1 3915   1.718   4.642   0.984
 1318TIP3    H2 3916   1.683   4.568   0.858
 1319TIP3   OH2 3917   1.924   6.319   1.113
 1319TIP3    H1 3918   1.923   6.342   1.018
 1319TIP3    H2 3919   2.005   6.365   1.143
 1320TIP3   OH2 3920   0.913   5.428   1.546
 1320TIP3    H1 3921   0.982   5.462   1.607
 1320TIP3    H2 3922   0.834   5.427   1.603
 1321TIP3   OH2 3923   1.350   4.883   0.788
 1321TIP3    H1 3924   1.421   4.841   0.738
 1321TIP3    H2 3925   1.353   4.834   0.873
 1322TIP3   OH2 3926   0.873   4.348   0.666
 1322TIP3    H1 3927   0.829   4.275   0.713
 1322TIP3    H2 3928   0.943   4.305   0.615
 1323TIP3   OH2 3929   1.321   4.781   1.073
 1323TIP3    H1 3930   1.231   4.814   1.090
 1323TIP3    H2 3931   1.377   4.842   1.124
 1324TIP3   OH2 3932   1.952   5.405   0.798
 1324TIP3    H1 3933   1.977   5.457   0.718
 1324TIP3    H2 3934   1.869   5.362   0.770
 1325TIP3   OH2 3935   1.586   4.478   0.046
 1325TIP3    H1 3936   1.500   4.434   0.031
 1325TIP3    H2 3937   1.560   4.572   0.039
 1326TIP3   OH2 3938   1.459   5.490   1.166
 1326TIP3    H1 3939   1.480   5.466   1.258
 1326TIP3    H2 3940   1.419   5.578   1.175
 1327TIP3   OH2 3941   1.585   4.760   0.132
 1327TIP3    H1 3942   1.676   4.742   0.162
 1327TIP3    H2 3943   1.594   4.846   0.090
 1328TIP3   OH2 3944   0.638   4.942   1.541
 1328TIP3    H1 3945   0.668   5.034   1.552
 1328TIP3    H2 3946   0.568   4.955   1.476
 1329TIP3   OH2 3947   1.355   5.227   1.480
 1329TIP3    H1 3948   1.292   5.166   1.437
 1329TIP3    H2 3949   1.441   5.190   1.450
 1330TIP3   OH2 3950   1.614   5.754   1.063
 1330TIP3    H1 3951   1.519   5.744   1.079
 1330TIP3    H2 3952   1.641   5.805   1.142
 1331TIP3   OH2 3953   2.022   4.816  -0.012
 1331TIP3    H1 3954   1.958   4.768  -0.068
 1331TIP3    H2 3955   2.018   4.901  -0.062
 1332TIP3   OH2 3956   2.243   5.680   1.052
 1332TIP3    H1 3957   2.145   5.673   1.044
 1332TIP3    H2 3958   2.269   5.649   0.962
 1333TIP3   OH2 3959   1.719   5.270   0.712
 1333TIP3    H1 3960   1.626   5.246   0.728
 1333TIP3    H2 3961   1.752   5.188   0.671
 1334TIP3   OH2 3962   1.100   5.849   1.020
 1334TIP3    H1 3963   1.145   5.850   0.933
 1334TIP3    H2 3964   1.169   5.806   1.073
 1335TIP3   OH2 3965   1.511   5.473   0.900
 1335TIP3    H1 3966   1.498   5.471   0.998
 1335TIP3    H2 3967   1.590   5.417   0.891
 1336TIP3   OH2 3968   1.747   6.007   0.954
 1336TIP3    H1 3969   1.672   5.946   0.939
 1336TIP3    H2 3970   1.737   6.070   0.879
 1337TIP3   OH2 3971   0.835   4.610   1.467
 1337TIP3    H1 3972   0.739   4.619   1.487
 1337TIP3    H2 3973   0.865   4.555   1.541
 1338TIP3   OH2 3974   1.678   4.681   1.152
 1338TIP3    H1 3975   1.760   4.718   1.189
 1338TIP3    H2 3976   1.665   4.600   1.206
 1339TIP3   OH2 3977   1.554   4.431   0.326
 1339TIP3    H1 3978   1.553   4.450   0.230
 1339TIP3    H2 3979   1.593   4.513   0.361
 1340TIP3   OH2 3980   1.247   4.610   0.424
 1340TIP3    H1 3981   1.309   4.684   0.407
 1340TIP3    H2 3982   1.248   4.604   0.522
 1341TIP3   OH2 3983   1.516   4.928   1.222
 1341TIP3    H1 3984   1.539   4.979   1.303
 1341TIP3    H2 3985   1.568   4.847   1.233
 1342TIP3   OH2 3986   1.389   4.331   0.525
 1342TIP3    H1 3987   1.379   4.411   0.579
 1342TIP3    H2 3988   1.448   4.365   0.454
 1343TIP3   OH2 3989   2.153   4.832   1.206
 1343TIP3    H1 3990   2.055   4.831   1.214
 1343TIP3    H2 3991   2.163   4.782   1.124
 1344TIP3   OH2 3992   1.804   5.025   0.597
 1344TIP3    H1 3993   1.729   4.964   0.608
 1344TIP3    H2 3994   1.876   4.978   0.643
 1345TIP3   OH2 3995   1.770   5.999   0.527
 1345TIP3    H1 3996   1.750   5.996   0.432
 1345TIP3    H2 3997   1.866   6.022   0.522
 1346TIP3   OH2 3998   0.851   4.246   1.067
 1346TIP3    H1 3999   0.819   4.210   0.981
 1346TIP3    H2 4000   0.842   4.168   1.126
 1347TIP3   OH2 4001   0.537   6.053   1.636
 1347TIP3    H1 4002   0.630   6.080   1.647
 1347TIP3    H2 4003   0.545   5.984   1.568
 1348TIP3   OH2 4004   1.036   5.967   1.564
 1348TIP3    H1 4005   1.128   5.938   1.568
 1348TIP3    H2 4006   1.002   5.909   1.493
 1349TIP3   OH2 4007   1.662   5.884   1.303
 1349TIP3    H1 4008   1.657   5.812   1.371
 1349TIP3    H2 4009   1.742   5.932   1.331
 1350TIP3   OH2 4010   0.683   5.417   1.737
 1350TIP3    H1 4011   0.694   5.323   1.713
 1350TIP3    H2 4012   0.604   5.437   1.686
 1351TIP3   OH2 4013   1.284   5.503   1.498
 1351TIP3    H1 4014   1.240   5.521   1.413
 1351TIP3    H2 4015   1.312   5.410   1.488
 1352TIP3   OH2 4016   1.777   5.514   1.105
 1352TIP3    H1 4017   1.853   5.557   1.060
 1352TIP3    H2 4018   1.706   5.578   1.087
 1353TIP3   OH2 4019   0.798   5.099   1.751
 1353TIP3    H1 4020   0.870   5.101   1.687
 1353TIP3    H2 4021   0.827   5.166   1.817
 1354TIP3   OH2 4022   1.150   5.031   1.368
 1354TIP3    H1 4023   1.068   5.086   1.365
 1354TIP3    H2 4024   1.198   5.066   1.289
 1355TIP3   OH2 4025   1.652   5.439   1.500
 1355TIP3    H1 4026   1.724   5.404   1.447
 1355TIP3    H2 4027   1.643   5.372   1.570
 1356TIP3   OH2 4028   1.257   4.819   1.495
 1356TIP3    H1 4029   1.258   4.742   1.434
 1356TIP3    H2 4030   1.217   4.889   1.438
 1357TIP3   OH2 4031   1.262   4.613   1.302
 1357TIP3    H1 4032   1.287   4.653   1.217
 1357TIP3    H2 4033   1.168   4.587   1.286
 1358TIP3   OH2 4034   1.287   5.149   1.172
 1358TIP3    H1 4035   1.372   5.159   1.126
 1358TIP3    H2 4036   1.230   5.212   1.124
 1359TIP3   OH2 4037   1.864   5.111   1.551
 1359TIP3    H1 4038   1.910   5.026   1.562
 1359TIP3    H2 4039   1.933   5.166   1.513
 1360TIP3   OH2 4040   1.905   5.368   1.292
 1360TIP3    H1 4041   1.848   5.422   1.232
 1360TIP3    H2 4042   1.993   5.387   1.253
 1361TIP3   OH2 4043   1.134   4.933   1.727
 1361TIP3    H1 4044   1.066   4.864   1.740
 1361TIP3    H2 4045   1.167   4.909   1.638
 1362TIP3   OH2 4046   1.390   4.373   1.369
 1362TIP3    H1 4047   1.340   4.454   1.346
 1362TIP3    H2 4048   1.322   4.303   1.357
 1363TIP3   OH2 4049   1.515   4.876   1.584
 1363TIP3    H1 4050   1.500   4.859   1.679
 1363TIP3    H2 4051   1.426   4.850   1.550
 1364TIP3   OH2 4052   1.754   4.831   1.440
 1364TIP3    H1 4053   1.680   4.829   1.503
 1364TIP3    H2 4054   1.829   4.798   1.495
 1365TIP3   OH2 4055   1.983   4.769   1.587
 1365TIP3    H1 4056   1.997   4.673   1.602
 1365TIP3    H2 4057   1.980   4.804   1.679
 1366TIP3   OH2 4058   0.973   4.714   1.779
 1366TIP3    H1 4059   0.976   4.622   1.746
 1366TIP3    H2 4060   1.010   4.701   1.869
 1367TIP3   OH2 4061   1.481   4.383   1.628
 1367TIP3    H1 4062   1.548   4.312   1.622
 1367TIP3    H2 4063   1.443   4.378   1.538
 1368TIP3   OH2 4064   1.551   4.599   1.783
 1368TIP3    H1 4065   1.530   4.527   1.720
 1368TIP3    H2 4066   1.471   4.656   1.777
 1369TIP3   OH2 4067   2.029   6.075   0.506
 1369TIP3    H1 4068   2.059   6.109   0.592
 1369TIP3    H2 4069   2.100   6.103   0.447
 1370TIP3   OH2 4070   2.064   6.091   0.788
 1370TIP3    H1 4071   2.015   6.005   0.782
 1370TIP3    H2 4072   2.140   6.062   0.841
 1371TIP3   OH2 4073   2.104   5.769   1.358
 1371TIP3    H1 4074   2.032   5.779   1.423
 1371TIP3    H2 4075   2.147   5.857   1.361
 1372TIP3   OH2 4076   1.951   5.232  -0.036
 1372TIP3    H1 4077   1.999   5.317  -0.049
 1372TIP3    H2 4078   1.987   5.204   0.050
 1373TIP3   OH2 4079   2.060   5.135   0.196
 1373TIP3    H1 4080   1.986   5.099   0.250
 1373TIP3    H2 4081   2.113   5.184   0.261
 1374TIP3   OH2 4082   2.104   5.543   0.613
 1374TIP3    H1 4083   2.155   5.475   0.565
 1374TIP3    H2 4084   2.103   5.617   0.549
 1375TIP3   OH2 4085   1.934   5.845   0.809
 1375TIP3    H1 4086   1.859   5.882   0.860
 1375TIP3    H2 4087   1.887   5.797   0.736
 1376TIP3   OH2 4088   1.974   5.014  -0.188
 1376TIP3    H1 4089   1.933   5.044  -0.270
 1376TIP3    H2 4090   1.967   5.095  -0.133
 1377TIP3   OH2 4091   1.850   4.716  -0.196
 1377TIP3    H1 4092   1.781   4.772  -0.235
 1377TIP3    H2 4093   1.807   4.628  -0.192
 1378TIP3   OH2 4094   1.860   5.003   0.328
 1378TIP3    H1 4095   1.863   4.906   0.324
 1378TIP3    H2 4096   1.843   5.020   0.424
 1379TIP3   OH2 4097   2.151   5.432   1.184
 1379TIP3    H1 4098   2.222   5.364   1.173
 1379TIP3    H2 4099   2.176   5.498   1.118
 1380TIP3   OH2 4100   2.334   5.232   1.193
 1380TIP3    H1 4101   2.259   5.182   1.233
 1380TIP3    H2 4102   2.407   5.169   1.210
 1381TIP3   OH2 4103   1.792   4.448  -0.206
 1381TIP3    H1 4104   1.883   4.424  -0.179
 1381TIP3    H2 4105   1.740   4.420  -0.129
 1382TIP3   OH2 4106   1.854   4.720   0.220
 1382TIP3    H1 4107   1.893   4.630   0.231
 1382TIP3    H2 4108   1.916   4.757   0.154
 1383TIP3   OH2 4109   2.017   4.893   0.715
 1383TIP3    H1 4110   2.103   4.917   0.673
 1383TIP3    H2 4111   2.032   4.930   0.804
 1384TIP3   OH2 4112   2.090   5.040   0.944
 1384TIP3    H1 4113   2.012   5.074   0.993
 1384TIP3    H2 4114   2.123   5.121   0.900
 1385TIP3   OH2 4115   0.703   4.754   1.756
 1385TIP3    H1 4116   0.801   4.755   1.751
 1385TIP3    H2 4117   0.684   4.663   1.783
 1386TIP3   OH2 4118   2.538   4.634   1.500
 1386TIP3    H1 4119   2.600   4.569   1.461
 1386TIP3    H2 4120   2.509   4.685   1.421
 1387TIP3   OH2 4121   1.970   4.472   0.253
 1387TIP3    H1 4122   2.015   4.456   0.338
 1387TIP3    H2 4123   1.907   4.397   0.252
 1388TIP3   OH2 4124   0.681   4.462   1.085
 1388TIP3    H1 4125   0.735   4.380   1.086
 1388TIP3    H2 4126   0.751   4.529   1.078
 1389TIP3   OH2 4127   0.518   4.712   1.176
 1389TIP3    H1 4128   0.571   4.687   1.098
 1389TIP3    H2 4129   0.545   4.804   1.185
 1390TIP3   OH2 4130   2.408   4.769   1.301
 1390TIP3    H1 4131   2.322   4.811   1.320
 1390TIP3    H2 4132   2.377   4.693   1.247
 1391TIP3   OH2 4133   2.058   4.407  -0.131
 1391TIP3    H1 4134   2.128   4.346  -0.157
 1391TIP3    H2 4135   2.110   4.490  -0.119
 1392TIP3   OH2 4136   0.682   4.304   1.476
 1392TIP3    H1 4137   0.625   4.302   1.554
 1392TIP3    H2 4138   0.623   4.349   1.412
 1393TIP3   OH2 4139   0.731   5.734   1.560
 1393TIP3    H1 4140   0.635   5.732   1.540
 1393TIP3    H2 4141   0.728   5.728   1.656
 1394TIP3   OH2 4142   1.334   6.022   1.228
 1394TIP3    H1 4143   1.377   6.021   1.316
 1394TIP3    H2 4144   1.401   6.069   1.174
 1395TIP3   OH2 4145   1.522   6.167   1.088
 1395TIP3    H1 4146   1.597   6.115   1.054
 1395TIP3    H2 4147   1.569   6.228   1.149
 1396TIP3   OH2 4148   2.310   4.530   1.186
 1396TIP3    H1 4149   2.219   4.518   1.152
 1396TIP3    H2 4150   2.345   4.439   1.178
 1397TIP3   OH2 4151   1.484   5.983   0.806
 1397TIP3    H1 4152   1.388   5.968   0.809
 1397TIP3    H2 4153   1.489   6.079   0.806
 1398TIP3   OH2 4154   1.726   6.183   0.741
 1398TIP3    H1 4155   1.658   6.236   0.696
 1398TIP3    H2 4156   1.744   6.116   0.672
 1399TIP3   OH2 4157   1.515   4.448   0.809
 1399TIP3    H1 4158   1.471   4.376   0.857
 1399TIP3    H2 4159   1.587   4.402   0.762
 1400TIP3   OH2 4160   2.034   4.331   0.710
 1400TIP3    H1 4161   2.069   4.382   0.634
 1400TIP3    H2 4162   1.938   4.347   0.702
 1401TIP3   OH2 4163   2.131   4.428   0.473
 1401TIP3    H1 4164   2.206   4.376   0.436
 1401TIP3    H2 4165   2.164   4.519   0.459
 1402TIP3   OH2 4166   0.753   4.151   0.821
 1402TIP3    H1 4167   0.663   4.112   0.831
 1402TIP3    H2 4168   0.808   4.069   0.819
 1403TIP3   OH2 4169   1.205   4.192   0.704
 1403TIP3    H1 4170   1.263   4.235   0.639
 1403TIP3    H2 4171   1.240   4.227   0.788
 1404TIP3   OH2 4172   1.750   4.336   0.684
 1404TIP3    H1 4173   1.751   4.294   0.597
 1404TIP3    H2 4174   1.739   4.258   0.743
 1405TIP3   OH2 4175   1.788   4.259   0.249
 1405TIP3    H1 4176   1.698   4.296   0.248
 1405TIP3    H2 4177   1.772   4.175   0.297
 1406TIP3   OH2 4178   1.205   4.364   0.316
 1406TIP3    H1 4179   1.254   4.321   0.388
 1406TIP3    H2 4180   1.212   4.458   0.346
 1407TIP3   OH2 4181   0.966   4.434   1.718
 1407TIP3    H1 4182   0.935   4.360   1.773
 1407TIP3    H2 4183   1.061   4.437   1.744
 1408TIP3   OH2 4184   1.220   4.436   1.830
 1408TIP3    H1 4185   1.304   4.411   1.789
 1408TIP3    H2 4186   1.210   4.365   1.898
 1409TIP3   OH2 4187   2.047   4.499   1.619
 1409TIP3    H1 4188   2.064   4.466   1.710
 1409TIP3    H2 4189   2.136   4.492   1.579
 1410TIP3   OH2 4190   1.980   6.048   1.113
 1410TIP3    H1 4191   1.903   6.018   1.062
 1410TIP3    H2 4192   1.963   6.144   1.117
 1411TIP3   OH2 4193   3.231   5.415   0.264
 1411TIP3    H1 4194   3.281   5.409   0.348
 1411TIP3    H2 4195   3.199   5.324   0.255
 1412TIP3   OH2 4196   2.550   5.314   0.621
 1412TIP3    H1 4197   2.577   5.243   0.683
 1412TIP3    H2 4198   2.625   5.374   0.630
 1413TIP3   OH2 4199   2.517   5.731   0.348
 1413TIP3    H1 4200   2.510   5.633   0.352
 1413TIP3    H2 4201   2.613   5.743   0.354
 1414TIP3   OH2 4202   2.234   4.930   0.125
 1414TIP3    H1 4203   2.184   5.007   0.157
 1414TIP3    H2 4204   2.160   4.877   0.089
 1415TIP3   OH2 4205   2.292   5.222   0.319
 1415TIP3    H1 4206   2.342   5.142   0.346
 1415TIP3    H2 4207   2.343   5.255   0.244
 1416TIP3   OH2 4208   3.052   5.644   0.305
 1416TIP3    H1 4209   3.098   5.562   0.277
 1416TIP3    H2 4210   3.131   5.697   0.328
 1417TIP3   OH2 4211   4.058   4.962   0.320
 1417TIP3    H1 4212   4.091   5.038   0.372
 1417TIP3    H2 4213   4.037   5.003   0.236
 1418TIP3   OH2 4214   3.451   5.142   0.351
 1418TIP3    H1 4215   3.494   5.057   0.370
 1418TIP3    H2 4216   3.433   5.133   0.255
 1419TIP3   OH2 4217   2.800   4.807   0.306
 1419TIP3    H1 4218   2.777   4.879   0.244
 1419TIP3    H2 4219   2.754   4.732   0.262
 1420TIP3   OH2 4220   2.433   5.008   0.410
 1420TIP3    H1 4221   2.515   4.989   0.460
 1420TIP3    H2 4222   2.447   4.950   0.332
 1421TIP3   OH2 4223   2.878   5.203   0.197
 1421TIP3    H1 4224   2.972   5.179   0.214
 1421TIP3    H2 4225   2.840   5.117   0.169
 1422TIP3   OH2 4226   4.127   5.173   0.477
 1422TIP3    H1 4227   4.043   5.222   0.466
 1422TIP3    H2 4228   4.164   5.216   0.556
 1423TIP3   OH2 4229   2.796   4.791   0.738
 1423TIP3    H1 4230   2.735   4.828   0.672
 1423TIP3    H2 4231   2.744   4.807   0.820
 1424TIP3   OH2 4232   2.900   5.568   0.530
 1424TIP3    H1 4233   2.840   5.636   0.568
 1424TIP3    H2 4234   2.946   5.619   0.460
 1425TIP3   OH2 4235   3.724   4.891   0.130
 1425TIP3    H1 4236   3.663   4.872   0.204
 1425TIP3    H2 4237   3.747   4.984   0.147
 1426TIP3   OH2 4238   2.666   4.907   0.523
 1426TIP3    H1 4239   2.728   4.979   0.548
 1426TIP3    H2 4240   2.716   4.866   0.449
 1427TIP3   OH2 4241   2.729   5.763   0.629
 1427TIP3    H1 4242   2.707   5.853   0.596
 1427TIP3    H2 4243   2.650   5.747   0.684
 1428TIP3   OH2 4244   2.079   5.464  -0.061
 1428TIP3    H1 4245   2.060   5.491  -0.154
 1428TIP3    H2 4246   2.145   5.531  -0.037
 1429TIP3   OH2 4247   3.849   4.863   0.478
 1429TIP3    H1 4248   3.763   4.890   0.442
 1429TIP3    H2 4249   3.912   4.891   0.409
 1430TIP3   OH2 4250   3.146   4.508   0.451
 1430TIP3    H1 4251   3.134   4.413   0.472
 1430TIP3    H2 4252   3.070   4.547   0.501
 1431TIP3   OH2 4253   3.787   5.866   0.464
 1431TIP3    H1 4254   3.788   5.790   0.402
 1431TIP3    H2 4255   3.756   5.936   0.402
 1432TIP3   OH2 4256   3.973   5.502   0.303
 1432TIP3    H1 4257   3.901   5.568   0.309
 1432TIP3    H2 4258   3.998   5.513   0.211
 1433TIP3   OH2 4259   3.661   5.393   0.597
 1433TIP3    H1 4260   3.662   5.475   0.650
 1433TIP3    H2 4261   3.577   5.404   0.548
 1434TIP3   OH2 4262   2.662   5.353   0.119
 1434TIP3    H1 4263   2.613   5.303   0.051
 1434TIP3    H2 4264   2.734   5.291   0.144
 1435TIP3   OH2 4265   2.806   5.758   0.237
 1435TIP3    H1 4266   2.779   5.676   0.193
 1435TIP3    H2 4267   2.897   5.734   0.264
 1436TIP3   OH2 4268   2.804   5.323   0.450
 1436TIP3    H1 4269   2.837   5.305   0.360
 1436TIP3    H2 4270   2.842   5.410   0.471
 1437TIP3   OH2 4271   3.269   5.945   0.250
 1437TIP3    H1 4272   3.328   6.010   0.290
 1437TIP3    H2 4273   3.289   5.865   0.301
 1438TIP3   OH2 4274   2.935   5.880   0.777
 1438TIP3    H1 4275   2.873   5.942   0.822
 1438TIP3    H2 4276   2.871   5.827   0.725
 1439TIP3   OH2 4277   2.689   5.436   0.877
 1439TIP3    H1 4278   2.695   5.524   0.919
 1439TIP3    H2 4279   2.595   5.414   0.894
 1440TIP3   OH2 4280   2.729   6.047   0.863
 1440TIP3    H1 4281   2.695   6.051   0.771
 1440TIP3    H2 4282   2.647   6.026   0.914
 1441TIP3   OH2 4283   2.481   5.231  -0.066
 1441TIP3    H1 4284   2.416   5.299  -0.094
 1441TIP3    H2 4285   2.425   5.165  -0.024
 1442TIP3   OH2 4286   2.307   5.581   0.809
 1442TIP3    H1 4287   2.239   5.561   0.741
 1442TIP3    H2 4288   2.344   5.492   0.829
 1443TIP3   OH2 4289   2.163   5.771   0.448
 1443TIP3    H1 4290   2.256   5.764   0.424
 1443TIP3    H2 4291   2.163   5.851   0.503
 1444TIP3   OH2 4292   4.036   6.214   0.530
 1444TIP3    H1 4293   4.025   6.117   0.536
 1444TIP3    H2 4294   3.945   6.245   0.552
 1445TIP3   OH2 4295   3.136   6.007   0.637
 1445TIP3    H1 4296   3.130   6.101   0.664
 1445TIP3    H2 4297   3.061   5.968   0.689
 1446TIP3   OH2 4298   2.297   5.952  -0.017
 1446TIP3    H1 4299   2.379   5.957   0.035
 1446TIP3    H2 4300   2.231   5.960   0.055
 1447TIP3   OH2 4301   3.905   5.345   0.781
 1447TIP3    H1 4302   3.827   5.358   0.726
 1447TIP3    H2 4303   3.924   5.250   0.768
 1448TIP3   OH2 4304   2.512   5.762   0.794
 1448TIP3    H1 4305   2.561   5.745   0.877
 1448TIP3    H2 4306   2.437   5.700   0.802
 1449TIP3   OH2 4307   2.911   4.587   0.583
 1449TIP3    H1 4308   2.822   4.556   0.554
 1449TIP3    H2 4309   2.883   4.665   0.634
 1450TIP3   OH2 4310   3.448   4.700   0.778
 1450TIP3    H1 4311   3.517   4.672   0.841
 1450TIP3    H2 4312   3.365   4.681   0.827
 1451TIP3   OH2 4313   3.677   5.128   0.692
 1451TIP3    H1 4314   3.630   5.127   0.778
 1451TIP3    H2 4315   3.658   5.218   0.659
 1452TIP3   OH2 4316   2.843   5.102   0.601
 1452TIP3    H1 4317   2.793   5.124   0.682
 1452TIP3    H2 4318   2.830   5.183   0.547
 1453TIP3   OH2 4319   2.725   4.987   0.119
 1453TIP3    H1 4320   2.632   4.962   0.141
 1453TIP3    H2 4321   2.734   4.938   0.034
 1454TIP3   OH2 4322   3.393   5.349   0.926
 1454TIP3    H1 4323   3.372   5.276   0.989
 1454TIP3    H2 4324   3.486   5.365   0.948
 1455TIP3   OH2 4325   3.386   5.101   0.087
 1455TIP3    H1 4326   3.370   5.151   0.005
 1455TIP3    H2 4327   3.384   5.011   0.050
 1456TIP3   OH2 4328   2.662   5.130   0.809
 1456TIP3    H1 4329   2.694   5.192   0.875
 1456TIP3    H2 4330   2.652   5.047   0.861
 1457TIP3   OH2 4331   2.257   4.650   0.388
 1457TIP3    H1 4332   2.330   4.682   0.444
 1457TIP3    H2 4333   2.301   4.617   0.308
 1458TIP3   OH2 4334   2.212   4.634  -0.094
 1458TIP3    H1 4335   2.285   4.671  -0.146
 1458TIP3    H2 4336   2.157   4.713  -0.076
 1459TIP3   OH2 4337   3.372   5.350   0.500
 1459TIP3    H1 4338   3.408   5.278   0.444
 1459TIP3    H2 4339   3.347   5.297   0.579
 1460TIP3   OH2 4340   3.059   4.795   0.203
 1460TIP3    H1 4341   2.974   4.803   0.251
 1460TIP3    H2 4342   3.123   4.817   0.272
 1461TIP3   OH2 4343   2.490   4.865   0.184
 1461TIP3    H1 4344   2.397   4.874   0.154
 1461TIP3    H2 4345   2.512   4.773   0.162
 1462TIP3   OH2 4346   2.749   4.854  -0.117
 1462TIP3    H1 4347   2.844   4.831  -0.111
 1462TIP3    H2 4348   2.750   4.920  -0.190
 1463TIP3   OH2 4349   3.548   4.882   0.373
 1463TIP3    H1 4350   3.524   4.896   0.467
 1463TIP3    H2 4351   3.476   4.821   0.346
 1464TIP3   OH2 4352   3.724   6.575   0.600
 1464TIP3    H1 4353   3.705   6.620   0.516
 1464TIP3    H2 4354   3.807   6.617   0.628
 1465TIP3   OH2 4355   2.674   5.684   1.017
 1465TIP3    H1 4356   2.755   5.714   1.065
 1465TIP3    H2 4357   2.610   5.683   1.091
 1466TIP3   OH2 4358   3.140   5.139   0.272
 1466TIP3    H1 4359   3.219   5.105   0.228
 1466TIP3    H2 4360   3.145   5.099   0.361
 1467TIP3   OH2 4361   2.658   4.625   0.156
 1467TIP3    H1 4362   2.622   4.547   0.205
 1467TIP3    H2 4363   2.693   4.583   0.076
 1468TIP3   OH2 4364   3.114   5.041   0.557
 1468TIP3    H1 4365   3.024   5.075   0.576
 1468TIP3    H2 4366   3.171   5.100   0.609
 1469TIP3   OH2 4367   3.751   5.661   0.286
 1469TIP3    H1 4368   3.761   5.676   0.191
 1469TIP3    H2 4369   3.664   5.615   0.286
 1470TIP3   OH2 4370   3.241   5.742   0.656
 1470TIP3    H1 4371   3.283   5.731   0.742
 1470TIP3    H2 4372   3.210   5.834   0.658
 1471TIP3   OH2 4373   2.542   5.456   0.350
 1471TIP3    H1 4374   2.581   5.420   0.268
 1471TIP3    H2 4375   2.573   5.392   0.416
 1472TIP3   OH2 4376   2.426   5.367   0.946
 1472TIP3    H1 4377   2.442   5.352   1.042
 1472TIP3    H2 4378   2.356   5.301   0.929
 1473TIP3   OH2 4379   3.152   5.484   0.966
 1473TIP3    H1 4380   3.092   5.423   0.921
 1473TIP3    H2 4381   3.239   5.448   0.937
 1474TIP3   OH2 4382   3.409   6.007   0.552
 1474TIP3    H1 4383   3.312   6.006   0.562
 1474TIP3    H2 4384   3.435   6.054   0.634
 1475TIP3   OH2 4385   4.038   5.932   0.537
 1475TIP3    H1 4386   3.940   5.925   0.537
 1475TIP3    H2 4387   4.055   5.899   0.446
 1476TIP3   OH2 4388   3.517   5.523   0.243
 1476TIP3    H1 4389   3.422   5.514   0.228
 1476TIP3    H2 4390   3.550   5.444   0.194
 1477TIP3   OH2 4391   2.802   5.551  -0.015
 1477TIP3    H1 4392   2.729   5.613  -0.026
 1477TIP3    H2 4393   2.759   5.478   0.034
 1478TIP3   OH2 4394   2.914   6.089   0.427
 1478TIP3    H1 4395   2.948   6.164   0.372
 1478TIP3    H2 4396   2.996   6.058   0.466
 1479TIP3   OH2 4397   3.309   5.710   0.391
 1479TIP3    H1 4398   3.290   5.713   0.488
 1479TIP3    H2 4399   3.398   5.673   0.391
 1480TIP3   OH2 4400   3.551   6.265   0.448
 1480TIP3    H1 4401   3.486   6.195   0.468
 1480TIP3    H2 4402   3.517   6.298   0.364
 1481TIP3   OH2 4403   2.633   4.873   0.952
 1481TIP3    H1 4404   2.536   4.874   0.964
 1481TIP3    H2 4405   2.661   4.817   1.025
 1482TIP3   OH2 4406   2.349   5.958   0.587
 1482TIP3    H1 4407   2.404   5.885   0.621
 1482TIP3    H2 4408   2.382   6.032   0.640
 1483TIP3   OH2 4409   3.478   4.933   0.632
 1483TIP3    H1 4410   3.554   4.978   0.674
 1483TIP3    H2 4411   3.465   4.855   0.691
 1484TIP3   OH2 4412   3.011   4.814  -0.073
 1484TIP3    H1 4413   3.039   4.905  -0.097
 1484TIP3    H2 4414   3.036   4.811   0.022
 1485TIP3   OH2 4415   3.312   5.186   0.710
 1485TIP3    H1 4416   3.337   5.239   0.789
 1485TIP3    H2 4417   3.366   5.106   0.722
 1486TIP3   OH2 4418   3.183   4.595   0.050
 1486TIP3    H1 4419   3.143   4.652   0.120
 1486TIP3    H2 4420   3.263   4.647   0.034
 1487TIP3   OH2 4421   2.680   4.592  -0.174
 1487TIP3    H1 4422   2.696   4.686  -0.154
 1487TIP3    H2 4423   2.771   4.563  -0.198
 1488TIP3   OH2 4424   3.945   5.084   0.699
 1488TIP3    H1 4425   3.847   5.080   0.700
 1488TIP3    H2 4426   3.963   5.045   0.613
 1489TIP3   OH2 4427   3.593   5.289   0.115
 1489TIP3    H1 4428   3.528   5.218   0.106
 1489TIP3    H2 4429   3.674   5.240   0.140
 1490TIP3   OH2 4430   2.646   4.505   0.554
 1490TIP3    H1 4431   2.616   4.469   0.468
 1490TIP3    H2 4432   2.637   4.428   0.613
 1491TIP3   OH2 4433   2.233   5.681  -0.012
 1491TIP3    H1 4434   2.171   5.713   0.054
 1491TIP3    H2 4435   2.241   5.760  -0.068
 1492TIP3   OH2 4436   2.345   6.271   1.011
 1492TIP3    H1 4437   2.432   6.271   1.056
 1492TIP3    H2 4438   2.326   6.176   1.007
 1493TIP3   OH2 4439   2.819   6.226   1.055
 1493TIP3    H1 4440   2.915   6.212   1.059
 1493TIP3    H2 4441   2.795   6.166   0.982
 1494TIP3   OH2 4442   3.462   6.137   0.788
 1494TIP3    H1 4443   3.454   6.068   0.858
 1494TIP3    H2 4444   3.539   6.188   0.818
 1495TIP3   OH2 4445   2.472   5.674   1.209
 1495TIP3    H1 4446   2.488   5.578   1.215
 1495TIP3    H2 4447   2.386   5.677   1.163
 1496TIP3   OH2 4448   3.077   5.760   0.984
 1496TIP3    H1 4449   3.040   5.782   0.896
 1496TIP3    H2 4450   3.110   5.669   0.971
 1497TIP3   OH2 4451   3.565   5.769   0.589
 1497TIP3    H1 4452   3.646   5.805   0.549
 1497TIP3    H2 4453   3.503   5.843   0.572
 1498TIP3   OH2 4454   2.593   5.411   1.192
 1498TIP3    H1 4455   2.670   5.360   1.164
 1498TIP3    H2 4456   2.622   5.443   1.280
 1499TIP3   OH2 4457   2.926   5.291   0.851
 1499TIP3    H1 4458   2.849   5.351   0.850
 1499TIP3    H2 4459   2.979   5.325   0.776
 1500TIP3   OH2 4460   3.445   5.694   0.986
 1500TIP3    H1 4461   3.524   5.665   0.938
 1500TIP3    H2 4462   3.440   5.629   1.058
 1501TIP3   OH2 4463   3.050   5.083   0.978
 1501TIP3    H1 4464   3.052   5.003   0.920
 1501TIP3    H2 4465   3.006   5.149   0.920
 1502TIP3   OH2 4466   3.053   4.870   0.786
 1502TIP3    H1 4467   3.082   4.909   0.702
 1502TIP3    H2 4468   2.960   4.846   0.767
 1503TIP3   OH2 4469   3.076   5.399   0.658
 1503TIP3    H1 4470   3.163   5.415   0.620
 1503TIP3    H2 4471   3.021   5.466   0.612
 1504TIP3   OH2 4472   3.660   5.368   1.037
 1504TIP3    H1 4473   3.709   5.285   1.050
 1504TIP3    H2 4474   3.729   5.425   1.000
 1505TIP3   OH2 4475   3.701   5.622   0.773
 1505TIP3    H1 4476   3.643   5.677   0.715
 1505TIP3    H2 4477   3.789   5.645   0.735
 1506TIP3   OH2 4478   2.928   5.188   1.212
 1506TIP3    H1 4479   2.862   5.118   1.227
 1506TIP3    H2 4480   2.962   5.164   1.124
 1507TIP3   OH2 4481   3.185   4.629   0.855
 1507TIP3    H1 4482   3.134   4.710   0.833
 1507TIP3    H2 4483   3.116   4.560   0.845
 1508TIP3   OH2 4484   3.311   5.132   1.071
 1508TIP3    H1 4485   3.299   5.116   1.166
 1508TIP3    H2 4486   3.222   5.109   1.039
 1509TIP3   OH2 4487   3.548   5.083   0.924
 1509TIP3    H1 4488   3.475   5.084   0.989
 1509TIP3    H2 4489   3.624   5.054   0.979
 1510TIP3   OH2 4490   3.774   5.025   1.073
 1510TIP3    H1 4491   3.790   4.929   1.089
 1510TIP3    H2 4492   3.774   5.061   1.164
 1511TIP3   OH2 4493   2.768   4.968   1.266
 1511TIP3    H1 4494   2.771   4.876   1.233
 1511TIP3    H2 4495   2.807   4.957   1.355
 1512TIP3   OH2 4496   3.278   4.640   1.113
 1512TIP3    H1 4497   3.345   4.568   1.108
 1512TIP3    H2 4498   3.239   4.634   1.024
 1513TIP3   OH2 4499   3.346   4.855   1.271
 1513TIP3    H1 4500   3.326   4.783   1.207
 1513TIP3    H2 4501   3.267   4.912   1.264
 1514TIP3   OH2 4502   2.110   5.930   0.184
 1514TIP3    H1 4503   2.073   5.863   0.243
 1514TIP3    H2 4504   2.155   5.988   0.247
 1515TIP3   OH2 4505   3.897   6.025   0.844
 1515TIP3    H1 4506   3.827   6.036   0.911
 1515TIP3    H2 4507   3.942   6.112   0.847
 1516TIP3   OH2 4508   3.691   6.045   0.288
 1516TIP3    H1 4509   3.656   6.126   0.327
 1516TIP3    H2 4510   3.634   6.035   0.210
 1517TIP3   OH2 4511   2.283   5.335   0.566
 1517TIP3    H1 4512   2.279   5.303   0.474
 1517TIP3    H2 4513   2.381   5.337   0.580
 1518TIP3   OH2 4514   3.947   5.687   0.670
 1518TIP3    H1 4515   4.017   5.617   0.665
 1518TIP3    H2 4516   3.976   5.749   0.602
 1519TIP3   OH2 4517   4.121   5.482   0.696
 1519TIP3    H1 4518   4.050   5.428   0.736
 1519TIP3    H2 4519   4.198   5.421   0.705
 1520TIP3   OH2 4520   3.827   5.155   0.192
 1520TIP3    H1 4521   3.904   5.196   0.148
 1520TIP3    H2 4522   3.838   5.189   0.284
 1521TIP3   OH2 4523   3.874   5.286   0.431
 1521TIP3    H1 4524   3.799   5.322   0.482
 1521TIP3    H2 4525   3.910   5.368   0.390
 1522TIP3   OH2 4526   2.502   5.022   1.237
 1522TIP3    H1 4527   2.600   5.015   1.239
 1522TIP3    H2 4528   2.478   4.935   1.272
 1523TIP3   OH2 4529   4.334   4.888   0.990
 1523TIP3    H1 4530   4.397   4.825   0.948
 1523TIP3    H2 4531   4.305   4.940   0.912
 1524TIP3   OH2 4532   2.462   4.714   0.562
 1524TIP3    H1 4533   2.523   4.638   0.571
 1524TIP3    H2 4534   2.525   4.787   0.556
 1525TIP3   OH2 4535   2.262   4.987   0.635
 1525TIP3    H1 4536   2.313   4.985   0.551
 1525TIP3    H2 4537   2.290   5.071   0.672
 1526TIP3   OH2 4538   4.202   5.022   0.794
 1526TIP3    H1 4539   4.118   5.068   0.814
 1526TIP3    H2 4540   4.168   4.950   0.737
 1527TIP3   OH2 4541   2.249   4.491   0.134
 1527TIP3    H1 4542   2.159   4.485   0.170
 1527TIP3    H2 4543   2.237   4.551   0.058
 1528TIP3   OH2 4544   2.470   4.574   0.952
 1528TIP3    H1 4545   2.418   4.565   1.033
 1528TIP3    H2 4546   2.403   4.609   0.890
 1529TIP3   OH2 4547   2.507   6.003   1.026
 1529TIP3    H1 4548   2.415   5.976   1.011
 1529TIP3    H2 4549   2.520   5.981   1.119
 1530TIP3   OH2 4550   2.691   6.032   0.578
 1530TIP3    H1 4551   2.644   6.108   0.537
 1530TIP3    H2 4552   2.777   6.045   0.533
 1531TIP3   OH2 4553   3.125   6.275   0.716
 1531TIP3    H1 4554   3.170   6.274   0.804
 1531TIP3    H2 4555   3.188   6.331   0.666
 1532TIP3   OH2 4556   3.301   6.442   0.598
 1532TIP3    H1 4557   3.353   6.390   0.534
 1532TIP3    H2 4558   3.370   6.490   0.648
 1533TIP3   OH2 4559   4.104   4.787   0.674
 1533TIP3    H1 4560   4.014   4.777   0.640
 1533TIP3    H2 4561   4.138   4.695   0.664
 1534TIP3   OH2 4562   2.360   6.284   0.606
 1534TIP3    H1 4563   2.271   6.316   0.580
 1534TIP3    H2 4564   2.375   6.338   0.685
 1535TIP3   OH2 4565   2.598   6.263   0.465
 1535TIP3    H1 4566   2.511   6.275   0.509
 1535TIP3    H2 4567   2.579   6.296   0.375
 1536TIP3   OH2 4568   3.001   6.292   0.266
 1536TIP3    H1 4569   2.926   6.303   0.203
 1536TIP3    H2 4570   3.013   6.384   0.297
 1537TIP3   OH2 4571   3.258   6.264   0.370
 1537TIP3    H1 4572   3.169   6.265   0.330
 1537TIP3    H2 4573   3.313   6.234   0.296
 1538TIP3   OH2 4574   2.270   6.081   0.351
 1538TIP3    H1 4575   2.301   6.055   0.441
 1538TIP3    H2 4576   2.344   6.042   0.298
 1539TIP3   OH2 4577   2.467   5.963   0.209
 1539TIP3    H1 4578   2.484   5.877   0.254
 1539TIP3    H2 4579   2.558   5.999   0.203
 1540TIP3   OH2 4580   2.729   6.047   0.217
 1540TIP3    H1 4581   2.765   5.963   0.182
 1540TIP3    H2 4582   2.788   6.061   0.294
 1541TIP3   OH2 4583   3.325   4.701   0.302
 1541TIP3    H1 4584   3.274   4.634   0.350
 1541TIP3    H2 4585   3.391   4.648   0.255
 1542TIP3   OH2 4586   3.833   4.618   0.202
 1542TIP3    H1 4587   3.849   4.696   0.146
 1542TIP3    H2 4588   3.736   4.611   0.196
 1543TIP3   OH2 4589   2.558   4.411   0.306
 1543TIP3    H1 4590   2.465   4.378   0.312
 1543TIP3    H2 4591   2.606   4.326   0.303
 1544TIP3   OH2 4592   2.323   4.285  -0.049
 1544TIP3    H1 4593   2.373   4.341  -0.113
 1544TIP3    H2 4594   2.311   4.349   0.024
 1545TIP3   OH2 4595   3.001   4.437   0.196
 1545TIP3    H1 4596   3.063   4.482   0.137
 1545TIP3    H2 4597   3.024   4.475   0.282
 1546TIP3   OH2 4598   3.549   4.576   0.159
 1546TIP3    H1 4599   3.545   4.516   0.081
 1546TIP3    H2 4600   3.538   4.509   0.229
 1547TIP3   OH2 4601   2.456   4.452  -0.234
 1547TIP3    H1 4602   2.499   4.386  -0.291
 1547TIP3    H2 4603   2.535   4.505  -0.209
 1548TIP3   OH2 4604   2.954   4.565  -0.173
 1548TIP3    H1 4605   3.013   4.513  -0.119
 1548TIP3    H2 4606   2.983   4.656  -0.152
 1549TIP3   OH2 4607   2.766   4.695   1.201
 1549TIP3    H1 4608   2.729   4.623   1.255
 1549TIP3    H2 4609   2.860   4.693   1.229
 1550TIP3   OH2 4610   3.016   4.692   1.319
 1550TIP3    H1 4611   3.102   4.666   1.280
 1550TIP3    H2 4612   3.004   4.622   1.386
 1551TIP3   OH2 4613   3.843   4.755   1.105
 1551TIP3    H1 4614   3.861   4.723   1.196
 1551TIP3    H2 4615   3.933   4.749   1.066
 1552TIP3   OH2 4616   3.778   6.307   0.595
 1552TIP3    H1 4617   3.691   6.280   0.558
 1552TIP3    H2 4618   3.764   6.404   0.604
 1553TIP3   OH2 4619   4.571   4.987   0.249
 1553TIP3    H1 4620   4.575   5.067   0.193
 1553TIP3    H2 4621   4.522   5.022   0.326
 1554TIP3   OH2 4622   4.465   5.617   0.436
 1554TIP3    H1 4623   4.496   5.709   0.443
 1554TIP3    H2 4624   4.368   5.631   0.430
 1555TIP3   OH2 4625   4.070   5.806   0.292
 1555TIP3    H1 4626   4.121   5.792   0.210
 1555TIP3    H2 4627   4.114   5.741   0.351
 1556TIP3   OH2 4628   4.423   5.382   0.293
 1556TIP3    H1 4629   4.455   5.461   0.342
 1556TIP3    H2 4630   4.463   5.311   0.345
 1557TIP3   OH2 4631   4.477   5.895   0.518
 1557TIP3    H1 4632   4.516   5.976   0.480
 1557TIP3    H2 4633   4.409   5.930   0.578
 1558TIP3   OH2 4634   4.189   5.636   0.468
 1558TIP3    H1 4635   4.215   5.614   0.560
 1558TIP3    H2 4636   4.144   5.554   0.441
 1559TIP3   OH2 4637   4.928   5.783   0.512
 1559TIP3    H1 4638   4.897   5.692   0.497
 1559TIP3    H2 4639   5.014   5.775   0.467
 1560TIP3   OH2 4640   4.436   5.118   0.454
 1560TIP3    H1 4641   4.346   5.146   0.477
 1560TIP3    H2 4642   4.465   5.071   0.534
 1561TIP3   OH2 4643   4.131   6.498   0.531
 1561TIP3    H1 4644   4.227   6.497   0.540
 1561TIP3    H2 4645   4.110   6.403   0.523
 1562TIP3   OH2 4646   4.263   5.933   0.702
 1562TIP3    H1 4647   4.283   5.838   0.710
 1562TIP3    H2 4648   4.180   5.931   0.651
 1563TIP3   OH2 4649   4.371   5.657   0.699
 1563TIP3    H1 4650   4.441   5.642   0.632
 1563TIP3    H2 4651   4.421   5.692   0.775
 1564TIP3   OH2 4652   4.782   5.341   0.456
 1564TIP3    H1 4653   4.835   5.266   0.427
 1564TIP3    H2 4654   4.775   5.392   0.372
 1565TIP3   OH2 4655   5.438   5.683   0.556
 1565TIP3    H1 4656   5.391   5.598   0.567
 1565TIP3    H2 4657   5.526   5.654   0.523
 1566TIP3   OH2 4658   4.726   5.453   0.701
 1566TIP3    H1 4659   4.655   5.387   0.719
 1566TIP3    H2 4660   4.749   5.426   0.609
 1567TIP3   OH2 4661   5.007   4.882   0.321
 1567TIP3    H1 4662   4.981   4.976   0.327
 1567TIP3    H2 4663   4.922   4.835   0.330
 1568TIP3   OH2 4664   5.630   5.253   0.586
 1568TIP3    H1 4665   5.539   5.220   0.588
 1568TIP3    H2 4666   5.620   5.331   0.644
 1569TIP3   OH2 4667   4.556   5.231   0.759
 1569TIP3    H1 4668   4.579   5.148   0.715
 1569TIP3    H2 4669   4.600   5.219   0.846
 1570TIP3   OH2 4670   5.065   4.890   0.594
 1570TIP3    H1 4671   5.128   4.816   0.602
 1570TIP3    H2 4672   5.052   4.889   0.497
 1571TIP3   OH2 4673   5.129   5.097   0.765
 1571TIP3    H1 4674   5.110   5.038   0.690
 1571TIP3    H2 4675   5.061   5.167   0.755
 1572TIP3   OH2 4676   4.290   5.267   0.701
 1572TIP3    H1 4677   4.388   5.272   0.713
 1572TIP3    H2 4678   4.272   5.184   0.751
 1573TIP3   OH2 4679   4.262   4.814   0.437
 1573TIP3    H1 4680   4.221   4.817   0.524
 1573TIP3    H2 4681   4.195   4.861   0.383
 1574TIP3   OH2 4682   4.304   6.250   0.547
 1574TIP3    H1 4683   4.214   6.221   0.522
 1574TIP3    H2 4684   4.312   6.210   0.634
 1575TIP3   OH2 4685   4.559   4.942   0.678
 1575TIP3    H1 4686   4.524   4.875   0.740
 1575TIP3    H2 4687   4.652   4.946   0.708
 1576TIP3   OH2 4688   4.805   4.947   0.802
 1576TIP3    H1 4689   4.895   4.939   0.764
 1576TIP3    H2 4690   4.804   4.874   0.866
 1577TIP3   OH2 4691   5.666   4.977   0.569
 1577TIP3    H1 4692   5.660   4.944   0.661
 1577TIP3    H2 4693   5.677   5.073   0.587
 1578TIP3   OH2 4694   1.993   6.695   0.663
 1578TIP3    H1 4695   1.952   6.718   0.576
 1578TIP3    H2 4696   1.999   6.784   0.702
 1579TIP3   OH2 4697   1.745   6.911   0.914
 1579TIP3    H1 4698   1.661   6.881   0.952
 1579TIP3    H2 4699   1.786   6.825   0.890
 1580TIP3   OH2 4700   1.302   6.216   0.910
 1580TIP3    H1 4701   1.369   6.209   0.981
 1580TIP3    H2 4702   1.226   6.253   0.956
 1581TIP3   OH2 4703   1.776   6.643   0.842
 1581TIP3    H1 4704   1.693   6.634   0.792
 1581TIP3    H2 4705   1.840   6.646   0.770
 1582TIP3   OH2 4706   1.556   6.918   1.127
 1582TIP3    H1 4707   1.555   6.823   1.146
 1582TIP3    H2 4708   1.600   6.954   1.206
 1583TIP3   OH2 4709   1.398   6.588   1.118
 1583TIP3    H1 4710   1.354   6.601   1.203
 1583TIP3    H2 4711   1.486   6.559   1.147
 1584TIP3   OH2 4712   1.646   6.580   1.235
 1584TIP3    H1 4713   1.660   6.485   1.253
 1584TIP3    H2 4714   1.640   6.619   1.325
 1585TIP3   OH2 4715   1.128   6.207   1.249
 1585TIP3    H1 4716   1.193   6.134   1.244
 1585TIP3    H2 4717   1.064   6.180   1.182
 1586TIP3   OH2 4718   1.179   6.421   1.413
 1586TIP3    H1 4719   1.171   6.339   1.359
 1586TIP3    H2 4720   1.101   6.469   1.383
 1587TIP3   OH2 4721   2.177   6.446   1.139
 1587TIP3    H1 4722   2.239   6.382   1.096
 1587TIP3    H2 4723   2.143   6.496   1.061
 1588TIP3   OH2 4724   2.037   6.580   0.948
 1588TIP3    H1 4725   1.949   6.618   0.970
 1588TIP3    H2 4726   2.010   6.515   0.880
 1589TIP3   OH2 4727   1.951   6.338   0.826
 1589TIP3    H1 4728   1.862   6.309   0.798
 1589TIP3    H2 4729   1.998   6.252   0.818
 1590TIP3   OH2 4730   0.877   6.284   1.489
 1590TIP3    H1 4731   0.936   6.233   1.432
 1590TIP3    H2 4732   0.841   6.213   1.546
 1591TIP3   OH2 4733   1.686   6.311   1.257
 1591TIP3    H1 4734   1.704   6.277   1.347
 1591TIP3    H2 4735   1.775   6.304   1.215
 1592TIP3   OH2 4736   2.432   6.599   0.409
 1592TIP3    H1 4737   2.382   6.630   0.329
 1592TIP3    H2 4738   2.370   6.627   0.480
 1593TIP3   OH2 4739   2.314   6.684   0.183
 1593TIP3    H1 4740   2.319   6.780   0.163
 1593TIP3    H2 4741   2.322   6.649   0.093
 1594TIP3   OH2 4742   2.770   6.305   0.125
 1594TIP3    H1 4743   2.733   6.216   0.146
 1594TIP3    H2 4744   2.690   6.359   0.130
 1595TIP3   OH2 4745   2.520   6.406   0.239
 1595TIP3    H1 4746   2.427   6.375   0.225
 1595TIP3    H2 4747   2.502   6.478   0.303
 1596TIP3   OH2 4748   3.079   6.499   0.432
 1596TIP3    H1 4749   3.151   6.460   0.484
 1596TIP3    H2 4750   2.999   6.468   0.478
 1597TIP3   OH2 4751   3.363   6.947   0.359
 1597TIP3    H1 4752   3.300   6.932   0.433
 1597TIP3    H2 4753   3.348   7.042   0.343
 1598TIP3   OH2 4754   2.337   6.965   0.488
 1598TIP3    H1 4755   2.323   6.964   0.583
 1598TIP3    H2 4756   2.298   6.881   0.461
 1599TIP3   OH2 4757   2.672   6.873   0.262
 1599TIP3    H1 4758   2.613   6.919   0.200
 1599TIP3    H2 4759   2.749   6.931   0.251
 1600TIP3   OH2 4760   2.263   6.677   0.607
 1600TIP3    H1 4761   2.166   6.675   0.622
 1600TIP3    H2 4762   2.295   6.622   0.680
 1601TIP3   OH2 4763   3.110   6.731   0.303
 1601TIP3    H1 4764   3.189   6.765   0.345
 1601TIP3    H2 4765   3.104   6.641   0.344
 1602TIP3   OH2 4766   2.926   7.002   0.414
 1602TIP3    H1 4767   2.952   6.971   0.504
 1602TIP3    H2 4768   2.973   6.939   0.357
 1603TIP3   OH2 4769   2.268   6.312   0.194
 1603TIP3    H1 4770   2.275   6.278   0.102
 1603TIP3    H2 4771   2.263   6.230   0.247
 1604TIP3   OH2 4772   2.690   6.862   0.626
 1604TIP3    H1 4773   2.703   6.776   0.581
 1604TIP3    H2 4774   2.640   6.910   0.558
 1605TIP3   OH2 4775   2.691   6.664   0.433
 1605TIP3    H1 4776   2.683   6.742   0.372
 1605TIP3    H2 4777   2.597   6.634   0.432
 1606TIP3   OH2 4778   3.342   7.185   0.595
 1606TIP3    H1 4779   3.307   7.095   0.599
 1606TIP3    H2 4780   3.390   7.191   0.679
 1607TIP3   OH2 4781   2.559   7.001   0.832
 1607TIP3    H1 4782   2.495   6.933   0.860
 1607TIP3    H2 4783   2.600   6.958   0.754
 1608TIP3   OH2 4784   2.821   6.428   0.502
 1608TIP3    H1 4785   2.774   6.508   0.471
 1608TIP3    H2 4786   2.755   6.358   0.487
 1609TIP3   OH2 4787   2.948   6.933   0.696
 1609TIP3    H1 4788   2.945   6.920   0.793
 1609TIP3    H2 4789   2.856   6.906   0.674
 1610TIP3   OH2 4790   3.193   6.913   0.565
 1610TIP3    H1 4791   3.112   6.911   0.621
 1610TIP3    H2 4792   3.257   6.864   0.622
 1612TIP3   OH2 4796   2.404   6.776   0.895
 1612TIP3    H1 4797   2.409   6.683   0.867
 1612TIP3    H2 4798   2.438   6.772   0.986
 1613TIP3   OH2 4799   2.914   6.453   0.757
 1613TIP3    H1 4800   2.982   6.383   0.750
 1613TIP3    H2 4801   2.874   6.446   0.668
 1614TIP3   OH2 4802   2.982   6.671   0.909
 1614TIP3    H1 4803   2.963   6.598   0.846
 1614TIP3    H2 4804   2.902   6.727   0.901
 1615TIP3   OH2 4805   2.138   6.835   0.889
 1615TIP3    H1 4806   2.234   6.819   0.883
 1615TIP3    H2 4807   2.106   6.746   0.911
 1616TIP3   OH2 4808   3.980   6.690   0.642
 1616TIP3    H1 4809   4.035   6.622   0.595
 1616TIP3    H2 4810   3.946   6.742   0.567
 1617TIP3   OH2 4811   3.838   6.865   0.489
 1617TIP3    H1 4812   3.744   6.889   0.492
 1617TIP3    H2 4813   3.837   6.799   0.417
 1618TIP3   OH2 4814   2.107   6.389   0.591
 1618TIP3    H1 4815   2.052   6.383   0.670
 1618TIP3    H2 4816   2.060   6.456   0.539
 1619TIP3   OH2 4817   2.402   6.502   0.838
 1619TIP3    H1 4818   2.367   6.431   0.895
 1619TIP3    H2 4819   2.496   6.502   0.865
 1620TIP3   OH2 4820   2.654   6.506   0.955
 1620TIP3    H1 4821   2.739   6.482   0.914
 1620TIP3    H2 4822   2.643   6.435   1.021
 1621TIP3   OH2 4823   3.490   6.575   0.749
 1621TIP3    H1 4824   3.506   6.541   0.840
 1621TIP3    H2 4825   3.579   6.564   0.708
 1622TIP3   OH2 4826   1.431   0.216   3.840
 1622TIP3    H1 4827   1.436   0.151   3.911
 1622TIP3    H2 4828   1.460   0.297   3.886
 1623TIP3   OH2 4829   1.075   0.673   3.846
 1623TIP3    H1 4830   1.125   0.605   3.797
 1623TIP3    H2 4831   1.074   0.636   3.936
 1624TIP3   OH2 4832   2.052  -0.347   4.396
 1624TIP3    H1 4833   1.998  -0.297   4.332
 1624TIP3    H2 4834   2.095  -0.275   4.445
 1625TIP3   OH2 4835   1.496   0.451   3.993
 1625TIP3    H1 4836   1.407   0.448   4.034
 1625TIP3    H2 4837   1.495   0.541   3.955
 1626TIP3   OH2 4838   1.204   0.496   3.678
 1626TIP3    H1 4839   1.253   0.414   3.653
 1626TIP3    H2 4840   1.265   0.563   3.640
 1627TIP3   OH2 4841   1.345   0.279   3.585
 1627TIP3    H1 4842   1.322   0.194   3.545
 1627TIP3    H2 4843   1.385   0.251   3.671
 1628TIP3   OH2 4844   1.719   0.370   4.344
 1628TIP3    H1 4845   1.733   0.296   4.281
 1628TIP3    H2 4846   1.721   0.446   4.283
 1629TIP3   OH2 4847   1.931   0.016   4.217
 1629TIP3    H1 4848   1.853   0.074   4.205
 1629TIP3    H2 4849   1.968   0.021   4.125
 1630TIP3   OH2 4850   1.629  -0.099   4.495
 1630TIP3    H1 4851   1.603  -0.018   4.543
 1630TIP3    H2 4852   1.544  -0.134   4.466
 1631TIP3   OH2 4853   1.254   0.453   4.117
 1631TIP3    H1 4854   1.243   0.534   4.171
 1631TIP3    H2 4855   1.240   0.381   4.181
 1632TIP3   OH2 4856   0.937   0.407   3.657
 1632TIP3    H1 4857   1.030   0.430   3.676
 1632TIP3    H2 4858   0.888   0.479   3.697
 1633TIP3   OH2 4859   1.973   0.716   4.405
 1633TIP3    H1 4860   1.968   0.619   4.395
 1633TIP3    H2 4861   1.884   0.737   4.440
 1634TIP3   OH2 4862   1.080   0.507   4.525
 1634TIP3    H1 4863   1.079   0.602   4.552
 1634TIP3    H2 4864   1.017   0.469   4.589
 1635TIP3   OH2 4865   1.075   0.597   3.414
 1635TIP3    H1 4866   1.003   0.556   3.462
 1635TIP3    H2 4867   1.151   0.546   3.447
 1636TIP3   OH2 4868   1.861  -0.132   4.648
 1636TIP3    H1 4869   1.773  -0.119   4.605
 1636TIP3    H2 4870   1.858  -0.225   4.673
 1637TIP3   OH2 4871   1.661   1.061   4.491
 1637TIP3    H1 4872   1.656   1.084   4.396
 1637TIP3    H2 4873   1.740   1.112   4.518
 1638TIP3   OH2 4874   1.705   0.160   4.164
 1638TIP3    H1 4875   1.731   0.220   4.092
 1638TIP3    H2 4876   1.621   0.121   4.132
 1639TIP3   OH2 4877   1.222   0.229   4.540
 1639TIP3    H1 4878   1.256   0.177   4.615
 1639TIP3    H2 4879   1.172   0.300   4.583
 1640TIP3   OH2 4880   1.352   0.490   4.443
 1640TIP3    H1 4881   1.256   0.490   4.457
 1640TIP3    H2 4882   1.382   0.546   4.518
 1641TIP3   OH2 4883   1.977   0.417   4.412
 1641TIP3    H1 4884   1.880   0.416   4.402
 1641TIP3    H2 4885   1.997   0.400   4.317
 1642TIP3   OH2 4886   1.492   0.364   3.277
 1642TIP3    H1 4887   1.481   0.328   3.366
 1642TIP3    H2 4888   1.534   0.289   3.232
 1643TIP3   OH2 4889   1.468   0.017   4.091
 1643TIP3    H1 4890   1.383  -0.006   4.130
 1643TIP3    H2 4891   1.496  -0.068   4.052
 1644TIP3   OH2 4892   0.896   0.544   4.303
 1644TIP3    H1 4893   0.909   0.627   4.254
 1644TIP3    H2 4894   0.958   0.553   4.377
 1645TIP3   OH2 4895   1.272   0.210   4.275
 1645TIP3    H1 4896   1.261   0.231   4.371
 1645TIP3    H2 4897   1.368   0.201   4.268
 1646TIP3   OH2 4898   1.480   0.761   4.337
 1646TIP3    H1 4899   1.401   0.704   4.321
 1646TIP3    H2 4900   1.474   0.821   4.260
 1647TIP3   OH2 4901   1.549   0.598   2.991
 1647TIP3    H1 4902   1.602   0.667   2.948
 1647TIP3    H2 4903   1.471   0.651   3.019
 1648TIP3   OH2 4904   1.793  -0.435   4.524
 1648TIP3    H1 4905   1.713  -0.417   4.471
 1648TIP3    H2 4906   1.864  -0.400   4.467
 1649TIP3   OH2 4907   1.534  -0.235   3.985
 1649TIP3    H1 4908   1.477  -0.311   4.004
 1649TIP3    H2 4909   1.620  -0.268   4.020
 1650TIP3   OH2 4910   1.512   0.725   3.921
 1650TIP3    H1 4911   1.466   0.772   3.848
 1650TIP3    H2 4912   1.604   0.753   3.901
 1651TIP3   OH2 4913   1.401   0.630   4.677
 1651TIP3    H1 4914   1.390   0.565   4.750
 1651TIP3    H2 4915   1.477   0.683   4.708
 1652TIP3   OH2 4916   1.514   0.255   4.475
 1652TIP3    H1 4917   1.590   0.297   4.429
 1652TIP3    H2 4918   1.448   0.327   4.469
 1653TIP3   OH2 4919   1.441   0.242   4.912
 1653TIP3    H1 4920   1.483   0.197   4.837
 1653TIP3    H2 4921   1.458   0.175   4.983
 1654TIP3   OH2 4922   1.646   0.131   4.678
 1654TIP3    H1 4923   1.587   0.175   4.612
 1654TIP3    H2 4924   1.734   0.150   4.638
 1655TIP3   OH2 4925   1.755   0.835   3.877
 1655TIP3    H1 4926   1.792   0.854   3.966
 1655TIP3    H2 4927   1.833   0.846   3.820
 1656TIP3   OH2 4928   1.793   0.837   4.162
 1656TIP3    H1 4929   1.746   0.751   4.160
 1656TIP3    H2 4930   1.875   0.810   4.206
 1657TIP3   OH2 4931   1.848   0.510   4.756
 1657TIP3    H1 4932   1.766   0.522   4.809
 1657TIP3    H2 4933   1.876   0.603   4.742
 1658TIP3   OH2 4934   1.675   0.066   3.386
 1658TIP3    H1 4935   1.756   0.098   3.343
 1658TIP3    H2 4936   1.709  -0.009   3.438
 1659TIP3   OH2 4937   1.793  -0.123   3.551
 1659TIP3    H1 4938   1.727  -0.160   3.614
 1659TIP3    H2 4939   1.855  -0.076   3.611
 1660TIP3   OH2 4940   1.667   0.596   4.189
 1660TIP3    H1 4941   1.582   0.621   4.228
 1660TIP3    H2 4942   1.641   0.542   4.112
 1661TIP3   OH2 4943   1.626  -0.257   3.721
 1661TIP3    H1 4944   1.598  -0.349   3.721
 1661TIP3    H2 4945   1.588  -0.225   3.805
 1662TIP3   OH2 4946   1.895   0.194   4.573
 1662TIP3    H1 4947   1.961   0.126   4.554
 1662TIP3    H2 4948   1.913   0.261   4.504
 1663TIP3   OH2 4949   2.088  -0.000   4.590
 1663TIP3    H1 4950   2.003  -0.047   4.609
 1663TIP3    H2 4951   2.149  -0.076   4.600
 1664TIP3   OH2 4952   1.760  -0.344   4.096
 1664TIP3    H1 4953   1.846  -0.319   4.053
 1664TIP3    H2 4954   1.773  -0.299   4.182
 1665TIP3   OH2 4955   1.818  -0.206   4.321
 1665TIP3    H1 4956   1.755  -0.164   4.382
 1665TIP3    H2 4957   1.862  -0.126   4.284
 1666TIP3   OH2 4958   1.362   0.672   3.546
 1666TIP3    H1 4959   1.403   0.674   3.457
 1666TIP3    H2 4960   1.400   0.752   3.587
 1667TIP3   OH2 4961   1.068   0.768   4.605
 1667TIP3    H1 4962   1.111   0.767   4.694
 1667TIP3    H2 4963   1.134   0.820   4.554
 1668TIP3   OH2 4964   1.250   0.918   4.468
 1668TIP3    H1 4965   1.319   0.871   4.420
 1668TIP3    H2 4966   1.304   0.974   4.528
 1669TIP3   OH2 4967   0.608   0.749   4.282
 1669TIP3    H1 4968   0.575   0.725   4.372
 1669TIP3    H2 4969   0.532   0.794   4.240
 1670TIP3   OH2 4970   0.970   0.785   4.149
 1670TIP3    H1 4971   0.904   0.801   4.079
 1670TIP3    H2 4972   0.979   0.875   4.187
 1671TIP3   OH2 4973   1.235   0.720   4.205
 1671TIP3    H1 4974   1.141   0.740   4.185
 1671TIP3    H2 4975   1.280   0.790   4.155
 1672TIP3   OH2 4976   1.441   0.912   4.113
 1672TIP3    H1 4977   1.426   0.997   4.066
 1672TIP3    H2 4978   1.470   0.853   4.040
 1673TIP3   OH2 4979   0.706   0.585   4.080
 1673TIP3    H1 4980   0.658   0.500   4.087
 1673TIP3    H2 4981   0.688   0.624   4.168
 1674TIP3   OH2 4982   1.486   0.645   3.300
 1674TIP3    H1 4983   1.488   0.547   3.289
 1674TIP3    H2 4984   1.437   0.673   3.221
 1675TIP3   OH2 4985   1.716   0.790   4.496
 1675TIP3    H1 4986   1.641   0.760   4.440
 1675TIP3    H2 4987   1.699   0.886   4.497
 1676TIP3   OH2 4988   2.985   0.165   3.257
 1676TIP3    H1 4989   2.953   0.254   3.232
 1676TIP3    H2 4990   2.912   0.111   3.220
 1677TIP3   OH2 4991   2.971   0.175   3.646
 1677TIP3    H1 4992   3.014   0.152   3.731
 1677TIP3    H2 4993   2.937   0.088   3.619
 1678TIP3   OH2 4994   2.296   0.072   3.982
 1678TIP3    H1 4995   2.318   0.002   4.046
 1678TIP3    H2 4996   2.357   0.141   4.009
 1679TIP3   OH2 4997   3.222   0.471   3.327
 1679TIP3    H1 4998   3.226   0.398   3.391
 1679TIP3    H2 4999   3.264   0.543   3.376
 1680TIP3   OH2 5000   2.287   0.483   3.713
 1680TIP3    H1 5001   2.214   0.419   3.713
 1680TIP3    H2 5002   2.351   0.430   3.762
 1681TIP3   OH2 5003   1.965  -0.331   3.506
 1681TIP3    H1 5004   1.922  -0.244   3.519
 1681TIP3    H2 5005   1.887  -0.388   3.513
 1682TIP3   OH2 5006   2.023  -0.035   3.673
 1682TIP3    H1 5007   2.071  -0.102   3.725
 1682TIP3    H2 5008   2.094   0.004   3.621
 1683TIP3   OH2 5009   2.880   0.932   3.337
 1683TIP3    H1 5010   2.923   0.858   3.290
 1683TIP3    H2 5011   2.890   0.908   3.430
 1684TIP3   OH2 5012   2.821   0.427   3.608
 1684TIP3    H1 5013   2.831   0.330   3.620
 1684TIP3    H2 5014   2.892   0.454   3.672
 1685TIP3   OH2 5015   3.197  -0.095   3.722
 1685TIP3    H1 5016   3.228  -0.184   3.750
 1685TIP3    H2 5017   3.162  -0.115   3.633
 1686TIP3   OH2 5018   2.535  -0.396   3.704
 1686TIP3    H1 5019   2.528  -0.314   3.651
 1686TIP3    H2 5020   2.505  -0.460   3.637
 1687TIP3   OH2 5021   3.252  -0.309   3.323
 1687TIP3    H1 5022   3.324  -0.372   3.337
 1687TIP3    H2 5023   3.248  -0.309   3.226
 1688TIP3   OH2 5024   2.176  -0.230   3.789
 1688TIP3    H1 5025   2.247  -0.254   3.852
 1688TIP3    H2 5026   2.188  -0.298   3.721
 1689TIP3   OH2 5027   2.612  -0.038   3.577
 1689TIP3    H1 5028   2.705  -0.062   3.596
 1689TIP3    H2 5029   2.576  -0.123   3.543
 1690TIP3   OH2 5030   3.873  -0.081   3.856
 1690TIP3    H1 5031   3.808  -0.024   3.812
 1690TIP3    H2 5032   3.904  -0.025   3.928
 1691TIP3   OH2 5033   2.860   0.382   3.137
 1691TIP3    H1 5034   2.839   0.368   3.043
 1691TIP3    H2 5035   2.828   0.473   3.150
 1692TIP3   OH2 5036   2.642   0.321   3.906
 1692TIP3    H1 5037   2.570   0.367   3.956
 1692TIP3    H2 5038   2.681   0.397   3.861
 1693TIP3   OH2 5039   2.399  -0.337   3.928
 1693TIP3    H1 5040   2.452  -0.271   3.976
 1693TIP3    H2 5041   2.453  -0.347   3.846
 1694TIP3   OH2 5042   2.465   0.506   4.004
 1694TIP3    H1 5043   2.441   0.597   3.976
 1694TIP3    H2 5044   2.386   0.487   4.060
 1695TIP3   OH2 5045   1.877   0.198   3.251
 1695TIP3    H1 5046   1.817   0.232   3.184
 1695TIP3    H2 5047   1.909   0.282   3.289
 1696TIP3   OH2 5048   3.284   0.714   3.492
 1696TIP3    H1 5049   3.191   0.708   3.519
 1696TIP3    H2 5050   3.286   0.801   3.445
 1697TIP3   OH2 5051   2.994   0.753   3.154
 1697TIP3    H1 5052   3.045   0.672   3.131
 1697TIP3    H2 5053   3.057   0.821   3.118
 1698TIP3   OH2 5054   3.132   0.535   3.072
 1698TIP3    H1 5055   3.134   0.456   3.016
 1698TIP3    H2 5056   3.172   0.502   3.156
 1699TIP3   OH2 5057   3.522   0.621   3.832
 1699TIP3    H1 5058   3.512   0.545   3.770
 1699TIP3    H2 5059   3.504   0.697   3.773
 1700TIP3   OH2 5060   2.818   0.019   3.090
 1700TIP3    H1 5061   2.738   0.072   3.070
 1700TIP3    H2 5062   2.862   0.017   3.003
 1701TIP3   OH2 5063   2.794  -0.200   2.805
 1701TIP3    H1 5064   2.859  -0.139   2.846
 1701TIP3    H2 5065   2.855  -0.250   2.745
 1702TIP3   OH2 5066   3.719   0.263   3.680
 1702TIP3    H1 5067   3.637   0.315   3.679
 1702TIP3    H2 5068   3.752   0.281   3.589
 1703TIP3   OH2 5069   3.165   0.103   3.059
 1703TIP3    H1 5070   3.112   0.123   3.139
 1703TIP3    H2 5071   3.251   0.079   3.100
 1704TIP3   OH2 5072   3.395   0.142   3.978
 1704TIP3    H1 5073   3.391   0.226   4.026
 1704TIP3    H2 5074   3.310   0.143   3.931
 1705TIP3   OH2 5075   2.397   0.094   3.470
 1705TIP3    H1 5076   2.360   0.034   3.402
 1705TIP3    H2 5077   2.475   0.044   3.502
 1706TIP3   OH2 5078   2.560   0.064   3.830
 1706TIP3    H1 5079   2.573   0.047   3.735
 1706TIP3    H2 5080   2.583   0.158   3.840
 1707TIP3   OH2 5081   3.024   0.701   3.601
 1707TIP3    H1 5082   3.034   0.788   3.645
 1707TIP3    H2 5083   3.039   0.639   3.676
 1708TIP3   OH2 5084   2.671   0.622   4.154
 1708TIP3    H1 5085   2.611   0.685   4.200
 1708TIP3    H2 5086   2.604   0.572   4.103
 1709TIP3   OH2 5087   3.001  -0.035   2.887
 1709TIP3    H1 5088   3.061   0.025   2.936
 1709TIP3    H2 5089   3.029  -0.015   2.793
 1710TIP3   OH2 5090   2.428   0.187   4.253
 1710TIP3    H1 5091   2.428   0.273   4.300
 1710TIP3    H2 5092   2.336   0.159   4.271
 1711TIP3   OH2 5093   2.755   0.641   3.219
 1711TIP3    H1 5094   2.833   0.691   3.186
 1711TIP3    H2 5095   2.686   0.677   3.160
 1712TIP3   OH2 5096   2.470   0.790   4.242
 1712TIP3    H1 5097   2.435   0.795   4.151
 1712TIP3    H2 5098   2.390   0.765   4.292
 1713TIP3   OH2 5099   2.265  -0.064   3.268
 1713TIP3    H1 5100   2.194  -0.017   3.220
 1713TIP3    H2 5101   2.214  -0.131   3.315
 1714TIP3   OH2 5102   3.321   0.565   2.485
 1714TIP3    H1 5103   3.330   0.661   2.467
 1714TIP3    H2 5104   3.414   0.535   2.470
 1715TIP3   OH2 5105   3.765   0.975   3.883
 1715TIP3    H1 5106   3.760   0.878   3.886
 1715TIP3    H2 5107   3.679   0.999   3.925
 1716TIP3   OH2 5108   2.866   0.753   4.012
 1716TIP3    H1 5109   2.864   0.846   4.046
 1716TIP3    H2 5110   2.795   0.713   4.066
 1717TIP3   OH2 5111   2.638   0.884   2.962
 1717TIP3    H1 5112   2.581   0.870   2.884
 1717TIP3    H2 5113   2.602   0.966   2.999
 1718TIP3   OH2 5114   2.074   0.723   3.339
 1718TIP3    H1 5115   2.114   0.721   3.428
 1718TIP3    H2 5116   2.003   0.659   3.350
 1719TIP3   OH2 5117   2.829   0.783   2.602
 1719TIP3    H1 5118   2.888   0.713   2.566
 1719TIP3    H2 5119   2.867   0.795   2.692
 1720TIP3   OH2 5120   2.887   0.834   2.868
 1720TIP3    H1 5121   2.798   0.845   2.910
 1720TIP3    H2 5122   2.940   0.804   2.944
 1721TIP3   OH2 5123   3.645   0.115   4.151
 1721TIP3    H1 5124   3.566   0.112   4.095
 1721TIP3    H2 5125   3.662   0.021   4.169
 1722TIP3   OH2 5126   2.255   0.496   4.170
 1722TIP3    H1 5127   2.282   0.472   4.260
 1722TIP3    H2 5128   2.167   0.453   4.161
 1723TIP3   OH2 5129   3.412  -0.113   4.098
 1723TIP3    H1 5130   3.404  -0.096   4.193
 1723TIP3    H2 5131   3.384  -0.029   4.058
 1724TIP3   OH2 5132   3.088   0.015   2.641
 1724TIP3    H1 5133   3.049  -0.020   2.558
 1724TIP3    H2 5134   3.173   0.050   2.608
 1725TIP3   OH2 5135   2.595  -0.142   3.997
 1725TIP3    H1 5136   2.535  -0.114   4.070
 1725TIP3    H2 5137   2.581  -0.068   3.934
 1726TIP3   OH2 5138   2.465  -0.255   3.486
 1726TIP3    H1 5139   2.375  -0.286   3.510
 1726TIP3    H2 5140   2.479  -0.305   3.404
 1727TIP3   OH2 5141   2.962  -0.176   3.221
 1727TIP3    H1 5142   2.909  -0.106   3.176
 1727TIP3    H2 5143   3.015  -0.210   3.147
 1728TIP3   OH2 5144   3.133   0.095   4.294
 1728TIP3    H1 5145   3.101   0.038   4.367
 1728TIP3    H2 5146   3.222   0.119   4.327
 1729TIP3   OH2 5147   3.107  -0.127   3.462
 1729TIP3    H1 5148   3.040  -0.104   3.395
 1729TIP3    H2 5149   3.160  -0.191   3.409
 1730TIP3   OH2 5150   2.394  -0.109   4.173
 1730TIP3    H1 5151   2.367  -0.058   4.251
 1730TIP3    H2 5152   2.388  -0.202   4.204
 1731TIP3   OH2 5153   3.123   0.105   3.880
 1731TIP3    H1 5154   3.156   0.035   3.819
 1731TIP3    H2 5155   3.093   0.049   3.954
 1732TIP3   OH2 5156   2.762  -0.413   3.530
 1732TIP3    H1 5157   2.684  -0.432   3.584
 1732TIP3    H2 5158   2.829  -0.403   3.600
 1733TIP3   OH2 5159   2.226  -0.380   3.552
 1733TIP3    H1 5160   2.133  -0.355   3.528
 1733TIP3    H2 5161   2.214  -0.476   3.563
 1734TIP3   OH2 5162   2.514  -0.379   3.226
 1734TIP3    H1 5163   2.612  -0.371   3.234
 1734TIP3    H2 5164   2.496  -0.320   3.152
 1735TIP3   OH2 5165   3.458   1.315   3.978
 1735TIP3    H1 5166   3.453   1.343   3.884
 1735TIP3    H2 5167   3.538   1.363   4.007
 1736TIP3   OH2 5168   2.406   0.425   4.405
 1736TIP3    H1 5169   2.484   0.459   4.453
 1736TIP3    H2 5170   2.353   0.390   4.478
 1737TIP3   OH2 5171   2.869  -0.107   3.652
 1737TIP3    H1 5172   2.937  -0.151   3.598
 1737TIP3    H2 5173   2.869  -0.165   3.730
 1738TIP3   OH2 5174   2.851  -0.214   3.956
 1738TIP3    H1 5175   2.758  -0.186   3.968
 1738TIP3    H2 5176   2.902  -0.139   3.993
 1739TIP3   OH2 5177   2.588   0.172   3.043
 1739TIP3    H1 5178   2.509   0.115   3.030
 1739TIP3    H2 5179   2.570   0.208   3.134
 1740TIP3   OH2 5180   3.486   0.408   3.663
 1740TIP3    H1 5181   3.513   0.458   3.583
 1740TIP3    H2 5182   3.402   0.365   3.634
 1741TIP3   OH2 5183   3.018  -0.499   2.903
 1741TIP3    H1 5184   2.924  -0.486   2.890
 1741TIP3    H2 5185   3.048  -0.406   2.911
 1742TIP3   OH2 5186   2.981   0.489   4.033
 1742TIP3    H1 5187   3.013   0.470   4.122
 1742TIP3    H2 5188   2.947   0.580   4.042
 1743TIP3   OH2 5189   3.123  -0.258   2.997
 1743TIP3    H1 5190   3.219  -0.243   3.008
 1743TIP3    H2 5191   3.095  -0.180   2.945
 1744TIP3   OH2 5192   2.296   0.199   3.715
 1744TIP3    H1 5193   2.329   0.155   3.635
 1744TIP3    H2 5194   2.306   0.132   3.785
 1745TIP3   OH2 5195   2.731   0.320   2.863
 1745TIP3    H1 5196   2.684   0.407   2.867
 1745TIP3    H2 5197   2.675   0.266   2.924
 1746TIP3   OH2 5198   2.183   0.086   4.325
 1746TIP3    H1 5199   2.158   0.089   4.419
 1746TIP3    H2 5200   2.095   0.081   4.282
 1747TIP3   OH2 5201   2.890   0.228   4.347
 1747TIP3    H1 5202   2.822   0.175   4.302
 1747TIP3    H2 5203   2.972   0.192   4.309
 1748TIP3   OH2 5204   3.142   0.743   3.930
 1748TIP3    H1 5205   3.046   0.748   3.945
 1748TIP3    H2 5206   3.175   0.797   4.004
 1749TIP3   OH2 5207   3.549  -0.167   2.839
 1749TIP3    H1 5208   3.486  -0.205   2.774
 1749TIP3    H2 5209   3.552  -0.077   2.801
 1750TIP3   OH2 5210   3.770   0.685   3.918
 1750TIP3    H1 5211   3.674   0.674   3.903
 1750TIP3    H2 5212   3.803   0.655   3.830
 1751TIP3   OH2 5213   3.253   0.640   2.746
 1751TIP3    H1 5214   3.233   0.565   2.804
 1751TIP3    H2 5215   3.271   0.597   2.660
 1752TIP3   OH2 5216   3.251   0.273   3.578
 1752TIP3    H1 5217   3.159   0.246   3.594
 1752TIP3    H2 5218   3.287   0.192   3.537
 1753TIP3   OH2 5219   2.389   0.507   3.332
 1753TIP3    H1 5220   2.370   0.588   3.279
 1753TIP3    H2 5221   2.302   0.487   3.367
 1754TIP3   OH2 5222   2.521   0.270   3.287
 1754TIP3    H1 5223   2.478   0.357   3.303
 1754TIP3    H2 5224   2.479   0.216   3.357
 1755TIP3   OH2 5225   2.658   0.833   3.800
 1755TIP3    H1 5226   2.695   0.911   3.753
 1755TIP3    H2 5227   2.731   0.809   3.859
 1756TIP3   OH2 5228   2.306   0.732   3.191
 1756TIP3    H1 5229   2.218   0.743   3.232
 1756TIP3    H2 5230   2.339   0.825   3.194
 1757TIP3   OH2 5231   3.037   0.470   3.767
 1757TIP3    H1 5232   3.024   0.471   3.865
 1757TIP3    H2 5233   3.118   0.418   3.760
 1758TIP3   OH2 5234   3.017   0.369   2.653
 1758TIP3    H1 5235   3.070   0.344   2.731
 1758TIP3    H2 5236   2.928   0.340   2.680
 1759TIP3   OH2 5237   3.286   1.006   3.813
 1759TIP3    H1 5238   3.204   0.954   3.804
 1759TIP3    H2 5239   3.274   1.072   3.742
 1760TIP3   OH2 5240   3.350   0.841   2.466
 1760TIP3    H1 5241   3.383   0.915   2.413
 1760TIP3    H2 5242   3.270   0.884   2.503
 1761TIP3   OH2 5243   3.178   0.310   2.875
 1761TIP3    H1 5244   3.167   0.236   2.938
 1761TIP3    H2 5245   3.273   0.301   2.855
 1762TIP3   OH2 5246   2.093   0.704   3.959
 1762TIP3    H1 5247   2.066   0.613   3.975
 1762TIP3    H2 5248   2.135   0.726   4.043
 1763TIP3   OH2 5249   2.376   0.363   2.648
 1763TIP3    H1 5250   2.387   0.269   2.629
 1763TIP3    H2 5251   2.357   0.357   2.744
 1764TIP3   OH2 5252   2.334   0.360   2.918
 1764TIP3    H1 5253   2.386   0.332   2.994
 1764TIP3    H2 5254   2.337   0.458   2.929
 1765TIP3   OH2 5255   2.057   0.043   3.125
 1765TIP3    H1 5256   1.994   0.089   3.184
 1765TIP3    H2 5257   2.075   0.119   3.065
 1766TIP3   OH2 5258   2.600   0.556   2.880
 1766TIP3    H1 5259   2.510   0.581   2.912
 1766TIP3    H2 5260   2.608   0.617   2.805
 1767TIP3   OH2 5261   2.778  -0.373   3.266
 1767TIP3    H1 5262   2.843  -0.300   3.258
 1767TIP3    H2 5263   2.772  -0.382   3.364
 1768TIP3   OH2 5264   3.049  -0.062   4.084
 1768TIP3    H1 5265   3.079  -0.007   4.160
 1768TIP3    H2 5266   3.071  -0.153   4.116
 1769TIP3   OH2 5267   2.344   0.628   2.944
 1769TIP3    H1 5268   2.312   0.699   2.883
 1769TIP3    H2 5269   2.324   0.668   3.031
 1770TIP3   OH2 5270   3.639  -0.202   3.979
 1770TIP3    H1 5271   3.547  -0.172   3.991
 1770TIP3    H2 5272   3.670  -0.144   3.907
 1771TIP3   OH2 5273   3.341   0.034   3.463
 1771TIP3    H1 5274   3.263  -0.022   3.478
 1771TIP3    H2 5275   3.412  -0.015   3.510
 1772TIP3   OH2 5276   2.070   0.266   2.970
 1772TIP3    H1 5277   2.145   0.320   2.940
 1772TIP3    H2 5278   2.026   0.241   2.886
 1773TIP3   OH2 5279   3.308   0.979   3.406
 1773TIP3    H1 5280   3.266   1.028   3.332
 1773TIP3    H2 5281   3.403   0.999   3.388
 1774TIP3   OH2 5282   1.913   0.460   3.314
 1774TIP3    H1 5283   1.854   0.500   3.379
 1774TIP3    H2 5284   1.882   0.502   3.230
 1775TIP3   OH2 5285   2.079   1.015   4.390
 1775TIP3    H1 5286   2.167   1.015   4.434
 1775TIP3    H2 5287   2.061   0.920   4.384
 1776TIP3   OH2 5288   2.555   0.971   4.436
 1776TIP3    H1 5289   2.651   0.960   4.438
 1776TIP3    H2 5290   2.530   0.910   4.364
 1777TIP3   OH2 5291   2.551   0.556   2.570
 1777TIP3    H1 5292   2.491   0.483   2.599
 1777TIP3    H2 5293   2.621   0.506   2.524
 1778TIP3   OH2 5294   3.203   0.879   4.162
 1778TIP3    H1 5295   3.193   0.811   4.234
 1778TIP3    H2 5296   3.272   0.937   4.199
 1779TIP3   OH2 5297   2.975   0.588   2.472
 1779TIP3    H1 5298   3.023   0.528   2.531
 1779TIP3    H2 5299   3.030   0.587   2.391
 1780TIP3   OH2 5300   2.301   0.104   2.734
 1780TIP3    H1 5301   2.319   0.109   2.830
 1780TIP3    H2 5302   2.204   0.111   2.733
 1781TIP3   OH2 5303   2.816   0.506   4.362
 1781TIP3    H1 5304   2.771   0.526   4.277
 1781TIP3    H2 5305   2.844   0.413   4.351
 1782TIP3   OH2 5306   2.693   0.266   2.594
 1782TIP3    H1 5307   2.699   0.278   2.691
 1782TIP3    H2 5308   2.701   0.168   2.588
 1783TIP3   OH2 5309   3.306   0.515   3.970
 1783TIP3    H1 5310   3.383   0.555   3.923
 1783TIP3    H2 5311   3.239   0.584   3.954
 1784TIP3   OH2 5312   2.370   0.165   4.582
 1784TIP3    H1 5313   2.438   0.104   4.552
 1784TIP3    H2 5314   2.326   0.116   4.653
 1785TIP3   OH2 5315   2.383  -0.005   3.017
 1785TIP3    H1 5316   2.351  -0.037   3.104
 1785TIP3    H2 5317   2.431  -0.083   2.983
 1786TIP3   OH2 5318   2.670   0.057   4.250
 1786TIP3    H1 5319   2.582   0.099   4.240
 1786TIP3    H2 5320   2.713   0.083   4.165
 1787TIP3   OH2 5321   2.532  -0.210   2.902
 1787TIP3    H1 5322   2.496  -0.217   2.812
 1787TIP3    H2 5323   2.628  -0.205   2.883
 1788TIP3   OH2 5324   3.183   0.440   4.365
 1788TIP3    H1 5325   3.257   0.404   4.314
 1788TIP3    H2 5326   3.174   0.375   4.437
 1789TIP3   OH2 5327   3.315   0.092   2.506
 1789TIP3    H1 5328   3.295   0.048   2.421
 1789TIP3    H2 5329   3.281   0.182   2.487
 1790TIP3   OH2 5330   2.784  -0.173   4.332
 1790TIP3    H1 5331   2.804  -0.200   4.242
 1790TIP3    H2 5332   2.734  -0.090   4.313
 1791TIP3   OH2 5333   2.813   0.149   4.041
 1791TIP3    H1 5334   2.897   0.158   3.995
 1791TIP3    H2 5335   2.755   0.211   3.990
 1792TIP3   OH2 5336   3.383   0.125   4.407
 1792TIP3    H1 5337   3.414   0.031   4.411
 1792TIP3    H2 5338   3.462   0.170   4.374
 1793TIP3   OH2 5339   3.436   0.372   4.158
 1793TIP3    H1 5340   3.379   0.427   4.098
 1793TIP3    H2 5341   3.524   0.390   4.119
 1794TIP3   OH2 5342   2.621  -0.052   4.592
 1794TIP3    H1 5343   2.658  -0.143   4.600
 1794TIP3    H2 5344   2.660  -0.021   4.509
 1795TIP3   OH2 5345   3.020  -0.082   4.467
 1795TIP3    H1 5346   3.053  -0.160   4.513
 1795TIP3    H2 5347   2.937  -0.116   4.428
 1796TIP3   OH2 5348   2.303   0.826   2.763
 1796TIP3    H1 5349   2.391   0.826   2.721
 1796TIP3    H2 5350   2.248   0.872   2.699
 1797TIP3   OH2 5351   1.690   0.813   3.378
 1797TIP3    H1 5352   1.622   0.751   3.344
 1797TIP3    H2 5353   1.739   0.757   3.442
 1798TIP3   OH2 5354   1.839   0.662   3.555
 1798TIP3    H1 5355   1.813   0.601   3.625
 1798TIP3    H2 5356   1.883   0.731   3.608
 1799TIP3   OH2 5357   3.561   1.072   3.369
 1799TIP3    H1 5358   3.590   1.114   3.452
 1799TIP3    H2 5359   3.619   1.113   3.304
 1800TIP3   OH2 5360   3.585   1.096   3.653
 1800TIP3    H1 5361   3.548   1.006   3.647
 1800TIP3    H2 5362   3.671   1.077   3.692
 1801TIP3   OH2 5363   3.452   0.284   2.841
 1801TIP3    H1 5364   3.518   0.348   2.809
 1801TIP3    H2 5365   3.499   0.246   2.919
 1802TIP3   OH2 5366   3.579   0.151   3.044
 1802TIP3    H1 5367   3.515   0.113   3.107
 1802TIP3    H2 5368   3.649   0.187   3.103
 1803TIP3   OH2 5369   3.634   0.542   3.474
 1803TIP3    H1 5370   3.688   0.474   3.430
 1803TIP3    H2 5371   3.641   0.618   3.412
 1804TIP3   OH2 5372   3.464   0.840   3.674
 1804TIP3    H1 5373   3.394   0.889   3.721
 1804TIP3    H2 5374   3.415   0.797   3.601
 1805TIP3   OH2 5375   3.520   0.062   2.689
 1805TIP3    H1 5376   3.448   0.059   2.623
 1805TIP3    H2 5377   3.490   0.137   2.743
 1806TIP3   OH2 5378   3.371  -0.239   2.648
 1806TIP3    H1 5379   3.330  -0.213   2.564
 1806TIP3    H2 5380   3.362  -0.336   2.646
 1807TIP3   OH2 5381   3.390   0.014   3.192
 1807TIP3    H1 5382   3.395  -0.083   3.181
 1807TIP3    H2 5383   3.379   0.023   3.289
 1808TIP3   OH2 5384   2.026   0.015   3.963
 1808TIP3    H1 5385   1.995   0.053   3.879
 1808TIP3    H2 5386   2.117   0.052   3.968
 1809TIP3   OH2 5387   3.683   0.437   4.054
 1809TIP3    H1 5388   3.756   0.372   4.047
 1809TIP3    H2 5389   3.700   0.496   3.979
 1810TIP3   OH2 5390   3.869   0.245   4.077
 1810TIP3    H1 5391   3.790   0.194   4.104
 1810TIP3    H2 5392   3.939   0.178   4.095
 1811TIP3   OH2 5393   3.395  -0.260   3.070
 1811TIP3    H1 5394   3.435  -0.345   3.098
 1811TIP3    H2 5395   3.455  -0.234   2.997
 1812TIP3   OH2 5396   3.553  -0.089   3.589
 1812TIP3    H1 5397   3.636  -0.064   3.542
 1812TIP3    H2 5398   3.569  -0.046   3.675
 1813TIP3   OH2 5399   3.619   0.049   3.818
 1813TIP3    H1 5400   3.539   0.087   3.860
 1813TIP3    H2 5401   3.654   0.128   3.770
 1814TIP3   OH2 5402   2.232  -0.230   4.601
 1814TIP3    H1 5403   2.325  -0.225   4.576
 1814TIP3    H2 5404   2.229  -0.320   4.641
 1815TIP3   OH2 5405   2.001  -0.252   4.014
 1815TIP3    H1 5406   2.056  -0.276   3.937
 1815TIP3    H2 5407   2.006  -0.154   4.006
 1816TIP3   OH2 5408   3.144   0.937   3.025
 1816TIP3    H1 5409   3.196   0.929   2.943
 1816TIP3    H2 5410   3.194   1.005   3.073
 1817TIP3   OH2 5411   2.250   0.748   4.400
 1817TIP3    H1 5412   2.159   0.716   4.393
 1817TIP3    H2 5413   2.268   0.740   4.495
 1818TIP3   OH2 5414   2.433   0.777   3.958
 1818TIP3    H1 5415   2.369   0.840   3.920
 1818TIP3    H2 5416   2.513   0.804   3.909
 1819TIP3   OH2 5417   2.866   1.018   4.090
 1819TIP3    H1 5418   2.906   1.021   4.180
 1819TIP3    H2 5419   2.931   1.072   4.040
 1820TIP3   OH2 5420   3.047   1.173   3.956
 1820TIP3    H1 5421   3.121   1.129   3.911
 1820TIP3    H2 5422   3.097   1.232   4.017
 1821TIP3   OH2 5423   2.108   1.047   3.975
 1821TIP3    H1 5424   2.018   1.075   3.947
 1821TIP3    H2 5425   2.106   1.077   4.067
 1822TIP3   OH2 5426   2.337   1.007   3.831
 1822TIP3    H1 5427   2.252   1.022   3.879
 1822TIP3    H2 5428   2.315   1.048   3.744
 1823TIP3   OH2 5429   2.766   1.037   3.636
 1823TIP3    H1 5430   2.692   1.054   3.574
 1823TIP3    H2 5431   2.774   1.126   3.678
 1824TIP3   OH2 5432   3.035   0.970   3.679
 1824TIP3    H1 5433   2.941   0.997   3.670
 1824TIP3    H2 5434   3.081   1.049   3.645
 1825TIP3   OH2 5435   3.231   1.165   3.600
 1825TIP3    H1 5436   3.220   1.253   3.556
 1825TIP3    H2 5437   3.262   1.110   3.525
 1826TIP3   OH2 5438   1.993   0.817   3.731
 1826TIP3    H1 5439   2.031   0.793   3.819
 1826TIP3    H2 5440   2.063   0.780   3.674
 1827TIP3   OH2 5441   2.193   0.702   3.584
 1827TIP3    H1 5442   2.223   0.622   3.634
 1827TIP3    H2 5443   2.269   0.761   3.593
 1828TIP3   OH2 5444   2.478   0.802   3.575
 1828TIP3    H1 5445   2.461   0.707   3.572
 1828TIP3    H2 5446   2.527   0.813   3.659
 1829TIP3   OH2 5447   1.800   0.596   3.108
 1829TIP3    H1 5448   1.711   0.565   3.080
 1829TIP3    H2 5449   1.788   0.692   3.097
 1830TIP3   OH2 5450   2.566   0.801   2.682
 1830TIP3    H1 5451   2.659   0.816   2.656
 1830TIP3    H2 5452   2.552   0.717   2.633
 1831TIP3   OH2 5453   3.289   0.906   2.792
 1831TIP3    H1 5454   3.280   0.809   2.781
 1831TIP3    H2 5455   3.244   0.938   2.711
 1832TIP3   OH2 5456   1.903   0.651   2.774
 1832TIP3    H1 5457   1.885   0.668   2.868
 1832TIP3    H2 5458   1.991   0.612   2.773
 1833TIP3   OH2 5459   3.510   1.043   3.985
 1833TIP3    H1 5460   3.434   1.019   3.928
 1833TIP3    H2 5461   3.498   1.141   3.988
 1834TIP3   OH2 5462   4.785   0.422   2.741
 1834TIP3    H1 5463   4.758   0.514   2.724
 1834TIP3    H2 5464   4.706   0.374   2.712
 1835TIP3   OH2 5465   4.784   0.422   3.126
 1835TIP3    H1 5466   4.820   0.407   3.215
 1835TIP3    H2 5467   4.743   0.336   3.107
 1836TIP3   OH2 5468   4.076   0.334   3.496
 1836TIP3    H1 5469   4.107   0.261   3.552
 1836TIP3    H2 5470   4.159   0.374   3.467
 1837TIP3   OH2 5471   5.027   0.728   2.808
 1837TIP3    H1 5472   5.012   0.660   2.875
 1837TIP3    H2 5473   5.058   0.803   2.862
 1838TIP3   OH2 5474   4.040   0.712   3.256
 1838TIP3    H1 5475   4.039   0.616   3.240
 1838TIP3    H2 5476   4.129   0.733   3.222
 1839TIP3   OH2 5477   3.753  -0.067   3.000
 1839TIP3    H1 5478   3.710   0.018   3.020
 1839TIP3    H2 5479   3.678  -0.116   2.962
 1840TIP3   OH2 5480   3.813   0.221   3.171
 1840TIP3    H1 5481   3.867   0.146   3.206
 1840TIP3    H2 5482   3.881   0.274   3.125
 1841TIP3   OH2 5483   4.670   1.185   2.822
 1841TIP3    H1 5484   4.726   1.116   2.780
 1841TIP3    H2 5485   4.666   1.154   2.913
 1842TIP3   OH2 5486   4.586   0.645   3.174
 1842TIP3    H1 5487   4.630   0.569   3.132
 1842TIP3    H2 5488   4.667   0.694   3.201
 1843TIP3   OH2 5489   4.994   0.161   3.210
 1843TIP3    H1 5490   5.026   0.072   3.237
 1843TIP3    H2 5491   4.958   0.142   3.121
 1844TIP3   OH2 5492   4.329  -0.138   3.193
 1844TIP3    H1 5493   4.323  -0.059   3.136
 1844TIP3    H2 5494   4.303  -0.206   3.127
 1845TIP3   OH2 5495   5.047  -0.052   2.808
 1845TIP3    H1 5496   5.116  -0.116   2.829
 1845TIP3    H2 5497   5.054  -0.048   2.711
 1846TIP3   OH2 5498   3.971   0.027   3.277
 1846TIP3    H1 5499   4.044   0.001   3.337
 1846TIP3    H2 5500   3.985  -0.037   3.204
 1847TIP3   OH2 5501   4.404   0.217   3.077
 1847TIP3    H1 5502   4.500   0.195   3.087
 1847TIP3    H2 5503   4.370   0.135   3.036
 1848TIP3   OH2 5504   5.672   0.180   3.343
 1848TIP3    H1 5505   5.603   0.237   3.306
 1848TIP3    H2 5506   5.708   0.235   3.415
 1849TIP3   OH2 5507   4.678   0.644   2.611
 1849TIP3    H1 5508   4.630   0.621   2.530
 1849TIP3    H2 5509   4.638   0.732   2.630
 1850TIP3   OH2 5510   4.435   0.568   3.395
 1850TIP3    H1 5511   4.376   0.637   3.433
 1850TIP3    H2 5512   4.474   0.615   3.318
 1851TIP3   OH2 5513   4.193  -0.076   3.414
 1851TIP3    H1 5514   4.250  -0.010   3.459
 1851TIP3    H2 5515   4.245  -0.090   3.332
 1852TIP3   OH2 5516   4.268   0.763   3.501
 1852TIP3    H1 5517   4.240   0.841   3.450
 1852TIP3    H2 5518   4.186   0.750   3.555
 1853TIP3   OH2 5519   3.652   0.452   2.733
 1853TIP3    H1 5520   3.614   0.487   2.650
 1853TIP3    H2 5521   3.683   0.535   2.775
 1854TIP3   OH2 5522   5.094   0.970   2.969
 1854TIP3    H1 5523   5.006   0.960   3.011
 1854TIP3    H2 5524   5.085   1.057   2.927
 1855TIP3   OH2 5525   4.808   1.018   2.655
 1855TIP3    H1 5526   4.855   0.934   2.632
 1855TIP3    H2 5527   4.855   1.079   2.595
 1856TIP3   OH2 5528   4.942   0.799   2.557
 1856TIP3    H1 5529   4.897   0.720   2.525
 1856TIP3    H2 5530   4.981   0.767   2.641
 1857TIP3   OH2 5531   5.319   0.880   3.316
 1857TIP3    H1 5532   5.307   0.803   3.257
 1857TIP3    H2 5533   5.302   0.955   3.256
 1858TIP3   OH2 5534   4.611   0.275   2.575
 1858TIP3    H1 5535   4.531   0.328   2.555
 1858TIP3    H2 5536   4.657   0.274   2.489
 1859TIP3   OH2 5537   4.571   0.059   2.293
 1859TIP3    H1 5538   4.635   0.117   2.338
 1859TIP3    H2 5539   4.632   0.007   2.236
 1860TIP3   OH2 5540   5.515   0.519   3.166
 1860TIP3    H1 5541   5.432   0.571   3.169
 1860TIP3    H2 5542   5.546   0.540   3.075
 1861TIP3   OH2 5543   4.962   0.357   2.543
 1861TIP3    H1 5544   4.907   0.380   2.622
 1861TIP3    H2 5545   5.048   0.336   2.587
 1862TIP3   OH2 5546   5.192   0.398   3.466
 1862TIP3    H1 5547   5.190   0.481   3.516
 1862TIP3    H2 5548   5.106   0.403   3.419
 1863TIP3   OH2 5549   4.196   0.359   2.957
 1863TIP3    H1 5550   4.157   0.297   2.892
 1863TIP3    H2 5551   4.272   0.307   2.992
 1864TIP3   OH2 5552   4.301   0.723   3.137
 1864TIP3    H1 5553   4.289   0.772   3.054
 1864TIP3    H2 5554   4.397   0.706   3.139
 1865TIP3   OH2 5555   4.317   0.333   3.316
 1865TIP3    H1 5556   4.354   0.305   3.230
 1865TIP3    H2 5557   4.365   0.417   3.334
 1866TIP3   OH2 5558   4.855   0.962   3.093
 1866TIP3    H1 5559   4.843   1.044   3.145
 1866TIP3    H2 5560   4.839   0.891   3.159
 1867TIP3   OH2 5561   4.472   0.880   3.644
 1867TIP3    H1 5562   4.411   0.944   3.687
 1867TIP3    H2 5563   4.408   0.828   3.591
 1868TIP3   OH2 5564   4.797   0.219   2.371
 1868TIP3    H1 5565   4.857   0.280   2.420
 1868TIP3    H2 5566   4.824   0.239   2.278
 1869TIP3   OH2 5567   4.228   0.442   3.754
 1869TIP3    H1 5568   4.225   0.530   3.797
 1869TIP3    H2 5569   4.133   0.423   3.748
 1870TIP3   OH2 5570   4.549   0.888   2.631
 1870TIP3    H1 5571   4.620   0.948   2.663
 1870TIP3    H2 5572   4.471   0.913   2.683
 1871TIP3   OH2 5573   4.265   1.046   3.724
 1871TIP3    H1 5574   4.232   1.052   3.632
 1871TIP3    H2 5575   4.183   1.024   3.774
 1872TIP3   OH2 5576   4.065   0.197   2.758
 1872TIP3    H1 5577   3.991   0.240   2.710
 1872TIP3    H2 5578   4.027   0.111   2.781
 1873TIP3   OH2 5579   5.117   0.821   1.971
 1873TIP3    H1 5580   5.128   0.917   1.953
 1873TIP3    H2 5581   5.210   0.790   1.959
 1874TIP3   OH2 5582   3.836   0.584   3.678
 1874TIP3    H1 5583   3.777   0.563   3.604
 1874TIP3    H2 5584   3.877   0.497   3.700
 1875TIP3   OH2 5585   3.701   0.767   3.314
 1875TIP3    H1 5586   3.796   0.757   3.296
 1875TIP3    H2 5587   3.701   0.850   3.365
 1876TIP3   OH2 5588   5.559   1.227   3.365
 1876TIP3    H1 5589   5.558   1.131   3.382
 1876TIP3    H2 5590   5.476   1.254   3.411
 1877TIP3   OH2 5591   4.670   1.009   3.503
 1877TIP3    H1 5592   4.664   1.102   3.532
 1877TIP3    H2 5593   4.596   0.969   3.555
 1878TIP3   OH2 5594   4.416   1.164   2.381
 1878TIP3    H1 5595   4.359   1.104   2.432
 1878TIP3    H2 5596   4.395   1.250   2.424
 1879TIP3   OH2 5597   3.864   0.991   2.851
 1879TIP3    H1 5598   3.955   0.975   2.815
 1879TIP3    H2 5599   3.837   0.901   2.872
 1880TIP3   OH2 5600   5.445   0.376   3.640
 1880TIP3    H1 5601   5.364   0.374   3.587
 1880TIP3    H2 5602   5.466   0.282   3.653
 1881TIP3   OH2 5603   4.046   0.762   3.663
 1881TIP3    H1 5604   4.092   0.747   3.748
 1881TIP3    H2 5605   3.970   0.701   3.668
 1882TIP3   OH2 5606   5.217   0.145   3.585
 1882TIP3    H1 5607   5.204   0.161   3.681
 1882TIP3    H2 5608   5.186   0.228   3.544
 1883TIP3   OH2 5609   4.876   0.259   2.117
 1883TIP3    H1 5610   4.842   0.237   2.029
 1883TIP3    H2 5611   4.961   0.302   2.094
 1884TIP3   OH2 5612   4.385   0.123   3.476
 1884TIP3    H1 5613   4.330   0.149   3.553
 1884TIP3    H2 5614   4.366   0.196   3.414
 1885TIP3   OH2 5615   4.260   0.003   2.976
 1885TIP3    H1 5616   4.170  -0.029   2.996
 1885TIP3    H2 5617   4.277  -0.044   2.891
 1886TIP3   OH2 5618   4.757   0.084   2.709
 1886TIP3    H1 5619   4.703   0.153   2.665
 1886TIP3    H2 5620   4.810   0.050   2.635
 1887TIP3   OH2 5621   4.929   0.351   3.780
 1887TIP3    H1 5622   4.899   0.293   3.853
 1887TIP3    H2 5623   5.018   0.377   3.812
 1888TIP3   OH2 5624   4.903   0.128   2.951
 1888TIP3    H1 5625   4.836   0.155   2.885
 1888TIP3    H2 5626   4.954   0.065   2.895
 1889TIP3   OH2 5627   4.187   0.143   3.662
 1889TIP3    H1 5628   4.221   0.190   3.739
 1889TIP3    H2 5629   4.193   0.049   3.692
 1890TIP3   OH2 5630   3.795  -0.308   2.817
 1890TIP3    H1 5631   3.835  -0.293   2.729
 1890TIP3    H2 5632   3.738  -0.230   2.823
 1891TIP3   OH2 5633   4.919   0.361   3.368
 1891TIP3    H1 5634   4.953   0.292   3.307
 1891TIP3    H2 5635   4.888   0.304   3.442
 1892TIP3   OH2 5636   4.559  -0.156   3.013
 1892TIP3    H1 5637   4.480  -0.178   3.064
 1892TIP3    H2 5638   4.625  -0.146   3.086
 1893TIP3   OH2 5639   4.017  -0.121   3.041
 1893TIP3    H1 5640   3.924  -0.100   3.019
 1893TIP3    H2 5641   4.011  -0.218   3.046
 1894TIP3   OH2 5642   4.299  -0.127   2.734
 1894TIP3    H1 5643   4.389  -0.104   2.705
 1894TIP3    H2 5644   4.244  -0.113   2.653
 1895TIP3   OH2 5645   4.131  -0.101   2.511
 1895TIP3    H1 5646   4.062  -0.146   2.459
 1895TIP3    H2 5647   4.186  -0.063   2.440
 1896TIP3   OH2 5648   5.254   1.575   3.465
 1896TIP3    H1 5649   5.252   1.603   3.371
 1896TIP3    H2 5650   5.332   1.624   3.498
 1897TIP3   OH2 5651   4.198   0.688   3.895
 1897TIP3    H1 5652   4.284   0.716   3.934
 1897TIP3    H2 5653   4.140   0.699   3.972
 1898TIP3   OH2 5654   4.666   0.150   3.139
 1898TIP3    H1 5655   4.733   0.106   3.084
 1898TIP3    H2 5656   4.665   0.091   3.217
 1899TIP3   OH2 5657   4.644   0.043   3.447
 1899TIP3    H1 5658   4.552   0.076   3.455
 1899TIP3    H2 5659   4.697   0.117   3.481
 1900TIP3   OH2 5660   4.383   0.429   2.524
 1900TIP3    H1 5661   4.313   0.362   2.511
 1900TIP3    H2 5662   4.359   0.465   2.613
 1901TIP3   OH2 5663   5.282   0.663   3.150
 1901TIP3    H1 5664   5.306   0.715   3.070
 1901TIP3    H2 5665   5.197   0.621   3.123
 1902TIP3   OH2 5666   4.811  -0.232   2.371
 1902TIP3    H1 5667   4.718  -0.237   2.397
 1902TIP3    H2 5668   4.836  -0.142   2.400
 1903TIP3   OH2 5669   4.780   0.745   3.522
 1903TIP3    H1 5670   4.816   0.734   3.610
 1903TIP3    H2 5671   4.744   0.836   3.525
 1904TIP3   OH2 5672   4.919  -0.003   2.485
 1904TIP3    H1 5673   5.014   0.014   2.497
 1904TIP3    H2 5674   4.889   0.076   2.436
 1905TIP3   OH2 5675   4.063   0.430   3.193
 1905TIP3    H1 5676   4.108   0.422   3.106
 1905TIP3    H2 5677   4.128   0.388   3.252
 1906TIP3   OH2 5678   4.519   0.588   2.345
 1906TIP3    H1 5679   4.485   0.678   2.361
 1906TIP3    H2 5680   4.465   0.532   2.405
 1907TIP3   OH2 5681   3.955   0.375   3.819
 1907TIP3    H1 5682   3.982   0.355   3.911
 1907TIP3    H2 5683   3.892   0.304   3.798
 1908TIP3   OH2 5684   4.688   0.484   3.831
 1908TIP3    H1 5685   4.626   0.431   3.778
 1908TIP3    H2 5686   4.774   0.451   3.798
 1909TIP3   OH2 5687   4.942   1.003   3.416
 1909TIP3    H1 5688   4.846   1.004   3.434
 1909TIP3    H2 5689   4.974   1.055   3.494
 1910TIP3   OH2 5690   5.358   0.074   2.320
 1910TIP3    H1 5691   5.287   0.045   2.258
 1910TIP3    H2 5692   5.364   0.166   2.285
 1911TIP3   OH2 5693   5.569   0.936   3.405
 1911TIP3    H1 5694   5.472   0.932   3.396
 1911TIP3    H2 5695   5.596   0.906   3.315
 1912TIP3   OH2 5696   5.046   0.897   2.234
 1912TIP3    H1 5697   5.027   0.825   2.296
 1912TIP3    H2 5698   5.065   0.849   2.151
 1913TIP3   OH2 5699   5.049   0.529   3.066
 1913TIP3    H1 5700   4.955   0.503   3.080
 1913TIP3    H2 5701   5.083   0.448   3.022
 1914TIP3   OH2 5702   3.748   0.055   2.532
 1914TIP3    H1 5703   3.791   0.141   2.553
 1914TIP3    H2 5704   3.669   0.060   2.590
 1915TIP3   OH2 5705   4.302   0.532   2.760
 1915TIP3    H1 5706   4.285   0.623   2.787
 1915TIP3    H2 5707   4.268   0.481   2.836
 1916TIP3   OH2 5708   4.456   1.092   3.317
 1916TIP3    H1 5709   4.486   1.159   3.253
 1916TIP3    H2 5710   4.540   1.063   3.356
 1917TIP3   OH2 5711   4.836   0.729   3.254
 1917TIP3    H1 5712   4.823   0.729   3.352
 1917TIP3    H2 5713   4.918   0.679   3.247
 1918TIP3   OH2 5714   4.807   0.634   2.139
 1918TIP3    H1 5715   4.863   0.604   2.214
 1918TIP3    H2 5716   4.722   0.594   2.163
 1919TIP3   OH2 5717   5.082   1.259   3.301
 1919TIP3    H1 5718   5.001   1.205   3.296
 1919TIP3    H2 5719   5.066   1.325   3.230
 1920TIP3   OH2 5720   5.148   1.098   1.956
 1920TIP3    H1 5721   5.188   1.167   1.901
 1920TIP3    H2 5722   5.068   1.144   1.986
 1921TIP3   OH2 5723   4.971   0.554   2.347
 1921TIP3    H1 5724   4.962   0.490   2.421
 1921TIP3    H2 5725   5.068   0.552   2.336
 1922TIP3   OH2 5726   3.881   0.961   3.451
 1922TIP3    H1 5727   3.942   0.887   3.469
 1922TIP3    H2 5728   3.923   1.031   3.502
 1923TIP3   OH2 5729   4.166   0.607   2.136
 1923TIP3    H1 5730   4.186   0.516   2.108
 1923TIP3    H2 5731   4.153   0.595   2.233
 1924TIP3   OH2 5732   4.123   0.616   2.410
 1924TIP3    H1 5733   4.177   0.579   2.481
 1924TIP3    H2 5734   4.129   0.712   2.429
 1925TIP3   OH2 5735   3.850   0.302   2.613
 1925TIP3    H1 5736   3.785   0.347   2.671
 1925TIP3    H2 5737   3.863   0.371   2.545
 1926TIP3   OH2 5738   4.402   0.860   2.331
 1926TIP3    H1 5739   4.317   0.861   2.379
 1926TIP3    H2 5740   4.374   0.836   2.241
 1927TIP3   OH2 5741   4.580  -0.123   2.748
 1927TIP3    H1 5742   4.641  -0.047   2.743
 1927TIP3    H2 5743   4.566  -0.128   2.845
 1928TIP3   OH2 5744   4.843   0.193   3.572
 1928TIP3    H1 5745   4.875   0.250   3.646
 1928TIP3    H2 5746   4.868   0.104   3.604
 1929TIP3   OH2 5747   4.140   0.894   2.435
 1929TIP3    H1 5748   4.073   0.958   2.409
 1929TIP3    H2 5749   4.136   0.903   2.535
 1930TIP3   OH2 5750   5.432   0.048   3.449
 1930TIP3    H1 5751   5.346   0.082   3.478
 1930TIP3    H2 5752   5.464   0.119   3.392
 1931TIP3   OH2 5753   5.138   0.288   2.947
 1931TIP3    H1 5754   5.058   0.235   2.967
 1931TIP3    H2 5755   5.208   0.240   2.997
 1932TIP3   OH2 5756   3.849   0.507   2.416
 1932TIP3    H1 5757   3.918   0.574   2.428
 1932TIP3    H2 5758   3.893   0.450   2.350
 1933TIP3   OH2 5759   3.775  -0.221   2.545
 1933TIP3    H1 5760   3.799  -0.126   2.544
 1933TIP3    H2 5761   3.693  -0.218   2.494
 1934TIP3   OH2 5762   5.104   1.241   2.894
 1934TIP3    H1 5763   5.062   1.283   2.816
 1934TIP3    H2 5764   5.198   1.260   2.874
 1935TIP3   OH2 5765   3.704   0.713   2.802
 1935TIP3    H1 5766   3.640   0.761   2.856
 1935TIP3    H2 5767   3.695   0.760   2.716
 1936TIP3   OH2 5768   3.879   1.274   3.878
 1936TIP3    H1 5769   3.966   1.277   3.925
 1936TIP3    H2 5770   3.865   1.178   3.873
 1937TIP3   OH2 5771   4.349   1.227   3.922
 1937TIP3    H1 5772   4.445   1.223   3.927
 1937TIP3    H2 5773   4.330   1.165   3.848
 1938TIP3   OH2 5774   4.344   0.804   2.073
 1938TIP3    H1 5775   4.281   0.729   2.084
 1938TIP3    H2 5776   4.410   0.764   2.015
 1939TIP3   OH2 5777   5.002   1.133   3.649
 1939TIP3    H1 5778   4.992   1.067   3.722
 1939TIP3    H2 5779   5.075   1.189   3.682
 1940TIP3   OH2 5780   4.756   0.865   1.953
 1940TIP3    H1 5781   4.798   0.810   2.022
 1940TIP3    H2 5782   4.816   0.853   1.878
 1941TIP3   OH2 5783   3.988   0.656   4.086
 1941TIP3    H1 5784   4.017   0.564   4.070
 1941TIP3    H2 5785   3.915   0.667   4.021
 1942TIP3   OH2 5786   3.986   0.323   2.273
 1942TIP3    H1 5787   4.043   0.290   2.345
 1942TIP3    H2 5788   4.053   0.329   2.201
 1943TIP3   OH2 5789   4.608   0.760   3.852
 1943TIP3    H1 5790   4.572   0.785   3.765
 1943TIP3    H2 5791   4.642   0.669   3.836
 1944TIP3   OH2 5792   4.494   0.526   2.075
 1944TIP3    H1 5793   4.496   0.537   2.172
 1944TIP3    H2 5794   4.501   0.428   2.068
 1945TIP3   OH2 5795   5.103   0.773   3.455
 1945TIP3    H1 5796   5.181   0.815   3.413
 1945TIP3    H2 5797   5.036   0.841   3.439
 1946TIP3   OH2 5798   4.138   0.400   4.057
 1946TIP3    H1 5799   4.223   0.368   4.023
 1946TIP3    H2 5800   4.166   0.439   4.143
 1947TIP3   OH2 5801   4.190   0.233   2.489
 1947TIP3    H1 5802   4.162   0.195   2.574
 1947TIP3    H2 5803   4.227   0.156   2.442
 1948TIP3   OH2 5804   4.459   0.303   3.726
 1948TIP3    H1 5805   4.379   0.360   3.723
 1948TIP3    H2 5806   4.508   0.335   3.646
 1949TIP3   OH2 5807   4.291   0.027   2.330
 1949TIP3    H1 5808   4.269   0.028   2.234
 1949TIP3    H2 5809   4.389   0.023   2.325
 1950TIP3   OH2 5810   4.977   0.695   3.853
 1950TIP3    H1 5811   5.056   0.669   3.805
 1950TIP3    H2 5812   4.974   0.631   3.926
 1951TIP3   OH2 5813   5.110   0.353   2.004
 1951TIP3    H1 5814   5.092   0.308   1.919
 1951TIP3    H2 5815   5.076   0.443   1.981
 1952TIP3   OH2 5816   4.583   0.082   3.812
 1952TIP3    H1 5817   4.613   0.058   3.724
 1952TIP3    H2 5818   4.531   0.163   3.791
 1953TIP3   OH2 5819   4.608   0.405   3.528
 1953TIP3    H1 5820   4.694   0.420   3.487
 1953TIP3    H2 5821   4.552   0.470   3.480
 1954TIP3   OH2 5822   5.178   0.382   3.893
 1954TIP3    H1 5823   5.212   0.290   3.897
 1954TIP3    H2 5824   5.256   0.432   3.864
 1955TIP3   OH2 5825   5.233   0.625   3.640
 1955TIP3    H1 5826   5.176   0.681   3.582
 1955TIP3    H2 5827   5.321   0.646   3.601
 1956TIP3   OH2 5828   4.418   0.203   4.073
 1956TIP3    H1 5829   4.449   0.113   4.096
 1956TIP3    H2 5830   4.464   0.219   3.990
 1957TIP3   OH2 5831   4.815   0.175   3.953
 1957TIP3    H1 5832   4.846   0.100   4.007
 1957TIP3    H2 5833   4.733   0.138   3.915
 1958TIP3   OH2 5834   4.072   1.105   2.167
 1958TIP3    H1 5835   4.163   1.080   2.185
 1958TIP3    H2 5836   4.030   1.018   2.160
 1959TIP3   OH2 5837   3.578   0.467   2.445
 1959TIP3    H1 5838   3.674   0.487   2.436
 1959TIP3    H2 5839   3.573   0.376   2.411
 1960TIP3   OH2 5840   3.495   1.079   2.868
 1960TIP3    H1 5841   3.429   1.017   2.830
 1960TIP3    H2 5842   3.539   1.021   2.934
 1961TIP3   OH2 5843   3.621   0.926   3.059
 1961TIP3    H1 5844   3.617   0.854   3.124
 1961TIP3    H2 5845   3.685   0.985   3.102
 1962TIP3   OH2 5846   5.358   1.330   2.855
 1962TIP3    H1 5847   5.383   1.359   2.945
 1962TIP3    H2 5848   5.426   1.374   2.801
 1963TIP3   OH2 5849   5.386   1.348   3.136
 1963TIP3    H1 5850   5.342   1.260   3.134
 1963TIP3    H2 5851   5.460   1.327   3.195
 1964TIP3   OH2 5852   5.429   1.029   3.705
 1964TIP3    H1 5853   5.360   1.038   3.774
 1964TIP3    H2 5854   5.474   1.116   3.712
 1965TIP3   OH2 5855   5.249   0.540   2.329
 1965TIP3    H1 5856   5.315   0.605   2.298
 1965TIP3    H2 5857   5.295   0.503   2.408
 1966TIP3   OH2 5858   5.378   0.405   2.531
 1966TIP3    H1 5859   5.311   0.368   2.593
 1966TIP3    H2 5860   5.444   0.444   2.593
 1967TIP3   OH2 5861   5.433   0.801   2.963
 1967TIP3    H1 5862   5.485   0.732   2.919
 1967TIP3    H2 5863   5.429   0.872   2.896
 1968TIP3   OH2 5864   5.260   1.100   3.157
 1968TIP3    H1 5865   5.189   1.142   3.210
 1968TIP3    H2 5866   5.209   1.054   3.087
 1969TIP3   OH2 5867   5.315   0.316   2.183
 1969TIP3    H1 5868   5.243   0.315   2.115
 1969TIP3    H2 5869   5.284   0.392   2.236
 1970TIP3   OH2 5870   5.167   0.011   2.140
 1970TIP3    H1 5871   5.130   0.040   2.056
 1970TIP3    H2 5872   5.161  -0.087   2.133
 1971TIP3   OH2 5873   5.188   0.270   2.678
 1971TIP3    H1 5874   5.190   0.173   2.670
 1971TIP3    H2 5875   5.175   0.283   2.775
 1972TIP3   OH2 5876   3.812   0.335   3.429
 1972TIP3    H1 5877   3.811   0.304   3.336
 1972TIP3    H2 5878   3.909   0.345   3.443
 1973TIP3   OH2 5879   5.476   0.693   3.531
 1973TIP3    H1 5880   5.550   0.629   3.519
 1973TIP3    H2 5881   5.502   0.765   3.471
 1974TIP3   OH2 5882   5.664   0.499   3.541
 1974TIP3    H1 5883   5.587   0.455   3.582
 1974TIP3    H2 5884   5.735   0.435   3.563
 1975TIP3   OH2 5885   5.190  -0.006   2.558
 1975TIP3    H1 5886   5.230  -0.091   2.586
 1975TIP3    H2 5887   5.251   0.022   2.488
 1976TIP3   OH2 5888   5.349   0.167   3.075
 1976TIP3    H1 5889   5.433   0.194   3.030
 1976TIP3    H2 5890   5.363   0.208   3.162
 1977TIP3   OH2 5891   5.415   0.305   3.306
 1977TIP3    H1 5892   5.335   0.342   3.349
 1977TIP3    H2 5893   5.450   0.384   3.259
 1978TIP3   OH2 5894   4.036   0.032   4.109
 1978TIP3    H1 5895   4.127   0.044   4.079
 1978TIP3    H2 5896   4.036  -0.064   4.131
 1979TIP3   OH2 5897   3.793  -0.002   3.497
 1979TIP3    H1 5898   3.842  -0.028   3.417
 1979TIP3    H2 5899   3.838   0.079   3.521
 1980TIP3   OH2 5900   4.906   1.220   2.479
 1980TIP3    H1 5901   4.980   1.195   2.419
 1980TIP3    H2 5902   4.956   1.265   2.551
 1981TIP3   OH2 5903   4.045   1.001   3.888
 1981TIP3    H1 5904   3.950   0.977   3.882
 1981TIP3    H2 5905   4.063   0.993   3.982
 1982TIP3   OH2 5906   4.218   1.039   3.442
 1982TIP3    H1 5907   4.178   1.119   3.400
 1982TIP3    H2 5908   4.307   1.047   3.401
 1983TIP3   OH2 5909   4.658   1.279   3.572
 1983TIP3    H1 5910   4.700   1.276   3.661
 1983TIP3    H2 5911   4.724   1.332   3.523
 1984TIP3   OH2 5912   4.843   1.432   3.439
 1984TIP3    H1 5913   4.916   1.380   3.403
 1984TIP3    H2 5914   4.892   1.490   3.502
 1985TIP3   OH2 5915   3.893   1.289   3.469
 1985TIP3    H1 5916   3.802   1.319   3.449
 1985TIP3    H2 5917   3.913   1.344   3.547
 1986TIP3   OH2 5918   4.130   1.273   3.327
 1986TIP3    H1 5919   4.042   1.284   3.370
 1986TIP3    H2 5920   4.113   1.307   3.237
 1987TIP3   OH2 5921   4.563   1.298   3.117
 1987TIP3    H1 5922   4.487   1.320   3.060
 1987TIP3    H2 5923   4.574   1.383   3.166
 1988TIP3   OH2 5924   4.828   1.232   3.173
 1988TIP3    H1 5925   4.734   1.253   3.154
 1988TIP3    H2 5926   4.873   1.311   3.137
 1989TIP3   OH2 5927   5.032   1.426   3.089
 1989TIP3    H1 5928   5.020   1.510   3.041
 1989TIP3    H2 5929   5.060   1.365   3.016
 1990TIP3   OH2 5930   3.815   1.074   3.206
 1990TIP3    H1 5931   3.832   1.051   3.300
 1990TIP3    H2 5932   3.893   1.036   3.165
 1991TIP3   OH2 5933   3.600   0.855   2.592
 1991TIP3    H1 5934   3.510   0.829   2.563
 1991TIP3    H2 5935   3.592   0.952   2.582
 1992TIP3   OH2 5936   5.089   1.161   2.280
 1992TIP3    H1 5937   5.081   1.064   2.268
 1992TIP3    H2 5938   5.048   1.193   2.197
 1993TIP3   OH2 5939   3.683   0.902   2.236
 1993TIP3    H1 5940   3.657   0.904   2.329
 1993TIP3    H2 5941   3.758   0.840   2.236
 1994TIP3   OH2 5942   5.312   1.306   3.462
 1994TIP3    H1 5943   5.233   1.276   3.414
 1994TIP3    H2 5944   5.292   1.402   3.471
 1995TIP3   OH2 5945   6.574   0.675   2.224
 1995TIP3    H1 5946   6.551   0.769   2.211
 1995TIP3    H2 5947   6.498   0.633   2.180
 1996TIP3   OH2 5948   6.570   0.683   2.613
 1996TIP3    H1 5949   6.610   0.671   2.702
 1996TIP3    H2 5950   6.535   0.594   2.596
 1997TIP3   OH2 5951   5.875   0.584   2.969
 1997TIP3    H1 5952   5.901   0.512   3.030
 1997TIP3    H2 5953   5.952   0.641   2.975
 1998TIP3   OH2 5954   6.823   0.984   2.292
 1998TIP3    H1 5955   6.811   0.915   2.359
 1998TIP3    H2 5956   6.856   1.058   2.346
 1999TIP3   OH2 5957   5.849   0.984   2.696
 1999TIP3    H1 5958   5.841   0.886   2.698
 1999TIP3    H2 5959   5.946   0.994   2.697
 2000TIP3   OH2 5960   5.551   0.188   2.484
 2000TIP3    H1 5961   5.505   0.270   2.507
 2000TIP3    H2 5962   5.479   0.138   2.442
 2001TIP3   OH2 5963   5.611   0.478   2.658
 2001TIP3    H1 5964   5.664   0.404   2.695
 2001TIP3    H2 5965   5.677   0.523   2.603
 2002TIP3   OH2 5966   6.476   1.445   2.313
 2002TIP3    H1 5967   6.517   1.371   2.263
 2002TIP3    H2 5968   6.466   1.406   2.400
 2003TIP3   OH2 5969   6.377   0.905   2.660
 2003TIP3    H1 5970   6.420   0.827   2.621
 2003TIP3    H2 5971   6.458   0.955   2.685
 2004TIP3   OH2 5972   6.783   0.417   2.704
 2004TIP3    H1 5973   6.813   0.327   2.729
 2004TIP3    H2 5974   6.760   0.404   2.610
 2005TIP3   OH2 5975   6.133   0.115   2.682
 2005TIP3    H1 5976   6.120   0.199   2.633
 2005TIP3    H2 5977   6.097   0.053   2.615
 2006TIP3   OH2 5978   5.769   0.285   2.763
 2006TIP3    H1 5979   5.842   0.262   2.825
 2006TIP3    H2 5980   5.776   0.210   2.701
 2007TIP3   OH2 5981   6.204   0.480   2.556
 2007TIP3    H1 5982   6.298   0.456   2.570
 2007TIP3    H2 5983   6.165   0.395   2.527
 2008TIP3   OH2 5984   6.478   0.907   2.091
 2008TIP3    H1 5985   6.432   0.888   2.008
 2008TIP3    H2 5986   6.426   0.983   2.124
 2009TIP3   OH2 5987   6.230   0.826   2.882
 2009TIP3    H1 5988   6.171   0.895   2.920
 2009TIP3    H2 5989   6.273   0.875   2.809
 2010TIP3   OH2 5990   5.991   0.182   2.902
 2010TIP3    H1 5991   6.046   0.248   2.948
 2010TIP3    H2 5992   6.046   0.167   2.822
 2011TIP3   OH2 5993   6.060   1.022   2.983
 2011TIP3    H1 5994   6.035   1.110   2.949
 2011TIP3    H2 5995   5.981   1.003   3.039
 2012TIP3   OH2 5996   5.449   0.711   2.221
 2012TIP3    H1 5997   5.411   0.737   2.135
 2012TIP3    H2 5998   5.483   0.796   2.255
 2013TIP3   OH2 5999   6.895   1.225   2.463
 2013TIP3    H1 6000   6.806   1.216   2.503
 2013TIP3    H2 6001   6.887   1.311   2.417
 2014TIP3   OH2 6002   6.589   1.268   2.128
 2014TIP3    H1 6003   6.641   1.187   2.113
 2014TIP3    H2 6004   6.651   1.335   2.092
 2015TIP3   OH2 6005   6.735   1.051   2.040
 2015TIP3    H1 6006   6.670   0.980   2.029
 2015TIP3    H2 6007   6.777   1.025   2.125
 2016TIP3   OH2 6008   7.112   1.129   2.811
 2016TIP3    H1 6009   7.103   1.059   2.743
 2016TIP3    H2 6010   7.109   1.211   2.758
 2017TIP3   OH2 6011   6.411   0.531   2.038
 2017TIP3    H1 6012   6.328   0.583   2.039
 2017TIP3    H2 6013   6.424   0.529   1.941
 2018TIP3   OH2 6014   6.773   0.629   2.044
 2018TIP3    H1 6015   6.700   0.647   2.108
 2018TIP3    H2 6016   6.837   0.586   2.100
 2019TIP3   OH2 6017   6.969   0.639   2.961
 2019TIP3    H1 6018   6.981   0.729   2.995
 2019TIP3    H2 6019   6.895   0.651   2.899
 2020TIP3   OH2 6020   5.987   0.609   2.449
 2020TIP3    H1 6021   5.955   0.549   2.379
 2020TIP3    H2 6022   6.067   0.563   2.482
 2021TIP3   OH2 6023   6.122   1.024   2.597
 2021TIP3    H1 6024   6.102   0.986   2.511
 2021TIP3    H2 6025   6.212   0.988   2.615
 2022TIP3   OH2 6026   6.128   0.584   2.802
 2022TIP3    H1 6027   6.161   0.564   2.712
 2022TIP3    H2 6028   6.169   0.671   2.822
 2023TIP3   OH2 6029   6.650   1.220   2.579
 2023TIP3    H1 6030   6.640   1.301   2.633
 2023TIP3    H2 6031   6.635   1.148   2.643
 2024TIP3   OH2 6032   6.265   1.138   3.130
 2024TIP3    H1 6033   6.203   1.199   3.176
 2024TIP3    H2 6034   6.201   1.084   3.078
 2025TIP3   OH2 6035   6.020   0.701   3.226
 2025TIP3    H1 6036   6.025   0.786   3.274
 2025TIP3    H2 6037   5.928   0.676   3.246
 2026TIP3   OH2 6038   6.343   1.146   2.134
 2026TIP3    H1 6039   6.424   1.199   2.143
 2026TIP3    H2 6040   6.282   1.209   2.094
 2027TIP3   OH2 6041   6.058   1.303   3.217
 2027TIP3    H1 6042   6.021   1.307   3.127
 2027TIP3    H2 6043   5.978   1.283   3.271
 2028TIP3   OH2 6044   5.865   0.447   2.234
 2028TIP3    H1 6045   5.791   0.497   2.193
 2028TIP3    H2 6046   5.818   0.372   2.271
 2029TIP3   OH2 6047   5.637   0.838   3.163
 2029TIP3    H1 6048   5.569   0.815   3.095
 2029TIP3    H2 6049   5.677   0.752   3.184
 2030TIP3   OH2 6050   5.492   1.033   2.790
 2030TIP3    H1 6051   5.588   1.026   2.786
 2030TIP3    H2 6052   5.481   1.108   2.849
 2031TIP3   OH2 6053   6.459   1.267   2.986
 2031TIP3    H1 6054   6.457   1.359   3.018
 2031TIP3    H2 6055   6.388   1.226   3.041
 2032TIP3   OH2 6056   6.229   1.398   1.940
 2032TIP3    H1 6057   6.182   1.382   1.855
 2032TIP3    H2 6058   6.191   1.484   1.968
 2033TIP3   OH2 6059   5.661   1.244   2.324
 2033TIP3    H1 6060   5.709   1.237   2.410
 2033TIP3    H2 6061   5.609   1.162   2.325
 2034TIP3   OH2 6062   6.421   1.296   1.582
 2034TIP3    H1 6063   6.488   1.234   1.546
 2034TIP3    H2 6064   6.453   1.306   1.674
 2035TIP3   OH2 6065   6.476   1.344   1.847
 2035TIP3    H1 6066   6.386   1.356   1.886
 2035TIP3    H2 6067   6.524   1.308   1.923
 2036TIP3   OH2 6068   5.841   1.021   3.146
 2036TIP3    H1 6069   5.890   1.006   3.230
 2036TIP3    H2 6070   5.767   0.958   3.156
 2037TIP3   OH2 6071   7.005   0.386   3.069
 2037TIP3    H1 6072   7.024   0.424   3.155
 2037TIP3    H2 6073   6.995   0.467   3.014
 2038TIP3   OH2 6074   6.187   0.376   2.966
 2038TIP3    H1 6075   6.131   0.402   3.042
 2038TIP3    H2 6076   6.167   0.451   2.904
 2039TIP3   OH2 6077   6.051   0.264   2.476
 2039TIP3    H1 6078   5.960   0.233   2.498
 2039TIP3    H2 6079   6.066   0.212   2.394
 2040TIP3   OH2 6080   6.547   0.338   2.188
 2040TIP3    H1 6081   6.495   0.413   2.153
 2040TIP3    H2 6082   6.603   0.318   2.112
 2041TIP3   OH2 6083   6.724   0.611   3.269
 2041TIP3    H1 6084   6.694   0.548   3.339
 2041TIP3    H2 6085   6.814   0.631   3.300
 2042TIP3   OH2 6086   6.711   0.378   2.441
 2042TIP3    H1 6087   6.655   0.406   2.367
 2042TIP3    H2 6088   6.741   0.290   2.412
 2043TIP3   OH2 6089   5.984   0.398   3.147
 2043TIP3    H1 6090   6.001   0.448   3.228
 2043TIP3    H2 6091   5.990   0.305   3.178
 2044TIP3   OH2 6092   5.612  -0.071   2.273
 2044TIP3    H1 6093   5.646  -0.027   2.192
 2044TIP3    H2 6094   5.548  -0.005   2.302
 2045TIP3   OH2 6095   6.691   0.620   2.850
 2045TIP3    H1 6096   6.735   0.551   2.794
 2045TIP3    H2 6097   6.673   0.565   2.929
 2046TIP3   OH2 6098   6.354   0.093   2.506
 2046TIP3    H1 6099   6.277   0.085   2.564
 2046TIP3    H2 6100   6.425   0.101   2.573
 2047TIP3   OH2 6101   5.814   0.132   2.524
 2047TIP3    H1 6102   5.720   0.158   2.505
 2047TIP3    H2 6103   5.802   0.036   2.537
 2048TIP3   OH2 6104   6.097   0.142   2.229
 2048TIP3    H1 6105   6.190   0.169   2.214
 2048TIP3    H2 6106   6.046   0.200   2.171
 2049TIP3   OH2 6107   5.919   0.182   1.992
 2049TIP3    H1 6108   5.827   0.161   2.020
 2049TIP3    H2 6109   5.916   0.149   1.901
 2050TIP3   OH2 6110   7.038   1.833   2.966
 2050TIP3    H1 6111   7.026   1.858   2.872
 2050TIP3    H2 6112   7.116   1.885   2.992
 2051TIP3   OH2 6113   6.004   0.945   3.369
 2051TIP3    H1 6114   6.083   0.975   3.419
 2051TIP3    H2 6115   5.938   0.941   3.442
 2052TIP3   OH2 6116   6.458   0.404   2.626
 2052TIP3    H1 6117   6.534   0.360   2.584
 2052TIP3    H2 6118   6.459   0.364   2.715
 2053TIP3   OH2 6119   6.446   0.302   2.910
 2053TIP3    H1 6120   6.354   0.330   2.933
 2053TIP3    H2 6121   6.499   0.366   2.962
 2054TIP3   OH2 6122   6.180   0.686   2.012
 2054TIP3    H1 6123   6.110   0.619   1.997
 2054TIP3    H2 6124   6.158   0.718   2.103
 2055TIP3   OH2 6125   7.073   0.933   2.627
 2055TIP3    H1 6126   7.108   0.919   2.539
 2055TIP3    H2 6127   6.989   0.883   2.622
 2056TIP3   OH2 6128   6.576   1.002   3.008
 2056TIP3    H1 6129   6.605   0.986   3.098
 2056TIP3    H2 6130   6.539   1.092   3.013
 2057TIP3   OH2 6131   5.869   0.706   2.683
 2057TIP3    H1 6132   5.911   0.674   2.601
 2057TIP3    H2 6133   5.911   0.650   2.751
 2058TIP3   OH2 6134   6.332   0.850   1.853
 2058TIP3    H1 6135   6.277   0.932   1.856
 2058TIP3    H2 6136   6.278   0.788   1.907
 2059TIP3   OH2 6137   5.760   0.627   3.298
 2059TIP3    H1 6138   5.782   0.616   3.393
 2059TIP3    H2 6139   5.688   0.563   3.288
 2060TIP3   OH2 6140   6.481   0.744   3.315
 2060TIP3    H1 6141   6.416   0.686   3.273
 2060TIP3    H2 6142   6.565   0.707   3.281
 2061TIP3   OH2 6143   6.736   1.262   2.903
 2061TIP3    H1 6144   6.640   1.261   2.918
 2061TIP3    H2 6145   6.766   1.314   2.981
 2062TIP3   OH2 6146   6.848   1.140   1.724
 2062TIP3    H1 6147   6.816   1.090   1.801
 2062TIP3    H2 6148   6.858   1.070   1.658
 2063TIP3   OH2 6149   6.838   0.793   2.561
 2063TIP3    H1 6150   6.745   0.763   2.568
 2063TIP3    H2 6151   6.878   0.714   2.517
 2064TIP3   OH2 6152   5.975   1.010   2.307
 2064TIP3    H1 6153   5.970   1.092   2.254
 2064TIP3    H2 6154   5.882   0.995   2.327
 2065TIP3   OH2 6155   5.532   0.333   2.018
 2065TIP3    H1 6156   5.575   0.419   2.037
 2065TIP3    H2 6157   5.455   0.336   2.079
 2066TIP3   OH2 6158   6.105   0.773   2.254
 2066TIP3    H1 6159   6.072   0.863   2.271
 2066TIP3    H2 6160   6.070   0.725   2.331
 2067TIP3   OH2 6161   6.244   1.353   2.779
 2067TIP3    H1 6162   6.288   1.426   2.730
 2067TIP3    H2 6163   6.320   1.315   2.827
 2068TIP3   OH2 6164   5.891   1.250   2.162
 2068TIP3    H1 6165   5.806   1.259   2.210
 2068TIP3    H2 6166   5.924   1.343   2.165
 2069TIP3   OH2 6167   6.628   0.987   2.739
 2069TIP3    H1 6168   6.618   0.985   2.837
 2069TIP3    H2 6169   6.709   0.937   2.727
 2070TIP3   OH2 6170   6.587   0.886   1.654
 2070TIP3    H1 6171   6.648   0.860   1.727
 2070TIP3    H2 6172   6.501   0.876   1.697
 2071TIP3   OH2 6173   6.880   1.515   2.786
 2071TIP3    H1 6174   6.800   1.459   2.783
 2071TIP3    H2 6175   6.861   1.579   2.715
 2072TIP3   OH2 6176   6.919   1.344   1.480
 2072TIP3    H1 6177   6.953   1.334   1.570
 2072TIP3    H2 6178   6.842   1.401   1.493
 2073TIP3   OH2 6179   6.769   0.808   1.839
 2073TIP3    H1 6180   6.755   0.739   1.908
 2073TIP3    H2 6181   6.865   0.818   1.844
 2074TIP3   OH2 6182   5.681   1.212   2.938
 2074TIP3    H1 6183   5.737   1.143   2.977
 2074TIP3    H2 6184   5.702   1.288   2.994
 2075TIP3   OH2 6185   5.971   0.873   1.632
 2075TIP3    H1 6186   5.961   0.789   1.585
 2075TIP3    H2 6187   5.945   0.851   1.724
 2076TIP3   OH2 6188   5.916   0.864   1.901
 2076TIP3    H1 6189   5.990   0.843   1.961
 2076TIP3    H2 6190   5.916   0.963   1.904
 2077TIP3   OH2 6191   5.653   0.568   2.104
 2077TIP3    H1 6192   5.585   0.611   2.159
 2077TIP3    H2 6193   5.662   0.634   2.033
 2078TIP3   OH2 6194   6.178   1.070   1.845
 2078TIP3    H1 6195   6.089   1.090   1.882
 2078TIP3    H2 6196   6.188   1.144   1.783
 2079TIP3   OH2 6197   6.375   0.130   2.244
 2079TIP3    H1 6198   6.436   0.205   2.227
 2079TIP3    H2 6199   6.365   0.134   2.342
 2080TIP3   OH2 6200   6.639   0.452   3.059
 2080TIP3    H1 6201   6.671   0.510   3.131
 2080TIP3    H2 6202   6.679   0.366   3.083
 2081TIP3   OH2 6203   5.923   1.137   1.913
 2081TIP3    H1 6204   5.893   1.207   1.850
 2081TIP3    H2 6205   5.907   1.181   1.999
 2082TIP3   OH2 6206   6.933   0.567   2.443
 2082TIP3    H1 6207   6.872   0.493   2.454
 2082TIP3    H2 6208   7.021   0.530   2.462
 2083TIP3   OH2 6209   5.644   0.764   1.905
 2083TIP3    H1 6210   5.711   0.834   1.912
 2083TIP3    H2 6211   5.686   0.708   1.836
 2084TIP3   OH2 6212   5.644   0.088   2.051
 2084TIP3    H1 6213   5.603   0.177   2.041
 2084TIP3    H2 6214   5.597   0.039   1.981
 2085TIP3   OH2 6215   6.892   1.491   2.385
 2085TIP3    H1 6216   6.855   1.538   2.307
 2085TIP3    H2 6217   6.987   1.512   2.374
 2086TIP3   OH2 6218   5.511   0.978   2.285
 2086TIP3    H1 6219   5.451   1.009   2.354
 2086TIP3    H2 6220   5.476   1.023   2.205
 2087TIP3   OH2 6221   5.674   1.530   3.361
 2087TIP3    H1 6222   5.760   1.531   3.408
 2087TIP3    H2 6223   5.655   1.434   3.361
 2088TIP3   OH2 6224   6.150   1.486   3.406
 2088TIP3    H1 6225   6.245   1.469   3.412
 2088TIP3    H2 6226   6.124   1.424   3.335
 2089TIP3   OH2 6227   6.103   1.093   1.541
 2089TIP3    H1 6228   6.059   1.012   1.577
 2089TIP3    H2 6229   6.183   1.054   1.500
 2090TIP3   OH2 6230   6.789   1.396   3.139
 2090TIP3    H1 6231   6.783   1.327   3.209
 2090TIP3    H2 6232   6.864   1.450   3.170
 2091TIP3   OH2 6233   6.583   1.112   1.460
 2091TIP3    H1 6234   6.621   1.033   1.503
 2091TIP3    H2 6235   6.644   1.129   1.386
 2092TIP3   OH2 6236   5.802   0.937   3.559
 2092TIP3    H1 6237   5.812   0.845   3.589
 2092TIP3    H2 6238   5.715   0.935   3.514
 2093TIP3   OH2 6239   5.784   0.583   1.757
 2093TIP3    H1 6240   5.844   0.551   1.826
 2093TIP3    H2 6241   5.829   0.557   1.675
 2094TIP3   OH2 6242   6.410   1.019   3.336
 2094TIP3    H1 6243   6.367   1.039   3.251
 2094TIP3    H2 6244   6.439   0.926   3.325
 2095TIP3   OH2 6245   6.319   0.790   1.583
 2095TIP3    H1 6246   6.288   0.806   1.674
 2095TIP3    H2 6247   6.253   0.729   1.546
 2096TIP3   OH2 6248   6.900   1.028   2.950
 2096TIP3    H1 6249   6.977   1.067   2.903
 2096TIP3    H2 6250   6.832   1.094   2.929
 2097TIP3   OH2 6251   5.938   0.653   3.538
 2097TIP3    H1 6252   6.023   0.609   3.524
 2097TIP3    H2 6253   5.952   0.694   3.626
 2098TIP3   OH2 6254   5.989   0.483   1.978
 2098TIP3    H1 6255   5.943   0.469   2.063
 2098TIP3    H2 6256   6.021   0.393   1.960
 2099TIP3   OH2 6257   6.259   0.565   3.212
 2099TIP3    H1 6258   6.175   0.617   3.208
 2099TIP3    H2 6259   6.305   0.596   3.131
 2100TIP3   OH2 6260   6.774   0.954   3.340
 2100TIP3    H1 6261   6.847   0.918   3.288
 2100TIP3    H2 6262   6.765   0.888   3.411
 2101TIP3   OH2 6263   6.380   0.344   3.302
 2101TIP3    H1 6264   6.404   0.315   3.212
 2101TIP3    H2 6265   6.329   0.425   3.280
 2102TIP3   OH2 6266   6.407   0.660   3.009
 2102TIP3    H1 6267   6.493   0.674   2.968
 2102TIP3    H2 6268   6.351   0.726   2.963
 2103TIP3   OH2 6269   6.976   0.636   3.384
 2103TIP3    H1 6270   7.015   0.545   3.378
 2103TIP3    H2 6271   7.049   0.690   3.350
 2104TIP3   OH2 6272   7.044   0.889   3.130
 2104TIP3    H1 6273   6.978   0.941   3.078
 2104TIP3    H2 6274   7.121   0.900   3.074
 2105TIP3   OH2 6275   6.207   0.460   3.546
 2105TIP3    H1 6276   6.233   0.379   3.594
 2105TIP3    H2 6277   6.268   0.457   3.471
 2106TIP3   OH2 6278   6.615   0.428   3.434
 2106TIP3    H1 6279   6.626   0.372   3.512
 2106TIP3    H2 6280   6.531   0.394   3.397
 2107TIP3   OH2 6281   5.894   1.343   1.726
 2107TIP3    H1 6282   5.991   1.343   1.710
 2107TIP3    H2 6283   5.865   1.391   1.646
 2108TIP3   OH2 6284   5.376   0.728   1.948
 2108TIP3    H1 6285   5.469   0.749   1.926
 2108TIP3    H2 6286   5.366   0.641   1.903
 2109TIP3   OH2 6287   5.293   1.334   2.358
 2109TIP3    H1 6288   5.229   1.271   2.318
 2109TIP3    H2 6289   5.338   1.275   2.422
 2110TIP3   OH2 6290   5.428   1.179   2.542
 2110TIP3    H1 6291   5.417   1.111   2.611
 2110TIP3    H2 6292   5.479   1.245   2.593
 2111TIP3   OH2 6293   7.136   1.606   2.362
 2111TIP3    H1 6294   7.204   1.650   2.416
 2111TIP3    H2 6295   7.153   1.642   2.273
 2112TIP3   OH2 6296   7.148   1.631   2.663
 2112TIP3    H1 6297   7.113   1.548   2.626
 2112TIP3    H2 6298   7.228   1.596   2.705
 2113TIP3   OH2 6299   7.230   1.254   3.218
 2113TIP3    H1 6300   7.161   1.291   3.276
 2113TIP3    H2 6301   7.250   1.327   3.158
 2114TIP3   OH2 6302   7.074   1.357   2.645
 2114TIP3    H1 6303   7.002   1.393   2.700
 2114TIP3    H2 6304   7.024   1.311   2.575
 2115TIP3   OH2 6305   5.608   0.593   2.914
 2115TIP3    H1 6306   5.606   0.561   2.822
 2115TIP3    H2 6307   5.706   0.599   2.928
 2116TIP3   OH2 6308   5.827   0.284   3.584
 2116TIP3    H1 6309   5.921   0.307   3.594
 2116TIP3    H2 6310   5.830   0.188   3.609
 2117TIP3   OH2 6311   5.588   0.254   2.982
 2117TIP3    H1 6312   5.642   0.235   2.903
 2117TIP3    H2 6313   5.632   0.332   3.017
 2118TIP3   OH2 6314   6.732   1.456   1.996
 2118TIP3    H1 6315   6.795   1.445   1.923
 2118TIP3    H2 6316   6.780   1.517   2.056
 2119TIP3   OH2 6317   5.838   1.259   3.380
 2119TIP3    H1 6318   5.745   1.234   3.366
 2119TIP3    H2 6319   5.851   1.237   3.473
 2120TIP3   OH2 6320   6.018   1.292   2.928
 2120TIP3    H1 6321   5.970   1.368   2.889
 2120TIP3    H2 6322   6.104   1.306   2.884
 2121TIP3   OH2 6323   6.458   1.534   3.065
 2121TIP3    H1 6324   6.499   1.534   3.154
 2121TIP3    H2 6325   6.524   1.586   3.014
 2122TIP3   OH2 6326   6.638   1.688   2.927
 2122TIP3    H1 6327   6.709   1.637   2.887
 2122TIP3    H2 6328   6.688   1.744   2.990
 2123TIP3   OH2 6329   5.691   1.546   2.954
 2123TIP3    H1 6330   5.600   1.579   2.933
 2123TIP3    H2 6331   5.706   1.592   3.038
 2124TIP3   OH2 6332   5.928   1.526   2.813
 2124TIP3    H1 6333   5.840   1.538   2.856
 2124TIP3    H2 6334   5.909   1.558   2.722
 2125TIP3   OH2 6335   6.354   1.553   2.609
 2125TIP3    H1 6336   6.283   1.572   2.546
 2125TIP3    H2 6337   6.366   1.640   2.653
 2126TIP3   OH2 6338   6.623   1.490   2.663
 2126TIP3    H1 6339   6.529   1.510   2.642
 2126TIP3    H2 6340   6.669   1.563   2.620
 2127TIP3   OH2 6341   6.820   1.681   2.573
 2127TIP3    H1 6342   6.810   1.763   2.521
 2127TIP3    H2 6343   6.851   1.618   2.504
 2128TIP3   OH2 6344   5.604   1.339   2.697
 2128TIP3    H1 6345   5.630   1.312   2.787
 2128TIP3    H2 6346   5.676   1.295   2.646
 2129TIP3   OH2 6347   5.800   1.212   2.556
 2129TIP3    H1 6348   5.814   1.128   2.607
 2129TIP3    H2 6349   5.891   1.247   2.554
 2130TIP3   OH2 6350   6.067   1.304   2.563
 2130TIP3    H1 6351   6.097   1.211   2.554
 2130TIP3    H2 6352   6.114   1.328   2.644
 2131TIP3   OH2 6353   5.391   1.118   2.089
 2131TIP3    H1 6354   5.307   1.083   2.054
 2131TIP3    H2 6355   5.383   1.211   2.061
 2132TIP3   OH2 6356   6.164   1.316   1.679
 2132TIP3    H1 6357   6.252   1.330   1.639
 2132TIP3    H2 6358   6.130   1.245   1.619
 2133TIP3   OH2 6359   6.883   1.406   1.763
 2133TIP3    H1 6360   6.869   1.308   1.760
 2133TIP3    H2 6361   6.816   1.438   1.700
 2134TIP3   OH2 6362   5.469   1.141   1.726
 2134TIP3    H1 6363   5.475   1.157   1.821
 2134TIP3    H2 6364   5.553   1.093   1.708
 2135TIP3   OH2 6365   7.089   1.560   2.973
 2135TIP3    H1 6366   7.024   1.533   2.904
 2135TIP3    H2 6367   7.079   1.657   2.969
 2136TIP3   OH2 6368   7.028   1.634   1.812
 2136TIP3    H1 6369   6.981   1.550   1.794
 2136TIP3    H2 6370   7.114   1.600   1.841
 2137TIP3   OH2 6371   0.831   1.725   3.404
 2137TIP3    H1 6372   0.800   1.815   3.386
 2137TIP3    H2 6373   0.758   1.673   3.365
 2138TIP3   OH2 6374   0.833   1.716   3.777
 2138TIP3    H1 6375   0.855   1.702   3.871
 2138TIP3    H2 6376   0.789   1.633   3.754
 2139TIP3   OH2 6377   0.127   1.623   4.157
 2139TIP3    H1 6378   0.162   1.553   4.215
 2139TIP3    H2 6379   0.207   1.674   4.138
 2140TIP3   OH2 6380   1.078   2.029   3.469
 2140TIP3    H1 6381   1.049   1.968   3.537
 2140TIP3    H2 6382   1.091   2.112   3.521
 2141TIP3   OH2 6383   0.098   2.026   3.876
 2141TIP3    H1 6384   0.093   1.928   3.880
 2141TIP3    H2 6385   0.194   2.038   3.864
 2142TIP3   OH2 6386  -0.127   1.520   3.833
 2142TIP3    H1 6387  -0.074   1.442   3.859
 2142TIP3    H2 6388  -0.069   1.566   3.770
 2143TIP3   OH2 6389   0.718   2.486   3.488
 2143TIP3    H1 6390   0.754   2.414   3.433
 2143TIP3    H2 6391   0.750   2.456   3.576
 2144TIP3   OH2 6392   0.615   1.943   3.835
 2144TIP3    H1 6393   0.664   1.875   3.787
 2144TIP3    H2 6394   0.693   1.991   3.870
 2145TIP3   OH2 6395   1.637   1.269   3.840
 2145TIP3    H1 6396   1.674   1.349   3.881
 2145TIP3    H2 6397   1.638   1.294   3.746
 2146TIP3   OH2 6398   1.036   1.446   3.867
 2146TIP3    H1 6399   1.078   1.359   3.884
 2146TIP3    H2 6400   1.002   1.433   3.777
 2147TIP3   OH2 6401   0.369   1.103   3.841
 2147TIP3    H1 6402   0.353   1.161   3.764
 2147TIP3    H2 6403   0.329   1.019   3.812
 2148TIP3   OH2 6404   1.073   1.211   3.457
 2148TIP3    H1 6405   1.148   1.193   3.519
 2148TIP3    H2 6406   1.123   1.239   3.378
 2149TIP3   OH2 6407   0.012   1.295   3.932
 2149TIP3    H1 6408   0.095   1.279   3.981
 2149TIP3    H2 6409   0.018   1.227   3.864
 2150TIP3   OH2 6410   0.449   1.501   3.737
 2150TIP3    H1 6411   0.545   1.488   3.749
 2150TIP3    H2 6412   0.421   1.413   3.708
 2151TIP3   OH2 6413   1.715   1.479   4.005
 2151TIP3    H1 6414   1.630   1.524   3.985
 2151TIP3    H2 6415   1.734   1.514   4.093
 2152TIP3   OH2 6416   0.378   1.097   4.271
 2152TIP3    H1 6417   0.316   1.137   4.207
 2152TIP3    H2 6418   0.319   1.077   4.346
 2153TIP3   OH2 6419   0.726   1.950   3.271
 2153TIP3    H1 6420   0.679   1.933   3.188
 2153TIP3    H2 6421   0.677   2.029   3.304
 2154TIP3   OH2 6422   0.476   1.869   4.060
 2154TIP3    H1 6423   0.421   1.943   4.094
 2154TIP3    H2 6424   0.522   1.913   3.985
 2155TIP3   OH2 6425   1.283   1.207   3.629
 2155TIP3    H1 6426   1.269   1.154   3.708
 2155TIP3    H2 6427   1.331   1.285   3.663
 2156TIP3   OH2 6428   0.240   1.211   4.060
 2156TIP3    H1 6429   0.305   1.283   4.078
 2156TIP3    H2 6430   0.285   1.166   3.985
 2157TIP3   OH2 6431   0.306   2.066   4.160
 2157TIP3    H1 6432   0.289   2.154   4.120
 2157TIP3    H2 6433   0.225   2.058   4.215
 2158TIP3   OH2 6434   1.103   2.253   3.629
 2158TIP3    H1 6435   1.016   2.284   3.665
 2158TIP3    H2 6436   1.136   2.341   3.600
 2159TIP3   OH2 6437   1.432   1.167   4.004
 2159TIP3    H1 6438   1.344   1.191   3.967
 2159TIP3    H2 6439   1.493   1.200   3.934
 2160TIP3   OH2 6440   0.730   0.832   3.974
 2160TIP3    H1 6441   0.726   0.737   4.001
 2160TIP3    H2 6442   0.648   0.864   4.017
 2161TIP3   OH2 6443   0.832   2.314   3.288
 2161TIP3    H1 6444   0.888   2.234   3.279
 2161TIP3    H2 6445   0.897   2.382   3.260
 2162TIP3   OH2 6446   0.987   2.094   3.218
 2162TIP3    H1 6447   0.924   2.022   3.207
 2162TIP3    H2 6448   1.033   2.067   3.301
 2163TIP3   OH2 6449   0.667   1.573   3.239
 2163TIP3    H1 6450   0.588   1.626   3.218
 2163TIP3    H2 6451   0.707   1.560   3.151
 2164TIP3   OH2 6452   0.643   1.340   2.953
 2164TIP3    H1 6453   0.712   1.382   3.006
 2164TIP3    H2 6454   0.661   1.246   2.963
 2165TIP3   OH2 6455   1.557   1.823   3.824
 2165TIP3    H1 6456   1.475   1.875   3.833
 2165TIP3    H2 6457   1.585   1.847   3.734
 2166TIP3   OH2 6458   1.010   1.664   3.209
 2166TIP3    H1 6459   0.953   1.686   3.287
 2166TIP3    H2 6460   1.091   1.633   3.255
 2167TIP3   OH2 6461   1.239   1.694   4.118
 2167TIP3    H1 6462   1.229   1.787   4.140
 2167TIP3    H2 6463   1.151   1.677   4.078
 2168TIP3   OH2 6464   0.244   1.660   3.635
 2168TIP3    H1 6465   0.190   1.598   3.582
 2168TIP3    H2 6466   0.320   1.604   3.663
 2169TIP3   OH2 6467   0.360   2.054   3.780
 2169TIP3    H1 6468   0.352   2.033   3.686
 2169TIP3    H2 6469   0.452   2.026   3.799
 2170TIP3   OH2 6470   0.370   1.629   3.980
 2170TIP3    H1 6471   0.408   1.604   3.893
 2170TIP3    H2 6472   0.416   1.714   3.999
 2171TIP3   OH2 6473   0.501   2.169   4.328
 2171TIP3    H1 6474   0.442   2.242   4.356
 2171TIP3    H2 6475   0.448   2.127   4.258
 2172TIP3   OH2 6476   0.852   1.519   3.038
 2172TIP3    H1 6477   0.907   1.581   3.090
 2172TIP3    H2 6478   0.882   1.541   2.946
 2173TIP3   OH2 6479   0.267   1.728   4.418
 2173TIP3    H1 6480   0.274   1.820   4.451
 2173TIP3    H2 6481   0.170   1.719   4.410
 2174TIP3   OH2 6482   0.588   2.188   3.310
 2174TIP3    H1 6483   0.672   2.237   3.320
 2174TIP3    H2 6484   0.528   2.258   3.279
 2175TIP3   OH2 6485   0.309   2.352   4.392
 2175TIP3    H1 6486   0.276   2.359   4.300
 2175TIP3    H2 6487   0.227   2.331   4.442
 2176TIP3   OH2 6488   1.346   0.760   3.072
 2176TIP3    H1 6489   1.267   0.779   3.128
 2176TIP3    H2 6490   1.370   0.850   3.042
 2177TIP3   OH2 6491   0.085   1.495   3.463
 2177TIP3    H1 6492   0.091   1.555   3.387
 2177TIP3    H2 6493   0.066   1.412   3.418
 2178TIP3   OH2 6494   1.159   2.125   2.633
 2178TIP3    H1 6495   1.155   2.221   2.610
 2178TIP3    H2 6496   1.253   2.107   2.623
 2179TIP3   OH2 6497  -0.098   1.875   4.336
 2179TIP3    H1 6498  -0.158   1.843   4.268
 2179TIP3    H2 6499  -0.071   1.792   4.381
 2180TIP3   OH2 6500  -0.262   2.088   3.966
 2180TIP3    H1 6501  -0.175   2.051   3.945
 2180TIP3    H2 6502  -0.238   2.150   4.037
 2181TIP3   OH2 6503   1.636   2.553   4.045
 2181TIP3    H1 6504   1.609   2.471   3.998
 2181TIP3    H2 6505   1.548   2.574   4.081
 2182TIP3   OH2 6506   0.669   2.304   4.168
 2182TIP3    H1 6507   0.695   2.391   4.199
 2182TIP3    H2 6508   0.612   2.271   4.241
 2183TIP3   OH2 6509   0.468   2.438   3.111
 2183TIP3    H1 6510   0.421   2.426   3.027
 2183TIP3    H2 6511   0.438   2.526   3.140
 2184TIP3   OH2 6512  -0.085   2.297   3.503
 2184TIP3    H1 6513  -0.039   2.287   3.589
 2184TIP3    H2 6514  -0.131   2.210   3.497
 2185TIP3   OH2 6515   0.666   2.356   2.763
 2185TIP3    H1 6516   0.727   2.286   2.729
 2185TIP3    H2 6517   0.701   2.366   2.854
 2186TIP3   OH2 6518   0.724   2.394   3.031
 2186TIP3    H1 6519   0.634   2.401   3.070
 2186TIP3    H2 6520   0.774   2.359   3.108
 2187TIP3   OH2 6521   1.480   1.659   4.295
 2187TIP3    H1 6522   1.404   1.657   4.234
 2187TIP3    H2 6523   1.507   1.565   4.294
 2188TIP3   OH2 6524   0.088   2.073   4.331
 2188TIP3    H1 6525   0.143   2.046   4.407
 2188TIP3    H2 6526   0.016   2.005   4.333
 2189TIP3   OH2 6527   0.453   0.896   4.088
 2189TIP3    H1 6528   0.402   0.909   4.007
 2189TIP3    H2 6529   0.437   0.980   4.135
 2190TIP3   OH2 6530   1.027   1.006   4.307
 2190TIP3    H1 6531   1.096   0.975   4.369
 2190TIP3    H2 6532   0.943   0.985   4.355
 2191TIP3   OH2 6533   1.262   1.431   4.227
 2191TIP3    H1 6534   1.209   1.428   4.310
 2191TIP3    H2 6535   1.236   1.517   4.189
 2192TIP3   OH2 6536   0.949   1.575   2.792
 2192TIP3    H1 6537   0.879   1.535   2.738
 2192TIP3    H2 6538   0.997   1.629   2.728
 2193TIP3   OH2 6539   0.417   1.406   4.128
 2193TIP3    H1 6540   0.374   1.430   4.213
 2193TIP3    H2 6541   0.403   1.488   4.075
 2194TIP3   OH2 6542   0.312   1.267   3.626
 2194TIP3    H1 6543   0.223   1.281   3.591
 2194TIP3    H2 6544   0.364   1.256   3.545
 2195TIP3   OH2 6545   0.802   1.376   3.378
 2195TIP3    H1 6546   0.753   1.447   3.331
 2195TIP3    H2 6547   0.859   1.341   3.306
 2196TIP3   OH2 6548   0.972   1.648   4.455
 2196TIP3    H1 6549   0.949   1.577   4.519
 2196TIP3    H2 6550   1.065   1.664   4.478
 2197TIP3   OH2 6551   0.947   1.404   3.612
 2197TIP3    H1 6552   0.887   1.430   3.539
 2197TIP3    H2 6553   0.987   1.326   3.569
 2198TIP3   OH2 6554   0.238   1.444   4.343
 2198TIP3    H1 6555   0.279   1.518   4.392
 2198TIP3    H2 6556   0.196   1.393   4.413
 2199TIP3   OH2 6557   0.980   1.641   4.041
 2199TIP3    H1 6558   1.000   1.572   3.974
 2199TIP3    H2 6559   0.935   1.588   4.110
 2200TIP3   OH2 6560   0.643   1.122   3.705
 2200TIP3    H1 6561   0.566   1.100   3.760
 2200TIP3    H2 6562   0.717   1.108   3.767
 2201TIP3   OH2 6563   1.125   1.186   3.913
 2201TIP3    H1 6564   1.087   1.202   4.002
 2201TIP3    H2 6565   1.059   1.123   3.878
 2202TIP3   OH2 6566   1.292   2.884   4.123
 2202TIP3    H1 6567   1.291   2.912   4.029
 2202TIP3    H2 6568   1.374   2.927   4.155
 2203TIP3   OH2 6569   0.252   1.980   4.547
 2203TIP3    H1 6570   0.333   2.014   4.589
 2203TIP3    H2 6571   0.189   1.988   4.621
 2204TIP3   OH2 6572   0.714   1.443   3.800
 2204TIP3    H1 6573   0.784   1.406   3.743
 2204TIP3    H2 6574   0.727   1.393   3.882
 2205TIP3   OH2 6575   0.690   1.335   4.101
 2205TIP3    H1 6576   0.602   1.377   4.107
 2205TIP3    H2 6577   0.749   1.400   4.144
 2206TIP3   OH2 6578   0.443   1.728   3.193
 2206TIP3    H1 6579   0.357   1.689   3.174
 2206TIP3    H2 6580   0.425   1.767   3.282
 2207TIP3   OH2 6581   1.317   1.970   3.844
 2207TIP3    H1 6582   1.350   2.024   3.769
 2207TIP3    H2 6583   1.243   1.920   3.801
 2208TIP3   OH2 6584   0.862   1.034   3.080
 2208TIP3    H1 6585   0.862   1.012   2.984
 2208TIP3    H2 6586   0.901   1.123   3.077
 2209TIP3   OH2 6587   0.824   2.043   4.196
 2209TIP3    H1 6588   0.847   2.049   4.290
 2209TIP3    H2 6589   0.813   2.137   4.172
 2210TIP3   OH2 6590   0.965   1.297   3.164
 2210TIP3    H1 6591   1.062   1.302   3.173
 2210TIP3    H2 6592   0.944   1.373   3.106
 2211TIP3   OH2 6593   0.116   1.743   3.864
 2211TIP3    H1 6594   0.159   1.726   3.778
 2211TIP3    H2 6595   0.174   1.694   3.924
 2212TIP3   OH2 6596   0.576   1.879   3.006
 2212TIP3    H1 6597   0.525   1.964   3.008
 2212TIP3    H2 6598   0.524   1.826   3.071
 2213TIP3   OH2 6599  -0.006   1.663   4.490
 2213TIP3    H1 6600   0.037   1.666   4.577
 2213TIP3    H2 6601  -0.073   1.594   4.502
 2214TIP3   OH2 6602   0.732   1.784   4.496
 2214TIP3    H1 6603   0.673   1.729   4.442
 2214TIP3    H2 6604   0.820   1.753   4.466
 2215TIP3   OH2 6605   0.943   2.288   4.106
 2215TIP3    H1 6606   0.977   2.327   4.021
 2215TIP3    H2 6607   0.995   2.346   4.172
 2216TIP3   OH2 6608   1.411   1.373   3.013
 2216TIP3    H1 6609   1.346   1.333   2.949
 2216TIP3    H2 6610   1.416   1.461   2.971
 2217TIP3   OH2 6611   1.617   2.208   4.075
 2217TIP3    H1 6612   1.547   2.273   4.053
 2217TIP3    H2 6613   1.642   2.180   3.984
 2218TIP3   OH2 6614   1.113   2.198   2.906
 2218TIP3    H1 6615   1.064   2.136   2.962
 2218TIP3    H2 6616   1.112   2.156   2.818
 2219TIP3   OH2 6617   1.098   1.824   3.740
 2219TIP3    H1 6618   1.003   1.806   3.754
 2219TIP3    H2 6619   1.124   1.745   3.689
 2220TIP3   OH2 6620   0.225   2.055   3.486
 2220TIP3    H1 6621   0.223   2.138   3.435
 2220TIP3    H2 6622   0.131   2.039   3.499
 2221TIP3   OH2 6623   0.349   1.817   3.427
 2221TIP3    H1 6624   0.320   1.909   3.446
 2221TIP3    H2 6625   0.323   1.772   3.510
 2222TIP3   OH2 6626   0.490   2.387   3.955
 2222TIP3    H1 6627   0.519   2.470   3.910
 2222TIP3    H2 6628   0.577   2.352   3.982
 2223TIP3   OH2 6629   0.141   2.296   3.338
 2223TIP3    H1 6630   0.057   2.304   3.389
 2223TIP3    H2 6631   0.173   2.388   3.342
 2224TIP3   OH2 6632   0.867   1.987   3.923
 2224TIP3    H1 6633   0.866   2.021   4.015
 2224TIP3    H2 6634   0.949   2.021   3.887
 2225TIP3   OH2 6635   0.849   1.918   2.800
 2225TIP3    H1 6636   0.911   1.890   2.871
 2225TIP3    H2 6637   0.765   1.908   2.846
 2226TIP3   OH2 6638   1.196   2.403   2.625
 2226TIP3    H1 6639   1.222   2.461   2.552
 2226TIP3    H2 6640   1.117   2.451   2.656
 2227TIP3   OH2 6641   1.014   1.850   3.004
 2227TIP3    H1 6642   1.003   1.792   3.082
 2227TIP3    H2 6643   1.111   1.862   3.003
 2228TIP3   OH2 6644  -0.075   2.256   4.116
 2228TIP3    H1 6645  -0.010   2.192   4.149
 2228TIP3    H2 6646  -0.047   2.336   4.162
 2229TIP3   OH2 6647   0.207   1.897   3.035
 2229TIP3    H1 6648   0.211   1.886   3.130
 2229TIP3    H2 6649   0.179   1.990   3.029
 2230TIP3   OH2 6650   1.047   1.247   4.174
 2230TIP3    H1 6651   1.134   1.278   4.203
 2230TIP3    H2 6652   1.036   1.164   4.225
 2231TIP3   OH2 6653   0.934   0.979   3.343
 2231TIP3    H1 6654   0.896   0.995   3.254
 2231TIP3    H2 6655   0.962   1.069   3.370
 2232TIP3   OH2 6656   0.433   2.110   3.001
 2232TIP3    H1 6657   0.347   2.122   3.046
 2232TIP3    H2 6658   0.449   2.200   2.970
 2233TIP3   OH2 6659   0.602   1.190   3.435
 2233TIP3    H1 6660   0.678   1.248   3.416
 2233TIP3    H2 6661   0.618   1.166   3.528
 2234TIP3   OH2 6662   0.884   1.483   4.241
 2234TIP3    H1 6663   0.915   1.534   4.318
 2234TIP3    H2 6664   0.940   1.403   4.244
 2235TIP3   OH2 6665   0.793   0.908   3.576
 2235TIP3    H1 6666   0.742   0.990   3.580
 2235TIP3    H2 6667   0.838   0.918   3.489
 2236TIP3   OH2 6668   0.179   2.178   3.087
 2236TIP3    H1 6669   0.152   2.254   3.032
 2236TIP3    H2 6670   0.163   2.214   3.177
 2237TIP3   OH2 6671   1.529   1.390   4.227
 2237TIP3    H1 6672   1.431   1.389   4.233
 2237TIP3    H2 6673   1.541   1.346   4.141
 2238TIP3   OH2 6674   1.179   1.579   3.607
 2238TIP3    H1 6675   1.100   1.524   3.620
 2238TIP3    H2 6676   1.248   1.531   3.658
 2239TIP3   OH2 6677   1.161   2.519   3.539
 2239TIP3    H1 6678   1.111   2.580   3.482
 2239TIP3    H2 6679   1.253   2.550   3.524
 2240TIP3   OH2 6680  -0.218   2.060   3.480
 2240TIP3    H1 6681  -0.309   2.076   3.505
 2240TIP3    H2 6682  -0.229   2.038   3.386
 2241TIP3   OH2 6683  -0.042   2.587   4.500
 2241TIP3    H1 6684   0.031   2.595   4.566
 2241TIP3    H2 6685  -0.090   2.511   4.534
 2242TIP3   OH2 6686   0.396   2.527   4.589
 2242TIP3    H1 6687   0.493   2.523   4.588
 2242TIP3    H2 6688   0.373   2.469   4.514
 2243TIP3   OH2 6689   0.369   2.108   2.704
 2243TIP3    H1 6690   0.377   2.050   2.781
 2243TIP3    H2 6691   0.442   2.076   2.647
 2244TIP3   OH2 6692   1.049   2.443   4.322
 2244TIP3    H1 6693   1.034   2.377   4.393
 2244TIP3    H2 6694   1.116   2.501   4.361
 2245TIP3   OH2 6695   0.820   2.158   2.667
 2245TIP3    H1 6696   0.848   2.078   2.717
 2245TIP3    H2 6697   0.854   2.139   2.577
 2246TIP3   OH2 6698   0.045   1.961   4.736
 2246TIP3    H1 6699   0.068   1.867   4.742
 2246TIP3    H2 6700  -0.048   1.956   4.712
 2247TIP3   OH2 6701   0.659   2.063   4.516
 2247TIP3    H1 6702   0.616   2.089   4.431
 2247TIP3    H2 6703   0.688   1.971   4.497
 2248TIP3   OH2 6704   0.518   1.813   2.750
 2248TIP3    H1 6705   0.546   1.826   2.843
 2248TIP3    H2 6706   0.543   1.721   2.731
 2249TIP3   OH2 6707   0.154   1.692   4.725
 2249TIP3    H1 6708   0.240   1.666   4.688
 2249TIP3    H2 6709   0.180   1.727   4.812
 2250TIP3   OH2 6710   0.504   1.589   4.377
 2250TIP3    H1 6711   0.431   1.654   4.381
 2250TIP3    H2 6712   0.559   1.626   4.304
 2251TIP3   OH2 6713   1.023   1.994   4.525
 2251TIP3    H1 6714   1.119   2.000   4.523
 2251TIP3    H2 6715   1.009   1.924   4.590
 2252TIP3   OH2 6716   1.206   1.689   2.652
 2252TIP3    H1 6717   1.175   1.618   2.592
 2252TIP3    H2 6718   1.141   1.760   2.630
 2253TIP3   OH2 6719   0.627   1.383   4.507
 2253TIP3    H1 6720   0.632   1.306   4.448
 2253TIP3    H2 6721   0.585   1.451   4.449
 2254TIP3   OH2 6722   0.636   1.170   4.321
 2254TIP3    H1 6723   0.666   1.214   4.238
 2254TIP3    H2 6724   0.543   1.148   4.299
 2255TIP3   OH2 6725   0.654   1.706   4.189
 2255TIP3    H1 6726   0.741   1.728   4.154
 2255TIP3    H2 6727   0.597   1.772   4.145
 2256TIP3   OH2 6728   1.242   1.667   4.572
 2256TIP3    H1 6729   1.274   1.576   4.577
 2256TIP3    H2 6730   1.323   1.715   4.549
 2257TIP3   OH2 6731   0.506   1.493   4.741
 2257TIP3    H1 6732   0.438   1.424   4.753
 2257TIP3    H2 6733   0.541   1.470   4.653
 2258TIP3   OH2 6734   0.773   0.937   4.393
 2258TIP3    H1 6735   0.719   1.014   4.367
 2258TIP3    H2 6736   0.723   0.863   4.352
 2259TIP3   OH2 6737   0.888   1.432   4.602
 2259TIP3    H1 6738   0.870   1.421   4.697
 2259TIP3    H2 6739   0.799   1.411   4.566
 2260TIP3   OH2 6740   1.129   1.391   4.459
 2260TIP3    H1 6741   1.053   1.387   4.520
 2260TIP3    H2 6742   1.203   1.356   4.513
 2261TIP3   OH2 6743   1.358   1.328   4.604
 2261TIP3    H1 6744   1.371   1.232   4.620
 2261TIP3    H2 6745   1.355   1.364   4.695
 2262TIP3   OH2 6746   0.344   1.280   4.785
 2262TIP3    H1 6747   0.361   1.193   4.748
 2262TIP3    H2 6748   0.386   1.273   4.873
 2263TIP3   OH2 6749   0.852   0.937   4.655
 2263TIP3    H1 6750   0.923   0.871   4.638
 2263TIP3    H2 6751   0.811   0.938   4.565
 2264TIP3   OH2 6752   0.928   1.164   4.793
 2264TIP3    H1 6753   0.906   1.092   4.731
 2264TIP3    H2 6754   0.847   1.219   4.790
 2265TIP3   OH2 6755   0.140   2.392   2.913
 2265TIP3    H1 6756   0.231   2.394   2.877
 2265TIP3    H2 6757   0.089   2.360   2.835
 2266TIP3   OH2 6758  -0.467   2.358   3.507
 2266TIP3    H1 6759  -0.554   2.352   3.548
 2266TIP3    H2 6760  -0.412   2.317   3.577
 2267TIP3   OH2 6761  -0.340   2.251   3.724
 2267TIP3    H1 6762  -0.339   2.173   3.781
 2267TIP3    H2 6763  -0.278   2.308   3.775
 2268TIP3   OH2 6764   1.414   2.623   3.514
 2268TIP3    H1 6765   1.420   2.674   3.596
 2268TIP3    H2 6766   1.470   2.675   3.454
 2269TIP3   OH2 6767   1.463   2.315   4.363
 2269TIP3    H1 6768   1.400   2.331   4.437
 2269TIP3    H2 6769   1.507   2.402   4.359
 2270TIP3   OH2 6770   1.299   1.854   2.971
 2270TIP3    H1 6771   1.362   1.927   2.957
 2270TIP3    H2 6772   1.336   1.814   3.053
 2271TIP3   OH2 6773   1.393   1.719   3.191
 2271TIP3    H1 6774   1.327   1.665   3.241
 2271TIP3    H2 6775   1.445   1.755   3.264
 2272TIP3   OH2 6776   1.477   2.094   3.648
 2272TIP3    H1 6777   1.525   2.039   3.583
 2272TIP3    H2 6778   1.451   2.170   3.593
 2273TIP3   OH2 6779   1.332   1.597   2.876
 2273TIP3    H1 6780   1.265   1.550   2.822
 2273TIP3    H2 6781   1.277   1.642   2.943
 2274TIP3   OH2 6782   1.242   1.299   2.817
 2274TIP3    H1 6783   1.206   1.327   2.731
 2274TIP3    H2 6784   1.225   1.202   2.809
 2275TIP3   OH2 6785   1.230   1.560   3.338
 2275TIP3    H1 6786   1.239   1.464   3.329
 2275TIP3    H2 6787   1.218   1.571   3.435
 2276TIP3   OH2 6788  -0.139   1.608   4.097
 2276TIP3    H1 6789  -0.140   1.609   3.999
 2276TIP3    H2 6790  -0.044   1.628   4.114
 2277TIP3   OH2 6791   1.698   1.815   4.246
 2277TIP3    H1 6792   1.617   1.764   4.258
 2277TIP3    H2 6793   1.766   1.745   4.246
 2278TIP3   OH2 6794   1.207   1.035   2.784
 2278TIP3    H1 6795   1.257   0.985   2.851
 2278TIP3    H2 6796   1.112   1.027   2.812
 2279TIP3   OH2 6797   1.242   1.285   3.234
 2279TIP3    H1 6798   1.277   1.194   3.248
 2279TIP3    H2 6799   1.304   1.315   3.164
 2280TIP3   OH2 6800   1.394   1.451   3.732
 2280TIP3    H1 6801   1.477   1.479   3.688
 2280TIP3    H2 6802   1.409   1.490   3.820
 2281TIP3   OH2 6803   1.466   1.601   3.960
 2281TIP3    H1 6804   1.386   1.634   4.004
 2281TIP3    H2 6805   1.498   1.681   3.913
 2282TIP3   OH2 6806   1.914   1.193   4.517
 2282TIP3    H1 6807   1.975   1.129   4.473
 2282TIP3    H2 6808   1.882   1.245   4.440
 2283TIP3   OH2 6809   1.342   1.031   3.271
 2283TIP3    H1 6810   1.390   1.016   3.356
 2283TIP3    H2 6811   1.276   0.958   3.274
 2284TIP3   OH2 6812  -0.142   1.347   4.161
 2284TIP3    H1 6813  -0.084   1.327   4.085
 2284TIP3    H2 6814  -0.143   1.446   4.152
 2285TIP3   OH2 6815   1.781   1.327   4.322
 2285TIP3    H1 6816   1.695   1.371   4.334
 2285TIP3    H2 6817   1.754   1.254   4.263
 2286TIP3   OH2 6818   1.441   0.967   2.916
 2286TIP3    H1 6819   1.505   0.911   2.872
 2286TIP3    H2 6820   1.488   1.053   2.913
 2287TIP3   OH2 6821   0.984   2.507   3.175
 2287TIP3    H1 6822   1.036   2.497   3.092
 2287TIP3    H2 6823   1.044   2.562   3.229
 2288TIP3   OH2 6824   0.093   2.297   4.562
 2288TIP3    H1 6825   0.028   2.230   4.537
 2288TIP3    H2 6826   0.094   2.294   4.658
 2289TIP3   OH2 6827   0.269   2.336   4.106
 2289TIP3    H1 6828   0.226   2.414   4.064
 2289TIP3    H2 6829   0.357   2.347   4.064
 2290TIP3   OH2 6830   0.702   2.581   4.247
 2290TIP3    H1 6831   0.750   2.581   4.332
 2290TIP3    H2 6832   0.768   2.624   4.188
 2291TIP3   OH2 6833   0.881   2.728   4.098
 2291TIP3    H1 6834   0.941   2.692   4.032
 2291TIP3    H2 6835   0.941   2.779   4.156
 2292TIP3   OH2 6836   1.681   1.088   4.204
 2292TIP3    H1 6837   1.592   1.080   4.164
 2292TIP3    H2 6838   1.716   0.997   4.192
 2293TIP3   OH2 6839  -0.051   2.584   4.138
 2293TIP3    H1 6840  -0.137   2.614   4.107
 2293TIP3    H2 6841  -0.046   2.622   4.227
 2294TIP3   OH2 6842   0.181   2.566   3.987
 2294TIP3    H1 6843   0.095   2.580   4.033
 2294TIP3    H2 6844   0.163   2.599   3.897
 2295TIP3   OH2 6845   0.549   2.606   3.803
 2295TIP3    H1 6846   0.555   2.610   3.707
 2295TIP3    H2 6847   0.636   2.637   3.830
 2296TIP3   OH2 6848   1.120   2.740   3.753
 2296TIP3    H1 6849   1.070   2.800   3.696
 2296TIP3    H2 6850   1.095   2.652   3.719
 2297TIP3   OH2 6851  -0.148   2.383   3.875
 2297TIP3    H1 6852  -0.128   2.352   3.965
 2297TIP3    H2 6853  -0.075   2.338   3.826
 2298TIP3   OH2 6854   0.049   2.257   3.737
 2298TIP3    H1 6855   0.064   2.173   3.786
 2298TIP3    H2 6856   0.140   2.294   3.735
 2299TIP3   OH2 6857   0.311   2.350   3.741
 2299TIP3    H1 6858   0.353   2.264   3.727
 2299TIP3    H2 6859   0.362   2.379   3.820
 2300TIP3   OH2 6860   0.895   1.020   3.840
 2300TIP3    H1 6861   0.844   0.950   3.886
 2300TIP3    H2 6862   0.923   0.974   3.760
 2301TIP3   OH2 6863   1.413   0.888   3.727
 2301TIP3    H1 6864   1.447   0.943   3.654
 2301TIP3    H2 6865   1.316   0.902   3.718
 2302TIP3   OH2 6866   1.511   0.993   3.488
 2302TIP3    H1 6867   1.580   0.935   3.448
 2302TIP3    H2 6868   1.556   1.080   3.480
 2303TIP3   OH2 6869   0.578   0.798   3.727
 2303TIP3    H1 6870   0.638   0.816   3.653
 2303TIP3    H2 6871   0.640   0.791   3.801
 2304TIP3   OH2 6872   1.140   0.893   3.695
 2304TIP3    H1 6873   1.106   0.865   3.610
 2304TIP3    H2 6874   1.111   0.819   3.754
 2305TIP3   OH2 6875   1.157   0.819   3.265
 2305TIP3    H1 6876   1.072   0.866   3.275
 2305TIP3    H2 6877   1.132   0.734   3.308
 2306TIP3   OH2 6878  -0.393   2.141   3.265
 2306TIP3    H1 6879  -0.442   2.116   3.186
 2306TIP3    H2 6880  -0.387   2.237   3.256
 2307TIP3   OH2 6881   0.405   2.346   2.843
 2307TIP3    H1 6882   0.495   2.366   2.808
 2307TIP3    H2 6883   0.381   2.273   2.782
 2308TIP3   OH2 6884   1.133   2.467   2.945
 2308TIP3    H1 6885   1.132   2.369   2.935
 2308TIP3    H2 6886   1.089   2.495   2.862
 2309TIP3   OH2 6887   0.653   1.037   4.895
 2309TIP3    H1 6888   0.713   0.999   4.827
 2309TIP3    H2 6889   0.669   0.978   4.971
 2310TIP3   OH2 6890   1.422   1.057   4.635
 2310TIP3    H1 6891   1.440   1.026   4.727
 2310TIP3    H2 6892   1.511   1.051   4.594
 2311TIP3   OH2 6893   1.357   2.619   4.161
 2311TIP3    H1 6894   1.347   2.564   4.081
 2311TIP3    H2 6895   1.320   2.706   4.133
 2312TIP3   OH2 6896   2.623   1.978   2.891
 2312TIP3    H1 6897   2.595   2.071   2.873
 2312TIP3    H2 6898   2.546   1.930   2.856
 2313TIP3   OH2 6899   2.621   1.979   3.278
 2313TIP3    H1 6900   2.658   1.961   3.367
 2313TIP3    H2 6901   2.583   1.894   3.254
 2314TIP3   OH2 6902   1.917   1.877   3.649
 2314TIP3    H1 6903   1.951   1.804   3.704
 2314TIP3    H2 6904   2.000   1.921   3.625
 2315TIP3   OH2 6905   2.869   2.284   2.960
 2315TIP3    H1 6906   2.854   2.221   3.031
 2315TIP3    H2 6907   2.898   2.364   3.008
 2316TIP3   OH2 6908   1.902   2.292   3.356
 2316TIP3    H1 6909   1.893   2.220   3.419
 2316TIP3    H2 6910   1.998   2.297   3.342
 2317TIP3   OH2 6911   1.603   1.530   3.164
 2317TIP3    H1 6912   1.525   1.587   3.157
 2317TIP3    H2 6913   1.568   1.445   3.134
 2318TIP3   OH2 6914   2.517   2.744   2.974
 2318TIP3    H1 6915   2.560   2.671   2.925
 2318TIP3    H2 6916   2.516   2.709   3.064
 2319TIP3   OH2 6917   2.423   2.203   3.322
 2319TIP3    H1 6918   2.471   2.128   3.283
 2319TIP3    H2 6919   2.502   2.255   3.350
 2320TIP3   OH2 6920   3.438   1.525   3.323
 2320TIP3    H1 6921   3.466   1.609   3.366
 2320TIP3    H2 6922   3.458   1.543   3.230
 2321TIP3   OH2 6923   2.834   1.705   3.353
 2321TIP3    H1 6924   2.876   1.620   3.375
 2321TIP3    H2 6925   2.802   1.687   3.262
 2322TIP3   OH2 6926   2.870   1.458   2.940
 2322TIP3    H1 6927   2.940   1.444   3.007
 2322TIP3    H2 6928   2.924   1.494   2.867
 2323TIP3   OH2 6929   1.806   1.605   3.428
 2323TIP3    H1 6930   1.881   1.571   3.481
 2323TIP3    H2 6931   1.801   1.534   3.361
 2324TIP3   OH2 6932   2.231   1.760   3.219
 2324TIP3    H1 6933   2.327   1.753   3.239
 2324TIP3    H2 6934   2.216   1.673   3.178
 2325TIP3   OH2 6935   3.508   1.733   3.496
 2325TIP3    H1 6936   3.426   1.782   3.476
 2325TIP3    H2 6937   3.536   1.778   3.578
 2326TIP3   OH2 6938   2.173   1.351   3.758
 2326TIP3    H1 6939   2.109   1.385   3.691
 2326TIP3    H2 6940   2.119   1.366   3.838
 2327TIP3   OH2 6941   2.508   2.198   2.761
 2327TIP3    H1 6942   2.472   2.193   2.672
 2327TIP3    H2 6943   2.467   2.282   2.792
 2328TIP3   OH2 6944   2.274   2.125   3.545
 2328TIP3    H1 6945   2.216   2.195   3.584
 2328TIP3    H2 6946   2.320   2.175   3.475
 2329TIP3   OH2 6947   3.074   1.463   3.120
 2329TIP3    H1 6948   3.053   1.426   3.207
 2329TIP3    H2 6949   3.126   1.542   3.144
 2330TIP3   OH2 6950   2.028   1.474   3.563
 2330TIP3    H1 6951   2.109   1.523   3.540
 2330TIP3    H2 6952   2.011   1.420   3.482
 2331TIP3   OH2 6953   2.103   2.322   3.642
 2331TIP3    H1 6954   2.082   2.412   3.611
 2331TIP3    H2 6955   2.025   2.307   3.700
 2332TIP3   OH2 6956   1.512   2.016   2.893
 2332TIP3    H1 6957   1.471   2.040   2.808
 2332TIP3    H2 6958   1.538   2.105   2.927
 2333TIP3   OH2 6959   2.932   2.523   3.115
 2333TIP3    H1 6960   2.844   2.519   3.159
 2333TIP3    H2 6961   2.929   2.612   3.075
 2334TIP3   OH2 6962   3.231   1.418   3.486
 2334TIP3    H1 6963   3.145   1.451   3.456
 2334TIP3    H2 6964   3.292   1.455   3.419
 2335TIP3   OH2 6965   2.535   1.074   3.479
 2335TIP3    H1 6966   2.510   0.980   3.482
 2335TIP3    H2 6967   2.455   1.114   3.521
 2336TIP3   OH2 6968   2.633   2.569   2.791
 2336TIP3    H1 6969   2.685   2.487   2.773
 2336TIP3    H2 6970   2.696   2.635   2.755
 2337TIP3   OH2 6971   2.781   2.354   2.708
 2337TIP3    H1 6972   2.746   2.273   2.669
 2337TIP3    H2 6973   2.819   2.321   2.792
 2338TIP3   OH2 6974   3.162   2.435   3.470
 2338TIP3    H1 6975   3.150   2.360   3.408
 2338TIP3    H2 6976   3.142   2.511   3.411
 2339TIP3   OH2 6977   2.454   1.831   2.726
 2339TIP3    H1 6978   2.374   1.885   2.706
 2339TIP3    H2 6979   2.501   1.834   2.641
 2340TIP3   OH2 6980   2.417   1.616   2.437
 2340TIP3    H1 6981   2.475   1.672   2.491
 2340TIP3    H2 6982   2.483   1.562   2.390
 2341TIP3   OH2 6983   3.357   2.074   3.313
 2341TIP3    H1 6984   3.274   2.126   3.317
 2341TIP3    H2 6985   3.389   2.101   3.224
 2342TIP3   OH2 6986   2.802   1.913   2.695
 2342TIP3    H1 6987   2.748   1.938   2.774
 2342TIP3    H2 6988   2.888   1.892   2.738
 2343TIP3   OH2 6989   3.036   1.952   3.613
 2343TIP3    H1 6990   3.035   2.035   3.664
 2343TIP3    H2 6991   2.950   1.959   3.566
 2344TIP3   OH2 6992   2.165   2.313   3.264
 2344TIP3    H1 6993   2.155   2.298   3.169
 2344TIP3    H2 6994   2.256   2.279   3.282
 2345TIP3   OH2 6995   2.159   1.891   3.463
 2345TIP3    H1 6996   2.196   1.867   3.376
 2345TIP3    H2 6997   2.202   1.977   3.482
 2346TIP3   OH2 6998   2.695   2.523   3.244
 2346TIP3    H1 6999   2.685   2.608   3.292
 2346TIP3    H2 7000   2.677   2.456   3.314
 2347TIP3   OH2 7001   2.309   2.439   3.793
 2347TIP3    H1 7002   2.247   2.500   3.839
 2347TIP3    H2 7003   2.246   2.386   3.741
 2348TIP3   OH2 7004   2.641   1.773   2.523
 2348TIP3    H1 7005   2.700   1.834   2.572
 2348TIP3    H2 7006   2.668   1.793   2.430
 2349TIP3   OH2 7007   2.067   1.993   3.899
 2349TIP3    H1 7008   2.068   2.083   3.937
 2349TIP3    H2 7009   1.972   1.972   3.908
 2350TIP3   OH2 7010   2.386   2.449   2.801
 2350TIP3    H1 7011   2.470   2.500   2.807
 2350TIP3    H2 7012   2.328   2.512   2.757
 2351TIP3   OH2 7013   2.106   2.606   3.878
 2351TIP3    H1 7014   2.068   2.611   3.789
 2351TIP3    H2 7015   2.029   2.580   3.933
 2352TIP3   OH2 7016   3.157   1.012   2.572
 2352TIP3    H1 7017   3.076   1.037   2.621
 2352TIP3    H2 7018   3.175   1.094   2.522
 2353TIP3   OH2 7019   1.887   1.750   2.997
 2353TIP3    H1 7020   1.847   1.817   2.938
 2353TIP3    H2 7021   1.861   1.668   2.953
 2354TIP3   OH2 7022   2.958   2.379   2.120
 2354TIP3    H1 7023   2.966   2.476   2.105
 2354TIP3    H2 7024   3.051   2.350   2.108
 2355TIP3   OH2 7025   1.687   2.136   3.824
 2355TIP3    H1 7026   1.610   2.121   3.764
 2355TIP3    H2 7027   1.720   2.046   3.841
 2356TIP3   OH2 7028   1.537   2.338   3.454
 2356TIP3    H1 7029   1.630   2.361   3.465
 2356TIP3    H2 7030   1.494   2.405   3.509
 2357TIP3   OH2 7031   3.398   2.792   3.522
 2357TIP3    H1 7032   3.390   2.697   3.537
 2357TIP3    H2 7033   3.316   2.825   3.565
 2358TIP3   OH2 7034   2.502   2.572   3.647
 2358TIP3    H1 7035   2.504   2.664   3.680
 2358TIP3    H2 7036   2.434   2.532   3.704
 2359TIP3   OH2 7037   2.270   2.695   2.602
 2359TIP3    H1 7038   2.223   2.680   2.518
 2359TIP3    H2 7039   2.237   2.782   2.630
 2360TIP3   OH2 7040   1.704   2.548   2.986
 2360TIP3    H1 7041   1.754   2.539   3.070
 2360TIP3    H2 7042   1.641   2.475   2.995
 2361TIP3   OH2 7043   2.468   2.600   2.239
 2361TIP3    H1 7044   2.527   2.530   2.203
 2361TIP3    H2 7045   2.503   2.611   2.330
 2362TIP3   OH2 7046   2.521   2.647   2.508
 2362TIP3    H1 7047   2.432   2.657   2.550
 2362TIP3    H2 7048   2.573   2.616   2.583
 2363TIP3   OH2 7049   3.289   1.911   3.793
 2363TIP3    H1 7050   3.207   1.925   3.744
 2363TIP3    H2 7051   3.303   1.815   3.782
 2364TIP3   OH2 7052   1.886   2.322   3.808
 2364TIP3    H1 7053   1.933   2.310   3.893
 2364TIP3    H2 7054   1.812   2.258   3.818
 2365TIP3   OH2 7055   2.297   1.156   3.597
 2365TIP3    H1 7056   2.210   1.117   3.572
 2365TIP3    H2 7057   2.262   1.231   3.650
 2366TIP3   OH2 7058   2.820   1.257   3.794
 2366TIP3    H1 7059   2.887   1.233   3.861
 2366TIP3    H2 7060   2.735   1.242   3.840
 2367TIP3   OH2 7061   3.055   1.689   3.710
 2367TIP3    H1 7062   3.004   1.687   3.794
 2367TIP3    H2 7063   3.034   1.777   3.674
 2368TIP3   OH2 7064   2.717   1.812   2.267
 2368TIP3    H1 7065   2.684   1.793   2.177
 2368TIP3    H2 7066   2.800   1.859   2.245
 2369TIP3   OH2 7067   2.405   1.202   2.555
 2369TIP3    H1 7068   2.378   1.209   2.649
 2369TIP3    H2 7069   2.446   1.115   2.555
 2370TIP3   OH2 7070   2.228   1.675   3.612
 2370TIP3    H1 7071   2.166   1.679   3.688
 2370TIP3    H2 7072   2.200   1.755   3.562
 2371TIP3   OH2 7073   2.076   1.557   3.122
 2371TIP3    H1 7074   2.045   1.480   3.177
 2371TIP3    H2 7075   2.093   1.508   3.037
 2372TIP3   OH2 7076   2.593   1.632   2.859
 2372TIP3    H1 7077   2.542   1.704   2.816
 2372TIP3    H2 7078   2.649   1.601   2.785
 2373TIP3   OH2 7079   2.767   1.906   3.941
 2373TIP3    H1 7080   2.745   1.835   4.006
 2373TIP3    H2 7081   2.859   1.925   3.965
 2374TIP3   OH2 7082   2.746   1.658   3.098
 2374TIP3    H1 7083   2.686   1.690   3.027
 2374TIP3    H2 7084   2.781   1.579   3.052
 2375TIP3   OH2 7085   2.042   1.690   3.819
 2375TIP3    H1 7086   2.061   1.753   3.889
 2375TIP3    H2 7087   2.028   1.607   3.868
 2376TIP3   OH2 7088   2.052   1.127   2.544
 2376TIP3    H1 7089   2.062   1.133   2.642
 2376TIP3    H2 7090   1.991   1.203   2.530
 2377TIP3   OH2 7091   1.670   1.206   3.402
 2377TIP3    H1 7092   1.753   1.258   3.397
 2377TIP3    H2 7093   1.672   1.168   3.313
 2378TIP3   OH2 7094   1.595   1.191   2.913
 2378TIP3    H1 7095   1.638   1.231   2.835
 2378TIP3    H2 7096   1.543   1.267   2.945
 2379TIP3   OH2 7097   2.754   1.904   3.516
 2379TIP3    H1 7098   2.790   1.832   3.458
 2379TIP3    H2 7099   2.724   1.850   3.593
 2380TIP3   OH2 7100   2.434   1.364   3.182
 2380TIP3    H1 7101   2.347   1.366   3.226
 2380TIP3    H2 7102   2.495   1.368   3.257
 2381TIP3   OH2 7103   2.134   1.436   2.895
 2381TIP3    H1 7104   2.226   1.441   2.865
 2381TIP3    H2 7105   2.082   1.442   2.811
 2382TIP3   OH2 7106   2.920   1.442   3.391
 2382TIP3    H1 7107   2.892   1.457   3.484
 2382TIP3    H2 7108   2.848   1.384   3.361
 2383TIP3   OH2 7109   1.978   1.453   2.679
 2383TIP3    H1 7110   1.883   1.430   2.670
 2383TIP3    H2 7111   2.002   1.477   2.588
 2384TIP3   OH2 7112   2.047   2.243   4.035
 2384TIP3    H1 7113   2.126   2.273   4.084
 2384TIP3    H2 7114   1.980   2.247   4.106
 2385TIP3   OH2 7115   2.504   1.698   3.286
 2385TIP3    H1 7116   2.582   1.664   3.240
 2385TIP3    H2 7117   2.512   1.659   3.375
 2386TIP3   OH2 7118   2.489   1.599   3.577
 2386TIP3    H1 7119   2.399   1.637   3.592
 2386TIP3    H2 7120   2.546   1.660   3.628
 2387TIP3   OH2 7121   2.226   1.980   2.670
 2387TIP3    H1 7122   2.153   1.915   2.658
 2387TIP3    H2 7123   2.202   2.017   2.759
 2388TIP3   OH2 7124   3.124   2.219   3.300
 2388TIP3    H1 7125   3.148   2.273   3.222
 2388TIP3    H2 7126   3.039   2.179   3.273
 2389TIP3   OH2 7127   2.676   1.294   2.545
 2389TIP3    H1 7128   2.579   1.297   2.542
 2389TIP3    H2 7129   2.700   1.387   2.563
 2390TIP3   OH2 7130   2.612   2.297   3.676
 2390TIP3    H1 7131   2.658   2.290   3.761
 2390TIP3    H2 7132   2.587   2.391   3.674
 2391TIP3   OH2 7133   2.753   1.543   2.638
 2391TIP3    H1 7134   2.848   1.553   2.657
 2391TIP3    H2 7135   2.732   1.626   2.589
 2392TIP3   OH2 7136   2.371   2.134   2.498
 2392TIP3    H1 7137   2.322   2.220   2.499
 2392TIP3    H2 7138   2.316   2.080   2.558
 2393TIP3   OH2 7139   1.802   1.919   3.963
 2393TIP3    H1 7140   1.811   1.919   4.060
 2393TIP3    H2 7141   1.724   1.863   3.950
 2394TIP3   OH2 7142   2.525   2.042   3.984
 2394TIP3    H1 7143   2.462   1.982   3.941
 2394TIP3    H2 7144   2.611   2.006   3.951
 2395TIP3   OH2 7145   2.779   2.544   3.581
 2395TIP3    H1 7146   2.683   2.562   3.584
 2395TIP3    H2 7147   2.811   2.605   3.652
 2396TIP3   OH2 7148   3.191   1.639   2.477
 2396TIP3    H1 7149   3.129   1.595   2.413
 2396TIP3    H2 7150   3.189   1.728   2.437
 2397TIP3   OH2 7151   3.413   2.491   3.558
 2397TIP3    H1 7152   3.315   2.488   3.548
 2397TIP3    H2 7153   3.439   2.464   3.467
 2398TIP3   OH2 7154   2.896   2.455   2.385
 2398TIP3    H1 7155   2.866   2.387   2.446
 2398TIP3    H2 7156   2.908   2.408   2.301
 2399TIP3   OH2 7157   2.890   2.084   3.218
 2399TIP3    H1 7158   2.796   2.062   3.232
 2399TIP3    H2 7159   2.921   2.003   3.173
 2400TIP3   OH2 7160   2.022   2.311   2.975
 2400TIP3    H1 7161   2.022   2.393   2.921
 2400TIP3    H2 7162   1.927   2.300   2.989
 2401TIP3   OH2 7163   1.539   1.667   2.674
 2401TIP3    H1 7164   1.626   1.709   2.679
 2401TIP3    H2 7165   1.566   1.573   2.661
 2402TIP3   OH2 7166   2.149   2.074   2.911
 2402TIP3    H1 7167   2.115   2.165   2.926
 2402TIP3    H2 7168   2.156   2.040   3.000
 2403TIP3   OH2 7169   2.290   2.655   3.440
 2403TIP3    H1 7170   2.333   2.727   3.389
 2403TIP3    H2 7171   2.367   2.619   3.488
 2404TIP3   OH2 7172   1.939   2.549   2.829
 2404TIP3    H1 7173   1.852   2.559   2.873
 2404TIP3    H2 7174   1.971   2.642   2.831
 2405TIP3   OH2 7175   2.670   2.286   3.407
 2405TIP3    H1 7176   2.659   2.284   3.505
 2405TIP3    H2 7177   2.757   2.246   3.397
 2406TIP3   OH2 7178   2.653   2.182   2.286
 2406TIP3    H1 7179   2.704   2.156   2.366
 2406TIP3    H2 7180   2.563   2.158   2.313
 2407TIP3   OH2 7181   2.938   2.807   3.445
 2407TIP3    H1 7182   2.847   2.774   3.454
 2407TIP3    H2 7183   2.919   2.898   3.415
 2408TIP3   OH2 7184   2.989   2.655   2.104
 2408TIP3    H1 7185   3.025   2.729   2.053
 2408TIP3    H2 7186   2.909   2.698   2.140
 2409TIP3   OH2 7187   2.007   1.433   3.971
 2409TIP3    H1 7188   1.910   1.433   3.977
 2409TIP3    H2 7189   2.031   1.370   4.040
 2410TIP3   OH2 7190   2.813   2.113   2.502
 2410TIP3    H1 7191   2.804   2.048   2.574
 2410TIP3    H2 7192   2.910   2.111   2.489
 2411TIP3   OH2 7193   1.733   2.512   3.598
 2411TIP3    H1 7194   1.782   2.448   3.652
 2411TIP3    H2 7195   1.740   2.592   3.652
 2412TIP3   OH2 7196   2.018   2.162   2.286
 2412TIP3    H1 7197   2.026   2.069   2.259
 2412TIP3    H2 7198   1.995   2.153   2.381
 2413TIP3   OH2 7199   1.960   2.167   2.558
 2413TIP3    H1 7200   2.035   2.145   2.614
 2413TIP3    H2 7201   1.959   2.266   2.563
 2414TIP3   OH2 7202   1.733   1.887   2.782
 2414TIP3    H1 7203   1.659   1.926   2.832
 2414TIP3    H2 7204   1.734   1.946   2.704
 2415TIP3   OH2 7205   2.853   1.492   3.650
 2415TIP3    H1 7206   2.928   1.537   3.693
 2415TIP3    H2 7207   2.838   1.415   3.708
 2416TIP3   OH2 7208   2.732   1.243   2.823
 2416TIP3    H1 7209   2.718   1.268   2.730
 2416TIP3    H2 7210   2.770   1.326   2.860
 2417TIP3   OH2 7211   2.227   2.362   2.506
 2417TIP3    H1 7212   2.140   2.387   2.542
 2417TIP3    H2 7213   2.243   2.438   2.447
 2418TIP3   OH2 7214   2.420   1.426   2.915
 2418TIP3    H1 7215   2.481   1.501   2.900
 2418TIP3    H2 7216   2.424   1.417   3.013
 2419TIP3   OH2 7217   2.687   1.744   3.726
 2419TIP3    H1 7218   2.708   1.800   3.804
 2419TIP3    H2 7219   2.739   1.664   3.744
 2420TIP3   OH2 7220   2.558   1.150   3.024
 2420TIP3    H1 7221   2.546   1.230   3.079
 2420TIP3    H2 7222   2.621   1.184   2.956
 2421TIP3   OH2 7223   1.973   2.439   2.576
 2421TIP3    H1 7224   1.943   2.508   2.514
 2421TIP3    H2 7225   1.957   2.482   2.663
 2422TIP3   OH2 7226   2.076   1.153   2.808
 2422TIP3    H1 7227   2.054   1.232   2.859
 2422TIP3    H2 7228   2.172   1.145   2.828
 2423TIP3   OH2 7229   3.322   1.644   3.716
 2423TIP3    H1 7230   3.224   1.641   3.717
 2423TIP3    H2 7231   3.340   1.618   3.625
 2424TIP3   OH2 7232   2.975   1.839   3.097
 2424TIP3    H1 7233   2.899   1.780   3.112
 2424TIP3    H2 7234   3.047   1.793   3.146
 2425TIP3   OH2 7235   1.683   2.066   2.567
 2425TIP3    H1 7236   1.747   2.139   2.571
 2425TIP3    H2 7237   1.724   2.013   2.496
 2426TIP3   OH2 7238   2.948   2.788   3.037
 2426TIP3    H1 7239   2.904   2.839   2.965
 2426TIP3    H2 7240   3.042   2.812   3.019
 2427TIP3   OH2 7241   2.051   1.055   3.581
 2427TIP3    H1 7242   2.001   1.047   3.496
 2427TIP3    H2 7243   2.004   0.990   3.636
 2428TIP3   OH2 7244   1.555   2.279   2.952
 2428TIP3    H1 7245   1.494   2.310   3.021
 2428TIP3    H2 7246   1.519   2.325   2.872
 2429TIP3   OH2 7247   1.717   2.830   4.025
 2429TIP3    H1 7248   1.804   2.829   4.071
 2429TIP3    H2 7249   1.694   2.734   4.026
 2430TIP3   OH2 7250   2.195   2.785   4.073
 2430TIP3    H1 7251   2.291   2.770   4.075
 2430TIP3    H2 7252   2.169   2.725   4.000
 2431TIP3   OH2 7253   2.179   2.365   2.195
 2431TIP3    H1 7254   2.125   2.293   2.233
 2431TIP3    H2 7255   2.254   2.315   2.158
 2432TIP3   OH2 7256   2.829   2.698   3.805
 2432TIP3    H1 7257   2.829   2.631   3.876
 2432TIP3    H2 7258   2.904   2.755   3.829
 2433TIP3   OH2 7259   2.614   2.403   2.109
 2433TIP3    H1 7260   2.659   2.341   2.169
 2433TIP3    H2 7261   2.669   2.400   2.029
 2434TIP3   OH2 7262   1.839   2.227   4.225
 2434TIP3    H1 7263   1.859   2.131   4.220
 2434TIP3    H2 7264   1.754   2.230   4.175
 2435TIP3   OH2 7265   1.823   1.882   2.422
 2435TIP3    H1 7266   1.883   1.855   2.494
 2435TIP3    H2 7267   1.887   1.887   2.348
 2436TIP3   OH2 7268   2.452   2.319   4.000
 2436TIP3    H1 7269   2.414   2.342   3.913
 2436TIP3    H2 7270   2.483   2.227   3.987
 2437TIP3   OH2 7271   2.343   2.080   2.228
 2437TIP3    H1 7272   2.342   2.093   2.325
 2437TIP3    H2 7273   2.336   1.983   2.222
 2438TIP3   OH2 7274   2.946   2.327   3.605
 2438TIP3    H1 7275   3.023   2.369   3.563
 2438TIP3    H2 7276   2.880   2.399   3.594
 2439TIP3   OH2 7277   1.966   1.970   4.210
 2439TIP3    H1 7278   2.045   1.924   4.178
 2439TIP3    H2 7279   1.996   2.004   4.297
 2440TIP3   OH2 7280   2.039   1.779   2.639
 2440TIP3    H1 7281   2.003   1.730   2.714
 2440TIP3    H2 7282   2.074   1.705   2.584
 2441TIP3   OH2 7283   2.307   1.856   3.875
 2441TIP3    H1 7284   2.225   1.909   3.871
 2441TIP3    H2 7285   2.354   1.885   3.793
 2442TIP3   OH2 7286   2.136   1.578   2.474
 2442TIP3    H1 7287   2.109   1.592   2.381
 2442TIP3    H2 7288   2.233   1.587   2.468
 2443TIP3   OH2 7289   2.816   2.251   4.003
 2443TIP3    H1 7290   2.896   2.227   3.955
 2443TIP3    H2 7291   2.814   2.186   4.075
 2444TIP3   OH2 7292   2.951   1.907   2.150
 2444TIP3    H1 7293   2.934   1.866   2.063
 2444TIP3    H2 7294   2.919   1.999   2.130
 2445TIP3   OH2 7295   2.428   1.641   3.992
 2445TIP3    H1 7296   2.425   1.563   3.933
 2445TIP3    H2 7297   2.383   1.710   3.938
 2446TIP3   OH2 7298   2.431   1.426   3.804
 2446TIP3    H1 7299   2.455   1.470   3.720
 2446TIP3    H2 7300   2.336   1.403   3.787
 2447TIP3   OH2 7301   2.452   1.956   3.672
 2447TIP3    H1 7302   2.538   1.979   3.637
 2447TIP3    H2 7303   2.394   2.023   3.629
 2448TIP3   OH2 7304   3.034   1.928   4.054
 2448TIP3    H1 7305   3.089   1.848   4.062
 2448TIP3    H2 7306   3.098   1.992   4.020
 2449TIP3   OH2 7307   3.075   2.180   3.790
 2449TIP3    H1 7308   3.016   2.235   3.732
 2449TIP3    H2 7309   3.162   2.204   3.752
 2450TIP3   OH2 7310   2.306   1.744   4.230
 2450TIP3    H1 7311   2.236   1.677   4.243
 2450TIP3    H2 7312   2.335   1.725   4.139
 2451TIP3   OH2 7313   2.557   1.186   3.873
 2451TIP3    H1 7314   2.509   1.269   3.848
 2451TIP3    H2 7315   2.487   1.119   3.858
 2452TIP3   OH2 7316   2.687   1.689   4.087
 2452TIP3    H1 7317   2.668   1.677   4.182
 2452TIP3    H2 7318   2.598   1.668   4.051
 2453TIP3   OH2 7319   2.922   1.638   3.939
 2453TIP3    H1 7320   2.848   1.644   4.003
 2453TIP3    H2 7321   2.997   1.613   3.997
 2454TIP3   OH2 7322   3.151   1.584   4.091
 2454TIP3    H1 7323   3.164   1.489   4.108
 2454TIP3    H2 7324   3.147   1.622   4.182
 2455TIP3   OH2 7325   2.135   1.531   4.282
 2455TIP3    H1 7326   2.137   1.440   4.247
 2455TIP3    H2 7327   2.173   1.517   4.371
 2456TIP3   OH2 7328   2.652   1.197   4.130
 2456TIP3    H1 7329   2.717   1.125   4.121
 2456TIP3    H2 7330   2.609   1.195   4.042
 2457TIP3   OH2 7331   2.719   1.412   4.290
 2457TIP3    H1 7332   2.697   1.343   4.224
 2457TIP3    H2 7333   2.641   1.472   4.283
 2458TIP3   OH2 7334   1.942   2.640   2.388
 2458TIP3    H1 7335   2.037   2.634   2.368
 2458TIP3    H2 7336   1.912   2.692   2.311
 2459TIP3   OH2 7337   1.428   1.974   2.627
 2459TIP3    H1 7338   1.514   2.015   2.603
 2459TIP3    H2 7339   1.412   1.919   2.547
 2460TIP3   OH2 7340   1.338   2.638   3.021
 2460TIP3    H1 7341   1.272   2.578   2.979
 2460TIP3    H2 7342   1.382   2.577   3.083
 2461TIP3   OH2 7343   1.475   2.481   3.202
 2461TIP3    H1 7344   1.458   2.414   3.270
 2461TIP3    H2 7345   1.526   2.545   3.254
 2462TIP3   OH2 7346   3.204   2.879   3.005
 2462TIP3    H1 7347   3.218   2.910   3.097
 2462TIP3    H2 7348   3.257   2.943   2.955
 2463TIP3   OH2 7349   3.229   2.901   3.280
 2463TIP3    H1 7350   3.187   2.813   3.282
 2463TIP3    H2 7351   3.297   2.889   3.349
 2464TIP3   OH2 7352   3.276   2.581   3.860
 2464TIP3    H1 7353   3.202   2.591   3.924
 2464TIP3    H2 7354   3.316   2.671   3.863
 2465TIP3   OH2 7355   3.091   2.095   2.478
 2465TIP3    H1 7356   3.155   2.162   2.447
 2465TIP3    H2 7357   3.137   2.059   2.557
 2466TIP3   OH2 7358   3.220   1.962   2.682
 2466TIP3    H1 7359   3.152   1.924   2.742
 2466TIP3    H2 7360   3.284   2.000   2.745
 2467TIP3   OH2 7361   3.276   2.359   3.116
 2467TIP3    H1 7362   3.326   2.293   3.064
 2467TIP3    H2 7363   3.271   2.434   3.054
 2468TIP3   OH2 7364   3.107   2.648   3.304
 2468TIP3    H1 7365   3.039   2.700   3.353
 2468TIP3    H2 7366   3.054   2.608   3.232
 2469TIP3   OH2 7367   3.156   1.872   2.328
 2469TIP3    H1 7368   3.085   1.874   2.260
 2469TIP3    H2 7369   3.128   1.948   2.383
 2470TIP3   OH2 7370   3.025   1.546   2.283
 2470TIP3    H1 7371   2.985   1.584   2.205
 2470TIP3    H2 7372   3.001   1.451   2.273
 2471TIP3   OH2 7373   3.030   1.824   2.828
 2471TIP3    H1 7374   3.039   1.728   2.822
 2471TIP3    H2 7375   3.015   1.837   2.925
 2472TIP3   OH2 7376   1.661   1.880   3.567
 2472TIP3    H1 7377   1.678   1.815   3.497
 2472TIP3    H2 7378   1.754   1.894   3.598
 2473TIP3   OH2 7379   3.321   2.247   3.687
 2473TIP3    H1 7380   3.393   2.182   3.674
 2473TIP3    H2 7381   3.344   2.317   3.624
 2474TIP3   OH2 7382   3.503   2.046   3.693
 2474TIP3    H1 7383   3.430   1.998   3.737
 2474TIP3    H2 7384   3.577   1.984   3.710
 2475TIP3   OH2 7385   2.968   1.280   2.271
 2475TIP3    H1 7386   3.046   1.250   2.322
 2475TIP3    H2 7387   2.900   1.213   2.289
 2476TIP3   OH2 7388   3.028   1.538   2.721
 2476TIP3    H1 7389   3.070   1.450   2.735
 2476TIP3    H2 7390   3.085   1.573   2.650
 2477TIP3   OH2 7391   3.188   1.707   3.219
 2477TIP3    H1 7392   3.273   1.732   3.177
 2477TIP3    H2 7393   3.202   1.747   3.307
 2478TIP3   OH2 7394   3.259   1.855   3.448
 2478TIP3    H1 7395   3.182   1.891   3.497
 2478TIP3    H2 7396   3.292   1.936   3.403
 2479TIP3   OH2 7397   1.865   1.587   4.252
 2479TIP3    H1 7398   1.963   1.583   4.249
 2479TIP3    H2 7399   1.846   1.500   4.290
 2480TIP3   OH2 7400   3.706   1.443   4.007
 2480TIP3    H1 7401   3.770   1.383   3.963
 2480TIP3    H2 7402   3.676   1.498   3.932
 2481TIP3   OH2 7403   3.138   1.289   2.760
 2481TIP3    H1 7404   3.186   1.274   2.844
 2481TIP3    H2 7405   3.077   1.213   2.759
 2482TIP3   OH2 7406   1.640   1.543   3.649
 2482TIP3    H1 7407   1.686   1.551   3.563
 2482TIP3    H2 7408   1.676   1.618   3.696
 2483TIP3   OH2 7409   3.578   1.583   3.813
 2483TIP3    H1 7410   3.494   1.629   3.833
 2483TIP3    H2 7411   3.543   1.513   3.754
 2484TIP3   OH2 7412   3.213   1.219   2.394
 2484TIP3    H1 7413   3.253   1.150   2.337
 2484TIP3    H2 7414   3.280   1.291   2.391
 2485TIP3   OH2 7415   1.617   1.042   3.150
 2485TIP3    H1 7416   1.524   1.041   3.176
 2485TIP3    H2 7417   1.617   1.106   3.075
 2486TIP3   OH2 7418   2.779   2.753   2.658
 2486TIP3    H1 7419   2.836   2.749   2.579
 2486TIP3    H2 7420   2.825   2.819   2.713
 2487TIP3   OH2 7421   1.849   1.141   3.976
 2487TIP3    H1 7422   1.792   1.127   4.052
 2487TIP3    H2 7423   1.784   1.167   3.908
 2488TIP3   OH2 7424   1.903   2.550   4.049
 2488TIP3    H1 7425   1.806   2.542   4.037
 2488TIP3    H2 7426   1.909   2.551   4.145
 2489TIP3   OH2 7427   2.066   2.592   3.591
 2489TIP3    H1 7428   2.014   2.665   3.553
 2489TIP3    H2 7429   2.151   2.610   3.546
 2490TIP3   OH2 7430   2.526   2.848   3.723
 2490TIP3    H1 7431   2.551   2.841   3.818
 2490TIP3    H2 7432   2.610   2.880   3.687
 2491TIP3   OH2 7433   3.478   1.351   3.691
 2491TIP3    H1 7434   3.389   1.347   3.650
 2491TIP3    H2 7435   3.509   1.258   3.680
 2492TIP3   OH2 7436   1.735   2.847   3.621
 2492TIP3    H1 7437   1.644   2.877   3.598
 2492TIP3    H2 7438   1.752   2.899   3.701
 2493TIP3   OH2 7439   1.972   2.824   3.476
 2493TIP3    H1 7440   1.885   2.837   3.520
 2493TIP3    H2 7441   1.954   2.858   3.386
 2494TIP3   OH2 7442   2.396   2.853   3.273
 2494TIP3    H1 7443   2.328   2.875   3.207
 2494TIP3    H2 7444   2.411   2.940   3.315
 2495TIP3   OH2 7445   2.669   2.787   3.330
 2495TIP3    H1 7446   2.580   2.818   3.305
 2495TIP3    H2 7447   2.726   2.858   3.296
 2496TIP3   OH2 7448   2.849   2.978   3.233
 2496TIP3    H1 7449   2.857   3.070   3.199
 2496TIP3    H2 7450   2.895   2.926   3.164
 2497TIP3   OH2 7451   1.653   2.644   3.356
 2497TIP3    H1 7452   1.678   2.615   3.446
 2497TIP3    H2 7453   1.725   2.600   3.305
 2498TIP3   OH2 7454   1.845   2.516   3.215
 2498TIP3    H1 7455   1.860   2.433   3.265
 2498TIP3    H2 7456   1.936   2.554   3.215
 2499TIP3   OH2 7457   2.109   2.609   3.227
 2499TIP3    H1 7458   2.147   2.520   3.215
 2499TIP3    H2 7459   2.156   2.635   3.309
 2500TIP3   OH2 7460   2.687   1.265   3.314
 2500TIP3    H1 7461   2.643   1.196   3.367
 2500TIP3    H2 7462   2.759   1.216   3.270
 2501TIP3   OH2 7463   3.203   1.139   3.213
 2501TIP3    H1 7464   3.241   1.193   3.141
 2501TIP3    H2 7465   3.109   1.164   3.209
 2502TIP3   OH2 7466   3.300   1.241   2.978
 2502TIP3    H1 7467   3.374   1.190   2.940
 2502TIP3    H2 7468   3.334   1.332   2.964
 2503TIP3   OH2 7469   1.926   0.963   3.358
 2503TIP3    H1 7470   1.833   0.940   3.342
 2503TIP3    H2 7471   1.974   0.887   3.323
 2504TIP3   OH2 7472   1.705   0.842   2.966
 2504TIP3    H1 7473   1.749   0.897   2.897
 2504TIP3    H2 7474   1.687   0.909   3.035
 2505TIP3   OH2 7475   2.393   0.991   3.205
 2505TIP3    H1 7476   2.446   1.050   3.149
 2505TIP3    H2 7477   2.366   1.048   3.277
 2506TIP3   OH2 7478   2.918   1.151   3.187
 2506TIP3    H1 7479   2.919   1.114   3.098
 2506TIP3    H2 7480   2.904   1.071   3.242
 2507TIP3   OH2 7481   2.952   1.078   2.751
 2507TIP3    H1 7482   2.868   1.123   2.772
 2507TIP3    H2 7483   2.938   0.991   2.794
 2508TIP3   OH2 7484   1.438   2.418   2.754
 2508TIP3    H1 7485   1.350   2.391   2.723
 2508TIP3    H2 7486   1.437   2.511   2.721
 2509TIP3   OH2 7487   1.835   0.985   2.757
 2509TIP3    H1 7488   1.885   0.944   2.685
 2509TIP3    H2 7489   1.896   1.056   2.785
 2510TIP3   OH2 7490   2.358   1.178   2.827
 2510TIP3    H1 7491   2.410   1.131   2.895
 2510TIP3    H2 7492   2.377   1.270   2.856
 2511TIP3   OH2 7493   2.210   2.599   2.336
 2511TIP3    H1 7494   2.297   2.622   2.299
 2511TIP3    H2 7495   2.187   2.525   2.274
 2512TIP3   OH2 7496   2.931   2.723   2.428
 2512TIP3    H1 7497   2.922   2.625   2.419
 2512TIP3    H2 7498   2.882   2.753   2.349
 2513TIP3   OH2 7499   2.138   1.258   4.221
 2513TIP3    H1 7500   2.102   1.183   4.272
 2513TIP3    H2 7501   2.232   1.255   4.248
 2514TIP3   OH2 7502   2.391   1.249   4.338
 2514TIP3    H1 7503   2.475   1.228   4.294
 2514TIP3    H2 7504   2.381   1.174   4.400
 2515TIP3   OH2 7505   1.520   2.437   2.396
 2515TIP3    H1 7506   1.517   2.470   2.488
 2515TIP3    H2 7507   1.610   2.401   2.388
 2516TIP3   OH2 7508   3.218   1.313   4.121
 2516TIP3    H1 7509   3.237   1.284   4.213
 2516TIP3    H2 7510   3.307   1.310   4.081
 2517TIP3   OH2 7511   3.143   2.892   3.613
 2517TIP3    H1 7512   3.074   2.847   3.560
 2517TIP3    H2 7513   3.096   2.978   3.624
 2518TIP3   OH2 7514   4.421   2.236   2.377
 2518TIP3    H1 7515   4.392   2.328   2.358
 2518TIP3    H2 7516   4.341   2.188   2.348
 2519TIP3   OH2 7517   4.423   2.234   2.764
 2519TIP3    H1 7518   4.457   2.215   2.853
 2519TIP3    H2 7519   4.377   2.152   2.742
 2520TIP3   OH2 7520   3.719   2.129   3.127
 2520TIP3    H1 7521   3.748   2.060   3.189
 2520TIP3    H2 7522   3.794   2.190   3.129
 2521TIP3   OH2 7523   4.666   2.540   2.446
 2521TIP3    H1 7524   4.648   2.475   2.516
 2521TIP3    H2 7525   4.695   2.617   2.498
 2522TIP3   OH2 7526   3.692   2.541   2.846
 2522TIP3    H1 7527   3.683   2.444   2.849
 2522TIP3    H2 7528   3.788   2.551   2.844
 2523TIP3   OH2 7529   3.398   1.740   2.632
 2523TIP3    H1 7530   3.353   1.824   2.653
 2523TIP3    H2 7531   3.325   1.692   2.588
 2524TIP3   OH2 7532   3.454   2.031   2.811
 2524TIP3    H1 7533   3.505   1.954   2.845
 2524TIP3    H2 7534   3.517   2.073   2.752
 2525TIP3   OH2 7535   4.315   3.002   2.461
 2525TIP3    H1 7536   4.358   2.929   2.412
 2525TIP3    H2 7537   4.304   2.964   2.549
 2526TIP3   OH2 7538   4.217   2.463   2.810
 2526TIP3    H1 7539   4.259   2.388   2.765
 2526TIP3    H2 7540   4.299   2.511   2.837
 2527TIP3   OH2 7541   5.234   1.784   2.809
 2527TIP3    H1 7542   5.263   1.866   2.853
 2527TIP3    H2 7543   5.255   1.804   2.716
 2528TIP3   OH2 7544   4.632   1.964   2.840
 2528TIP3    H1 7545   4.673   1.878   2.862
 2528TIP3    H2 7546   4.599   1.945   2.750
 2529TIP3   OH2 7547   3.969   1.622   2.805
 2529TIP3    H1 7548   3.951   1.695   2.742
 2529TIP3    H2 7549   3.920   1.550   2.761
 2530TIP3   OH2 7550   4.666   1.712   2.427
 2530TIP3    H1 7551   4.736   1.699   2.495
 2530TIP3    H2 7552   4.720   1.753   2.356
 2531TIP3   OH2 7553   3.602   1.824   2.914
 2531TIP3    H1 7554   3.685   1.808   2.963
 2531TIP3    H2 7555   3.618   1.769   2.835
 2532TIP3   OH2 7556   4.042   2.021   2.707
 2532TIP3    H1 7557   4.137   1.997   2.721
 2532TIP3    H2 7558   4.005   1.936   2.675
 2533TIP3   OH2 7559   5.306   1.992   2.978
 2533TIP3    H1 7560   5.221   2.038   2.960
 2533TIP3    H2 7561   5.324   2.023   3.068
 2534TIP3   OH2 7562   3.965   1.606   3.241
 2534TIP3    H1 7563   3.906   1.644   3.174
 2534TIP3    H2 7564   3.913   1.624   3.322
 2535TIP3   OH2 7565   4.310   2.458   2.246
 2535TIP3    H1 7566   4.267   2.447   2.160
 2535TIP3    H2 7567   4.266   2.540   2.277
 2536TIP3   OH2 7568   4.072   2.383   3.033
 2536TIP3    H1 7569   4.012   2.452   3.071
 2536TIP3    H2 7570   4.114   2.432   2.959
 2537TIP3   OH2 7571   4.869   1.718   2.608
 2537TIP3    H1 7572   4.842   1.687   2.696
 2537TIP3    H2 7573   4.921   1.798   2.630
 2538TIP3   OH2 7574   3.837   1.721   3.025
 2538TIP3    H1 7575   3.898   1.795   3.050
 2538TIP3    H2 7576   3.887   1.682   2.950
 2539TIP3   OH2 7577   3.902   2.579   3.133
 2539TIP3    H1 7578   3.878   2.668   3.098
 2539TIP3    H2 7579   3.822   2.562   3.187
 2540TIP3   OH2 7580   3.291   2.267   2.369
 2540TIP3    H1 7581   3.250   2.296   2.285
 2540TIP3    H2 7582   3.323   2.352   2.406
 2541TIP3   OH2 7583   4.732   2.784   2.606
 2541TIP3    H1 7584   4.643   2.775   2.648
 2541TIP3    H2 7585   4.724   2.871   2.563
 2542TIP3   OH2 7586   5.026   1.678   2.970
 2542TIP3    H1 7587   4.940   1.712   2.942
 2542TIP3    H2 7588   5.087   1.715   2.903
 2543TIP3   OH2 7589   4.330   1.336   2.959
 2543TIP3    H1 7590   4.309   1.241   2.956
 2543TIP3    H2 7591   4.247   1.372   2.999
 2544TIP3   OH2 7592   4.433   2.826   2.281
 2544TIP3    H1 7593   4.484   2.744   2.263
 2544TIP3    H2 7594   4.495   2.892   2.242
 2545TIP3   OH2 7595   4.579   2.611   2.194
 2545TIP3    H1 7596   4.533   2.533   2.161
 2545TIP3    H2 7597   4.617   2.578   2.278
 2546TIP3   OH2 7598   4.958   2.693   2.955
 2546TIP3    H1 7599   4.945   2.617   2.895
 2546TIP3    H2 7600   4.939   2.769   2.896
 2547TIP3   OH2 7601   4.248   2.086   2.213
 2547TIP3    H1 7602   4.169   2.141   2.196
 2547TIP3    H2 7603   4.295   2.091   2.128
 2548TIP3   OH2 7604   4.212   1.869   1.928
 2548TIP3    H1 7605   4.273   1.927   1.977
 2548TIP3    H2 7606   4.277   1.816   1.877
 2549TIP3   OH2 7607   5.154   2.332   2.799
 2549TIP3    H1 7608   5.070   2.383   2.804
 2549TIP3    H2 7609   5.184   2.359   2.710
 2550TIP3   OH2 7610   4.599   2.170   2.182
 2550TIP3    H1 7611   4.544   2.194   2.259
 2550TIP3    H2 7612   4.684   2.149   2.226
 2551TIP3   OH2 7613   4.832   2.209   3.100
 2551TIP3    H1 7614   4.831   2.292   3.152
 2551TIP3    H2 7615   4.746   2.215   3.054
 2552TIP3   OH2 7616   3.830   2.166   2.601
 2552TIP3    H1 7617   3.792   2.108   2.531
 2552TIP3    H2 7618   3.908   2.113   2.631
 2553TIP3   OH2 7619   3.962   2.580   2.748
 2553TIP3    H1 7620   3.942   2.546   2.660
 2553TIP3    H2 7621   4.051   2.544   2.765
 2554TIP3   OH2 7622   3.969   2.139   2.954
 2554TIP3    H1 7623   4.002   2.118   2.864
 2554TIP3    H2 7624   4.011   2.226   2.972
 2555TIP3   OH2 7625   4.494   2.777   2.732
 2555TIP3    H1 7626   4.479   2.860   2.781
 2555TIP3    H2 7627   4.475   2.707   2.797
 2556TIP3   OH2 7628   4.106   2.696   3.280
 2556TIP3    H1 7629   4.044   2.757   3.325
 2556TIP3    H2 7630   4.042   2.643   3.227
 2557TIP3   OH2 7631   4.440   2.025   2.010
 2557TIP3    H1 7632   4.497   2.087   2.060
 2557TIP3    H2 7633   4.465   2.047   1.917
 2558TIP3   OH2 7634   3.861   2.249   3.383
 2558TIP3    H1 7635   3.866   2.339   3.423
 2558TIP3    H2 7636   3.766   2.230   3.398
 2559TIP3   OH2 7637   4.185   2.704   2.285
 2559TIP3    H1 7638   4.266   2.758   2.294
 2559TIP3    H2 7639   4.123   2.766   2.244
 2560TIP3   OH2 7640   3.899   2.861   3.368
 2560TIP3    H1 7641   3.863   2.867   3.277
 2560TIP3    H2 7642   3.819   2.838   3.420
 2561TIP3   OH2 7643   4.948   1.280   2.070
 2561TIP3    H1 7644   4.852   1.280   2.057
 2561TIP3    H2 7645   4.976   1.353   2.009
 2562TIP3   OH2 7646   3.700   2.009   2.396
 2562TIP3    H1 7647   3.631   2.057   2.345
 2562TIP3    H2 7648   3.654   1.929   2.420
 2563TIP3   OH2 7649   4.754   2.636   1.606
 2563TIP3    H1 7650   4.762   2.732   1.592
 2563TIP3    H2 7651   4.847   2.607   1.594
 2564TIP3   OH2 7652   3.477   2.396   3.314
 2564TIP3    H1 7653   3.409   2.378   3.246
 2564TIP3    H2 7654   3.514   2.307   3.332
 2565TIP3   OH2 7655   3.331   2.588   2.947
 2565TIP3    H1 7656   3.428   2.593   2.943
 2565TIP3    H2 7657   3.311   2.669   2.997
 2566TIP3   OH2 7658   5.200   3.042   3.008
 2566TIP3    H1 7659   5.196   2.946   3.023
 2566TIP3    H2 7660   5.115   3.070   3.050
 2567TIP3   OH2 7661   4.302   2.823   3.137
 2567TIP3    H1 7662   4.299   2.916   3.168
 2567TIP3    H2 7663   4.230   2.783   3.190
 2568TIP3   OH2 7664   4.067   2.954   2.088
 2568TIP3    H1 7665   4.018   2.938   2.005
 2568TIP3    H2 7666   4.032   3.040   2.117
 2569TIP3   OH2 7667   3.502   2.803   2.474
 2569TIP3    H1 7668   3.550   2.795   2.560
 2569TIP3    H2 7669   3.445   2.725   2.478
 2570TIP3   OH2 7670   4.264   2.857   1.725
 2570TIP3    H1 7671   4.323   2.787   1.690
 2570TIP3    H2 7672   4.298   2.867   1.817
 2571TIP3   OH2 7673   4.317   2.904   1.994
 2571TIP3    H1 7674   4.228   2.915   2.035
 2571TIP3    H2 7675   4.368   2.869   2.069
 2572TIP3   OH2 7676   5.087   2.170   3.277
 2572TIP3    H1 7677   5.001   2.180   3.232
 2572TIP3    H2 7678   5.102   2.074   3.269
 2573TIP3   OH2 7679   3.683   2.577   3.295
 2573TIP3    H1 7680   3.729   2.564   3.380
 2573TIP3    H2 7681   3.607   2.516   3.305
 2574TIP3   OH2 7682   4.082   1.400   3.086
 2574TIP3    H1 7683   3.993   1.371   3.056
 2574TIP3    H2 7684   4.056   1.481   3.134
 2575TIP3   OH2 7685   4.618   1.514   3.280
 2575TIP3    H1 7686   4.687   1.489   3.345
 2575TIP3    H2 7687   4.535   1.496   3.330
 2576TIP3   OH2 7688   4.852   1.946   3.199
 2576TIP3    H1 7689   4.802   1.943   3.284
 2576TIP3    H2 7690   4.829   2.035   3.164
 2577TIP3   OH2 7691   4.516   2.068   1.756
 2577TIP3    H1 7692   4.479   2.051   1.667
 2577TIP3    H2 7693   4.597   2.117   1.733
 2578TIP3   OH2 7694   4.146   1.409   2.065
 2578TIP3    H1 7695   4.163   1.433   2.159
 2578TIP3    H2 7696   4.237   1.391   2.034
 2579TIP3   OH2 7697   4.014   1.918   3.104
 2579TIP3    H1 7698   3.964   1.940   3.185
 2579TIP3    H2 7699   3.999   1.999   3.051
 2580TIP3   OH2 7700   3.898   1.801   2.615
 2580TIP3    H1 7701   3.805   1.777   2.636
 2580TIP3    H2 7702   3.908   1.756   2.528
 2581TIP3   OH2 7703   4.389   1.887   2.343
 2581TIP3    H1 7704   4.336   1.960   2.303
 2581TIP3    H2 7705   4.443   1.859   2.267
 2582TIP3   OH2 7706   4.563   2.165   3.428
 2582TIP3    H1 7707   4.540   2.094   3.492
 2582TIP3    H2 7708   4.657   2.180   3.452
 2583TIP3   OH2 7709   4.544   1.914   2.585
 2583TIP3    H1 7710   4.483   1.948   2.517
 2583TIP3    H2 7711   4.575   1.834   2.537
 2584TIP3   OH2 7712   3.834   1.945   3.312
 2584TIP3    H1 7713   3.862   2.012   3.377
 2584TIP3    H2 7714   3.824   1.865   3.367
 2585TIP3   OH2 7715   3.427   1.462   2.895
 2585TIP3    H1 7716   3.499   1.499   2.950
 2585TIP3    H2 7717   3.471   1.438   2.813
 2586TIP3   OH2 7718   3.392   1.449   2.413
 2586TIP3    H1 7719   3.433   1.488   2.332
 2586TIP3    H2 7720   3.330   1.522   2.435
 2587TIP3   OH2 7721   4.553   2.161   3.005
 2587TIP3    H1 7722   4.587   2.090   2.946
 2587TIP3    H2 7723   4.523   2.107   3.081
 2588TIP3   OH2 7724   4.229   1.627   2.674
 2588TIP3    H1 7725   4.147   1.618   2.727
 2588TIP3    H2 7726   4.297   1.620   2.743
 2589TIP3   OH2 7727   3.659   1.681   2.685
 2589TIP3    H1 7728   3.565   1.691   2.657
 2589TIP3    H2 7729   3.680   1.590   2.659
 2590TIP3   OH2 7730   3.929   1.670   2.375
 2590TIP3    H1 7731   4.020   1.694   2.354
 2590TIP3    H2 7732   3.879   1.693   2.294
 2591TIP3   OH2 7733   4.717   1.701   2.875
 2591TIP3    H1 7734   4.692   1.714   2.970
 2591TIP3    H2 7735   4.645   1.643   2.846
 2592TIP3   OH2 7736   3.781   1.696   2.151
 2592TIP3    H1 7737   3.707   1.656   2.099
 2592TIP3    H2 7738   3.829   1.741   2.079
 2593TIP3   OH2 7739   4.899   3.399   3.110
 2593TIP3    H1 7740   4.904   3.424   3.016
 2593TIP3    H2 7741   4.947   3.472   3.154
 2594TIP3   OH2 7742   3.846   2.498   3.521
 2594TIP3    H1 7743   3.925   2.530   3.569
 2594TIP3    H2 7744   3.779   2.501   3.593
 2595TIP3   OH2 7745   4.306   1.955   2.778
 2595TIP3    H1 7746   4.382   1.916   2.733
 2595TIP3    H2 7747   4.308   1.912   2.865
 2596TIP3   OH2 7748   3.832   1.435   2.657
 2596TIP3    H1 7749   3.787   1.363   2.707
 2596TIP3    H2 7750   3.913   1.390   2.628
 2597TIP3   OH2 7751   4.284   1.857   3.062
 2597TIP3    H1 7752   4.194   1.891   3.079
 2597TIP3    H2 7753   4.341   1.917   3.115
 2598TIP3   OH2 7754   4.022   2.239   2.162
 2598TIP3    H1 7755   3.949   2.175   2.149
 2598TIP3    H2 7756   4.000   2.274   2.252
 2599TIP3   OH2 7757   4.920   2.476   2.787
 2599TIP3    H1 7758   4.943   2.529   2.708
 2599TIP3    H2 7759   4.835   2.435   2.761
 2600TIP3   OH2 7760   4.451   1.551   2.035
 2600TIP3    H1 7761   4.367   1.586   2.003
 2600TIP3    H2 7762   4.500   1.636   2.050
 2601TIP3   OH2 7763   4.416   2.558   3.159
 2601TIP3    H1 7764   4.450   2.544   3.249
 2601TIP3    H2 7765   4.381   2.649   3.164
 2602TIP3   OH2 7766   4.553   1.793   2.118
 2602TIP3    H1 7767   4.647   1.809   2.140
 2602TIP3    H2 7768   4.529   1.876   2.071
 2603TIP3   OH2 7769   3.712   2.261   2.835
 2603TIP3    H1 7770   3.752   2.233   2.751
 2603TIP3    H2 7771   3.759   2.205   2.899
 2604TIP3   OH2 7772   4.166   2.390   1.985
 2604TIP3    H1 7773   4.117   2.476   1.987
 2604TIP3    H2 7774   4.111   2.337   2.047
 2605TIP3   OH2 7775   3.598   2.180   3.449
 2605TIP3    H1 7776   3.615   2.169   3.545
 2605TIP3    H2 7777   3.525   2.118   3.434
 2606TIP3   OH2 7778   4.323   2.300   3.469
 2606TIP3    H1 7779   4.261   2.239   3.425
 2606TIP3    H2 7780   4.409   2.264   3.440
 2607TIP3   OH2 7781   4.578   2.814   3.059
 2607TIP3    H1 7782   4.482   2.818   3.070
 2607TIP3    H2 7783   4.608   2.870   3.134
 2608TIP3   OH2 7784   4.986   1.897   1.965
 2608TIP3    H1 7785   4.925   1.854   1.900
 2608TIP3    H2 7786   4.984   1.987   1.926
 2609TIP3   OH2 7787   5.209   2.749   3.044
 2609TIP3    H1 7788   5.111   2.745   3.035
 2609TIP3    H2 7789   5.235   2.720   2.954
 2610TIP3   OH2 7790   4.694   2.712   1.873
 2610TIP3    H1 7791   4.662   2.645   1.935
 2610TIP3    H2 7792   4.703   2.663   1.789
 2611TIP3   OH2 7793   4.686   2.341   2.704
 2611TIP3    H1 7794   4.592   2.318   2.719
 2611TIP3    H2 7795   4.718   2.261   2.659
 2612TIP3   OH2 7796   3.816   2.568   2.459
 2612TIP3    H1 7797   3.811   2.650   2.405
 2612TIP3    H2 7798   3.723   2.554   2.479
 2613TIP3   OH2 7799   3.383   1.871   2.171
 2613TIP3    H1 7800   3.424   1.957   2.190
 2613TIP3    H2 7801   3.304   1.874   2.229
 2614TIP3   OH2 7802   3.947   2.331   2.403
 2614TIP3    H1 7803   3.913   2.421   2.421
 2614TIP3    H2 7804   3.911   2.282   2.480
 2615TIP3   OH2 7805   4.085   2.912   2.929
 2615TIP3    H1 7806   4.127   2.985   2.879
 2615TIP3    H2 7807   4.161   2.875   2.976
 2616TIP3   OH2 7808   3.733   2.807   2.313
 2616TIP3    H1 7809   3.648   2.816   2.360
 2616TIP3    H2 7810   3.766   2.899   2.316
 2617TIP3   OH2 7811   4.468   2.543   2.892
 2617TIP3    H1 7812   4.456   2.543   2.989
 2617TIP3    H2 7813   4.552   2.496   2.883
 2618TIP3   OH2 7814   4.449   2.441   1.772
 2618TIP3    H1 7815   4.501   2.414   1.852
 2618TIP3    H2 7816   4.360   2.413   1.799
 2619TIP3   OH2 7817   4.720   3.075   2.937
 2619TIP3    H1 7818   4.638   3.023   2.930
 2619TIP3    H2 7819   4.705   3.142   2.866
 2620TIP3   OH2 7820   4.786   2.912   1.591
 2620TIP3    H1 7821   4.821   2.987   1.540
 2620TIP3    H2 7822   4.705   2.954   1.627
 2621TIP3   OH2 7823   3.805   1.687   3.457
 2621TIP3    H1 7824   3.708   1.690   3.471
 2621TIP3    H2 7825   3.835   1.634   3.532
 2622TIP3   OH2 7826   4.609   2.368   1.985
 2622TIP3    H1 7827   4.599   2.305   2.059
 2622TIP3    H2 7828   4.706   2.367   1.975
 2623TIP3   OH2 7829   3.526   2.770   3.084
 2623TIP3    H1 7830   3.581   2.706   3.131
 2623TIP3    H2 7831   3.536   2.849   3.140
 2624TIP3   OH2 7832   3.813   2.419   1.773
 2624TIP3    H1 7833   3.823   2.326   1.746
 2624TIP3    H2 7834   3.792   2.410   1.868
 2625TIP3   OH2 7835   3.757   2.424   2.044
 2625TIP3    H1 7836   3.829   2.401   2.105
 2625TIP3    H2 7837   3.758   2.523   2.051
 2626TIP3   OH2 7838   3.490   2.118   2.250
 2626TIP3    H1 7839   3.423   2.163   2.306
 2626TIP3    H2 7840   3.501   2.186   2.181
 2627TIP3   OH2 7841   4.651   1.746   3.135
 2627TIP3    H1 7842   4.724   1.792   3.182
 2627TIP3    H2 7843   4.635   1.669   3.193
 2628TIP3   OH2 7844   4.549   1.496   2.301
 2628TIP3    H1 7845   4.514   1.528   2.216
 2628TIP3    H2 7846   4.582   1.580   2.342
 2629TIP3   OH2 7847   4.024   2.620   1.992
 2629TIP3    H1 7848   3.937   2.643   2.029
 2629TIP3    H2 7849   4.039   2.697   1.935
 2630TIP3   OH2 7850   4.216   1.684   2.407
 2630TIP3    H1 7851   4.277   1.759   2.392
 2630TIP3    H2 7852   4.218   1.676   2.505
 2631TIP3   OH2 7853   4.483   2.001   3.215
 2631TIP3    H1 7854   4.504   2.058   3.292
 2631TIP3    H2 7855   4.535   1.922   3.234
 2632TIP3   OH2 7856   4.377   1.408   2.508
 2632TIP3    H1 7857   4.365   1.478   2.574
 2632TIP3    H2 7858   4.434   1.453   2.442
 2633TIP3   OH2 7859   3.770   2.696   2.063
 2633TIP3    H1 7860   3.739   2.766   2.001
 2633TIP3    H2 7861   3.753   2.738   2.150
 2634TIP3   OH2 7862   3.894   1.402   2.253
 2634TIP3    H1 7863   3.858   1.486   2.288
 2634TIP3    H2 7864   3.978   1.403   2.304
 2635TIP3   OH2 7865   5.119   1.903   3.198
 2635TIP3    H1 7866   5.021   1.901   3.206
 2635TIP3    H2 7867   5.130   1.861   3.112
 2636TIP3   OH2 7868   4.772   2.096   2.583
 2636TIP3    H1 7869   4.695   2.038   2.600
 2636TIP3    H2 7870   4.843   2.050   2.633
 2637TIP3   OH2 7871   3.485   2.321   2.053
 2637TIP3    H1 7872   3.551   2.391   2.063
 2637TIP3    H2 7873   3.530   2.265   1.986
 2638TIP3   OH2 7874   3.426   1.600   2.190
 2638TIP3    H1 7875   3.430   1.697   2.188
 2638TIP3    H2 7876   3.353   1.582   2.130
 2639TIP3   OH2 7877   4.742   3.053   2.530
 2639TIP3    H1 7878   4.699   3.100   2.455
 2639TIP3    H2 7879   4.836   3.072   2.509
 2640TIP3   OH2 7880   3.816   1.320   3.058
 2640TIP3    H1 7881   3.787   1.287   2.970
 2640TIP3    H2 7882   3.807   1.239   3.113
 2641TIP3   OH2 7883   3.348   2.531   2.435
 2641TIP3    H1 7884   3.291   2.566   2.505
 2641TIP3    H2 7885   3.314   2.579   2.356
 2642TIP3   OH2 7886   3.514   3.083   3.508
 2642TIP3    H1 7887   3.600   3.083   3.555
 2642TIP3    H2 7888   3.490   2.988   3.510
 2643TIP3   OH2 7889   3.994   3.040   3.560
 2643TIP3    H1 7890   4.089   3.021   3.559
 2643TIP3    H2 7891   3.964   2.982   3.487
 2644TIP3   OH2 7892   3.975   2.621   1.681
 2644TIP3    H1 7893   3.919   2.550   1.720
 2644TIP3    H2 7894   4.050   2.570   1.648
 2645TIP3   OH2 7895   4.631   2.954   3.291
 2645TIP3    H1 7896   4.625   2.884   3.361
 2645TIP3    H2 7897   4.708   3.006   3.320
 2646TIP3   OH2 7898   4.411   2.660   1.597
 2646TIP3    H1 7899   4.451   2.595   1.657
 2646TIP3    H2 7900   4.468   2.656   1.518
 2647TIP3   OH2 7901   3.643   2.489   3.712
 2647TIP3    H1 7902   3.656   2.393   3.719
 2647TIP3    H2 7903   3.556   2.494   3.667
 2648TIP3   OH2 7904   3.621   2.137   1.907
 2648TIP3    H1 7905   3.679   2.110   1.980
 2648TIP3    H2 7906   3.687   2.142   1.834
 2649TIP3   OH2 7907   4.250   2.577   3.486
 2649TIP3    H1 7908   4.208   2.598   3.400
 2649TIP3    H2 7909   4.280   2.484   3.474
 2650TIP3   OH2 7910   4.138   2.340   1.716
 2650TIP3    H1 7911   4.137   2.351   1.813
 2650TIP3    H2 7912   4.136   2.242   1.709
 2651TIP3   OH2 7913   4.741   2.586   3.093
 2651TIP3    H1 7914   4.818   2.628   3.050
 2651TIP3    H2 7915   4.673   2.655   3.078
 2652TIP3   OH2 7916   3.764   2.220   3.697
 2652TIP3    H1 7917   3.846   2.179   3.668
 2652TIP3    H2 7918   3.791   2.257   3.784
 2653TIP3   OH2 7919   3.828   2.043   2.126
 2653TIP3    H1 7920   3.797   2.008   2.212
 2653TIP3    H2 7921   3.863   1.964   2.082
 2654TIP3   OH2 7922   4.097   2.107   3.355
 2654TIP3    H1 7923   4.019   2.167   3.355
 2654TIP3    H2 7924   4.149   2.142   3.279
 2655TIP3   OH2 7925   3.933   1.831   1.967
 2655TIP3    H1 7926   3.904   1.845   1.874
 2655TIP3    H2 7927   4.030   1.841   1.958
 2656TIP3   OH2 7928   4.615   2.509   3.490
 2656TIP3    H1 7929   4.693   2.478   3.442
 2656TIP3    H2 7930   4.608   2.445   3.563
 2657TIP3   OH2 7931   4.749   2.165   1.636
 2657TIP3    H1 7932   4.729   2.123   1.550
 2657TIP3    H2 7933   4.716   2.256   1.616
 2658TIP3   OH2 7934   4.218   1.897   3.482
 2658TIP3    H1 7935   4.221   1.819   3.423
 2658TIP3    H2 7936   4.175   1.964   3.424
 2659TIP3   OH2 7937   4.223   1.684   3.289
 2659TIP3    H1 7938   4.251   1.726   3.205
 2659TIP3    H2 7939   4.130   1.662   3.270
 2660TIP3   OH2 7940   4.247   2.215   3.161
 2660TIP3    H1 7941   4.333   2.234   3.123
 2660TIP3    H2 7942   4.190   2.281   3.116
 2661TIP3   OH2 7943   4.827   2.183   3.539
 2661TIP3    H1 7944   4.875   2.103   3.566
 2661TIP3    H2 7945   4.898   2.240   3.506
 2662TIP3   OH2 7946   4.872   2.438   3.277
 2662TIP3    H1 7947   4.813   2.493   3.220
 2662TIP3    H2 7948   4.959   2.460   3.239
 2663TIP3   OH2 7949   4.098   2.005   3.716
 2663TIP3    H1 7950   4.030   1.936   3.730
 2663TIP3    H2 7951   4.133   1.979   3.628
 2664TIP3   OH2 7952   4.356   1.446   3.361
 2664TIP3    H1 7953   4.306   1.527   3.337
 2664TIP3    H2 7954   4.288   1.376   3.350
 2665TIP3   OH2 7955   4.481   1.951   3.573
 2665TIP3    H1 7956   4.479   1.924   3.666
 2665TIP3    H2 7957   4.390   1.926   3.546
 2666TIP3   OH2 7958   4.718   1.894   3.427
 2666TIP3    H1 7959   4.645   1.898   3.492
 2666TIP3    H2 7960   4.793   1.866   3.482
 2667TIP3   OH2 7961   4.952   1.840   3.573
 2667TIP3    H1 7962   4.963   1.744   3.592
 2667TIP3    H2 7963   4.944   1.879   3.662
 2668TIP3   OH2 7964   3.936   1.784   3.770
 2668TIP3    H1 7965   3.945   1.693   3.736
 2668TIP3    H2 7966   3.975   1.775   3.859
 2669TIP3   OH2 7967   4.439   1.448   3.625
 2669TIP3    H1 7968   4.509   1.381   3.616
 2669TIP3    H2 7969   4.404   1.448   3.533
 2670TIP3   OH2 7970   4.532   1.692   3.734
 2670TIP3    H1 7971   4.506   1.604   3.701
 2670TIP3    H2 7972   4.445   1.731   3.757
 2671TIP3   OH2 7973   3.738   2.898   1.874
 2671TIP3    H1 7974   3.833   2.890   1.855
 2671TIP3    H2 7975   3.710   2.951   1.797
 2672TIP3   OH2 7976   3.215   2.281   2.088
 2672TIP3    H1 7977   3.310   2.301   2.074
 2672TIP3    H2 7978   3.209   2.192   2.047
 2673TIP3   OH2 7979   3.136   2.893   2.505
 2673TIP3    H1 7980   3.068   2.833   2.466
 2673TIP3    H2 7981   3.179   2.833   2.570
 2674TIP3   OH2 7982   3.271   2.737   2.690
 2674TIP3    H1 7983   3.253   2.671   2.759
 2674TIP3    H2 7984   3.320   2.804   2.742
 2675TIP3   OH2 7985   4.999   3.137   2.492
 2675TIP3    H1 7986   5.016   3.170   2.582
 2675TIP3    H2 7987   5.055   3.195   2.439
 2676TIP3   OH2 7988   5.021   3.161   2.770
 2676TIP3    H1 7989   4.982   3.071   2.772
 2676TIP3    H2 7990   5.097   3.149   2.828
 2677TIP3   OH2 7991   5.073   2.842   3.349
 2677TIP3    H1 7992   5.000   2.851   3.413
 2677TIP3    H2 7993   5.113   2.932   3.351
 2678TIP3   OH2 7994   4.888   2.352   1.965
 2678TIP3    H1 7995   4.952   2.419   1.935
 2678TIP3    H2 7996   4.933   2.316   2.044
 2679TIP3   OH2 7997   5.016   2.219   2.170
 2679TIP3    H1 7998   4.948   2.180   2.229
 2679TIP3    H2 7999   5.080   2.257   2.233
 2680TIP3   OH2 8000   5.072   2.616   2.602
 2680TIP3    H1 8001   5.122   2.548   2.553
 2680TIP3    H2 8002   5.067   2.689   2.538
 2681TIP3   OH2 8003   4.898   2.912   2.797
 2681TIP3    H1 8004   4.827   2.958   2.846
 2681TIP3    H2 8005   4.847   2.869   2.724
 2682TIP3   OH2 8006   4.952   2.129   1.815
 2682TIP3    H1 8007   4.881   2.130   1.747
 2682TIP3    H2 8008   4.923   2.205   1.870
 2683TIP3   OH2 8009   4.824   1.806   1.768
 2683TIP3    H1 8010   4.780   1.842   1.691
 2683TIP3    H2 8011   4.796   1.712   1.764
 2684TIP3   OH2 8012   4.827   2.082   2.316
 2684TIP3    H1 8013   4.835   1.986   2.308
 2684TIP3    H2 8014   4.812   2.095   2.412
 2685TIP3   OH2 8015   3.453   2.146   3.065
 2685TIP3    H1 8016   3.450   2.116   2.972
 2685TIP3    H2 8017   3.551   2.149   3.080
 2686TIP3   OH2 8018   5.118   2.504   3.173
 2686TIP3    H1 8019   5.190   2.437   3.161
 2686TIP3    H2 8020   5.143   2.573   3.110
 2687TIP3   OH2 8021   5.301   2.304   3.178
 2687TIP3    H1 8022   5.227   2.256   3.221
 2687TIP3    H2 8023   5.374   2.241   3.197
 2688TIP3   OH2 8024   4.759   1.543   1.771
 2688TIP3    H1 8025   4.841   1.504   1.806
 2688TIP3    H2 8026   4.699   1.467   1.762
 2689TIP3   OH2 8027   4.824   1.800   2.208
 2689TIP3    H1 8028   4.864   1.711   2.223
 2689TIP3    H2 8029   4.881   1.833   2.137
 2690TIP3   OH2 8030   4.983   1.963   2.704
 2690TIP3    H1 8031   5.069   1.988   2.663
 2690TIP3    H2 8032   4.997   2.002   2.793
 2691TIP3   OH2 8033   5.054   2.111   2.933
 2691TIP3    H1 8034   4.978   2.145   2.984
 2691TIP3    H2 8035   5.087   2.193   2.890
 2692TIP3   OH2 8036   3.669   1.832   3.729
 2692TIP3    H1 8037   3.767   1.830   3.737
 2692TIP3    H2 8038   3.647   1.747   3.773
 2693TIP3   OH2 8039   5.507   1.706   3.491
 2693TIP3    H1 8040   5.568   1.641   3.450
 2693TIP3    H2 8041   5.476   1.757   3.413
 2694TIP3   OH2 8042   4.931   1.549   2.251
 2694TIP3    H1 8043   4.983   1.549   2.334
 2694TIP3    H2 8044   4.919   1.455   2.237
 2695TIP3   OH2 8045   3.632   1.530   3.067
 2695TIP3    H1 8046   3.694   1.455   3.076
 2695TIP3    H2 8047   3.694   1.604   3.059
 2696TIP3   OH2 8048   3.433   1.801   3.140
 2696TIP3    H1 8049   3.484   1.802   3.056
 2696TIP3    H2 8050   3.455   1.888   3.176
 2697TIP3   OH2 8051   5.375   1.841   3.295
 2697TIP3    H1 8052   5.292   1.885   3.321
 2697TIP3    H2 8053   5.339   1.769   3.238
 2698TIP3   OH2 8054   5.010   1.471   1.883
 2698TIP3    H1 8055   5.052   1.406   1.823
 2698TIP3    H2 8056   5.074   1.545   1.880
 2699TIP3   OH2 8057   3.419   1.301   2.637
 2699TIP3    H1 8058   3.327   1.301   2.669
 2699TIP3    H2 8059   3.413   1.364   2.562
 2700TIP3   OH2 8060   4.578   3.010   2.146
 2700TIP3    H1 8061   4.632   3.004   2.065
 2700TIP3    H2 8062   4.625   3.077   2.198
 2701TIP3   OH2 8063   3.636   1.380   3.454
 2701TIP3    H1 8064   3.587   1.386   3.537
 2701TIP3    H2 8065   3.573   1.423   3.393
 2702TIP3   OH2 8066   3.680   2.808   3.531
 2702TIP3    H1 8067   3.585   2.791   3.515
 2702TIP3    H2 8068   3.685   2.800   3.627
 2703TIP3   OH2 8069   3.861   2.849   3.079
 2703TIP3    H1 8070   3.809   2.924   3.042
 2703TIP3    H2 8071   3.945   2.866   3.033
 2704TIP3   OH2 8072   4.301   3.089   3.216
 2704TIP3    H1 8073   4.342   3.091   3.305
 2704TIP3    H2 8074   4.366   3.143   3.165
 2705TIP3   OH2 8075   4.480   3.246   3.081
 2705TIP3    H1 8076   4.553   3.198   3.038
 2705TIP3    H2 8077   4.531   3.307   3.139
 2706TIP3   OH2 8078   5.276   1.604   3.175
 2706TIP3    H1 8079   5.185   1.594   3.143
 2706TIP3    H2 8080   5.310   1.512   3.167
 2707TIP3   OH2 8081   3.533   3.102   3.107
 2707TIP3    H1 8082   3.443   3.133   3.082
 2707TIP3    H2 8083   3.544   3.151   3.190
 2708TIP3   OH2 8084   3.768   3.083   2.963
 2708TIP3    H1 8085   3.681   3.095   3.008
 2708TIP3    H2 8086   3.749   3.116   2.874
 2709TIP3   OH2 8087   4.195   3.109   2.759
 2709TIP3    H1 8088   4.124   3.129   2.696
 2709TIP3    H2 8089   4.207   3.197   2.802
 2710TIP3   OH2 8090   4.465   3.046   2.812
 2710TIP3    H1 8091   4.371   3.068   2.793
 2710TIP3    H2 8092   4.510   3.122   2.771
 2711TIP3   OH2 8093   4.666   3.238   2.725
 2711TIP3    H1 8094   4.655   3.324   2.679
 2711TIP3    H2 8095   4.695   3.180   2.651
 2712TIP3   OH2 8096   3.447   2.899   2.843
 2712TIP3    H1 8097   3.469   2.871   2.935
 2712TIP3    H2 8098   3.519   2.853   2.795
 2713TIP3   OH2 8099   3.641   2.769   2.705
 2713TIP3    H1 8100   3.655   2.686   2.757
 2713TIP3    H2 8101   3.732   2.805   2.703
 2714TIP3   OH2 8102   3.907   2.862   2.712
 2714TIP3    H1 8103   3.938   2.770   2.704
 2714TIP3    H2 8104   3.953   2.887   2.794
 2715TIP3   OH2 8105   4.476   1.519   2.791
 2715TIP3    H1 8106   4.435   1.453   2.851
 2715TIP3    H2 8107   4.555   1.473   2.759
 2716TIP3   OH2 8108   4.997   1.382   2.686
 2716TIP3    H1 8109   5.038   1.442   2.620
 2716TIP3    H2 8110   4.909   1.423   2.698
 2717TIP3   OH2 8111   5.097   1.500   2.461
 2717TIP3    H1 8112   5.172   1.447   2.426
 2717TIP3    H2 8113   5.135   1.591   2.450
 2718TIP3   OH2 8114   3.727   1.230   2.811
 2718TIP3    H1 8115   3.634   1.199   2.812
 2718TIP3    H2 8116   3.774   1.143   2.815
 2719TIP3   OH2 8117   3.515   1.101   2.461
 2719TIP3    H1 8118   3.534   1.160   2.386
 2719TIP3    H2 8119   3.488   1.165   2.530
 2720TIP3   OH2 8120   4.139   1.312   2.659
 2720TIP3    H1 8121   4.231   1.337   2.649
 2720TIP3    H2 8122   4.143   1.239   2.723
 2721TIP3   OH2 8123   4.714   1.410   2.684
 2721TIP3    H1 8124   4.722   1.369   2.598
 2721TIP3    H2 8125   4.702   1.331   2.742
 2722TIP3   OH2 8126   4.684   1.258   2.277
 2722TIP3    H1 8127   4.641   1.347   2.276
 2722TIP3    H2 8128   4.768   1.278   2.321
 2723TIP3   OH2 8129   3.233   2.674   2.237
 2723TIP3    H1 8130   3.147   2.642   2.205
 2723TIP3    H2 8131   3.225   2.768   2.214
 2724TIP3   OH2 8132   3.618   1.252   2.228
 2724TIP3    H1 8133   3.669   1.188   2.176
 2724TIP3    H2 8134   3.687   1.305   2.270
 2725TIP3   OH2 8135   4.155   1.431   2.335
 2725TIP3    H1 8136   4.201   1.388   2.409
 2725TIP3    H2 8137   4.174   1.525   2.359
 2726TIP3   OH2 8138   4.005   2.855   1.822
 2726TIP3    H1 8139   4.093   2.878   1.785
 2726TIP3    H2 8140   3.983   2.780   1.761
 2727TIP3   OH2 8141   4.727   2.979   1.915
 2727TIP3    H1 8142   4.719   2.882   1.906
 2727TIP3    H2 8143   4.678   3.009   1.836
 2728TIP3   OH2 8144   3.937   1.506   3.698
 2728TIP3    H1 8145   3.900   1.438   3.757
 2728TIP3    H2 8146   4.030   1.506   3.727
 2729TIP3   OH2 8147   4.186   1.505   3.819
 2729TIP3    H1 8148   4.272   1.490   3.776
 2729TIP3    H2 8149   4.183   1.430   3.882
 2730TIP3   OH2 8150   3.308   2.693   1.875
 2730TIP3    H1 8151   3.309   2.716   1.969
 2730TIP3    H2 8152   3.396   2.651   1.862
 2731TIP3   OH2 8153   5.013   1.569   3.605
 2731TIP3    H1 8154   5.033   1.544   3.697
 2731TIP3    H2 8155   5.103   1.565   3.565
 2732TIP3   OH2 8156   4.949   3.124   3.101
 2732TIP3    H1 8157   4.870   3.097   3.050
 2732TIP3    H2 8158   4.935   3.221   3.108
 2733TIP3   OH2 8159   6.218   2.497   1.862
 2733TIP3    H1 8160   6.188   2.588   1.842
 2733TIP3    H2 8161   6.140   2.446   1.836
 2734TIP3   OH2 8162   6.219   2.492   2.252
 2734TIP3    H1 8163   6.254   2.471   2.341
 2734TIP3    H2 8164   6.175   2.408   2.228
 2735TIP3   OH2 8165   5.514   2.385   2.613
 2735TIP3    H1 8166   5.543   2.316   2.675
 2735TIP3    H2 8167   5.589   2.446   2.617
 2736TIP3   OH2 8168   6.463   2.797   1.932
 2736TIP3    H1 8169   6.443   2.730   1.999
 2736TIP3    H2 8170   6.490   2.873   1.987
 2737TIP3   OH2 8171   5.487   2.798   2.333
 2737TIP3    H1 8172   5.479   2.701   2.335
 2737TIP3    H2 8173   5.584   2.808   2.334
 2738TIP3   OH2 8174   5.194   1.997   2.119
 2738TIP3    H1 8175   5.148   2.080   2.140
 2738TIP3    H2 8176   5.121   1.949   2.075
 2739TIP3   OH2 8177   5.251   2.288   2.299
 2739TIP3    H1 8178   5.301   2.210   2.332
 2739TIP3    H2 8179   5.312   2.325   2.235
 2740TIP3   OH2 8180   6.113   3.260   1.947
 2740TIP3    H1 8181   6.156   3.186   1.899
 2740TIP3    H2 8182   6.096   3.220   2.034
 2741TIP3   OH2 8183   6.014   2.721   2.296
 2741TIP3    H1 8184   6.054   2.643   2.254
 2741TIP3    H2 8185   6.096   2.767   2.323
 2742TIP3   OH2 8186   7.006   2.046   2.300
 2742TIP3    H1 8187   7.045   2.129   2.336
 2742TIP3    H2 8188   7.038   2.048   2.209
 2743TIP3   OH2 8189   6.428   2.221   2.326
 2743TIP3    H1 8190   6.471   2.136   2.348
 2743TIP3    H2 8191   6.396   2.202   2.236
 2744TIP3   OH2 8192   5.769   1.880   2.292
 2744TIP3    H1 8193   5.747   1.953   2.230
 2744TIP3    H2 8194   5.719   1.807   2.249
 2745TIP3   OH2 8195   6.458   1.969   1.912
 2745TIP3    H1 8196   6.525   1.958   1.983
 2745TIP3    H2 8197   6.515   2.007   1.842
 2746TIP3   OH2 8198   5.399   2.082   2.401
 2746TIP3    H1 8199   5.481   2.064   2.450
 2746TIP3    H2 8200   5.414   2.026   2.321
 2747TIP3   OH2 8201   5.839   2.279   2.194
 2747TIP3    H1 8202   5.933   2.254   2.208
 2747TIP3    H2 8203   5.800   2.194   2.163
 2748TIP3   OH2 8204   7.094   2.260   2.447
 2748TIP3    H1 8205   7.005   2.302   2.446
 2748TIP3    H2 8206   7.117   2.268   2.540
 2749TIP3   OH2 8207   5.762   1.863   2.729
 2749TIP3    H1 8208   5.702   1.901   2.662
 2749TIP3    H2 8209   5.709   1.880   2.810
 2750TIP3   OH2 8210   6.114   2.721   1.728
 2750TIP3    H1 8211   6.062   2.700   1.649
 2750TIP3    H2 8212   6.065   2.800   1.760
 2751TIP3   OH2 8213   5.869   2.640   2.520
 2751TIP3    H1 8214   5.808   2.708   2.558
 2751TIP3    H2 8215   5.909   2.689   2.446
 2752TIP3   OH2 8216   6.656   1.988   2.092
 2752TIP3    H1 8217   6.650   1.933   2.171
 2752TIP3    H2 8218   6.708   2.065   2.125
 2753TIP3   OH2 8219   5.633   1.978   2.511
 2753TIP3    H1 8220   5.695   2.051   2.537
 2753TIP3    H2 8221   5.684   1.939   2.437
 2754TIP3   OH2 8222   5.698   2.836   2.619
 2754TIP3    H1 8223   5.673   2.924   2.586
 2754TIP3    H2 8224   5.619   2.817   2.674
 2755TIP3   OH2 8225   5.088   2.524   1.856
 2755TIP3    H1 8226   5.046   2.554   1.773
 2755TIP3    H2 8227   5.120   2.610   1.892
 2756TIP3   OH2 8228   6.530   3.042   2.094
 2756TIP3    H1 8229   6.441   3.031   2.136
 2756TIP3    H2 8230   6.518   3.129   2.051
 2757TIP3   OH2 8231   6.813   1.936   2.462
 2757TIP3    H1 8232   6.726   1.965   2.430
 2757TIP3    H2 8233   6.874   1.974   2.395
 2758TIP3   OH2 8234   6.113   1.580   2.443
 2758TIP3    H1 8235   6.098   1.486   2.463
 2758TIP3    H2 8236   6.037   1.620   2.491
 2759TIP3   OH2 8237   6.232   3.083   1.769
 2759TIP3    H1 8238   6.282   3.001   1.751
 2759TIP3    H2 8239   6.294   3.148   1.730
 2760TIP3   OH2 8240   6.375   2.865   1.680
 2760TIP3    H1 8241   6.311   2.795   1.663
 2760TIP3    H2 8242   6.417   2.834   1.763
 2761TIP3   OH2 8243   6.755   2.952   2.439
 2761TIP3    H1 8244   6.740   2.873   2.383
 2761TIP3    H2 8245   6.736   3.025   2.377
 2762TIP3   OH2 8246   6.045   2.344   1.701
 2762TIP3    H1 8247   5.964   2.396   1.684
 2762TIP3    H2 8248   6.087   2.345   1.613
 2763TIP3   OH2 8249   5.998   2.136   1.417
 2763TIP3    H1 8250   6.067   2.185   1.464
 2763TIP3    H2 8251   6.053   2.072   1.367
 2764TIP3   OH2 8252   6.950   2.595   2.290
 2764TIP3    H1 8253   6.865   2.645   2.295
 2764TIP3    H2 8254   6.971   2.605   2.196
 2765TIP3   OH2 8255   6.398   2.428   1.670
 2765TIP3    H1 8256   6.341   2.453   1.747
 2765TIP3    H2 8257   6.481   2.406   1.716
 2766TIP3   OH2 8258   6.627   2.466   2.588
 2766TIP3    H1 8259   6.624   2.549   2.640
 2766TIP3    H2 8260   6.540   2.471   2.542
 2767TIP3   OH2 8261   5.628   2.424   2.087
 2767TIP3    H1 8262   5.587   2.366   2.019
 2767TIP3    H2 8263   5.704   2.370   2.117
 2768TIP3   OH2 8264   5.760   2.840   2.233
 2768TIP3    H1 8265   5.737   2.801   2.148
 2768TIP3    H2 8266   5.848   2.802   2.251
 2769TIP3   OH2 8267   5.766   2.395   2.441
 2769TIP3    H1 8268   5.798   2.373   2.351
 2769TIP3    H2 8269   5.807   2.482   2.458
 2770TIP3   OH2 8270   6.292   3.034   2.219
 2770TIP3    H1 8271   6.276   3.114   2.272
 2770TIP3    H2 8272   6.272   2.962   2.282
 2771TIP3   OH2 8273   5.902   2.952   2.765
 2771TIP3    H1 8274   5.840   3.014   2.811
 2771TIP3    H2 8275   5.837   2.900   2.714
 2772TIP3   OH2 8276   6.237   2.284   1.499
 2772TIP3    H1 8277   6.292   2.348   1.548
 2772TIP3    H2 8278   6.264   2.304   1.406
 2773TIP3   OH2 8279   5.656   2.507   2.868
 2773TIP3    H1 8280   5.662   2.595   2.910
 2773TIP3    H2 8281   5.562   2.486   2.885
 2774TIP3   OH2 8282   5.982   2.961   1.771
 2774TIP3    H1 8283   6.061   3.017   1.782
 2774TIP3    H2 8284   5.918   3.021   1.731
 2775TIP3   OH2 8285   5.696   3.117   2.855
 2775TIP3    H1 8286   5.658   3.124   2.765
 2775TIP3    H2 8287   5.618   3.092   2.909
 2776TIP3   OH2 8288   6.738   1.544   1.547
 2776TIP3    H1 8289   6.658   1.545   1.604
 2776TIP3    H2 8290   6.737   1.636   1.517
 2777TIP3   OH2 8291   5.495   2.268   1.887
 2777TIP3    H1 8292   5.425   2.313   1.835
 2777TIP3    H2 8293   5.455   2.182   1.903
 2778TIP3   OH2 8294   6.545   2.893   1.091
 2778TIP3    H1 8295   6.554   2.989   1.078
 2778TIP3    H2 8296   6.639   2.864   1.082
 2779TIP3   OH2 8297   5.273   2.652   2.800
 2779TIP3    H1 8298   5.205   2.633   2.733
 2779TIP3    H2 8299   5.311   2.564   2.820
 2780TIP3   OH2 8300   5.128   2.846   2.431
 2780TIP3    H1 8301   5.224   2.847   2.428
 2780TIP3    H2 8302   5.110   2.926   2.484
 2781TIP3   OH2 8303   6.987   3.302   2.481
 2781TIP3    H1 8304   6.991   3.205   2.496
 2781TIP3    H2 8305   6.905   3.323   2.532
 2782TIP3   OH2 8306   6.098   3.080   2.623
 2782TIP3    H1 8307   6.095   3.172   2.656
 2782TIP3    H2 8308   6.025   3.040   2.676
 2783TIP3   OH2 8309   5.865   3.212   1.574
 2783TIP3    H1 8310   5.813   3.195   1.493
 2783TIP3    H2 8311   5.828   3.297   1.604
 2784TIP3   OH2 8312   5.299   3.059   1.960
 2784TIP3    H1 8313   5.345   3.051   2.047
 2784TIP3    H2 8314   5.243   2.979   1.963
 2785TIP3   OH2 8315   6.060   3.114   1.212
 2785TIP3    H1 8316   6.119   3.044   1.177
 2785TIP3    H2 8317   6.094   3.124   1.304
 2786TIP3   OH2 8318   6.114   3.160   1.481
 2786TIP3    H1 8319   6.024   3.172   1.521
 2786TIP3    H2 8320   6.162   3.123   1.557
 2787TIP3   OH2 8321   6.883   2.428   2.763
 2787TIP3    H1 8322   6.798   2.438   2.718
 2787TIP3    H2 8323   6.899   2.332   2.751
 2788TIP3   OH2 8324   5.479   2.833   2.781
 2788TIP3    H1 8325   5.524   2.823   2.866
 2788TIP3    H2 8326   5.403   2.771   2.791
 2789TIP3   OH2 8327   5.878   1.658   2.574
 2789TIP3    H1 8328   5.789   1.628   2.545
 2789TIP3    H2 8329   5.851   1.738   2.624
 2790TIP3   OH2 8330   6.414   1.771   2.768
 2790TIP3    H1 8331   6.483   1.744   2.831
 2790TIP3    H2 8332   6.331   1.753   2.817
 2791TIP3   OH2 8333   6.644   2.202   2.685
 2791TIP3    H1 8334   6.594   2.199   2.770
 2791TIP3    H2 8335   6.622   2.291   2.650
 2792TIP3   OH2 8336   6.318   2.317   1.244
 2792TIP3    H1 8337   6.280   2.301   1.156
 2792TIP3    H2 8338   6.388   2.381   1.222
 2793TIP3   OH2 8339   6.031   1.702   1.548
 2793TIP3    H1 8340   5.991   1.699   1.637
 2793TIP3    H2 8341   5.987   1.625   1.508
 2794TIP3   OH2 8342   5.810   2.174   2.592
 2794TIP3    H1 8343   5.759   2.195   2.673
 2794TIP3    H2 8344   5.795   2.256   2.539
 2795TIP3   OH2 8345   5.694   2.061   2.104
 2795TIP3    H1 8346   5.601   2.035   2.124
 2795TIP3    H2 8347   5.704   2.019   2.016
 2796TIP3   OH2 8348   6.184   2.147   1.836
 2796TIP3    H1 8349   6.132   2.218   1.792
 2796TIP3    H2 8350   6.236   2.112   1.761
 2797TIP3   OH2 8351   6.359   2.421   2.916
 2797TIP3    H1 8352   6.337   2.349   2.979
 2797TIP3    H2 8353   6.452   2.436   2.940
 2798TIP3   OH2 8354   6.340   2.172   2.070
 2798TIP3    H1 8355   6.276   2.199   2.001
 2798TIP3    H2 8356   6.374   2.091   2.027
 2799TIP3   OH2 8357   5.630   2.201   2.799
 2799TIP3    H1 8358   5.654   2.267   2.866
 2799TIP3    H2 8359   5.619   2.120   2.852
 2800TIP3   OH2 8360   5.683   1.684   1.508
 2800TIP3    H1 8361   5.669   1.681   1.605
 2800TIP3    H2 8362   5.604   1.735   1.481
 2801TIP3   OH2 8363   5.224   1.721   2.379
 2801TIP3    H1 8364   5.295   1.757   2.437
 2801TIP3    H2 8365   5.272   1.697   2.299
 2802TIP3   OH2 8366   5.185   1.704   1.900
 2802TIP3    H1 8367   5.232   1.740   1.821
 2802TIP3    H2 8368   5.126   1.780   1.918
 2803TIP3   OH2 8369   6.351   2.418   2.491
 2803TIP3    H1 8370   6.385   2.347   2.432
 2803TIP3    H2 8371   6.320   2.364   2.567
 2804TIP3   OH2 8372   6.024   1.882   2.165
 2804TIP3    H1 8373   5.943   1.882   2.219
 2804TIP3    H2 8374   6.093   1.875   2.233
 2805TIP3   OH2 8375   5.455   1.940   2.172
 2805TIP3    H1 8376   5.361   1.948   2.144
 2805TIP3    H2 8377   5.478   1.848   2.149
 2806TIP3   OH2 8378   5.720   1.932   1.864
 2806TIP3    H1 8379   5.813   1.948   1.840
 2806TIP3    H2 8380   5.671   1.954   1.781
 2807TIP3   OH2 8381   6.512   1.958   2.367
 2807TIP3    H1 8382   6.482   1.971   2.460
 2807TIP3    H2 8383   6.443   1.898   2.335
 2808TIP3   OH2 8384   5.571   1.968   1.641
 2808TIP3    H1 8385   5.499   1.922   1.594
 2808TIP3    H2 8386   5.621   2.005   1.566
 2809TIP3   OH2 8387   6.684   3.646   2.585
 2809TIP3    H1 8388   6.678   3.669   2.491
 2809TIP3    H2 8389   6.733   3.721   2.621
 2810TIP3   OH2 8390   5.643   2.755   3.007
 2810TIP3    H1 8391   5.721   2.787   3.057
 2810TIP3    H2 8392   5.576   2.757   3.078
 2811TIP3   OH2 8393   6.102   2.212   2.266
 2811TIP3    H1 8394   6.177   2.171   2.220
 2811TIP3    H2 8395   6.104   2.169   2.353
 2812TIP3   OH2 8396   5.622   1.697   2.146
 2812TIP3    H1 8397   5.586   1.621   2.196
 2812TIP3    H2 8398   5.668   1.654   2.073
 2813TIP3   OH2 8399   6.080   2.114   2.547
 2813TIP3    H1 8400   5.989   2.147   2.566
 2813TIP3    H2 8401   6.136   2.174   2.601
 2814TIP3   OH2 8402   5.818   2.496   1.649
 2814TIP3    H1 8403   5.746   2.431   1.636
 2814TIP3    H2 8404   5.796   2.531   1.739
 2815TIP3   OH2 8405   6.713   2.734   2.276
 2815TIP3    H1 8406   6.734   2.787   2.197
 2815TIP3    H2 8407   6.630   2.689   2.250
 2816TIP3   OH2 8408   6.272   1.815   1.494
 2816TIP3    H1 8409   6.180   1.785   1.514
 2816TIP3    H2 8410   6.276   1.904   1.536
 2817TIP3   OH2 8411   6.219   2.820   2.644
 2817TIP3    H1 8412   6.243   2.797   2.735
 2817TIP3    H2 8413   6.176   2.906   2.654
 2818TIP3   OH2 8414   6.343   2.056   1.616
 2818TIP3    H1 8415   6.437   2.068   1.639
 2818TIP3    H2 8416   6.320   2.141   1.572
 2819TIP3   OH2 8417   5.511   2.521   2.322
 2819TIP3    H1 8418   5.550   2.490   2.238
 2819TIP3    H2 8419   5.553   2.462   2.387
 2820TIP3   OH2 8420   5.961   2.647   1.472
 2820TIP3    H1 8421   5.913   2.733   1.474
 2820TIP3    H2 8422   5.906   2.593   1.532
 2821TIP3   OH2 8423   5.394   2.437   2.936
 2821TIP3    H1 8424   5.410   2.426   3.032
 2821TIP3    H2 8425   5.322   2.374   2.920
 2822TIP3   OH2 8426   6.119   2.557   2.955
 2822TIP3    H1 8427   6.056   2.496   2.914
 2822TIP3    H2 8428   6.205   2.520   2.926
 2823TIP3   OH2 8429   6.375   3.081   2.539
 2823TIP3    H1 8430   6.279   3.075   2.555
 2823TIP3    H2 8431   6.403   3.130   2.619
 2824TIP3   OH2 8432   6.791   2.142   1.459
 2824TIP3    H1 8433   6.706   2.109   1.429
 2824TIP3    H2 8434   6.792   2.229   1.414
 2825TIP3   OH2 8435   7.006   3.013   2.524
 2825TIP3    H1 8436   6.909   3.002   2.517
 2825TIP3    H2 8437   7.034   2.979   2.436
 2826TIP3   OH2 8438   6.493   2.968   1.361
 2826TIP3    H1 8439   6.457   2.904   1.425
 2826TIP3    H2 8440   6.498   2.917   1.279
 2827TIP3   OH2 8441   6.482   2.598   2.189
 2827TIP3    H1 8442   6.388   2.573   2.205
 2827TIP3    H2 8443   6.514   2.517   2.147
 2828TIP3   OH2 8444   5.611   2.825   1.945
 2828TIP3    H1 8445   5.604   2.907   1.892
 2828TIP3    H2 8446   5.519   2.808   1.966
 2829TIP3   OH2 8447   5.178   2.128   1.657
 2829TIP3    H1 8448   5.220   2.214   1.677
 2829TIP3    H2 8449   5.099   2.131   1.716
 2830TIP3   OH2 8450   5.745   2.589   1.890
 2830TIP3    H1 8451   5.709   2.678   1.909
 2830TIP3    H2 8452   5.709   2.538   1.966
 2831TIP3   OH2 8453   5.881   3.168   2.416
 2831TIP3    H1 8454   5.924   3.241   2.367
 2831TIP3    H2 8455   5.956   3.131   2.464
 2832TIP3   OH2 8456   5.528   3.063   1.799
 2832TIP3    H1 8457   5.443   3.072   1.847
 2832TIP3    H2 8458   5.561   3.156   1.802
 2833TIP3   OH2 8459   6.265   2.801   2.377
 2833TIP3    H1 8460   6.253   2.802   2.475
 2833TIP3    H2 8461   6.346   2.748   2.369
 2834TIP3   OH2 8462   6.244   2.693   1.257
 2834TIP3    H1 8463   6.295   2.666   1.337
 2834TIP3    H2 8464   6.154   2.669   1.284
 2835TIP3   OH2 8465   6.516   3.332   2.426
 2835TIP3    H1 8466   6.437   3.275   2.423
 2835TIP3    H2 8467   6.497   3.395   2.353
 2836TIP3   OH2 8468   6.580   3.169   1.077
 2836TIP3    H1 8469   6.605   3.242   1.019
 2836TIP3    H2 8470   6.501   3.209   1.118
 2837TIP3   OH2 8471   5.600   1.944   2.942
 2837TIP3    H1 8472   5.504   1.948   2.957
 2837TIP3    H2 8473   5.629   1.890   3.018
 2838TIP3   OH2 8474   6.406   2.617   1.465
 2838TIP3    H1 8475   6.395   2.562   1.545
 2838TIP3    H2 8476   6.504   2.620   1.460
 2839TIP3   OH2 8477   5.321   3.028   2.574
 2839TIP3    H1 8478   5.376   2.962   2.619
 2839TIP3    H2 8479   5.334   3.106   2.630
 2840TIP3   OH2 8480   5.609   2.674   1.259
 2840TIP3    H1 8481   5.620   2.580   1.234
 2840TIP3    H2 8482   5.589   2.666   1.354
 2841TIP3   OH2 8483   5.553   2.681   1.529
 2841TIP3    H1 8484   5.621   2.655   1.592
 2841TIP3    H2 8485   5.555   2.779   1.538
 2842TIP3   OH2 8486   5.286   2.374   1.737
 2842TIP3    H1 8487   5.219   2.418   1.793
 2842TIP3    H2 8488   5.297   2.442   1.667
 2843TIP3   OH2 8489   6.442   2.006   2.626
 2843TIP3    H1 8490   6.520   2.049   2.667
 2843TIP3    H2 8491   6.429   1.927   2.682
 2844TIP3   OH2 8492   6.326   1.755   1.794
 2844TIP3    H1 8493   6.305   1.783   1.704
 2844TIP3    H2 8494   6.362   1.837   1.834
 2845TIP3   OH2 8495   5.821   2.878   1.478
 2845TIP3    H1 8496   5.734   2.899   1.516
 2845TIP3    H2 8497   5.834   2.956   1.422
 2846TIP3   OH2 8498   6.007   1.942   1.896
 2846TIP3    H1 8499   6.069   2.017   1.882
 2846TIP3    H2 8500   6.011   1.932   1.994
 2847TIP3   OH2 8501   6.279   2.258   2.700
 2847TIP3    H1 8502   6.302   2.312   2.779
 2847TIP3    H2 8503   6.330   2.177   2.715
 2848TIP3   OH2 8504   6.149   1.662   1.995
 2848TIP3    H1 8505   6.144   1.739   2.056
 2848TIP3    H2 8506   6.212   1.696   1.928
 2849TIP3   OH2 8507   5.567   2.953   1.550
 2849TIP3    H1 8508   5.535   3.022   1.488
 2849TIP3    H2 8509   5.549   2.994   1.637
 2850TIP3   OH2 8510   5.662   1.668   1.785
 2850TIP3    H1 8511   5.660   1.758   1.823
 2850TIP3    H2 8512   5.759   1.650   1.792
 2851TIP3   OH2 8513   6.911   2.166   2.674
 2851TIP3    H1 8514   6.814   2.164   2.686
 2851TIP3    H2 8515   6.919   2.108   2.598
 2852TIP3   OH2 8516   6.563   2.355   2.070
 2852TIP3    H1 8517   6.487   2.297   2.084
 2852TIP3    H2 8518   6.634   2.308   2.120
 2853TIP3   OH2 8519   5.281   2.577   1.540
 2853TIP3    H1 8520   5.348   2.647   1.549
 2853TIP3    H2 8521   5.327   2.521   1.473
 2854TIP3   OH2 8522   5.223   1.857   1.676
 2854TIP3    H1 8523   5.223   1.955   1.675
 2854TIP3    H2 8524   5.148   1.836   1.619
 2855TIP3   OH2 8525   6.535   3.312   2.018
 2855TIP3    H1 8526   6.491   3.358   1.943
 2855TIP3    H2 8527   6.629   3.330   1.996
 2856TIP3   OH2 8528   5.613   1.578   2.545
 2856TIP3    H1 8529   5.583   1.543   2.458
 2856TIP3    H2 8530   5.603   1.501   2.603
 2857TIP3   OH2 8531   5.146   2.791   1.922
 2857TIP3    H1 8532   5.087   2.823   1.992
 2857TIP3    H2 8533   5.110   2.837   1.843
 2858TIP3   OH2 8534   5.327   3.336   2.967
 2858TIP3    H1 8535   5.400   3.346   3.031
 2858TIP3    H2 8536   5.289   3.251   2.993
 2859TIP3   OH2 8537   5.790   3.299   3.044
 2859TIP3    H1 8538   5.884   3.277   3.047
 2859TIP3    H2 8539   5.759   3.239   2.973
 2860TIP3   OH2 8540   5.770   2.877   1.167
 2860TIP3    H1 8541   5.713   2.807   1.207
 2860TIP3    H2 8542   5.846   2.823   1.139
 2861TIP3   OH2 8543   6.432   3.208   2.775
 2861TIP3    H1 8544   6.421   3.139   2.845
 2861TIP3    H2 8545   6.507   3.261   2.810
 2862TIP3   OH2 8546   6.207   2.918   1.084
 2862TIP3    H1 8547   6.249   2.852   1.143
 2862TIP3    H2 8548   6.263   2.914   1.004
 2863TIP3   OH2 8549   5.439   2.747   3.199
 2863TIP3    H1 8550   5.454   2.650   3.206
 2863TIP3    H2 8551   5.352   2.750   3.154
 2864TIP3   OH2 8552   5.418   2.394   1.394
 2864TIP3    H1 8553   5.474   2.363   1.467
 2864TIP3    H2 8554   5.486   2.399   1.322
 2865TIP3   OH2 8555   6.047   2.834   2.973
 2865TIP3    H1 8556   6.003   2.853   2.887
 2865TIP3    H2 8557   6.076   2.741   2.962
 2866TIP3   OH2 8558   5.936   2.598   1.202
 2866TIP3    H1 8559   5.933   2.609   1.299
 2866TIP3    H2 8560   5.934   2.500   1.194
 2867TIP3   OH2 8561   6.538   2.842   2.580
 2867TIP3    H1 8562   6.613   2.888   2.537
 2867TIP3    H2 8563   6.467   2.907   2.565
 2868TIP3   OH2 8564   5.560   2.481   3.183
 2868TIP3    H1 8565   5.637   2.429   3.158
 2868TIP3    H2 8566   5.587   2.516   3.271
 2869TIP3   OH2 8567   5.624   2.302   1.615
 2869TIP3    H1 8568   5.594   2.262   1.698
 2869TIP3    H2 8569   5.660   2.224   1.566
 2870TIP3   OH2 8570   5.895   2.365   2.844
 2870TIP3    H1 8571   5.815   2.423   2.843
 2870TIP3    H2 8572   5.946   2.400   2.767
 2871TIP3   OH2 8573   5.723   2.095   1.453
 2871TIP3    H1 8574   5.699   2.103   1.359
 2871TIP3    H2 8575   5.821   2.099   1.447
 2872TIP3   OH2 8576   6.412   2.767   2.976
 2872TIP3    H1 8577   6.491   2.735   2.931
 2872TIP3    H2 8578   6.403   2.703   3.049
 2873TIP3   OH2 8579   6.553   2.421   1.115
 2873TIP3    H1 8580   6.538   2.375   1.030
 2873TIP3    H2 8581   6.515   2.510   1.095
 2874TIP3   OH2 8582   6.018   2.155   2.966
 2874TIP3    H1 8583   6.018   2.076   2.909
 2874TIP3    H2 8584   5.973   2.222   2.910
 2875TIP3   OH2 8585   6.020   1.941   2.776
 2875TIP3    H1 8586   6.048   1.981   2.691
 2875TIP3    H2 8587   5.926   1.918   2.757
 2876TIP3   OH2 8588   6.043   2.473   2.649
 2876TIP3    H1 8589   6.129   2.488   2.607
 2876TIP3    H2 8590   5.985   2.538   2.603
 2877TIP3   OH2 8591   6.624   2.439   3.027
 2877TIP3    H1 8592   6.672   2.357   3.048
 2877TIP3    H2 8593   6.695   2.496   2.995
 2878TIP3   OH2 8594   6.669   2.694   2.765
 2878TIP3    H1 8595   6.610   2.749   2.707
 2878TIP3    H2 8596   6.757   2.716   2.726
 2879TIP3   OH2 8597   5.896   2.260   3.202
 2879TIP3    H1 8598   5.828   2.191   3.218
 2879TIP3    H2 8599   5.929   2.234   3.113
 2880TIP3   OH2 8600   6.151   1.701   2.845
 2880TIP3    H1 8601   6.101   1.782   2.823
 2880TIP3    H2 8602   6.082   1.632   2.835
 2881TIP3   OH2 8603   6.278   2.204   3.061
 2881TIP3    H1 8604   6.264   2.189   3.156
 2881TIP3    H2 8605   6.188   2.181   3.028
 2882TIP3   OH2 8606   6.514   2.153   2.915
 2882TIP3    H1 8607   6.441   2.156   2.980
 2882TIP3    H2 8608   6.589   2.125   2.970
 2883TIP3   OH2 8609   6.745   2.097   3.062
 2883TIP3    H1 8610   6.755   2.001   3.080
 2883TIP3    H2 8611   6.740   2.135   3.152
 2884TIP3   OH2 8612   5.734   2.040   3.255
 2884TIP3    H1 8613   5.738   1.948   3.224
 2884TIP3    H2 8614   5.772   2.030   3.345
 2885TIP3   OH2 8615   6.245   1.712   3.103
 2885TIP3    H1 8616   6.311   1.640   3.097
 2885TIP3    H2 8617   6.205   1.707   3.014
 2886TIP3   OH2 8618   6.313   1.928   3.261
 2886TIP3    H1 8619   6.291   1.856   3.198
 2886TIP3    H2 8620   6.233   1.985   3.255
 2887TIP3   OH2 8621   5.534   3.155   1.362
 2887TIP3    H1 8622   5.629   3.147   1.341
 2887TIP3    H2 8623   5.505   3.207   1.284
 2888TIP3   OH2 8624   5.012   2.538   1.574
 2888TIP3    H1 8625   5.107   2.558   1.560
 2888TIP3    H2 8626   5.005   2.449   1.534
 2889TIP3   OH2 8627   4.933   3.149   1.991
 2889TIP3    H1 8628   4.865   3.090   1.953
 2889TIP3    H2 8629   4.975   3.089   2.056
 2890TIP3   OH2 8630   5.066   2.994   2.177
 2890TIP3    H1 8631   5.050   2.927   2.246
 2890TIP3    H2 8632   5.116   3.060   2.230
 2891TIP3   OH2 8633   6.792   3.393   1.982
 2891TIP3    H1 8634   6.816   3.429   2.069
 2891TIP3    H2 8635   6.853   3.439   1.922
 2892TIP3   OH2 8636   6.827   3.416   2.261
 2892TIP3    H1 8637   6.772   3.335   2.251
 2892TIP3    H2 8638   6.891   3.381   2.327
 2893TIP3   OH2 8639   6.865   3.098   2.831
 2893TIP3    H1 8640   6.794   3.107   2.898
 2893TIP3    H2 8641   6.908   3.186   2.837
 2894TIP3   OH2 8642   6.685   2.607   1.449
 2894TIP3    H1 8643   6.750   2.674   1.421
 2894TIP3    H2 8644   6.727   2.572   1.531
 2895TIP3   OH2 8645   6.803   2.479   1.657
 2895TIP3    H1 8646   6.740   2.437   1.720
 2895TIP3    H2 8647   6.869   2.520   1.718
 2896TIP3   OH2 8648   6.862   2.881   2.095
 2896TIP3    H1 8649   6.907   2.805   2.052
 2896TIP3    H2 8650   6.856   2.946   2.022
 2897TIP3   OH2 8651   6.693   3.173   2.279
 2897TIP3    H1 8652   6.621   3.212   2.332
 2897TIP3    H2 8653   6.643   3.125   2.209
 2898TIP3   OH2 8654   6.732   2.371   1.313
 2898TIP3    H1 8655   6.666   2.383   1.241
 2898TIP3    H2 8656   6.711   2.449   1.368
 2899TIP3   OH2 8657   6.623   2.335   1.806
 2899TIP3    H1 8658   6.629   2.239   1.806
 2899TIP3    H2 8659   6.607   2.354   1.902
 2900TIP3   OH2 8660   5.249   2.405   2.551
 2900TIP3    H1 8661   5.246   2.374   2.458
 2900TIP3    H2 8662   5.346   2.407   2.566
 2901TIP3   OH2 8663   6.917   2.760   2.659
 2901TIP3    H1 8664   6.986   2.692   2.647
 2901TIP3    H2 8665   6.942   2.827   2.594
 2902TIP3   OH2 8666   7.102   2.558   2.666
 2902TIP3    H1 8667   7.027   2.509   2.707
 2902TIP3    H2 8668   7.176   2.497   2.684
 2903TIP3   OH2 8669   6.621   2.049   1.696
 2903TIP3    H1 8670   6.655   1.958   1.708
 2903TIP3    H2 8671   6.698   2.090   1.653
 2904TIP3   OH2 8672   6.771   2.223   2.193
 2904TIP3    H1 8673   6.852   2.255   2.148
 2904TIP3    H2 8674   6.788   2.257   2.283
 2905TIP3   OH2 8675   6.843   2.372   2.420
 2905TIP3    H1 8676   6.768   2.407   2.472
 2905TIP3    H2 8677   6.880   2.453   2.378
 2906TIP3   OH2 8678   5.468   2.092   3.221
 2906TIP3    H1 8679   5.566   2.087   3.227
 2906TIP3    H2 8680   5.444   2.006   3.261
 2907TIP3   OH2 8681   7.284   1.977   2.971
 2907TIP3    H1 8682   7.340   1.915   2.922
 2907TIP3    H2 8683   7.247   2.031   2.897
 2908TIP3   OH2 8684   6.726   1.799   1.730
 2908TIP3    H1 8685   6.770   1.798   1.819
 2908TIP3    H2 8686   6.665   1.723   1.740
 2909TIP3   OH2 8687   5.428   1.787   2.552
 2909TIP3    H1 8688   5.490   1.712   2.562
 2909TIP3    H2 8689   5.491   1.861   2.545
 2910TIP3   OH2 8690   5.229   2.058   2.625
 2910TIP3    H1 8691   5.280   2.060   2.542
 2910TIP3    H2 8692   5.252   2.142   2.665
 2911TIP3   OH2 8693   7.168   2.113   2.768
 2911TIP3    H1 8694   7.084   2.157   2.794
 2911TIP3    H2 8695   7.131   2.041   2.713
 2912TIP3   OH2 8696   6.788   1.794   1.302
 2912TIP3    H1 8697   6.814   1.700   1.310
 2912TIP3    H2 8698   6.870   1.838   1.337
 2913TIP3   OH2 8699   5.217   1.559   2.123
 2913TIP3    H1 8700   5.126   1.564   2.155
 2913TIP3    H2 8701   5.215   1.621   2.046
 2914TIP3   OH2 8702   6.377   3.267   1.634
 2914TIP3    H1 8703   6.429   3.260   1.551
 2914TIP3    H2 8704   6.425   3.337   1.682
 2915TIP3   OH2 8705   5.435   1.642   2.940
 2915TIP3    H1 8706   5.385   1.639   3.023
 2915TIP3    H2 8707   5.369   1.681   2.880
 2916TIP3   OH2 8708   5.480   3.057   3.018
 2916TIP3    H1 8709   5.385   3.047   3.000
 2916TIP3    H2 8710   5.482   3.054   3.115
 2917TIP3   OH2 8711   5.656   3.105   2.566
 2917TIP3    H1 8712   5.605   3.180   2.529
 2917TIP3    H2 8713   5.741   3.123   2.520
 2918TIP3   OH2 8714   6.096   3.346   2.703
 2918TIP3    H1 8715   6.137   3.346   2.792
 2918TIP3    H2 8716   6.161   3.400   2.653
 2919TIP3   OH2 8717   6.275   3.503   2.566
 2919TIP3    H1 8718   6.345   3.450   2.525
 2919TIP3    H2 8719   6.326   3.559   2.627
 2920TIP3   OH2 8720   7.022   1.865   2.692
 2920TIP3    H1 8721   6.933   1.843   2.659
 2920TIP3    H2 8722   7.066   1.777   2.683
 2921TIP3   OH2 8723   5.330   3.360   2.594
 2921TIP3    H1 8724   5.239   3.390   2.573
 2921TIP3    H2 8725   5.344   3.405   2.679
 2922TIP3   OH2 8726   5.565   3.340   2.451
 2922TIP3    H1 8727   5.479   3.352   2.496
 2922TIP3    H2 8728   5.544   3.373   2.361
 2923TIP3   OH2 8729   5.992   3.367   2.246
 2923TIP3    H1 8730   5.919   3.384   2.183
 2923TIP3    H2 8731   6.001   3.455   2.288
 2924TIP3   OH2 8732   6.260   3.306   2.298
 2924TIP3    H1 8733   6.165   3.323   2.280
 2924TIP3    H2 8734   6.301   3.383   2.256
 2925TIP3   OH2 8735   6.472   3.499   2.212
 2925TIP3    H1 8736   6.454   3.582   2.163
 2925TIP3    H2 8737   6.493   3.437   2.139
 2926TIP3   OH2 8738   5.243   3.155   2.331
 2926TIP3    H1 8739   5.265   3.128   2.423
 2926TIP3    H2 8740   5.315   3.109   2.283
 2927TIP3   OH2 8741   5.437   3.026   2.192
 2927TIP3    H1 8742   5.451   2.943   2.244
 2927TIP3    H2 8743   5.529   3.061   2.190
 2928TIP3   OH2 8744   5.704   3.118   2.198
 2928TIP3    H1 8745   5.734   3.025   2.191
 2928TIP3    H2 8746   5.749   3.143   2.281
 2929TIP3   OH2 8747   6.274   1.774   2.280
 2929TIP3    H1 8748   6.233   1.704   2.334
 2929TIP3    H2 8749   6.351   1.729   2.241
 2930TIP3   OH2 8750   6.795   1.649   2.184
 2930TIP3    H1 8751   6.830   1.712   2.118
 2930TIP3    H2 8752   6.701   1.673   2.186
 2931TIP3   OH2 8753   6.871   1.792   1.964
 2931TIP3    H1 8754   6.941   1.737   1.923
 2931TIP3    H2 8755   6.911   1.881   1.955
 2932TIP3   OH2 8756   5.524   1.484   2.296
 2932TIP3    H1 8757   5.432   1.451   2.301
 2932TIP3    H2 8758   5.572   1.398   2.293
 2933TIP3   OH2 8759   5.312   1.356   1.948
 2933TIP3    H1 8760   5.344   1.410   1.873
 2933TIP3    H2 8761   5.288   1.424   2.014
 2934TIP3   OH2 8762   5.971   1.515   2.181
 2934TIP3    H1 8763   6.026   1.564   2.118
 2934TIP3    H2 8764   5.997   1.556   2.265
 2935TIP3   OH2 8765   6.511   1.665   2.163
 2935TIP3    H1 8766   6.516   1.621   2.077
 2935TIP3    H2 8767   6.500   1.587   2.223
 2936TIP3   OH2 8768   6.543   1.587   1.731
 2936TIP3    H1 8769   6.458   1.633   1.748
 2936TIP3    H2 8770   6.525   1.502   1.777
 2937TIP3   OH2 8771   5.030   2.930   1.722
 2937TIP3    H1 8772   4.943   2.898   1.691
 2937TIP3    H2 8773   5.020   3.025   1.700
 2938TIP3   OH2 8774   5.431   1.510   1.712
 2938TIP3    H1 8775   5.477   1.448   1.652
 2938TIP3    H2 8776   5.505   1.564   1.745
 2939TIP3   OH2 8777   5.940   1.692   1.808
 2939TIP3    H1 8778   5.998   1.644   1.869
 2939TIP3    H2 8779   5.962   1.785   1.834
 2940TIP3   OH2 8780   5.801   3.111   1.308
 2940TIP3    H1 8781   5.889   3.135   1.271
 2940TIP3    H2 8782   5.779   3.037   1.247
 2941TIP3   OH2 8783   6.524   3.236   1.401
 2941TIP3    H1 8784   6.516   3.138   1.392
 2941TIP3    H2 8785   6.474   3.266   1.324
 2942TIP3   OH2 8786   5.733   1.766   3.188
 2942TIP3    H1 8787   5.695   1.696   3.245
 2942TIP3    H2 8788   5.826   1.764   3.218
 2943TIP3   OH2 8789   5.983   1.763   3.309
 2943TIP3    H1 8790   6.068   1.736   3.271
 2943TIP3    H2 8791   5.969   1.694   3.377
 2944TIP3   OH2 8792   5.104   2.951   1.362
 2944TIP3    H1 8793   5.103   2.972   1.456
 2944TIP3    H2 8794   5.192   2.909   1.350
 2945TIP3   OH2 8795   6.800   1.826   3.101
 2945TIP3    H1 8796   6.819   1.797   3.192
 2945TIP3    H2 8797   6.890   1.821   3.061
 2946TIP3   OH2 8798   6.745   3.376   2.586
 2946TIP3    H1 8799   6.665   3.344   2.539
 2946TIP3    H2 8800   6.723   3.471   2.595
 2947TIP3   OH2 8801   7.287   2.688   2.049
 2947TIP3    H1 8802   7.318   2.605   2.087
 2947TIP3    H2 8803   7.344   2.751   2.095
 2948TIP3   OH2 8804   7.303   3.048   1.831
 2948TIP3    H1 8805   7.249   2.977   1.868
 2948TIP3    H2 8806   7.340   3.088   1.911
 2949TIP3   OH2 8807   7.003   2.283   1.599
 2949TIP3    H1 8808   6.940   2.355   1.613
 2949TIP3    H2 8809   6.945   2.209   1.579
 2950TIP3   OH2 8810   7.038   2.561   1.771
 2950TIP3    H1 8811   7.075   2.474   1.799
 2950TIP3    H2 8812   7.102   2.587   1.704
 2951TIP3   OH2 8813   7.160   2.335   1.849
 2951TIP3    H1 8814   7.233   2.326   1.914
 2951TIP3    H2 8815   7.154   2.245   1.813
 2952TIP3   OH2 8816   6.883   2.786   1.347
 2952TIP3    H1 8817   6.837   2.819   1.267
 2952TIP3    H2 8818   6.913   2.870   1.387
 2953TIP3   OH2 8819   7.398   2.834   2.330
 2953TIP3    H1 8820   7.433   2.902   2.390
 2953TIP3    H2 8821   7.320   2.802   2.381
 2954TIP3   OH2 8822   7.473   3.392   2.345
 2954TIP3    H1 8823   7.452   3.371   2.251
 2954TIP3    H2 8824   7.393   3.362   2.392
 2955TIP3   OH2 8825   7.077   2.913   2.280
 2955TIP3    H1 8826   7.001   2.891   2.222
 2955TIP3    H2 8827   7.107   2.824   2.309
 2956TIP3   OH2 8828   6.921   3.109   1.914
 2956TIP3    H1 8829   7.016   3.122   1.922
 2956TIP3    H2 8830   6.888   3.180   1.972
 2957TIP3   OH2 8831   7.066   3.316   1.467
 2957TIP3    H1 8832   7.114   3.303   1.551
 2957TIP3    H2 8833   7.011   3.236   1.466
 2958TIP3   OH2 8834   7.269   3.113   2.268
 2958TIP3    H1 8835   7.324   3.098   2.348
 2958TIP3    H2 8836   7.208   3.036   2.273
 2959TIP3   OH2 8837   7.017   2.003   1.872
 2959TIP3    H1 8838   7.106   2.021   1.907
 2959TIP3    H2 8839   7.035   1.955   1.788
 2960TIP3   OH2 8840   6.995   1.957   1.383
 2960TIP3    H1 8841   7.043   2.000   1.308
 2960TIP3    H2 8842   6.943   2.035   1.410
 2961TIP3   OH2 8843   7.435   3.048   2.497
 2961TIP3    H1 8844   7.527   3.039   2.531
 2961TIP3    H2 8845   7.383   3.033   2.579
 2962TIP3   OH2 8846   7.179   2.704   2.432
 2962TIP3    H1 8847   7.204   2.678   2.523
 2962TIP3    H2 8848   7.118   2.631   2.408
 2963TIP3   OH2 8849   6.940   2.397   1.130
 2963TIP3    H1 8850   6.992   2.478   1.149
 2963TIP3    H2 8851   6.874   2.399   1.203
 2964TIP3   OH2 8852   7.299   3.366   1.334
 2964TIP3    H1 8853   7.208   3.348   1.367
 2964TIP3    H2 8854   7.312   3.458   1.362
 2965TIP3   OH2 8855   7.127   3.275   2.067
 2965TIP3    H1 8856   7.169   3.207   2.123
 2965TIP3    H2 8857   7.157   3.355   2.112
 2966TIP3   OH2 8858   7.065   2.628   1.210
 2966TIP3    H1 8859   7.005   2.683   1.264
 2966TIP3    H2 8860   7.110   2.693   1.154
 2967TIP3   OH2 8861   7.065   2.888   1.035
 2967TIP3    H1 8862   7.131   2.943   1.082
 2967TIP3    H2 8863   7.122   2.851   0.965
 2968TIP3   OH2 8864   7.013   2.144   1.193
 2968TIP3    H1 8865   7.004   2.241   1.183
 2968TIP3    H2 8866   6.995   2.113   1.103
 2969TIP3   OH2 8867   6.932   3.047   1.415
 2969TIP3    H1 8868   6.859   3.076   1.472
 2969TIP3    H2 8869   6.908   3.091   1.330
 2970TIP3   OH2 8870   7.104   3.571   2.476
 2970TIP3    H1 8871   7.186   3.533   2.514
 2970TIP3    H2 8872   7.052   3.489   2.471
 2971TIP3   OH2 8873   7.232   3.009   2.690
 2971TIP3    H1 8874   7.248   2.915   2.707
 2971TIP3    H2 8875   7.147   3.006   2.641
 2972TIP3   OH2 8876   7.361   2.741   2.662
 2972TIP3    H1 8877   7.428   2.672   2.655
 2972TIP3    H2 8878   7.385   2.780   2.749
 2973TIP3   OH2 8879   6.804   2.803   1.065
 2973TIP3    H1 8880   6.898   2.828   1.053
 2973TIP3    H2 8881   6.802   2.711   1.031
 2974TIP3   OH2 8882   6.727   3.406   1.479
 2974TIP3    H1 8883   6.659   3.346   1.440
 2974TIP3    H2 8884   6.769   3.346   1.544
 2975TIP3   OH2 8885   6.855   3.250   1.669
 2975TIP3    H1 8886   6.843   3.180   1.735
 2975TIP3    H2 8887   6.904   3.315   1.722
 2976TIP3   OH2 8888   7.017   2.672   2.022
 2976TIP3    H1 8889   7.010   2.632   1.933
 2976TIP3    H2 8890   7.115   2.680   2.029
 2977TIP3   OH2 8891   7.294   2.360   2.715
 2977TIP3    H1 8892   7.385   2.357   2.749
 2977TIP3    H2 8893   7.259   2.273   2.743
 2978TIP3   OH2 8894   7.003   2.329   2.094
 2978TIP3    H1 8895   7.051   2.323   2.010
 2978TIP3    H2 8896   7.071   2.369   2.151
 2979TIP3   OH2 8897   6.997   1.868   1.635
 2979TIP3    H1 8898   6.917   1.820   1.663
 2979TIP3    H2 8899   6.978   1.892   1.543
 2980TIP3   OH2 8900   7.183   1.957   2.493
 2980TIP3    H1 8901   7.122   1.914   2.555
 2980TIP3    H2 8902   7.125   1.975   2.417
 2981TIP3   OH2 8903   7.263   3.342   2.527
 2981TIP3    H1 8904   7.176   3.306   2.502
 2981TIP3    H2 8905   7.281   3.292   2.609
 2982TIP3   OH2 8906   7.456   3.352   2.064
 2982TIP3    H1 8907   7.406   3.417   2.010
 2982TIP3    H2 8908   7.545   3.368   2.029
 2983TIP3   OH2 8909   7.127   3.640   2.099
 2983TIP3    H1 8910   7.046   3.679   2.058
 2983TIP3    H2 8911   7.087   3.590   2.170
 2984TIP3   OH2 8912   7.323   3.540   1.916
 2984TIP3    H1 8913   7.262   3.591   1.973
 2984TIP3    H2 8914   7.344   3.607   1.847
 2985TIP3   OH2 8915   7.028   3.415   1.829
 2985TIP3    H1 8916   7.059   3.386   1.917
 2985TIP3    H2 8917   7.099   3.375   1.774
 2986TIP3   OH2 8918   7.220   3.286   1.691
 2986TIP3    H1 8919   7.251   3.196   1.715
 2986TIP3    H2 8920   7.302   3.337   1.699
 2987TIP3   OH2 8921   6.826   3.185   1.208
 2987TIP3    H1 8922   6.739   3.155   1.177
 2987TIP3    H2 8923   6.819   3.280   1.188
 2988TIP3   OH2 8924   6.915   3.215   0.867
 2988TIP3    H1 8925   6.868   3.265   0.935
 2988TIP3    H2 8926   6.962   3.148   0.919
 2989TIP3   OH2 8927   0.467   3.536   3.044
 2989TIP3    H1 8928   0.448   3.632   3.038
 2989TIP3    H2 8929   0.383   3.500   3.011
 2990TIP3   OH2 8930   0.457   3.541   3.434
 2990TIP3    H1 8931   0.498   3.516   3.519
 2990TIP3    H2 8932   0.422   3.456   3.404
 2991TIP3   OH2 8933  -0.210   3.448   3.730
 2991TIP3    H1 8934  -0.220   3.388   3.806
 2991TIP3    H2 8935  -0.116   3.473   3.737
 2992TIP3   OH2 8936   0.706   3.844   3.110
 2992TIP3    H1 8937   0.700   3.771   3.173
 2992TIP3    H2 8938   0.744   3.916   3.164
 2993TIP3   OH2 8939  -0.199   3.820   3.588
 2993TIP3    H1 8940  -0.204   3.723   3.578
 2993TIP3    H2 8941  -0.114   3.840   3.545
 2994TIP3   OH2 8942   0.362   4.304   3.123
 2994TIP3    H1 8943   0.402   4.230   3.073
 2994TIP3    H2 8944   0.347   4.264   3.210
 2995TIP3   OH2 8945   0.267   3.770   3.470
 2995TIP3    H1 8946   0.305   3.686   3.437
 2995TIP3    H2 8947   0.350   3.814   3.498
 2996TIP3   OH2 8948   1.282   3.084   3.468
 2996TIP3    H1 8949   1.311   3.167   3.512
 2996TIP3    H2 8950   1.309   3.101   3.376
 2997TIP3   OH2 8951   0.674   3.270   3.503
 2997TIP3    H1 8952   0.718   3.186   3.529
 2997TIP3    H2 8953   0.643   3.247   3.413
 2998TIP3   OH2 8954   0.021   2.923   3.469
 2998TIP3    H1 8955   0.000   2.992   3.404
 2998TIP3    H2 8956  -0.016   2.843   3.426
 2999TIP3   OH2 8957   0.710   3.019   3.087
 2999TIP3    H1 8958   0.778   3.001   3.156
 2999TIP3    H2 8959   0.768   3.050   3.015
 3000TIP3   OH2 8960  -0.332   3.125   3.577
 3000TIP3    H1 8961  -0.238   3.110   3.601
 3000TIP3    H2 8962  -0.365   3.034   3.576
 3001TIP3   OH2 8963   0.095   3.324   3.356
 3001TIP3    H1 8964   0.188   3.298   3.376
 3001TIP3    H2 8965   0.054   3.238   3.334
 3002TIP3   OH2 8966   1.353   3.292   3.640
 3002TIP3    H1 8967   1.266   3.334   3.626
 3002TIP3    H2 8968   1.377   3.328   3.727
 3003TIP3   OH2 8969   0.014   2.904   3.904
 3003TIP3    H1 8970  -0.047   2.946   3.840
 3003TIP3    H2 8971  -0.034   2.915   3.988
 3004TIP3   OH2 8972   0.363   3.771   2.939
 3004TIP3    H1 8973   0.309   3.739   2.868
 3004TIP3    H2 8974   0.319   3.856   2.958
 3005TIP3   OH2 8975   0.120   3.686   3.695
 3005TIP3    H1 8976   0.064   3.740   3.755
 3005TIP3    H2 8977   0.150   3.750   3.629
 3006TIP3   OH2 8978   0.911   3.023   3.267
 3006TIP3    H1 8979   0.910   2.969   3.346
 3006TIP3    H2 8980   0.967   3.099   3.294
 3007TIP3   OH2 8981  -0.103   3.026   3.689
 3007TIP3    H1 8982  -0.036   3.094   3.711
 3007TIP3    H2 8983  -0.057   2.978   3.616
 3008TIP3   OH2 8984  -0.052   3.832   3.860
 3008TIP3    H1 8985  -0.073   3.916   3.813
 3008TIP3    H2 8986  -0.141   3.796   3.874
 3009TIP3   OH2 8987   0.776   4.087   3.272
 3009TIP3    H1 8988   0.685   4.078   3.309
 3009TIP3    H2 8989   0.769   4.174   3.227
 3010TIP3   OH2 8990   1.066   3.011   3.639
 3010TIP3    H1 8991   0.978   3.025   3.600
 3010TIP3    H2 8992   1.126   3.031   3.564
 3011TIP3   OH2 8993   0.343   2.628   3.588
 3011TIP3    H1 8994   0.359   2.542   3.630
 3011TIP3    H2 8995   0.278   2.666   3.650
 3012TIP3   OH2 8996   0.474   4.126   2.942
 3012TIP3    H1 8997   0.525   4.044   2.924
 3012TIP3    H2 8998   0.538   4.192   2.906
 3013TIP3   OH2 8999   0.624   3.914   2.857
 3013TIP3    H1 9000   0.607   3.831   2.812
 3013TIP3    H2 9001   0.657   3.883   2.944
 3014TIP3   OH2 9002   0.996   3.995   3.617
 3014TIP3    H1 9003   0.992   3.919   3.556
 3014TIP3    H2 9004   0.988   4.071   3.555
 3015TIP3   OH2 9005   0.285   3.418   2.856
 3015TIP3    H1 9006   0.211   3.357   2.846
 3015TIP3    H2 9007   0.347   3.389   2.786
 3016TIP3   OH2 9008   0.256   3.179   2.593
 3016TIP3    H1 9009   0.331   3.230   2.630
 3016TIP3    H2 9010   0.307   3.111   2.543
 3017TIP3   OH2 9011   1.196   3.633   3.462
 3017TIP3    H1 9012   1.114   3.686   3.466
 3017TIP3    H2 9013   1.229   3.658   3.373
 3018TIP3   OH2 9014   0.643   3.470   2.844
 3018TIP3    H1 9015   0.593   3.494   2.926
 3018TIP3    H2 9016   0.729   3.444   2.884
 3019TIP3   OH2 9017   0.878   3.509   3.764
 3019TIP3    H1 9018   0.877   3.588   3.821
 3019TIP3    H2 9019   0.792   3.517   3.718
 3020TIP3   OH2 9020  -0.117   3.465   3.260
 3020TIP3    H1 9021  -0.147   3.406   3.189
 3020TIP3    H2 9022  -0.038   3.417   3.293
 3021TIP3   OH2 9023   0.008   3.857   3.412
 3021TIP3    H1 9024  -0.004   3.838   3.318
 3021TIP3    H2 9025   0.102   3.832   3.426
 3022TIP3   OH2 9026   0.050   3.436   3.609
 3022TIP3    H1 9027   0.074   3.414   3.517
 3022TIP3    H2 9028   0.086   3.526   3.621
 3023TIP3   OH2 9029   0.535   4.078   3.395
 3023TIP3    H1 9030   0.518   4.164   3.438
 3023TIP3    H2 9031   0.512   4.013   3.464
 3024TIP3   OH2 9032   0.188   4.026   3.926
 3024TIP3    H1 9033   0.142   4.058   4.004
 3024TIP3    H2 9034   0.121   3.969   3.885
 3025TIP3   OH2 9035   0.470   3.343   2.672
 3025TIP3    H1 9036   0.538   3.392   2.723
 3025TIP3    H2 9037   0.503   3.360   2.579
 3026TIP3   OH2 9038  -0.074   3.556   4.037
 3026TIP3    H1 9039  -0.090   3.640   4.081
 3026TIP3    H2 9040  -0.165   3.525   4.018
 3027TIP3   OH2 9041   0.227   4.010   2.932
 3027TIP3    H1 9042   0.311   4.058   2.946
 3027TIP3    H2 9043   0.165   4.083   2.914
 3028TIP3   OH2 9044   1.002   2.573   2.724
 3028TIP3    H1 9045   0.917   2.593   2.769
 3028TIP3    H2 9046   1.014   2.655   2.670
 3029TIP3   OH2 9047  -0.238   3.317   3.039
 3029TIP3    H1 9048  -0.317   3.374   3.035
 3029TIP3    H2 9049  -0.273   3.247   3.097
 3030TIP3   OH2 9050   0.802   3.937   2.274
 3030TIP3    H1 9051   0.812   4.033   2.255
 3030TIP3    H2 9052   0.894   3.906   2.259
 3031TIP3   OH2 9053   1.239   4.341   3.661
 3031TIP3    H1 9054   1.241   4.246   3.680
 3031TIP3    H2 9055   1.157   4.367   3.710
 3032TIP3   OH2 9056   0.109   4.249   2.753
 3032TIP3    H1 9057   0.066   4.245   2.666
 3032TIP3    H2 9058   0.083   4.338   2.785
 3033TIP3   OH2 9059   0.308   4.156   2.389
 3033TIP3    H1 9060   0.367   4.088   2.349
 3033TIP3    H2 9061   0.348   4.168   2.477
 3034TIP3   OH2 9062   0.360   4.205   2.660
 3034TIP3    H1 9063   0.274   4.213   2.706
 3034TIP3    H2 9064   0.418   4.174   2.731
 3035TIP3   OH2 9065   1.129   3.465   3.939
 3035TIP3    H1 9066   1.047   3.473   3.889
 3035TIP3    H2 9067   1.148   3.370   3.931
 3036TIP3   OH2 9068   0.126   2.701   3.751
 3036TIP3    H1 9069   0.038   2.668   3.722
 3036TIP3    H2 9070   0.098   2.779   3.802
 3037TIP3   OH2 9071   0.665   2.831   3.951
 3037TIP3    H1 9072   0.731   2.789   4.011
 3037TIP3    H2 9073   0.581   2.792   3.981
 3038TIP3   OH2 9074   0.897   3.247   3.863
 3038TIP3    H1 9075   0.846   3.244   3.948
 3038TIP3    H2 9076   0.874   3.335   3.828
 3039TIP3   OH2 9077   0.556   3.388   2.422
 3039TIP3    H1 9078   0.523   3.356   2.336
 3039TIP3    H2 9079   0.646   3.417   2.396
 3040TIP3   OH2 9080   0.261   2.759   2.714
 3040TIP3    H1 9081   0.233   2.745   2.806
 3040TIP3    H2 9082   0.232   2.674   2.673
 3041TIP3   OH2 9083   0.071   3.218   3.765
 3041TIP3    H1 9084   0.017   3.240   3.844
 3041TIP3    H2 9085   0.063   3.300   3.711
 3042TIP3   OH2 9086  -0.063   3.104   3.281
 3042TIP3    H1 9087  -0.152   3.069   3.299
 3042TIP3    H2 9088  -0.047   3.064   3.193
 3043TIP3   OH2 9089   0.430   3.192   3.006
 3043TIP3    H1 9090   0.401   3.275   2.966
 3043TIP3    H2 9091   0.491   3.157   2.938
 3044TIP3   OH2 9092   0.609   3.465   4.092
 3044TIP3    H1 9093   0.586   3.393   4.156
 3044TIP3    H2 9094   0.703   3.479   4.117
 3045TIP3   OH2 9095   0.590   3.216   3.246
 3045TIP3    H1 9096   0.526   3.239   3.176
 3045TIP3    H2 9097   0.629   3.136   3.204
 3046TIP3   OH2 9098  -0.115   3.224   3.973
 3046TIP3    H1 9099  -0.081   3.299   4.025
 3046TIP3    H2 9100  -0.105   3.151   4.036
 3047TIP3   OH2 9101  -0.064   2.724   2.694
 3047TIP3    H1 9102  -0.070   2.724   2.792
 3047TIP3    H2 9103  -0.153   2.753   2.668
 3048TIP3   OH2 9104   0.594   3.467   3.667
 3048TIP3    H1 9105   0.630   3.396   3.609
 3048TIP3    H2 9106   0.569   3.412   3.745
 3049TIP3   OH2 9107   0.273   2.940   3.343
 3049TIP3    H1 9108   0.198   2.928   3.404
 3049TIP3    H2 9109   0.349   2.913   3.398
 3050TIP3   OH2 9110  -0.283   2.933   3.324
 3050TIP3    H1 9111  -0.359   2.874   3.319
 3050TIP3    H2 9112  -0.211   2.866   3.330
 3051TIP3   OH2 9113  -0.032   2.978   3.040
 3051TIP3    H1 9114   0.066   2.985   3.031
 3051TIP3    H2 9115  -0.065   3.005   2.953
 3052TIP3   OH2 9116   0.763   3.010   3.548
 3052TIP3    H1 9117   0.729   3.019   3.639
 3052TIP3    H2 9118   0.703   2.943   3.512
 3053TIP3   OH2 9119  -0.211   3.014   2.789
 3053TIP3    H1 9120  -0.237   2.955   2.715
 3053TIP3    H2 9121  -0.138   3.061   2.745
 3054TIP3   OH2 9122   0.935   4.692   3.765
 3054TIP3    H1 9123   0.936   4.716   3.671
 3054TIP3    H2 9124   1.016   4.736   3.798
 3055TIP3   OH2 9125   0.349   3.259   3.442
 3055TIP3    H1 9126   0.421   3.213   3.397
 3055TIP3    H2 9127   0.350   3.215   3.530
 3056TIP3   OH2 9128  -0.104   2.726   3.324
 3056TIP3    H1 9129  -0.148   2.654   3.374
 3056TIP3    H2 9130  -0.042   2.675   3.269
 3057TIP3   OH2 9131   0.334   3.162   3.714
 3057TIP3    H1 9132   0.243   3.188   3.739
 3057TIP3    H2 9133   0.390   3.214   3.775
 3058TIP3   OH2 9134   0.963   3.782   3.449
 3058TIP3    H1 9135   0.990   3.831   3.368
 3058TIP3    H2 9136   0.881   3.737   3.421
 3059TIP3   OH2 9137   0.521   2.852   2.697
 3059TIP3    H1 9138   0.424   2.834   2.701
 3059TIP3    H2 9139   0.528   2.947   2.717
 3060TIP3   OH2 9140   0.593   3.108   2.794
 3060TIP3    H1 9141   0.688   3.101   2.814
 3060TIP3    H2 9142   0.591   3.181   2.730
 3061TIP3   OH2 9143  -0.245   3.564   3.486
 3061TIP3    H1 9144  -0.189   3.520   3.419
 3061TIP3    H2 9145  -0.234   3.506   3.565
 3062TIP3   OH2 9146   0.118   3.639   2.675
 3062TIP3    H1 9147   0.114   3.738   2.666
 3062TIP3    H2 9148   0.204   3.628   2.719
 3063TIP3   OH2 9149   0.372   3.597   4.133
 3063TIP3    H1 9150   0.309   3.533   4.096
 3063TIP3    H2 9151   0.458   3.559   4.104
 3064TIP3   OH2 9152   1.028   3.196   2.628
 3064TIP3    H1 9153   0.965   3.153   2.565
 3064TIP3    H2 9154   1.030   3.285   2.586
 3065TIP3   OH2 9155   1.250   4.052   3.706
 3065TIP3    H1 9156   1.152   4.044   3.699
 3065TIP3    H2 9157   1.276   4.022   3.616
 3066TIP3   OH2 9158   0.726   4.014   2.533
 3066TIP3    H1 9159   0.718   3.941   2.596
 3066TIP3    H2 9160   0.749   3.969   2.449
 3067TIP3   OH2 9161   0.725   3.645   3.365
 3067TIP3    H1 9162   0.635   3.613   3.382
 3067TIP3    H2 9163   0.765   3.565   3.325
 3068TIP3   OH2 9164  -0.142   3.870   3.118
 3068TIP3    H1 9165  -0.152   3.951   3.065
 3068TIP3    H2 9166  -0.235   3.847   3.134
 3069TIP3   OH2 9167   0.002   3.636   3.063
 3069TIP3    H1 9168  -0.038   3.723   3.081
 3069TIP3    H2 9169  -0.029   3.583   3.138
 3070TIP3   OH2 9170   0.123   4.225   3.590
 3070TIP3    H1 9171   0.161   4.289   3.526
 3070TIP3    H2 9172   0.189   4.230   3.660
 3071TIP3   OH2 9173  -0.227   4.106   2.982
 3071TIP3    H1 9174  -0.315   4.143   2.967
 3071TIP3    H2 9175  -0.175   4.189   2.987
 3072TIP3   OH2 9176   0.525   3.842   3.560
 3072TIP3    H1 9177   0.556   3.815   3.648
 3072TIP3    H2 9178   0.595   3.805   3.505
 3073TIP3   OH2 9179   0.501   3.743   2.439
 3073TIP3    H1 9180   0.559   3.723   2.517
 3073TIP3    H2 9181   0.428   3.682   2.454
 3074TIP3   OH2 9182   0.763   4.376   3.596
 3074TIP3    H1 9183   0.675   4.336   3.584
 3074TIP3    H2 9184   0.758   4.448   3.529
 3075TIP3   OH2 9185   0.832   4.214   2.256
 3075TIP3    H1 9186   0.873   4.289   2.210
 3075TIP3    H2 9187   0.749   4.259   2.286
 3076TIP3   OH2 9188  -0.132   2.943   4.136
 3076TIP3    H1 9189  -0.213   2.889   4.143
 3076TIP3    H2 9190  -0.080   2.908   4.212
 3077TIP3   OH2 9191   0.652   3.675   2.658
 3077TIP3    H1 9192   0.645   3.605   2.726
 3077TIP3    H2 9193   0.749   3.671   2.642
 3078TIP3   OH2 9194   0.685   3.061   3.807
 3078TIP3    H1 9195   0.771   3.094   3.840
 3078TIP3    H2 9196   0.673   2.980   3.861
 3079TIP3   OH2 9197   0.562   2.807   2.975
 3079TIP3    H1 9198   0.558   2.824   2.879
 3079TIP3    H2 9199   0.608   2.887   3.009
 3080TIP3   OH2 9200   0.065   3.904   2.627
 3080TIP3    H1 9201  -0.022   3.926   2.669
 3080TIP3    H2 9202   0.101   3.994   2.621
 3081TIP3   OH2 9203   0.244   2.994   3.075
 3081TIP3    H1 9204   0.315   3.060   3.058
 3081TIP3    H2 9205   0.257   2.978   3.172
 3082TIP3   OH2 9206   0.527   3.304   3.874
 3082TIP3    H1 9207   0.553   3.351   3.956
 3082TIP3    H2 9208   0.579   3.221   3.881
 3083TIP3   OH2 9209   0.398   2.705   3.171
 3083TIP3    H1 9210   0.418   2.768   3.243
 3083TIP3    H2 9211   0.457   2.740   3.100
 3084TIP3   OH2 9212  -0.176   3.990   2.720
 3084TIP3    H1 9213  -0.232   4.054   2.673
 3084TIP3    H2 9214  -0.198   4.013   2.812
 3085TIP3   OH2 9215  -0.087   2.713   2.965
 3085TIP3    H1 9216  -0.081   2.800   3.009
 3085TIP3    H2 9217   0.006   2.685   2.973
 3086TIP3   OH2 9218   1.162   3.198   3.860
 3086TIP3    H1 9219   1.065   3.201   3.869
 3086TIP3    H2 9220   1.168   3.151   3.775
 3087TIP3   OH2 9221   0.816   3.402   3.249
 3087TIP3    H1 9222   0.742   3.340   3.262
 3087TIP3    H2 9223   0.889   3.356   3.295
 3088TIP3   OH2 9224  -0.477   2.885   2.739
 3088TIP3    H1 9225  -0.410   2.932   2.792
 3088TIP3    H2 9226  -0.517   2.831   2.811
 3089TIP3   OH2 9227   0.785   4.357   3.194
 3089TIP3    H1 9228   0.743   4.404   3.119
 3089TIP3    H2 9229   0.880   4.377   3.175
 3090TIP3   OH2 9230  -0.140   2.620   3.723
 3090TIP3    H1 9231  -0.170   2.586   3.636
 3090TIP3    H2 9232  -0.149   2.541   3.780
 3091TIP3   OH2 9233   0.027   3.924   2.340
 3091TIP3    H1 9234   0.043   3.876   2.423
 3091TIP3    H2 9235   0.099   3.888   2.284
 3092TIP3   OH2 9236   0.673   4.239   3.937
 3092TIP3    H1 9237   0.664   4.179   4.013
 3092TIP3    H2 9238   0.746   4.296   3.965
 3093TIP3   OH2 9239   0.453   3.959   2.259
 3093TIP3    H1 9240   0.503   3.903   2.321
 3093TIP3    H2 9241   0.510   3.959   2.179
 3094TIP3   OH2 9242  -0.306   3.432   2.579
 3094TIP3    H1 9243  -0.259   3.385   2.649
 3094TIP3    H2 9244  -0.249   3.416   2.501
 3095TIP3   OH2 9245   0.308   3.861   4.141
 3095TIP3    H1 9246   0.273   3.857   4.051
 3095TIP3    H2 9247   0.353   3.773   4.146
 3096TIP3   OH2 9248   0.154   3.635   2.386
 3096TIP3    H1 9249   0.168   3.626   2.481
 3096TIP3    H2 9250   0.158   3.541   2.359
 3097TIP3   OH2 9251   0.783   3.884   3.755
 3097TIP3    H1 9252   0.863   3.913   3.706
 3097TIP3    H2 9253   0.744   3.968   3.780
 3098TIP3   OH2 9254  -0.113   3.370   2.764
 3098TIP3    H1 9255  -0.151   3.348   2.852
 3098TIP3    H2 9256  -0.089   3.279   2.733
 3099TIP3   OH2 9257   0.146   3.399   4.013
 3099TIP3    H1 9258   0.075   3.466   4.024
 3099TIP3    H2 9259   0.201   3.442   3.943
 3100TIP3   OH2 9260  -0.024   3.142   2.635
 3100TIP3    H1 9261  -0.050   3.129   2.542
 3100TIP3    H2 9262   0.074   3.133   2.627
 3101TIP3   OH2 9263   0.671   3.815   4.159
 3101TIP3    H1 9264   0.751   3.780   4.118
 3101TIP3    H2 9265   0.655   3.749   4.229
 3102TIP3   OH2 9266   0.788   3.469   2.301
 3102TIP3    H1 9267   0.776   3.422   2.216
 3102TIP3    H2 9268   0.755   3.558   2.274
 3103TIP3   OH2 9269   0.275   3.190   4.129
 3103TIP3    H1 9270   0.276   3.111   4.070
 3103TIP3    H2 9271   0.229   3.257   4.074
 3104TIP3   OH2 9272   0.270   2.987   3.945
 3104TIP3    H1 9273   0.301   3.019   3.858
 3104TIP3    H2 9274   0.178   2.960   3.925
 3105TIP3   OH2 9275   0.294   3.521   3.829
 3105TIP3    H1 9276   0.376   3.514   3.780
 3105TIP3    H2 9277   0.240   3.583   3.774
 3106TIP3   OH2 9278   0.876   3.484   4.205
 3106TIP3    H1 9279   0.919   3.398   4.215
 3106TIP3    H2 9280   0.949   3.538   4.172
 3107TIP3   OH2 9281   0.919   3.736   3.939
 3107TIP3    H1 9282   0.861   3.789   3.881
 3107TIP3    H2 9283   1.007   3.759   3.901
 3108TIP3   OH2 9284   0.169   3.309   4.351
 3108TIP3    H1 9285   0.096   3.252   4.381
 3108TIP3    H2 9286   0.198   3.265   4.269
 3109TIP3   OH2 9287   0.399   2.754   4.036
 3109TIP3    H1 9288   0.349   2.831   4.002
 3109TIP3    H2 9289   0.344   2.679   4.007
 3110TIP3   OH2 9290   0.526   3.250   4.238
 3110TIP3    H1 9291   0.510   3.235   4.333
 3110TIP3    H2 9292   0.439   3.222   4.202
 3111TIP3   OH2 9293   0.766   3.206   4.095
 3111TIP3    H1 9294   0.691   3.202   4.157
 3111TIP3    H2 9295   0.840   3.171   4.148
 3112TIP3   OH2 9296   0.995   3.143   4.241
 3112TIP3    H1 9297   1.005   3.046   4.255
 3112TIP3    H2 9298   0.991   3.178   4.332
 3113TIP3   OH2 9299  -0.006   3.095   4.426
 3113TIP3    H1 9300  -0.019   3.004   4.394
 3113TIP3    H2 9301   0.029   3.077   4.515
 3114TIP3   OH2 9302   0.490   2.753   4.291
 3114TIP3    H1 9303   0.558   2.683   4.278
 3114TIP3    H2 9304   0.453   2.756   4.199
 3115TIP3   OH2 9305   0.562   2.971   4.441
 3115TIP3    H1 9306   0.541   2.899   4.378
 3115TIP3    H2 9307   0.483   3.028   4.433
 3116TIP3   OH2 9308  -0.216   4.203   2.523
 3116TIP3    H1 9309  -0.120   4.186   2.525
 3116TIP3    H2 9310  -0.225   4.242   2.434
 3117TIP3   OH2 9311   1.037   4.454   3.156
 3117TIP3    H1 9312   1.069   4.477   3.245
 3117TIP3    H2 9313   1.111   4.480   3.099
 3118TIP3   OH2 9314   1.070   4.466   3.438
 3118TIP3    H1 9315   1.027   4.378   3.433
 3118TIP3    H2 9316   1.145   4.443   3.496
 3119TIP3   OH2 9317   1.110   4.142   4.008
 3119TIP3    H1 9318   1.041   4.152   4.077
 3119TIP3    H2 9319   1.156   4.229   4.013
 3120TIP3   OH2 9320   0.927   3.658   2.630
 3120TIP3    H1 9321   0.995   3.720   2.597
 3120TIP3    H2 9322   0.973   3.620   2.708
 3121TIP3   OH2 9323   1.056   3.526   2.834
 3121TIP3    H1 9324   0.993   3.482   2.895
 3121TIP3    H2 9325   1.126   3.557   2.894
 3122TIP3   OH2 9326   1.109   3.914   3.257
 3122TIP3    H1 9327   1.168   3.846   3.218
 3122TIP3    H2 9328   1.113   3.986   3.192
 3123TIP3   OH2 9329   0.945   4.217   3.456
 3123TIP3    H1 9330   0.873   4.260   3.506
 3123TIP3    H2 9331   0.896   4.170   3.385
 3124TIP3   OH2 9332   0.996   3.433   2.479
 3124TIP3    H1 9333   0.924   3.432   2.412
 3124TIP3    H2 9334   0.966   3.508   2.534
 3125TIP3   OH2 9335   0.854   3.110   2.437
 3125TIP3    H1 9336   0.834   3.128   2.344
 3125TIP3    H2 9337   0.835   3.014   2.440
 3126TIP3   OH2 9338   0.868   3.380   2.978
 3126TIP3    H1 9339   0.881   3.284   2.969
 3126TIP3    H2 9340   0.856   3.391   3.075
 3127TIP3   OH2 9341   1.163   3.807   3.834
 3127TIP3    H1 9342   1.232   3.737   3.828
 3127TIP3    H2 9343   1.199   3.875   3.774
 3128TIP3   OH2 9344   1.342   3.607   3.849
 3128TIP3    H1 9345   1.271   3.551   3.888
 3128TIP3    H2 9346   1.420   3.549   3.862
 3129TIP3   OH2 9347   0.806   2.844   2.433
 3129TIP3    H1 9348   0.886   2.808   2.476
 3129TIP3    H2 9349   0.747   2.768   2.430
 3130TIP3   OH2 9350   0.868   3.095   2.867
 3130TIP3    H1 9351   0.907   3.006   2.884
 3130TIP3    H2 9352   0.927   3.126   2.796
 3131TIP3   OH2 9353   1.028   3.269   3.367
 3131TIP3    H1 9354   1.114   3.293   3.325
 3131TIP3    H2 9355   1.044   3.303   3.457
 3132TIP3   OH2 9356   1.101   3.412   3.598
 3132TIP3    H1 9357   1.025   3.447   3.648
 3132TIP3    H2 9358   1.135   3.493   3.554
 3133TIP3   OH2 9359   1.552   3.006   4.156
 3133TIP3    H1 9360   1.612   2.942   4.113
 3133TIP3    H2 9361   1.520   3.058   4.079
 3134TIP3   OH2 9362   0.971   2.848   2.913
 3134TIP3    H1 9363   1.024   2.831   2.994
 3134TIP3    H2 9364   0.914   2.768   2.911
 3135TIP3   OH2 9365  -0.326   2.836   3.702
 3135TIP3    H1 9366  -0.267   2.760   3.719
 3135TIP3    H2 9367  -0.276   2.908   3.743
 3136TIP3   OH2 9368   1.418   3.139   3.962
 3136TIP3    H1 9369   1.334   3.186   3.978
 3136TIP3    H2 9370   1.386   3.068   3.902
 3137TIP3   OH2 9371   1.057   2.786   2.551
 3137TIP3    H1 9372   1.098   2.720   2.491
 3137TIP3    H2 9373   1.123   2.859   2.548
 3138TIP3   OH2 9374   0.618   4.314   2.809
 3138TIP3    H1 9375   0.671   4.304   2.727
 3138TIP3    H2 9376   0.673   4.375   2.861
 3139TIP3   OH2 9377  -0.053   4.078   3.746
 3139TIP3    H1 9378  -0.074   4.159   3.797
 3139TIP3    H2 9379   0.018   4.113   3.689
 3140TIP3   OH2 9380   0.364   4.322   3.907
 3140TIP3    H1 9381   0.313   4.400   3.943
 3140TIP3    H2 9382   0.421   4.367   3.843
 3141TIP3   OH2 9383   0.513   4.536   3.750
 3141TIP3    H1 9384   0.590   4.491   3.712
 3141TIP3    H2 9385   0.558   4.596   3.813
 3142TIP3   OH2 9386   1.316   2.911   3.840
 3142TIP3    H1 9387   1.226   2.920   3.804
 3142TIP3    H2 9388   1.319   2.813   3.839
 3143TIP3   OH2 9389   0.248   4.411   3.425
 3143TIP3    H1 9390   0.183   4.426   3.354
 3143TIP3    H2 9391   0.253   4.500   3.466
 3144TIP3   OH2 9392   0.513   4.344   3.477
 3144TIP3    H1 9393   0.419   4.367   3.460
 3144TIP3    H2 9394   0.558   4.419   3.433
 3145TIP3   OH2 9395   0.713   4.543   3.387
 3145TIP3    H1 9396   0.699   4.627   3.339
 3145TIP3    H2 9397   0.741   4.483   3.314
 3146TIP3   OH2 9398  -0.005   4.181   3.326
 3146TIP3    H1 9399  -0.026   4.089   3.306
 3146TIP3    H2 9400   0.009   4.177   3.421
 3147TIP3   OH2 9401   0.509   2.812   3.436
 3147TIP3    H1 9402   0.470   2.745   3.496
 3147TIP3    H2 9403   0.595   2.772   3.413
 3148TIP3   OH2 9404   1.048   2.707   3.365
 3148TIP3    H1 9405   1.080   2.756   3.286
 3148TIP3    H2 9406   0.952   2.720   3.360
 3149TIP3   OH2 9407   1.141   2.803   3.125
 3149TIP3    H1 9408   1.215   2.751   3.088
 3149TIP3    H2 9409   1.176   2.894   3.110
 3150TIP3   OH2 9410  -0.229   2.526   3.468
 3150TIP3    H1 9411  -0.319   2.491   3.479
 3150TIP3    H2 9412  -0.177   2.443   3.470
 3151TIP3   OH2 9413  -0.467   2.425   3.124
 3151TIP3    H1 9414  -0.410   2.450   3.049
 3151TIP3    H2 9415  -0.434   2.483   3.193
 3152TIP3   OH2 9416   0.211   2.569   3.355
 3152TIP3    H1 9417   0.271   2.612   3.292
 3152TIP3    H2 9418   0.253   2.592   3.440
 3153TIP3   OH2 9419   0.760   2.708   3.343
 3153TIP3    H1 9420   0.773   2.663   3.258
 3153TIP3    H2 9421   0.748   2.631   3.403
 3154TIP3   OH2 9422   0.794   2.632   2.905
 3154TIP3    H1 9423   0.705   2.668   2.916
 3154TIP3    H2 9424   0.786   2.547   2.952
 3155TIP3   OH2 9425  -0.315   2.547   2.924
 3155TIP3    H1 9426  -0.280   2.497   2.850
 3155TIP3    H2 9427  -0.240   2.608   2.943
 3156TIP3   OH2 9428   0.190   2.740   2.982
 3156TIP3    H1 9429   0.247   2.687   3.041
 3156TIP3    H2 9430   0.216   2.830   3.011
 3157TIP3   OH2 9431   0.051   4.162   2.480
 3157TIP3    H1 9432   0.142   4.182   2.450
 3157TIP3    H2 9433   0.033   4.086   2.421
 3158TIP3   OH2 9434   0.766   4.280   2.578
 3158TIP3    H1 9435   0.756   4.182   2.567
 3158TIP3    H2 9436   0.724   4.311   2.495
 3159TIP3   OH2 9437  -0.021   2.817   4.357
 3159TIP3    H1 9438  -0.058   2.742   4.410
 3159TIP3    H2 9439   0.071   2.813   4.390
 3160TIP3   OH2 9440   0.227   2.807   4.485
 3160TIP3    H1 9441   0.312   2.788   4.441
 3160TIP3    H2 9442   0.220   2.731   4.546
 3161TIP3   OH2 9443   1.056   2.869   4.269
 3161TIP3    H1 9444   1.075   2.840   4.361
 3161TIP3    H2 9445   1.145   2.869   4.229
 3162TIP3   OH2 9446   0.993   4.422   3.762
 3162TIP3    H1 9447   0.914   4.390   3.716
 3162TIP3    H2 9448   0.972   4.517   3.772
 3163TIP3   OH2 9449   2.263   3.795   2.527
 3163TIP3    H1 9450   2.232   3.886   2.508
 3163TIP3    H2 9451   2.186   3.744   2.497
 3164TIP3   OH2 9452   2.257   3.795   2.917
 3164TIP3    H1 9453   2.296   3.774   3.005
 3164TIP3    H2 9454   2.219   3.710   2.892
 3165TIP3   OH2 9455   1.555   3.686   3.281
 3165TIP3    H1 9456   1.584   3.618   3.344
 3165TIP3    H2 9457   1.634   3.741   3.277
 3166TIP3   OH2 9458   2.505   4.102   2.597
 3166TIP3    H1 9459   2.491   4.031   2.661
 3166TIP3    H2 9460   2.535   4.175   2.653
 3167TIP3   OH2 9461   1.528   4.099   2.998
 3167TIP3    H1 9462   1.523   4.001   2.999
 3167TIP3    H2 9463   1.625   4.110   2.997
 3168TIP3   OH2 9464   1.238   3.300   2.781
 3168TIP3    H1 9465   1.190   3.383   2.799
 3168TIP3    H2 9466   1.166   3.247   2.741
 3169TIP3   OH2 9467   1.293   3.587   2.961
 3169TIP3    H1 9468   1.342   3.509   2.996
 3169TIP3    H2 9469   1.358   3.625   2.902
 3170TIP3   OH2 9470   2.154   4.566   2.615
 3170TIP3    H1 9471   2.196   4.489   2.570
 3170TIP3    H2 9472   2.145   4.533   2.706
 3171TIP3   OH2 9473   2.059   4.022   2.960
 3171TIP3    H1 9474   2.101   3.943   2.922
 3171TIP3    H2 9475   2.141   4.071   2.984
 3172TIP3   OH2 9476   3.074   3.344   2.958
 3172TIP3    H1 9477   3.103   3.424   3.006
 3172TIP3    H2 9478   3.094   3.369   2.866
 3173TIP3   OH2 9479   2.469   3.524   2.989
 3173TIP3    H1 9480   2.512   3.440   3.014
 3173TIP3    H2 9481   2.439   3.503   2.899
 3174TIP3   OH2 9482   1.812   3.181   2.956
 3174TIP3    H1 9483   1.793   3.254   2.894
 3174TIP3    H2 9484   1.764   3.108   2.912
 3175TIP3   OH2 9485   2.508   3.273   2.577
 3175TIP3    H1 9486   2.577   3.257   2.645
 3175TIP3    H2 9487   2.563   3.308   2.505
 3176TIP3   OH2 9488   1.443   3.383   3.063
 3176TIP3    H1 9489   1.526   3.366   3.112
 3176TIP3    H2 9490   1.459   3.327   2.984
 3177TIP3   OH2 9491   1.883   3.580   2.861
 3177TIP3    H1 9492   1.977   3.556   2.872
 3177TIP3    H2 9493   1.845   3.496   2.828
 3178TIP3   OH2 9494   3.148   3.553   3.124
 3178TIP3    H1 9495   3.060   3.595   3.110
 3178TIP3    H2 9496   3.160   3.572   3.218
 3179TIP3   OH2 9497   1.806   3.164   3.391
 3179TIP3    H1 9498   1.747   3.202   3.324
 3179TIP3    H2 9499   1.754   3.182   3.472
 3180TIP3   OH2 9500   2.150   4.017   2.397
 3180TIP3    H1 9501   2.108   4.000   2.312
 3180TIP3    H2 9502   2.104   4.098   2.426
 3181TIP3   OH2 9503   1.913   3.941   3.182
 3181TIP3    H1 9504   1.852   4.009   3.220
 3181TIP3    H2 9505   1.956   3.991   3.110
 3182TIP3   OH2 9506   2.711   3.277   2.758
 3182TIP3    H1 9507   2.689   3.241   2.845
 3182TIP3    H2 9508   2.763   3.356   2.782
 3183TIP3   OH2 9509   1.677   3.280   3.175
 3183TIP3    H1 9510   1.738   3.353   3.201
 3183TIP3    H2 9511   1.728   3.241   3.100
 3184TIP3   OH2 9512   1.736   4.136   3.279
 3184TIP3    H1 9513   1.716   4.226   3.247
 3184TIP3    H2 9514   1.657   4.120   3.336
 3185TIP3   OH2 9515   1.129   3.826   2.520
 3185TIP3    H1 9516   1.095   3.855   2.433
 3185TIP3    H2 9517   1.166   3.909   2.556
 3186TIP3   OH2 9518   2.567   4.343   2.759
 3186TIP3    H1 9519   2.480   4.338   2.806
 3186TIP3    H2 9520   2.560   4.430   2.716
 3187TIP3   OH2 9521   2.862   3.237   3.117
 3187TIP3    H1 9522   2.779   3.276   3.086
 3187TIP3    H2 9523   2.928   3.272   3.054
 3188TIP3   OH2 9524   2.157   2.883   3.105
 3188TIP3    H1 9525   2.142   2.789   3.124
 3188TIP3    H2 9526   2.081   2.923   3.154
 3189TIP3   OH2 9527   2.270   4.387   2.429
 3189TIP3    H1 9528   2.321   4.304   2.414
 3189TIP3    H2 9529   2.334   4.452   2.392
 3190TIP3   OH2 9530   2.419   4.172   2.345
 3190TIP3    H1 9531   2.378   4.092   2.310
 3190TIP3    H2 9532   2.457   4.140   2.430
 3191TIP3   OH2 9533   2.794   4.257   3.104
 3191TIP3    H1 9534   2.785   4.177   3.047
 3191TIP3    H2 9535   2.781   4.329   3.039
 3192TIP3   OH2 9536   2.091   3.646   2.363
 3192TIP3    H1 9537   2.012   3.700   2.341
 3192TIP3    H2 9538   2.138   3.643   2.278
 3193TIP3   OH2 9539   2.049   3.434   2.074
 3193TIP3    H1 9540   2.116   3.486   2.123
 3193TIP3    H2 9541   2.108   3.371   2.027
 3194TIP3   OH2 9542   2.995   3.892   2.948
 3194TIP3    H1 9543   2.911   3.942   2.955
 3194TIP3    H2 9544   3.024   3.918   2.858
 3195TIP3   OH2 9545   2.441   3.730   2.330
 3195TIP3    H1 9546   2.386   3.753   2.409
 3195TIP3    H2 9547   2.525   3.705   2.374
 3196TIP3   OH2 9548   2.673   3.760   3.250
 3196TIP3    H1 9549   2.679   3.838   3.309
 3196TIP3    H2 9550   2.588   3.777   3.206
 3197TIP3   OH2 9551   1.673   3.727   2.752
 3197TIP3    H1 9552   1.632   3.667   2.685
 3197TIP3    H2 9553   1.749   3.673   2.783
 3198TIP3   OH2 9554   1.801   4.138   2.899
 3198TIP3    H1 9555   1.785   4.099   2.812
 3198TIP3    H2 9556   1.891   4.105   2.919
 3199TIP3   OH2 9557   1.802   3.700   3.103
 3199TIP3    H1 9558   1.839   3.673   3.017
 3199TIP3    H2 9559   1.849   3.784   3.123
 3200TIP3   OH2 9560   2.332   4.340   2.896
 3200TIP3    H1 9561   2.307   4.402   2.968
 3200TIP3    H2 9562   2.315   4.254   2.939
 3201TIP3   OH2 9563   1.939   4.230   3.445
 3201TIP3    H1 9564   1.885   4.305   3.476
 3201TIP3    H2 9565   1.877   4.185   3.385
 3202TIP3   OH2 9566   2.277   3.590   2.160
 3202TIP3    H1 9567   2.337   3.649   2.210
 3202TIP3    H2 9568   2.304   3.610   2.067
 3203TIP3   OH2 9569   1.702   3.813   3.526
 3203TIP3    H1 9570   1.709   3.898   3.574
 3203TIP3    H2 9571   1.610   3.788   3.548
 3204TIP3   OH2 9572   2.024   4.264   2.434
 3204TIP3    H1 9573   2.108   4.314   2.444
 3204TIP3    H2 9574   1.965   4.330   2.396
 3205TIP3   OH2 9575   1.739   4.429   3.517
 3205TIP3    H1 9576   1.709   4.427   3.424
 3205TIP3    H2 9577   1.658   4.402   3.566
 3206TIP3   OH2 9578   2.795   2.826   2.209
 3206TIP3    H1 9579   2.713   2.848   2.258
 3206TIP3    H2 9580   2.811   2.909   2.160
 3207TIP3   OH2 9581   1.539   3.570   2.555
 3207TIP3    H1 9582   1.468   3.609   2.500
 3207TIP3    H2 9583   1.507   3.479   2.567
 3208TIP3   OH2 9584   2.596   4.193   1.757
 3208TIP3    H1 9585   2.605   4.290   1.742
 3208TIP3    H2 9586   2.688   4.163   1.745
 3209TIP3   OH2 9587   1.318   3.953   3.463
 3209TIP3    H1 9588   1.258   3.924   3.393
 3209TIP3    H2 9589   1.360   3.869   3.493
 3210TIP3   OH2 9590   1.176   4.147   3.092
 3210TIP3    H1 9591   1.271   4.130   3.079
 3210TIP3    H2 9592   1.179   4.220   3.155
 3211TIP3   OH2 9593   3.030   4.597   3.149
 3211TIP3    H1 9594   3.033   4.501   3.167
 3211TIP3    H2 9595   2.948   4.622   3.197
 3212TIP3   OH2 9596   1.906   4.511   2.237
 3212TIP3    H1 9597   1.859   4.493   2.153
 3212TIP3    H2 9598   1.871   4.598   2.263
 3213TIP3   OH2 9599   1.342   4.360   2.626
 3213TIP3    H1 9600   1.391   4.352   2.711
 3213TIP3    H2 9601   1.297   4.273   2.624
 3214TIP3   OH2 9602   2.105   4.414   1.877
 3214TIP3    H1 9603   2.163   4.344   1.841
 3214TIP3    H2 9604   2.140   4.424   1.968
 3215TIP3   OH2 9605   2.157   4.462   2.147
 3215TIP3    H1 9606   2.068   4.471   2.189
 3215TIP3    H2 9607   2.207   4.422   2.220
 3216TIP3   OH2 9608   2.927   3.731   3.413
 3216TIP3    H1 9609   2.836   3.733   3.379
 3216TIP3    H2 9610   2.947   3.635   3.412
 3217TIP3   OH2 9611   1.520   4.140   3.451
 3217TIP3    H1 9612   1.575   4.120   3.530
 3217TIP3    H2 9613   1.449   4.074   3.459
 3218TIP3   OH2 9614   1.922   2.958   3.239
 3218TIP3    H1 9615   1.834   2.930   3.208
 3218TIP3    H2 9616   1.897   3.040   3.287
 3219TIP3   OH2 9617   2.449   3.075   3.428
 3219TIP3    H1 9618   2.512   3.078   3.502
 3219TIP3    H2 9619   2.364   3.056   3.473
 3220TIP3   OH2 9620   2.689   3.499   3.345
 3220TIP3    H1 9621   2.643   3.497   3.432
 3220TIP3    H2 9622   2.672   3.590   3.314
 3221TIP3   OH2 9623   2.356   3.632   1.905
 3221TIP3    H1 9624   2.320   3.609   1.818
 3221TIP3    H2 9625   2.441   3.674   1.880
 3222TIP3   OH2 9626   2.068   3.006   2.208
 3222TIP3    H1 9627   2.033   3.002   2.300
 3222TIP3    H2 9628   2.027   2.925   2.172
 3223TIP3   OH2 9629   1.852   3.477   3.253
 3223TIP3    H1 9630   1.809   3.501   3.338
 3223TIP3    H2 9631   1.835   3.559   3.201
 3224TIP3   OH2 9632   1.737   3.362   2.768
 3224TIP3    H1 9633   1.645   3.334   2.788
 3224TIP3    H2 9634   1.750   3.320   2.680
 3225TIP3   OH2 9635   2.229   3.446   2.497
 3225TIP3    H1 9636   2.178   3.518   2.453
 3225TIP3    H2 9637   2.284   3.412   2.424
 3226TIP3   OH2 9638   2.408   3.730   3.584
 3226TIP3    H1 9639   2.391   3.652   3.641
 3226TIP3    H2 9640   2.504   3.745   3.605
 3227TIP3   OH2 9641   2.383   3.472   2.734
 3227TIP3    H1 9642   2.321   3.499   2.663
 3227TIP3    H2 9643   2.420   3.392   2.690
 3228TIP3   OH2 9644   1.672   3.505   3.467
 3228TIP3    H1 9645   1.716   3.563   3.531
 3228TIP3    H2 9646   1.663   3.422   3.518
 3229TIP3   OH2 9647   1.725   2.983   2.172
 3229TIP3    H1 9648   1.714   2.981   2.269
 3229TIP3    H2 9649   1.645   3.033   2.146
 3230TIP3   OH2 9650   1.265   3.028   3.044
 3230TIP3    H1 9651   1.342   3.059   3.096
 3230TIP3    H2 9652   1.304   2.995   2.962
 3231TIP3   OH2 9653   1.234   3.006   2.567
 3231TIP3    H1 9654   1.281   3.039   2.487
 3231TIP3    H2 9655   1.174   3.082   2.582
 3232TIP3   OH2 9656   2.385   3.720   3.153
 3232TIP3    H1 9657   2.425   3.650   3.096
 3232TIP3    H2 9658   2.363   3.666   3.232
 3233TIP3   OH2 9659   2.068   3.183   2.827
 3233TIP3    H1 9660   1.989   3.182   2.884
 3233TIP3    H2 9661   2.140   3.177   2.893
 3234TIP3   OH2 9662   1.500   3.240   2.836
 3234TIP3    H1 9663   1.406   3.246   2.807
 3234TIP3    H2 9664   1.523   3.148   2.814
 3235TIP3   OH2 9665   1.765   3.234   2.527
 3235TIP3    H1 9666   1.859   3.249   2.506
 3235TIP3    H2 9667   1.718   3.256   2.443
 3236TIP3   OH2 9668   2.553   3.262   3.024
 3236TIP3    H1 9669   2.529   3.274   3.119
 3236TIP3    H2 9670   2.484   3.200   2.996
 3237TIP3   OH2 9671   1.614   3.273   2.303
 3237TIP3    H1 9672   1.544   3.225   2.256
 3237TIP3    H2 9673   1.665   3.308   2.228
 3238TIP3   OH2 9674   2.731   4.949   3.254
 3238TIP3    H1 9675   2.727   4.967   3.158
 3238TIP3    H2 9676   2.814   4.992   3.279
 3239TIP3   OH2 9677   1.686   4.063   3.669
 3239TIP3    H1 9678   1.768   4.089   3.715
 3239TIP3    H2 9679   1.625   4.054   3.744
 3240TIP3   OH2 9680   2.147   3.513   2.925
 3240TIP3    H1 9681   2.223   3.476   2.878
 3240TIP3    H2 9682   2.154   3.470   3.013
 3241TIP3   OH2 9683   1.667   2.999   2.808
 3241TIP3    H1 9684   1.630   2.923   2.858
 3241TIP3    H2 9685   1.711   2.956   2.734
 3242TIP3   OH2 9686   2.125   3.413   3.218
 3242TIP3    H1 9687   2.036   3.450   3.233
 3242TIP3    H2 9688   2.183   3.474   3.268
 3243TIP3   OH2 9689   1.859   3.799   2.308
 3243TIP3    H1 9690   1.788   3.732   2.298
 3243TIP3    H2 9691   1.840   3.833   2.399
 3244TIP3   OH2 9692   2.761   4.037   2.938
 3244TIP3    H1 9693   2.784   4.088   2.857
 3244TIP3    H2 9694   2.677   3.993   2.912
 3245TIP3   OH2 9695   2.319   3.109   2.177
 3245TIP3    H1 9696   2.222   3.089   2.187
 3245TIP3    H2 9697   2.325   3.203   2.203
 3246TIP3   OH2 9698   2.274   4.131   3.302
 3246TIP3    H1 9699   2.293   4.093   3.389
 3246TIP3    H2 9700   2.223   4.210   3.324
 3247TIP3   OH2 9701   2.387   3.360   2.280
 3247TIP3    H1 9702   2.483   3.365   2.297
 3247TIP3    H2 9703   2.369   3.441   2.228
 3248TIP3   OH2 9704   1.552   3.821   2.984
 3248TIP3    H1 9705   1.592   3.792   2.900
 3248TIP3    H2 9706   1.602   3.768   3.048
 3249TIP3   OH2 9707   2.006   3.947   2.133
 3249TIP3    H1 9708   1.957   4.033   2.137
 3249TIP3    H2 9709   1.952   3.892   2.194
 3250TIP3   OH2 9710   1.437   3.749   3.605
 3250TIP3    H1 9711   1.471   3.736   3.696
 3250TIP3    H2 9712   1.377   3.673   3.596
 3251TIP3   OH2 9713   2.163   3.850   3.612
 3251TIP3    H1 9714   2.107   3.787   3.564
 3251TIP3    H2 9715   2.253   3.819   3.589
 3252TIP3   OH2 9716   2.828   3.452   2.113
 3252TIP3    H1 9717   2.766   3.409   2.050
 3252TIP3    H2 9718   2.825   3.543   2.075
 3253TIP3   OH2 9719   3.048   4.310   3.192
 3253TIP3    H1 9720   2.950   4.303   3.187
 3253TIP3    H2 9721   3.073   4.279   3.103
 3254TIP3   OH2 9722   2.532   4.269   2.023
 3254TIP3    H1 9723   2.505   4.200   2.086
 3254TIP3    H2 9724   2.544   4.220   1.940
 3255TIP3   OH2 9725   2.526   3.900   2.852
 3255TIP3    H1 9726   2.433   3.875   2.867
 3255TIP3    H2 9727   2.560   3.818   2.811
 3256TIP3   OH2 9728   1.657   4.126   2.610
 3256TIP3    H1 9729   1.654   4.207   2.556
 3256TIP3    H2 9730   1.564   4.108   2.624
 3257TIP3   OH2 9731   1.221   3.429   2.318
 3257TIP3    H1 9732   1.266   3.513   2.341
 3257TIP3    H2 9733   1.144   3.432   2.380
 3258TIP3   OH2 9734   1.787   3.888   2.552
 3258TIP3    H1 9735   1.755   3.978   2.573
 3258TIP3    H2 9736   1.756   3.837   2.628
 3259TIP3   OH2 9737   1.934   4.470   3.079
 3259TIP3    H1 9738   1.966   4.541   3.018
 3259TIP3    H2 9739   2.020   4.450   3.121
 3260TIP3   OH2 9740   1.570   4.369   2.461
 3260TIP3    H1 9741   1.487   4.376   2.511
 3260TIP3    H2 9742   1.603   4.462   2.467
 3261TIP3   OH2 9743   2.313   4.098   3.036
 3261TIP3    H1 9744   2.300   4.104   3.133
 3261TIP3    H2 9745   2.392   4.043   3.031
 3262TIP3   OH2 9746   2.290   4.001   1.924
 3262TIP3    H1 9747   2.344   3.974   2.001
 3262TIP3    H2 9748   2.203   3.968   1.952
 3263TIP3   OH2 9749   2.562   4.619   3.086
 3263TIP3    H1 9750   2.474   4.582   3.111
 3263TIP3    H2 9751   2.534   4.693   3.030
 3264TIP3   OH2 9752   2.627   4.470   1.741
 3264TIP3    H1 9753   2.664   4.544   1.691
 3264TIP3    H2 9754   2.546   4.512   1.776
 3265TIP3   OH2 9755   1.645   3.243   3.604
 3265TIP3    H1 9756   1.549   3.252   3.621
 3265TIP3    H2 9757   1.674   3.194   3.682
 3266TIP3   OH2 9758   2.451   3.930   2.136
 3266TIP3    H1 9759   2.439   3.865   2.209
 3266TIP3    H2 9760   2.548   3.925   2.126
 3267TIP3   OH2 9761   1.360   4.329   3.240
 3267TIP3    H1 9762   1.416   4.255   3.271
 3267TIP3    H2 9763   1.392   4.400   3.296
 3268TIP3   OH2 9764   1.650   3.977   1.924
 3268TIP3    H1 9765   1.665   3.885   1.897
 3268TIP3    H2 9766   1.630   3.966   2.019
 3269TIP3   OH2 9767   1.594   3.982   2.197
 3269TIP3    H1 9768   1.671   3.953   2.248
 3269TIP3    H2 9769   1.601   4.080   2.206
 3270TIP3   OH2 9770   1.330   3.673   2.400
 3270TIP3    H1 9771   1.263   3.718   2.456
 3270TIP3    H2 9772   1.346   3.741   2.332
 3271TIP3   OH2 9773   2.488   3.310   3.285
 3271TIP3    H1 9774   2.567   3.352   3.323
 3271TIP3    H2 9775   2.477   3.230   3.341
 3272TIP3   OH2 9776   2.368   3.058   2.460
 3272TIP3    H1 9777   2.353   3.081   2.366
 3272TIP3    H2 9778   2.406   3.141   2.496
 3273TIP3   OH2 9779   1.863   4.176   2.142
 3273TIP3    H1 9780   1.777   4.202   2.180
 3273TIP3    H2 9781   1.879   4.252   2.083
 3274TIP3   OH2 9782   2.048   3.245   2.559
 3274TIP3    H1 9783   2.113   3.317   2.543
 3274TIP3    H2 9784   2.055   3.234   2.656
 3275TIP3   OH2 9785   2.326   3.561   3.367
 3275TIP3    H1 9786   2.350   3.614   3.446
 3275TIP3    H2 9787   2.380   3.481   3.379
 3276TIP3   OH2 9788   2.194   2.962   2.657
 3276TIP3    H1 9789   2.192   3.037   2.720
 3276TIP3    H2 9790   2.257   2.996   2.590
 3277TIP3   OH2 9791   1.610   4.256   2.213
 3277TIP3    H1 9792   1.579   4.326   2.152
 3277TIP3    H2 9793   1.594   4.297   2.300
 3278TIP3   OH2 9794   1.710   2.969   2.449
 3278TIP3    H1 9795   1.707   3.059   2.488
 3278TIP3    H2 9796   1.806   2.952   2.457
 3279TIP3   OH2 9797   2.960   3.463   3.341
 3279TIP3    H1 9798   2.862   3.458   3.351
 3279TIP3    H2 9799   2.973   3.398   3.271
 3280TIP3   OH2 9800   2.612   3.655   2.733
 3280TIP3    H1 9801   2.536   3.596   2.749
 3280TIP3    H2 9802   2.684   3.609   2.782
 3281TIP3   OH2 9803   1.327   3.880   2.202
 3281TIP3    H1 9804   1.402   3.943   2.212
 3281TIP3    H2 9805   1.368   3.820   2.136
 3282TIP3   OH2 9806   1.267   3.158   2.342
 3282TIP3    H1 9807   1.264   3.256   2.335
 3282TIP3    H2 9808   1.200   3.131   2.278
 3283TIP3   OH2 9809   2.580   4.612   2.679
 3283TIP3    H1 9810   2.537   4.664   2.608
 3283TIP3    H2 9811   2.674   4.635   2.661
 3284TIP3   OH2 9812   1.657   2.882   3.207
 3284TIP3    H1 9813   1.627   2.847   3.120
 3284TIP3    H2 9814   1.649   2.803   3.265
 3285TIP3   OH2 9815   1.196   4.099   2.587
 3285TIP3    H1 9816   1.131   4.129   2.651
 3285TIP3    H2 9817   1.162   4.141   2.504
 3286TIP3   OH2 9818   1.355   4.645   3.661
 3286TIP3    H1 9819   1.441   4.647   3.708
 3286TIP3    H2 9820   1.338   4.549   3.661
 3287TIP3   OH2 9821   1.826   4.599   3.718
 3287TIP3    H1 9822   1.914   4.629   3.690
 3287TIP3    H2 9823   1.802   4.538   3.645
 3288TIP3   OH2 9824   1.815   4.178   1.833
 3288TIP3    H1 9825   1.760   4.107   1.872
 3288TIP3    H2 9826   1.891   4.127   1.801
 3289TIP3   OH2 9827   2.455   4.553   3.488
 3289TIP3    H1 9828   2.462   4.458   3.500
 3289TIP3    H2 9829   2.549   4.581   3.482
 3290TIP3   OH2 9830   2.251   4.218   1.748
 3290TIP3    H1 9831   2.289   4.152   1.810
 3290TIP3    H2 9832   2.310   4.212   1.671
 3291TIP3   OH2 9833   1.484   4.055   3.861
 3291TIP3    H1 9834   1.503   3.965   3.893
 3291TIP3    H2 9835   1.399   4.044   3.815
 3292TIP3   OH2 9836   1.461   3.694   2.060
 3292TIP3    H1 9837   1.518   3.661   2.132
 3292TIP3    H2 9838   1.528   3.699   1.987
 3293TIP3   OH2 9839   2.087   4.119   3.646
 3293TIP3    H1 9840   2.046   4.151   3.563
 3293TIP3    H2 9841   2.114   4.027   3.624
 3294TIP3   OH2 9842   1.974   3.896   1.864
 3294TIP3    H1 9843   1.978   3.907   1.962
 3294TIP3    H2 9844   1.977   3.798   1.857
 3295TIP3   OH2 9845   2.582   4.135   3.239
 3295TIP3    H1 9846   2.652   4.190   3.198
 3295TIP3    H2 9847   2.503   4.191   3.232
 3296TIP3   OH2 9848   1.615   3.769   3.834
 3296TIP3    H1 9849   1.699   3.721   3.820
 3296TIP3    H2 9850   1.631   3.804   3.925
 3297TIP3   OH2 9851   1.665   3.602   2.275
 3297TIP3    H1 9852   1.641   3.561   2.359
 3297TIP3    H2 9853   1.705   3.527   2.226
 3298TIP3   OH2 9854   1.938   3.654   3.500
 3298TIP3    H1 9855   1.865   3.719   3.508
 3298TIP3    H2 9856   1.991   3.693   3.426
 3299TIP3   OH2 9857   1.771   3.399   2.117
 3299TIP3    H1 9858   1.747   3.405   2.022
 3299TIP3    H2 9859   1.869   3.398   2.111
 3300TIP3   OH2 9860   2.470   4.068   3.616
 3300TIP3    H1 9861   2.566   4.065   3.601
 3300TIP3    H2 9862   2.462   4.011   3.694
 3301TIP3   OH2 9863   2.589   3.725   1.785
 3301TIP3    H1 9864   2.570   3.680   1.700
 3301TIP3    H2 9865   2.554   3.815   1.764
 3302TIP3   OH2 9866   2.067   3.452   3.639
 3302TIP3    H1 9867   2.068   3.376   3.577
 3302TIP3    H2 9868   2.019   3.519   3.585
 3303TIP3   OH2 9869   2.065   3.240   3.440
 3303TIP3    H1 9870   2.094   3.284   3.358
 3303TIP3    H2 9871   1.971   3.220   3.420
 3304TIP3   OH2 9872   2.088   3.772   3.311
 3304TIP3    H1 9873   2.175   3.785   3.271
 3304TIP3    H2 9874   2.033   3.838   3.265
 3305TIP3   OH2 9875   2.668   3.738   3.667
 3305TIP3    H1 9876   2.722   3.664   3.697
 3305TIP3    H2 9877   2.733   3.808   3.656
 3306TIP3   OH2 9878   2.719   3.979   3.408
 3306TIP3    H1 9879   2.659   4.037   3.356
 3306TIP3    H2 9880   2.806   4.007   3.372
 3307TIP3   OH2 9881   1.862   3.585   3.808
 3307TIP3    H1 9882   1.842   3.509   3.866
 3307TIP3    H2 9883   1.947   3.557   3.770
 3308TIP3   OH2 9884   2.193   3.003   3.513
 3308TIP3    H1 9885   2.143   3.084   3.488
 3308TIP3    H2 9886   2.125   2.934   3.500
 3309TIP3   OH2 9887   2.330   3.509   3.715
 3309TIP3    H1 9888   2.352   3.498   3.810
 3309TIP3    H2 9889   2.234   3.488   3.709
 3310TIP3   OH2 9890   2.563   3.446   3.578
 3310TIP3    H1 9891   2.489   3.458   3.641
 3310TIP3    H2 9892   2.639   3.430   3.637
 3311TIP3   OH2 9893   2.792   3.397   3.737
 3311TIP3    H1 9894   2.829   3.315   3.696
 3311TIP3    H2 9895   2.768   3.365   3.825
 3312TIP3   OH2 9896   1.773   3.342   3.927
 3312TIP3    H1 9897   1.781   3.252   3.889
 3312TIP3    H2 9898   1.807   3.326   4.017
 3313TIP3   OH2 9899   2.300   3.009   3.765
 3313TIP3    H1 9900   2.370   2.943   3.751
 3313TIP3    H2 9901   2.254   3.005   3.678
 3314TIP3   OH2 9902   2.320   3.217   3.938
 3314TIP3    H1 9903   2.324   3.140   3.877
 3314TIP3    H2 9904   2.274   3.281   3.882
 3315TIP3   OH2 9905   1.580   4.461   2.026
 3315TIP3    H1 9906   1.675   4.448   2.007
 3315TIP3    H2 9907   1.554   4.511   1.946
 3316TIP3   OH2 9908   1.058   3.839   2.239
 3316TIP3    H1 9909   1.153   3.860   2.223
 3316TIP3    H2 9910   1.052   3.749   2.199
 3317TIP3   OH2 9911   0.973   4.451   2.658
 3317TIP3    H1 9912   0.908   4.388   2.618
 3317TIP3    H2 9913   1.018   4.392   2.722
 3318TIP3   OH2 9914   1.106   4.298   2.844
 3318TIP3    H1 9915   1.099   4.227   2.910
 3318TIP3    H2 9916   1.162   4.361   2.894
 3319TIP3   OH2 9917   2.833   4.715   2.642
 3319TIP3    H1 9918   2.863   4.729   2.734
 3319TIP3    H2 9919   2.913   4.735   2.591
 3320TIP3   OH2 9920   2.874   4.720   2.923
 3320TIP3    H1 9921   2.819   4.638   2.920
 3320TIP3    H2 9922   2.943   4.690   2.985
 3321TIP3   OH2 9923   2.902   4.405   3.489
 3321TIP3    H1 9924   2.843   4.405   3.567
 3321TIP3    H2 9925   2.952   4.488   3.502
 3322TIP3   OH2 9926   2.728   3.911   2.116
 3322TIP3    H1 9927   2.795   3.975   2.086
 3322TIP3    H2 9928   2.772   3.873   2.196
 3323TIP3   OH2 9929   2.855   3.779   2.321
 3323TIP3    H1 9930   2.789   3.737   2.380
 3323TIP3    H2 9931   2.921   3.814   2.384
 3324TIP3   OH2 9932   2.911   4.173   2.749
 3324TIP3    H1 9933   2.965   4.104   2.706
 3324TIP3    H2 9934   2.904   4.241   2.680
 3325TIP3   OH2 9935   2.739   4.475   2.937
 3325TIP3    H1 9936   2.668   4.517   2.991
 3325TIP3    H2 9937   2.687   4.427   2.870
 3326TIP3   OH2 9938   2.793   3.687   1.965
 3326TIP3    H1 9939   2.720   3.689   1.898
 3326TIP3    H2 9940   2.764   3.762   2.021
 3327TIP3   OH2 9941   2.663   3.360   1.917
 3327TIP3    H1 9942   2.617   3.393   1.839
 3327TIP3    H2 9943   2.641   3.264   1.912
 3328TIP3   OH2 9944   2.667   3.638   2.465
 3328TIP3    H1 9945   2.676   3.541   2.458
 3328TIP3    H2 9946   2.652   3.650   2.561
 3329TIP3   OH2 9947   1.292   3.716   3.212
 3329TIP3    H1 9948   1.291   3.678   3.121
 3329TIP3    H2 9949   1.389   3.714   3.231
 3330TIP3   OH2 9950   2.961   4.062   3.315
 3330TIP3    H1 9951   3.031   3.993   3.311
 3330TIP3    H2 9952   2.997   4.132   3.258
 3331TIP3   OH2 9953   3.145   3.864   3.327
 3331TIP3    H1 9954   3.070   3.819   3.372
 3331TIP3    H2 9955   3.216   3.799   3.346
 3332TIP3   OH2 9956   2.607   3.094   1.902
 3332TIP3    H1 9957   2.679   3.061   1.959
 3332TIP3    H2 9958   2.532   3.035   1.923
 3333TIP3   OH2 9959   2.665   3.353   2.357
 3333TIP3    H1 9960   2.705   3.264   2.372
 3333TIP3    H2 9961   2.724   3.385   2.287
 3334TIP3   OH2 9962   2.823   3.522   2.852
 3334TIP3    H1 9963   2.909   3.546   2.812
 3334TIP3    H2 9964   2.837   3.560   2.941
 3335TIP3   OH2 9965   2.893   3.668   3.078
 3335TIP3    H1 9966   2.821   3.700   3.136
 3335TIP3    H2 9967   2.928   3.752   3.041
 3336TIP3   OH2 9968   1.506   3.388   3.874
 3336TIP3    H1 9969   1.603   3.397   3.887
 3336TIP3    H2 9970   1.490   3.305   3.922
 3337TIP3   OH2 9971   3.381   3.284   3.645
 3337TIP3    H1 9972   3.416   3.205   3.599
 3337TIP3    H2 9973   3.317   3.317   3.578
 3338TIP3   OH2 9974   2.774   3.103   2.396
 3338TIP3    H1 9975   2.822   3.088   2.480
 3338TIP3    H2 9976   2.713   3.027   2.396
 3339TIP3   OH2 9977   1.473   3.090   3.219
 3339TIP3    H1 9978   1.534   3.014   3.226
 3339TIP3    H2 9979   1.536   3.163   3.209
 3340TIP3   OH2 9980   1.272   3.362   3.286
 3340TIP3    H1 9981   1.324   3.359   3.203
 3340TIP3    H2 9982   1.312   3.437   3.331
 3341TIP3   OH2 9983   3.216   3.395   3.455
 3341TIP3    H1 9984   3.131   3.436   3.482
 3341TIP3    H2 9985   3.182   3.320   3.403
 3342TIP3   OH2 9986   2.851   3.034   2.032
 3342TIP3    H1 9987   2.891   2.964   1.976
 3342TIP3    H2 9988   2.919   3.104   2.030
 3343TIP3   OH2 9989   1.260   2.871   2.798
 3343TIP3    H1 9990   1.166   2.859   2.817
 3343TIP3    H2 9991   1.258   2.926   2.717
 3344TIP3   OH2 9992   2.417   4.575   2.297
 3344TIP3    H1 9993   2.468   4.560   2.214
 3344TIP3    H2 9994   2.479   4.629   2.349
 3345TIP3   OH2 9995   1.473   2.931   3.604
 3345TIP3    H1 9996   1.424   2.938   3.688
 3345TIP3    H2 9997   1.413   2.977   3.543
 3346TIP3   OH2 9998   1.517   4.382   3.684
 3346TIP3    H1 9999   1.428   4.349   3.663
 3346TIP3    H210000   1.532   4.344   3.772
 3347TIP3   OH210001   1.706   4.411   3.229
 3347TIP3    H110002   1.663   4.488   3.187
 3347TIP3    H210003   1.795   4.420   3.188
 3348TIP3   OH210004   2.137   4.678   3.381
 3348TIP3    H110005   2.210   4.659   3.441
 3348TIP3    H210006   2.164   4.624   3.303
 3349TIP3   OH210007   2.327   4.842   3.188
 3349TIP3    H110008   2.319   4.745   3.190
 3349TIP3    H210009   2.376   4.862   3.270
 3350TIP3   OH210010   3.123   3.170   3.317
 3350TIP3    H110011   3.041   3.168   3.369
 3350TIP3    H210012   3.148   3.076   3.316
 3351TIP3   OH210013   1.370   4.664   3.250
 3351TIP3    H110014   1.280   4.700   3.234
 3351TIP3    H210015   1.388   4.700   3.338
 3352TIP3   OH210016   1.610   4.643   3.114
 3352TIP3    H110017   1.521   4.653   3.155
 3352TIP3    H210018   1.593   4.670   3.022
 3353TIP3   OH210019   2.010   4.662   2.902
 3353TIP3    H110020   1.962   4.723   2.845
 3353TIP3    H210021   2.070   4.721   2.951
 3354TIP3   OH210022   2.546   4.813   2.879
 3354TIP3    H110023   2.497   4.881   2.831
 3354TIP3    H210024   2.544   4.738   2.816
 3355TIP3   OH210025   1.284   4.454   3.000
 3355TIP3    H110026   1.313   4.427   3.090
 3355TIP3    H210027   1.357   4.411   2.948
 3356TIP3   OH210028   1.481   4.329   2.859
 3356TIP3    H110029   1.496   4.244   2.907
 3356TIP3    H210030   1.573   4.364   2.856
 3357TIP3   OH210031   1.747   4.418   2.868
 3357TIP3    H110032   1.778   4.326   2.859
 3357TIP3    H210033   1.803   4.445   2.944
 3358TIP3   OH210034   2.317   3.076   2.941
 3358TIP3    H110035   2.278   3.005   2.995
 3358TIP3    H210036   2.396   3.033   2.903
 3359TIP3   OH210037   2.841   2.948   2.843
 3359TIP3    H110038   2.878   3.007   2.774
 3359TIP3    H210039   2.750   2.980   2.850
 3360TIP3   OH210040   2.939   3.058   2.612
 3360TIP3    H110041   3.014   3.007   2.575
 3360TIP3    H210042   2.972   3.150   2.599
 3361TIP3   OH210043   1.569   2.788   2.960
 3361TIP3    H110044   1.476   2.755   2.963
 3361TIP3    H210045   1.617   2.702   2.954
 3362TIP3   OH210046   1.384   2.658   2.622
 3362TIP3    H110047   1.388   2.707   2.538
 3362TIP3    H210048   1.343   2.723   2.682
 3363TIP3   OH210049   2.018   2.815   2.845
 3363TIP3    H110050   2.071   2.864   2.780
 3363TIP3    H210051   2.043   2.858   2.927
 3364TIP3   OH210052   2.551   2.967   2.827
 3364TIP3    H110053   2.561   2.926   2.740
 3364TIP3    H210054   2.542   2.887   2.885
 3365TIP3   OH210055   2.590   2.891   2.389
 3365TIP3    H110056   2.505   2.935   2.407
 3365TIP3    H210057   2.576   2.805   2.434
 3366TIP3   OH210058   1.073   4.231   2.388
 3366TIP3    H110059   0.987   4.198   2.354
 3366TIP3    H210060   1.063   4.325   2.367
 3367TIP3   OH210061   1.476   2.818   2.370
 3367TIP3    H110062   1.521   2.751   2.314
 3367TIP3    H210063   1.552   2.867   2.407
 3368TIP3   OH210064   1.986   2.994   2.472
 3368TIP3    H110065   2.047   2.947   2.532
 3368TIP3    H210066   2.007   3.086   2.497
 3369TIP3   OH210067   1.845   4.413   1.971
 3369TIP3    H110068   1.934   4.435   1.936
 3369TIP3    H210069   1.823   4.338   1.911
 3370TIP3   OH210070   2.566   4.536   2.066
 3370TIP3    H110071   2.559   4.438   2.057
 3370TIP3    H210072   2.519   4.564   1.985
 3371TIP3   OH210073   1.777   3.065   3.851
 3371TIP3    H110074   1.741   2.996   3.909
 3371TIP3    H210075   1.870   3.067   3.881
 3372TIP3   OH210076   2.027   3.066   3.970
 3372TIP3    H110077   2.115   3.042   3.937
 3372TIP3    H210078   2.012   2.997   4.038
 3373TIP3   OH210079   1.152   4.252   2.026
 3373TIP3    H110080   1.159   4.266   2.121
 3373TIP3    H210081   1.237   4.208   2.006
 3374TIP3   OH210082   2.785   4.678   3.249
 3374TIP3    H110083   2.708   4.644   3.197
 3374TIP3    H210084   2.760   4.772   3.258
 3375TIP3   OH210085   4.059   4.052   2.013
 3375TIP3    H110086   4.029   4.143   1.994
 3375TIP3    H210087   3.981   4.002   1.985
 3376TIP3   OH210088   4.057   4.051   2.402
 3376TIP3    H110089   4.093   4.031   2.491
 3376TIP3    H210090   4.015   3.967   2.379
 3377TIP3   OH210091   3.353   3.943   2.763
 3377TIP3    H110092   3.381   3.873   2.825
 3377TIP3    H210093   3.429   4.004   2.771
 3378TIP3   OH210094   4.303   4.356   2.083
 3378TIP3    H110095   4.285   4.287   2.149
 3378TIP3    H210096   4.332   4.430   2.139
 3379TIP3   OH210097   3.324   4.356   2.483
 3379TIP3    H110098   3.318   4.258   2.484
 3379TIP3    H210099   3.421   4.368   2.489
 3380TIP3   OH210100   3.036   3.557   2.267
 3380TIP3    H110101   2.988   3.640   2.289
 3380TIP3    H210102   2.963   3.505   2.228
 3381TIP3   OH210103   3.091   3.845   2.448
 3381TIP3    H110104   3.140   3.767   2.483
 3381TIP3    H210105   3.155   3.881   2.386
 3382TIP3   OH210106   3.953   4.818   2.100
 3382TIP3    H110107   3.995   4.745   2.049
 3382TIP3    H210108   3.943   4.777   2.187
 3383TIP3   OH210109   3.855   4.279   2.447
 3383TIP3    H110110   3.896   4.201   2.406
 3383TIP3    H210111   3.937   4.326   2.473
 3384TIP3   OH210112   4.871   3.598   2.449
 3384TIP3    H110113   4.899   3.680   2.495
 3384TIP3    H210114   4.888   3.622   2.356
 3385TIP3   OH210115   4.269   3.779   2.476
 3385TIP3    H110116   4.310   3.694   2.500
 3385TIP3    H210117   4.236   3.759   2.386
 3386TIP3   OH210118   3.610   3.438   2.442
 3386TIP3    H110119   3.588   3.511   2.380
 3386TIP3    H210120   3.560   3.365   2.400
 3387TIP3   OH210121   4.304   3.529   2.064
 3387TIP3    H110122   4.374   3.514   2.132
 3387TIP3    H210123   4.358   3.565   1.991
 3388TIP3   OH210124   3.241   3.641   2.550
 3388TIP3    H110125   3.322   3.622   2.600
 3388TIP3    H210126   3.256   3.584   2.472
 3389TIP3   OH210127   3.680   3.837   2.344
 3389TIP3    H110128   3.774   3.812   2.358
 3389TIP3    H210129   3.641   3.752   2.313
 3390TIP3   OH210130   4.941   3.805   2.618
 3390TIP3    H110131   4.857   3.853   2.606
 3390TIP3    H210132   4.963   3.828   2.710
 3391TIP3   OH210133   3.602   3.421   2.879
 3391TIP3    H110134   3.542   3.459   2.813
 3391TIP3    H210135   3.549   3.436   2.960
 3392TIP3   OH210136   3.948   4.274   1.883
 3392TIP3    H110137   3.903   4.258   1.799
 3392TIP3    H210138   3.902   4.355   1.913
 3393TIP3   OH210139   3.709   4.198   2.670
 3393TIP3    H110140   3.649   4.265   2.709
 3393TIP3    H210141   3.751   4.248   2.598
 3394TIP3   OH210142   4.508   3.533   2.244
 3394TIP3    H110143   4.483   3.497   2.330
 3394TIP3    H210144   4.558   3.613   2.270
 3395TIP3   OH210145   3.475   3.537   2.662
 3395TIP3    H110146   3.536   3.609   2.688
 3395TIP3    H210147   3.525   3.497   2.588
 3396TIP3   OH210148   3.537   4.393   2.769
 3396TIP3    H110149   3.512   4.483   2.737
 3396TIP3    H210150   3.460   4.376   2.827
 3397TIP3   OH210151   2.929   4.083   2.006
 3397TIP3    H110152   2.888   4.112   1.923
 3397TIP3    H210153   2.963   4.167   2.043
 3398TIP3   OH210154   4.369   4.600   2.245
 3398TIP3    H110155   4.281   4.589   2.287
 3398TIP3    H210156   4.358   4.687   2.202
 3399TIP3   OH210157   4.663   3.491   2.609
 3399TIP3    H110158   4.577   3.524   2.580
 3399TIP3    H210159   4.724   3.528   2.542
 3400TIP3   OH210160   3.955   3.138   2.595
 3400TIP3    H110161   3.938   3.044   2.613
 3400TIP3    H210162   3.879   3.179   2.642
 3401TIP3   OH210163   4.069   4.643   1.917
 3401TIP3    H110164   4.119   4.559   1.901
 3401TIP3    H210165   4.132   4.707   1.879
 3402TIP3   OH210166   4.215   4.427   1.832
 3402TIP3    H110167   4.170   4.349   1.800
 3402TIP3    H210168   4.254   4.394   1.916
 3403TIP3   OH210169   4.596   4.510   2.590
 3403TIP3    H110170   4.583   4.430   2.534
 3403TIP3    H210171   4.578   4.582   2.526
 3404TIP3   OH210172   3.887   3.902   1.850
 3404TIP3    H110173   3.807   3.956   1.830
 3404TIP3    H210174   3.933   3.901   1.764
 3405TIP3   OH210175   3.845   3.691   1.560
 3405TIP3    H110176   3.910   3.742   1.611
 3405TIP3    H210177   3.904   3.628   1.514
 3406TIP3   OH210178   4.792   4.149   2.437
 3406TIP3    H110179   4.707   4.198   2.443
 3406TIP3    H210180   4.820   4.175   2.346
 3407TIP3   OH210181   4.237   3.986   1.818
 3407TIP3    H110182   4.182   4.009   1.896
 3407TIP3    H210183   4.321   3.963   1.862
 3408TIP3   OH210184   4.467   4.018   2.736
 3408TIP3    H110185   4.471   4.096   2.795
 3408TIP3    H210186   4.382   4.034   2.692
 3409TIP3   OH210187   3.469   3.982   2.237
 3409TIP3    H110188   3.429   3.924   2.170
 3409TIP3    H210189   3.545   3.929   2.269
 3410TIP3   OH210190   3.601   4.400   2.382
 3410TIP3    H110191   3.579   4.357   2.299
 3410TIP3    H210192   3.690   4.362   2.402
 3411TIP3   OH210193   3.605   3.954   2.591
 3411TIP3    H110194   3.639   3.931   2.502
 3411TIP3    H210195   3.648   4.040   2.609
 3412TIP3   OH210196   4.130   4.591   2.369
 3412TIP3    H110197   4.118   4.671   2.423
 3412TIP3    H210198   4.113   4.519   2.432
 3413TIP3   OH210199   3.747   4.506   2.915
 3413TIP3    H110200   3.684   4.567   2.961
 3413TIP3    H210201   3.681   4.453   2.866
 3414TIP3   OH210202   4.074   3.845   1.646
 3414TIP3    H110203   4.133   3.905   1.696
 3414TIP3    H210204   4.101   3.865   1.553
 3415TIP3   OH210205   3.497   4.065   3.015
 3415TIP3    H110206   3.503   4.152   3.060
 3415TIP3    H210207   3.404   4.043   3.037
 3416TIP3   OH210208   3.821   4.520   1.921
 3416TIP3    H110209   3.904   4.572   1.930
 3416TIP3    H210210   3.761   4.584   1.881
 3417TIP3   OH210211   3.530   4.649   2.994
 3417TIP3    H110212   3.485   4.667   2.911
 3417TIP3    H210213   3.457   4.653   3.059
 3418TIP3   OH210214   4.591   3.082   1.696
 3418TIP3    H110215   4.509   3.104   1.745
 3418TIP3    H210216   4.606   3.165   1.647
 3419TIP3   OH210217   3.336   3.826   2.038
 3419TIP3    H110218   3.265   3.868   1.985
 3419TIP3    H210219   3.299   3.739   2.056
 3420TIP3   OH210220   4.391   4.450   1.244
 3420TIP3    H110221   4.400   4.546   1.229
 3420TIP3    H210222   4.484   4.421   1.232
 3421TIP3   OH210223   3.114   4.208   2.951
 3421TIP3    H110224   3.047   4.184   2.884
 3421TIP3    H210225   3.154   4.122   2.975
 3422TIP3   OH210226   2.971   4.408   2.572
 3422TIP3    H110227   3.067   4.392   2.569
 3422TIP3    H210228   2.966   4.475   2.642
 3423TIP3   OH210229   4.833   4.857   2.637
 3423TIP3    H110230   4.834   4.761   2.653
 3423TIP3    H210231   4.750   4.881   2.684
 3424TIP3   OH210232   3.936   4.640   2.772
 3424TIP3    H110233   3.935   4.732   2.806
 3424TIP3    H210234   3.867   4.599   2.828
 3425TIP3   OH210235   3.703   4.768   1.725
 3425TIP3    H110236   3.655   4.751   1.641
 3425TIP3    H210237   3.668   4.855   1.751
 3426TIP3   OH210238   3.139   4.616   2.112
 3426TIP3    H110239   3.186   4.608   2.198
 3426TIP3    H210240   3.092   4.531   2.109
 3427TIP3   OH210241   3.900   4.671   1.363
 3427TIP3    H110242   3.960   4.601   1.327
 3427TIP3    H210243   3.936   4.681   1.454
 3428TIP3   OH210244   3.953   4.718   1.633
 3428TIP3    H110245   3.865   4.728   1.674
 3428TIP3    H210246   4.004   4.680   1.706
 3429TIP3   OH210247   4.729   3.982   2.884
 3429TIP3    H110248   4.634   3.996   2.876
 3429TIP3    H210249   4.736   3.885   2.883
 3430TIP3   OH210250   3.317   4.393   2.932
 3430TIP3    H110251   3.368   4.380   3.015
 3430TIP3    H210252   3.244   4.328   2.944
 3431TIP3   OH210253   3.719   3.216   2.725
 3431TIP3    H110254   3.631   3.186   2.696
 3431TIP3    H210255   3.692   3.297   2.774
 3432TIP3   OH210256   4.254   3.327   2.918
 3432TIP3    H110257   4.322   3.305   2.984
 3432TIP3    H210258   4.170   3.312   2.966
 3433TIP3   OH210259   4.480   3.758   2.832
 3433TIP3    H110260   4.434   3.758   2.919
 3433TIP3    H210261   4.463   3.850   2.801
 3434TIP3   OH210262   4.152   3.885   1.391
 3434TIP3    H110263   4.117   3.864   1.302
 3434TIP3    H210264   4.235   3.932   1.367
 3435TIP3   OH210265   3.864   3.263   1.695
 3435TIP3    H110266   3.829   3.259   1.787
 3435TIP3    H210267   3.823   3.182   1.659
 3436TIP3   OH210268   3.651   3.733   2.742
 3436TIP3    H110269   3.600   3.753   2.824
 3436TIP3    H210270   3.635   3.815   2.690
 3437TIP3   OH210271   3.534   3.618   2.254
 3437TIP3    H110272   3.442   3.592   2.275
 3437TIP3    H210273   3.545   3.576   2.166
 3438TIP3   OH210274   4.025   3.703   1.985
 3438TIP3    H110275   3.974   3.774   1.941
 3438TIP3    H210276   4.080   3.669   1.911
 3439TIP3   OH210277   4.203   3.993   3.081
 3439TIP3    H110278   4.184   3.913   3.135
 3439TIP3    H210279   4.301   3.997   3.091
 3440TIP3   OH210280   4.181   3.729   2.221
 3440TIP3    H110281   4.118   3.757   2.152
 3440TIP3    H210282   4.216   3.649   2.176
 3441TIP3   OH210283   3.470   3.759   2.949
 3441TIP3    H110284   3.492   3.823   3.018
 3441TIP3    H210285   3.457   3.677   3.001
 3442TIP3   OH210286   3.520   3.239   1.659
 3442TIP3    H110287   3.510   3.238   1.756
 3442TIP3    H210288   3.443   3.293   1.633
 3443TIP3   OH210289   3.063   3.281   2.528
 3443TIP3    H110290   3.136   3.314   2.585
 3443TIP3    H210291   3.110   3.250   2.449
 3444TIP3   OH210292   3.029   3.262   2.049
 3444TIP3    H110293   3.075   3.299   1.971
 3444TIP3    H210294   2.968   3.336   2.068
 3445TIP3   OH210295   4.184   3.976   2.640
 3445TIP3    H110296   4.223   3.906   2.583
 3445TIP3    H210297   4.160   3.922   2.718
 3446TIP3   OH210298   3.865   3.437   2.314
 3446TIP3    H110299   3.783   3.438   2.368
 3446TIP3    H210300   3.934   3.435   2.383
 3447TIP3   OH210301   3.297   3.498   2.321
 3447TIP3    H110302   3.202   3.506   2.294
 3447TIP3    H210303   3.318   3.405   2.301
 3448TIP3   OH210304   3.561   3.490   2.014
 3448TIP3    H110305   3.655   3.506   1.992
 3448TIP3    H210306   3.514   3.512   1.931
 3449TIP3   OH210307   4.353   3.515   2.512
 3449TIP3    H110308   4.327   3.529   2.607
 3449TIP3    H210309   4.281   3.456   2.483
 3450TIP3   OH210310   3.411   3.527   1.790
 3450TIP3    H110311   3.339   3.482   1.743
 3450TIP3    H210312   3.462   3.564   1.715
 3451TIP3   OH210313   4.528   5.205   2.739
 3451TIP3    H110314   4.525   5.228   2.644
 3451TIP3    H210315   4.606   5.254   2.770
 3452TIP3   OH210316   3.481   4.315   3.154
 3452TIP3    H110317   3.560   4.346   3.203
 3452TIP3    H210318   3.417   4.308   3.228
 3453TIP3   OH210319   3.943   3.769   2.414
 3453TIP3    H110320   4.019   3.731   2.369
 3453TIP3    H210321   3.947   3.727   2.502
 3454TIP3   OH210322   3.463   3.255   2.296
 3454TIP3    H110323   3.426   3.179   2.347
 3454TIP3    H210324   3.509   3.210   2.224
 3455TIP3   OH210325   3.921   3.671   2.701
 3455TIP3    H110326   3.831   3.705   2.717
 3455TIP3    H210327   3.977   3.732   2.752
 3456TIP3   OH210328   3.657   4.055   1.797
 3456TIP3    H110329   3.585   3.989   1.786
 3456TIP3    H210330   3.637   4.089   1.887
 3457TIP3   OH210331   4.557   4.292   2.425
 3457TIP3    H110332   4.579   4.344   2.345
 3457TIP3    H210333   4.472   4.249   2.400
 3458TIP3   OH210334   4.114   3.366   1.662
 3458TIP3    H110335   4.018   3.346   1.673
 3458TIP3    H210336   4.121   3.460   1.689
 3459TIP3   OH210337   4.055   4.377   2.793
 3459TIP3    H110338   4.082   4.356   2.883
 3459TIP3    H210339   4.013   4.465   2.804
 3460TIP3   OH210340   4.183   3.616   1.766
 3460TIP3    H110341   4.279   3.623   1.783
 3460TIP3    H210342   4.164   3.698   1.716
 3461TIP3   OH210343   3.350   4.080   2.472
 3461TIP3    H110344   3.391   4.048   2.389
 3461TIP3    H210345   3.393   4.022   2.538
 3462TIP3   OH210346   3.802   4.204   1.620
 3462TIP3    H110347   3.753   4.290   1.623
 3462TIP3    H210348   3.748   4.150   1.681
 3463TIP3   OH210349   3.235   3.997   3.087
 3463TIP3    H110350   3.251   3.986   3.183
 3463TIP3    H210351   3.165   3.930   3.073
 3464TIP3   OH210352   3.954   4.114   3.102
 3464TIP3    H110353   3.894   4.049   3.062
 3464TIP3    H210354   4.042   4.077   3.079
 3465TIP3   OH210355   4.213   4.641   2.685
 3465TIP3    H110356   4.118   4.634   2.704
 3465TIP3    H210357   4.245   4.687   2.766
 3466TIP3   OH210358   4.625   3.709   1.600
 3466TIP3    H110359   4.563   3.666   1.536
 3466TIP3    H210360   4.621   3.799   1.561
 3467TIP3   OH210361   4.845   4.570   2.679
 3467TIP3    H110362   4.748   4.560   2.672
 3467TIP3    H210363   4.871   4.535   2.590
 3468TIP3   OH210364   4.329   4.526   1.510
 3468TIP3    H110365   4.300   4.457   1.572
 3468TIP3    H210366   4.340   4.477   1.426
 3469TIP3   OH210367   4.323   4.157   2.338
 3469TIP3    H110368   4.230   4.132   2.355
 3469TIP3    H210369   4.356   4.074   2.297
 3470TIP3   OH210370   3.452   4.382   2.095
 3470TIP3    H110371   3.447   4.464   2.042
 3470TIP3    H210372   3.360   4.364   2.114
 3471TIP3   OH210373   3.017   3.685   1.805
 3471TIP3    H110374   3.061   3.770   1.827
 3471TIP3    H210375   2.940   3.688   1.866
 3472TIP3   OH210376   3.585   4.145   2.039
 3472TIP3    H110377   3.551   4.235   2.059
 3472TIP3    H210378   3.552   4.094   2.115
 3473TIP3   OH210379   3.722   4.726   2.567
 3473TIP3    H110380   3.768   4.798   2.520
 3473TIP3    H210381   3.795   4.688   2.619
 3474TIP3   OH210382   3.367   4.624   1.948
 3474TIP3    H110383   3.283   4.632   1.998
 3474TIP3    H210384   3.400   4.717   1.953
 3475TIP3   OH210385   4.107   4.359   2.527
 3475TIP3    H110386   4.094   4.360   2.625
 3475TIP3    H210387   4.188   4.308   2.520
 3476TIP3   OH210388   4.086   4.256   1.410
 3476TIP3    H110389   4.140   4.229   1.488
 3476TIP3    H210390   3.998   4.226   1.439
 3477TIP3   OH210391   4.357   4.889   2.577
 3477TIP3    H110392   4.279   4.831   2.576
 3477TIP3    H210393   4.337   4.952   2.505
 3478TIP3   OH210394   4.423   4.725   1.229
 3478TIP3    H110395   4.460   4.798   1.176
 3478TIP3    H210396   4.343   4.770   1.263
 3479TIP3   OH210397   3.439   3.502   3.090
 3479TIP3    H110398   3.343   3.510   3.107
 3479TIP3    H210399   3.467   3.450   3.167
 3480TIP3   OH210400   4.247   4.184   1.622
 3480TIP3    H110401   4.235   4.121   1.696
 3480TIP3    H210402   4.344   4.181   1.612
 3481TIP3   OH210403   3.158   4.585   2.726
 3481TIP3    H110404   3.214   4.512   2.759
 3481TIP3    H210405   3.184   4.655   2.788
 3482TIP3   OH210406   3.447   4.233   1.410
 3482TIP3    H110407   3.461   4.140   1.384
 3482TIP3    H210408   3.427   4.224   1.505
 3483TIP3   OH210409   3.392   4.239   1.682
 3483TIP3    H110410   3.465   4.210   1.738
 3483TIP3    H210411   3.397   4.337   1.691
 3484TIP3   OH210412   3.126   3.930   1.886
 3484TIP3    H110413   3.060   3.974   1.943
 3484TIP3    H210414   3.140   3.999   1.818
 3485TIP3   OH210415   4.286   3.561   2.772
 3485TIP3    H110416   4.357   3.610   2.815
 3485TIP3    H210417   4.273   3.484   2.832
 3486TIP3   OH210418   4.165   3.314   1.946
 3486TIP3    H110419   4.149   3.338   1.853
 3486TIP3    H210420   4.203   3.397   1.983
 3487TIP3   OH210421   3.660   4.434   1.628
 3487TIP3    H110422   3.574   4.458   1.667
 3487TIP3    H210423   3.676   4.511   1.572
 3488TIP3   OH210424   3.846   3.500   2.046
 3488TIP3    H110425   3.910   3.574   2.030
 3488TIP3    H210426   3.852   3.490   2.143
 3489TIP3   OH210427   4.123   3.819   2.855
 3489TIP3    H110428   4.141   3.871   2.935
 3489TIP3    H210429   4.174   3.738   2.871
 3490TIP3   OH210430   3.990   3.220   2.145
 3490TIP3    H110431   3.983   3.297   2.204
 3490TIP3    H210432   4.053   3.254   2.078
 3491TIP3   OH210433   3.407   4.511   1.700
 3491TIP3    H110434   3.376   4.582   1.639
 3491TIP3    H210435   3.390   4.553   1.787
 3492TIP3   OH210436   3.505   3.226   1.935
 3492TIP3    H110437   3.502   3.315   1.974
 3492TIP3    H210438   3.601   3.208   1.943
 3493TIP3   OH210439   4.746   3.712   2.837
 3493TIP3    H110440   4.648   3.711   2.836
 3493TIP3    H210441   4.766   3.671   2.752
 3494TIP3   OH210442   4.409   3.911   2.220
 3494TIP3    H110443   4.332   3.853   2.235
 3494TIP3    H210444   4.480   3.864   2.270
 3495TIP3   OH210445   3.123   4.136   1.689
 3495TIP3    H110446   3.195   4.201   1.700
 3495TIP3    H210447   3.166   4.078   1.623
 3496TIP3   OH210448   3.064   3.415   1.824
 3496TIP3    H110449   3.065   3.513   1.823
 3496TIP3    H210450   2.983   3.395   1.777
 3497TIP3   OH210451   4.377   4.871   2.168
 3497TIP3    H110452   4.334   4.919   2.093
 3497TIP3    H210453   4.472   4.888   2.147
 3498TIP3   OH210454   3.456   3.136   2.694
 3498TIP3    H110455   3.424   3.101   2.608
 3498TIP3    H210456   3.444   3.059   2.753
 3499TIP3   OH210457   2.991   4.356   2.073
 3499TIP3    H110458   2.929   4.383   2.141
 3499TIP3    H210459   2.954   4.399   1.992
 3500TIP3   OH210460   3.153   4.902   3.153
 3500TIP3    H110461   3.240   4.904   3.198
 3500TIP3    H210462   3.138   4.806   3.149
 3501TIP3   OH210463   3.611   4.435   1.319
 3501TIP3    H110464   3.555   4.363   1.358
 3501TIP3    H210465   3.687   4.383   1.289
 3502TIP3   OH210466   4.277   4.765   2.920
 3502TIP3    H110467   4.269   4.697   2.991
 3502TIP3    H210468   4.348   4.821   2.955
 3503TIP3   OH210469   4.047   4.474   1.235
 3503TIP3    H110470   4.087   4.409   1.295
 3503TIP3    H210471   4.105   4.470   1.157
 3504TIP3   OH210472   3.281   4.307   3.348
 3504TIP3    H110473   3.297   4.212   3.363
 3504TIP3    H210474   3.193   4.306   3.304
 3505TIP3   OH210475   3.258   3.951   1.545
 3505TIP3    H110476   3.315   3.920   1.619
 3505TIP3    H210477   3.325   3.956   1.474
 3506TIP3   OH210478   3.886   4.387   3.123
 3506TIP3    H110479   3.843   4.410   3.038
 3506TIP3    H210480   3.912   4.294   3.110
 3507TIP3   OH210481   3.772   4.153   1.351
 3507TIP3    H110482   3.774   4.164   1.448
 3507TIP3    H210483   3.773   4.055   1.344
 3508TIP3   OH210484   4.375   4.406   2.724
 3508TIP3    H110485   4.454   4.448   2.686
 3508TIP3    H210486   4.308   4.474   2.709
 3509TIP3   OH210487   3.404   4.046   3.332
 3509TIP3    H110488   3.462   3.969   3.323
 3509TIP3    H210489   3.429   4.075   3.422
 3510TIP3   OH210490   3.462   3.860   1.763
 3510TIP3    H110491   3.436   3.821   1.848
 3510TIP3    H210492   3.500   3.783   1.716
 3511TIP3   OH210493   3.738   3.923   2.994
 3511TIP3    H110494   3.658   3.979   2.994
 3511TIP3    H210495   3.787   3.957   2.916
 3512TIP3   OH210496   3.567   3.654   1.604
 3512TIP3    H110497   3.543   3.662   1.509
 3512TIP3    H210498   3.665   3.655   1.597
 3513TIP3   OH210499   4.272   4.321   3.114
 3513TIP3    H110500   4.346   4.301   3.055
 3513TIP3    H210501   4.254   4.235   3.152
 3514TIP3   OH210502   4.386   3.980   1.272
 3514TIP3    H110503   4.366   3.937   1.186
 3514TIP3    H210504   4.352   4.071   1.251
 3515TIP3   OH210505   3.862   3.707   3.110
 3515TIP3    H110506   3.859   3.630   3.050
 3515TIP3    H210507   3.816   3.776   3.056
 3516TIP3   OH210508   3.861   3.495   2.924
 3516TIP3    H110509   3.888   3.538   2.840
 3516TIP3    H210510   3.767   3.474   2.907
 3517TIP3   OH210511   3.884   4.028   2.796
 3517TIP3    H110512   3.971   4.046   2.757
 3517TIP3    H210513   3.828   4.095   2.752
 3518TIP3   OH210514   4.470   3.992   3.138
 3518TIP3    H110515   4.520   3.916   3.170
 3518TIP3    H210516   4.537   4.062   3.139
 3519TIP3   OH210517   4.495   4.236   2.900
 3519TIP3    H110518   4.445   4.299   2.842
 3519TIP3    H210519   4.587   4.266   2.883
 3520TIP3   OH210520   3.750   3.816   3.343
 3520TIP3    H110521   3.670   3.768   3.372
 3520TIP3    H210522   3.764   3.780   3.253
 3521TIP3   OH210523   3.991   3.258   2.997
 3521TIP3    H110524   3.942   3.340   2.973
 3521TIP3    H210525   3.922   3.190   2.986
 3522TIP3   OH210526   4.119   3.766   3.203
 3522TIP3    H110527   4.116   3.748   3.298
 3522TIP3    H210528   4.028   3.740   3.176
 3523TIP3   OH210529   4.349   3.705   3.062
 3523TIP3    H110530   4.276   3.714   3.126
 3523TIP3    H210531   4.424   3.687   3.123
 3524TIP3   OH210532   4.560   3.662   3.231
 3524TIP3    H110533   4.592   3.570   3.231
 3524TIP3    H210534   4.553   3.682   3.325
 3525TIP3   OH210535   3.573   3.597   3.396
 3525TIP3    H110536   3.575   3.504   3.369
 3525TIP3    H210537   3.598   3.590   3.490
 3526TIP3   OH210538   4.088   3.268   3.253
 3526TIP3    H110539   4.153   3.196   3.244
 3526TIP3    H210540   4.047   3.265   3.164
 3527TIP3   OH210541   4.143   3.480   3.421
 3527TIP3    H110542   4.128   3.413   3.351
 3527TIP3    H210543   4.073   3.546   3.401
 3528TIP3   OH210544   3.376   4.716   1.512
 3528TIP3    H110545   3.471   4.705   1.493
 3528TIP3    H210546   3.349   4.767   1.433
 3529TIP3   OH210547   2.853   4.097   1.723
 3529TIP3    H110548   2.949   4.117   1.710
 3529TIP3    H210549   2.847   4.007   1.685
 3530TIP3   OH210550   2.769   4.708   2.145
 3530TIP3    H110551   2.705   4.646   2.106
 3530TIP3    H210552   2.814   4.649   2.209
 3531TIP3   OH210553   2.903   4.555   2.331
 3531TIP3    H110554   2.895   4.484   2.397
 3531TIP3    H210555   2.957   4.618   2.382
 3532TIP3   OH210556   4.633   4.957   2.130
 3532TIP3    H110557   4.659   4.986   2.219
 3532TIP3    H210558   4.699   5.001   2.074
 3533TIP3   OH210559   4.663   4.977   2.411
 3533TIP3    H110560   4.613   4.892   2.405
 3533TIP3    H210561   4.733   4.950   2.473
 3534TIP3   OH210562   4.707   4.655   2.982
 3534TIP3    H110563   4.636   4.660   3.049
 3534TIP3    H210564   4.748   4.743   2.990
 3535TIP3   OH210565   4.525   4.166   1.602
 3535TIP3    H110566   4.590   4.232   1.572
 3535TIP3    H210567   4.570   4.130   1.682
 3536TIP3   OH210568   4.652   4.034   1.808
 3536TIP3    H110569   4.585   3.993   1.866
 3536TIP3    H210570   4.716   4.072   1.872
 3537TIP3   OH210571   4.709   4.431   2.239
 3537TIP3    H110572   4.761   4.362   2.193
 3537TIP3    H210573   4.702   4.501   2.170
 3538TIP3   OH210574   4.535   4.731   2.429
 3538TIP3    H110575   4.463   4.769   2.484
 3538TIP3    H210576   4.484   4.684   2.360
 3539TIP3   OH210577   4.589   3.943   1.451
 3539TIP3    H110578   4.517   3.946   1.384
 3539TIP3    H210579   4.560   4.019   1.507
 3540TIP3   OH210580   4.462   3.615   1.403
 3540TIP3    H110581   4.412   3.651   1.329
 3540TIP3    H210582   4.439   3.520   1.396
 3541TIP3   OH210583   4.464   3.894   1.952
 3541TIP3    H110584   4.471   3.798   1.945
 3541TIP3    H210585   4.449   3.907   2.048
 3542TIP3   OH210586   3.089   3.970   2.698
 3542TIP3    H110587   3.087   3.934   2.607
 3542TIP3    H210588   3.186   3.968   2.716
 3543TIP3   OH210589   4.748   4.315   2.812
 3543TIP3    H110590   4.822   4.250   2.805
 3543TIP3    H210591   4.779   4.388   2.756
 3544TIP3   OH210592   4.945   4.127   2.819
 3544TIP3    H110593   4.868   4.073   2.849
 3544TIP3    H210594   5.017   4.061   2.837
 3545TIP3   OH210595   4.404   3.348   1.386
 3545TIP3    H110596   4.474   3.318   1.446
 3545TIP3    H210597   4.328   3.292   1.409
 3546TIP3   OH210598   4.462   3.609   1.844
 3546TIP3    H110599   4.502   3.520   1.859
 3546TIP3    H210600   4.520   3.642   1.774
 3547TIP3   OH210601   4.620   3.777   2.341
 3547TIP3    H110602   4.706   3.802   2.301
 3547TIP3    H210603   4.633   3.817   2.430
 3548TIP3   OH210604   4.690   3.925   2.568
 3548TIP3    H110605   4.617   3.957   2.625
 3548TIP3    H210606   4.724   4.008   2.530
 3549TIP3   OH210607   3.305   3.645   3.365
 3549TIP3    H110608   3.402   3.646   3.376
 3549TIP3    H210609   3.282   3.561   3.410
 3550TIP3   OH210610   4.571   3.360   1.883
 3550TIP3    H110611   4.618   3.344   1.967
 3550TIP3    H210612   4.509   3.284   1.882
 3551TIP3   OH210613   3.270   3.344   2.698
 3551TIP3    H110614   3.331   3.270   2.712
 3551TIP3    H210615   3.332   3.419   2.695
 3552TIP3   OH210616   3.068   3.615   2.772
 3552TIP3    H110617   3.121   3.620   2.691
 3552TIP3    H210618   3.098   3.693   2.821
 3553TIP3   OH210619   5.021   3.658   2.904
 3553TIP3    H110620   4.940   3.690   2.948
 3553TIP3    H210621   4.993   3.569   2.876
 3554TIP3   OH210622   4.648   3.291   1.519
 3554TIP3    H110623   4.687   3.221   1.463
 3554TIP3    H210624   4.715   3.362   1.517
 3555TIP3   OH210625   3.057   3.116   2.275
 3555TIP3    H110626   2.965   3.114   2.307
 3555TIP3    H210627   3.050   3.178   2.199
 3556TIP3   OH210628   4.215   4.828   1.784
 3556TIP3    H110629   4.266   4.817   1.701
 3556TIP3    H210630   4.270   4.892   1.832
 3557TIP3   OH210631   3.276   3.195   3.080
 3557TIP3    H110632   3.227   3.193   3.165
 3557TIP3    H210633   3.211   3.240   3.024
 3558TIP3   OH210634   3.308   4.639   3.166
 3558TIP3    H110635   3.218   4.604   3.157
 3558TIP3    H210636   3.331   4.613   3.256
 3559TIP3   OH210637   3.489   4.660   2.705
 3559TIP3    H110638   3.448   4.742   2.669
 3559TIP3    H210639   3.579   4.674   2.668
 3560TIP3   OH210640   3.937   4.905   2.854
 3560TIP3    H110641   3.975   4.905   2.944
 3560TIP3    H210642   4.002   4.960   2.806
 3561TIP3   OH210643   4.116   5.063   2.714
 3561TIP3    H110644   4.187   5.007   2.678
 3561TIP3    H210645   4.167   5.119   2.776
 3562TIP3   OH210646   4.914   3.416   2.817
 3562TIP3    H110647   4.824   3.413   2.781
 3562TIP3    H210648   4.944   3.323   2.803
 3563TIP3   OH210649   3.167   4.925   2.735
 3563TIP3    H110650   3.077   4.961   2.722
 3563TIP3    H210651   3.185   4.954   2.825
 3564TIP3   OH210652   3.406   4.901   2.600
 3564TIP3    H110653   3.318   4.912   2.642
 3564TIP3    H210654   3.387   4.929   2.508
 3565TIP3   OH210655   3.834   4.926   2.396
 3565TIP3    H110656   3.761   4.945   2.334
 3565TIP3    H210657   3.844   5.013   2.442
 3566TIP3   OH210658   4.102   4.864   2.448
 3566TIP3    H110659   4.008   4.881   2.429
 3566TIP3    H210660   4.145   4.941   2.408
 3567TIP3   OH210661   4.310   5.057   2.362
 3567TIP3    H110662   4.295   5.140   2.313
 3567TIP3    H210663   4.335   4.994   2.291
 3568TIP3   OH210664   3.082   4.712   2.488
 3568TIP3    H110665   3.111   4.684   2.577
 3568TIP3    H210666   3.153   4.668   2.435
 3569TIP3   OH210667   3.277   4.586   2.345
 3569TIP3    H110668   3.290   4.501   2.394
 3569TIP3    H210669   3.369   4.619   2.342
 3570TIP3   OH210670   3.546   4.677   2.350
 3570TIP3    H110671   3.574   4.583   2.341
 3570TIP3    H210672   3.594   4.699   2.432
 3571TIP3   OH210673   4.117   3.333   2.433
 3571TIP3    H110674   4.074   3.264   2.486
 3571TIP3    H210675   4.193   3.287   2.393
 3572TIP3   OH210676   4.638   3.209   2.333
 3572TIP3    H110677   4.674   3.265   2.261
 3572TIP3    H210678   4.544   3.234   2.333
 3573TIP3   OH210679   4.735   3.313   2.099
 3573TIP3    H110680   4.810   3.263   2.062
 3573TIP3    H210681   4.767   3.406   2.086
 3574TIP3   OH210682   3.365   3.042   2.445
 3574TIP3    H110683   3.273   3.010   2.451
 3574TIP3    H210684   3.413   2.957   2.442
 3575TIP3   OH210685   3.155   2.914   2.098
 3575TIP3    H110686   3.183   2.972   2.025
 3575TIP3    H210687   3.127   2.980   2.166
 3576TIP3   OH210688   3.813   3.072   2.330
 3576TIP3    H110689   3.868   3.122   2.268
 3576TIP3    H210690   3.834   3.115   2.414
 3577TIP3   OH210691   4.353   3.223   2.313
 3577TIP3    H110692   4.354   3.183   2.225
 3577TIP3    H210693   4.342   3.144   2.370
 3578TIP3   OH210694   4.386   3.147   1.876
 3578TIP3    H110695   4.301   3.192   1.894
 3578TIP3    H210696   4.371   3.061   1.921
 3579TIP3   OH210697   2.869   4.488   1.872
 3579TIP3    H110698   2.784   4.453   1.841
 3579TIP3    H210699   2.859   4.581   1.848
 3580TIP3   OH210700   3.272   3.071   1.859
 3580TIP3    H110701   3.320   3.008   1.801
 3580TIP3    H210702   3.346   3.125   1.894
 3581TIP3   OH210703   3.782   3.250   1.958
 3581TIP3    H110704   3.841   3.203   2.020
 3581TIP3    H210705   3.803   3.342   1.984
 3582TIP3   OH210706   3.642   4.669   1.458
 3582TIP3    H110707   3.730   4.692   1.423
 3582TIP3    H210708   3.620   4.594   1.398
 3583TIP3   OH210709   4.362   4.793   1.553
 3583TIP3    H110710   4.355   4.695   1.542
 3583TIP3    H210711   4.316   4.823   1.472
 3584TIP3   OH210712   3.577   3.323   3.337
 3584TIP3    H110713   3.532   3.260   3.396
 3584TIP3    H210714   3.668   3.322   3.373
 3585TIP3   OH210715   3.827   3.327   3.468
 3585TIP3    H110716   3.908   3.297   3.424
 3585TIP3    H210717   3.810   3.252   3.530
 3586TIP3   OH210718   2.946   4.510   1.513
 3586TIP3    H110719   2.949   4.524   1.608
 3586TIP3    H210720   3.033   4.466   1.496
 3587TIP3   OH210721   4.652   3.390   3.242
 3587TIP3    H110722   4.670   3.362   3.334
 3587TIP3    H210723   4.743   3.389   3.204
 3588TIP3   OH210724   4.587   4.935   2.737
 3588TIP3    H110725   4.508   4.902   2.689
 3588TIP3    H210726   4.564   5.030   2.746
 3589TIP3   OH210727   5.854   4.309   1.502
 3589TIP3    H110728   5.823   4.399   1.481
 3589TIP3    H210729   5.778   4.257   1.470
 3590TIP3   OH210730   5.856   4.309   1.889
 3590TIP3    H110731   5.889   4.281   1.976
 3590TIP3    H210732   5.812   4.229   1.858
 3591TIP3   OH210733   5.151   4.199   2.247
 3591TIP3    H110734   5.177   4.129   2.310
 3591TIP3    H210735   5.225   4.261   2.258
 3592TIP3   OH210736   6.098   4.611   1.570
 3592TIP3    H110737   6.081   4.543   1.636
 3592TIP3    H210738   6.130   4.685   1.624
 3593TIP3   OH210739   5.126   4.615   1.973
 3593TIP3    H110740   5.116   4.517   1.974
 3593TIP3    H210741   5.222   4.623   1.968
 3594TIP3   OH210742   4.832   3.814   1.755
 3594TIP3    H110743   4.784   3.896   1.776
 3594TIP3    H210744   4.760   3.762   1.715
 3595TIP3   OH210745   4.888   4.103   1.936
 3595TIP3    H110746   4.937   4.024   1.970
 3595TIP3    H210747   4.948   4.135   1.867
 3596TIP3   OH210748   5.753   5.075   1.588
 3596TIP3    H110749   5.792   5.005   1.532
 3596TIP3    H210750   5.733   5.026   1.668
 3597TIP3   OH210751   5.651   4.537   1.934
 3597TIP3    H110752   5.688   4.459   1.890
 3597TIP3    H210753   5.734   4.582   1.959
 3598TIP3   OH210754   6.671   3.853   1.932
 3598TIP3    H110755   6.697   3.938   1.972
 3598TIP3    H210756   6.688   3.870   1.838
 3599TIP3   OH210757   6.067   4.034   1.964
 3599TIP3    H110758   6.106   3.947   1.985
 3599TIP3    H210759   6.032   4.017   1.874
 3600TIP3   OH210760   5.408   3.694   1.928
 3600TIP3    H110761   5.384   3.767   1.867
 3600TIP3    H210762   5.357   3.621   1.887
 3601TIP3   OH210763   6.100   3.787   1.551
 3601TIP3    H110764   6.171   3.771   1.617
 3601TIP3    H210765   6.153   3.822   1.477
 3602TIP3   OH210766   5.037   3.897   2.037
 3602TIP3    H110767   5.118   3.878   2.087
 3602TIP3    H210768   5.051   3.840   1.959
 3603TIP3   OH210769   5.476   4.094   1.831
 3603TIP3    H110770   5.570   4.068   1.845
 3603TIP3    H210771   5.437   4.010   1.800
 3604TIP3   OH210772   6.743   4.066   2.102
 3604TIP3    H110773   6.658   4.110   2.080
 3604TIP3    H210774   6.757   4.099   2.192
 3605TIP3   OH210775   5.399   3.677   2.366
 3605TIP3    H110776   5.338   3.715   2.300
 3605TIP3    H210777   5.346   3.690   2.448
 3606TIP3   OH210778   5.740   4.528   1.373
 3606TIP3    H110779   5.700   4.516   1.286
 3606TIP3    H210780   5.696   4.611   1.402
 3607TIP3   OH210781   5.507   4.455   2.158
 3607TIP3    H110782   5.445   4.521   2.195
 3607TIP3    H210783   5.545   4.504   2.081
 3608TIP3   OH210784   6.305   3.790   1.730
 3608TIP3    H110785   6.281   3.751   1.815
 3608TIP3    H210786   6.355   3.869   1.757
 3609TIP3   OH210787   5.271   3.793   2.148
 3609TIP3    H110788   5.333   3.865   2.174
 3609TIP3    H210789   5.322   3.753   2.074
 3610TIP3   OH210790   5.336   4.650   2.259
 3610TIP3    H110791   5.307   4.737   2.223
 3610TIP3    H210792   5.257   4.630   2.314
 3611TIP3   OH210793   4.725   4.339   1.493
 3611TIP3    H110794   4.684   4.367   1.409
 3611TIP3    H210795   4.758   4.424   1.529
 3612TIP3   OH210796   6.166   4.856   1.735
 3612TIP3    H110797   6.076   4.848   1.774
 3612TIP3    H210798   6.158   4.941   1.686
 3613TIP3   OH210799   6.460   3.753   2.097
 3613TIP3    H110800   6.371   3.778   2.066
 3613TIP3    H210801   6.518   3.786   2.026
 3614TIP3   OH210802   5.752   3.395   2.084
 3614TIP3    H110803   5.734   3.300   2.100
 3614TIP3    H210804   5.676   3.435   2.130
 3615TIP3   OH210805   5.865   4.900   1.405
 3615TIP3    H110806   5.914   4.816   1.387
 3615TIP3    H210807   5.928   4.964   1.366
 3616TIP3   OH210808   6.008   4.685   1.319
 3616TIP3    H110809   5.974   4.605   1.278
 3616TIP3    H210810   6.047   4.649   1.403
 3617TIP3   OH210811   6.390   4.765   2.078
 3617TIP3    H110812   6.380   4.687   2.019
 3617TIP3    H210813   6.375   4.839   2.016
 3618TIP3   OH210814   5.685   4.159   1.338
 3618TIP3    H110815   5.605   4.213   1.319
 3618TIP3    H210816   5.729   4.159   1.251
 3619TIP3   OH210817   5.642   3.947   1.046
 3619TIP3    H110818   5.707   4.000   1.097
 3619TIP3    H210819   5.702   3.885   1.000
 3620TIP3   OH210820   6.588   4.404   1.924
 3620TIP3    H110821   6.504   4.455   1.926
 3620TIP3    H210822   6.620   4.429   1.834
 3621TIP3   OH210823   6.032   4.242   1.305
 3621TIP3    H110824   5.977   4.266   1.384
 3621TIP3    H210825   6.117   4.220   1.349
 3622TIP3   OH210826   6.266   4.280   2.222
 3622TIP3    H110827   6.262   4.364   2.271
 3622TIP3    H210828   6.179   4.281   2.177
 3623TIP3   OH210829   5.264   4.238   1.724
 3623TIP3    H110830   5.223   4.181   1.656
 3623TIP3    H210831   5.340   4.185   1.754
 3624TIP3   OH210832   5.395   4.654   1.871
 3624TIP3    H110833   5.371   4.619   1.783
 3624TIP3    H210834   5.483   4.614   1.886
 3625TIP3   OH210835   5.407   4.208   2.079
 3625TIP3    H110836   5.435   4.187   1.988
 3625TIP3    H210837   5.445   4.297   2.095
 3626TIP3   OH210838   5.926   4.853   1.860
 3626TIP3    H110839   5.910   4.927   1.920
 3626TIP3    H210840   5.909   4.775   1.916
 3627TIP3   OH210841   5.538   4.768   2.403
 3627TIP3    H110842   5.476   4.828   2.450
 3627TIP3    H210843   5.473   4.714   2.352
 3628TIP3   OH210844   5.871   4.100   1.132
 3628TIP3    H110845   5.929   4.162   1.182
 3628TIP3    H210846   5.897   4.121   1.039
 3629TIP3   OH210847   5.292   4.323   2.500
 3629TIP3    H110848   5.299   4.408   2.548
 3629TIP3    H210849   5.200   4.298   2.523
 3630TIP3   OH210850   5.618   4.777   1.411
 3630TIP3    H110851   5.699   4.831   1.415
 3630TIP3    H210852   5.557   4.836   1.364
 3631TIP3   OH210853   5.331   4.937   2.493
 3631TIP3    H110854   5.295   4.937   2.402
 3631TIP3    H210855   5.252   4.913   2.546
 3632TIP3   OH210856   6.387   3.338   1.184
 3632TIP3    H110857   6.305   3.361   1.232
 3632TIP3    H210858   6.403   3.421   1.134
 3633TIP3   OH210859   5.132   4.083   1.525
 3633TIP3    H110860   5.062   4.127   1.472
 3633TIP3    H210861   5.092   3.997   1.542
 3634TIP3   OH210862   6.180   4.710   0.733
 3634TIP3    H110863   6.193   4.803   0.706
 3634TIP3    H210864   6.272   4.676   0.726
 3635TIP3   OH210865   4.913   4.466   2.437
 3635TIP3    H110866   4.843   4.445   2.372
 3635TIP3    H210867   4.949   4.378   2.460
 3636TIP3   OH210868   4.765   4.662   2.062
 3636TIP3    H110869   4.861   4.656   2.060
 3636TIP3    H210870   4.751   4.737   2.122
 3637TIP3   OH210871   6.626   5.114   2.129
 3637TIP3    H110872   6.627   5.017   2.140
 3637TIP3    H210873   6.545   5.137   2.177
 3638TIP3   OH210874   5.732   4.892   2.260
 3638TIP3    H110875   5.719   4.986   2.285
 3638TIP3    H210876   5.659   4.849   2.310
 3639TIP3   OH210877   5.501   5.024   1.214
 3639TIP3    H110878   5.454   5.006   1.131
 3639TIP3    H210879   5.466   5.111   1.240
 3640TIP3   OH210880   4.935   4.873   1.598
 3640TIP3    H110881   4.981   4.864   1.684
 3640TIP3    H210882   4.883   4.791   1.596
 3641TIP3   OH210883   5.695   4.931   0.847
 3641TIP3    H110884   5.757   4.862   0.815
 3641TIP3    H210885   5.728   4.945   0.938
 3642TIP3   OH210886   5.750   4.977   1.117
 3642TIP3    H110887   5.661   4.987   1.158
 3642TIP3    H210888   5.799   4.936   1.190
 3643TIP3   OH210889   6.517   4.239   2.401
 3643TIP3    H110890   6.433   4.251   2.353
 3643TIP3    H210891   6.532   4.143   2.391
 3644TIP3   OH210892   5.115   4.651   2.422
 3644TIP3    H110893   5.164   4.632   2.504
 3644TIP3    H210894   5.041   4.587   2.429
 3645TIP3   OH210895   5.516   3.474   2.211
 3645TIP3    H110896   5.427   3.443   2.182
 3645TIP3    H210897   5.488   3.553   2.261
 3646TIP3   OH210898   6.049   3.587   2.405
 3646TIP3    H110899   6.116   3.558   2.470
 3646TIP3    H210900   5.965   3.568   2.452
 3647TIP3   OH210901   6.290   4.019   2.327
 3647TIP3    H110902   6.236   4.016   2.409
 3647TIP3    H210903   6.263   4.104   2.287
 3648TIP3   OH210904   5.945   4.140   0.875
 3648TIP3    H110905   5.912   4.122   0.785
 3648TIP3    H210906   6.029   4.185   0.854
 3649TIP3   OH210907   5.661   3.519   1.182
 3649TIP3    H110908   5.625   3.515   1.273
 3649TIP3    H210909   5.619   3.438   1.145
 3650TIP3   OH210910   5.449   3.988   2.231
 3650TIP3    H110911   5.396   4.008   2.312
 3650TIP3    H210912   5.433   4.070   2.178
 3651TIP3   OH210913   5.331   3.875   1.741
 3651TIP3    H110914   5.238   3.849   1.761
 3651TIP3    H210915   5.341   3.834   1.653
 3652TIP3   OH210916   5.822   3.960   1.472
 3652TIP3    H110917   5.771   4.031   1.428
 3652TIP3    H210918   5.876   3.926   1.398
 3653TIP3   OH210919   5.996   4.236   2.555
 3653TIP3    H110920   5.972   4.164   2.618
 3653TIP3    H210921   6.090   4.248   2.578
 3654TIP3   OH210922   5.978   3.987   1.707
 3654TIP3    H110923   5.915   4.016   1.639
 3654TIP3    H210924   6.012   3.907   1.662
 3655TIP3   OH210925   5.268   4.014   2.437
 3655TIP3    H110926   5.282   4.078   2.508
 3655TIP3    H210927   5.254   3.931   2.487
 3656TIP3   OH210928   5.317   3.496   1.146
 3656TIP3    H110929   5.305   3.494   1.243
 3656TIP3    H210930   5.239   3.550   1.120
 3657TIP3   OH210931   4.859   3.537   2.015
 3657TIP3    H110932   4.932   3.570   2.072
 3657TIP3    H210933   4.905   3.507   1.935
 3658TIP3   OH210934   4.825   3.519   1.536
 3658TIP3    H110935   4.871   3.556   1.457
 3658TIP3    H210936   4.764   3.593   1.555
 3659TIP3   OH210937   5.991   4.233   2.129
 3659TIP3    H110938   6.024   4.161   2.069
 3659TIP3    H210939   5.959   4.179   2.204
 3660TIP3   OH210940   5.663   3.693   1.802
 3660TIP3    H110941   5.579   3.694   1.852
 3660TIP3    H210942   5.729   3.692   1.873
 3661TIP3   OH210943   5.093   3.755   1.808
 3661TIP3    H110944   4.998   3.764   1.781
 3661TIP3    H210945   5.113   3.662   1.788
 3662TIP3   OH210946   5.358   3.747   1.501
 3662TIP3    H110947   5.451   3.763   1.477
 3662TIP3    H210948   5.309   3.768   1.418
 3663TIP3   OH210949   6.151   3.771   2.003
 3663TIP3    H110950   6.121   3.785   2.096
 3663TIP3    H210951   6.080   3.711   1.971
 3664TIP3   OH210952   5.209   3.782   1.278
 3664TIP3    H110953   5.135   3.738   1.231
 3664TIP3    H210954   5.259   3.819   1.203
 3665TIP3   OH210955   6.322   5.462   2.220
 3665TIP3    H110956   6.323   5.488   2.126
 3665TIP3    H210957   6.401   5.509   2.253
 3666TIP3   OH210958   5.278   4.574   2.640
 3666TIP3    H110959   5.355   4.604   2.692
 3666TIP3    H210960   5.213   4.562   2.712
 3667TIP3   OH210961   5.739   4.026   1.902
 3667TIP3    H110962   5.814   3.985   1.856
 3667TIP3    H210963   5.741   3.982   1.989
 3668TIP3   OH210964   5.261   3.511   1.784
 3668TIP3    H110965   5.222   3.436   1.834
 3668TIP3    H210966   5.303   3.465   1.710
 3669TIP3   OH210967   5.717   3.929   2.183
 3669TIP3    H110968   5.625   3.959   2.202
 3669TIP3    H210969   5.771   3.989   2.238
 3670TIP3   OH210970   5.455   4.311   1.286
 3670TIP3    H110971   5.382   4.246   1.273
 3670TIP3    H210972   5.434   4.346   1.376
 3671TIP3   OH210973   6.353   4.548   1.912
 3671TIP3    H110974   6.378   4.599   1.832
 3671TIP3    H210975   6.269   4.505   1.884
 3672TIP3   OH210976   5.911   3.621   1.152
 3672TIP3    H110977   5.815   3.602   1.160
 3672TIP3    H210978   5.918   3.716   1.176
 3673TIP3   OH210979   5.864   4.638   2.281
 3673TIP3    H110980   5.875   4.604   2.370
 3673TIP3    H210981   5.810   4.718   2.294
 3674TIP3   OH210982   5.979   3.873   1.253
 3674TIP3    H110983   6.075   3.880   1.268
 3674TIP3    H210984   5.959   3.954   1.202
 3675TIP3   OH210985   5.150   4.339   1.960
 3675TIP3    H110986   5.187   4.305   1.876
 3675TIP3    H210987   5.185   4.276   2.025
 3676TIP3   OH210988   5.598   4.461   1.106
 3676TIP3    H110989   5.550   4.547   1.110
 3676TIP3    H210990   5.544   4.407   1.168
 3677TIP3   OH210991   5.032   4.251   2.572
 3677TIP3    H110992   5.045   4.241   2.669
 3677TIP3    H210993   4.959   4.188   2.557
 3678TIP3   OH210994   5.753   4.372   2.590
 3678TIP3    H110995   5.687   4.309   2.556
 3678TIP3    H210996   5.837   4.331   2.560
 3679TIP3   OH210997   6.011   4.903   2.183
 3679TIP3    H110998   5.916   4.883   2.192
 3679TIP3    H210999   6.029   4.955   2.261
 3680TIP3   OH211000   6.421   3.966   1.086
 3680TIP3    H111001   6.359   3.923   1.023
 3680TIP3    H211002   6.415   4.057   1.049
 3681TIP3   OH211003   6.641   4.824   2.166
 3681TIP3    H111004   6.544   4.816   2.157
 3681TIP3    H211005   6.669   4.792   2.077
 3682TIP3   OH211006   6.125   4.784   0.997
 3682TIP3    H111007   6.099   4.711   1.055
 3682TIP3    H211008   6.136   4.740   0.911
 3683TIP3   OH211009   6.119   4.412   1.829
 3683TIP3    H111010   6.025   4.386   1.843
 3683TIP3    H211011   6.152   4.331   1.785
 3684TIP3   OH211012   5.250   4.641   1.587
 3684TIP3    H111013   5.244   4.721   1.531
 3684TIP3    H211014   5.156   4.620   1.599
 3685TIP3   OH211015   4.814   3.942   1.292
 3685TIP3    H111016   4.857   4.028   1.313
 3685TIP3    H211017   4.736   3.946   1.353
 3686TIP3   OH211018   5.381   4.403   1.528
 3686TIP3    H111019   5.347   4.493   1.547
 3686TIP3    H211020   5.345   4.352   1.603
 3687TIP3   OH211021   5.517   4.984   2.053
 3687TIP3    H111022   5.559   5.055   2.000
 3687TIP3    H211023   5.594   4.940   2.092
 3688TIP3   OH211024   5.166   4.877   1.438
 3688TIP3    H111025   5.081   4.888   1.484
 3688TIP3    H211026   5.200   4.969   1.440
 3689TIP3   OH211027   5.905   4.618   2.013
 3689TIP3    H111028   5.895   4.616   2.111
 3689TIP3    H211029   5.980   4.559   1.999
 3690TIP3   OH211030   5.882   4.509   0.901
 3690TIP3    H111031   5.935   4.484   0.980
 3690TIP3    H211032   5.793   4.481   0.929
 3691TIP3   OH211033   6.152   5.148   2.064
 3691TIP3    H111034   6.073   5.091   2.052
 3691TIP3    H211035   6.139   5.212   1.991
 3692TIP3   OH211036   6.216   4.988   0.703
 3692TIP3    H111037   6.271   5.068   0.694
 3692TIP3    H211038   6.134   5.027   0.740
 3693TIP3   OH211039   5.237   3.756   2.580
 3693TIP3    H111040   5.142   3.764   2.601
 3693TIP3    H211041   5.270   3.709   2.658
 3694TIP3   OH211042   6.042   4.443   1.113
 3694TIP3    H111043   6.033   4.377   1.184
 3694TIP3    H211044   6.139   4.439   1.099
 3695TIP3   OH211045   4.957   4.841   2.211
 3695TIP3    H111046   5.009   4.768   2.248
 3695TIP3    H211047   4.977   4.912   2.274
 3696TIP3   OH211048   5.250   4.487   0.898
 3696TIP3    H111049   5.258   4.393   0.873
 3696TIP3    H211050   5.225   4.480   0.992
 3697TIP3   OH211051   5.190   4.495   1.167
 3697TIP3    H111052   5.263   4.470   1.226
 3697TIP3    H211053   5.191   4.593   1.175
 3698TIP3   OH211054   4.923   4.188   1.373
 3698TIP3    H111055   4.856   4.232   1.429
 3698TIP3    H211056   4.935   4.256   1.304
 3699TIP3   OH211057   6.083   3.821   2.263
 3699TIP3    H111058   6.158   3.860   2.310
 3699TIP3    H211059   6.064   3.741   2.317
 3700TIP3   OH211060   5.962   3.570   1.433
 3700TIP3    H111061   5.945   3.593   1.339
 3700TIP3    H211062   5.998   3.655   1.468
 3701TIP3   OH211063   5.458   4.692   1.119
 3701TIP3    H111064   5.370   4.714   1.155
 3701TIP3    H211065   5.471   4.768   1.060
 3702TIP3   OH211066   5.644   3.756   1.532
 3702TIP3    H111067   5.707   3.830   1.516
 3702TIP3    H211068   5.649   3.748   1.630
 3703TIP3   OH211069   5.916   4.074   2.336
 3703TIP3    H111070   5.935   4.126   2.416
 3703TIP3    H211071   5.965   3.991   2.353
 3704TIP3   OH211072   5.786   3.478   1.633
 3704TIP3    H111073   5.774   3.558   1.688
 3704TIP3    H211074   5.849   3.512   1.565
 3705TIP3   OH211075   5.203   4.766   1.187
 3705TIP3    H111076   5.174   4.836   1.124
 3705TIP3    H211077   5.186   4.809   1.273
 3706TIP3   OH211078   5.301   3.482   1.422
 3706TIP3    H111079   5.297   3.572   1.461
 3706TIP3    H211080   5.397   3.465   1.430
 3707TIP3   OH211081   6.555   3.970   2.321
 3707TIP3    H111082   6.457   3.971   2.331
 3707TIP3    H211083   6.562   3.933   2.232
 3708TIP3   OH211084   6.205   4.168   1.710
 3708TIP3    H111085   6.128   4.109   1.721
 3708TIP3    H211086   6.276   4.119   1.758
 3709TIP3   OH211087   4.918   4.392   1.177
 3709TIP3    H111088   4.984   4.463   1.185
 3709TIP3    H211089   4.963   4.336   1.110
 3710TIP3   OH211090   4.860   3.672   1.310
 3710TIP3    H111091   4.862   3.770   1.309
 3710TIP3    H211092   4.776   3.654   1.266
 3711TIP3   OH211093   6.174   5.128   1.657
 3711TIP3    H111094   6.132   5.175   1.582
 3711TIP3    H211095   6.269   5.145   1.636
 3712TIP3   OH211096   5.253   3.392   2.180
 3712TIP3    H111097   5.220   3.357   2.095
 3712TIP3    H211098   5.241   3.315   2.240
 3713TIP3   OH211099   4.785   4.608   1.560
 3713TIP3    H111100   4.724   4.639   1.628
 3713TIP3    H211101   4.749   4.653   1.479
 3714TIP3   OH211102   4.947   5.156   2.634
 3714TIP3    H111103   5.033   5.151   2.679
 3714TIP3    H211104   4.920   5.062   2.633
 3715TIP3   OH211105   5.442   5.117   2.674
 3715TIP3    H111106   5.530   5.075   2.676
 3715TIP3    H211107   5.398   5.059   2.608
 3716TIP3   OH211108   5.411   4.690   0.811
 3716TIP3    H111109   5.355   4.619   0.850
 3716TIP3    H211110   5.486   4.638   0.778
 3717TIP3   OH211111   6.048   5.072   2.457
 3717TIP3    H111112   6.019   4.986   2.500
 3717TIP3    H211113   6.136   5.043   2.425
 3718TIP3   OH211114   5.844   4.728   0.745
 3718TIP3    H111115   5.876   4.658   0.806
 3718TIP3    H211116   5.911   4.726   0.673
 3719TIP3   OH211117   5.079   4.567   2.833
 3719TIP3    H111118   5.090   4.474   2.858
 3719TIP3    H211119   4.989   4.565   2.793
 3720TIP3   OH211120   5.055   4.208   1.032
 3720TIP3    H111121   5.111   4.179   1.106
 3720TIP3    H211122   5.122   4.213   0.960
 3721TIP3   OH211123   5.686   4.647   2.608
 3721TIP3    H111124   5.637   4.664   2.525
 3721TIP3    H211125   5.711   4.553   2.600
 3722TIP3   OH211126   5.571   4.411   0.836
 3722TIP3    H111127   5.570   4.422   0.934
 3722TIP3    H211128   5.568   4.313   0.830
 3723TIP3   OH211129   6.178   4.657   2.221
 3723TIP3    H111130   6.252   4.699   2.173
 3723TIP3    H211131   6.104   4.717   2.201
 3724TIP3   OH211132   5.207   4.301   2.816
 3724TIP3    H111133   5.250   4.215   2.821
 3724TIP3    H211134   5.228   4.334   2.906
 3725TIP3   OH211135   5.260   4.116   1.251
 3725TIP3    H111136   5.231   4.077   1.335
 3725TIP3    H211137   5.297   4.039   1.203
 3726TIP3   OH211138   5.536   4.185   2.484
 3726TIP3    H111139   5.452   4.236   2.482
 3726TIP3    H211140   5.583   4.218   2.405
 3727TIP3   OH211141   5.363   3.909   1.091
 3727TIP3    H111142   5.338   3.919   0.997
 3727TIP3    H211143   5.461   3.911   1.084
 3728TIP3   OH211144   6.053   4.582   2.615
 3728TIP3    H111145   6.125   4.543   2.563
 3728TIP3    H211146   6.040   4.516   2.685
 3729TIP3   OH211147   6.180   4.234   0.762
 3729TIP3    H111148   6.164   4.199   0.672
 3729TIP3    H211149   6.150   4.327   0.747
 3730TIP3   OH211150   5.663   3.969   2.597
 3730TIP3    H111151   5.654   3.889   2.542
 3730TIP3    H211152   5.612   4.036   2.545
 3731TIP3   OH211153   5.658   3.753   2.411
 3731TIP3    H111154   5.682   3.794   2.326
 3731TIP3    H211155   5.563   3.730   2.396
 3732TIP3   OH211156   5.683   4.290   2.286
 3732TIP3    H111157   5.766   4.302   2.238
 3732TIP3    H211158   5.623   4.353   2.240
 3733TIP3   OH211159   6.262   4.254   2.664
 3733TIP3    H111160   6.310   4.171   2.678
 3733TIP3    H211161   6.330   4.312   2.627
 3734TIP3   OH211162   6.307   4.509   2.406
 3734TIP3    H111163   6.249   4.563   2.347
 3734TIP3    H211164   6.394   4.530   2.366
 3735TIP3   OH211165   5.550   4.074   2.839
 3735TIP3    H111166   5.470   4.023   2.863
 3735TIP3    H211167   5.567   4.042   2.748
 3736TIP3   OH211168   5.788   3.515   2.482
 3736TIP3    H111169   5.737   3.596   2.460
 3736TIP3    H211170   5.719   3.446   2.473
 3737TIP3   OH211171   5.915   4.018   2.698
 3737TIP3    H111172   5.894   4.002   2.792
 3737TIP3    H211173   5.827   3.996   2.659
 3738TIP3   OH211174   6.152   3.969   2.553
 3738TIP3    H111175   6.077   3.972   2.615
 3738TIP3    H211176   6.225   3.938   2.610
 3739TIP3   OH211177   6.391   3.913   2.702
 3739TIP3    H111178   6.398   3.817   2.718
 3739TIP3    H211179   6.381   3.950   2.792
 3740TIP3   OH211180   5.376   3.856   2.888
 3740TIP3    H111181   5.371   3.761   2.862
 3740TIP3    H211182   5.391   3.848   2.983
 3741TIP3   OH211183   5.886   3.528   2.739
 3741TIP3    H111184   5.948   3.453   2.732
 3741TIP3    H211185   5.842   3.522   2.651
 3742TIP3   OH211186   5.953   3.742   2.897
 3742TIP3    H111187   5.929   3.670   2.834
 3742TIP3    H211188   5.873   3.799   2.893
 3743TIP3   OH211189   5.172   4.967   1.001
 3743TIP3    H111190   5.267   4.965   0.980
 3743TIP3    H211191   5.140   5.018   0.923
 3744TIP3   OH211192   4.649   4.352   1.213
 3744TIP3    H111193   4.744   4.374   1.198
 3744TIP3    H211194   4.643   4.264   1.171
 3745TIP3   OH211195   4.567   4.964   1.631
 3745TIP3    H111196   4.501   4.903   1.590
 3745TIP3    H211197   4.611   4.903   1.694
 3746TIP3   OH211198   4.701   4.809   1.816
 3746TIP3    H111199   4.689   4.740   1.883
 3746TIP3    H211200   4.752   4.874   1.868
 3747TIP3   OH211201   6.430   5.215   1.618
 3747TIP3    H111202   6.461   5.250   1.703
 3747TIP3    H211203   6.488   5.259   1.555
 3748TIP3   OH211204   6.454   5.236   1.903
 3748TIP3    H111205   6.412   5.148   1.893
 3748TIP3    H211206   6.535   5.211   1.951
 3749TIP3   OH211207   6.500   4.913   2.474
 3749TIP3    H111208   6.430   4.927   2.541
 3749TIP3    H211209   6.546   5.000   2.475
 3750TIP3   OH211210   6.318   4.424   1.089
 3750TIP3    H111211   6.384   4.490   1.057
 3750TIP3    H211212   6.365   4.387   1.167
 3751TIP3   OH211213   6.449   4.286   1.289
 3751TIP3    H111214   6.383   4.251   1.353
 3751TIP3    H211215   6.518   4.325   1.346
 3752TIP3   OH211216   6.505   4.684   1.726
 3752TIP3    H111217   6.554   4.616   1.676
 3752TIP3    H211218   6.503   4.759   1.664
 3753TIP3   OH211219   6.332   4.984   1.920
 3753TIP3    H111220   6.258   5.025   1.967
 3753TIP3    H211221   6.286   4.939   1.845
 3754TIP3   OH211222   6.383   4.199   0.943
 3754TIP3    H111223   6.312   4.202   0.875
 3754TIP3    H211224   6.356   4.276   0.997
 3755TIP3   OH211225   6.258   3.872   0.891
 3755TIP3    H111226   6.213   3.911   0.816
 3755TIP3    H211227   6.232   3.778   0.883
 3756TIP3   OH211228   6.259   4.151   1.441
 3756TIP3    H111229   6.266   4.055   1.432
 3756TIP3    H211230   6.244   4.163   1.537
 3757TIP3   OH211231   4.885   4.224   2.186
 3757TIP3    H111232   4.882   4.189   2.094
 3757TIP3    H211233   4.983   4.223   2.202
 3758TIP3   OH211234   6.551   4.576   2.297
 3758TIP3    H111235   6.622   4.509   2.286
 3758TIP3    H211236   6.575   4.643   2.231
 3759TIP3   OH211237   6.731   4.375   2.306
 3759TIP3    H111238   6.656   4.326   2.347
 3759TIP3    H211239   6.803   4.311   2.323
 3760TIP3   OH211240   6.198   3.606   0.878
 3760TIP3    H111241   6.269   3.573   0.937
 3760TIP3    H211242   6.123   3.548   0.896
 3761TIP3   OH211243   6.258   3.866   1.332
 3761TIP3    H111244   6.299   3.777   1.345
 3761TIP3    H211245   6.315   3.900   1.261
 3762TIP3   OH211246   6.418   4.033   1.830
 3762TIP3    H111247   6.503   4.059   1.788
 3762TIP3    H211248   6.432   4.074   1.918
 3763TIP3   OH211249   6.491   4.183   2.058
 3763TIP3    H111250   6.413   4.216   2.107
 3763TIP3    H211251   6.523   4.264   2.013
 3764TIP3   OH211252   5.109   3.911   2.851
 3764TIP3    H111253   5.205   3.911   2.867
 3764TIP3    H211254   5.086   3.825   2.892
 3765TIP3   OH211255   6.988   3.799   2.606
 3765TIP3    H111256   7.010   3.711   2.571
 3765TIP3    H211257   6.930   3.836   2.537
 3766TIP3   OH211258   6.368   3.616   1.369
 3766TIP3    H111259   6.414   3.600   1.455
 3766TIP3    H211260   6.305   3.541   1.369
 3767TIP3   OH211261   5.067   3.600   2.185
 3767TIP3    H111262   5.128   3.526   2.198
 3767TIP3    H211263   5.129   3.675   2.182
 3768TIP3   OH211264   4.865   3.871   2.261
 3768TIP3    H111265   4.917   3.876   2.178
 3768TIP3    H211266   4.891   3.953   2.306
 3769TIP3   OH211267   6.805   3.902   2.431
 3769TIP3    H111268   6.725   3.954   2.453
 3769TIP3    H211269   6.765   3.839   2.368
 3770TIP3   OH211270   6.445   3.546   1.009
 3770TIP3    H111271   6.483   3.479   0.948
 3770TIP3    H211272   6.509   3.620   1.002
 3771TIP3   OH211273   4.853   3.373   1.762
 3771TIP3    H111274   4.761   3.371   1.794
 3771TIP3    H211275   4.846   3.435   1.686
 3772TIP3   OH211276   6.014   5.083   1.273
 3772TIP3    H111277   6.063   5.070   1.189
 3772TIP3    H211278   6.069   5.149   1.318
 3773TIP3   OH211279   5.070   3.447   2.574
 3773TIP3    H111280   5.028   3.455   2.661
 3773TIP3    H211281   5.005   3.493   2.517
 3774TIP3   OH211282   5.112   4.892   2.659
 3774TIP3    H111283   5.020   4.864   2.638
 3774TIP3    H211284   5.122   4.856   2.748
 3775TIP3   OH211285   5.293   4.923   2.206
 3775TIP3    H111286   5.242   4.996   2.166
 3775TIP3    H211287   5.377   4.938   2.159
 3776TIP3   OH211288   5.747   5.155   2.347
 3776TIP3    H111289   5.797   5.114   2.418
 3776TIP3    H211290   5.814   5.215   2.307
 3777TIP3   OH211291   5.945   5.310   2.222
 3777TIP3    H111292   5.980   5.243   2.162
 3777TIP3    H211293   5.989   5.389   2.190
 3778TIP3   OH211294   6.706   3.673   2.298
 3778TIP3    H111295   6.615   3.666   2.263
 3778TIP3    H211296   6.736   3.580   2.291
 3779TIP3   OH211297   4.967   5.178   2.226
 3779TIP3    H111298   4.877   5.211   2.203
 3779TIP3    H211299   4.974   5.213   2.316
 3780TIP3   OH211300   5.205   5.157   2.088
 3780TIP3    H111301   5.117   5.169   2.131
 3780TIP3    H211302   5.185   5.187   1.997
 3781TIP3   OH211303   5.628   5.180   1.884
 3781TIP3    H111304   5.558   5.193   1.817
 3781TIP3    H211305   5.637   5.270   1.921
 3782TIP3   OH211306   5.896   5.131   1.950
 3782TIP3    H111307   5.803   5.142   1.921
 3782TIP3    H211308   5.943   5.189   1.888
 3783TIP3   OH211309   6.103   5.312   1.849
 3783TIP3    H111310   6.088   5.396   1.800
 3783TIP3    H211311   6.131   5.252   1.776
 3784TIP3   OH211312   4.878   4.969   1.972
 3784TIP3    H111313   4.905   4.940   2.062
 3784TIP3    H211314   4.949   4.925   1.920
 3785TIP3   OH211315   5.072   4.841   1.832
 3785TIP3    H111316   5.087   4.758   1.882
 3785TIP3    H211317   5.164   4.876   1.826
 3786TIP3   OH211318   5.340   4.933   1.835
 3786TIP3    H111319   5.370   4.841   1.823
 3786TIP3    H211320   5.386   4.955   1.918
 3787TIP3   OH211321   5.917   3.592   1.926
 3787TIP3    H111322   5.870   3.522   1.976
 3787TIP3    H211323   5.987   3.542   1.880
 3788TIP3   OH211324   6.434   3.470   1.823
 3788TIP3    H111325   6.469   3.523   1.748
 3788TIP3    H211326   6.339   3.490   1.818
 3789TIP3   OH211327   6.530   3.567   1.588
 3789TIP3    H111328   6.605   3.517   1.549
 3789TIP3    H211329   6.562   3.659   1.574
 3790TIP3   OH211330   5.162   3.299   1.932
 3790TIP3    H111331   5.069   3.266   1.938
 3790TIP3    H211332   5.209   3.213   1.929
 3791TIP3   OH211333   4.952   3.171   1.585
 3791TIP3    H111334   4.978   3.229   1.512
 3791TIP3    H211335   4.923   3.236   1.653
 3792TIP3   OH211336   5.610   3.328   1.816
 3792TIP3    H111337   5.666   3.379   1.756
 3792TIP3    H211338   5.627   3.372   1.901
 3793TIP3   OH211339   6.153   3.480   1.799
 3793TIP3    H111340   6.147   3.441   1.711
 3793TIP3    H211341   6.141   3.401   1.856
 3794TIP3   OH211342   6.183   3.404   1.364
 3794TIP3    H111343   6.098   3.450   1.381
 3794TIP3    H211344   6.166   3.318   1.408
 3795TIP3   OH211345   4.665   4.746   1.362
 3795TIP3    H111346   4.580   4.712   1.329
 3795TIP3    H211347   4.657   4.839   1.335
 3796TIP3   OH211348   5.068   3.328   1.345
 3796TIP3    H111349   5.116   3.265   1.288
 3796TIP3    H211350   5.142   3.382   1.381
 3797TIP3   OH211351   5.578   3.506   1.445
 3797TIP3    H111352   5.637   3.459   1.506
 3797TIP3    H211353   5.600   3.599   1.470
 3798TIP3   OH211354   5.441   4.924   0.952
 3798TIP3    H111355   5.525   4.953   0.912
 3798TIP3    H211356   5.417   4.852   0.890
 3799TIP3   OH211357   6.157   5.050   1.039
 3799TIP3    H111358   6.151   4.951   1.031
 3799TIP3    H211359   6.108   5.076   0.959
 3800TIP3   OH211360   5.371   3.584   2.819
 3800TIP3    H111361   5.324   3.520   2.876
 3800TIP3    H211362   5.461   3.578   2.855
 3801TIP3   OH211363   5.620   3.576   2.948
 3801TIP3    H111364   5.703   3.544   2.910
 3801TIP3    H211365   5.600   3.507   3.014
 3802TIP3   OH211366   4.738   4.758   0.999
 3802TIP3    H111367   4.745   4.790   1.090
 3802TIP3    H211368   4.827   4.718   0.984
 3803TIP3   OH211369   6.446   3.640   2.734
 3803TIP3    H111370   6.460   3.609   2.826
 3803TIP3    H211371   6.535   3.627   2.695
 3804TIP3   OH211372   6.369   5.193   2.238
 3804TIP3    H111373   6.302   5.166   2.172
 3804TIP3    H211374   6.360   5.291   2.231
 3805TIP3   OH211375   6.942   4.463   1.755
 3805TIP3    H111376   6.979   4.395   1.814
 3805TIP3    H211377   7.022   4.511   1.727
 3806TIP3   OH211378   6.628   4.064   1.242
 3806TIP3    H111379   6.589   4.150   1.265
 3806TIP3    H211380   6.552   4.022   1.198
 3807TIP3   OH211381   6.686   4.362   1.415
 3807TIP3    H111382   6.735   4.284   1.450
 3807TIP3    H211383   6.760   4.425   1.402
 3808TIP3   OH211384   7.469   4.745   1.453
 3808TIP3    H111385   7.441   4.726   1.363
 3808TIP3    H211386   7.525   4.823   1.443
 3809TIP3   OH211387   7.174   3.952   1.427
 3809TIP3    H111388   7.164   4.023   1.360
 3809TIP3    H211389   7.133   3.877   1.378
 3810TIP3   OH211390   6.827   4.151   1.526
 3810TIP3    H111391   6.910   4.135   1.576
 3810TIP3    H211392   6.846   4.100   1.444
 3811TIP3   OH211393   7.264   4.341   1.328
 3811TIP3    H111394   7.359   4.328   1.312
 3811TIP3    H211395   7.225   4.259   1.291
 3812TIP3   OH211396   7.185   3.934   1.862
 3812TIP3    H111397   7.134   3.973   1.789
 3812TIP3    H211398   7.133   3.966   1.938
 3813TIP3   OH211399   7.295   4.705   1.661
 3813TIP3    H111400   7.239   4.782   1.687
 3813TIP3    H211401   7.348   4.742   1.587
 3814TIP3   OH211402   7.057   4.050   1.648
 3814TIP3    H111403   7.115   4.127   1.666
 3814TIP3    H211404   7.104   4.010   1.571
 3815TIP3   OH211405   7.131   4.907   1.749
 3815TIP3    H111406   7.105   4.988   1.699
 3815TIP3    H211407   7.050   4.896   1.803
 3816TIP3   OH211408   6.520   4.591   0.989
 3816TIP3    H111409   6.481   4.619   0.903
 3816TIP3    H211410   6.553   4.677   1.024
 3817TIP3   OH211411   7.076   4.489   1.181
 3817TIP3    H111412   7.026   4.422   1.131
 3817TIP3    H211413   7.134   4.436   1.238
 3818TIP3   OH211414   7.176   4.482   1.558
 3818TIP3    H111415   7.217   4.453   1.474
 3818TIP3    H211416   7.228   4.562   1.582
 3819TIP3   OH211417   7.335   5.023   1.893
 3819TIP3    H111418   7.273   5.085   1.936
 3819TIP3    H211419   7.271   4.971   1.839
 3820TIP3   OH211420   7.093   4.573   2.004
 3820TIP3    H111421   7.097   4.665   2.038
 3820TIP3    H211422   6.997   4.558   2.006
 3821TIP3   OH211423   7.129   5.189   1.976
 3821TIP3    H111424   7.096   5.194   1.884
 3821TIP3    H211425   7.047   5.168   2.027
 3822TIP3   OH211426   6.930   4.323   0.996
 3822TIP3    H111427   6.862   4.378   0.951
 3822TIP3    H211428   6.874   4.259   1.041
 3823TIP3   OH211429   6.705   4.723   1.924
 3823TIP3    H111430   6.640   4.703   1.854
 3823TIP3    H211431   6.745   4.636   1.942
 3824TIP3   OH211432   6.557   4.910   1.564
 3824TIP3    H111433   6.649   4.904   1.536
 3824TIP3    H211434   6.557   4.994   1.613
 3825TIP3   OH211435   7.517   5.154   1.739
 3825TIP3    H111436   7.521   5.243   1.779
 3825TIP3    H211437   7.455   5.108   1.799
 3826TIP3   OH211438   6.743   5.116   1.108
 3826TIP3    H111439   6.818   5.073   1.153
 3826TIP3    H211440   6.683   5.040   1.097
 3827TIP3   OH211441   6.908   4.907   1.909
 3827TIP3    H111442   6.959   4.890   1.991
 3827TIP3    H211443   6.835   4.843   1.917
 3828TIP3   OH211444   7.309   3.733   1.712
 3828TIP3    H111445   7.222   3.703   1.679
 3828TIP3    H211446   7.282   3.812   1.762
 3829TIP3   OH211447   7.217   4.259   1.706
 3829TIP3    H111448   7.174   4.279   1.792
 3829TIP3    H211449   7.202   4.343   1.657
 3830TIP3   OH211450   7.126   4.124   1.220
 3830TIP3    H111451   7.033   4.107   1.245
 3830TIP3    H211452   7.133   4.072   1.138
 3831TIP3   OH211453   7.061   4.278   1.932
 3831TIP3    H111454   7.086   4.344   1.997
 3831TIP3    H211455   7.053   4.197   1.986
 3832TIP3   OH211456   7.120   3.776   0.650
 3832TIP3    H111457   7.087   3.750   0.737
 3832TIP3    H211458   7.040   3.813   0.608
 3833TIP3   OH211459   6.655   3.790   1.507
 3833TIP3    H111460   6.727   3.828   1.561
 3833TIP3    H211461   6.697   3.772   1.422
 3834TIP3   OH211462   6.621   3.777   1.023
 3834TIP3    H111463   6.667   3.816   0.946
 3834TIP3    H211464   6.560   3.851   1.045
 3835TIP3   OH211465   7.430   3.960   1.328
 3835TIP3    H111466   7.346   3.957   1.377
 3835TIP3    H211467   7.494   3.969   1.400
 3836TIP3   OH211468   6.887   4.014   1.293
 3836TIP3    H111469   6.792   4.025   1.268
 3836TIP3    H211470   6.902   3.919   1.275
 3837TIP3   OH211471   7.168   3.998   0.963
 3837TIP3    H111472   7.222   4.076   0.946
 3837TIP3    H211473   7.100   4.011   0.892
 3838TIP3   OH211474   7.001   4.050   0.757
 3838TIP3    H111475   6.912   4.015   0.772
 3838TIP3    H211476   7.011   4.027   0.663
 3839TIP3   OH211477   7.073   4.826   2.131
 3839TIP3    H111478   7.154   4.857   2.177
 3839TIP3    H211479   7.009   4.828   2.205
 3840TIP3   OH211480   7.052   3.766   1.266
 3840TIP3    H111481   7.012   3.694   1.318
 3840TIP3    H211482   7.083   3.719   1.187
 3841TIP3   OH211483   7.458   4.132   1.683
 3841TIP3    H111484   7.374   4.183   1.683
 3841TIP3    H211485   7.521   4.196   1.647
 3842TIP3   OH211486   7.214   4.592   0.786
 3842TIP3    H111487   7.180   4.500   0.796
 3842TIP3    H211488   7.204   4.628   0.878
 3843TIP3   OH211489   7.650   4.875   1.797
 3843TIP3    H111490   7.687   4.906   1.881
 3843TIP3    H211491   7.617   4.957   1.758
 3844TIP3   OH211492   6.910   4.519   1.440
 3844TIP3    H111493   6.931   4.593   1.380
 3844TIP3    H211494   6.993   4.511   1.490
 3845TIP3   OH211495   6.825   4.510   2.062
 3845TIP3    H111496   6.839   4.494   2.157
 3845TIP3    H211497   6.755   4.446   2.042
 3846TIP3   OH211498   7.545   4.625   2.088
 3846TIP3    H111499   7.496   4.557   2.038
 3846TIP3    H211500   7.638   4.601   2.071
 3847TIP3   OH211501   6.606   4.192   0.785
 3847TIP3    H111502   6.649   4.279   0.796
 3847TIP3    H211503   6.529   4.203   0.845
 3848TIP3   OH211504   7.171   4.694   1.034
 3848TIP3    H111505   7.145   4.774   1.083
 3848TIP3    H211506   7.134   4.625   1.093
 3849TIP3   OH211507   7.315   5.233   1.550
 3849TIP3    H111508   7.352   5.298   1.485
 3849TIP3    H211509   7.396   5.206   1.597
 3850TIP3   OH211510   6.951   5.149   0.893
 3850TIP3    H111511   6.892   5.128   0.966
 3850TIP3    H211512   6.986   5.236   0.919
 3851TIP3   OH211513   7.017   4.023   2.066
 3851TIP3    H111514   6.921   4.040   2.070
 3851TIP3    H211515   7.024   3.944   2.121
 3852TIP3   OH211516   6.748   5.100   1.704
 3852TIP3    H111517   6.802   5.029   1.742
 3852TIP3    H211518   6.784   5.177   1.750
 3853TIP3   OH211519   6.957   4.731   0.743
 3853TIP3    H111520   7.031   4.679   0.777
 3853TIP3    H211521   6.996   4.819   0.739
 3854TIP3   OH211522   6.718   4.441   0.867
 3854TIP3    H111523   6.653   4.484   0.927
 3854TIP3    H211524   6.726   4.512   0.800
 3855TIP3   OH211525   7.084   3.726   0.923
 3855TIP3    H111526   7.107   3.817   0.949
 3855TIP3    H211527   7.170   3.682   0.925
 3856TIP3   OH211528   6.698   4.659   0.702
 3856TIP3    H111529   6.781   4.702   0.734
 3856TIP3    H211530   6.717   4.658   0.606
 3857TIP3   OH211531   6.670   3.928   0.798
 3857TIP3    H111532   6.654   4.025   0.800
 3857TIP3    H211533   6.589   3.896   0.756
 3858TIP3   OH211534   7.043   3.650   1.668
 3858TIP3    H111535   7.011   3.616   1.581
 3858TIP3    H211536   7.030   3.574   1.727
 3859TIP3   OH211537   6.576   4.862   1.055
 3859TIP3    H111538   6.497   4.901   1.095
 3859TIP3    H211539   6.568   4.899   0.965
 3860TIP3   OH211540   6.744   5.415   2.125
 3860TIP3    H111541   6.831   5.418   2.172
 3860TIP3    H211542   6.729   5.320   2.121
 3861TIP3   OH211543   7.214   5.372   2.169
 3861TIP3    H111544   7.310   5.361   2.179
 3861TIP3    H211545   7.195   5.309   2.096
 3862TIP3   OH211546   6.871   4.815   2.323
 3862TIP3    H111547   6.886   4.719   2.327
 3862TIP3    H211548   6.785   4.820   2.276
 3863TIP3   OH211549   7.472   4.901   2.098
 3863TIP3    H111550   7.438   4.929   2.010
 3863TIP3    H211551   7.502   4.810   2.081
 3864TIP3   OH211552   6.991   4.551   2.311
 3864TIP3    H111553   7.072   4.514   2.275
 3864TIP3    H211554   7.022   4.586   2.398
 3865TIP3   OH211555   7.089   4.347   0.776
 3865TIP3    H111556   7.040   4.339   0.860
 3865TIP3    H211557   7.051   4.274   0.727
 3866TIP3   OH211558   7.328   4.435   1.965
 3866TIP3    H111559   7.251   4.495   1.970
 3866TIP3    H211560   7.378   4.470   1.888
 3867TIP3   OH211561   7.411   4.215   2.098
 3867TIP3    H111562   7.424   4.136   2.041
 3867TIP3    H211563   7.377   4.281   2.034
 3868TIP3   OH211564   7.441   4.009   1.925
 3868TIP3    H111565   7.462   4.045   1.836
 3868TIP3    H211566   7.356   3.966   1.907
 3869TIP3   OH211567   7.480   4.545   1.770
 3869TIP3    H111568   7.548   4.582   1.713
 3869TIP3    H211569   7.406   4.605   1.745
 3870TIP3   OH211570   7.325   4.340   2.327
 3870TIP3    H111571   7.254   4.274   2.341
 3870TIP3    H211572   7.357   4.311   2.239
 3871TIP3   OH211573   7.679   4.302   2.123
 3871TIP3    H111574   7.726   4.232   2.173
 3871TIP3    H211575   7.588   4.267   2.122
 3872TIP3   OH211576   7.159   4.122   2.375
 3872TIP3    H111577   7.175   4.033   2.340
 3872TIP3    H211578   7.194   4.113   2.465
 3873TIP3   OH211579   6.430   4.602   0.720
 3873TIP3    H111580   6.523   4.631   0.705
 3873TIP3    H211581   6.427   4.521   0.665
 3874TIP3   OH211582   6.360   5.226   1.113
 3874TIP3    H111583   6.298   5.160   1.074
 3874TIP3    H211584   6.405   5.170   1.180
 3875TIP3   OH211585   6.486   5.079   1.306
 3875TIP3    H111586   6.483   4.997   1.357
 3875TIP3    H211587   6.553   5.130   1.356
 3876TIP3   OH211588   6.683   4.474   1.674
 3876TIP3    H111589   6.683   4.448   1.580
 3876TIP3    H211590   6.780   4.478   1.691
 3877TIP3   OH211591   6.890   4.158   2.346
 3877TIP3    H111592   6.988   4.159   2.347
 3877TIP3    H211593   6.872   4.073   2.390
 3878TIP3   OH211594   6.858   3.858   1.680
 3878TIP3    H111595   6.922   3.784   1.686
 3878TIP3    H211596   6.919   3.934   1.675
 3879TIP3   OH211597   6.664   4.130   1.753
 3879TIP3    H111598   6.712   4.128   1.668
 3879TIP3    H211599   6.685   4.219   1.785
 3880TIP3   OH211600   6.651   3.629   1.248
 3880TIP3    H111601   6.559   3.626   1.280
 3880TIP3    H211602   6.643   3.691   1.172
 3881TIP3   OH211603   6.870   3.720   2.070
 3881TIP3    H111604   6.811   3.712   2.147
 3881TIP3    H211605   6.806   3.756   2.005
 3882TIP3   OH211606   6.907   5.145   2.140
 3882TIP3    H111607   6.815   5.118   2.126
 3882TIP3    H211608   6.919   5.128   2.235
 3883TIP3   OH211609   7.087   5.183   1.694
 3883TIP3    H111610   7.043   5.259   1.650
 3883TIP3    H211611   7.173   5.190   1.649
 3884TIP3   OH211612   7.542   5.424   1.835
 3884TIP3    H111613   7.575   5.416   1.927
 3884TIP3    H211614   7.612   5.475   1.794
 3885TIP3   OH211615   6.759   5.430   1.716
 3885TIP3    H111616   6.669   5.464   1.695
 3885TIP3    H211617   6.778   5.480   1.796
 3886TIP3   OH211618   6.998   5.414   1.576
 3886TIP3    H111619   6.909   5.425   1.615
 3886TIP3    H211620   6.983   5.441   1.483
 3887TIP3   OH211621   7.421   5.419   1.370
 3887TIP3    H111622   7.352   5.445   1.307
 3887TIP3    H211623   7.446   5.503   1.411
 3888TIP3   OH211624   6.687   5.216   1.456
 3888TIP3    H111625   6.704   5.193   1.550
 3888TIP3    H211626   6.767   5.177   1.415
 3889TIP3   OH211627   7.143   5.216   1.304
 3889TIP3    H111628   7.098   5.131   1.278
 3889TIP3    H211629   7.182   5.189   1.389
 3890TIP3   OH211630   6.950   3.561   1.416
 3890TIP3    H111631   6.855   3.537   1.418
 3890TIP3    H211632   6.988   3.470   1.421
 3891TIP3   OH211633   6.755   3.425   1.066
 3891TIP3    H111634   6.776   3.486   0.992
 3891TIP3    H211635   6.721   3.488   1.133
 3892TIP3   OH211636   6.453   4.993   0.858
 3892TIP3    H111637   6.373   4.954   0.818
 3892TIP3    H211638   6.446   5.083   0.822
 3893TIP3   OH211639   6.855   3.575   0.844
 3893TIP3    H111640   6.903   3.522   0.778
 3893TIP3    H211641   6.926   3.632   0.879
 3894TIP3   OH211642   7.186   3.824   2.373
 3894TIP3    H111643   7.124   3.749   2.371
 3894TIP3    H211644   7.240   3.806   2.294
 3895TIP3   OH211645   7.465   3.810   2.438
 3895TIP3    H111646   7.513   3.862   2.371
 3895TIP3    H211647   7.528   3.734   2.445
 3896TIP3   OH211648   0.122   5.338   2.666
 3896TIP3    H111649   0.110   5.434   2.656
 3896TIP3    H211650   0.038   5.315   2.708
 3897TIP3   OH211651   0.114   5.339   3.051
 3897TIP3    H111652   0.129   5.341   3.148
 3897TIP3    H211653   0.035   5.284   3.045
 3898TIP3   OH211654   0.342   5.652   2.751
 3898TIP3    H111655   0.338   5.586   2.822
 3898TIP3    H211656   0.374   5.731   2.798
 3899TIP3   OH211657   0.913   4.898   3.109
 3899TIP3    H111658   0.945   4.981   3.151
 3899TIP3    H211659   0.940   4.912   3.017
 3900TIP3   OH211660   0.307   5.076   3.144
 3900TIP3    H111661   0.350   4.991   3.166
 3900TIP3    H211662   0.285   5.062   3.050
 3901TIP3   OH211663   0.345   4.828   2.728
 3901TIP3    H111664   0.415   4.813   2.797
 3901TIP3    H211665   0.401   4.862   2.656
 3902TIP3   OH211666   0.988   5.110   3.275
 3902TIP3    H111667   0.900   5.152   3.261
 3902TIP3    H211668   1.001   5.130   3.369
 3903TIP3   OH211669   0.032   5.572   2.533
 3903TIP3    H111670  -0.049   5.550   2.487
 3903TIP3    H211671   0.012   5.656   2.576
 3904TIP3   OH211672   0.548   4.837   2.905
 3904TIP3    H111673   0.534   4.791   2.989
 3904TIP3    H211674   0.602   4.914   2.933
 3905TIP3   OH211675   0.411   5.899   2.902
 3905TIP3    H111676   0.322   5.893   2.942
 3905TIP3    H211677   0.406   5.987   2.860
 3906TIP3   OH211678   0.707   4.799   3.276
 3906TIP3    H111679   0.620   4.824   3.241
 3906TIP3    H211680   0.768   4.831   3.205
 3907TIP3   OH211681   0.041   4.436   3.236
 3907TIP3    H111682   0.025   4.341   3.254
 3907TIP3    H211683  -0.046   4.475   3.257
 3908TIP3   OH211684   0.105   5.931   2.557
 3908TIP3    H111685   0.169   5.859   2.542
 3908TIP3    H211686   0.165   6.008   2.544
 3909TIP3   OH211687   0.274   5.725   2.493
 3909TIP3    H111688   0.219   5.651   2.464
 3909TIP3    H211689   0.307   5.692   2.580
 3910TIP3   OH211690   0.642   5.810   3.253
 3910TIP3    H111691   0.625   5.733   3.195
 3910TIP3    H211692   0.622   5.885   3.193
 3911TIP3   OH211693  -0.093   5.198   2.488
 3911TIP3    H111694  -0.116   5.292   2.480
 3911TIP3    H211695  -0.019   5.191   2.424
 3912TIP3   OH211696  -0.096   4.996   2.223
 3912TIP3    H111697  -0.028   5.043   2.275
 3912TIP3    H211698  -0.056   4.909   2.210
 3913TIP3   OH211699   0.836   5.456   3.102
 3913TIP3    H111700   0.750   5.503   3.109
 3913TIP3    H211701   0.859   5.475   3.009
 3914TIP3   OH211702   0.297   5.277   2.470
 3914TIP3    H111703   0.240   5.299   2.548
 3914TIP3    H211704   0.381   5.256   2.515
 3915TIP3   OH211705   0.520   5.324   3.403
 3915TIP3    H111706   0.514   5.406   3.455
 3915TIP3    H211707   0.431   5.324   3.361
 3916TIP3   OH211708   0.183   5.885   3.049
 3916TIP3    H111709   0.192   5.951   3.118
 3916TIP3    H211710   0.207   5.803   3.098
 3917TIP3   OH211711   0.124   5.143   2.312
 3917TIP3    H111712   0.189   5.200   2.359
 3917TIP3    H211713   0.146   5.166   2.218
 3918TIP3   OH211714   0.637   4.389   2.354
 3918TIP3    H111715   0.556   4.408   2.407
 3918TIP3    H211716   0.646   4.471   2.302
 3919TIP3   OH211717   0.431   5.747   1.907
 3919TIP3    H111718   0.441   5.845   1.900
 3919TIP3    H211719   0.523   5.719   1.890
 3920TIP3   OH211720   0.881   6.158   3.303
 3920TIP3    H111721   0.877   6.062   3.321
 3920TIP3    H211722   0.798   6.186   3.349
 3921TIP3   OH211723   0.008   6.029   2.307
 3921TIP3    H111724  -0.087   6.030   2.323
 3921TIP3    H211725   0.044   5.996   2.392
 3922TIP3   OH211726   0.770   5.288   3.574
 3922TIP3    H111727   0.684   5.296   3.531
 3922TIP3    H211728   0.786   5.192   3.566
 3923TIP3   OH211729   0.300   4.632   3.587
 3923TIP3    H111730   0.366   4.599   3.652
 3923TIP3    H211731   0.215   4.610   3.630
 3924TIP3   OH211732   0.530   5.059   3.495
 3924TIP3    H111733   0.482   5.056   3.581
 3924TIP3    H211734   0.510   5.149   3.462
 3925TIP3   OH211735   0.184   5.178   2.048
 3925TIP3    H111736   0.166   5.152   1.955
 3925TIP3    H211737   0.270   5.225   2.035
 3926TIP3   OH211738  -0.095   4.561   2.347
 3926TIP3    H111739  -0.121   4.569   2.440
 3926TIP3    H211740  -0.130   4.473   2.328
 3927TIP3   OH211741   0.078   5.018   2.641
 3927TIP3    H111742   0.018   5.082   2.598
 3927TIP3    H211743   0.136   4.992   2.567
 3928TIP3   OH211744   0.253   5.280   3.735
 3928TIP3    H111745   0.220   5.223   3.807
 3928TIP3    H211746   0.346   5.292   3.762
 3929TIP3   OH211747   0.230   5.034   2.881
 3929TIP3    H111748   0.169   5.060   2.810
 3929TIP3    H211749   0.264   4.951   2.841
 3930TIP3   OH211750   0.257   5.288   3.305
 3930TIP3    H111751   0.277   5.209   3.250
 3930TIP3    H211752   0.211   5.245   3.381
 3931TIP3   OH211753  -0.071   4.669   3.003
 3931TIP3    H111754  -0.123   4.741   2.962
 3931TIP3    H211755   0.001   4.718   3.046
 3932TIP3   OH211756   0.402   4.818   3.186
 3932TIP3    H111757   0.370   4.831   3.278
 3932TIP3    H211758   0.333   4.757   3.153
 3933TIP3   OH211759   0.574   6.502   3.403
 3933TIP3    H111760   0.567   6.528   3.309
 3933TIP3    H211761   0.649   6.555   3.434
 3934TIP3   OH211762   0.007   4.994   3.065
 3934TIP3    H111763   0.089   5.016   3.017
 3934TIP3    H211764   0.013   5.053   3.142
 3935TIP3   OH211765   0.598   5.592   3.089
 3935TIP3    H111766   0.622   5.643   3.009
 3935TIP3    H211767   0.514   5.549   3.062
 3936TIP3   OH211768   0.129   4.709   2.256
 3936TIP3    H111769   0.066   4.647   2.299
 3936TIP3    H211770   0.172   4.754   2.330
 3937TIP3   OH211771   0.231   4.906   2.428
 3937TIP3    H111772   0.327   4.908   2.449
 3937TIP3    H211773   0.220   4.988   2.378
 3938TIP3   OH211774   0.258   5.966   3.337
 3938TIP3    H111775   0.167   5.942   3.359
 3938TIP3    H211776   0.291   5.993   3.426
 3939TIP3   OH211777   0.659   5.009   2.265
 3939TIP3    H111778   0.591   4.966   2.209
 3939TIP3    H211779   0.662   5.096   2.218
 3940TIP3   OH211780   0.892   5.866   3.342
 3940TIP3    H111781   0.794   5.861   3.335
 3940TIP3    H211782   0.916   5.834   3.252
 3941TIP3   OH211783   0.389   5.826   2.176
 3941TIP3    H111784   0.344   5.763   2.234
 3941TIP3    H211785   0.388   5.781   2.089
 3942TIP3   OH211786   0.362   5.458   3.004
 3942TIP3    H111787   0.273   5.419   3.019
 3942TIP3    H211788   0.405   5.381   2.961
 3943TIP3   OH211789   0.245   5.663   3.190
 3943TIP3    H111790   0.222   5.618   3.272
 3943TIP3    H211791   0.292   5.594   3.141
 3944TIP3   OH211792   0.117   5.555   2.065
 3944TIP3    H111793   0.163   5.530   2.148
 3944TIP3    H211794   0.031   5.510   2.075
 3945TIP3   OH211795   0.420   6.188   3.235
 3945TIP3    H111796   0.338   6.154   3.277
 3945TIP3    H211797   0.385   6.261   3.180
 3946TIP3   OH211798   0.468   6.015   1.898
 3946TIP3    H111799   0.488   6.048   1.808
 3946TIP3    H211800   0.399   6.080   1.927
 3947TIP3   OH211801   0.285   5.481   2.281
 3947TIP3    H111802   0.283   5.418   2.355
 3947TIP3    H211803   0.382   5.487   2.268
 3948TIP3   OH211804   0.321   4.866   3.444
 3948TIP3    H111805   0.402   4.909   3.476
 3948TIP3    H211806   0.318   4.784   3.498
 3949TIP3   OH211807   0.230   4.615   2.599
 3949TIP3    H111808   0.173   4.666   2.540
 3949TIP3    H211809   0.270   4.686   2.652
 3950TIP3   OH211810  -0.033   4.764   2.652
 3950TIP3    H111811   0.021   4.845   2.644
 3950TIP3    H211812  -0.099   4.797   2.718
 3951TIP3   OH211813   0.175   5.135   3.515
 3951TIP3    H111814   0.198   5.191   3.593
 3951TIP3    H211815   0.226   5.055   3.531
 3952TIP3   OH211816   0.033   4.509   2.805
 3952TIP3    H111817   0.015   4.572   2.878
 3952TIP3    H211818   0.085   4.564   2.744
 3953TIP3   OH211819   0.798   5.021   3.493
 3953TIP3    H111820   0.701   5.020   3.501
 3953TIP3    H211821   0.809   4.965   3.415
 3954TIP3   OH211822   0.454   5.217   2.886
 3954TIP3    H111823   0.377   5.158   2.895
 3954TIP3    H211824   0.524   5.166   2.933
 3955TIP3   OH211825   0.420   6.167   2.828
 3955TIP3    H111826   0.375   6.217   2.756
 3955TIP3    H211827   0.514   6.188   2.808
 3956TIP3   OH211828   0.310   6.065   3.592
 3956TIP3    H111829   0.320   5.987   3.650
 3956TIP3    H211830   0.384   6.122   3.621
 3957TIP3   OH211831   0.108   5.813   1.876
 3957TIP3    H111832   0.100   5.767   1.961
 3957TIP3    H211833   0.171   5.756   1.830
 3958TIP3   OH211834  -0.132   5.425   2.078
 3958TIP3    H111835  -0.220   5.460   2.097
 3958TIP3    H211836  -0.157   5.344   2.031
 3959TIP3   OH211837   0.437   5.711   3.411
 3959TIP3    H111838   0.514   5.750   3.366
 3959TIP3    H211839   0.365   5.764   3.374
 3960TIP3   OH211840   0.331   5.638   3.794
 3960TIP3    H111841   0.391   5.581   3.742
 3960TIP3    H211842   0.300   5.576   3.862
 3961TIP3   OH211843   0.419   5.282   1.937
 3961TIP3    H111844   0.415   5.234   1.852
 3961TIP3    H211845   0.385   5.370   1.909
 3962TIP3   OH211846   0.511   5.297   3.842
 3962TIP3    H111847   0.563   5.219   3.868
 3962TIP3    H211848   0.579   5.356   3.806
 3963TIP3   OH211849   0.558   5.549   3.589
 3963TIP3    H111850   0.501   5.609   3.534
 3963TIP3    H211851   0.645   5.568   3.549
 3964TIP3   OH211852   0.019   4.576   3.616
 3964TIP3    H111853  -0.025   4.662   3.614
 3964TIP3    H211854  -0.030   4.528   3.685
 3965TIP3   OH211855   0.141   5.097   3.913
 3965TIP3    H111856   0.196   5.055   3.982
 3965TIP3    H211857   0.084   5.022   3.885
 3966TIP3   OH211858   0.404   5.008   3.728
 3966TIP3    H111859   0.339   5.005   3.798
 3966TIP3    H211860   0.486   4.983   3.776
 3967TIP3   OH211861   0.628   4.955   3.876
 3967TIP3    H111862   0.644   4.859   3.894
 3967TIP3    H211863   0.624   4.993   3.966
 3968TIP3   OH211864   0.172   4.830   4.045
 3968TIP3    H111865   0.212   4.741   4.058
 3968TIP3    H211866   0.103   4.809   3.980
 3969TIP3   OH211867   0.681   6.247   2.795
 3969TIP3    H111868   0.700   6.282   2.884
 3969TIP3    H211869   0.734   6.304   2.738
 3970TIP3   OH211870   0.713   6.277   3.073
 3970TIP3    H111871   0.661   6.194   3.068
 3970TIP3    H211872   0.780   6.250   3.138
 3971TIP3   OH211873   0.756   5.956   3.640
 3971TIP3    H111874   0.685   5.964   3.708
 3971TIP3    H211875   0.797   6.044   3.646
 3972TIP3   OH211876   0.567   5.467   2.264
 3972TIP3    H111877   0.630   5.534   2.232
 3972TIP3    H211878   0.614   5.433   2.343
 3973TIP3   OH211879   0.696   5.339   2.472
 3973TIP3    H111880   0.629   5.294   2.529
 3973TIP3    H211881   0.757   5.377   2.538
 3974TIP3   OH211882   0.755   5.729   2.904
 3974TIP3    H111883   0.808   5.668   2.850
 3974TIP3    H211884   0.746   5.806   2.845
 3975TIP3   OH211885   0.584   6.026   3.090
 3975TIP3    H111886   0.516   6.076   3.141
 3975TIP3    H211887   0.530   5.984   3.020
 3976TIP3   OH211888   0.629   5.242   2.113
 3976TIP3    H111889   0.559   5.246   2.045
 3976TIP3    H211890   0.601   5.318   2.169
 3977TIP3   OH211891   0.490   4.906   2.065
 3977TIP3    H111892   0.481   4.953   1.980
 3977TIP3    H211893   0.548   4.834   2.038
 3978TIP3   OH211894   0.515   5.194   2.618
 3978TIP3    H111895   0.521   5.097   2.612
 3978TIP3    H211896   0.497   5.208   2.714
 3979TIP3   OH211897   0.800   5.619   3.474
 3979TIP3    H111898   0.871   5.552   3.462
 3979TIP3    H211899   0.825   5.688   3.411
 3980TIP3   OH211900   0.985   5.421   3.477
 3980TIP3    H111901   0.911   5.373   3.519
 3980TIP3    H211902   1.058   5.358   3.496
 3981TIP3   OH211903   0.503   4.909   2.508
 3981TIP3    H111904   0.544   4.820   2.523
 3981TIP3    H211905   0.564   4.944   2.441
 3982TIP3   OH211906   0.662   5.080   3.006
 3982TIP3    H111907   0.748   5.104   2.964
 3982TIP3    H211908   0.678   5.116   3.095
 3983TIP3   OH211909   0.737   5.229   3.233
 3983TIP3    H111910   0.662   5.260   3.287
 3983TIP3    H211911   0.769   5.312   3.193
 3984TIP3   OH211912   1.185   4.820   3.790
 3984TIP3    H111913   1.248   4.755   3.752
 3984TIP3    H211914   1.159   4.872   3.711
 3985TIP3   OH211915   0.612   4.663   2.549
 3985TIP3    H111916   0.663   4.646   2.631
 3985TIP3    H211917   0.556   4.582   2.545
 3986TIP3   OH211918   1.058   4.959   3.591
 3986TIP3    H111919   0.973   5.000   3.618
 3986TIP3    H211920   1.024   4.884   3.538
 3987TIP3   OH211921   0.697   4.600   2.178
 3987TIP3    H111922   0.735   4.527   2.126
 3987TIP3    H211923   0.768   4.667   2.176
 3988TIP3   OH211924   0.274   6.123   2.459
 3988TIP3    H111925   0.312   6.107   2.370
 3988TIP3    H211926   0.326   6.198   2.489
 3989TIP3   OH211927   0.958   4.719   3.477
 3989TIP3    H111928   0.868   4.705   3.443
 3989TIP3    H211929   0.995   4.628   3.469
 3990TIP3   OH211930   0.386   6.370   3.026
 3990TIP3    H111931   0.350   6.447   2.976
 3990TIP3    H211932   0.385   6.300   2.959
 3991TIP3   OH211933   0.200   4.640   3.114
 3991TIP3    H111934   0.146   4.567   3.150
 3991TIP3    H211935   0.267   4.591   3.062
 3992TIP3   OH211936   0.683   4.514   2.998
 3992TIP3    H111937   0.720   4.566   2.924
 3992TIP3    H211938   0.588   4.534   2.991
 3993TIP3   OH211939   0.778   4.617   2.763
 3993TIP3    H111940   0.852   4.563   2.727
 3993TIP3    H211941   0.814   4.707   2.748
 3994TIP3   OH211942  -0.140   4.365   2.988
 3994TIP3    H111943  -0.086   4.414   2.925
 3994TIP3    H211944  -0.137   4.425   3.064
 3995TIP3   OH211945   0.404   4.518   2.968
 3995TIP3    H111946   0.409   4.473   2.883
 3995TIP3    H211947   0.390   4.442   3.029
 3996TIP3   OH211948   0.438   4.445   2.538
 3996TIP3    H111949   0.356   4.497   2.555
 3996TIP3    H211950   0.416   4.361   2.584
 3997TIP3   OH211951  -0.182   4.538   2.608
 3997TIP3    H111952  -0.140   4.486   2.678
 3997TIP3    H211953  -0.138   4.625   2.624
 3998TIP3   OH211954   0.409   6.094   2.217
 3998TIP3    H111955   0.407   5.996   2.208
 3998TIP3    H211956   0.367   6.121   2.133
 3999TIP3   OH211957   0.692   4.686   3.907
 3999TIP3    H111958   0.709   4.654   3.999
 3999TIP3    H211959   0.782   4.680   3.868
 4000TIP3   OH211960   0.637   6.236   3.399
 4000TIP3    H111961   0.561   6.206   3.344
 4000TIP3    H211962   0.612   6.330   3.411
 4001TIP3   OH211963   1.899   5.612   2.166
 4001TIP3    H111964   1.865   5.701   2.141
 4001TIP3    H211965   1.827   5.556   2.132
 4002TIP3   OH211966   1.897   5.611   2.556
 4002TIP3    H111967   1.933   5.581   2.641
 4002TIP3    H211968   1.861   5.528   2.520
 4003TIP3   OH211969   2.153   5.907   2.234
 4003TIP3    H111970   2.116   5.844   2.298
 4003TIP3    H211971   2.169   5.986   2.288
 4004TIP3   OH211972   1.183   5.894   2.650
 4004TIP3    H111973   1.160   5.816   2.598
 4004TIP3    H211974   1.278   5.906   2.627
 4005TIP3   OH211975   0.873   5.117   2.420
 4005TIP3    H111976   0.822   5.199   2.436
 4005TIP3    H211977   0.805   5.061   2.380
 4006TIP3   OH211978   0.940   5.407   2.594
 4006TIP3    H111979   0.985   5.326   2.627
 4006TIP3    H211980   0.984   5.420   2.509
 4007TIP3   OH211981   1.793   6.374   2.250
 4007TIP3    H111982   1.833   6.303   2.195
 4007TIP3    H211983   1.787   6.332   2.336
 4008TIP3   OH211984   1.693   5.826   2.611
 4008TIP3    H111985   1.735   5.755   2.560
 4008TIP3    H211986   1.775   5.877   2.632
 4009TIP3   OH211987   2.706   5.163   2.580
 4009TIP3    H111988   2.747   5.235   2.632
 4009TIP3    H211989   2.765   5.157   2.502
 4010TIP3   OH211990   2.113   5.339   2.625
 4010TIP3    H111991   2.152   5.253   2.649
 4010TIP3    H211992   2.078   5.319   2.536
 4011TIP3   OH211993   1.447   4.997   2.594
 4011TIP3    H111994   1.430   5.067   2.528
 4011TIP3    H211995   1.401   4.922   2.550
 4012TIP3   OH211996   2.142   5.091   2.212
 4012TIP3    H111997   2.211   5.073   2.280
 4012TIP3    H211998   2.198   5.122   2.139
 4013TIP3   OH211999   1.084   5.200   2.703
 4013TIP3    H112000   1.165   5.173   2.750
 4013TIP3    H212001   1.094   5.143   2.623
 4014TIP3   OH212002   1.505   5.393   2.526
 4014TIP3    H112003   1.602   5.376   2.528
 4014TIP3    H212004   1.473   5.312   2.481
 4015TIP3   OH212005   2.779   5.373   2.751
 4015TIP3    H112006   2.691   5.414   2.745
 4015TIP3    H212007   2.790   5.369   2.847
 4016TIP3   OH212008   1.444   4.980   3.029
 4016TIP3    H112009   1.381   5.013   2.962
 4016TIP3    H212010   1.392   4.993   3.111
 4017TIP3   OH212011   1.782   5.829   2.039
 4017TIP3    H112012   1.747   5.816   1.950
 4017TIP3    H212013   1.737   5.912   2.066
 4018TIP3   OH212014   1.547   5.776   2.828
 4018TIP3    H112015   1.520   5.868   2.847
 4018TIP3    H212016   1.600   5.792   2.746
 4019TIP3   OH212017   2.344   5.092   2.390
 4019TIP3    H112018   2.339   5.032   2.466
 4019TIP3    H212019   2.407   5.159   2.421
 4020TIP3   OH212020   1.315   5.094   2.812
 4020TIP3    H112021   1.381   5.163   2.837
 4020TIP3    H212022   1.364   5.052   2.737
 4021TIP3   OH212023   1.359   5.936   2.930
 4021TIP3    H112024   1.343   6.018   2.879
 4021TIP3    H212025   1.281   5.942   2.990
 4022TIP3   OH212026   0.767   5.640   2.158
 4022TIP3    H112027   0.728   5.663   2.072
 4022TIP3    H212028   0.797   5.727   2.190
 4023TIP3   OH212029   2.215   6.152   2.395
 4023TIP3    H112030   2.125   6.146   2.437
 4023TIP3    H212031   2.206   6.238   2.349
 4024TIP3   OH212032   2.498   5.079   2.766
 4024TIP3    H112033   2.409   5.083   2.728
 4024TIP3    H212034   2.556   5.097   2.689
 4025TIP3   OH212035   1.780   4.704   2.723
 4025TIP3    H112036   1.794   4.614   2.758
 4025TIP3    H212037   1.706   4.734   2.780
 4026TIP3   OH212038   1.908   6.200   2.068
 4026TIP3    H112039   1.958   6.116   2.049
 4026TIP3    H212040   1.972   6.264   2.030
 4027TIP3   OH212041   2.053   5.984   1.985
 4027TIP3    H112042   2.029   5.905   1.935
 4027TIP3    H212043   2.094   5.945   2.065
 4028TIP3   OH212044   2.436   6.058   2.739
 4028TIP3    H112045   2.435   5.984   2.676
 4028TIP3    H212046   2.416   6.136   2.683
 4029TIP3   OH212047   1.731   5.464   2.001
 4029TIP3    H112048   1.651   5.515   1.980
 4029TIP3    H212049   1.775   5.456   1.914
 4030TIP3   OH212050   1.687   5.247   1.712
 4030TIP3    H112051   1.754   5.300   1.759
 4030TIP3    H212052   1.745   5.183   1.665
 4031TIP3   OH212053   2.079   5.545   1.969
 4031TIP3    H112054   2.023   5.567   2.047
 4031TIP3    H212055   2.163   5.520   2.012
 4032TIP3   OH212056   2.304   5.583   2.889
 4032TIP3    H112057   2.304   5.664   2.944
 4032TIP3    H212058   2.217   5.588   2.845
 4033TIP3   OH212059   1.316   5.545   2.377
 4033TIP3    H112060   1.267   5.483   2.318
 4033TIP3    H212061   1.379   5.487   2.422
 4034TIP3   OH212062   1.430   5.932   2.539
 4034TIP3    H112063   1.414   5.918   2.445
 4034TIP3    H212064   1.522   5.902   2.550
 4035TIP3   OH212065   1.420   5.540   2.766
 4035TIP3    H112066   1.413   5.485   2.684
 4035TIP3    H212067   1.501   5.588   2.743
 4036TIP3   OH212068   1.976   6.149   2.520
 4036TIP3    H112069   1.959   6.232   2.569
 4036TIP3    H212070   1.955   6.080   2.586
 4037TIP3   OH212071   1.579   6.068   3.063
 4037TIP3    H112072   1.529   6.133   3.116
 4037TIP3    H212073   1.505   6.021   3.022
 4038TIP3   OH212074   1.913   5.404   1.796
 4038TIP3    H112075   1.974   5.464   1.845
 4038TIP3    H212076   1.940   5.423   1.703
 4039TIP3   OH212077   1.307   5.671   3.093
 4039TIP3    H112078   1.311   5.737   3.167
 4039TIP3    H212079   1.233   5.617   3.127
 4040TIP3   OH212080   1.660   6.082   2.079
 4040TIP3    H112081   1.744   6.132   2.081
 4040TIP3    H212082   1.602   6.140   2.027
 4041TIP3   OH212083   1.377   6.233   3.155
 4041TIP3    H112084   1.340   6.239   3.065
 4041TIP3    H212085   1.297   6.213   3.209
 4042TIP3   OH212086   2.432   4.641   1.846
 4042TIP3    H112087   2.350   4.662   1.895
 4042TIP3    H212088   2.446   4.723   1.795
 4043TIP3   OH212089   1.170   5.382   2.197
 4043TIP3    H112090   1.104   5.427   2.140
 4043TIP3    H212091   1.139   5.291   2.195
 4044TIP3   OH212092   2.233   6.008   1.397
 4044TIP3    H112093   2.242   6.104   1.379
 4044TIP3    H212094   2.326   5.978   1.384
 4045TIP3   OH212095   0.955   5.764   3.100
 4045TIP3    H112096   0.884   5.747   3.034
 4045TIP3    H212097   0.985   5.674   3.123
 4046TIP3   OH212098   0.809   5.963   2.739
 4046TIP3    H112099   0.904   5.978   2.742
 4046TIP3    H212100   0.776   6.043   2.783
 4047TIP3   OH212101   2.674   6.413   2.792
 4047TIP3    H112102   2.673   6.318   2.811
 4047TIP3    H212103   2.591   6.441   2.836
 4048TIP3   OH212104   1.778   6.198   2.922
 4048TIP3    H112105   1.776   6.291   2.956
 4048TIP3    H212106   1.708   6.157   2.977
 4049TIP3   OH212107   1.545   6.321   1.877
 4049TIP3    H112108   1.497   6.307   1.793
 4049TIP3    H212109   1.513   6.409   1.905
 4050TIP3   OH212110   0.980   6.178   2.260
 4050TIP3    H112111   1.024   6.168   2.347
 4050TIP3    H212112   0.926   6.097   2.256
 4051TIP3   OH212113   1.742   6.227   1.513
 4051TIP3    H112114   1.801   6.158   1.477
 4051TIP3    H212115   1.778   6.239   1.604
 4052TIP3   OH212116   1.795   6.276   1.782
 4052TIP3    H112117   1.706   6.285   1.824
 4052TIP3    H212118   1.847   6.239   1.855
 4053TIP3   OH212119   2.561   5.540   3.065
 4053TIP3    H112120   2.472   5.544   3.026
 4053TIP3    H212121   2.581   5.445   3.055
 4054TIP3   OH212122   1.150   5.955   3.095
 4054TIP3    H112123   1.195   5.944   3.181
 4054TIP3    H212124   1.077   5.890   3.102
 4055TIP3   OH212125   1.556   4.774   2.876
 4055TIP3    H112126   1.468   4.743   2.845
 4055TIP3    H212127   1.528   4.852   2.928
 4056TIP3   OH212128   2.094   4.889   3.055
 4056TIP3    H112129   2.174   4.867   3.108
 4056TIP3    H212130   2.022   4.855   3.112
 4057TIP3   OH212131   2.334   5.326   2.991
 4057TIP3    H112132   2.282   5.314   3.073
 4057TIP3    H212133   2.299   5.410   2.956
 4058TIP3   OH212134   1.994   5.447   1.543
 4058TIP3    H112135   1.957   5.424   1.456
 4058TIP3    H212136   2.079   5.488   1.516
 4059TIP3   OH212137   1.704   4.822   1.845
 4059TIP3    H112138   1.669   4.817   1.936
 4059TIP3    H212139   1.665   4.740   1.809
 4060TIP3   OH212140   1.489   5.296   2.890
 4060TIP3    H112141   1.438   5.305   2.974
 4060TIP3    H212142   1.466   5.379   2.846
 4061TIP3   OH212143   1.374   5.180   2.406
 4061TIP3    H112144   1.282   5.151   2.424
 4061TIP3    H212145   1.388   5.139   2.317
 4062TIP3   OH212146   1.867   5.263   2.137
 4062TIP3    H112147   1.817   5.332   2.090
 4062TIP3    H212148   1.922   5.226   2.064
 4063TIP3   OH212149   2.041   5.539   3.220
 4063TIP3    H112150   2.020   5.464   3.281
 4063TIP3    H212151   2.136   5.551   3.242
 4064TIP3   OH212152   2.025   5.292   2.367
 4064TIP3    H112153   1.959   5.312   2.297
 4064TIP3    H212154   2.062   5.211   2.326
 4065TIP3   OH212155   1.318   5.304   3.103
 4065TIP3    H112156   1.342   5.358   3.179
 4065TIP3    H212157   1.299   5.218   3.147
 4066TIP3   OH212158   1.362   4.798   1.809
 4066TIP3    H112159   1.350   4.796   1.906
 4066TIP3    H212160   1.283   4.850   1.783
 4067TIP3   OH212161   0.905   4.840   2.680
 4067TIP3    H112162   0.980   4.871   2.734
 4067TIP3    H212163   0.947   4.805   2.600
 4068TIP3   OH212164   0.872   4.822   2.204
 4068TIP3    H112165   0.913   4.855   2.121
 4068TIP3    H212166   0.809   4.895   2.220
 4069TIP3   OH212167   2.033   5.532   2.794
 4069TIP3    H112168   2.068   5.463   2.733
 4069TIP3    H212169   2.006   5.476   2.869
 4070TIP3   OH212170   1.708   5.009   2.468
 4070TIP3    H112171   1.629   4.998   2.525
 4070TIP3    H212172   1.780   4.983   2.529
 4071TIP3   OH212173   1.137   5.055   2.476
 4071TIP3    H112174   1.044   5.059   2.445
 4071TIP3    H212175   1.164   4.963   2.453
 4072TIP3   OH212176   1.401   5.051   2.166
 4072TIP3    H112177   1.496   5.062   2.144
 4072TIP3    H212178   1.356   5.070   2.080
 4073TIP3   OH212179   2.195   5.079   2.675
 4073TIP3    H112180   2.161   5.087   2.766
 4073TIP3    H212181   2.135   5.013   2.638
 4074TIP3   OH212182   1.252   5.087   1.940
 4074TIP3    H112183   1.184   5.039   1.889
 4074TIP3    H212184   1.305   5.124   1.866
 4075TIP3   OH212185   2.368   6.762   2.890
 4075TIP3    H112186   2.365   6.788   2.796
 4075TIP3    H212187   2.449   6.808   2.920
 4076TIP3   OH212188   1.327   5.866   3.302
 4076TIP3    H112189   1.406   5.895   3.352
 4076TIP3    H212190   1.262   5.860   3.375
 4077TIP3   OH212191   1.783   5.333   2.568
 4077TIP3    H112192   1.847   5.282   2.517
 4077TIP3    H212193   1.783   5.285   2.653
 4078TIP3   OH212194   1.304   4.814   2.446
 4078TIP3    H112195   1.268   4.737   2.495
 4078TIP3    H212196   1.356   4.771   2.378
 4079TIP3   OH212197   1.762   5.234   2.839
 4079TIP3    H112198   1.672   5.262   2.865
 4079TIP3    H212199   1.819   5.284   2.900
 4080TIP3   OH212200   1.497   5.614   1.948
 4080TIP3    H112201   1.426   5.547   1.938
 4080TIP3    H212202   1.478   5.649   2.038
 4081TIP3   OH212203   2.426   5.804   2.544
 4081TIP3    H112204   2.419   5.875   2.480
 4081TIP3    H212205   2.333   5.774   2.549
 4082TIP3   OH212206   1.956   4.923   1.817
 4082TIP3    H112207   1.859   4.902   1.824
 4082TIP3    H212208   1.960   5.017   1.841
 4083TIP3   OH212209   1.884   5.926   2.951
 4083TIP3    H112210   1.936   5.913   3.031
 4083TIP3    H212211   1.862   6.021   2.955
 4084TIP3   OH212212   2.024   5.176   1.919
 4084TIP3    H112213   2.121   5.180   1.931
 4084TIP3    H212214   2.005   5.255   1.864
 4085TIP3   OH212215   1.645   5.763   1.774
 4085TIP3    H112216   1.596   5.849   1.776
 4085TIP3    H212217   1.590   5.708   1.834
 4086TIP3   OH212218   1.083   5.551   3.230
 4086TIP3    H112219   1.102   5.542   3.326
 4086TIP3    H212220   1.011   5.486   3.221
 4087TIP3   OH212221   1.802   5.672   3.250
 4087TIP3    H112222   1.750   5.597   3.217
 4087TIP3    H212223   1.893   5.641   3.231
 4088TIP3   OH212224   2.055   6.184   2.848
 4088TIP3    H112225   1.959   6.193   2.858
 4088TIP3    H212226   2.086   6.240   2.922
 4089TIP3   OH212227   2.464   5.268   1.751
 4089TIP3    H112228   2.403   5.224   1.688
 4089TIP3    H212229   2.462   5.357   1.710
 4090TIP3   OH212230   2.685   6.123   2.834
 4090TIP3    H112231   2.587   6.117   2.828
 4090TIP3    H212232   2.710   6.093   2.744
 4091TIP3   OH212233   2.170   6.082   1.660
 4091TIP3    H112234   2.142   6.009   1.716
 4091TIP3    H212235   2.184   6.040   1.573
 4092TIP3   OH212236   2.162   5.711   2.497
 4092TIP3    H112237   2.068   5.690   2.511
 4092TIP3    H212238   2.191   5.630   2.450
 4093TIP3   OH212239   1.292   5.946   2.261
 4093TIP3    H112240   1.294   6.025   2.203
 4093TIP3    H212241   1.201   5.917   2.247
 4094TIP3   OH212242   0.869   5.249   1.967
 4094TIP3    H112243   0.908   5.337   1.985
 4094TIP3    H212244   0.787   5.252   2.020
 4095TIP3   OH212245   1.428   5.711   2.189
 4095TIP3    H112246   1.393   5.798   2.215
 4095TIP3    H212247   1.393   5.653   2.259
 4096TIP3   OH212248   1.565   6.280   2.715
 4096TIP3    H112249   1.604   6.356   2.666
 4096TIP3    H212250   1.642   6.249   2.765
 4097TIP3   OH212251   1.212   6.180   2.103
 4097TIP3    H112252   1.126   6.190   2.147
 4097TIP3    H212253   1.244   6.273   2.104
 4098TIP3   OH212254   1.943   5.917   2.681
 4098TIP3    H112255   1.933   5.914   2.779
 4098TIP3    H212256   2.024   5.864   2.670
 4099TIP3   OH212257   1.927   5.815   1.561
 4099TIP3    H112258   1.979   5.789   1.641
 4099TIP3    H212259   1.839   5.782   1.586
 4100TIP3   OH212260   2.198   6.447   2.723
 4100TIP3    H112261   2.115   6.395   2.715
 4100TIP3    H212262   2.184   6.514   2.652
 4101TIP3   OH212263   2.263   6.283   1.379
 4101TIP3    H112264   2.300   6.355   1.324
 4101TIP3    H212265   2.183   6.328   1.413
 4102TIP3   OH212266   1.281   5.061   3.242
 4102TIP3    H112267   1.185   5.060   3.258
 4102TIP3    H212268   1.313   5.006   3.316
 4103TIP3   OH212269   2.087   5.751   1.781
 4103TIP3    H112270   2.076   5.680   1.848
 4103TIP3    H212271   2.183   5.744   1.764
 4104TIP3   OH212272   1.007   6.143   2.872
 4104TIP3    H112273   1.055   6.075   2.922
 4104TIP3    H212274   1.016   6.220   2.930
 4105TIP3   OH212275   1.285   5.792   1.561
 4105TIP3    H112276   1.302   5.700   1.533
 4105TIP3    H212277   1.266   5.780   1.656
 4106TIP3   OH212278   1.236   5.799   1.834
 4106TIP3    H112279   1.314   5.772   1.885
 4106TIP3    H212280   1.239   5.897   1.841
 4107TIP3   OH212281   0.971   5.495   2.039
 4107TIP3    H112282   0.902   5.540   2.092
 4107TIP3    H212283   0.982   5.560   1.967
 4108TIP3   OH212284   2.117   5.133   2.937
 4108TIP3    H112285   2.205   5.155   2.971
 4108TIP3    H212286   2.101   5.046   2.981
 4109TIP3   OH212287   2.000   4.874   2.097
 4109TIP3    H112288   1.989   4.894   2.002
 4109TIP3    H212289   2.040   4.957   2.131
 4110TIP3   OH212290   1.503   5.993   1.782
 4110TIP3    H112291   1.416   6.019   1.818
 4110TIP3    H212292   1.517   6.063   1.718
 4111TIP3   OH212293   1.685   5.061   2.198
 4111TIP3    H112294   1.751   5.131   2.181
 4111TIP3    H212295   1.693   5.050   2.295
 4112TIP3   OH212296   1.960   5.373   3.002
 4112TIP3    H112297   1.991   5.417   3.084
 4112TIP3    H212298   2.011   5.290   3.003
 4113TIP3   OH212299   1.831   4.777   2.294
 4113TIP3    H112300   1.840   4.849   2.359
 4113TIP3    H212301   1.892   4.810   2.223
 4114TIP3   OH212302   1.250   6.070   1.852
 4114TIP3    H112303   1.218   6.139   1.789
 4114TIP3    H212304   1.232   6.113   1.938
 4115TIP3   OH212305   1.344   4.784   2.085
 4115TIP3    H112306   1.343   4.873   2.126
 4115TIP3    H212307   1.440   4.764   2.093
 4116TIP3   OH212308   2.597   5.273   2.968
 4116TIP3    H112309   2.500   5.280   2.983
 4116TIP3    H212310   2.596   5.195   2.909
 4117TIP3   OH212311   2.247   5.472   2.371
 4117TIP3    H112312   2.169   5.414   2.379
 4117TIP3    H212313   2.315   5.421   2.420
 4118TIP3   OH212314   0.964   5.697   1.842
 4118TIP3    H112315   1.030   5.768   1.850
 4118TIP3    H212316   1.015   5.638   1.781
 4119TIP3   OH212317   0.897   4.972   1.981
 4119TIP3    H112318   0.909   5.068   1.985
 4119TIP3    H212319   0.854   4.964   1.894
 4120TIP3   OH212320   2.221   6.422   2.318
 4120TIP3    H112321   2.176   6.470   2.244
 4120TIP3    H212322   2.314   6.445   2.297
 4121TIP3   OH212323   1.289   4.695   2.847
 4121TIP3    H112324   1.264   4.657   2.761
 4121TIP3    H212325   1.283   4.616   2.906
 4122TIP3   OH212326   0.832   5.913   2.224
 4122TIP3    H112327   0.765   5.941   2.288
 4122TIP3    H212328   0.798   5.956   2.142
 4123TIP3   OH212329   0.993   6.461   3.297
 4123TIP3    H112330   1.078   6.459   3.346
 4123TIP3    H212331   0.969   6.367   3.299
 4124TIP3   OH212332   1.468   6.418   3.343
 4124TIP3    H112333   1.563   6.400   3.353
 4124TIP3    H212334   1.445   6.354   3.272
 4125TIP3   OH212335   1.453   5.993   1.471
 4125TIP3    H112336   1.398   5.920   1.508
 4125TIP3    H212337   1.529   5.942   1.436
 4126TIP3   OH212338   2.112   6.324   3.077
 4126TIP3    H112339   2.103   6.256   3.148
 4126TIP3    H212340   2.188   6.376   3.108
 4127TIP3   OH212341   1.888   6.033   1.385
 4127TIP3    H112342   1.930   5.968   1.444
 4127TIP3    H212343   1.944   6.029   1.305
 4128TIP3   OH212344   1.125   5.864   3.494
 4128TIP3    H112345   1.134   5.770   3.516
 4128TIP3    H212346   1.036   5.866   3.453
 4129TIP3   OH212347   1.120   5.517   1.714
 4129TIP3    H112348   1.181   5.489   1.784
 4129TIP3    H212349   1.181   5.518   1.637
 4130TIP3   OH212350   1.728   5.948   3.274
 4130TIP3    H112351   1.693   5.968   3.185
 4130TIP3    H212352   1.763   5.857   3.263
 4131TIP3   OH212353   1.614   5.711   1.504
 4131TIP3    H112354   1.616   5.721   1.601
 4131TIP3    H212355   1.616   5.613   1.496
 4132TIP3   OH212356   2.217   5.959   2.877
 4132TIP3    H112357   2.297   6.000   2.839
 4132TIP3    H212358   2.152   6.030   2.862
 4133TIP3   OH212359   1.254   5.593   3.476
 4133TIP3    H112360   1.321   5.525   3.471
 4133TIP3    H212361   1.274   5.632   3.564
 4134TIP3   OH212362   1.306   5.416   1.913
 4134TIP3    H112363   1.278   5.371   1.994
 4134TIP3    H212364   1.345   5.342   1.862
 4135TIP3   OH212365   1.581   5.474   3.141
 4135TIP3    H112366   1.521   5.548   3.153
 4135TIP3    H212367   1.634   5.503   3.063
 4136TIP3   OH212368   1.409   5.213   1.754
 4136TIP3    H112369   1.385   5.219   1.660
 4136TIP3    H212370   1.507   5.211   1.747
 4137TIP3   OH212371   2.092   5.880   3.274
 4137TIP3    H112372   2.176   5.853   3.235
 4137TIP3    H212373   2.085   5.819   3.349
 4138TIP3   OH212374   2.226   5.538   1.423
 4138TIP3    H112375   2.208   5.494   1.338
 4138TIP3    H212376   2.192   5.628   1.401
 4139TIP3   OH212377   1.697   5.265   3.271
 4139TIP3    H112378   1.702   5.185   3.215
 4139TIP3    H212379   1.653   5.328   3.210
 4140TIP3   OH212380   1.700   5.063   3.078
 4140TIP3    H112381   1.732   5.088   2.990
 4140TIP3    H212382   1.608   5.035   3.058
 4141TIP3   OH212383   1.719   5.586   2.941
 4141TIP3    H112384   1.813   5.576   2.921
 4141TIP3    H212385   1.698   5.671   2.901
 4142TIP3   OH212386   2.307   5.555   3.329
 4142TIP3    H112387   2.347   5.467   3.343
 4142TIP3    H212388   2.383   5.606   3.299
 4143TIP3   OH212389   2.350   5.811   3.062
 4143TIP3    H112390   2.292   5.866   3.005
 4143TIP3    H212391   2.438   5.832   3.025
 4144TIP3   OH212392   1.569   5.380   3.494
 4144TIP3    H112393   1.506   5.308   3.516
 4144TIP3    H212394   1.610   5.344   3.412
 4145TIP3   OH212395   1.832   4.819   3.153
 4145TIP3    H112396   1.780   4.898   3.127
 4145TIP3    H212397   1.768   4.747   3.136
 4146TIP3   OH212398   1.957   5.323   3.362
 4146TIP3    H112399   1.949   5.305   3.457
 4146TIP3    H212400   1.868   5.294   3.333
 4147TIP3   OH212401   2.200   5.278   3.218
 4147TIP3    H112402   2.126   5.268   3.281
 4147TIP3    H212403   2.275   5.240   3.269
 4148TIP3   OH212404   2.431   5.216   3.362
 4148TIP3    H112405   2.444   5.119   3.374
 4148TIP3    H212406   2.426   5.247   3.455
 4149TIP3   OH212407   1.418   5.157   3.556
 4149TIP3    H112408   1.420   5.064   3.525
 4149TIP3    H212409   1.457   5.145   3.646
 4150TIP3   OH212410   1.913   4.832   3.415
 4150TIP3    H112411   1.994   4.775   3.409
 4150TIP3    H212412   1.881   4.824   3.323
 4151TIP3   OH212413   1.994   5.045   3.566
 4151TIP3    H112414   1.974   4.972   3.504
 4151TIP3    H212415   1.914   5.101   3.557
 4152TIP3   OH212416   1.217   6.275   1.667
 4152TIP3    H112417   1.310   6.267   1.640
 4152TIP3    H212418   1.180   6.324   1.591
 4153TIP3   OH212419   0.697   5.654   1.886
 4153TIP3    H112420   0.790   5.677   1.867
 4153TIP3    H212421   0.691   5.565   1.846
 4154TIP3   OH212422   0.613   6.270   2.288
 4154TIP3    H112423   0.546   6.210   2.249
 4154TIP3    H212424   0.656   6.209   2.353
 4155TIP3   OH212425   0.745   6.115   2.477
 4155TIP3    H112426   0.725   6.046   2.541
 4155TIP3    H212427   0.797   6.177   2.533
 4156TIP3   OH212428   2.475   6.510   2.281
 4156TIP3    H112429   2.500   6.548   2.367
 4156TIP3    H212430   2.535   6.556   2.220
 4157TIP3   OH212431   2.499   6.534   2.562
 4157TIP3    H112432   2.460   6.444   2.558
 4157TIP3    H212433   2.577   6.515   2.617
 4158TIP3   OH212434   2.545   6.213   3.133
 4158TIP3    H112435   2.475   6.223   3.200
 4158TIP3    H212436   2.590   6.300   3.138
 4159TIP3   OH212437   2.362   5.728   1.751
 4159TIP3    H112438   2.428   5.792   1.718
 4159TIP3    H212439   2.409   5.690   1.829
 4160TIP3   OH212440   2.491   5.594   1.954
 4160TIP3    H112441   2.424   5.548   2.010
 4160TIP3    H212442   2.558   5.622   2.020
 4161TIP3   OH212443   2.579   5.936   2.341
 4161TIP3    H112444   2.635   5.975   2.272
 4161TIP3    H212445   2.518   6.012   2.349
 4162TIP3   OH212446   2.375   6.281   2.586
 4162TIP3    H112447   2.308   6.332   2.637
 4162TIP3    H212448   2.321   6.245   2.513
 4163TIP3   OH212449   2.429   5.503   1.603
 4163TIP3    H112450   2.359   5.502   1.534
 4163TIP3    H212451   2.399   5.579   1.656
 4164TIP3   OH212452   2.299   5.175   1.557
 4164TIP3    H112453   2.257   5.207   1.477
 4164TIP3    H212454   2.277   5.080   1.552
 4165TIP3   OH212455   2.308   5.449   2.102
 4165TIP3    H112456   2.312   5.353   2.086
 4165TIP3    H212457   2.288   5.454   2.198
 4166TIP3   OH212458   0.941   5.520   2.842
 4166TIP3    H112459   0.922   5.492   2.750
 4166TIP3    H212460   1.032   5.489   2.850
 4167TIP3   OH212461   2.597   5.876   2.958
 4167TIP3    H112462   2.667   5.807   2.950
 4167TIP3    H212463   2.631   5.946   2.900
 4168TIP3   OH212464   2.775   5.670   2.966
 4168TIP3    H112465   2.702   5.621   3.009
 4168TIP3    H212466   2.850   5.610   2.987
 4169TIP3   OH212467   2.243   4.910   1.543
 4169TIP3    H112468   2.316   4.875   1.596
 4169TIP3    H212469   2.170   4.848   1.560
 4170TIP3   OH212470   2.306   5.171   1.995
 4170TIP3    H112471   2.343   5.081   2.011
 4170TIP3    H212472   2.363   5.199   1.921
 4171TIP3   OH212473   2.465   5.351   2.491
 4171TIP3    H112474   2.557   5.354   2.461
 4171TIP3    H212475   2.475   5.382   2.583
 4172TIP3   OH212476   2.525   5.506   2.721
 4172TIP3    H112477   2.449   5.494   2.782
 4172TIP3    H212478   2.524   5.602   2.714
 4173TIP3   OH212479   1.153   5.212   3.526
 4173TIP3    H112480   1.251   5.204   3.531
 4173TIP3    H212481   1.127   5.125   3.561
 4174TIP3   OH212482   2.987   5.080   3.277
 4174TIP3    H112483   3.048   5.013   3.240
 4174TIP3    H212484   2.960   5.128   3.196
 4175TIP3   OH212485   2.407   4.919   2.036
 4175TIP3    H112486   2.457   4.901   2.118
 4175TIP3    H212487   2.347   4.842   2.034
 4176TIP3   OH212488   1.109   4.905   2.858
 4176TIP3    H112489   1.166   4.826   2.865
 4176TIP3    H212490   1.176   4.975   2.847
 4177TIP3   OH212491   0.905   5.174   2.923
 4177TIP3    H112492   0.959   5.170   2.841
 4177TIP3    H212493   0.953   5.240   2.975
 4178TIP3   OH212494   2.853   5.213   3.075
 4178TIP3    H112495   2.768   5.252   3.100
 4178TIP3    H212496   2.822   5.135   3.025
 4179TIP3   OH212497   2.489   4.848   1.669
 4179TIP3    H112498   2.527   4.777   1.614
 4179TIP3    H212499   2.558   4.918   1.665
 4180TIP3   OH212500   0.898   4.679   2.432
 4180TIP3    H112501   0.805   4.671   2.456
 4180TIP3    H212502   0.893   4.737   2.353
 4181TIP3   OH212503   2.056   6.383   1.935
 4181TIP3    H112504   2.107   6.373   1.852
 4181TIP3    H212505   2.108   6.450   1.982
 4182TIP3   OH212506   1.118   4.767   3.245
 4182TIP3    H112507   1.066   4.755   3.327
 4182TIP3    H212508   1.049   4.796   3.183
 4183TIP3   OH212509   1.157   6.187   3.318
 4183TIP3    H112510   1.063   6.166   3.305
 4183TIP3    H212511   1.169   6.167   3.412
 4184TIP3   OH212512   1.341   6.212   2.863
 4184TIP3    H112513   1.288   6.285   2.827
 4184TIP3    H212514   1.426   6.233   2.820
 4185TIP3   OH212515   1.776   6.464   3.003
 4185TIP3    H112516   1.818   6.463   3.092
 4185TIP3    H212517   1.842   6.517   2.953
 4186TIP3   OH212518   1.957   6.618   2.867
 4186TIP3    H112519   2.028   6.570   2.823
 4186TIP3    H212520   2.009   6.675   2.928
 4187TIP3   OH212521   2.757   4.969   2.966
 4187TIP3    H112522   2.667   4.940   2.938
 4187TIP3    H212523   2.802   4.882   2.960
 4188TIP3   OH212524   1.013   6.472   2.894
 4188TIP3    H112525   0.924   6.507   2.869
 4188TIP3    H212526   1.021   6.511   2.982
 4189TIP3   OH212527   1.248   6.450   2.751
 4189TIP3    H112528   1.162   6.465   2.795
 4189TIP3    H212529   1.231   6.485   2.661
 4190TIP3   OH212530   1.672   6.481   2.550
 4190TIP3    H112531   1.605   6.500   2.481
 4190TIP3    H212532   1.684   6.570   2.589
 4191TIP3   OH212533   1.943   6.418   2.600
 4191TIP3    H112534   1.849   6.440   2.580
 4191TIP3    H212535   1.990   6.491   2.556
 4192TIP3   OH212536   2.143   6.608   2.511
 4192TIP3    H112537   2.132   6.696   2.467
 4192TIP3    H212538   2.173   6.552   2.437
 4193TIP3   OH212539   0.923   6.271   2.635
 4193TIP3    H112540   0.949   6.243   2.725
 4193TIP3    H212541   0.995   6.228   2.584
 4194TIP3   OH212542   1.120   6.145   2.495
 4194TIP3    H112543   1.145   6.063   2.542
 4194TIP3    H212544   1.207   6.189   2.487
 4195TIP3   OH212545   1.384   6.240   2.499
 4195TIP3    H112546   1.420   6.153   2.477
 4195TIP3    H212547   1.432   6.259   2.582
 4196TIP3   OH212548   1.948   4.887   2.572
 4196TIP3    H112549   1.906   4.817   2.625
 4196TIP3    H212550   2.028   4.843   2.539
 4197TIP3   OH212551   2.478   4.781   2.489
 4197TIP3    H112552   2.513   4.826   2.409
 4197TIP3    H212553   2.381   4.789   2.477
 4198TIP3   OH212554   2.574   4.874   2.250
 4198TIP3    H112555   2.647   4.820   2.214
 4198TIP3    H212556   2.611   4.964   2.236
 4199TIP3   OH212557   1.206   4.599   2.598
 4199TIP3    H112558   1.114   4.566   2.603
 4199TIP3    H212559   1.255   4.514   2.595
 4200TIP3   OH212560   0.988   4.473   2.246
 4200TIP3    H112561   1.022   4.527   2.173
 4200TIP3    H212562   0.966   4.540   2.313
 4201TIP3   OH212563   1.650   4.636   2.483
 4201TIP3    H112564   1.707   4.680   2.418
 4201TIP3    H212565   1.691   4.665   2.568
 4202TIP3   OH212566   2.195   4.781   2.462
 4202TIP3    H112567   2.200   4.734   2.378
 4202TIP3    H212568   2.183   4.705   2.524
 4203TIP3   OH212569   2.227   4.704   2.027
 4203TIP3    H112570   2.139   4.744   2.042
 4203TIP3    H212571   2.216   4.618   2.073
 4204TIP3   OH212572   0.712   6.047   2.025
 4204TIP3    H112573   0.625   6.011   1.996
 4204TIP3    H212574   0.701   6.138   1.991
 4205TIP3   OH212575   1.113   4.628   2.011
 4205TIP3    H112576   1.160   4.564   1.953
 4205TIP3    H212577   1.188   4.681   2.045
 4206TIP3   OH212578   1.621   4.809   2.109
 4206TIP3    H112579   1.680   4.760   2.168
 4206TIP3    H212580   1.645   4.901   2.135
 4207TIP3   OH212581   1.482   6.229   1.606
 4207TIP3    H112582   1.572   6.250   1.572
 4207TIP3    H212583   1.461   6.153   1.547
 4208TIP3   OH212584   2.202   6.350   1.703
 4208TIP3    H112585   2.195   6.252   1.693
 4208TIP3    H212586   2.156   6.380   1.622
 4209TIP3   OH212587   1.414   4.885   3.491
 4209TIP3    H112588   1.378   4.812   3.545
 4209TIP3    H212589   1.508   4.882   3.518
 4210TIP3   OH212590   1.666   4.882   3.606
 4210TIP3    H112591   1.748   4.856   3.560
 4210TIP3    H212592   1.656   4.812   3.673
 4211TIP3   OH212593   0.809   6.088   1.669
 4211TIP3    H112594   0.815   6.091   1.765
 4211TIP3    H212595   0.891   6.040   1.644
 4212TIP3   OH212596   2.492   4.950   3.402
 4212TIP3    H112597   2.508   4.911   3.491
 4212TIP3    H212598   2.578   4.935   3.358
 4213TIP3   OH212599   2.425   6.493   2.888
 4213TIP3    H112600   2.347   6.464   2.837
 4213TIP3    H212601   2.408   6.589   2.895
 4214TIP3   OH212602   3.695   5.866   1.653
 4214TIP3    H112603   3.663   5.956   1.632
 4214TIP3    H212604   3.620   5.814   1.619
 4215TIP3   OH212605   3.693   5.868   2.041
 4215TIP3    H112606   3.729   5.842   2.128
 4215TIP3    H212607   3.654   5.784   2.010
 4216TIP3   OH212608   2.971   5.755   2.422
 4216TIP3    H112609   3.012   5.687   2.478
 4216TIP3    H212610   3.049   5.799   2.386
 4217TIP3   OH212611   3.940   6.170   1.720
 4217TIP3    H112612   3.923   6.101   1.785
 4217TIP3    H212613   3.970   6.244   1.775
 4218TIP3   OH212614   2.964   6.170   2.125
 4218TIP3    H112615   2.959   6.072   2.123
 4218TIP3    H212616   3.061   6.181   2.117
 4219TIP3   OH212617   2.668   5.369   1.908
 4219TIP3    H112618   2.620   5.452   1.918
 4219TIP3    H212619   2.600   5.315   1.864
 4220TIP3   OH212620   2.707   5.658   2.116
 4220TIP3    H112621   2.769   5.583   2.132
 4220TIP3    H212622   2.760   5.712   2.056
 4221TIP3   OH212623   3.590   6.631   1.737
 4221TIP3    H112624   3.630   6.560   1.683
 4221TIP3    H212625   3.583   6.588   1.823
 4222TIP3   OH212626   3.491   6.093   2.086
 4222TIP3    H112627   3.532   6.015   2.044
 4222TIP3    H212628   3.573   6.141   2.110
 4223TIP3   OH212629   4.509   5.412   2.082
 4223TIP3    H112630   4.539   5.496   2.123
 4223TIP3    H212631   4.531   5.426   1.989
 4224TIP3   OH212632   3.904   5.592   2.114
 4224TIP3    H112633   3.947   5.508   2.136
 4224TIP3    H212634   3.873   5.574   2.024
 4225TIP3   OH212635   3.245   5.252   2.080
 4225TIP3    H112636   3.226   5.324   2.017
 4225TIP3    H212637   3.197   5.178   2.036
 4226TIP3   OH212638   3.940   5.346   1.700
 4226TIP3    H112639   4.010   5.330   1.767
 4226TIP3    H212640   3.994   5.379   1.626
 4227TIP3   OH212641   2.872   5.451   2.189
 4227TIP3    H112642   2.956   5.432   2.235
 4227TIP3    H212643   2.887   5.398   2.108
 4228TIP3   OH212644   3.314   5.651   1.991
 4228TIP3    H112645   3.409   5.629   1.999
 4228TIP3    H212646   3.278   5.567   1.954
 4229TIP3   OH212647   4.583   5.623   2.250
 4229TIP3    H112648   4.498   5.666   2.229
 4229TIP3    H212649   4.590   5.643   2.345
 4230TIP3   OH212650   3.241   5.235   2.514
 4230TIP3    H112651   3.180   5.271   2.448
 4230TIP3    H212652   3.190   5.249   2.596
 4231TIP3   OH212653   3.578   6.085   1.525
 4231TIP3    H112654   3.543   6.074   1.435
 4231TIP3    H212655   3.535   6.168   1.553
 4232TIP3   OH212656   3.345   6.010   2.306
 4232TIP3    H112657   3.288   6.081   2.343
 4232TIP3    H212658   3.390   6.057   2.232
 4233TIP3   OH212659   4.143   5.350   1.879
 4233TIP3    H112660   4.131   5.303   1.962
 4233TIP3    H212661   4.196   5.427   1.906
 4234TIP3   OH212662   3.109   5.350   2.298
 4234TIP3    H112663   3.173   5.421   2.324
 4234TIP3    H212664   3.160   5.310   2.224
 4235TIP3   OH212665   3.176   6.209   2.408
 4235TIP3    H112666   3.151   6.297   2.371
 4235TIP3    H212667   3.096   6.192   2.463
 4236TIP3   OH212668   2.563   5.897   1.644
 4236TIP3    H112669   2.527   5.923   1.557
 4236TIP3    H212670   2.597   5.983   1.678
 4237TIP3   OH212671   4.006   6.414   1.884
 4237TIP3    H112672   3.917   6.404   1.923
 4237TIP3    H212673   3.997   6.500   1.839
 4238TIP3   OH212674   4.300   5.314   2.249
 4238TIP3    H112675   4.212   5.339   2.215
 4238TIP3    H212676   4.360   5.346   2.178
 4239TIP3   OH212677   3.590   4.950   2.229
 4239TIP3    H112678   3.578   4.856   2.252
 4239TIP3    H212679   3.513   4.989   2.278
 4240TIP3   OH212680   3.703   6.457   1.554
 4240TIP3    H112681   3.753   6.373   1.537
 4240TIP3    H212682   3.768   6.521   1.515
 4241TIP3   OH212683   3.849   6.242   1.470
 4241TIP3    H112684   3.823   6.161   1.424
 4241TIP3    H212685   3.887   6.207   1.553
 4242TIP3   OH212686   4.233   6.322   2.229
 4242TIP3    H112687   4.220   6.245   2.169
 4242TIP3    H212688   4.214   6.397   2.168
 4243TIP3   OH212689   3.525   5.718   1.487
 4243TIP3    H112690   3.447   5.772   1.466
 4243TIP3    H212691   3.572   5.715   1.402
 4244TIP3   OH212692   3.483   5.504   1.198
 4244TIP3    H112693   3.549   5.557   1.246
 4244TIP3    H212694   3.543   5.442   1.151
 4245TIP3   OH212695   4.429   5.965   2.076
 4245TIP3    H112696   4.343   6.014   2.079
 4245TIP3    H212697   4.458   5.988   1.985
 4246TIP3   OH212698   3.873   5.801   1.455
 4246TIP3    H112699   3.819   5.823   1.534
 4246TIP3    H212700   3.958   5.776   1.498
 4247TIP3   OH212701   4.107   5.838   2.373
 4247TIP3    H112702   4.103   5.921   2.424
 4247TIP3    H212703   4.020   5.842   2.327
 4248TIP3   OH212704   3.105   5.798   1.877
 4248TIP3    H112705   3.063   5.739   1.810
 4248TIP3    H212706   3.180   5.743   1.908
 4249TIP3   OH212707   3.232   6.206   2.024
 4249TIP3    H112708   3.215   6.175   1.934
 4249TIP3    H212709   3.321   6.171   2.041
 4250TIP3   OH212710   3.225   5.772   2.231
 4250TIP3    H112711   3.264   5.742   2.146
 4250TIP3    H212712   3.276   5.853   2.250
 4251TIP3   OH212713   3.765   6.407   2.006
 4251TIP3    H112714   3.754   6.487   2.060
 4251TIP3    H212715   3.750   6.335   2.069
 4252TIP3   OH212716   3.381   6.326   2.553
 4252TIP3    H112717   3.319   6.387   2.599
 4252TIP3    H212718   3.318   6.272   2.501
 4253TIP3   OH212719   3.709   5.661   1.282
 4253TIP3    H112720   3.770   5.720   1.332
 4253TIP3    H212721   3.737   5.681   1.189
 4254TIP3   OH212722   3.140   5.883   2.659
 4254TIP3    H112723   3.139   5.970   2.703
 4254TIP3    H212724   3.045   5.864   2.651
 4255TIP3   OH212725   3.456   6.337   1.562
 4255TIP3    H112726   3.541   6.386   1.567
 4255TIP3    H212727   3.399   6.399   1.515
 4256TIP3   OH212728   3.173   6.490   2.640
 4256TIP3    H112729   3.138   6.495   2.549
 4256TIP3    H212730   3.092   6.470   2.692
 4257TIP3   OH212731   4.229   4.897   1.333
 4257TIP3    H112732   4.147   4.920   1.382
 4257TIP3    H212733   4.244   4.979   1.282
 4258TIP3   OH212734   2.970   5.642   1.681
 4258TIP3    H112735   2.902   5.684   1.625
 4258TIP3    H212736   2.938   5.551   1.687
 4259TIP3   OH212737   4.028   6.262   0.885
 4259TIP3    H112738   4.037   6.358   0.867
 4259TIP3    H212739   4.120   6.232   0.869
 4260TIP3   OH212740   2.749   6.019   2.592
 4260TIP3    H112741   2.707   5.991   2.510
 4260TIP3    H212742   2.791   5.936   2.624
 4261TIP3   OH212743   2.618   6.207   2.229
 4261TIP3    H112744   2.713   6.219   2.211
 4261TIP3    H212745   2.599   6.289   2.277
 4262TIP3   OH212746   4.471   6.671   2.277
 4262TIP3    H112747   4.470   6.575   2.292
 4262TIP3    H212748   4.388   6.697   2.323
 4263TIP3   OH212749   3.576   6.455   2.410
 4263TIP3    H112750   3.572   6.547   2.443
 4263TIP3    H212751   3.505   6.413   2.464
 4264TIP3   OH212752   3.340   6.578   1.364
 4264TIP3    H112753   3.295   6.564   1.279
 4264TIP3    H212754   3.309   6.666   1.391
 4265TIP3   OH212755   2.775   6.432   1.749
 4265TIP3    H112756   2.824   6.423   1.834
 4265TIP3    H212757   2.725   6.348   1.748
 4266TIP3   OH212758   3.539   6.482   1.003
 4266TIP3    H112759   3.598   6.412   0.967
 4266TIP3    H212760   3.575   6.493   1.094
 4267TIP3   OH212761   3.591   6.533   1.270
 4267TIP3    H112762   3.502   6.542   1.312
 4267TIP3    H212763   3.643   6.496   1.343
 4268TIP3   OH212764   4.359   5.799   2.550
 4268TIP3    H112765   4.275   5.808   2.503
 4268TIP3    H212766   4.377   5.703   2.541
 4269TIP3   OH212767   2.955   6.207   2.572
 4269TIP3    H112768   3.007   6.195   2.654
 4269TIP3    H212769   2.881   6.145   2.585
 4270TIP3   OH212770   3.353   5.029   2.360
 4270TIP3    H112771   3.264   5.001   2.330
 4270TIP3    H212772   3.328   5.108   2.411
 4271TIP3   OH212773   3.893   5.145   2.555
 4271TIP3    H112774   3.962   5.117   2.619
 4271TIP3    H212775   3.810   5.125   2.604
 4272TIP3   OH212776   4.128   5.576   2.476
 4272TIP3    H112777   4.076   5.572   2.559
 4272TIP3    H212778   4.103   5.662   2.439
 4273TIP3   OH212779   3.787   5.702   1.027
 4273TIP3    H112780   3.753   5.679   0.938
 4273TIP3    H212781   3.873   5.742   1.003
 4274TIP3   OH212782   3.499   5.079   1.332
 4274TIP3    H112783   3.465   5.074   1.423
 4274TIP3    H212784   3.461   4.996   1.296
 4275TIP3   OH212785   3.286   5.548   2.377
 4275TIP3    H112786   3.245   5.572   2.463
 4275TIP3    H212787   3.268   5.629   2.325
 4276TIP3   OH212788   3.171   5.434   1.892
 4276TIP3    H112789   3.078   5.406   1.910
 4276TIP3    H212790   3.184   5.392   1.804
 4277TIP3   OH212791   3.662   5.517   1.622
 4277TIP3    H112792   3.612   5.588   1.576
 4277TIP3    H212793   3.718   5.483   1.549
 4278TIP3   OH212794   3.838   5.796   2.705
 4278TIP3    H112795   3.814   5.723   2.767
 4278TIP3    H212796   3.932   5.807   2.728
 4279TIP3   OH212797   3.818   5.544   1.857
 4279TIP3    H112798   3.755   5.571   1.787
 4279TIP3    H212799   3.855   5.465   1.813
 4280TIP3   OH212800   3.103   5.573   2.593
 4280TIP3    H112801   3.156   5.629   2.652
 4280TIP3    H212802   3.099   5.489   2.644
 4281TIP3   OH212803   3.156   5.053   1.296
 4281TIP3    H112804   3.147   5.051   1.393
 4281TIP3    H212805   3.078   5.107   1.271
 4282TIP3   OH212806   2.701   5.100   2.172
 4282TIP3    H112807   2.781   5.127   2.220
 4282TIP3    H212808   2.734   5.065   2.087
 4283TIP3   OH212809   2.666   5.075   1.688
 4283TIP3    H112810   2.713   5.110   1.609
 4283TIP3    H212811   2.605   5.149   1.704
 4284TIP3   OH212812   3.828   5.789   2.280
 4284TIP3    H112813   3.862   5.719   2.220
 4284TIP3    H212814   3.799   5.735   2.356
 4285TIP3   OH212815   3.503   5.258   1.953
 4285TIP3    H112816   3.424   5.254   2.010
 4285TIP3    H212817   3.575   5.244   2.017
 4286TIP3   OH212818   2.932   5.310   1.962
 4286TIP3    H112819   2.838   5.314   1.932
 4286TIP3    H212820   2.958   5.219   1.938
 4287TIP3   OH212821   3.198   5.306   1.652
 4287TIP3    H112822   3.292   5.319   1.631
 4287TIP3    H212823   3.153   5.327   1.567
 4288TIP3   OH212824   3.992   5.332   2.157
 4288TIP3    H112825   3.959   5.344   2.249
 4288TIP3    H212826   3.926   5.270   2.122
 4289TIP3   OH212827   3.047   5.343   1.427
 4289TIP3    H112828   2.978   5.296   1.377
 4289TIP3    H212829   3.100   5.380   1.353
 4290TIP3   OH212830   4.164   7.019   2.377
 4290TIP3    H112831   4.161   7.045   2.283
 4290TIP3    H212832   4.244   7.067   2.407
 4291TIP3   OH212833   3.117   6.131   2.795
 4291TIP3    H112834   3.199   6.158   2.841
 4291TIP3    H212835   3.055   6.131   2.870
 4292TIP3   OH212836   3.580   5.585   2.051
 4292TIP3    H112837   3.653   5.545   2.002
 4292TIP3    H212838   3.585   5.539   2.137
 4293TIP3   OH212839   3.099   5.070   1.933
 4293TIP3    H112840   3.064   4.993   1.982
 4293TIP3    H212841   3.151   5.027   1.863
 4294TIP3   OH212842   3.559   5.485   2.334
 4294TIP3    H112843   3.469   5.518   2.353
 4294TIP3    H212844   3.616   5.543   2.388
 4295TIP3   OH212845   3.293   5.870   1.434
 4295TIP3    H112846   3.221   5.804   1.422
 4295TIP3    H212847   3.273   5.904   1.524
 4296TIP3   OH212848   4.193   6.106   2.062
 4296TIP3    H112849   4.216   6.158   1.982
 4296TIP3    H212850   4.109   6.063   2.035
 4297TIP3   OH212851   3.752   5.180   1.302
 4297TIP3    H112852   3.655   5.161   1.310
 4297TIP3    H212853   3.759   5.274   1.326
 4298TIP3   OH212854   3.690   6.187   2.433
 4298TIP3    H112855   3.727   6.170   2.520
 4298TIP3    H212856   3.656   6.278   2.440
 4299TIP3   OH212857   3.820   5.432   1.404
 4299TIP3    H112858   3.917   5.436   1.419
 4299TIP3    H212859   3.803   5.512   1.351
 4300TIP3   OH212860   2.980   5.890   2.106
 4300TIP3    H112861   3.020   5.867   2.020
 4300TIP3    H212862   3.032   5.835   2.166
 4301TIP3   OH212863   3.440   6.019   1.258
 4301TIP3    H112864   3.391   6.104   1.261
 4301TIP3    H212865   3.386   5.964   1.319
 4302TIP3   OH212866   2.863   5.813   2.739
 4302TIP3    H112867   2.915   5.833   2.819
 4302TIP3    H212868   2.828   5.727   2.765
 4303TIP3   OH212869   3.598   5.929   2.742
 4303TIP3    H112870   3.541   5.870   2.692
 4303TIP3    H212871   3.687   5.894   2.718
 4304TIP3   OH212872   3.852   6.447   2.331
 4304TIP3    H112873   3.756   6.448   2.343
 4304TIP3    H212874   3.881   6.500   2.408
 4305TIP3   OH212875   4.260   5.525   1.240
 4305TIP3    H112876   4.198   5.481   1.177
 4305TIP3    H212877   4.260   5.614   1.197
 4306TIP3   OH212878   4.483   6.381   2.316
 4306TIP3    H112879   4.386   6.374   2.309
 4306TIP3    H212880   4.509   6.350   2.226
 4307TIP3   OH212881   3.966   6.341   1.148
 4307TIP3    H112882   3.939   6.268   1.206
 4307TIP3    H212883   3.980   6.296   1.062
 4308TIP3   OH212884   3.960   5.970   1.979
 4308TIP3    H112885   3.866   5.946   1.993
 4308TIP3    H212886   3.993   5.888   1.935
 4309TIP3   OH212887   3.091   6.200   1.740
 4309TIP3    H112888   3.091   6.279   1.683
 4309TIP3    H212889   2.998   6.178   1.744
 4310TIP3   OH212890   2.654   5.500   1.442
 4310TIP3    H112891   2.699   5.585   1.463
 4310TIP3    H212892   2.577   5.504   1.503
 4311TIP3   OH212893   3.219   5.960   1.677
 4311TIP3    H112894   3.189   6.050   1.698
 4311TIP3    H212895   3.187   5.909   1.754
 4312TIP3   OH212896   3.359   6.539   2.204
 4312TIP3    H112897   3.401   6.612   2.154
 4312TIP3    H212898   3.435   6.502   2.250
 4313TIP3   OH212899   3.006   6.437   1.587
 4313TIP3    H112900   2.922   6.448   1.634
 4313TIP3    H212901   3.040   6.530   1.590
 4314TIP3   OH212902   3.743   6.174   2.165
 4314TIP3    H112903   3.732   6.171   2.262
 4314TIP3    H212904   3.822   6.121   2.153
 4315TIP3   OH212905   3.723   6.072   1.050
 4315TIP3    H112906   3.777   6.046   1.128
 4315TIP3    H212907   3.635   6.041   1.077
 4316TIP3   OH212908   3.994   6.705   2.213
 4316TIP3    H112909   3.913   6.650   2.207
 4316TIP3    H212910   3.978   6.770   2.141
 4317TIP3   OH212911   4.059   6.536   0.870
 4317TIP3    H112912   4.075   6.593   0.793
 4317TIP3    H212913   3.982   6.584   0.908
 4318TIP3   OH212914   3.084   5.319   2.731
 4318TIP3    H112915   2.987   5.315   2.745
 4318TIP3    H212916   3.116   5.261   2.802
 4319TIP3   OH212917   3.883   6.005   1.266
 4319TIP3    H112918   3.872   5.936   1.334
 4319TIP3    H212919   3.980   5.998   1.251
 4320TIP3   OH212920   2.797   6.402   2.363
 4320TIP3    H112921   2.857   6.334   2.400
 4320TIP3    H212922   2.824   6.480   2.414
 4321TIP3   OH212923   3.084   6.048   1.048
 4321TIP3    H112924   3.099   5.956   1.021
 4321TIP3    H212925   3.063   6.037   1.143
 4322TIP3   OH212926   3.029   6.053   1.321
 4322TIP3    H112927   3.107   6.026   1.371
 4322TIP3    H212928   3.033   6.151   1.328
 4323TIP3   OH212929   2.763   5.744   1.523
 4323TIP3    H112930   2.697   5.791   1.579
 4323TIP3    H212931   2.778   5.812   1.454
 4324TIP3   OH212932   3.918   5.382   2.418
 4324TIP3    H112933   3.999   5.418   2.456
 4324TIP3    H212934   3.904   5.301   2.471
 4325TIP3   OH212935   3.799   5.131   1.584
 4325TIP3    H112936   3.786   5.152   1.489
 4325TIP3    H212937   3.838   5.213   1.619
 4326TIP3   OH212938   3.297   6.248   1.267
 4326TIP3    H112939   3.211   6.274   1.304
 4326TIP3    H212940   3.313   6.321   1.206
 4327TIP3   OH212941   3.481   5.316   1.683
 4327TIP3    H112942   3.546   5.388   1.666
 4327TIP3    H212943   3.489   5.306   1.781
 4328TIP3   OH212944   3.756   5.629   2.488
 4328TIP3    H112945   3.782   5.679   2.569
 4328TIP3    H212946   3.808   5.547   2.498
 4329TIP3   OH212947   3.627   5.034   1.781
 4329TIP3    H112948   3.627   5.109   1.843
 4329TIP3    H212949   3.689   5.068   1.712
 4330TIP3   OH212950   3.043   6.325   1.337
 4330TIP3    H112951   3.013   6.395   1.274
 4330TIP3    H212952   3.027   6.369   1.423
 4331TIP3   OH212953   3.141   5.041   1.572
 4331TIP3    H112954   3.140   5.130   1.612
 4331TIP3    H212955   3.237   5.021   1.580
 4332TIP3   OH212956   4.395   5.532   2.467
 4332TIP3    H112957   4.297   5.533   2.479
 4332TIP3    H212958   4.401   5.479   2.387
 4333TIP3   OH212959   4.045   5.726   1.859
 4333TIP3    H112960   3.970   5.666   1.870
 4333TIP3    H212961   4.117   5.678   1.906
 4334TIP3   OH212962   2.760   5.951   1.327
 4334TIP3    H112963   2.832   6.016   1.336
 4334TIP3    H212964   2.802   5.892   1.260
 4335TIP3   OH212965   2.699   5.229   1.465
 4335TIP3    H112966   2.702   5.327   1.460
 4335TIP3    H212967   2.624   5.209   1.408
 4336TIP3   OH212968   4.015   6.684   1.805
 4336TIP3    H112969   3.973   6.731   1.730
 4336TIP3    H212970   4.110   6.701   1.784
 4337TIP3   OH212971   3.082   4.953   2.334
 4337TIP3    H112972   3.058   4.915   2.248
 4337TIP3    H212973   3.078   4.875   2.393
 4338TIP3   OH212974   2.626   6.168   1.711
 4338TIP3    H112975   2.558   6.200   1.771
 4338TIP3    H212976   2.598   6.210   1.627
 4339TIP3   OH212977   2.790   6.717   2.787
 4339TIP3    H112978   2.877   6.719   2.835
 4339TIP3    H212979   2.773   6.621   2.785
 4340TIP3   OH212980   3.263   6.672   2.831
 4340TIP3    H112981   3.358   6.657   2.839
 4340TIP3    H212982   3.240   6.610   2.759
 4341TIP3   OH212983   3.249   6.250   0.957
 4341TIP3    H112984   3.194   6.177   0.994
 4341TIP3    H212985   3.325   6.200   0.922
 4342TIP3   OH212986   3.905   6.583   2.566
 4342TIP3    H112987   3.898   6.513   2.635
 4342TIP3    H212988   3.983   6.633   2.595
 4343TIP3   OH212989   3.686   6.288   0.872
 4343TIP3    H112990   3.725   6.222   0.934
 4343TIP3    H212991   3.747   6.284   0.796
 4344TIP3   OH212992   2.917   6.121   2.988
 4344TIP3    H112993   2.933   6.026   3.001
 4344TIP3    H212994   2.830   6.122   2.944
 4345TIP3   OH212995   2.895   5.765   1.183
 4345TIP3    H112996   2.953   5.735   1.256
 4345TIP3    H212997   2.960   5.771   1.110
 4346TIP3   OH212998   3.522   6.204   2.762
 4346TIP3    H112999   3.485   6.225   2.673
 4346TIP3    H213000   3.555   6.112   2.751
 4347TIP3   OH213001   3.408   5.966   0.989
 4347TIP3    H113002   3.411   5.978   1.086
 4347TIP3    H213003   3.409   5.868   0.982
 4348TIP3   OH213004   4.016   6.217   2.368
 4348TIP3    H113005   4.093   6.257   2.325
 4348TIP3    H213006   3.948   6.285   2.350
 4349TIP3   OH213007   3.035   5.856   2.960
 4349TIP3    H113008   3.112   5.805   2.934
 4349TIP3    H213009   3.062   5.885   3.050
 4350TIP3   OH213010   3.099   5.673   1.399
 4350TIP3    H113011   3.076   5.630   1.483
 4350TIP3    H213012   3.139   5.599   1.349
 4351TIP3   OH213013   3.361   5.725   2.621
 4351TIP3    H113014   3.291   5.794   2.627
 4351TIP3    H213015   3.420   5.764   2.552
 4352TIP3   OH213016   3.205   5.469   1.241
 4352TIP3    H113017   3.181   5.477   1.147
 4352TIP3    H213018   3.303   5.469   1.235
 4353TIP3   OH213019   3.890   6.139   2.763
 4353TIP3    H113020   3.967   6.106   2.715
 4353TIP3    H213021   3.883   6.074   2.836
 4354TIP3   OH213022   4.020   5.794   0.911
 4354TIP3    H113023   4.006   5.750   0.825
 4354TIP3    H213024   3.986   5.884   0.888
 4355TIP3   OH213025   3.491   5.527   2.758
 4355TIP3    H113026   3.497   5.445   2.704
 4355TIP3    H213027   3.447   5.589   2.696
 4356TIP3   OH213028   3.498   5.316   2.566
 4356TIP3    H113029   3.528   5.352   2.481
 4356TIP3    H213030   3.405   5.290   2.546
 4357TIP3   OH213031   3.519   5.845   2.441
 4357TIP3    H113032   3.607   5.855   2.401
 4357TIP3    H213033   3.466   5.911   2.391
 4358TIP3   OH213034   4.102   5.812   2.815
 4358TIP3    H113035   4.147   5.727   2.831
 4358TIP3    H213036   4.174   5.866   2.780
 4359TIP3   OH213037   4.146   6.068   2.554
 4359TIP3    H113038   4.088   6.123   2.495
 4359TIP3    H213039   4.234   6.089   2.515
 4360TIP3   OH213040   3.365   5.636   2.988
 4360TIP3    H113041   3.303   5.562   3.003
 4360TIP3    H213042   3.405   5.609   2.903
 4361TIP3   OH213043   3.630   5.072   2.627
 4361TIP3    H113044   3.578   5.153   2.611
 4361TIP3    H213045   3.562   5.002   2.621
 4362TIP3   OH213046   3.752   5.583   2.848
 4362TIP3    H113047   3.750   5.551   2.940
 4362TIP3    H213048   3.662   5.555   2.820
 4363TIP3   OH213049   3.994   5.530   2.705
 4363TIP3    H113050   3.920   5.525   2.768
 4363TIP3    H213051   4.069   5.496   2.760
 4364TIP3   OH213052   4.229   5.472   2.851
 4364TIP3    H113053   4.239   5.375   2.865
 4364TIP3    H213054   4.222   5.506   2.942
 4365TIP3   OH213055   3.214   5.411   3.046
 4365TIP3    H113056   3.218   5.319   3.012
 4365TIP3    H213057   3.256   5.399   3.134
 4366TIP3   OH213058   3.727   5.091   2.887
 4366TIP3    H113059   3.785   5.013   2.894
 4366TIP3    H213060   3.688   5.078   2.799
 4367TIP3   OH213061   3.811   5.328   3.005
 4367TIP3    H113062   3.791   5.238   2.970
 4367TIP3    H213063   3.723   5.358   3.033
 4368TIP3   OH213064   3.012   6.529   1.149
 4368TIP3    H113065   3.108   6.519   1.130
 4368TIP3    H213066   2.986   6.580   1.071
 4369TIP3   OH213067   2.491   5.909   1.365
 4369TIP3    H113068   2.586   5.931   1.348
 4369TIP3    H213069   2.484   5.821   1.323
 4370TIP3   OH213070   2.406   6.524   1.778
 4370TIP3    H113071   2.341   6.462   1.739
 4370TIP3    H213072   2.451   6.465   1.842
 4371TIP3   OH213073   2.540   6.371   1.964
 4371TIP3    H113074   2.528   6.299   2.027
 4371TIP3    H213075   2.595   6.433   2.016
 4372TIP3   OH213076   4.272   6.768   1.767
 4372TIP3    H113077   4.294   6.801   1.856
 4372TIP3    H213078   4.332   6.820   1.711
 4373TIP3   OH213079   4.297   6.789   2.047
 4373TIP3    H113080   4.253   6.701   2.044
 4373TIP3    H213081   4.370   6.768   2.106
 4374TIP3   OH213082   4.344   6.469   2.621
 4374TIP3    H113083   4.272   6.479   2.687
 4374TIP3    H213084   4.386   6.557   2.625
 4375TIP3   OH213085   4.160   5.982   1.240
 4375TIP3    H113086   4.226   6.046   1.207
 4375TIP3    H213087   4.206   5.945   1.318
 4376TIP3   OH213088   4.289   5.851   1.445
 4376TIP3    H113089   4.221   5.808   1.502
 4376TIP3    H213090   4.353   5.887   1.510
 4377TIP3   OH213091   4.346   6.245   1.876
 4377TIP3    H113092   4.397   6.175   1.830
 4377TIP3    H213093   4.341   6.316   1.809
 4378TIP3   OH213094   4.172   6.542   2.070
 4378TIP3    H113095   4.100   6.585   2.120
 4378TIP3    H213096   4.123   6.497   1.998
 4379TIP3   OH213097   4.226   5.759   1.089
 4379TIP3    H113098   4.156   5.759   1.020
 4379TIP3    H213099   4.195   5.834   1.143
 4380TIP3   OH213100   4.092   5.432   1.048
 4380TIP3    H113101   4.062   5.468   0.965
 4380TIP3    H213102   4.069   5.337   1.036
 4381TIP3   OH213103   4.100   5.709   1.589
 4381TIP3    H113104   4.109   5.613   1.579
 4381TIP3    H213105   4.086   5.720   1.686
 4382TIP3   OH213106   4.392   6.133   2.448
 4382TIP3    H113107   4.463   6.065   2.437
 4382TIP3    H213108   4.417   6.200   2.382
 4383TIP3   OH213109   4.575   5.933   2.455
 4383TIP3    H113110   4.500   5.885   2.495
 4383TIP3    H213111   4.648   5.870   2.474
 4384TIP3   OH213112   4.041   5.164   1.026
 4384TIP3    H113113   4.116   5.133   1.081
 4384TIP3    H213114   3.969   5.104   1.048
 4385TIP3   OH213115   4.099   5.425   1.481
 4385TIP3    H113116   4.140   5.336   1.496
 4385TIP3    H213117   4.157   5.457   1.409
 4386TIP3   OH213118   4.258   5.594   1.979
 4386TIP3    H113119   4.344   5.618   1.937
 4386TIP3    H213120   4.273   5.631   2.068
 4387TIP3   OH213121   4.331   5.741   2.208
 4387TIP3    H113122   4.254   5.774   2.258
 4387TIP3    H213123   4.363   5.823   2.165
 4388TIP3   OH213124   2.950   5.469   3.017
 4388TIP3    H113125   3.048   5.459   3.019
 4388TIP3    H213126   2.924   5.380   3.048
 4389TIP3   OH213127   4.785   5.338   2.765
 4389TIP3    H113128   4.843   5.271   2.723
 4389TIP3    H213129   4.752   5.387   2.686
 4390TIP3   OH213130   4.205   5.175   1.522
 4390TIP3    H113131   4.255   5.158   1.605
 4390TIP3    H213132   4.145   5.098   1.520
 4391TIP3   OH213133   2.903   5.165   2.363
 4391TIP3    H113134   2.960   5.085   2.363
 4391TIP3    H213135   2.969   5.233   2.339
 4392TIP3   OH213136   2.702   5.547   2.394
 4392TIP3    H113137   2.730   5.495   2.316
 4392TIP3    H213138   2.775   5.525   2.454
 4393TIP3   OH213139   4.649   5.469   2.568
 4393TIP3    H113140   4.565   5.513   2.590
 4393TIP3    H213141   4.615   5.396   2.512
 4394TIP3   OH213142   4.285   5.105   1.157
 4394TIP3    H113143   4.326   5.036   1.101
 4394TIP3    H213144   4.352   5.176   1.153
 4395TIP3   OH213145   2.693   4.946   1.923
 4395TIP3    H113146   2.599   4.931   1.943
 4395TIP3    H213147   2.688   4.999   1.841
 4396TIP3   OH213148   3.851   6.640   1.420
 4396TIP3    H113149   3.904   6.631   1.339
 4396TIP3    H213150   3.903   6.705   1.471
 4397TIP3   OH213151   2.912   5.031   2.735
 4397TIP3    H113152   2.863   5.008   2.816
 4397TIP3    H213153   2.839   5.040   2.672
 4398TIP3   OH213154   2.952   6.447   2.804
 4398TIP3    H113155   2.858   6.421   2.791
 4398TIP3    H213156   2.966   6.427   2.897
 4399TIP3   OH213157   3.132   6.480   2.353
 4399TIP3    H113158   3.087   6.557   2.313
 4399TIP3    H213159   3.219   6.492   2.309
 4400TIP3   OH213160   3.572   6.722   2.492
 4400TIP3    H113161   3.615   6.720   2.580
 4400TIP3    H213162   3.638   6.773   2.440
 4401TIP3   OH213163   3.752   6.875   2.353
 4401TIP3    H113164   3.822   6.825   2.309
 4401TIP3    H213165   3.806   6.931   2.414
 4402TIP3   OH213166   4.550   5.231   2.450
 4402TIP3    H113167   4.459   5.218   2.418
 4402TIP3    H213168   4.585   5.139   2.442
 4403TIP3   OH213169   2.808   6.728   2.382
 4403TIP3    H113170   2.717   6.760   2.359
 4403TIP3    H213171   2.824   6.781   2.461
 4404TIP3   OH213172   3.043   6.712   2.237
 4404TIP3    H113173   2.955   6.724   2.279
 4404TIP3    H213174   3.026   6.744   2.147
 4405TIP3   OH213175   3.468   6.738   2.036
 4405TIP3    H113176   3.401   6.757   1.968
 4405TIP3    H213177   3.481   6.827   2.076
 4406TIP3   OH213178   3.739   6.677   2.089
 4406TIP3    H113179   3.645   6.697   2.067
 4406TIP3    H213180   3.785   6.750   2.043
 4407TIP3   OH213181   3.941   6.865   2.000
 4407TIP3    H113182   3.930   6.952   1.953
 4407TIP3    H213183   3.970   6.808   1.926
 4408TIP3   OH213184   2.717   6.523   2.121
 4408TIP3    H113185   2.745   6.499   2.212
 4408TIP3    H213186   2.792   6.482   2.071
 4409TIP3   OH213187   2.914   6.399   1.982
 4409TIP3    H113188   2.931   6.314   2.030
 4409TIP3    H213189   3.005   6.435   1.977
 4410TIP3   OH213190   3.180   6.491   1.988
 4410TIP3    H113191   3.212   6.400   1.974
 4410TIP3    H213192   3.230   6.514   2.069
 4411TIP3   OH213193   3.749   5.145   2.066
 4411TIP3    H113194   3.710   5.075   2.121
 4411TIP3    H213195   3.827   5.102   2.027
 4412TIP3   OH213196   4.274   5.031   1.974
 4412TIP3    H113197   4.310   5.081   1.898
 4412TIP3    H213198   4.179   5.049   1.967
 4413TIP3   OH213199   4.371   5.128   1.738
 4413TIP3    H113200   4.445   5.076   1.699
 4413TIP3    H213201   4.405   5.219   1.723
 4414TIP3   OH213202   3.002   4.856   2.084
 4414TIP3    H113203   2.910   4.823   2.090
 4414TIP3    H213204   3.051   4.771   2.081
 4415TIP3   OH213205   2.789   4.730   1.735
 4415TIP3    H113206   2.821   4.784   1.661
 4415TIP3    H213207   2.767   4.797   1.802
 4416TIP3   OH213208   3.447   4.891   1.970
 4416TIP3    H113209   3.504   4.937   1.905
 4416TIP3    H213210   3.481   4.925   2.054
 4417TIP3   OH213211   3.989   5.038   1.950
 4417TIP3    H113212   3.995   4.995   1.864
 4417TIP3    H213213   3.979   4.959   2.009
 4418TIP3   OH213214   4.023   4.961   1.514
 4418TIP3    H113215   3.937   5.004   1.530
 4418TIP3    H213216   4.010   4.875   1.559
 4419TIP3   OH213217   2.506   6.304   1.513
 4419TIP3    H113218   2.420   6.270   1.480
 4419TIP3    H213219   2.498   6.397   1.484
 4420TIP3   OH213220   2.910   4.886   1.496
 4420TIP3    H113221   2.957   4.822   1.439
 4420TIP3    H213222   2.984   4.939   1.531
 4421TIP3   OH213223   3.418   5.065   1.596
 4421TIP3    H113224   3.478   5.017   1.655
 4421TIP3    H213225   3.441   5.157   1.621
 4422TIP3   OH213226   3.279   6.484   1.096
 4422TIP3    H113227   3.368   6.507   1.060
 4422TIP3    H213228   3.257   6.410   1.035
 4423TIP3   OH213229   4.001   6.608   1.190
 4423TIP3    H113230   3.993   6.510   1.181
 4423TIP3    H213231   3.953   6.637   1.110
 4424TIP3   OH213232   3.213   5.140   2.978
 4424TIP3    H113233   3.177   5.067   3.032
 4424TIP3    H213234   3.308   5.136   3.006
 4425TIP3   OH213235   3.463   5.137   3.100
 4425TIP3    H113236   3.555   5.124   3.072
 4425TIP3    H213237   3.457   5.068   3.169
 4426TIP3   OH213238   2.583   6.321   1.148
 4426TIP3    H113239   2.589   6.344   1.242
 4426TIP3    H213240   2.670   6.278   1.132
 4427TIP3   OH213241   4.287   5.201   2.881
 4427TIP3    H113242   4.302   5.170   2.973
 4427TIP3    H213243   4.377   5.192   2.843
 4428TIP3   OH213244   4.223   6.750   2.374
 4428TIP3    H113245   4.144   6.720   2.324
 4428TIP3    H213246   4.203   6.845   2.381
 4429TIP3   OH213247   5.494   6.122   1.140
 4429TIP3    H113248   5.461   6.213   1.120
 4429TIP3    H213249   5.421   6.070   1.103
 4430TIP3   OH213250   5.493   6.129   1.527
 4430TIP3    H113251   5.525   6.093   1.612
 4430TIP3    H213252   5.452   6.051   1.486
 4431TIP3   OH213253   4.787   6.015   1.888
 4431TIP3    H113254   4.816   5.945   1.949
 4431TIP3    H213255   4.868   6.067   1.880
 4432TIP3   OH213256   5.730   6.425   1.215
 4432TIP3    H113257   5.712   6.339   1.255
 4432TIP3    H213258   5.785   6.468   1.282
 4433TIP3   OH213259   4.762   6.430   1.610
 4433TIP3    H113260   4.753   6.332   1.610
 4433TIP3    H213261   4.859   6.437   1.606
 4434TIP3   OH213262   4.467   5.628   1.394
 4434TIP3    H113263   4.417   5.710   1.411
 4434TIP3    H213264   4.398   5.575   1.350
 4435TIP3   OH213265   4.526   5.917   1.574
 4435TIP3    H113266   4.575   5.838   1.607
 4435TIP3    H213267   4.580   5.944   1.498
 4436TIP3   OH213268   5.409   6.853   1.255
 4436TIP3    H113269   5.458   6.799   1.190
 4436TIP3    H213270   5.321   6.812   1.244
 4437TIP3   OH213271   5.288   6.352   1.571
 4437TIP3    H113272   5.321   6.273   1.527
 4437TIP3    H213273   5.374   6.395   1.591
 4438TIP3   OH213274   6.303   5.667   1.571
 4438TIP3    H113275   6.334   5.751   1.612
 4438TIP3    H213276   6.325   5.683   1.477
 4439TIP3   OH213277   5.702   5.849   1.601
 4439TIP3    H113278   5.744   5.763   1.620
 4439TIP3    H213279   5.668   5.833   1.511
 4440TIP3   OH213280   5.044   5.509   1.566
 4440TIP3    H113281   5.022   5.581   1.503
 4440TIP3    H213282   4.997   5.435   1.522
 4441TIP3   OH213283   5.734   5.605   1.193
 4441TIP3    H113284   5.808   5.588   1.255
 4441TIP3    H213285   5.784   5.636   1.115
 4442TIP3   OH213286   4.673   5.710   1.675
 4442TIP3    H113287   4.756   5.690   1.723
 4442TIP3    H213288   4.686   5.654   1.595
 4443TIP3   OH213289   5.111   5.908   1.474
 4443TIP3    H113290   5.206   5.884   1.483
 4443TIP3    H213291   5.072   5.825   1.440
 4444TIP3   OH213292   6.377   5.876   1.741
 4444TIP3    H113293   6.293   5.922   1.722
 4444TIP3    H213294   6.399   5.913   1.829
 4445TIP3   OH213295   5.036   5.494   2.003
 4445TIP3    H113296   4.976   5.529   1.935
 4445TIP3    H213297   4.982   5.509   2.084
 4446TIP3   OH213298   5.385   6.351   1.040
 4446TIP3    H113299   5.356   6.327   0.949
 4446TIP3    H213300   5.326   6.425   1.060
 4447TIP3   OH213301   5.145   6.270   1.794
 4447TIP3    H113302   5.082   6.336   1.832
 4447TIP3    H213303   5.183   6.319   1.718
 4448TIP3   OH213304   5.945   5.606   1.364
 4448TIP3    H113305   5.928   5.557   1.445
 4448TIP3    H213306   5.994   5.685   1.396
 4449TIP3   OH213307   4.909   5.607   1.785
 4449TIP3    H113308   4.972   5.678   1.809
 4449TIP3    H213309   4.957   5.566   1.709
 4450TIP3   OH213310   4.973   6.464   1.895
 4450TIP3    H113311   4.944   6.551   1.860
 4450TIP3    H213312   4.894   6.444   1.950
 4451TIP3   OH213313   4.359   6.153   1.128
 4451TIP3    H113314   4.321   6.179   1.042
 4451TIP3    H213315   4.393   6.239   1.162
 4452TIP3   OH213316   5.801   6.671   1.386
 4452TIP3    H113317   5.708   6.675   1.414
 4452TIP3    H213318   5.795   6.682   1.290
 4453TIP3   OH213319   6.095   5.566   1.736
 4453TIP3    H113320   6.008   5.591   1.700
 4453TIP3    H213321   6.156   5.600   1.666
 4454TIP3   OH213322   5.390   5.208   1.722
 4454TIP3    H113323   5.370   5.113   1.735
 4454TIP3    H213324   5.312   5.248   1.767
 4455TIP3   OH213325   5.500   6.714   1.051
 4455TIP3    H113326   5.544   6.627   1.030
 4455TIP3    H213327   5.557   6.772   0.995
 4456TIP3   OH213328   5.638   6.505   0.961
 4456TIP3    H113329   5.636   6.432   0.896
 4456TIP3    H213330   5.671   6.460   1.041
 4457TIP3   OH213331   6.021   6.586   1.708
 4457TIP3    H113332   6.016   6.502   1.658
 4457TIP3    H213333   6.033   6.651   1.637
 4458TIP3   OH213334   5.320   5.981   0.981
 4458TIP3    H113335   5.236   6.027   0.960
 4458TIP3    H213336   5.353   5.958   0.893
 4459TIP3   OH213337   5.260   5.762   0.750
 4459TIP3    H113338   5.345   5.807   0.757
 4459TIP3    H213339   5.278   5.709   0.671
 4460TIP3   OH213340   6.223   6.217   1.560
 4460TIP3    H113341   6.140   6.269   1.566
 4460TIP3    H213342   6.255   6.243   1.471
 4461TIP3   OH213343   5.669   6.055   0.940
 4461TIP3    H113344   5.612   6.077   1.018
 4461TIP3    H213345   5.753   6.032   0.985
 4462TIP3   OH213346   5.903   6.093   1.860
 4462TIP3    H113347   5.901   6.176   1.911
 4462TIP3    H213348   5.816   6.097   1.816
 4463TIP3   OH213349   4.899   6.054   1.363
 4463TIP3    H113350   4.855   5.996   1.297
 4463TIP3    H213351   4.975   5.998   1.392
 4464TIP3   OH213352   5.033   6.472   1.505
 4464TIP3    H113353   5.006   6.435   1.419
 4464TIP3    H213354   5.119   6.430   1.520
 4465TIP3   OH213355   5.038   6.023   1.719
 4465TIP3    H113356   5.067   5.997   1.629
 4465TIP3    H213357   5.081   6.111   1.731
 4466TIP3   OH213358   5.548   6.707   1.518
 4466TIP3    H113359   5.545   6.721   1.615
 4466TIP3    H213360   5.546   6.608   1.519
 4467TIP3   OH213361   5.178   6.581   2.037
 4467TIP3    H113362   5.117   6.642   2.086
 4467TIP3    H213363   5.112   6.528   1.988
 4468TIP3   OH213364   5.507   5.898   0.777
 4468TIP3    H113365   5.568   5.962   0.819
 4468TIP3    H213366   5.529   5.909   0.682
 4469TIP3   OH213367   4.932   6.136   2.145
 4469TIP3    H113368   4.936   6.224   2.187
 4469TIP3    H213369   4.837   6.115   2.157
 4470TIP3   OH213370   5.245   6.618   1.071
 4470TIP3    H113371   5.335   6.646   1.045
 4470TIP3    H213372   5.193   6.636   0.992
 4471TIP3   OH213373   4.970   6.745   2.128
 4471TIP3    H113374   4.932   6.749   2.038
 4471TIP3    H213375   4.891   6.724   2.182
 4472TIP3   OH213376   6.022   5.151   0.820
 4472TIP3    H113377   5.940   5.172   0.868
 4472TIP3    H213378   6.052   5.239   0.790
 4473TIP3   OH213379   4.763   5.898   1.173
 4473TIP3    H113380   4.697   5.941   1.116
 4473TIP3    H213381   4.732   5.806   1.173
 4474TIP3   OH213382   4.548   6.281   2.073
 4474TIP3    H113383   4.480   6.261   2.006
 4474TIP3    H213384   4.585   6.193   2.094
 4475TIP3   OH213385   4.402   6.475   1.704
 4475TIP3    H113386   4.498   6.471   1.699
 4475TIP3    H213387   4.388   6.554   1.759
 4476TIP3   OH213388   6.231   6.920   1.734
 4476TIP3    H113389   6.243   6.832   1.773
 4476TIP3    H213390   6.160   6.955   1.793
 4477TIP3   OH213391   5.362   6.715   1.890
 4477TIP3    H113392   5.366   6.805   1.930
 4477TIP3    H213393   5.295   6.671   1.948
 4478TIP3   OH213394   5.128   6.838   0.867
 4478TIP3    H113395   5.067   6.813   0.797
 4478TIP3    H213396   5.102   6.930   0.888
 4479TIP3   OH213397   4.573   6.689   1.234
 4479TIP3    H113398   4.617   6.679   1.322
 4479TIP3    H213399   4.524   6.605   1.229
 4480TIP3   OH213400   5.377   6.817   0.755
 4480TIP3    H113401   5.291   6.809   0.800
 4480TIP3    H213402   5.423   6.737   0.783
 4481TIP3   OH213403   6.154   6.052   2.039
 4481TIP3    H113404   6.072   6.064   1.989
 4481TIP3    H213405   6.171   5.956   2.028
 4482TIP3   OH213406   4.753   6.463   2.058
 4482TIP3    H113407   4.800   6.448   2.141
 4482TIP3    H213408   4.678   6.400   2.065
 4483TIP3   OH213409   5.153   5.287   1.848
 4483TIP3    H113410   5.065   5.256   1.817
 4483TIP3    H213411   5.124   5.367   1.896
 4484TIP3   OH213412   5.682   5.403   2.045
 4484TIP3    H113413   5.737   5.372   2.118
 4484TIP3    H213414   5.592   5.386   2.079
 4485TIP3   OH213415   5.921   5.830   1.960
 4485TIP3    H113416   5.869   5.830   2.044
 4485TIP3    H213417   5.900   5.918   1.923
 4486TIP3   OH213418   5.333   5.310   0.850
 4486TIP3    H113419   5.263   5.298   0.918
 4486TIP3    H213420   5.280   5.307   0.768
 4487TIP3   OH213421   5.086   5.802   1.868
 4487TIP3    H113422   5.033   5.822   1.948
 4487TIP3    H213423   5.070   5.883   1.814
 4488TIP3   OH213424   4.968   5.692   1.381
 4488TIP3    H113425   4.875   5.664   1.397
 4488TIP3    H213426   4.982   5.653   1.291
 4489TIP3   OH213427   5.457   5.779   1.116
 4489TIP3    H113428   5.406   5.848   1.068
 4489TIP3    H213429   5.510   5.740   1.043
 4490TIP3   OH213430   5.633   6.049   2.190
 4490TIP3    H113431   5.611   5.978   2.255
 4490TIP3    H213432   5.726   6.066   2.213
 4491TIP3   OH213433   5.614   5.805   1.344
 4491TIP3    H113434   5.550   5.828   1.273
 4491TIP3    H213435   5.651   5.724   1.301
 4492TIP3   OH213436   4.904   5.830   2.072
 4492TIP3    H113437   4.926   5.894   2.142
 4492TIP3    H213438   4.891   5.748   2.124
 4493TIP3   OH213439   4.924   5.274   0.793
 4493TIP3    H113440   4.921   5.299   0.887
 4493TIP3    H213441   4.888   5.353   0.750
 4494TIP3   OH213442   4.496   5.351   1.657
 4494TIP3    H113443   4.572   5.384   1.709
 4494TIP3    H213444   4.535   5.322   1.573
 4495TIP3   OH213445   4.461   5.332   1.177
 4495TIP3    H113446   4.504   5.367   1.096
 4495TIP3    H213447   4.400   5.406   1.194
 4496TIP3   OH213448   5.628   6.047   1.767
 4496TIP3    H113449   5.661   5.976   1.707
 4496TIP3    H213450   5.596   5.993   1.842
 4497TIP3   OH213451   5.302   5.511   1.441
 4497TIP3    H113452   5.218   5.509   1.490
 4497TIP3    H213453   5.368   5.505   1.513
 4498TIP3   OH213454   4.729   5.568   1.447
 4498TIP3    H113455   4.635   5.576   1.418
 4498TIP3    H213456   4.752   5.476   1.423
 4499TIP3   OH213457   4.998   5.571   1.139
 4499TIP3    H113458   5.089   5.578   1.106
 4499TIP3    H213459   4.944   5.583   1.058
 4500TIP3   OH213460   5.787   5.587   1.643
 4500TIP3    H113461   5.752   5.601   1.734
 4500TIP3    H213462   5.719   5.525   1.609
 4501TIP3   OH213463   4.828   5.583   0.929
 4501TIP3    H113464   4.769   5.539   0.865
 4501TIP3    H213465   4.889   5.628   0.866
 4502TIP3   OH213466   5.949   7.276   1.858
 4502TIP3    H113467   5.942   7.292   1.761
 4502TIP3    H213468   6.033   7.321   1.878
 4503TIP3   OH213469   4.916   6.387   2.281
 4503TIP3    H113470   4.995   6.416   2.331
 4503TIP3    H213471   4.850   6.383   2.353
 4504TIP3   OH213472   5.377   5.842   1.540
 4504TIP3    H113473   5.447   5.801   1.487
 4504TIP3    H213474   5.382   5.794   1.624
 4505TIP3   OH213475   4.901   5.327   1.418
 4505TIP3    H113476   4.865   5.249   1.465
 4505TIP3    H213477   4.934   5.287   1.336
 4506TIP3   OH213478   5.354   5.739   1.825
 4506TIP3    H113479   5.263   5.772   1.840
 4506TIP3    H213480   5.409   5.802   1.876
 4507TIP3   OH213481   5.078   6.126   0.925
 4507TIP3    H113482   5.008   6.057   0.913
 4507TIP3    H213483   5.059   6.156   1.017
 4508TIP3   OH213484   5.989   6.364   1.550
 4508TIP3    H113485   6.016   6.411   1.469
 4508TIP3    H213486   5.907   6.319   1.523
 4509TIP3   OH213487   5.557   5.436   0.775
 4509TIP3    H113488   5.467   5.400   0.792
 4509TIP3    H213489   5.547   5.530   0.799
 4510TIP3   OH213490   5.509   6.464   1.907
 4510TIP3    H113491   5.522   6.419   1.992
 4510TIP3    H213492   5.445   6.533   1.929
 4511TIP3   OH213493   5.615   5.682   0.910
 4511TIP3    H113494   5.712   5.691   0.912
 4511TIP3    H213495   5.587   5.753   0.849
 4512TIP3   OH213496   4.789   6.156   1.597
 4512TIP3    H113497   4.823   6.123   1.511
 4512TIP3    H213498   4.822   6.089   1.658
 4513TIP3   OH213499   5.267   6.284   0.806
 4513TIP3    H113500   5.217   6.355   0.761
 4513TIP3    H213501   5.196   6.227   0.839
 4514TIP3   OH213502   4.668   6.067   2.210
 4514TIP3    H113503   4.681   6.052   2.306
 4514TIP3    H213504   4.596   6.003   2.191
 4515TIP3   OH213505   5.392   6.187   2.229
 4515TIP3    H113506   5.328   6.125   2.188
 4515TIP3    H213507   5.477   6.148   2.200
 4516TIP3   OH213508   5.629   6.753   1.796
 4516TIP3    H113509   5.547   6.714   1.830
 4516TIP3    H213510   5.672   6.777   1.882
 4517TIP3   OH213511   6.050   5.765   0.720
 4517TIP3    H113512   5.960   5.755   0.686
 4517TIP3    H213513   6.073   5.853   0.685
 4518TIP3   OH213514   6.273   6.627   1.813
 4518TIP3    H113515   6.175   6.628   1.804
 4518TIP3    H213516   6.299   6.601   1.722
 4519TIP3   OH213517   5.755   6.228   1.464
 4519TIP3    H113518   5.663   6.201   1.479
 4519TIP3    H213519   5.790   6.146   1.422
 4520TIP3   OH213520   4.886   6.457   1.229
 4520TIP3    H113521   4.881   6.534   1.170
 4520TIP3    H213522   4.794   6.429   1.233
 4521TIP3   OH213523   4.459   5.758   0.936
 4521TIP3    H113524   4.500   5.845   0.956
 4521TIP3    H213525   4.380   5.761   0.993
 4522TIP3   OH213526   5.019   6.218   1.172
 4522TIP3    H113527   4.984   6.307   1.191
 4522TIP3    H213528   4.981   6.166   1.244
 4523TIP3   OH213529   5.154   6.792   1.695
 4523TIP3    H113530   5.194   6.876   1.668
 4523TIP3    H213531   5.226   6.753   1.749
 4524TIP3   OH213532   4.798   6.691   1.069
 4524TIP3    H113533   4.715   6.699   1.120
 4524TIP3    H213534   4.833   6.783   1.076
 4525TIP3   OH213535   5.549   6.442   1.637
 4525TIP3    H113536   5.537   6.442   1.735
 4525TIP3    H213537   5.616   6.373   1.626
 4526TIP3   OH213538   5.787   6.964   1.728
 4526TIP3    H113539   5.727   6.887   1.737
 4526TIP3    H213540   5.767   7.002   1.642
 4527TIP3   OH213541   4.872   5.575   2.216
 4527TIP3    H113542   4.775   5.578   2.227
 4527TIP3    H213543   4.898   5.517   2.289
 4528TIP3   OH213544   5.667   6.279   0.779
 4528TIP3    H113545   5.668   6.204   0.841
 4528TIP3    H213546   5.763   6.286   0.759
 4529TIP3   OH213547   4.594   6.656   1.848
 4529TIP3    H113548   4.648   6.585   1.887
 4529TIP3    H213549   4.614   6.730   1.908
 4530TIP3   OH213550   4.883   6.335   0.550
 4530TIP3    H113551   4.868   6.255   0.498
 4530TIP3    H213552   4.845   6.309   0.636
 4531TIP3   OH213553   4.818   6.317   0.827
 4531TIP3    H113554   4.900   6.275   0.857
 4531TIP3    H213555   4.841   6.411   0.826
 4532TIP3   OH213556   4.563   6.004   1.013
 4532TIP3    H113557   4.494   6.051   1.064
 4532TIP3    H213558   4.579   6.068   0.941
 4533TIP3   OH213559   5.713   5.640   1.903
 4533TIP3    H113560   5.794   5.679   1.939
 4533TIP3    H213561   5.700   5.560   1.958
 4534TIP3   OH213562   5.598   5.383   1.067
 4534TIP3    H113563   5.569   5.399   0.975
 4534TIP3    H213564   5.627   5.472   1.095
 4535TIP3   OH213565   5.112   6.523   0.748
 4535TIP3    H113566   5.020   6.545   0.770
 4535TIP3    H213567   5.107   6.501   0.654
 4536TIP3   OH213568   5.286   5.569   1.171
 4536TIP3    H113569   5.345   5.645   1.152
 4536TIP3    H213570   5.289   5.566   1.269
 4537TIP3   OH213571   5.551   5.888   1.973
 4537TIP3    H113572   5.577   5.938   2.052
 4537TIP3    H213573   5.603   5.806   1.982
 4538TIP3   OH213574   5.427   5.293   1.270
 4538TIP3    H113575   5.408   5.376   1.318
 4538TIP3    H213576   5.489   5.325   1.201
 4539TIP3   OH213577   4.853   6.593   0.820
 4539TIP3    H113578   4.782   6.638   0.773
 4539TIP3    H213579   4.835   6.621   0.913
 4540TIP3   OH213580   4.926   5.300   1.075
 4540TIP3    H113581   4.927   5.393   1.103
 4540TIP3    H213582   5.023   5.281   1.079
 4541TIP3   OH213583   6.188   5.787   1.960
 4541TIP3    H113584   6.090   5.786   1.963
 4541TIP3    H213585   6.204   5.747   1.874
 4542TIP3   OH213586   5.841   5.985   1.348
 4542TIP3    H113587   5.765   5.925   1.356
 4542TIP3    H213588   5.911   5.935   1.394
 4543TIP3   OH213589   4.559   6.211   0.816
 4543TIP3    H113590   4.640   6.264   0.832
 4543TIP3    H213591   4.597   6.150   0.749
 4544TIP3   OH213592   4.490   5.485   0.955
 4544TIP3    H113593   4.504   5.582   0.953
 4544TIP3    H213594   4.431   5.473   0.880
 4545TIP3   OH213595   4.888   5.208   1.819
 4545TIP3    H113596   4.857   5.173   1.732
 4545TIP3    H213597   4.877   5.130   1.877
 4546TIP3   OH213598   4.426   6.431   1.196
 4546TIP3    H113599   4.361   6.457   1.263
 4546TIP3    H213600   4.388   6.472   1.115
 4547TIP3   OH213601   4.586   6.972   2.272
 4547TIP3    H113602   4.672   6.973   2.320
 4547TIP3    H213603   4.565   6.877   2.272
 4548TIP3   OH213604   5.061   6.930   2.317
 4548TIP3    H113605   5.156   6.910   2.325
 4548TIP3    H213606   5.035   6.866   2.247
 4549TIP3   OH213607   5.713   6.829   2.043
 4549TIP3    H113608   5.699   6.765   2.116
 4549TIP3    H213609   5.785   6.884   2.080
 4550TIP3   OH213610   4.713   6.375   2.472
 4550TIP3    H113611   4.729   6.279   2.480
 4550TIP3    H213612   4.626   6.378   2.427
 4551TIP3   OH213613   4.707   6.041   0.676
 4551TIP3    H113614   4.765   5.988   0.732
 4551TIP3    H213615   4.720   6.002   0.588
 4552TIP3   OH213616   5.320   6.462   2.247
 4552TIP3    H113617   5.276   6.479   2.161
 4552TIP3    H213618   5.350   6.369   2.237
 4553TIP3   OH213619   5.817   6.464   1.856
 4553TIP3    H113620   5.886   6.516   1.810
 4553TIP3    H213621   5.737   6.516   1.842
 4554TIP3   OH213622   4.834   6.114   2.458
 4554TIP3    H113623   4.906   6.056   2.433
 4554TIP3    H213624   4.863   6.146   2.546
 4555TIP3   OH213625   4.890   5.928   0.895
 4555TIP3    H113626   4.858   5.886   0.976
 4555TIP3    H213627   4.932   5.853   0.849
 4556TIP3   OH213628   5.171   5.996   2.121
 4556TIP3    H113629   5.090   6.051   2.120
 4556TIP3    H213630   5.220   6.031   2.044
 4557TIP3   OH213631   4.996   5.714   0.771
 4557TIP3    H113632   4.977   5.732   0.677
 4557TIP3    H213633   5.095   5.715   0.770
 4558TIP3   OH213634   5.686   6.397   2.249
 4558TIP3    H113635   5.767   6.367   2.206
 4558TIP3    H213636   5.678   6.333   2.322
 4559TIP3   OH213637   5.295   5.783   2.238
 4559TIP3    H113638   5.292   5.704   2.180
 4559TIP3    H213639   5.249   5.851   2.183
 4560TIP3   OH213640   5.295   5.569   2.051
 4560TIP3    H113641   5.321   5.610   1.967
 4560TIP3    H213642   5.201   5.546   2.033
 4561TIP3   OH213643   5.318   6.106   1.928
 4561TIP3    H113644   5.400   6.110   1.878
 4561TIP3    H213645   5.260   6.168   1.878
 4562TIP3   OH213646   5.899   6.074   2.298
 4562TIP3    H113647   5.951   5.994   2.313
 4562TIP3    H213648   5.966   6.135   2.265
 4563TIP3   OH213649   5.946   6.320   2.042
 4563TIP3    H113650   5.888   6.375   1.983
 4563TIP3    H213651   6.033   6.342   2.003
 4564TIP3   OH213652   5.175   5.886   2.477
 4564TIP3    H113653   5.105   5.819   2.492
 4564TIP3    H213654   5.204   5.863   2.386
 4565TIP3   OH213655   5.425   5.332   2.121
 4565TIP3    H113656   5.373   5.412   2.098
 4565TIP3    H213657   5.358   5.261   2.109
 4566TIP3   OH213658   5.551   5.832   2.335
 4566TIP3    H113659   5.528   5.819   2.429
 4566TIP3    H213660   5.464   5.810   2.296
 4567TIP3   OH213661   5.788   5.783   2.191
 4567TIP3    H113662   5.712   5.788   2.253
 4567TIP3    H213663   5.858   5.747   2.248
 4568TIP3   OH213664   6.008   5.706   2.345
 4568TIP3    H113665   6.070   5.641   2.377
 4568TIP3    H213666   6.001   5.767   2.421
 4569TIP3   OH213667   5.009   5.670   2.529
 4569TIP3    H113668   5.009   5.578   2.497
 4569TIP3    H213669   5.045   5.658   2.619
 4570TIP3   OH213670   5.525   5.343   2.379
 4570TIP3    H113671   5.585   5.267   2.374
 4570TIP3    H213672   5.482   5.338   2.291
 4571TIP3   OH213673   5.595   5.562   2.531
 4571TIP3    H113674   5.571   5.489   2.469
 4571TIP3    H213675   5.513   5.616   2.530
 4572TIP3   OH213676   4.289   6.168   0.850
 4572TIP3    H113677   4.384   6.187   0.835
 4572TIP3    H213678   4.280   6.077   0.812
 4573TIP3   OH213679   4.204   6.782   1.266
 4573TIP3    H113680   4.139   6.720   1.227
 4573TIP3    H213681   4.248   6.722   1.331
 4574TIP3   OH213682   4.337   6.627   1.454
 4574TIP3    H113683   4.323   6.556   1.518
 4574TIP3    H213684   4.389   6.689   1.508
 4575TIP3   OH213685   6.099   7.015   1.218
 4575TIP3    H113686   6.081   7.032   1.312
 4575TIP3    H213687   6.104   7.105   1.181
 4576TIP3   OH213688   6.102   7.046   1.507
 4576TIP3    H113689   6.054   6.960   1.513
 4576TIP3    H213690   6.163   7.032   1.582
 4577TIP3   OH213691   6.135   6.724   2.106
 4577TIP3    H113692   6.066   6.736   2.174
 4577TIP3    H213693   6.184   6.809   2.111
 4578TIP3   OH213694   5.938   6.258   0.748
 4578TIP3    H113695   5.986   6.250   0.663
 4578TIP3    H213696   5.996   6.206   0.807
 4579TIP3   OH213697   6.086   6.088   0.920
 4579TIP3    H113698   6.017   6.057   0.983
 4579TIP3    H213699   6.150   6.131   0.980
 4580TIP3   OH213700   6.129   6.491   1.355
 4580TIP3    H113701   6.190   6.426   1.313
 4580TIP3    H213702   6.142   6.570   1.299
 4581TIP3   OH213703   5.969   6.811   1.547
 4581TIP3    H113704   5.912   6.816   1.626
 4581TIP3    H213705   5.917   6.755   1.486
 4582TIP3   OH213706   5.894   5.964   1.079
 4582TIP3    H113707   5.898   5.867   1.073
 4582TIP3    H213708   5.881   5.978   1.175
 4583TIP3   OH213709   4.522   6.036   1.825
 4583TIP3    H113710   4.519   6.002   1.733
 4583TIP3    H213711   4.619   6.037   1.841
 4584TIP3   OH213712   6.188   6.388   1.933
 4584TIP3    H113713   6.259   6.321   1.923
 4584TIP3    H213714   6.222   6.462   1.878
 4585TIP3   OH213715   6.368   6.188   1.944
 4585TIP3    H113716   6.295   6.138   1.986
 4585TIP3    H213717   6.443   6.128   1.961
 4586TIP3   OH213718   5.890   5.387   0.517
 4586TIP3    H113719   5.897   5.355   0.608
 4586TIP3    H213720   5.797   5.366   0.499
 4587TIP3   OH213721   5.900   5.678   0.975
 4587TIP3    H113722   5.935   5.587   0.988
 4587TIP3    H213723   5.968   5.712   0.915
 4588TIP3   OH213724   6.054   5.850   1.467
 4588TIP3    H113725   6.139   5.875   1.425
 4588TIP3    H213726   6.069   5.888   1.556
 4589TIP3   OH213727   6.127   5.997   1.697
 4589TIP3    H113728   6.050   6.032   1.745
 4589TIP3    H213729   6.160   6.077   1.651
 4590TIP3   OH213730   4.743   5.724   2.503
 4590TIP3    H113731   4.841   5.716   2.504
 4590TIP3    H213732   4.719   5.636   2.538
 4591TIP3   OH213733   6.572   5.588   2.252
 4591TIP3    H113734   6.636   5.525   2.212
 4591TIP3    H213735   6.545   5.641   2.174
 4592TIP3   OH213736   6.008   5.427   1.004
 4592TIP3    H113737   6.052   5.413   1.091
 4592TIP3    H213738   5.943   5.354   1.005
 4593TIP3   OH213739   4.703   5.416   1.831
 4593TIP3    H113740   4.764   5.340   1.837
 4593TIP3    H213741   4.767   5.489   1.820
 4594TIP3   OH213742   4.503   5.688   1.900
 4594TIP3    H113743   4.553   5.684   1.816
 4594TIP3    H213744   4.533   5.772   1.935
 4595TIP3   OH213745   6.445   5.726   2.054
 4595TIP3    H113746   6.359   5.770   2.072
 4595TIP3    H213747   6.415   5.653   1.997
 4596TIP3   OH213748   6.131   5.349   0.658
 4596TIP3    H113749   6.119   5.275   0.596
 4596TIP3    H213750   6.173   5.415   0.600
 4597TIP3   OH213751   4.491   5.194   1.406
 4597TIP3    H113752   4.397   5.186   1.431
 4597TIP3    H213753   4.486   5.251   1.326
 4598TIP3   OH213754   5.657   6.879   0.915
 4598TIP3    H113755   5.706   6.875   0.832
 4598TIP3    H213756   5.695   6.957   0.960
 4599TIP3   OH213757   4.712   5.275   2.217
 4599TIP3    H113758   4.658   5.266   2.298
 4599TIP3    H213759   4.645   5.311   2.155
 4600TIP3   OH213760   4.750   6.702   2.292
 4600TIP3    H113761   4.657   6.677   2.276
 4600TIP3    H213762   4.759   6.682   2.386
 4601TIP3   OH213763   4.927   6.734   1.841
 4601TIP3    H113764   4.877   6.809   1.802
 4601TIP3    H213765   5.012   6.748   1.795
 4602TIP3   OH213766   5.372   6.978   1.974
 4602TIP3    H113767   5.410   6.975   2.065
 4602TIP3    H213768   5.442   7.027   1.927
 4603TIP3   OH213769   5.564   7.120   1.839
 4603TIP3    H113770   5.645   7.070   1.821
 4603TIP3    H213771   5.602   7.189   1.899
 4604TIP3   OH213772   6.346   5.490   1.936
 4604TIP3    H113773   6.257   5.480   1.897
 4604TIP3    H213774   6.381   5.398   1.927
 4605TIP3   OH213775   4.608   6.990   1.867
 4605TIP3    H113776   4.517   7.018   1.844
 4605TIP3    H213777   4.619   7.038   1.950
 4606TIP3   OH213778   4.841   6.969   1.723
 4606TIP3    H113779   4.754   6.981   1.768
 4606TIP3    H213780   4.819   7.001   1.633
 4607TIP3   OH213781   5.303   7.019   1.487
 4607TIP3    H113782   5.211   7.024   1.453
 4607TIP3    H213783   5.302   7.094   1.552
 4608TIP3   OH213784   4.516   6.784   1.609
 4608TIP3    H113785   4.540   6.755   1.699
 4608TIP3    H213786   4.587   6.738   1.558
 4609TIP3   OH213787   4.711   6.656   1.469
 4609TIP3    H113788   4.724   6.571   1.518
 4609TIP3    H213789   4.803   6.688   1.462
 4610TIP3   OH213790   4.983   6.748   1.469
 4610TIP3    H113791   5.008   6.654   1.457
 4610TIP3    H213792   5.025   6.764   1.556
 4611TIP3   OH213793   5.556   5.408   1.569
 4611TIP3    H113794   5.509   5.335   1.614
 4611TIP3    H213795   5.621   5.360   1.514
 4612TIP3   OH213796   6.071   5.289   1.465
 4612TIP3    H113797   6.107   5.339   1.388
 4612TIP3    H213798   5.975   5.303   1.454
 4613TIP3   OH213799   6.166   5.385   1.227
 4613TIP3    H113800   6.240   5.332   1.190
 4613TIP3    H213801   6.201   5.476   1.212
 4614TIP3   OH213802   4.798   5.114   1.572
 4614TIP3    H113803   4.705   5.082   1.576
 4614TIP3    H213804   4.845   5.028   1.567
 4615TIP3   OH213805   4.590   4.985   1.221
 4615TIP3    H113806   4.620   5.039   1.146
 4615TIP3    H213807   4.563   5.053   1.286
 4616TIP3   OH213808   5.249   5.140   1.456
 4616TIP3    H113809   5.300   5.190   1.389
 4616TIP3    H213810   5.270   5.189   1.537
 4617TIP3   OH213811   5.790   5.295   1.434
 4617TIP3    H113812   5.784   5.255   1.346
 4617TIP3    H213813   5.778   5.216   1.493
 4618TIP3   OH213814   5.821   5.221   1.000
 4618TIP3    H113815   5.735   5.265   1.014
 4618TIP3    H213816   5.804   5.135   1.045
 4619TIP3   OH213817   4.304   6.561   0.994
 4619TIP3    H113818   4.217   6.527   0.965
 4619TIP3    H213819   4.293   6.654   0.967
 4620TIP3   OH213820   4.705   5.137   0.989
 4620TIP3    H113821   4.753   5.082   0.923
 4620TIP3    H213822   4.777   5.195   1.022
 4621TIP3   OH213823   5.199   5.318   1.101
 4621TIP3    H113824   5.270   5.269   1.144
 4621TIP3    H213825   5.229   5.410   1.119
 4622TIP3   OH213826   5.007   5.398   2.468
 4622TIP3    H113827   4.969   5.326   2.521
 4622TIP3    H213828   5.100   5.396   2.497
 4623TIP3   OH213829   5.260   5.394   2.585
 4623TIP3    H113830   5.337   5.357   2.540
 4623TIP3    H213831   5.242   5.325   2.653
 4624TIP3   OH213832   4.399   6.609   0.658
 4624TIP3    H113833   4.357   6.618   0.744
 4624TIP3    H213834   4.436   6.520   0.662
 4625TIP3   OH213835   6.016   7.011   1.875
 4625TIP3    H113836   5.934   6.984   1.828
 4625TIP3    H213837   6.002   7.108   1.879
 4626TIP3   OH213838   6.582   6.274   1.380
 4626TIP3    H113839   6.614   6.207   1.442
 4626TIP3    H213840   6.657   6.335   1.377
 4627TIP3   OH213841   6.268   5.871   0.881
 4627TIP3    H113842   6.228   5.958   0.897
 4627TIP3    H213843   6.192   5.823   0.844
 4628TIP3   OH213844   6.312   6.170   1.061
 4628TIP3    H113845   6.363   6.092   1.093
 4628TIP3    H213846   6.382   6.227   1.027
 4629TIP3   OH213847   6.822   5.764   1.057
 4629TIP3    H113848   6.811   5.837   0.993
 4629TIP3    H213849   6.781   5.690   1.008
 4630TIP3   OH213850   6.469   5.967   1.161
 4630TIP3    H113851   6.550   5.948   1.211
 4630TIP3    H213852   6.485   5.912   1.082
 4631TIP3   OH213853   6.905   6.163   0.988
 4631TIP3    H113854   6.987   6.163   0.938
 4631TIP3    H213855   6.854   6.092   0.943
 4632TIP3   OH213856   6.827   5.748   1.490
 4632TIP3    H113857   6.768   5.787   1.422
 4632TIP3    H213858   6.774   5.766   1.571
 4633TIP3   OH213859   6.701   5.866   1.276
 4633TIP3    H113860   6.764   5.938   1.296
 4633TIP3    H213861   6.748   5.823   1.200
 4634TIP3   OH213862   7.175   5.461   1.204
 4634TIP3    H113863   7.168   5.366   1.232
 4634TIP3    H213864   7.100   5.498   1.254
 4635TIP3   OH213865   6.824   6.298   1.212
 4635TIP3    H113866   6.867   6.266   1.129
 4635TIP3    H213867   6.860   6.389   1.221
 4636TIP3   OH213868   6.718   6.398   1.630
 4636TIP3    H113869   6.722   6.485   1.676
 4636TIP3    H213870   6.623   6.378   1.642
 4637TIP3   OH213871   6.328   6.530   1.568
 4637TIP3    H113872   6.273   6.508   1.491
 4637TIP3    H213873   6.373   6.446   1.588
 4638TIP3   OH213874   6.191   6.724   1.221
 4638TIP3    H113875   6.282   6.726   1.190
 4638TIP3    H213876   6.168   6.818   1.226
 4639TIP3   OH213877   6.547   6.696   1.537
 4639TIP3    H113878   6.589   6.709   1.623
 4639TIP3    H213879   6.472   6.638   1.560
 4640TIP3   OH213880   6.943   5.544   1.339
 4640TIP3    H113881   6.857   5.513   1.306
 4640TIP3    H213882   6.915   5.623   1.388
 4641TIP3   OH213883   7.480   5.643   1.537
 4641TIP3    H113884   7.500   5.696   1.615
 4641TIP3    H213885   7.387   5.617   1.556
 4642TIP3   OH213886   6.873   6.067   1.346
 4642TIP3    H113887   6.819   6.082   1.427
 4642TIP3    H213888   6.858   6.150   1.296
 4643TIP3   OH213889   6.762   5.954   0.867
 4643TIP3    H113890   6.671   5.921   0.885
 4643TIP3    H213891   6.770   5.939   0.772
 4644TIP3   OH213892   6.699   6.084   1.560
 4644TIP3    H113893   6.722   6.145   1.631
 4644TIP3    H213894   6.690   6.000   1.609
 4645TIP3   OH213895   6.296   5.605   1.141
 4645TIP3    H113896   6.366   5.641   1.199
 4645TIP3    H213897   6.345   5.575   1.063
 4646TIP3   OH213898   7.075   5.751   0.945
 4646TIP3    H113899   6.991   5.747   0.994
 4646TIP3    H213900   7.137   5.780   1.012
 4647TIP3   OH213901   6.529   5.824   0.930
 4647TIP3    H113902   6.434   5.834   0.906
 4647TIP3    H213903   6.545   5.729   0.913
 4648TIP3   OH213904   6.718   6.629   1.779
 4648TIP3    H113905   6.784   6.693   1.806
 4648TIP3    H213906   6.647   6.643   1.845
 4649TIP3   OH213907   6.699   5.574   0.899
 4649TIP3    H113908   6.657   5.504   0.954
 4649TIP3    H213909   6.765   5.521   0.853
 4650TIP3   OH213910   7.138   5.972   1.332
 4650TIP3    H113911   7.046   6.002   1.317
 4650TIP3    H213912   7.186   6.056   1.321
 4651TIP3   OH213913   6.566   6.325   1.072
 4651TIP3    H113914   6.624   6.306   0.998
 4651TIP3    H213915   6.620   6.296   1.148
 4652TIP3   OH213916   6.461   6.325   1.698
 4652TIP3    H113917   6.485   6.314   1.792
 4652TIP3    H213918   6.393   6.257   1.687
 4653TIP3   OH213919   6.668   5.832   1.703
 4653TIP3    H113920   6.572   5.831   1.717
 4653TIP3    H213921   6.700   5.777   1.777
 4654TIP3   OH213922   6.676   5.462   1.307
 4654TIP3    H113923   6.654   5.426   1.219
 4654TIP3    H213924   6.675   5.381   1.362
 4655TIP3   OH213925   6.508   6.620   1.971
 4655TIP3    H113926   6.519   6.523   1.965
 4655TIP3    H213927   6.428   6.635   1.916
 4656TIP3   OH213928   6.626   6.355   1.939
 4656TIP3    H113929   6.710   6.314   1.914
 4656TIP3    H213930   6.649   6.390   2.028
 4657TIP3   OH213931   6.941   6.255   1.599
 4657TIP3    H113932   6.860   6.310   1.610
 4657TIP3    H213933   6.959   6.264   1.505
 4658TIP3   OH213934   7.035   6.029   1.728
 4658TIP3    H113935   7.051   5.954   1.667
 4658TIP3    H213936   7.009   6.101   1.667
 4659TIP3   OH213937   7.081   5.819   1.554
 4659TIP3    H113938   7.114   5.867   1.474
 4659TIP3    H213939   6.990   5.795   1.526
 4660TIP3   OH213940   6.958   6.151   1.961
 4660TIP3    H113941   6.892   6.083   1.985
 4660TIP3    H213942   6.987   6.118   1.873
 4661TIP3   OH213943   7.220   5.584   1.597
 4661TIP3    H113944   7.166   5.665   1.584
 4661TIP3    H213945   7.153   5.514   1.588
 4662TIP3   OH213946   7.316   6.033   1.757
 4662TIP3    H113947   7.342   6.045   1.849
 4662TIP3    H213948   7.224   6.004   1.768
 4663TIP3   OH213949   6.802   5.928   2.021
 4663TIP3    H113950   6.811   5.838   1.983
 4663TIP3    H213951   6.844   5.914   2.108
 4664TIP3   OH213952   7.315   5.590   1.853
 4664TIP3    H113953   7.382   5.519   1.848
 4664TIP3    H213954   7.275   5.585   1.764
 4665TIP3   OH213955   7.357   5.791   2.033
 4665TIP3    H113956   7.343   5.727   1.959
 4665TIP3    H213957   7.288   5.858   2.016
 4666TIP3   OH213958   6.168   6.915   0.967
 4666TIP3    H113959   6.130   6.827   0.956
 4666TIP3    H213960   6.125   6.947   1.048
 4667TIP3   OH213961   6.319   6.297   1.312
 4667TIP3    H113962   6.315   6.261   1.221
 4667TIP3    H213963   6.416   6.297   1.327
 4668TIP3   OH213964   6.537   5.978   1.983
 4668TIP3    H113965   6.635   5.974   1.988
 4668TIP3    H213966   6.515   5.891   2.022
 4669TIP3   OH213967   6.497   5.674   1.316
 4669TIP3    H113968   6.557   5.596   1.323
 4669TIP3    H213969   6.561   5.746   1.309
 4670TIP3   OH213970   6.300   5.944   1.387
 4670TIP3    H113971   6.350   5.941   1.303
 4670TIP3    H213972   6.328   6.028   1.424
 4671TIP3   OH213973   6.286   5.464   0.878
 4671TIP3    H113974   6.204   5.432   0.920
 4671TIP3    H213975   6.252   5.535   0.823
 4672TIP3   OH213976   6.505   5.529   1.702
 4672TIP3    H113977   6.454   5.526   1.785
 4672TIP3    H213978   6.439   5.567   1.641
 4673TIP3   OH213979   6.495   6.848   1.782
 4673TIP3    H113980   6.418   6.874   1.730
 4673TIP3    H213981   6.518   6.930   1.829
 4674TIP3   OH213982   6.598   5.365   1.058
 4674TIP3    H113983   6.507   5.330   1.063
 4674TIP3    H213984   6.650   5.282   1.060
 4675TIP3   OH213985   6.375   5.219   0.732
 4675TIP3    H113986   6.435   5.261   0.670
 4675TIP3    H213987   6.340   5.296   0.782
 4676TIP3   OH213988   7.023   5.420   0.955
 4676TIP3    H113989   7.076   5.479   0.900
 4676TIP3    H213990   7.067   5.430   1.041
 4677TIP3   OH213991   6.802   5.651   1.948
 4677TIP3    H113992   6.766   5.581   2.006
 4677TIP3    H213993   6.896   5.651   1.977
 4678TIP3   OH213994   7.050   5.649   2.071
 4678TIP3    H113995   7.138   5.632   2.033
 4678TIP3    H213996   7.041   5.576   2.135
 4679TIP3   OH213997   0.556   6.692   2.751
 4679TIP3    H113998   0.575   6.779   2.791
 4679TIP3    H213999   0.557   6.712   2.656
 4680TIP3   OH214000   0.638   6.903   2.923
 4680TIP3    H114001   0.614   6.991   2.887
 4680TIP3    H214002   0.625   6.923   3.017
 4681TIP3   OH214003   0.230   6.636   2.546
 4681TIP3    H114004   0.200   6.605   2.631
 4681TIP3    H214005   0.260   6.727   2.566
 4682TIP3   OH214006   0.342   6.620   2.909
 4682TIP3    H114007   0.268   6.673   2.878
 4682TIP3    H214008   0.411   6.639   2.842
 4683TIP3   OH214009   0.272   6.186   1.990
 4683TIP3    H114010   0.198   6.190   2.055
 4683TIP3    H214011   0.251   6.267   1.942
 4684TIP3   OH214012   0.427   7.103   3.259
 4684TIP3    H114013   0.381   7.073   3.177
 4684TIP3    H214014   0.451   7.017   3.298
 4685TIP3   OH214015   0.440   6.820   3.150
 4685TIP3    H114016   0.344   6.807   3.156
 4685TIP3    H214017   0.456   6.790   3.059
 4686TIP3   OH214018   0.325   6.882   2.647
 4686TIP3    H114019   0.378   6.927   2.581
 4686TIP3    H214020   0.263   6.952   2.670
 4687TIP3   OH214021   0.831   6.640   3.428
 4687TIP3    H114022   0.889   6.572   3.389
 4687TIP3    H214023   0.795   6.685   3.349
 4688TIP3   OH214024   0.272   6.449   2.169
 4688TIP3    H114025   0.296   6.468   2.262
 4688TIP3    H214026   0.204   6.380   2.182
 4689TIP3   OH214027   0.693   6.762   3.230
 4689TIP3    H114028   0.602   6.798   3.243
 4689TIP3    H214029   0.669   6.685   3.174
 4690TIP3   OH214030   0.601   6.531   3.113
 4690TIP3    H114031   0.509   6.514   3.084
 4690TIP3    H214032   0.635   6.439   3.106
 4691TIP3   OH214033   0.317   6.341   2.641
 4691TIP3    H114034   0.366   6.390   2.571
 4691TIP3    H214035   0.228   6.345   2.606
 4692TIP3   OH214036   0.426   6.432   2.410
 4692TIP3    H114037   0.496   6.384   2.362
 4692TIP3    H214038   0.449   6.525   2.391
 4693TIP3   OH214039   0.073   6.251   2.170
 4693TIP3    H114040  -0.020   6.274   2.155
 4693TIP3    H214041   0.062   6.169   2.224
 4694TIP3   OH214042   0.318   6.506   3.538
 4694TIP3    H114043   0.330   6.481   3.632
 4694TIP3    H214044   0.408   6.493   3.504
 4695TIP3   OH214045   2.353   6.950   2.239
 4695TIP3    H114046   2.372   7.036   2.280
 4695TIP3    H214047   2.368   6.968   2.145
 4696TIP3   OH214048   1.767   7.150   2.258
 4696TIP3    H114049   1.809   7.072   2.297
 4696TIP3    H214050   1.732   7.111   2.175
 4697TIP3   OH214051   1.092   6.799   2.230
 4697TIP3    H114052   1.070   6.859   2.156
 4697TIP3    H214053   1.042   6.721   2.200
 4698TIP3   OH214054   1.777   6.881   1.872
 4698TIP3    H114055   1.863   6.882   1.920
 4698TIP3    H214056   1.802   6.913   1.784
 4699TIP3   OH214057   0.684   6.981   2.343
 4699TIP3    H114058   0.750   7.022   2.400
 4699TIP3    H214059   0.737   6.935   2.276
 4700TIP3   OH214060   2.433   7.162   2.410
 4700TIP3    H114061   2.409   7.248   2.369
 4700TIP3    H214062   2.437   7.190   2.503
 4701TIP3   OH214063   1.082   6.790   2.678
 4701TIP3    H114064   1.029   6.827   2.604
 4701TIP3    H214065   1.023   6.806   2.753
 4702TIP3   OH214066   1.994   6.906   2.029
 4702TIP3    H114067   1.978   6.863   2.114
 4702TIP3    H214068   2.049   6.982   2.057
 4703TIP3   OH214069   0.956   6.895   2.462
 4703TIP3    H114070   0.951   6.993   2.461
 4703TIP3    H214071   1.012   6.876   2.384
 4704TIP3   OH214072   2.138   6.856   2.393
 4704TIP3    H114073   2.054   6.894   2.363
 4704TIP3    H214074   2.203   6.893   2.329
 4705TIP3   OH214075   1.433   6.511   2.380
 4705TIP3    H114076   1.416   6.416   2.398
 4705TIP3    H214077   1.357   6.552   2.428
 4706TIP3   OH214078   2.069   6.454   1.483
 4706TIP3    H114079   1.988   6.479   1.532
 4706TIP3    H214080   2.087   6.536   1.433
 4707TIP3   OH214081   2.234   7.357   2.737
 4707TIP3    H114082   2.184   7.323   2.660
 4707TIP3    H214083   2.269   7.274   2.773
 4708TIP3   OH214084   1.199   6.586   2.514
 4708TIP3    H114085   1.111   6.556   2.483
 4708TIP3    H214086   1.173   6.668   2.560
 4709TIP3   OH214087   1.734   6.703   2.705
 4709TIP3    H114088   1.804   6.675   2.767
 4709TIP3    H214089   1.652   6.681   2.752
 4710TIP3   OH214090   1.960   7.105   2.625
 4710TIP3    H114091   1.919   7.105   2.715
 4710TIP3    H214092   1.942   7.196   2.597
 4711TIP3   OH214093   1.333   6.637   1.476
 4711TIP3    H114094   1.312   6.631   1.572
 4711TIP3    H214095   1.292   6.553   1.447
 4712TIP3   OH214096   0.988   6.924   2.009
 4712TIP3    H114097   0.894   6.895   2.012
 4712TIP3    H214098   1.013   6.895   1.919
 4713TIP3   OH214099   1.638   7.048   2.038
 4713TIP3    H114100   1.645   7.107   1.961
 4713TIP3    H214101   1.675   6.966   1.998
 4714TIP3   OH214102   0.947   7.135   2.783
 4714TIP3    H114103   0.998   7.155   2.862
 4714TIP3    H214104   0.934   7.039   2.793
 4715TIP3   OH214105   0.926   6.620   1.419
 4715TIP3    H114106   0.963   6.657   1.500
 4715TIP3    H214107   0.896   6.533   1.452
 4716TIP3   OH214108   0.549   6.657   2.303
 4716TIP3    H114109   0.616   6.684   2.369
 4716TIP3    H214110   0.597   6.600   2.242
 4717TIP3   OH214111   1.350   6.784   2.110
 4717TIP3    H114112   1.271   6.789   2.169
 4717TIP3    H214113   1.423   6.798   2.173
 4718TIP3   OH214114   0.739   6.832   2.100
 4718TIP3    H114115   0.654   6.794   2.128
 4718TIP3    H214116   0.796   6.752   2.097
 4719TIP3   OH214117   1.061   6.854   1.752
 4719TIP3    H114118   1.158   6.858   1.768
 4719TIP3    H214119   1.041   6.948   1.729
 4720TIP3   OH214120   1.831   6.884   2.315
 4720TIP3    H114121   1.792   6.896   2.403
 4720TIP3    H214122   1.765   6.826   2.274
 4721TIP3   OH214123   1.448   7.119   2.221
 4721TIP3    H114124   1.525   7.089   2.169
 4721TIP3    H214125   1.480   7.111   2.312
 4722TIP3   OH214126   0.934   6.625   2.084
 4722TIP3    H114127   0.899   6.546   2.132
 4722TIP3    H214128   0.982   6.583   2.012
 4723TIP3   OH214129   1.396   7.029   2.519
 4723TIP3    H114130   1.359   7.109   2.477
 4723TIP3    H214131   1.479   7.065   2.554
 4724TIP3   OH214132   1.586   6.735   1.455
 4724TIP3    H114133   1.493   6.705   1.462
 4724TIP3    H214134   1.574   6.832   1.445
 4725TIP3   OH214135   1.700   6.966   1.618
 4725TIP3    H114136   1.793   6.968   1.589
 4725TIP3    H214137   1.652   7.009   1.546
 4726TIP3   OH214138   2.070   7.039   1.394
 4726TIP3    H114139   2.020   7.021   1.312
 4726TIP3    H214140   2.124   7.116   1.370
 4727TIP3   OH214141   0.916   6.865   2.889
 4727TIP3    H114142   0.818   6.862   2.895
 4727TIP3    H214143   0.942   6.802   2.958
 4728TIP3   OH214144   1.742   6.948   2.573
 4728TIP3    H114145   1.831   6.983   2.590
 4728TIP3    H214146   1.742   6.864   2.623
 4729TIP3   OH214147   1.636   6.683   1.730
 4729TIP3    H114148   1.625   6.711   1.636
 4729TIP3    H214149   1.672   6.766   1.769
 4730TIP3   OH214150   1.325   6.853   1.838
 4730TIP3    H114151   1.364   6.938   1.812
 4730TIP3    H214152   1.331   6.856   1.935
 4731TIP3   OH214153   1.602   7.181   2.679
 4731TIP3    H114154   1.624   7.167   2.773
 4731TIP3    H214155   1.656   7.111   2.637
 4732TIP3   OH214156   1.470   6.586   1.935
 4732TIP3    H114157   1.450   6.665   1.988
 4732TIP3    H214158   1.531   6.623   1.867
 4733TIP3   OH214159   0.996   6.589   1.710
 4733TIP3    H114160   1.004   6.684   1.732
 4733TIP3    H214161   1.090   6.562   1.721
 4734TIP3   OH214162   2.236   7.069   2.642
 4734TIP3    H114163   2.138   7.071   2.641
 4734TIP3    H214164   2.254   7.071   2.547
 4735TIP3   OH214165   0.938   6.505   2.480
 4735TIP3    H114166   0.903   6.472   2.395
 4735TIP3    H214167   0.923   6.429   2.539
 4736TIP3   OH214168   1.334   7.050   2.922
 4736TIP3    H114169   1.346   6.966   2.873
 4736TIP3    H214170   1.294   7.105   2.853
 4737TIP3   OH214171   1.339   6.857   2.727
 4737TIP3    H114172   1.360   6.910   2.646
 4737TIP3    H214173   1.245   6.833   2.710
 4738TIP3   OH214174   1.969   7.374   2.879
 4738TIP3    H114175   1.933   7.285   2.893
 4738TIP3    H214176   2.055   7.367   2.925
 4739TIP3   OH214177   1.193   7.187   3.121
 4739TIP3    H114178   1.146   7.102   3.137
 4739TIP3    H214179   1.249   7.160   3.045
 4740TIP3   OH214180   1.473   6.623   2.784
 4740TIP3    H114181   1.423   6.705   2.761
 4740TIP3    H214182   1.404   6.555   2.772
 4741TIP3   OH214183   1.595   7.127   2.990
 4741TIP3    H114184   1.599   7.111   3.086
 4741TIP3    H214185   1.505   7.093   2.971
 4742TIP3   OH214186   1.839   7.101   2.865
 4742TIP3    H114187   1.761   7.095   2.923
 4742TIP3    H214188   1.908   7.054   2.917
 4743TIP3   OH214189   2.064   7.022   3.001
 4743TIP3    H114190   2.079   6.927   3.020
 4743TIP3    H214191   2.062   7.063   3.090
 4744TIP3   OH214192   1.053   6.967   3.204
 4744TIP3    H114193   1.050   6.878   3.162
 4744TIP3    H214194   1.098   6.944   3.288
 4745TIP3   OH214195   1.564   6.643   3.042
 4745TIP3    H114196   1.631   6.571   3.037
 4745TIP3    H214197   1.525   6.635   2.952
 4746TIP3   OH214198   1.630   6.858   3.197
 4746TIP3    H114199   1.611   6.784   3.135
 4746TIP3    H214200   1.550   6.913   3.190
 4747TIP3   OH214201   1.923   6.987   1.159
 4747TIP3    H114202   1.918   6.974   1.063
 4747TIP3    H214203   1.906   6.894   1.186
 4748TIP3   OH214204   1.884   6.722   1.184
 4748TIP3    H114205   1.957   6.681   1.236
 4748TIP3    H214206   1.810   6.659   1.194
 4749TIP3   OH214207   1.971   6.980   1.637
 4749TIP3    H114208   2.006   6.892   1.665
 4749TIP3    H214209   2.022   6.991   1.553
 4750TIP3   OH214210   2.118   7.130   2.124
 4750TIP3    H114211   2.171   7.182   2.062
 4750TIP3    H214212   2.059   7.199   2.160
 4751TIP3   OH214213   0.785   7.017   3.181
 4751TIP3    H114214   0.881   7.000   3.179
 4751TIP3    H214215   0.751   6.930   3.208
 4752TIP3   OH214216   2.620   6.889   2.918
 4752TIP3    H114217   2.683   6.826   2.876
 4752TIP3    H214218   2.590   6.941   2.840
 4753TIP3   OH214219   2.052   6.723   1.676
 4753TIP3    H114220   2.098   6.706   1.761
 4753TIP3    H214221   1.988   6.650   1.674
 4754TIP3   OH214222   0.746   6.706   2.489
 4754TIP3    H114223   0.815   6.638   2.499
 4754TIP3    H214224   0.801   6.786   2.482
 4755TIP3   OH214225   2.490   7.021   2.719
 4755TIP3    H114226   2.398   7.054   2.725
 4755TIP3    H214227   2.472   6.942   2.663
 4756TIP3   OH214228   2.130   6.660   1.309
 4756TIP3    H114229   2.170   6.593   1.251
 4756TIP3    H214230   2.194   6.734   1.304
 4757TIP3   OH214231   0.523   6.502   2.047
 4757TIP3    H114232   0.442   6.475   2.095
 4757TIP3    H214233   0.487   6.568   1.986
 4758TIP3   OH214234   0.763   6.574   2.884
 4758TIP3    H114235   0.707   6.566   2.963
 4758TIP3    H214236   0.698   6.609   2.820
 4759TIP3   OH214237   2.396   6.790   2.603
 4759TIP3    H114238   2.306   6.791   2.566
 4759TIP3    H214239   2.422   6.696   2.590
 4760TIP3   OH214240   1.605   6.709   2.232
 4760TIP3    H114241   1.557   6.635   2.273
 4760TIP3    H214242   1.674   6.663   2.180
 4761TIP3   OH214243   2.116   6.583   2.126
 4761TIP3    H114244   2.154   6.638   2.053
 4761TIP3    H214245   2.021   6.607   2.120
 4762TIP3   OH214246   2.214   6.686   1.893
 4762TIP3    H114247   2.288   6.636   1.852
 4762TIP3    H214248   2.245   6.779   1.876
 4763TIP3   OH214249   0.841   6.415   2.234
 4763TIP3    H114250   0.750   6.379   2.238
 4763TIP3    H214251   0.891   6.332   2.227
 4764TIP3   OH214252   0.649   6.283   1.902
 4764TIP3    H114253   0.675   6.332   1.822
 4764TIP3    H214254   0.607   6.353   1.955
 4765TIP3   OH214255   1.289   6.447   2.119
 4765TIP3    H114256   1.344   6.493   2.054
 4765TIP3    H214257   1.317   6.490   2.201
 4766TIP3   OH214258   1.831   6.595   2.100
 4766TIP3    H114259   1.833   6.556   2.011
 4766TIP3    H214260   1.819   6.515   2.156
 4767TIP3   OH214261   1.862   6.519   1.663
 4767TIP3    H114262   1.777   6.563   1.679
 4767TIP3    H214263   1.848   6.433   1.708
 4768TIP3   OH214264   0.760   6.438   1.694
 4768TIP3    H114265   0.779   6.382   1.616
 4768TIP3    H214266   0.847   6.480   1.708
 4769TIP3   OH214267   1.271   6.605   1.742
 4769TIP3    H114268   1.327   6.555   1.803
 4769TIP3    H214269   1.292   6.696   1.774
 4770TIP3   OH214270   1.049   6.700   3.131
 4770TIP3    H114271   1.012   6.627   3.183
 4770TIP3    H214272   1.143   6.696   3.159
 4771TIP3   OH214273   1.301   6.697   3.251
 4771TIP3    H114274   1.385   6.670   3.211
 4771TIP3    H214275   1.288   6.626   3.317
 4772TIP3   OH214276   2.129   6.755   3.034
 4772TIP3    H114277   2.147   6.725   3.125
 4772TIP3    H214278   2.218   6.752   2.994
 4773TIP3   OH214279   4.150   7.208   1.728
 4773TIP3    H114280   4.169   7.293   1.772
 4773TIP3    H214281   4.151   7.234   1.634
 4774TIP3   OH214282   3.564   7.407   1.744
 4774TIP3    H114283   3.604   7.328   1.785
 4774TIP3    H214284   3.528   7.367   1.662
 4775TIP3   OH214285   2.887   7.053   1.719
 4775TIP3    H114286   2.867   7.111   1.643
 4775TIP3    H214287   2.838   6.974   1.689
 4776TIP3   OH214288   3.575   7.141   1.354
 4776TIP3    H114289   3.657   7.137   1.409
 4776TIP3    H214290   3.609   7.168   1.268
 4777TIP3   OH214291   2.477   7.237   1.831
 4777TIP3    H114292   2.549   7.271   1.886
 4777TIP3    H214293   2.522   7.190   1.760
 4778TIP3   OH214294   4.228   7.420   1.897
 4778TIP3    H114295   4.201   7.506   1.859
 4778TIP3    H214296   4.236   7.446   1.990
 4779TIP3   OH214297   2.878   7.044   2.159
 4779TIP3    H114298   2.824   7.081   2.087
 4779TIP3    H214299   2.820   7.063   2.236
 4780TIP3   OH214300   3.789   7.162   1.516
 4780TIP3    H114301   3.770   7.120   1.601
 4780TIP3    H214302   3.845   7.238   1.544
 4781TIP3   OH214303   2.749   7.153   1.946
 4781TIP3    H114304   2.752   7.250   1.944
 4781TIP3    H214305   2.806   7.129   1.869
 4782TIP3   OH214306   3.934   7.111   1.879
 4782TIP3    H114307   3.850   7.152   1.851
 4782TIP3    H214308   3.998   7.150   1.816
 4783TIP3   OH214309   3.228   6.766   1.866
 4783TIP3    H114310   3.214   6.672   1.885
 4783TIP3    H214311   3.153   6.806   1.914
 4784TIP3   OH214312   3.865   6.711   0.972
 4784TIP3    H114313   3.783   6.734   1.020
 4784TIP3    H214314   3.881   6.792   0.920
 4785TIP3   OH214315   4.032   7.616   2.224
 4785TIP3    H114316   3.959   7.583   2.171
 4785TIP3    H214317   4.071   7.532   2.252
 4786TIP3   OH214318   2.994   6.843   1.999
 4786TIP3    H114319   2.906   6.813   1.970
 4786TIP3    H214320   2.969   6.924   2.047
 4787TIP3   OH214321   3.530   6.960   2.191
 4787TIP3    H114322   3.601   6.931   2.253
 4787TIP3    H214323   3.448   6.937   2.240
 4788TIP3   OH214324   3.757   7.361   2.113
 4788TIP3    H114325   3.715   7.361   2.202
 4788TIP3    H214326   3.739   7.452   2.083
 4789TIP3   OH214327   3.133   6.894   0.969
 4789TIP3    H114328   3.103   6.885   1.061
 4789TIP3    H214329   3.097   6.811   0.932
 4790TIP3   OH214330   2.789   7.181   1.500
 4790TIP3    H114331   2.696   7.152   1.501
 4790TIP3    H214332   2.814   7.158   1.408
 4791TIP3   OH214333   3.434   7.303   1.526
 4791TIP3    H114334   3.436   7.363   1.449
 4791TIP3    H214335   3.470   7.222   1.484
 4792TIP3   OH214336   2.746   7.404   2.280
 4792TIP3    H114337   2.803   7.403   2.358
 4792TIP3    H214338   2.724   7.310   2.273
 4793TIP3   OH214339   2.793   6.874   0.932
 4793TIP3    H114340   2.786   6.868   1.029
 4793TIP3    H214341   2.715   6.928   0.911
 4794TIP3   OH214342   2.337   6.909   1.801
 4794TIP3    H114343   2.409   6.943   1.858
 4794TIP3    H214344   2.383   6.866   1.728
 4795TIP3   OH214345   2.311   6.888   1.319
 4795TIP3    H114346   2.359   6.916   1.238
 4795TIP3    H214347   2.266   6.972   1.340
 4796TIP3   OH214348   3.145   7.041   1.597
 4796TIP3    H114349   3.067   7.044   1.656
 4796TIP3    H214350   3.218   7.055   1.660
 4797TIP3   OH214351   2.539   7.090   1.588
 4797TIP3    H114352   2.450   7.052   1.583
 4797TIP3    H214353   2.595   7.010   1.585
 4798TIP3   OH214354   2.855   7.110   1.242
 4798TIP3    H114355   2.952   7.114   1.250
 4798TIP3    H214356   2.833   7.203   1.220
 4799TIP3   OH214357   3.627   7.140   1.799
 4799TIP3    H114358   3.590   7.152   1.889
 4799TIP3    H214359   3.559   7.081   1.761
 4800TIP3   OH214360   3.243   7.376   1.708
 4800TIP3    H114361   3.320   7.345   1.656
 4800TIP3    H214362   3.275   7.367   1.799
 4801TIP3   OH214363   2.728   6.882   1.569
 4801TIP3    H114364   2.697   6.801   1.617
 4801TIP3    H214365   2.777   6.844   1.495
 4802TIP3   OH214366   3.193   7.286   2.005
 4802TIP3    H114367   3.157   7.368   1.965
 4802TIP3    H214368   3.276   7.321   2.042
 4803TIP3   OH214369   3.386   6.986   0.934
 4803TIP3    H114370   3.291   6.962   0.944
 4803TIP3    H214371   3.384   7.083   0.940
 4804TIP3   OH214372   3.493   7.215   1.087
 4804TIP3    H114373   3.589   7.219   1.074
 4804TIP3    H214374   3.460   7.284   1.027
 4805TIP3   OH214375   3.866   7.289   0.876
 4805TIP3    H114376   3.813   7.267   0.797
 4805TIP3    H214377   3.894   7.379   0.855
 4806TIP3   OH214378   2.714   7.124   2.368
 4806TIP3    H114379   2.617   7.122   2.381
 4806TIP3    H214380   2.745   7.073   2.444
 4807TIP3   OH214381   3.540   7.204   2.058
 4807TIP3    H114382   3.629   7.239   2.077
 4807TIP3    H214383   3.539   7.120   2.108
 4808TIP3   OH214384   3.435   6.938   1.216
 4808TIP3    H114385   3.423   6.965   1.123
 4808TIP3    H214386   3.468   7.022   1.255
 4809TIP3   OH214387   3.122   7.110   1.323
 4809TIP3    H114388   3.145   7.201   1.298
 4809TIP3    H214389   3.129   7.113   1.421
 4810TIP3   OH214390   3.396   7.436   2.166
 4810TIP3    H114391   3.417   7.424   2.261
 4810TIP3    H214392   3.453   7.367   2.126
 4811TIP3   OH214393   3.264   6.842   1.420
 4811TIP3    H114394   3.244   6.922   1.473
 4811TIP3    H214395   3.326   6.880   1.354
 4812TIP3   OH214396   2.781   6.847   1.207
 4812TIP3    H114397   2.792   6.943   1.224
 4812TIP3    H214398   2.874   6.819   1.217
 4813TIP3   OH214399   4.032   7.324   2.128
 4813TIP3    H114400   3.935   7.326   2.127
 4813TIP3    H214401   4.049   7.332   2.033
 4814TIP3   OH214402   2.346   7.015   1.075
 4814TIP3    H114403   2.357   7.107   1.046
 4814TIP3    H214404   2.253   7.000   1.055
 4815TIP3   OH214405   2.730   6.762   1.969
 4815TIP3    H114406   2.699   6.729   1.882
 4815TIP3    H214407   2.718   6.684   2.026
 4816TIP3   OH214408   3.130   7.305   2.410
 4816TIP3    H114409   3.140   7.224   2.356
 4816TIP3    H214410   3.095   7.367   2.344
 4817TIP3   OH214411   3.134   7.114   2.213
 4817TIP3    H114412   3.156   7.167   2.132
 4817TIP3    H214413   3.041   7.090   2.195
 4818TIP3   OH214414   3.770   7.630   2.364
 4818TIP3    H114415   3.731   7.543   2.384
 4818TIP3    H214416   3.850   7.628   2.419
 4819TIP3   OH214417   2.999   7.447   2.608
 4819TIP3    H114418   2.936   7.379   2.641
 4819TIP3    H214419   3.045   7.397   2.537
 4820TIP3   OH214420   3.270   6.881   2.272
 4820TIP3    H114421   3.219   6.962   2.249
 4820TIP3    H214422   3.201   6.812   2.259
 4821TIP3   OH214423   3.391   7.381   2.477
 4821TIP3    H114424   3.395   7.367   2.574
 4821TIP3    H214425   3.301   7.347   2.459
 4822TIP3   OH214426   3.634   7.355   2.351
 4822TIP3    H114427   3.556   7.350   2.409
 4822TIP3    H214428   3.703   7.309   2.404
 4823TIP3   OH214429   3.859   7.279   2.488
 4823TIP3    H114430   3.874   7.184   2.507
 4823TIP3    H214431   3.856   7.319   2.577
 4824TIP3   OH214432   2.847   7.220   2.671
 4824TIP3    H114433   2.854   7.126   2.646
 4824TIP3    H214434   2.881   7.218   2.763
 4825TIP3   OH214435   3.359   6.898   2.530
 4825TIP3    H114436   3.426   6.828   2.525
 4825TIP3    H214437   3.321   6.892   2.440
 4826TIP3   OH214438   3.425   7.115   2.686
 4826TIP3    H114439   3.405   7.042   2.623
 4826TIP3    H214440   3.345   7.170   2.679
 4827TIP3   OH214441   3.714   7.237   0.637
 4827TIP3    H114442   3.695   7.206   0.546
 4827TIP3    H214443   3.695   7.152   0.682
 4828TIP3   OH214444   3.665   6.982   0.704
 4828TIP3    H114445   3.748   6.940   0.735
 4828TIP3    H214446   3.599   6.911   0.706
 4829TIP3   OH214447   3.763   7.235   1.122
 4829TIP3    H114448   3.797   7.147   1.152
 4829TIP3    H214449   3.815   7.243   1.039
 4830TIP3   OH214450   3.916   7.385   1.609
 4830TIP3    H114451   3.961   7.448   1.551
 4830TIP3    H214452   3.857   7.445   1.657
 4831TIP3   OH214453   2.579   7.273   2.654
 4831TIP3    H114454   2.677   7.264   2.654
 4831TIP3    H214455   2.555   7.185   2.689
 4832TIP3   OH214456   4.420   7.147   2.405
 4832TIP3    H114457   4.480   7.083   2.361
 4832TIP3    H214458   4.386   7.198   2.328
 4833TIP3   OH214459   3.848   6.980   1.162
 4833TIP3    H114460   3.894   6.962   1.247
 4833TIP3    H214461   3.784   6.907   1.159
 4834TIP3   OH214462   2.540   6.965   1.983
 4834TIP3    H114463   2.608   6.895   1.990
 4834TIP3    H214464   2.597   7.043   1.971
 4835TIP3   OH214465   4.287   7.275   2.209
 4835TIP3    H114466   4.197   7.312   2.221
 4835TIP3    H214467   4.263   7.200   2.151
 4836TIP3   OH214468   3.927   6.915   0.796
 4836TIP3    H114469   3.965   6.844   0.741
 4836TIP3    H214470   3.992   6.987   0.785
 4837TIP3   OH214471   2.331   6.754   1.553
 4837TIP3    H114472   2.239   6.745   1.581
 4837TIP3    H214473   2.323   6.808   1.471
 4838TIP3   OH214474   2.556   6.823   2.370
 4838TIP3    H114475   2.503   6.825   2.451
 4838TIP3    H214476   2.491   6.861   2.306
 4839TIP3   OH214477   4.193   7.046   2.088
 4839TIP3    H114478   4.102   7.049   2.053
 4839TIP3    H214479   4.217   6.951   2.075
 4840TIP3   OH214480   3.402   6.965   1.719
 4840TIP3    H114481   3.353   6.892   1.761
 4840TIP3    H214482   3.470   6.918   1.667
 4841TIP3   OH214483   3.912   6.840   1.608
 4841TIP3    H114484   3.949   6.896   1.536
 4841TIP3    H214485   3.818   6.862   1.605
 4842TIP3   OH214486   4.012   6.948   1.378
 4842TIP3    H114487   4.086   6.896   1.339
 4842TIP3    H214488   4.042   7.040   1.361
 4843TIP3   OH214489   2.638   6.670   1.721
 4843TIP3    H114490   2.546   6.637   1.725
 4843TIP3    H214491   2.687   6.585   1.717
 4844TIP3   OH214492   2.432   6.543   1.373
 4844TIP3    H114493   2.461   6.597   1.298
 4844TIP3    H214494   2.404   6.611   1.438
 4845TIP3   OH214495   3.085   6.704   1.607
 4845TIP3    H114496   3.139   6.749   1.541
 4845TIP3    H214497   3.116   6.744   1.690
 4846TIP3   OH214498   3.628   6.851   1.585
 4846TIP3    H114499   3.630   6.809   1.498
 4846TIP3    H214500   3.617   6.773   1.644
 4847TIP3   OH214501   3.659   6.776   1.151
 4847TIP3    H114502   3.573   6.820   1.167
 4847TIP3    H214503   3.644   6.690   1.195
 4848TIP3   OH214504   2.546   6.695   1.138
 4848TIP3    H114505   2.592   6.634   1.076
 4848TIP3    H214506   2.620   6.749   1.171
 4849TIP3   OH214507   3.059   6.861   1.233
 4849TIP3    H114508   3.119   6.812   1.290
 4849TIP3    H214509   3.083   6.952   1.260
 4850TIP3   OH214510   2.848   6.945   2.613
 4850TIP3    H114511   2.813   6.875   2.671
 4850TIP3    H214512   2.942   6.946   2.642
 4851TIP3   OH214513   3.098   6.950   2.733
 4851TIP3    H114514   3.184   6.926   2.693
 4851TIP3    H214515   3.088   6.879   2.800
 4852TIP3   OH214516   3.925   7.012   2.520
 4852TIP3    H114517   3.943   6.981   2.612
 4852TIP3    H214518   4.014   7.008   2.480
 4853TIP3   OH214519   5.333   7.656   1.220
 4853TIP3    H114520   5.384   7.586   1.265
 4853TIP3    H214521   5.340   7.629   1.127
 4854TIP3   OH214522   4.689   7.308   1.205
 4854TIP3    H114523   4.660   7.373   1.137
 4854TIP3    H214524   4.638   7.231   1.173
 4855TIP3   OH214525   4.276   7.505   1.306
 4855TIP3    H114526   4.339   7.525   1.376
 4855TIP3    H214527   4.321   7.438   1.252
 4856TIP3   OH214528   4.676   7.300   1.645
 4856TIP3    H114529   4.619   7.338   1.575
 4856TIP3    H214530   4.619   7.316   1.724
 4857TIP3   OH214531   5.575   7.391   1.016
 4857TIP3    H114532   5.552   7.405   1.109
 4857TIP3    H214533   5.651   7.450   1.001
 4858TIP3   OH214534   4.544   7.410   1.433
 4858TIP3    H114535   4.546   7.507   1.436
 4858TIP3    H214536   4.605   7.389   1.359
 4859TIP3   OH214537   5.745   7.351   1.411
 4859TIP3    H114538   5.674   7.416   1.406
 4859TIP3    H214539   5.778   7.348   1.319
 4860TIP3   OH214540   5.039   7.016   1.370
 4860TIP3    H114541   5.010   6.923   1.384
 4860TIP3    H214542   4.962   7.063   1.408
 4861TIP3   OH214543   4.794   7.102   1.482
 4861TIP3    H114544   4.705   7.070   1.454
 4861TIP3    H214545   4.766   7.181   1.533
 4862TIP3   OH214546   5.327   7.207   1.678
 4862TIP3    H114547   5.390   7.189   1.750
 4862TIP3    H214548   5.240   7.194   1.721
 4863TIP3   OH214549   5.552   7.619   1.579
 4863TIP3    H114550   5.525   7.622   1.673
 4863TIP3    H214551   5.543   7.714   1.555
 4864TIP3   OH214552   4.576   7.434   0.993
 4864TIP3    H114553   4.482   7.408   0.999
 4864TIP3    H214554   4.602   7.389   0.910
 4865TIP3   OH214555   5.271   7.593   0.956
 4865TIP3    H114556   5.194   7.567   0.904
 4865TIP3    H214557   5.333   7.520   0.941
 4866TIP3   OH214558   4.548   7.654   1.758
 4866TIP3    H114559   4.581   7.667   1.847
 4866TIP3    H214560   4.526   7.559   1.761
 4867TIP3   OH214561   4.134   7.173   1.280
 4867TIP3    H114562   4.208   7.196   1.342
 4867TIP3    H214563   4.175   7.117   1.213
 4868TIP3   OH214564   4.093   7.146   0.810
 4868TIP3    H114565   4.152   7.215   0.774
 4868TIP3    H214566   4.017   7.203   0.835
 4869TIP3   OH214567   4.941   7.293   1.082
 4869TIP3    H114568   4.858   7.297   1.135
 4869TIP3    H214569   5.006   7.324   1.148
 4870TIP3   OH214570   4.331   7.341   1.075
 4870TIP3    H114571   4.242   7.306   1.088
 4870TIP3    H214572   4.385   7.260   1.073
 4871TIP3   OH214573   4.660   7.378   0.739
 4871TIP3    H114574   4.756   7.379   0.754
 4871TIP3    H214575   4.637   7.474   0.746
 4872TIP3   OH214576   5.419   7.392   1.273
 4872TIP3    H114577   5.395   7.409   1.367
 4872TIP3    H214578   5.342   7.339   1.246
 4873TIP3   OH214579   5.056   7.616   1.184
 4873TIP3    H114580   5.152   7.620   1.172
 4873TIP3    H214581   5.050   7.641   1.277
 4874TIP3   OH214582   4.528   7.137   1.054
 4874TIP3    H114583   4.494   7.059   1.105
 4874TIP3    H214584   4.559   7.094   0.973
 4875TIP3   OH214585   4.988   7.545   1.493
 4875TIP3    H114586   4.954   7.626   1.450
 4875TIP3    H214587   5.068   7.581   1.535
 4876TIP3   OH214588   4.510   7.379   1.853
 4876TIP3    H114589   4.413   7.381   1.868
 4876TIP3    H214590   4.541   7.332   1.932
 4877TIP3   OH214591   5.347   7.450   1.532
 4877TIP3    H114592   5.429   7.500   1.555
 4877TIP3    H214593   5.348   7.375   1.594
 4878TIP3   OH214594   4.929   7.370   0.803
 4878TIP3    H114595   4.926   7.466   0.783
 4878TIP3    H214596   4.933   7.370   0.901
 4879TIP3   OH214597   5.184   7.685   1.645
 4879TIP3    H114598   5.201   7.687   1.740
 4879TIP3    H214599   5.253   7.623   1.615
 4880TIP3   OH214600   5.060   7.109   0.918
 4880TIP3    H114601   5.026   7.177   0.981
 4880TIP3    H214602   5.118   7.164   0.864
 4881TIP3   OH214603   4.574   7.107   0.724
 4881TIP3    H114604   4.590   7.203   0.722
 4881TIP3    H214605   4.666   7.076   0.712
 4882TIP3   OH214606   4.531   7.018   1.454
 4882TIP3    H114607   4.496   6.983   1.370
 4882TIP3    H214608   4.518   6.941   1.514
 4883TIP3   OH214609   4.932   7.562   1.893
 4883TIP3    H114610   4.938   7.481   1.839
 4883TIP3    H214611   4.886   7.623   1.833
 4884TIP3   OH214612   4.933   7.368   1.697
 4884TIP3    H114613   4.952   7.423   1.618
 4884TIP3    H214614   4.838   7.346   1.682
 4885TIP3   OH214615   5.590   7.894   1.868
 4885TIP3    H114616   5.554   7.805   1.855
 4885TIP3    H214617   5.655   7.880   1.939
 4886TIP3   OH214618   4.806   7.703   2.100
 4886TIP3    H114619   4.735   7.645   2.133
 4886TIP3    H214620   4.843   7.649   2.028
 4887TIP3   OH214621   5.065   7.133   1.753
 4887TIP3    H114622   5.016   7.217   1.734
 4887TIP3    H214623   4.992   7.068   1.746
 4888TIP3   OH214624   5.193   7.626   1.963
 4888TIP3    H114625   5.185   7.621   2.060
 4888TIP3    H214626   5.101   7.601   1.939
 4889TIP3   OH214627   5.437   7.611   1.831
 4889TIP3    H114628   5.356   7.610   1.886
 4889TIP3    H214629   5.502   7.567   1.889
 4890TIP3   OH214630   5.663   7.542   1.980
 4890TIP3    H114631   5.675   7.446   1.996
 4890TIP3    H214632   5.661   7.578   2.071
 4891TIP3   OH214633   4.645   7.476   2.152
 4891TIP3    H114634   4.650   7.380   2.134
 4891TIP3    H214635   4.673   7.479   2.246
 4892TIP3   OH214636   5.159   7.158   2.011
 4892TIP3    H114637   5.224   7.084   2.008
 4892TIP3    H214638   5.116   7.148   1.924
 4893TIP3   OH214639   5.222   7.372   2.172
 4893TIP3    H114640   5.201   7.301   2.108
 4893TIP3    H214641   5.143   7.429   2.167
 4894TIP3   OH214642   4.375   7.525   2.134
 4894TIP3    H114643   4.473   7.524   2.140
 4894TIP3    H214644   4.353   7.439   2.175
 4895TIP3   OH214645   4.340   7.220   1.457
 4895TIP3    H114646   4.404   7.149   1.473
 4895TIP3    H214647   4.399   7.298   1.456
 4896TIP3   OH214648   4.128   7.012   1.043
 4896TIP3    H114649   4.036   6.999   1.071
 4896TIP3    H214650   4.117   7.062   0.960
 4897TIP3   OH214651   4.353   7.077   1.854
 4897TIP3    H114652   4.302   7.078   1.937
 4897TIP3    H214653   4.288   7.118   1.794
 4898TIP3   OH214654   5.951   7.296   1.582
 4898TIP3    H114655   5.878   7.317   1.519
 4898TIP3    H214656   5.994   7.219   1.541
 4899TIP3   OH214657   5.202   7.224   1.206
 4899TIP3    H114658   5.149   7.154   1.248
 4899TIP3    H214659   5.267   7.173   1.152
 4900TIP3   OH214660   5.701   7.103   1.073
 4900TIP3    H114661   5.753   7.183   1.094
 4900TIP3    H214662   5.611   7.138   1.075
 4901TIP3   OH214663   4.434   6.928   1.206
 4901TIP3    H114664   4.342   6.894   1.211
 4901TIP3    H214665   4.483   6.843   1.203
 4902TIP3   OH214666   4.236   6.802   0.870
 4902TIP3    H114667   4.259   6.862   0.796
 4902TIP3    H214668   4.200   6.865   0.934
 4903TIP3   OH214669   4.879   6.955   1.093
 4903TIP3    H114670   4.939   7.004   1.036
 4903TIP3    H214671   4.889   7.002   1.177
 4904TIP3   OH214672   5.402   7.083   1.074
 4904TIP3    H114673   5.429   7.075   0.982
 4904TIP3    H214674   5.416   6.993   1.107
 4905TIP3   OH214675   4.341   6.971   0.666
 4905TIP3    H114676   4.377   6.895   0.618
 4905TIP3    H214677   4.422   7.020   0.690
 4906TIP3   OH214678   4.852   7.111   0.734
 4906TIP3    H114679   4.913   7.071   0.797
 4906TIP3    H214680   4.878   7.205   0.743
 4907TIP3   OH214681   4.645   7.201   2.100
 4907TIP3    H114682   4.607   7.132   2.158
 4907TIP3    H214683   4.738   7.202   2.131
 4908TIP3   OH214684   4.894   7.205   2.221
 4908TIP3    H114685   4.981   7.178   2.186
 4908TIP3    H214686   4.879   7.137   2.289
 4909TIP3   OH214687   5.716   7.271   2.009
 4909TIP3    H114688   5.736   7.239   2.100
 4909TIP3    H214689   5.804   7.266   1.967
 4910TIP3   OH214690   1.883   0.678   5.604
 4910TIP3    H114691   1.875   0.592   5.647
 4910TIP3    H214692   1.910   0.737   5.676
 4911TIP3   OH214693   1.530   1.120   5.627
 4911TIP3    H114694   1.576   1.046   5.581
 4911TIP3    H214695   1.511   1.081   5.714
 4912TIP3   OH214696   2.496   0.099   6.175
 4912TIP3    H114697   2.434   0.154   6.125
 4912TIP3    H214698   2.551   0.165   6.221
 4913TIP3   OH214699   1.511   0.578   5.419
 4913TIP3    H114700   1.498   0.568   5.324
 4913TIP3    H214701   1.467   0.664   5.436
 4914TIP3   OH214702   1.948   0.904   5.783
 4914TIP3    H114703   1.858   0.895   5.820
 4914TIP3    H214704   1.939   0.988   5.734
 4915TIP3   OH214705   1.649   0.942   5.450
 4915TIP3    H114706   1.699   0.859   5.433
 4915TIP3    H214707   1.712   1.007   5.411
 4916TIP3   OH214708   1.792   0.726   5.353
 4916TIP3    H114709   1.745   0.642   5.341
 4916TIP3    H214710   1.838   0.708   5.438
 4917TIP3   OH214711   2.177   0.814   6.120
 4917TIP3    H114712   2.163   0.734   6.064
 4917TIP3    H214713   2.156   0.887   6.058
 4918TIP3   OH214714   2.373   0.457   5.972
 4918TIP3    H114715   2.287   0.504   5.977
 4918TIP3    H214716   2.398   0.475   5.879
 4919TIP3   OH214717   2.073   0.339   6.270
 4919TIP3    H114718   2.054   0.418   6.325
 4919TIP3    H214719   1.985   0.315   6.240
 4920TIP3   OH214720   1.703   0.897   5.894
 4920TIP3    H114721   1.691   0.976   5.950
 4920TIP3    H214722   1.688   0.823   5.956
 4921TIP3   OH214723   1.690   0.151   5.216
 4921TIP3    H114724   1.757   0.201   5.270
 4921TIP3    H214725   1.718   0.177   5.126
 4922TIP3   OH214726   1.396   0.825   5.439
 4922TIP3    H114727   1.477   0.877   5.457
 4922TIP3    H214728   1.329   0.893   5.425
 4923TIP3   OH214729   1.968   0.760   4.768
 4923TIP3    H114730   1.958   0.857   4.773
 4923TIP3    H214731   2.042   0.755   4.707
 4924TIP3   OH214732   2.411   1.160   6.169
 4924TIP3    H114733   2.410   1.063   6.183
 4924TIP3    H214734   2.327   1.184   6.215
 4925TIP3   OH214735   1.522   0.953   6.298
 4925TIP3    H114736   1.521   1.046   6.330
 4925TIP3    H214737   1.467   0.910   6.364
 4926TIP3   OH214738   1.278   1.072   5.252
 4926TIP3    H114739   1.231   1.061   5.167
 4926TIP3    H214740   1.247   1.160   5.282
 4927TIP3   OH214741   1.476   0.973   4.895
 4927TIP3    H114742   1.536   0.904   4.859
 4927TIP3    H214743   1.512   0.984   4.986
 4928TIP3   OH214744   1.530   1.018   5.165
 4928TIP3    H114745   1.441   1.030   5.206
 4928TIP3    H214746   1.581   0.983   5.240
 4929TIP3   OH214747   2.304   0.309   6.437
 4929TIP3    H114748   2.217   0.315   6.393
 4929TIP3    H214749   2.304   0.218   6.472
 4930TIP3   OH214750   1.767   0.195   4.926
 4930TIP3    H114751   1.714   0.145   4.861
 4930TIP3    H214752   1.767   0.282   4.884
 4931TIP3   OH214753   2.105   1.507   6.268
 4931TIP3    H114754   2.100   1.530   6.174
 4931TIP3    H214755   2.183   1.557   6.297
 4932TIP3   OH214756   2.139   0.597   5.957
 4932TIP3    H114757   2.160   0.648   5.875
 4932TIP3    H214758   2.055   0.552   5.934
 4933TIP3   OH214759   1.673   0.679   6.318
 4933TIP3    H114760   1.701   0.620   6.390
 4933TIP3    H214761   1.606   0.735   6.359
 4934TIP3   OH214762   1.763  -0.113   5.251
 4934TIP3    H114763   1.857  -0.103   5.278
 4934TIP3    H214764   1.737  -0.019   5.242
 4935TIP3   OH214765   1.389   0.518   5.152
 4935TIP3    H114766   1.341   0.604   5.152
 4935TIP3    H214767   1.326   0.463   5.201
 4936TIP3   OH214768   1.798   0.945   6.215
 4936TIP3    H114769   1.702   0.936   6.232
 4936TIP3    H214770   1.825   0.994   6.295
 4937TIP3   OH214771   2.213   0.005   5.113
 4937TIP3    H114772   2.139  -0.020   5.053
 4937TIP3    H214773   2.201   0.100   5.118
 4938TIP3   OH214774   2.426   0.874   6.207
 4938TIP3    H114775   2.328   0.866   6.200
 4938TIP3    H214776   2.451   0.841   6.118
 4939TIP3   OH214777   1.913   0.826   5.047
 4939TIP3    H114778   1.868   0.770   5.113
 4939TIP3    H214779   1.914   0.771   4.967
 4940TIP3   OH214780   1.910   0.465   5.889
 4940TIP3    H114781   1.818   0.445   5.912
 4940TIP3    H214782   1.939   0.377   5.855
 4941TIP3   OH214783   1.334   0.988   6.079
 4941TIP3    H114784   1.352   1.073   6.037
 4941TIP3    H214785   1.396   0.988   6.154
 4942TIP3   OH214786   0.921   0.951   5.455
 4942TIP3    H114787   0.887   0.921   5.540
 4942TIP3    H214788   0.959   1.038   5.478
 4943TIP3   OH214789   1.715   0.658   6.052
 4943TIP3    H114790   1.707   0.680   6.148
 4943TIP3    H214791   1.809   0.636   6.046
 4944TIP3   OH214792   1.654   0.553   4.940
 4944TIP3    H114793   1.711   0.532   5.018
 4944TIP3    H214794   1.568   0.524   4.974
 4945TIP3   OH214795   1.936   1.194   6.107
 4945TIP3    H114796   1.856   1.136   6.104
 4945TIP3    H214797   1.917   1.257   6.034
 4946TIP3   OH214798   1.996   1.031   4.760
 4946TIP3    H114799   2.031   1.099   4.701
 4946TIP3    H214800   1.918   1.081   4.795
 4947TIP3   OH214801   1.822   0.494   5.145
 4947TIP3    H114802   1.805   0.438   5.224
 4947TIP3    H214803   1.918   0.490   5.149
 4948TIP3   OH214804   1.233   0.734   5.139
 4948TIP3    H114805   1.149   0.751   5.187
 4948TIP3    H214806   1.257   0.826   5.117
 4949TIP3   OH214807   0.993   0.833   5.226
 4949TIP3    H114808   0.973   0.904   5.161
 4949TIP3    H214809   0.980   0.881   5.311
 4950TIP3   OH214810   2.238  -0.007   6.289
 4950TIP3    H114811   2.160   0.028   6.244
 4950TIP3    H214812   2.311   0.036   6.241
 4951TIP3   OH214813   1.975   0.216   5.798
 4951TIP3    H114814   1.944   0.172   5.718
 4951TIP3    H214815   2.054   0.165   5.821
 4952TIP3   OH214816   1.956   1.173   5.698
 4952TIP3    H114817   1.912   1.219   5.623
 4952TIP3    H214818   2.050   1.192   5.677
 4953TIP3   OH214819   1.187   0.739   4.848
 4953TIP3    H114820   1.173   0.687   4.929
 4953TIP3    H214821   1.259   0.687   4.806
 4954TIP3   OH214822   1.850   1.074   6.452
 4954TIP3    H114823   1.835   1.006   6.522
 4954TIP3    H214824   1.926   1.124   6.488
 4955TIP3   OH214825   1.623   0.778   4.766
 4955TIP3    H114826   1.663   0.709   4.821
 4955TIP3    H214827   1.674   0.774   4.683
 4956TIP3   OH214828   1.324   0.482   4.889
 4956TIP3    H114829   1.345   0.495   4.984
 4956TIP3    H214830   1.352   0.387   4.882
 4957TIP3   OH214831   1.961   0.699   6.251
 4957TIP3    H114832   2.034   0.751   6.214
 4957TIP3    H214833   1.888   0.764   6.250
 4958TIP3   OH214834   1.875   0.666   6.691
 4958TIP3    H114835   1.963   0.666   6.648
 4958TIP3    H214836   1.898   0.613   6.771
 4959TIP3   OH214837   2.034   0.324   4.764
 4959TIP3    H114838   2.012   0.255   4.700
 4959TIP3    H214839   1.963   0.388   4.738
 4960TIP3   OH214840   2.092   0.558   6.442
 4960TIP3    H114841   2.029   0.609   6.386
 4960TIP3    H214842   2.177   0.583   6.400
 4961TIP3   OH214843   0.949   1.019   5.029
 4961TIP3    H114844   1.045   1.014   5.009
 4961TIP3    H214845   0.921   1.078   4.957
 4962TIP3   OH214846   2.212   1.258   5.659
 4962TIP3    H114847   2.237   1.290   5.748
 4962TIP3    H214848   2.275   1.305   5.603
 4963TIP3   OH214849   2.239   1.280   5.941
 4963TIP3    H114850   2.191   1.194   5.936
 4963TIP3    H214851   2.312   1.254   5.998
 4964TIP3   OH214852   2.288   0.958   6.514
 4964TIP3    H114853   2.213   0.963   6.577
 4964TIP3    H214854   2.326   1.047   6.522
 4965TIP3   OH214855   2.129   0.449   5.100
 4965TIP3    H114856   2.187   0.527   5.115
 4965TIP3    H214857   2.141   0.404   5.189
 4966TIP3   OH214858   2.222   0.330   5.330
 4966TIP3    H114859   2.129   0.323   5.365
 4966TIP3    H214860   2.270   0.373   5.403
 4967TIP3   OH214861   2.288   0.734   5.768
 4967TIP3    H114862   2.339   0.664   5.723
 4967TIP3    H214863   2.281   0.803   5.700
 4968TIP3   OH214864   2.113   1.034   5.963
 4968TIP3    H114865   2.041   1.074   6.015
 4968TIP3    H214866   2.063   0.987   5.892
 4969TIP3   OH214867   2.017  -0.062   4.927
 4969TIP3    H114868   1.983  -0.017   4.848
 4969TIP3    H214869   1.940  -0.113   4.953
 4970TIP3   OH214870   2.336   0.627   6.335
 4970TIP3    H114871   2.406   0.560   6.322
 4970TIP3    H214872   2.359   0.695   6.270
 4971TIP3   OH214873   2.524   0.432   6.340
 4971TIP3    H114874   2.446   0.387   6.379
 4971TIP3    H214875   2.593   0.367   6.365
 4972TIP3   OH214876   2.018  -0.093   5.340
 4972TIP3    H114877   2.042  -0.177   5.383
 4972TIP3    H214878   2.083  -0.031   5.373
 4973TIP3   OH214879   2.211   0.090   5.878
 4973TIP3    H114880   2.294   0.119   5.834
 4973TIP3    H214881   2.220   0.138   5.962
 4974TIP3   OH214882   2.267   0.238   6.100
 4974TIP3    H114883   2.199   0.277   6.159
 4974TIP3    H214884   2.304   0.319   6.058
 4975TIP3   OH214885   1.794   1.127   5.314
 4975TIP3    H114886   1.847   1.121   5.232
 4975TIP3    H214887   1.842   1.195   5.364
 4976TIP3   OH214888   1.515   1.212   6.384
 4976TIP3    H114889   1.557   1.211   6.473
 4976TIP3    H214890   1.580   1.265   6.333
 4977TIP3   OH214891   1.694   1.364   6.245
 4977TIP3    H114892   1.763   1.312   6.202
 4977TIP3    H214893   1.747   1.419   6.306
 4978TIP3   OH214894   1.050   1.200   6.062
 4978TIP3    H114895   1.022   1.170   6.152
 4978TIP3    H214896   0.971   1.242   6.026
 4979TIP3   OH214897   1.416   1.233   5.921
 4979TIP3    H114898   1.342   1.248   5.860
 4979TIP3    H214899   1.424   1.320   5.966
 4980TIP3   OH214900   1.680   1.167   5.982
 4980TIP3    H114901   1.586   1.183   5.961
 4980TIP3    H214902   1.723   1.241   5.936
 4981TIP3   OH214903   1.888   1.359   5.892
 4981TIP3    H114904   1.872   1.442   5.844
 4981TIP3    H214905   1.913   1.297   5.820
 4982TIP3   OH214906   1.147   1.031   5.848
 4982TIP3    H114907   1.091   0.952   5.840
 4982TIP3    H214908   1.145   1.047   5.944
 4983TIP3   OH214909   1.217   0.977   4.986
 4983TIP3    H114910   1.306   0.998   4.951
 4983TIP3    H214911   1.196   0.901   4.927
 4984TIP3   OH214912   1.942   1.096   5.083
 4984TIP3    H114913   1.937   0.998   5.073
 4984TIP3    H214914   1.894   1.125   5.003
 4985TIP3   OH214915   2.163   1.237   6.268
 4985TIP3    H114916   2.085   1.205   6.218
 4985TIP3    H214917   2.142   1.332   6.276
 4986TIP3   OH214918   3.432   0.613   5.029
 4986TIP3    H114919   3.404   0.705   5.011
 4986TIP3    H214920   3.353   0.564   5.003
 4987TIP3   OH214921   3.430   0.610   5.418
 4987TIP3    H114922   3.467   0.595   5.507
 4987TIP3    H214923   3.389   0.524   5.399
 4988TIP3   OH214924   2.727   0.515   5.773
 4988TIP3    H114925   2.753   0.443   5.834
 4988TIP3    H214926   2.805   0.571   5.777
 4989TIP3   OH214927   3.675   0.921   5.095
 4989TIP3    H114928   3.659   0.851   5.160
 4989TIP3    H214929   3.706   0.994   5.151
 4990TIP3   OH214930   2.702   0.916   5.502
 4990TIP3    H114931   2.693   0.818   5.502
 4990TIP3    H214932   2.799   0.925   5.499
 4991TIP3   OH214933   2.408   0.122   5.292
 4991TIP3    H114934   2.357   0.203   5.316
 4991TIP3    H214935   2.337   0.063   5.263
 4992TIP3   OH214936   2.464   0.411   5.461
 4992TIP3    H114937   2.515   0.335   5.497
 4992TIP3    H214938   2.531   0.452   5.403
 4993TIP3   OH214939   3.326   1.373   5.113
 4993TIP3    H114940   3.370   1.300   5.066
 4993TIP3    H214941   3.315   1.337   5.202
 4994TIP3   OH214942   3.229   0.837   5.464
 4994TIP3    H114943   3.270   0.759   5.423
 4994TIP3    H214944   3.311   0.885   5.489
 4995TIP3   OH214945   3.644   0.350   5.499
 4995TIP3    H114946   3.675   0.261   5.527
 4995TIP3    H214947   3.607   0.330   5.411
 4996TIP3   OH214948   2.980   0.049   5.483
 4996TIP3    H114949   2.972   0.130   5.430
 4996TIP3    H214950   2.949  -0.016   5.417
 4997TIP3   OH214951   3.696   0.135   5.099
 4997TIP3    H114952   3.766   0.072   5.120
 4997TIP3    H214953   3.702   0.137   5.002
 4998TIP3   OH214954   2.621   0.217   5.567
 4998TIP3    H114955   2.695   0.196   5.629
 4998TIP3    H214956   2.631   0.142   5.505
 4999TIP3   OH214957   3.055   0.406   5.361
 4999TIP3    H114958   3.150   0.383   5.375
 4999TIP3    H214959   3.020   0.322   5.324
 5000TIP3   OH214960   4.321   0.368   5.631
 5000TIP3    H114961   4.251   0.422   5.591
 5000TIP3    H214962   4.344   0.419   5.710
 5001TIP3   OH214963   3.335   0.845   4.890
 5001TIP3    H114964   3.280   0.818   4.815
 5001TIP3    H214965   3.282   0.920   4.925
 5002TIP3   OH214966   3.084   0.758   5.687
 5002TIP3    H114967   3.023   0.826   5.725
 5002TIP3    H214968   3.125   0.807   5.613
 5003TIP3   OH214969   2.844   0.115   5.706
 5003TIP3    H114970   2.900   0.181   5.751
 5003TIP3    H214971   2.896   0.100   5.624
 5004TIP3   OH214972   2.913   0.953   5.788
 5004TIP3    H114973   2.887   1.041   5.753
 5004TIP3    H214974   2.833   0.934   5.843
 5005TIP3   OH214975   2.303   0.661   5.023
 5005TIP3    H114976   2.273   0.726   4.958
 5005TIP3    H214977   2.353   0.722   5.081
 5006TIP3   OH214978   3.742   1.157   5.258
 5006TIP3    H114979   3.653   1.149   5.301
 5006TIP3    H214980   3.735   1.246   5.217
 5007TIP3   OH214981   3.446   1.196   4.933
 5007TIP3    H114982   3.500   1.116   4.918
 5007TIP3    H214983   3.508   1.264   4.897
 5008TIP3   OH214984   3.595   0.972   4.836
 5008TIP3    H114985   3.514   0.918   4.839
 5008TIP3    H214986   3.636   0.950   4.923
 5009TIP3   OH214987   3.970   1.067   5.609
 5009TIP3    H114988   3.957   0.990   5.548
 5009TIP3    H214989   3.951   1.142   5.549
 5010TIP3   OH214990   3.259   0.462   4.866
 5010TIP3    H114991   3.178   0.514   4.848
 5010TIP3    H214992   3.303   0.463   4.779
 5011TIP3   OH214993   3.218   0.248   4.584
 5011TIP3    H114994   3.281   0.304   4.633
 5011TIP3    H214995   3.279   0.196   4.528
 5012TIP3   OH214996   4.165   0.709   5.458
 5012TIP3    H114997   4.081   0.760   5.459
 5012TIP3    H214998   4.194   0.727   5.366
 5013TIP3   OH214999   3.610   0.544   4.836
 5013TIP3    H115000   3.554   0.567   4.914
 5013TIP3    H215001   3.694   0.521   4.881
 5014TIP3   OH215002   3.840   0.586   5.755
 5014TIP3    H115003   3.837   0.671   5.803
 5014TIP3    H215004   3.754   0.589   5.709
 5015TIP3   OH215005   2.841   0.542   5.252
 5015TIP3    H115006   2.804   0.484   5.183
 5015TIP3    H215007   2.918   0.490   5.284
 5016TIP3   OH215008   2.974   0.954   5.402
 5016TIP3    H115009   2.953   0.917   5.315
 5016TIP3    H215010   3.063   0.918   5.419
 5017TIP3   OH215011   2.979   0.516   5.606
 5017TIP3    H115012   3.011   0.493   5.517
 5017TIP3    H215013   3.021   0.602   5.623
 5018TIP3   OH215014   3.504   1.151   5.385
 5018TIP3    H115015   3.490   1.233   5.437
 5018TIP3    H215016   3.486   1.080   5.450
 5019TIP3   OH215017   3.117   1.069   5.934
 5019TIP3    H115018   3.055   1.131   5.979
 5019TIP3    H215019   3.053   1.016   5.882
 5020TIP3   OH215020   3.446   0.407   4.661
 5020TIP3    H115021   3.505   0.467   4.711
 5020TIP3    H215022   3.475   0.426   4.568
 5021TIP3   OH215023   2.871   0.632   6.031
 5021TIP3    H115024   2.875   0.718   6.079
 5021TIP3    H215025   2.778   0.606   6.051
 5022TIP3   OH215026   3.196   1.077   4.939
 5022TIP3    H115027   3.275   1.133   4.949
 5022TIP3    H215028   3.132   1.138   4.898
 5023TIP3   OH215029   2.910   1.236   6.020
 5023TIP3    H115030   2.875   1.239   5.929
 5023TIP3    H215031   2.829   1.214   6.073
 5024TIP3   OH215032   2.711   0.385   5.045
 5024TIP3    H115033   2.637   0.428   4.996
 5024TIP3    H215034   2.669   0.304   5.076
 5025TIP3   OH215035   2.489   0.770   5.966
 5025TIP3    H115036   2.419   0.750   5.900
 5025TIP3    H215037   2.527   0.682   5.985
 5026TIP3   OH215038   2.342   0.965   5.592
 5026TIP3    H115039   2.439   0.960   5.590
 5026TIP3    H215040   2.328   1.041   5.650
 5027TIP3   OH215041   4.208   1.417   5.658
 5027TIP3    H115042   4.206   1.320   5.672
 5027TIP3    H215043   4.125   1.442   5.703
 5028TIP3   OH215044   3.313   1.197   5.791
 5028TIP3    H115045   3.310   1.290   5.822
 5028TIP3    H215046   3.241   1.157   5.844
 5029TIP3   OH215047   3.080   1.328   4.741
 5029TIP3    H115048   3.029   1.313   4.659
 5029TIP3    H215049   3.045   1.414   4.771
 5030TIP3   OH215050   2.512   1.177   5.130
 5030TIP3    H115051   2.563   1.169   5.213
 5030TIP3    H215052   2.453   1.100   5.137
 5031TIP3   OH215053   3.276   1.230   4.380
 5031TIP3    H115054   3.338   1.161   4.346
 5031TIP3    H215055   3.307   1.241   4.472
 5032TIP3   OH215056   3.329   1.274   4.651
 5032TIP3    H115057   3.238   1.287   4.687
 5032TIP3    H215058   3.376   1.245   4.730
 5033TIP3   OH215059   4.093   0.563   5.930
 5033TIP3    H115060   4.012   0.563   5.876
 5033TIP3    H215061   4.110   0.469   5.943
 5034TIP3   OH215062   2.693   0.953   5.951
 5034TIP3    H115063   2.742   0.936   6.034
 5034TIP3    H215064   2.619   0.889   5.958
 5035TIP3   OH215065   3.863   0.333   5.877
 5035TIP3    H115066   3.842   0.349   5.970
 5035TIP3    H215067   3.832   0.414   5.833
 5036TIP3   OH215068   3.529   0.448   4.408
 5036TIP3    H115069   3.490   0.423   4.322
 5036TIP3    H215070   3.598   0.511   4.381
 5037TIP3   OH215071   3.037   0.310   5.772
 5037TIP3    H115072   2.979   0.335   5.847
 5037TIP3    H215073   3.017   0.383   5.709
 5038TIP3   OH215074   2.910   0.191   5.266
 5038TIP3    H115075   2.820   0.157   5.287
 5038TIP3    H215076   2.926   0.144   5.182
 5039TIP3   OH215077   3.406   0.272   5.000
 5039TIP3    H115078   3.351   0.341   4.955
 5039TIP3    H215079   3.459   0.237   4.927
 5040TIP3   OH215080   3.578   0.540   6.073
 5040TIP3    H115081   3.546   0.480   6.145
 5040TIP3    H215082   3.666   0.564   6.106
 5041TIP3   OH215083   3.552   0.316   5.241
 5041TIP3    H115084   3.484   0.340   5.176
 5041TIP3    H215085   3.604   0.253   5.186
 5042TIP3   OH215086   2.836   0.329   5.952
 5042TIP3    H115087   2.848   0.378   6.034
 5042TIP3    H215088   2.843   0.236   5.982
 5043TIP3   OH215089   3.569   0.550   5.659
 5043TIP3    H115090   3.602   0.480   5.597
 5043TIP3    H215091   3.538   0.492   5.732
 5044TIP3   OH215092   3.205   0.032   5.305
 5044TIP3    H115093   3.128   0.014   5.360
 5044TIP3    H215094   3.274   0.042   5.374
 5045TIP3   OH215095   2.670   0.061   5.326
 5045TIP3    H115096   2.578   0.091   5.307
 5045TIP3    H215097   2.653  -0.033   5.346
 5046TIP3   OH215098   2.948   0.059   5.024
 5046TIP3    H115099   3.041   0.083   5.001
 5046TIP3    H215100   2.898   0.076   4.941
 5047TIP3   OH215101   2.777   0.077   4.792
 5047TIP3    H115102   2.708   0.044   4.732
 5047TIP3    H215103   2.835   0.124   4.729
 5048TIP3   OH215104   3.902   1.763   5.755
 5048TIP3    H115105   3.898   1.789   5.661
 5048TIP3    H215106   3.980   1.812   5.786
 5049TIP3   OH215107   2.856   0.878   6.174
 5049TIP3    H115108   2.935   0.905   6.224
 5049TIP3    H215109   2.791   0.870   6.247
 5050TIP3   OH215110   3.314   0.338   5.432
 5050TIP3    H115111   3.379   0.290   5.380
 5050TIP3    H215112   3.311   0.283   5.512
 5051TIP3   OH215113   3.294   0.233   5.731
 5051TIP3    H115114   3.201   0.264   5.745
 5051TIP3    H215115   3.346   0.306   5.771
 5052TIP3   OH215116   3.033   0.614   4.815
 5052TIP3    H115117   2.959   0.550   4.801
 5052TIP3    H215118   3.010   0.648   4.905
 5053TIP3   OH215119   3.930   0.851   5.441
 5053TIP3    H115120   3.955   0.903   5.361
 5053TIP3    H215121   3.846   0.809   5.413
 5054TIP3   OH215122   3.457  -0.046   4.672
 5054TIP3    H115123   3.362  -0.044   4.690
 5054TIP3    H215124   3.484   0.045   4.695
 5055TIP3   OH215125   3.429   0.934   5.812
 5055TIP3    H115126   3.459   0.917   5.902
 5055TIP3    H215127   3.392   1.023   5.818
 5056TIP3   OH215128   3.567   0.186   4.777
 5056TIP3    H115129   3.663   0.201   4.788
 5056TIP3    H215130   3.539   0.265   4.727
 5057TIP3   OH215131   2.722   0.638   5.487
 5057TIP3    H115132   2.765   0.606   5.405
 5057TIP3    H215133   2.762   0.581   5.555
 5058TIP3   OH215134   3.176   0.764   4.639
 5058TIP3    H115135   3.127   0.850   4.640
 5058TIP3    H215136   3.120   0.710   4.699
 5059TIP3   OH215137   2.611   0.555   6.100
 5059TIP3    H115138   2.620   0.538   6.196
 5059TIP3    H215139   2.535   0.497   6.079
 5060TIP3   OH215140   3.334   0.674   6.121
 5060TIP3    H115141   3.267   0.616   6.080
 5060TIP3    H215142   3.417   0.637   6.085
 5061TIP3   OH215143   3.590   1.191   5.711
 5061TIP3    H115144   3.493   1.192   5.723
 5061TIP3    H215145   3.619   1.245   5.787
 5062TIP3   OH215146   3.990   0.275   4.617
 5062TIP3    H115147   3.925   0.236   4.554
 5062TIP3    H215148   3.999   0.361   4.572
 5063TIP3   OH215149   4.220   1.126   5.696
 5063TIP3    H115150   4.122   1.121   5.687
 5063TIP3    H215151   4.247   1.096   5.607
 5064TIP3   OH215152   3.710   1.006   4.498
 5064TIP3    H115153   3.672   1.022   4.586
 5064TIP3    H215154   3.651   1.058   4.443
 5065TIP3   OH215155   3.696   0.716   5.357
 5065TIP3    H115156   3.603   0.691   5.371
 5065TIP3    H215157   3.731   0.636   5.313
 5066TIP3   OH215158   2.827   0.942   5.112
 5066TIP3    H115159   2.822   1.023   5.058
 5066TIP3    H215160   2.734   0.927   5.132
 5067TIP3   OH215161   2.961   0.706   5.057
 5067TIP3    H115162   2.924   0.795   5.075
 5067TIP3    H215163   2.924   0.655   5.132
 5068TIP3   OH215164   3.096   1.285   5.583
 5068TIP3    H115165   3.138   1.358   5.533
 5068TIP3    H215166   3.172   1.248   5.630
 5069TIP3   OH215167   2.744   1.180   4.967
 5069TIP3    H115168   2.658   1.190   5.013
 5069TIP3    H215169   2.778   1.272   4.970
 5070TIP3   OH215170   3.480   0.917   5.544
 5070TIP3    H115171   3.468   0.917   5.642
 5070TIP3    H215172   3.561   0.866   5.534
 5071TIP3   OH215173   3.456   0.819   4.427
 5071TIP3    H115174   3.510   0.787   4.502
 5071TIP3    H215175   3.368   0.789   4.453
 5072TIP3   OH215176   3.731   1.449   5.591
 5072TIP3    H115177   3.649   1.396   5.585
 5072TIP3    H215178   3.715   1.515   5.520
 5073TIP3   OH215179   3.791   1.287   4.260
 5073TIP3    H115180   3.830   1.346   4.193
 5073TIP3    H215181   3.709   1.337   4.278
 5074TIP3   OH215182   3.627   0.727   4.631
 5074TIP3    H115183   3.591   0.671   4.703
 5074TIP3    H215184   3.715   0.742   4.668
 5075TIP3   OH215185   2.534   1.143   5.741
 5075TIP3    H115186   2.588   1.073   5.781
 5075TIP3    H215187   2.557   1.219   5.797
 5076TIP3   OH215188   2.827   0.790   4.426
 5076TIP3    H115189   2.834   0.696   4.402
 5076TIP3    H215190   2.804   0.783   4.521
 5077TIP3   OH215191   2.770   0.798   4.695
 5077TIP3    H115192   2.838   0.773   4.759
 5077TIP3    H215193   2.769   0.896   4.704
 5078TIP3   OH215194   2.498   0.499   4.911
 5078TIP3    H115195   2.431   0.551   4.959
 5078TIP3    H215196   2.503   0.552   4.829
 5079TIP3   OH215197   3.036   0.995   4.646
 5079TIP3    H115198   2.948   1.015   4.682
 5079TIP3    H215199   3.049   1.073   4.590
 5080TIP3   OH215200   3.224   0.070   5.040
 5080TIP3    H115201   3.288   0.144   5.035
 5080TIP3    H215202   3.213   0.061   5.137
 5081TIP3   OH215203   3.495   0.381   5.862
 5081TIP3    H115204   3.522   0.437   5.938
 5081TIP3    H215205   3.515   0.291   5.895
 5082TIP3   OH215206   2.781   1.068   4.717
 5082TIP3    H115207   2.750   1.138   4.654
 5082TIP3    H215208   2.764   1.112   4.803
 5083TIP3   OH215209   4.085   0.244   5.750
 5083TIP3    H115210   3.995   0.271   5.773
 5083TIP3    H215211   4.107   0.307   5.679
 5084TIP3   OH215212   3.786   0.477   5.235
 5084TIP3    H115213   3.707   0.423   5.256
 5084TIP3    H215214   3.856   0.429   5.286
 5085TIP3   OH215215   2.491   0.694   4.709
 5085TIP3    H115216   2.556   0.766   4.718
 5085TIP3    H215217   2.536   0.640   4.641
 5086TIP3   OH215218   3.752   1.427   5.184
 5086TIP3    H115219   3.709   1.473   5.109
 5086TIP3    H215220   3.847   1.447   5.165
 5087TIP3   OH215221   2.366   0.918   5.098
 5087TIP3    H115222   2.302   0.946   5.164
 5087TIP3    H215223   2.329   0.959   5.016
 5088TIP3   OH215224   2.524   1.460   6.168
 5088TIP3    H115225   2.612   1.457   6.212
 5088TIP3    H215226   2.503   1.365   6.164
 5089TIP3   OH215227   3.002   1.415   6.213
 5089TIP3    H115228   3.097   1.399   6.215
 5089TIP3    H215229   2.975   1.355   6.140
 5090TIP3   OH215230   2.984   0.994   4.334
 5090TIP3    H115231   2.927   0.924   4.374
 5090TIP3    H215232   3.060   0.940   4.305
 5091TIP3   OH215233   3.643   1.327   5.945
 5091TIP3    H115234   3.636   1.258   6.014
 5091TIP3    H215235   3.720   1.379   5.975
 5092TIP3   OH215236   3.429   1.032   4.260
 5092TIP3    H115237   3.453   0.949   4.306
 5092TIP3    H215238   3.474   1.023   4.173
 5093TIP3   OH215239   2.655   0.865   6.366
 5093TIP3    H115240   2.668   0.769   6.377
 5093TIP3    H215241   2.567   0.867   6.321
 5094TIP3   OH215242   2.631   0.510   4.562
 5094TIP3    H115243   2.689   0.486   4.637
 5094TIP3    H215244   2.697   0.514   4.490
 5095TIP3   OH215245   3.260   0.950   6.141
 5095TIP3    H115246   3.218   0.970   6.054
 5095TIP3    H215247   3.290   0.857   6.129
 5096TIP3   OH215248   3.153   0.714   4.369
 5096TIP3    H115249   3.149   0.725   4.466
 5096TIP3    H215250   3.150   0.616   4.362
 5097TIP3   OH215251   3.753   0.960   5.747
 5097TIP3    H115252   3.829   1.002   5.704
 5097TIP3    H215253   3.684   1.028   5.731
 5098TIP3   OH215254   2.792   0.602   6.345
 5098TIP3    H115255   2.870   0.547   6.326
 5098TIP3    H215256   2.813   0.633   6.435
 5099TIP3   OH215257   2.838   0.423   4.780
 5099TIP3    H115258   2.805   0.387   4.864
 5099TIP3    H215259   2.873   0.344   4.734
 5100TIP3   OH215260   3.111   0.500   6.017
 5100TIP3    H115261   3.025   0.549   6.011
 5100TIP3    H215262   3.156   0.529   5.935
 5101TIP3   OH215263   2.941   0.213   4.624
 5101TIP3    H115264   2.919   0.221   4.529
 5101TIP3    H215265   3.039   0.212   4.620
 5102TIP3   OH215266   3.628   0.885   6.143
 5102TIP3    H115267   3.703   0.852   6.093
 5102TIP3    H215268   3.619   0.819   6.214
 5103TIP3   OH215269   3.761   0.568   4.283
 5103TIP3    H115270   3.732   0.498   4.221
 5103TIP3    H215271   3.788   0.635   4.219
 5104TIP3   OH215272   3.233   0.282   6.109
 5104TIP3    H115273   3.246   0.242   6.022
 5104TIP3    H215274   3.182   0.362   6.083
 5105TIP3   OH215275   3.259   0.591   5.814
 5105TIP3    H115276   3.345   0.608   5.772
 5105TIP3    H215277   3.202   0.657   5.768
 5106TIP3   OH215278   3.828   0.569   6.187
 5106TIP3    H115279   3.861   0.476   6.184
 5106TIP3    H215280   3.904   0.618   6.151
 5107TIP3   OH215281   3.881   0.814   5.934
 5107TIP3    H115282   3.824   0.869   5.875
 5107TIP3    H215283   3.969   0.835   5.895
 5108TIP3   OH215284   3.069   0.395   6.358
 5108TIP3    H115285   3.088   0.306   6.397
 5108TIP3    H215286   3.122   0.390   6.278
 5109TIP3   OH215287   3.466   0.362   6.244
 5109TIP3    H115288   3.488   0.286   6.300
 5109TIP3    H215289   3.382   0.332   6.204
 5110TIP3   OH215290   2.748   1.269   4.528
 5110TIP3    H115291   2.843   1.263   4.509
 5110TIP3    H215292   2.719   1.322   4.452
 5111TIP3   OH215293   2.148   1.265   5.160
 5111TIP3    H115294   2.080   1.206   5.120
 5111TIP3    H215295   2.190   1.204   5.224
 5112TIP3   OH215296   2.282   1.108   5.343
 5112TIP3    H115297   2.269   1.042   5.414
 5112TIP3    H215298   2.333   1.174   5.393
 5113TIP3   OH215299   4.007   1.515   5.146
 5113TIP3    H115300   4.033   1.552   5.232
 5113TIP3    H215301   4.072   1.555   5.085
 5114TIP3   OH215302   4.032   1.537   5.429
 5114TIP3    H115303   3.989   1.449   5.424
 5114TIP3    H215304   4.110   1.515   5.481
 5115TIP3   OH215305   4.083   1.212   6.003
 5115TIP3    H115306   4.010   1.224   6.067
 5115TIP3    H215307   4.124   1.301   6.005
 5116TIP3   OH215308   3.917   0.750   4.609
 5116TIP3    H115309   4.005   0.788   4.599
 5116TIP3    H215310   3.936   0.694   4.693
 5117TIP3   OH215311   4.012   0.606   4.813
 5117TIP3    H115312   3.953   0.560   4.877
 5117TIP3    H215313   4.086   0.636   4.870
 5118TIP3   OH215314   4.081   0.988   5.254
 5118TIP3    H115315   4.134   0.920   5.209
 5118TIP3    H215316   4.081   1.061   5.189
 5119TIP3   OH215317   3.908   1.285   5.450
 5119TIP3    H115318   3.836   1.330   5.499
 5119TIP3    H215319   3.859   1.242   5.377
 5120TIP3   OH215320   3.966   0.503   4.465
 5120TIP3    H115321   3.892   0.503   4.401
 5120TIP3    H215322   3.936   0.572   4.526
 5121TIP3   OH215323   3.812   0.198   4.424
 5121TIP3    H115324   3.778   0.209   4.334
 5121TIP3    H215325   3.823   0.102   4.432
 5122TIP3   OH215326   3.838   0.458   4.966
 5122TIP3    H115327   3.841   0.362   4.958
 5122TIP3    H215328   3.825   0.470   5.063
 5123TIP3   OH215329   2.460   0.522   5.716
 5123TIP3    H115330   2.458   0.492   5.623
 5123TIP3    H215331   2.558   0.528   5.730
 5124TIP3   OH215332   4.126   0.881   5.826
 5124TIP3    H115333   4.200   0.817   5.812
 5124TIP3    H215334   4.148   0.951   5.762
 5125TIP3   OH215335   4.315   0.686   5.836
 5125TIP3    H115336   4.236   0.642   5.875
 5125TIP3    H215337   4.384   0.622   5.863
 5126TIP3   OH215338   3.839   0.182   4.849
 5126TIP3    H115339   3.878   0.097   4.877
 5126TIP3    H215340   3.899   0.206   4.775
 5127TIP3   OH215341   3.997   0.356   5.365
 5127TIP3    H115342   4.080   0.382   5.320
 5127TIP3    H215343   4.011   0.398   5.452
 5128TIP3   OH215344   4.063   0.493   5.596
 5128TIP3    H115345   3.984   0.530   5.639
 5128TIP3    H215346   4.099   0.572   5.549
 5129TIP3   OH215347   2.689   0.215   6.380
 5129TIP3    H115348   2.782   0.228   6.405
 5129TIP3    H215349   2.678   0.121   6.406
 5130TIP3   OH215350   2.450   0.186   5.791
 5130TIP3    H115351   2.499   0.169   5.709
 5130TIP3    H215352   2.484   0.273   5.816
 5131TIP3   OH215353   3.591   1.381   4.803
 5131TIP3    H115354   3.643   1.378   4.720
 5131TIP3    H215355   3.636   1.452   4.853
 5132TIP3   OH215356   2.689   1.193   6.184
 5132TIP3    H115357   2.597   1.166   6.167
 5132TIP3    H215358   2.700   1.166   6.276
 5133TIP3   OH215359   2.871   1.224   5.734
 5133TIP3    H115360   2.822   1.299   5.694
 5133TIP3    H215361   2.956   1.238   5.688
 5134TIP3   OH215362   3.310   1.464   5.870
 5134TIP3    H115363   3.352   1.465   5.959
 5134TIP3    H215364   3.375   1.517   5.819
 5135TIP3   OH215365   3.490   1.619   5.733
 5135TIP3    H115366   3.561   1.570   5.689
 5135TIP3    H215367   3.542   1.676   5.794
 5136TIP3   OH215368   2.543   1.477   5.758
 5136TIP3    H115369   2.453   1.510   5.734
 5136TIP3    H215370   2.555   1.521   5.843
 5137TIP3   OH215371   2.780   1.457   5.617
 5137TIP3    H115372   2.692   1.469   5.659
 5137TIP3    H215373   2.762   1.489   5.526
 5138TIP3   OH215374   3.206   1.483   5.414
 5138TIP3    H115375   3.135   1.501   5.349
 5138TIP3    H215376   3.218   1.571   5.455
 5139TIP3   OH215377   3.476   1.421   5.466
 5139TIP3    H115378   3.382   1.442   5.447
 5139TIP3    H215379   3.521   1.495   5.423
 5140TIP3   OH215380   3.678   1.612   5.378
 5140TIP3    H115381   3.666   1.698   5.332
 5140TIP3    H215382   3.707   1.554   5.305
 5141TIP3   OH215383   2.456   1.271   5.500
 5141TIP3    H115384   2.481   1.242   5.590
 5141TIP3    H215385   2.528   1.227   5.449
 5142TIP3   OH215386   2.652   1.143   5.360
 5142TIP3    H115387   2.666   1.060   5.411
 5142TIP3    H215388   2.743   1.179   5.357
 5143TIP3   OH215389   2.918   1.234   5.367
 5143TIP3    H115390   2.948   1.142   5.358
 5143TIP3    H215391   2.965   1.259   5.448
 5144TIP3   OH215392   2.240   1.043   4.894
 5144TIP3    H115393   2.151   1.021   4.861
 5144TIP3    H215394   2.241   1.138   4.870
 5145TIP3   OH215395   3.016   1.227   4.476
 5145TIP3    H115396   3.102   1.253   4.438
 5145TIP3    H215397   2.993   1.154   4.415
 5146TIP3   OH215398   3.733   1.343   4.562
 5146TIP3    H115399   3.779   1.277   4.508
 5146TIP3    H215400   3.683   1.392   4.493
 5147TIP3   OH215401   2.315   1.059   4.530
 5147TIP3    H115402   2.322   1.096   4.619
 5147TIP3    H215403   2.405   1.020   4.516
 5148TIP3   OH215404   3.958   1.493   5.756
 5148TIP3    H115405   3.881   1.464   5.704
 5148TIP3    H215406   3.941   1.589   5.761
 5149TIP3   OH215407   5.224   0.865   4.523
 5149TIP3    H115408   5.196   0.957   4.502
 5149TIP3    H215409   5.148   0.817   4.486
 5150TIP3   OH215410   5.225   0.872   4.906
 5150TIP3    H115411   5.261   0.846   4.992
 5150TIP3    H215412   5.187   0.789   4.874
 5151TIP3   OH215413   4.520   0.774   5.266
 5151TIP3    H115414   4.549   0.703   5.326
 5151TIP3    H215415   4.605   0.818   5.249
 5152TIP3   OH215416   5.468   1.172   4.586
 5152TIP3    H115417   5.459   1.101   4.650
 5152TIP3    H215418   5.502   1.245   4.640
 5153TIP3   OH215419   4.499   1.170   4.993
 5153TIP3    H115420   4.491   1.072   4.992
 5153TIP3    H215421   4.596   1.180   4.980
 5154TIP3   OH215422   4.197   0.377   4.774
 5154TIP3    H115423   4.159   0.462   4.799
 5154TIP3    H215424   4.118   0.329   4.744
 5155TIP3   OH215425   4.255   0.659   4.936
 5155TIP3    H115426   4.304   0.586   4.980
 5155TIP3    H215427   4.327   0.709   4.895
 5156TIP3   OH215428   5.122   1.634   4.604
 5156TIP3    H115429   5.165   1.566   4.548
 5156TIP3    H215430   5.112   1.586   4.688
 5157TIP3   OH215431   5.025   1.093   4.953
 5157TIP3    H115432   5.066   1.016   4.909
 5157TIP3    H215433   5.107   1.142   4.976
 5158TIP3   OH215434   5.434   0.604   4.989
 5158TIP3    H115435   5.467   0.516   5.015
 5158TIP3    H215436   5.404   0.587   4.898
 5159TIP3   OH215437   4.773   0.307   4.971
 5159TIP3    H115438   4.767   0.386   4.914
 5159TIP3    H215439   4.747   0.239   4.906
 5160TIP3   OH215440   5.492   0.391   4.584
 5160TIP3    H115441   5.569   0.334   4.601
 5160TIP3    H215442   5.503   0.407   4.489
 5161TIP3   OH215443   4.415   0.474   5.053
 5161TIP3    H115444   4.488   0.450   5.114
 5161TIP3    H215445   4.430   0.406   4.984
 5162TIP3   OH215446   4.850   0.661   4.855
 5162TIP3    H115447   4.945   0.640   4.865
 5162TIP3    H215448   4.815   0.579   4.813
 5163TIP3   OH215449   6.117   0.621   5.120
 5163TIP3    H115450   6.052   0.676   5.072
 5163TIP3    H215451   6.138   0.676   5.197
 5164TIP3   OH215452   5.108   1.083   4.391
 5164TIP3    H115453   5.077   1.080   4.300
 5164TIP3    H215454   5.070   1.169   4.420
 5165TIP3   OH215455   4.880   1.014   5.173
 5165TIP3    H115456   4.820   1.083   5.209
 5165TIP3    H215457   4.922   1.060   5.097
 5166TIP3   OH215458   4.638   0.373   5.192
 5166TIP3    H115459   4.697   0.437   5.236
 5166TIP3    H215460   4.688   0.357   5.110
 5167TIP3   OH215461   4.711   1.210   5.275
 5167TIP3    H115462   4.684   1.296   5.236
 5167TIP3    H215463   4.630   1.192   5.329
 5168TIP3   OH215464   4.079   0.924   4.480
 5168TIP3    H115465   4.126   0.958   4.401
 5168TIP3    H215466   4.110   0.994   4.543
 5169TIP3   OH215467   5.542   1.415   4.752
 5169TIP3    H115468   5.451   1.406   4.789
 5169TIP3    H215469   5.533   1.500   4.703
 5170TIP3   OH215470   5.239   1.458   4.424
 5170TIP3    H115471   5.286   1.374   4.404
 5170TIP3    H215472   5.303   1.522   4.385
 5171TIP3   OH215473   5.381   1.241   4.333
 5171TIP3    H115474   5.362   1.159   4.286
 5171TIP3    H215475   5.418   1.208   4.418
 5172TIP3   OH215476   5.765   1.323   5.095
 5172TIP3    H115477   5.754   1.247   5.035
 5172TIP3    H215478   5.747   1.399   5.035
 5173TIP3   OH215479   5.056   0.720   4.353
 5173TIP3    H115480   4.978   0.776   4.332
 5173TIP3    H215481   5.105   0.722   4.268
 5174TIP3   OH215482   5.014   0.505   4.072
 5174TIP3    H115483   5.078   0.561   4.120
 5174TIP3    H215484   5.076   0.453   4.016
 5175TIP3   OH215485   5.961   0.968   4.947
 5175TIP3    H115486   5.877   1.018   4.945
 5175TIP3    H215487   5.991   0.982   4.854
 5176TIP3   OH215488   5.401   0.802   4.321
 5176TIP3    H115489   5.350   0.826   4.402
 5176TIP3    H215490   5.487   0.777   4.362
 5177TIP3   OH215491   5.637   0.842   5.242
 5177TIP3    H115492   5.631   0.929   5.286
 5177TIP3    H215493   5.551   0.842   5.194
 5178TIP3   OH215494   4.636   0.799   4.744
 5178TIP3    H115495   4.598   0.740   4.675
 5178TIP3    H215496   4.714   0.748   4.774
 5179TIP3   OH215497   4.765   1.199   4.893
 5179TIP3    H115498   4.747   1.174   4.801
 5179TIP3    H215499   4.856   1.166   4.906
 5180TIP3   OH215500   4.765   0.776   5.094
 5180TIP3    H115501   4.801   0.746   5.008
 5180TIP3    H215502   4.814   0.859   5.110
 5181TIP3   OH215503   5.300   1.410   4.873
 5181TIP3    H115504   5.284   1.489   4.927
 5181TIP3    H215505   5.282   1.336   4.935
 5182TIP3   OH215506   4.913   1.325   5.422
 5182TIP3    H115507   4.849   1.387   5.465
 5182TIP3    H215508   4.850   1.272   5.368
 5183TIP3   OH215509   5.240   0.664   4.149
 5183TIP3    H115510   5.300   0.724   4.198
 5183TIP3    H215511   5.268   0.683   4.056
 5184TIP3   OH215512   4.670   0.887   5.525
 5184TIP3    H115513   4.671   0.975   5.568
 5184TIP3    H215514   4.576   0.864   5.533
 5185TIP3   OH215515   4.988   1.333   4.425
 5185TIP3    H115516   5.063   1.394   4.432
 5185TIP3    H215517   4.912   1.390   4.407
 5186TIP3   OH215518   4.707   1.493   5.507
 5186TIP3    H115519   4.673   1.498   5.416
 5186TIP3    H215520   4.626   1.470   5.558
 5187TIP3   OH215521   4.506   0.642   4.546
 5187TIP3    H115522   4.439   0.680   4.486
 5187TIP3    H215523   4.476   0.551   4.556
 5188TIP3   OH215524   5.562   1.266   3.747
 5188TIP3    H115525   5.570   1.362   3.732
 5188TIP3    H215526   5.655   1.236   3.735
 5189TIP3   OH215527   4.284   1.027   5.454
 5189TIP3    H115528   4.218   1.005   5.385
 5189TIP3    H215529   4.324   0.940   5.474
 5190TIP3   OH215530   4.140   1.218   5.084
 5190TIP3    H115531   4.236   1.213   5.074
 5190TIP3    H215532   4.131   1.297   5.140
 5191TIP3   OH215533   6.004   1.672   5.146
 5191TIP3    H115534   6.002   1.575   5.155
 5191TIP3    H215535   5.917   1.695   5.186
 5192TIP3   OH215536   5.111   1.450   5.282
 5192TIP3    H115537   5.104   1.544   5.310
 5192TIP3    H215538   5.037   1.411   5.332
 5193TIP3   OH215539   4.281   1.432   4.628
 5193TIP3    H115540   4.362   1.432   4.683
 5193TIP3    H215541   4.237   1.354   4.663
 5194TIP3   OH215542   5.090   1.499   3.855
 5194TIP3    H115543   5.144   1.423   3.826
 5194TIP3    H215544   5.112   1.505   3.950
 5195TIP3   OH215545   5.115   1.538   4.133
 5195TIP3    H115546   5.023   1.525   4.163
 5195TIP3    H215547   5.166   1.503   4.208
 5196TIP3   OH215548   5.886   0.818   5.415
 5196TIP3    H115549   5.808   0.817   5.357
 5196TIP3    H215550   5.904   0.724   5.429
 5197TIP3   OH215551   4.490   1.208   5.438
 5197TIP3    H115552   4.538   1.192   5.521
 5197TIP3    H215553   4.415   1.146   5.445
 5198TIP3   OH215554   5.651   0.587   5.362
 5198TIP3    H115555   5.641   0.606   5.457
 5198TIP3    H215556   5.626   0.672   5.320
 5199TIP3   OH215557   5.318   0.700   3.894
 5199TIP3    H115558   5.286   0.679   3.804
 5199TIP3    H215559   5.403   0.744   3.872
 5200TIP3   OH215560   4.831   0.568   5.257
 5200TIP3    H115561   4.773   0.593   5.332
 5200TIP3    H215562   4.811   0.641   5.194
 5201TIP3   OH215563   4.705   0.448   4.754
 5201TIP3    H115564   4.615   0.415   4.773
 5201TIP3    H215565   4.723   0.401   4.669
 5202TIP3   OH215566   5.200   0.526   4.486
 5202TIP3    H115567   5.148   0.597   4.442
 5202TIP3    H215568   5.257   0.496   4.413
 5203TIP3   OH215569   5.373   0.798   5.562
 5203TIP3    H115570   5.342   0.738   5.634
 5203TIP3    H215571   5.464   0.819   5.593
 5204TIP3   OH215572   5.349   0.574   4.727
 5204TIP3    H115573   5.284   0.603   4.660
 5204TIP3    H215574   5.399   0.510   4.672
 5205TIP3   OH215575   4.631   0.587   5.439
 5205TIP3    H115576   4.653   0.634   5.520
 5205TIP3    H215577   4.638   0.493   5.467
 5206TIP3   OH215578   4.237   0.133   4.592
 5206TIP3    H115579   4.279   0.151   4.507
 5206TIP3    H215580   4.186   0.215   4.603
 5207TIP3   OH215581   5.366   0.805   5.149
 5207TIP3    H115582   5.398   0.736   5.086
 5207TIP3    H215583   5.335   0.747   5.221
 5208TIP3   OH215584   5.003   0.289   4.792
 5208TIP3    H115585   4.925   0.267   4.844
 5208TIP3    H215586   5.070   0.299   4.863
 5209TIP3   OH215587   4.462   0.322   4.817
 5209TIP3    H115588   4.368   0.343   4.795
 5209TIP3    H215589   4.456   0.226   4.827
 5210TIP3   OH215590   4.743   0.318   4.511
 5210TIP3    H115591   4.835   0.339   4.486
 5210TIP3    H215592   4.692   0.333   4.429
 5211TIP3   OH215593   4.573   0.345   4.288
 5211TIP3    H115594   4.505   0.301   4.235
 5211TIP3    H215595   4.629   0.384   4.218
 5212TIP3   OH215596   5.695   2.021   5.240
 5212TIP3    H115597   5.693   2.041   5.144
 5212TIP3    H215598   5.777   2.067   5.267
 5213TIP3   OH215599   4.651   1.132   5.663
 5213TIP3    H115600   4.731   1.163   5.711
 5213TIP3    H215601   4.586   1.132   5.736
 5214TIP3   OH215602   5.110   0.593   4.915
 5214TIP3    H115603   5.180   0.555   4.858
 5214TIP3    H215604   5.112   0.530   4.989
 5215TIP3   OH215605   5.088   0.486   5.227
 5215TIP3    H115606   4.996   0.520   5.234
 5215TIP3    H215607   5.141   0.561   5.259
 5216TIP3   OH215608   4.826   0.871   4.300
 5216TIP3    H115609   4.753   0.806   4.289
 5216TIP3    H215610   4.807   0.907   4.390
 5217TIP3   OH215611   5.726   1.109   4.929
 5217TIP3    H115612   5.751   1.159   4.848
 5217TIP3    H215613   5.642   1.065   4.901
 5218TIP3   OH215614   5.251   0.212   4.154
 5218TIP3    H115615   5.158   0.217   4.176
 5218TIP3    H215616   5.284   0.301   4.179
 5219TIP3   OH215617   5.228   1.191   5.299
 5219TIP3    H115618   5.248   1.171   5.391
 5219TIP3    H215619   5.188   1.279   5.304
 5220TIP3   OH215620   5.364   0.441   4.262
 5220TIP3    H115621   5.460   0.455   4.273
 5220TIP3    H215622   5.337   0.521   4.213
 5221TIP3   OH215623   4.512   0.887   4.973
 5221TIP3    H115624   4.555   0.864   4.888
 5221TIP3    H215625   4.566   0.836   5.036
 5222TIP3   OH215626   4.959   1.036   4.123
 5222TIP3    H115627   4.906   1.119   4.132
 5222TIP3    H215628   4.912   0.978   4.187
 5223TIP3   OH215629   4.405   0.814   5.591
 5223TIP3    H115630   4.421   0.798   5.686
 5223TIP3    H215631   4.334   0.751   5.571
 5224TIP3   OH215632   5.130   0.931   5.608
 5224TIP3    H115633   5.065   0.875   5.562
 5224TIP3    H215634   5.214   0.894   5.573
 5225TIP3   OH215635   5.386   1.450   5.203
 5225TIP3    H115636   5.289   1.441   5.207
 5225TIP3    H215637   5.402   1.513   5.275
 5226TIP3   OH215638   5.796   0.515   4.107
 5226TIP3    H115639   5.725   0.500   4.041
 5226TIP3    H215640   5.822   0.605   4.079
 5227TIP3   OH215641   6.016   1.385   5.181
 5227TIP3    H115642   5.918   1.376   5.169
 5227TIP3    H215643   6.045   1.353   5.092
 5228TIP3   OH215644   5.499   1.342   4.012
 5228TIP3    H115645   5.475   1.272   4.074
 5228TIP3    H215646   5.512   1.293   3.928
 5229TIP3   OH215647   5.492   0.973   4.850
 5229TIP3    H115648   5.399   0.947   4.859
 5229TIP3    H215649   5.529   0.894   4.804
 5230TIP3   OH215650   4.628   1.205   4.603
 5230TIP3    H115651   4.646   1.279   4.541
 5230TIP3    H215652   4.531   1.206   4.602
 5231TIP3   OH215653   4.196   0.497   4.306
 5231TIP3    H115654   4.238   0.584   4.323
 5231TIP3    H215655   4.117   0.503   4.363
 5232TIP3   OH215656   4.750   0.960   4.543
 5232TIP3    H115657   4.718   1.051   4.561
 5232TIP3    H215658   4.717   0.913   4.621
 5233TIP3   OH215659   4.892   1.542   5.070
 5233TIP3    H115660   4.930   1.616   5.018
 5233TIP3    H215661   4.971   1.505   5.111
 5234TIP3   OH215662   5.277   1.177   5.030
 5234TIP3    H115663   5.270   1.171   5.128
 5234TIP3    H215664   5.352   1.118   5.013
 5235TIP3   OH215665   5.260   1.068   3.915
 5235TIP3    H115666   5.312   1.043   3.995
 5235TIP3    H215667   5.170   1.045   3.944
 5236TIP3   OH215668   5.522   1.711   5.081
 5236TIP3    H115669   5.441   1.659   5.066
 5236TIP3    H215670   5.514   1.776   5.007
 5237TIP3   OH215671   5.592   1.542   3.731
 5237TIP3    H115672   5.628   1.617   3.682
 5237TIP3    H215673   5.512   1.585   3.768
 5238TIP3   OH215674   5.418   1.004   4.133
 5238TIP3    H115675   5.410   0.936   4.203
 5238TIP3    H215676   5.514   0.999   4.115
 5239TIP3   OH215677   4.327   1.401   5.229
 5239TIP3    H115678   4.386   1.333   5.266
 5239TIP3    H215679   4.356   1.479   5.278
 5240TIP3   OH215680   4.616   1.045   3.915
 5240TIP3    H115681   4.631   0.951   3.891
 5240TIP3    H215682   4.596   1.039   4.010
 5241TIP3   OH215683   4.573   1.065   4.190
 5241TIP3    H115684   4.642   1.024   4.243
 5241TIP3    H215685   4.606   1.157   4.187
 5242TIP3   OH215686   4.296   0.741   4.389
 5242TIP3    H115687   4.247   0.796   4.451
 5242TIP3    H215688   4.309   0.805   4.316
 5243TIP3   OH215689   4.794   1.265   4.149
 5243TIP3    H115690   4.748   1.328   4.211
 5243TIP3    H215691   4.817   1.331   4.081
 5244TIP3   OH215692   5.020   0.323   4.526
 5244TIP3    H115693   5.084   0.397   4.518
 5244TIP3    H215694   5.010   0.317   4.624
 5245TIP3   OH215695   5.288   0.638   5.352
 5245TIP3    H115696   5.319   0.693   5.427
 5245TIP3    H215697   5.311   0.547   5.382
 5246TIP3   OH215698   5.883   0.506   5.248
 5246TIP3    H115699   5.789   0.530   5.258
 5246TIP3    H215700   5.909   0.557   5.170
 5247TIP3   OH215701   5.584   0.736   4.731
 5247TIP3    H115702   5.505   0.679   4.742
 5247TIP3    H215703   5.653   0.685   4.777
 5248TIP3   OH215704   4.295   0.951   4.213
 5248TIP3    H115705   4.361   1.023   4.214
 5248TIP3    H215706   4.328   0.899   4.137
 5249TIP3   OH215707   4.219   0.223   4.323
 5249TIP3    H115708   4.245   0.317   4.320
 5249TIP3    H215709   4.143   0.224   4.265
 5250TIP3   OH215710   5.549   1.686   4.675
 5250TIP3    H115711   5.506   1.733   4.600
 5250TIP3    H215712   5.643   1.703   4.652
 5251TIP3   OH215713   4.157   1.154   4.591
 5251TIP3    H115714   4.098   1.207   4.646
 5251TIP3    H215715   4.154   1.205   4.507
 5252TIP3   OH215716   4.322   1.717   5.654
 5252TIP3    H115717   4.408   1.717   5.700
 5252TIP3    H215718   4.302   1.622   5.651
 5253TIP3   OH215719   4.798   1.670   5.701
 5253TIP3    H115720   4.894   1.656   5.700
 5253TIP3    H215721   4.770   1.611   5.628
 5254TIP3   OH215722   4.776   1.243   3.812
 5254TIP3    H115723   4.721   1.175   3.856
 5254TIP3    H215724   4.855   1.191   3.788
 5255TIP3   OH215725   5.441   1.589   5.441
 5255TIP3    H115726   5.427   1.515   5.506
 5255TIP3    H215727   5.535   1.579   5.420
 5256TIP3   OH215728   5.220   1.285   3.737
 5256TIP3    H115729   5.262   1.222   3.798
 5256TIP3    H215730   5.278   1.282   3.658
 5257TIP3   OH215731   4.450   1.117   5.854
 5257TIP3    H115732   4.463   1.021   5.860
 5257TIP3    H215733   4.363   1.122   5.807
 5258TIP3   OH215734   4.424   0.767   4.051
 5258TIP3    H115735   4.485   0.740   4.123
 5258TIP3    H215736   4.489   0.772   3.977
 5259TIP3   OH215737   5.057   1.207   5.626
 5259TIP3    H115738   5.013   1.227   5.541
 5259TIP3    H215739   5.085   1.114   5.615
 5260TIP3   OH215740   4.943   0.969   3.855
 5260TIP3    H115741   4.942   0.984   3.952
 5260TIP3    H215742   4.942   0.871   3.851
 5261TIP3   OH215743   5.552   1.219   5.240
 5261TIP3    H115744   5.626   1.257   5.189
 5261TIP3    H215745   5.481   1.282   5.218
 5262TIP3   OH215746   4.583   0.849   5.836
 5262TIP3    H115747   4.667   0.809   5.808
 5262TIP3    H215748   4.608   0.886   5.924
 5263TIP3   OH215749   4.630   0.675   4.265
 5263TIP3    H115750   4.612   0.632   4.350
 5263TIP3    H215751   4.671   0.602   4.214
 5264TIP3   OH215752   4.907   0.754   5.506
 5264TIP3    H115753   4.823   0.805   5.500
 5264TIP3    H215754   4.953   0.783   5.424
 5265TIP3   OH215755   4.737   0.471   4.109
 5265TIP3    H115756   4.716   0.476   4.013
 5265TIP3    H215757   4.835   0.469   4.105
 5266TIP3   OH215758   5.428   1.139   5.630
 5266TIP3    H115759   5.495   1.099   5.573
 5266TIP3    H215760   5.417   1.072   5.700
 5267TIP3   OH215761   5.547   0.797   3.772
 5267TIP3    H115762   5.528   0.757   3.685
 5267TIP3    H215763   5.516   0.889   3.753
 5268TIP3   OH215764   5.029   0.532   5.593
 5268TIP3    H115765   5.052   0.500   5.504
 5268TIP3    H215766   4.977   0.613   5.568
 5269TIP3   OH215767   5.055   0.851   5.305
 5269TIP3    H115768   5.140   0.861   5.260
 5269TIP3    H215769   4.998   0.915   5.257
 5270TIP3   OH215770   5.625   0.825   5.673
 5270TIP3    H115771   5.655   0.732   5.675
 5270TIP3    H215772   5.701   0.869   5.633
 5271TIP3   OH215773   5.678   1.075   5.428
 5271TIP3    H115774   5.622   1.128   5.366
 5271TIP3    H215775   5.766   1.090   5.388
 5272TIP3   OH215776   4.865   0.649   5.850
 5272TIP3    H115777   4.893   0.559   5.876
 5272TIP3    H215778   4.912   0.659   5.766
 5273TIP3   OH215779   5.260   0.619   5.733
 5273TIP3    H115780   5.292   0.539   5.778
 5273TIP3    H215781   5.177   0.586   5.693
 5274TIP3   OH215782   3.937   1.520   4.651
 5274TIP3    H115783   3.874   1.459   4.609
 5274TIP3    H215784   3.986   1.461   4.711
 5275TIP3   OH215785   4.075   1.359   4.831
 5275TIP3    H115786   4.066   1.298   4.906
 5275TIP3    H215787   4.129   1.429   4.873
 5276TIP3   OH215788   5.805   1.771   4.634
 5276TIP3    H115789   5.833   1.811   4.718
 5276TIP3    H215790   5.865   1.812   4.571
 5277TIP3   OH215791   5.828   1.796   4.918
 5277TIP3    H115792   5.784   1.708   4.909
 5277TIP3    H215793   5.908   1.769   4.965
 5278TIP3   OH215794   5.883   1.475   5.499
 5278TIP3    H115795   5.796   1.496   5.533
 5278TIP3    H215796   5.924   1.564   5.491
 5279TIP3   OH215797   5.691   0.983   4.095
 5279TIP3    H115798   5.762   1.043   4.065
 5279TIP3    H215799   5.727   0.957   4.184
 5280TIP3   OH215800   5.795   0.893   4.327
 5280TIP3    H115801   5.753   0.818   4.373
 5280TIP3    H215802   5.881   0.899   4.372
 5281TIP3   OH215803   5.880   1.244   4.744
 5281TIP3    H115804   5.927   1.173   4.696
 5281TIP3    H215805   5.876   1.316   4.677
 5282TIP3   OH215806   5.705   1.544   4.938
 5282TIP3    H115807   5.629   1.586   4.982
 5282TIP3    H215808   5.661   1.498   4.863
 5283TIP3   OH215809   5.753   0.751   3.950
 5283TIP3    H115810   5.679   0.762   3.888
 5283TIP3    H215811   5.736   0.825   4.011
 5284TIP3   OH215812   5.603   0.461   3.919
 5284TIP3    H115813   5.576   0.502   3.835
 5284TIP3    H215814   5.600   0.366   3.900
 5285TIP3   OH215815   5.620   0.710   4.457
 5285TIP3    H115816   5.659   0.622   4.449
 5285TIP3    H215817   5.617   0.724   4.554
 5286TIP3   OH215818   4.256   0.780   5.202
 5286TIP3    H115819   4.256   0.749   5.110
 5286TIP3    H215820   4.353   0.787   5.219
 5287TIP3   OH215821   5.923   1.138   5.314
 5287TIP3    H115822   5.995   1.073   5.302
 5287TIP3    H215823   5.942   1.202   5.244
 5288TIP3   OH215824   6.110   0.943   5.331
 5288TIP3    H115825   6.031   0.897   5.364
 5288TIP3    H215826   6.180   0.879   5.354
 5289TIP3   OH215827   5.632   0.436   4.337
 5289TIP3    H115828   5.680   0.354   4.361
 5289TIP3    H215829   5.695   0.477   4.275
 5290TIP3   OH215830   5.794   0.608   4.856
 5290TIP3    H115831   5.876   0.634   4.807
 5290TIP3    H215832   5.811   0.655   4.940
 5291TIP3   OH215833   5.861   0.751   5.082
 5291TIP3    H115834   5.780   0.789   5.123
 5291TIP3    H215835   5.897   0.830   5.034
 5292TIP3   OH215836   4.482   0.477   5.892
 5292TIP3    H115837   4.572   0.486   5.859
 5292TIP3    H215838   4.480   0.381   5.913
 5293TIP3   OH215839   4.236   0.442   5.273
 5293TIP3    H115840   4.288   0.418   5.194
 5293TIP3    H215841   4.285   0.519   5.305
 5294TIP3   OH215842   5.395   1.632   4.290
 5294TIP3    H115843   5.443   1.627   4.205
 5294TIP3    H215844   5.434   1.711   4.330
 5295TIP3   OH215845   4.487   1.446   5.672
 5295TIP3    H115846   4.394   1.422   5.654
 5295TIP3    H215847   4.494   1.429   5.767
 5296TIP3   OH215848   4.667   1.482   5.221
 5296TIP3    H115849   4.619   1.558   5.181
 5296TIP3    H215850   4.752   1.495   5.174
 5297TIP3   OH215851   5.105   1.717   5.358
 5297TIP3    H115852   5.147   1.723   5.446
 5297TIP3    H215853   5.168   1.770   5.304
 5298TIP3   OH215854   5.283   1.872   5.222
 5298TIP3    H115855   5.347   1.828   5.164
 5298TIP3    H215856   5.342   1.929   5.276
 5299TIP3   OH215857   4.338   1.730   5.248
 5299TIP3    H115858   4.248   1.763   5.223
 5299TIP3    H215859   4.353   1.783   5.328
 5300TIP3   OH215860   4.577   1.713   5.105
 5300TIP3    H115861   4.488   1.726   5.145
 5300TIP3    H215862   4.562   1.744   5.013
 5301TIP3   OH215863   5.004   1.737   4.908
 5301TIP3    H115864   4.933   1.749   4.840
 5301TIP3    H215865   5.015   1.829   4.939
 5302TIP3   OH215866   5.273   1.680   4.960
 5302TIP3    H115867   5.178   1.696   4.938
 5302TIP3    H215868   5.316   1.746   4.902
 5303TIP3   OH215869   5.480   1.871   4.866
 5303TIP3    H115870   5.463   1.955   4.818
 5303TIP3    H215871   5.506   1.812   4.792
 5304TIP3   OH215872   4.248   1.524   4.985
 5304TIP3    H115873   4.277   1.499   5.075
 5304TIP3    H215874   4.321   1.483   4.933
 5305TIP3   OH215875   4.445   1.398   4.848
 5305TIP3    H115876   4.463   1.315   4.897
 5305TIP3    H215877   4.535   1.436   4.841
 5306TIP3   OH215878   4.705   1.482   4.859
 5306TIP3    H115879   4.744   1.393   4.849
 5306TIP3    H215880   4.758   1.516   4.933
 5307TIP3   OH215881   4.029   1.297   4.394
 5307TIP3    H115882   3.947   1.280   4.343
 5307TIP3    H215883   4.045   1.389   4.368
 5308TIP3   OH215884   4.840   1.469   3.968
 5308TIP3    H115885   4.917   1.501   3.918
 5308TIP3    H215886   4.795   1.413   3.903
 5309TIP3   OH215887   5.534   1.609   4.054
 5309TIP3    H115888   5.524   1.511   4.044
 5309TIP3    H215889   5.484   1.639   3.975
 5310TIP3   OH215890   4.113   1.315   4.018
 5310TIP3    H115891   4.129   1.358   4.104
 5310TIP3    H215892   4.202   1.275   3.999
 5311TIP3   OH215893   5.751   1.745   5.240
 5311TIP3    H115894   5.674   1.722   5.184
 5311TIP3    H215895   5.736   1.841   5.251
 5312TIP3   OH215896   7.020   1.128   4.002
 5312TIP3    H115897   6.992   1.220   3.985
 5312TIP3    H215898   6.939   1.079   3.980
 5313TIP3   OH215899   7.017   1.125   4.391
 5313TIP3    H115900   7.057   1.113   4.479
 5313TIP3    H215901   6.979   1.036   4.375
 5314TIP3   OH215902   6.318   1.034   4.751
 5314TIP3    H115903   6.346   0.962   4.812
 5314TIP3    H215904   6.404   1.070   4.725
 5315TIP3   OH215905   7.271   1.423   4.069
 5315TIP3    H115906   7.253   1.360   4.140
 5315TIP3    H215907   7.302   1.501   4.120
 5316TIP3   OH215908   6.296   1.433   4.480
 5316TIP3    H115909   6.289   1.335   4.479
 5316TIP3    H215910   6.393   1.442   4.471
 5317TIP3   OH215911   5.910   0.607   4.349
 5317TIP3    H115912   5.969   0.677   4.314
 5317TIP3    H215913   5.898   0.557   4.267
 5318TIP3   OH215914   6.055   0.918   4.430
 5318TIP3    H115915   6.109   0.846   4.469
 5318TIP3    H215916   6.088   0.920   4.339
 5319TIP3   OH215917   6.919   1.886   4.089
 5319TIP3    H115918   6.962   1.814   4.038
 5319TIP3    H215919   6.914   1.847   4.177
 5320TIP3   OH215920   6.820   1.350   4.438
 5320TIP3    H115921   6.862   1.272   4.398
 5320TIP3    H215922   6.903   1.398   4.463
 5321TIP3   OH215923   7.234   0.864   4.474
 5321TIP3    H115924   7.266   0.776   4.504
 5321TIP3    H215925   7.199   0.843   4.385
 5322TIP3   OH215926   6.571   0.563   4.455
 5322TIP3    H115927   6.559   0.642   4.397
 5322TIP3    H215928   6.543   0.494   4.391
 5323TIP3   OH215929   7.288   0.648   4.056
 5323TIP3    H115930   7.369   0.608   4.088
 5323TIP3    H215931   7.272   0.596   3.975
 5324TIP3   OH215932   6.209   0.725   4.547
 5324TIP3    H115933   6.285   0.699   4.603
 5324TIP3    H215934   6.221   0.665   4.471
 5325TIP3   OH215935   6.644   0.918   4.341
 5325TIP3    H115936   6.739   0.896   4.351
 5325TIP3    H215937   6.608   0.836   4.300
 5326TIP3   OH215938   6.924   1.356   3.865
 5326TIP3    H115939   6.870   1.331   3.789
 5326TIP3    H215940   6.872   1.432   3.900
 5327TIP3   OH215941   6.676   1.271   4.660
 5327TIP3    H115942   6.616   1.340   4.696
 5327TIP3    H215943   6.718   1.318   4.585
 5328TIP3   OH215944   6.435   0.621   4.677
 5328TIP3    H115945   6.491   0.686   4.724
 5328TIP3    H215946   6.488   0.610   4.595
 5329TIP3   OH215947   6.506   1.467   4.763
 5329TIP3    H115948   6.479   1.553   4.724
 5329TIP3    H215949   6.426   1.449   4.816
 5330TIP3   OH215950   5.895   1.153   3.993
 5330TIP3    H115951   5.856   1.184   3.909
 5330TIP3    H215952   5.930   1.236   4.031
 5331TIP3   OH215953   7.338   1.665   4.238
 5331TIP3    H115954   7.249   1.661   4.278
 5331TIP3    H215955   7.334   1.752   4.193
 5332TIP3   OH215956   7.035   1.710   3.906
 5332TIP3    H115957   7.090   1.631   3.888
 5332TIP3    H215958   7.096   1.780   3.873
 5333TIP3   OH215959   7.175   1.486   3.819
 5333TIP3    H115960   7.097   1.427   3.821
 5333TIP3    H215961   7.219   1.463   3.904
 5334TIP3   OH215962   7.560   1.573   4.590
 5334TIP3    H115963   7.550   1.503   4.522
 5334TIP3    H215964   7.552   1.654   4.537
 5335TIP3   OH215965   6.849   0.973   3.836
 5335TIP3    H115966   6.767   1.026   3.823
 5335TIP3    H215967   6.892   0.981   3.750
 5336TIP3   OH215968   6.809   0.764   3.557
 5336TIP3    H115969   6.871   0.820   3.607
 5336TIP3    H215970   6.872   0.711   3.503
 5337TIP3   OH215971   7.204   1.057   3.818
 5337TIP3    H115972   7.138   1.084   3.887
 5337TIP3    H215973   7.280   1.039   3.875
 5338TIP3   OH215974   7.415   1.086   4.736
 5338TIP3    H115975   7.420   1.178   4.767
 5338TIP3    H215976   7.338   1.090   4.677
 5339TIP3   OH215977   6.432   1.057   4.223
 5339TIP3    H115978   6.394   0.998   4.155
 5339TIP3    H215979   6.507   1.003   4.257
 5340TIP3   OH215980   6.564   1.468   4.376
 5340TIP3    H115981   6.542   1.430   4.289
 5340TIP3    H215982   6.653   1.430   4.393
 5341TIP3   OH215983   6.568   1.028   4.586
 5341TIP3    H115984   6.596   1.003   4.496
 5341TIP3    H215985   6.611   1.115   4.599
 5342TIP3   OH215986   7.093   1.665   4.356
 5342TIP3    H115987   7.084   1.746   4.410
 5342TIP3    H215988   7.079   1.594   4.421
 5343TIP3   OH215989   6.710   1.583   4.909
 5343TIP3    H115990   6.647   1.644   4.952
 5343TIP3    H215991   6.647   1.529   4.856
 5344TIP3   OH215992   7.043   0.923   3.633
 5344TIP3    H115993   7.100   0.985   3.684
 5344TIP3    H215994   7.073   0.944   3.541
 5345TIP3   OH215995   6.468   1.143   5.015
 5345TIP3    H115996   6.467   1.231   5.057
 5345TIP3    H215997   6.373   1.121   5.015
 5346TIP3   OH215998   6.788   1.591   3.913
 5346TIP3    H115999   6.869   1.644   3.921
 5346TIP3    H216000   6.726   1.652   3.873
 5347TIP3   OH216001   6.503   1.749   4.993
 5347TIP3    H116002   6.469   1.754   4.901
 5347TIP3    H216003   6.421   1.728   5.043
 5348TIP3   OH216004   6.314   0.904   4.015
 5348TIP3    H116005   6.246   0.951   3.962
 5348TIP3    H216006   6.257   0.834   4.052
 5349TIP3   OH216007   6.080   1.285   4.939
 5349TIP3    H116008   6.014   1.265   4.869
 5349TIP3    H216009   6.119   1.197   4.958
 5350TIP3   OH216010   5.935   1.474   4.575
 5350TIP3    H116011   6.030   1.466   4.560
 5350TIP3    H216012   5.930   1.555   4.627
 5351TIP3   OH216013   6.905   1.711   4.765
 5351TIP3    H116014   6.902   1.804   4.796
 5351TIP3    H216015   6.833   1.671   4.819
 5352TIP3   OH216016   6.671   1.840   3.714
 5352TIP3    H116017   6.621   1.824   3.632
 5352TIP3    H216018   6.636   1.926   3.744
 5353TIP3   OH216019   6.106   1.688   4.101
 5353TIP3    H116020   6.151   1.680   4.188
 5353TIP3    H216021   6.058   1.604   4.097
 5354TIP3   OH216022   6.865   1.746   3.355
 5354TIP3    H116023   6.924   1.676   3.319
 5354TIP3    H216024   6.900   1.755   3.447
 5355TIP3   OH216025   6.921   1.788   3.624
 5355TIP3    H116026   6.831   1.799   3.663
 5355TIP3    H216027   6.971   1.759   3.702
 5356TIP3   OH216028   6.285   1.467   4.926
 5356TIP3    H116029   6.334   1.447   5.008
 5356TIP3    H216030   6.211   1.403   4.931
 5357TIP3   OH216031   7.452   0.833   4.845
 5357TIP3    H116032   7.465   0.870   4.933
 5357TIP3    H216033   7.443   0.914   4.791
 5358TIP3   OH216034   7.128   0.972   3.380
 5358TIP3    H116035   7.097   0.942   3.292
 5358TIP3    H216036   7.170   1.057   3.357
 5359TIP3   OH216037   6.629   0.819   4.746
 5359TIP3    H116038   6.570   0.846   4.819
 5359TIP3    H216039   6.611   0.892   4.682
 5360TIP3   OH216040   6.499   0.706   4.240
 5360TIP3    H116041   6.407   0.681   4.260
 5360TIP3    H216042   6.512   0.659   4.155
 5361TIP3   OH216043   6.995   0.785   3.973
 5361TIP3    H116044   6.941   0.855   3.929
 5361TIP3    H216045   7.054   0.757   3.901
 5362TIP3   OH216046   7.168   1.057   5.051
 5362TIP3    H116047   7.137   0.996   5.121
 5362TIP3    H216048   7.260   1.072   5.078
 5363TIP3   OH216049   7.147   0.822   4.215
 5363TIP3    H116050   7.078   0.856   4.154
 5363TIP3    H216051   7.199   0.769   4.151
 5364TIP3   OH216052   6.427   0.843   4.925
 5364TIP3    H116053   6.454   0.890   5.005
 5364TIP3    H216054   6.433   0.750   4.954
 5365TIP3   OH216055   6.049   0.388   4.064
 5365TIP3    H116056   6.100   0.435   3.997
 5365TIP3    H216057   5.989   0.461   4.088
 5366TIP3   OH216058   7.141   1.062   4.627
 5366TIP3    H116059   7.182   0.993   4.569
 5366TIP3    H216060   7.121   1.005   4.705
 5367TIP3   OH216061   6.799   0.541   4.278
 5367TIP3    H116062   6.717   0.525   4.327
 5367TIP3    H216063   6.863   0.552   4.352
 5368TIP3   OH216064   6.260   0.578   4.319
 5368TIP3    H116065   6.204   0.620   4.249
 5368TIP3    H216066   6.241   0.484   4.303
 5369TIP3   OH216067   6.541   0.572   4.000
 5369TIP3    H116068   6.626   0.602   3.963
 5369TIP3    H216069   6.479   0.583   3.924
 5370TIP3   OH216070   6.384   0.584   3.777
 5370TIP3    H116071   6.298   0.564   3.739
 5370TIP3    H216072   6.430   0.627   3.702
 5371TIP3   OH216073   7.485   2.278   4.750
 5371TIP3    H116074   7.468   2.299   4.656
 5371TIP3    H216075   7.563   2.333   4.769
 5372TIP3   OH216076   6.446   1.390   5.150
 5372TIP3    H116077   6.527   1.418   5.197
 5372TIP3    H216078   6.382   1.388   5.225
 5373TIP3   OH216079   6.906   0.851   4.404
 5373TIP3    H116080   6.972   0.803   4.353
 5373TIP3    H216081   6.904   0.798   4.486
 5374TIP3   OH216082   6.888   0.745   4.705
 5374TIP3    H116083   6.795   0.775   4.719
 5374TIP3    H216084   6.940   0.816   4.748
 5375TIP3   OH216085   6.625   1.127   3.790
 5375TIP3    H116086   6.554   1.061   3.778
 5375TIP3    H216087   6.602   1.162   3.880
 5376TIP3   OH216088   7.517   1.374   4.407
 5376TIP3    H116089   7.546   1.373   4.315
 5376TIP3    H216090   7.434   1.324   4.401
 5377TIP3   OH216091   7.066   0.457   3.672
 5377TIP3    H116092   6.972   0.468   3.651
 5377TIP3    H216093   7.094   0.550   3.685
 5378TIP3   OH216094   7.019   1.446   4.785
 5378TIP3    H116095   7.050   1.430   4.875
 5378TIP3    H216096   6.986   1.537   4.789
 5379TIP3   OH216097   7.167   0.705   3.736
 5379TIP3    H116098   7.261   0.729   3.731
 5379TIP3    H216099   7.124   0.784   3.696
 5380TIP3   OH216100   6.322   1.161   4.459
 5380TIP3    H116101   6.352   1.126   4.373
 5380TIP3    H216102   6.348   1.090   4.519
 5381TIP3   OH216103   6.769   1.276   3.613
 5381TIP3    H116104   6.720   1.362   3.614
 5381TIP3    H216105   6.713   1.222   3.673
 5382TIP3   OH216106   6.199   1.073   5.079
 5382TIP3    H116107   6.216   1.053   5.173
 5382TIP3    H216108   6.130   1.008   5.056
 5383TIP3   OH216109   6.925   1.187   5.096
 5383TIP3    H116110   6.862   1.132   5.047
 5383TIP3    H216111   7.010   1.151   5.062
 5384TIP3   OH216112   7.181   1.702   4.686
 5384TIP3    H116113   7.085   1.705   4.696
 5384TIP3    H216114   7.210   1.759   4.760
 5385TIP3   OH216115   7.329   1.559   3.507
 5385TIP3    H116116   7.259   1.530   3.567
 5385TIP3    H216117   7.283   1.570   3.422
 5386TIP3   OH216118   7.283   1.233   4.336
 5386TIP3    H116119   7.191   1.205   4.346
 5386TIP3    H216120   7.321   1.154   4.291
 5387TIP3   OH216121   6.419   1.456   4.089
 5387TIP3    H116122   6.413   1.537   4.035
 5387TIP3    H216123   6.326   1.433   4.101
 5388TIP3   OH216124   5.976   0.762   3.786
 5388TIP3    H116125   6.034   0.831   3.824
 5388TIP3    H216126   5.909   0.756   3.858
 5389TIP3   OH216127   6.554   1.220   4.032
 5389TIP3    H116128   6.519   1.309   4.052
 5389TIP3    H216129   6.516   1.167   4.104
 5390TIP3   OH216130   6.688   1.798   4.557
 5390TIP3    H116131   6.730   1.870   4.506
 5390TIP3    H216132   6.766   1.760   4.602
 5391TIP3   OH216133   6.336   1.694   3.940
 5391TIP3    H116134   6.251   1.704   3.988
 5391TIP3    H216135   6.368   1.787   3.943
 5392TIP3   OH216136   7.072   1.431   4.516
 5392TIP3    H116137   7.062   1.429   4.614
 5392TIP3    H216138   7.153   1.380   4.503
 5393TIP3   OH216139   7.044   1.332   3.403
 5393TIP3    H116140   7.098   1.300   3.479
 5393TIP3    H216141   6.955   1.305   3.432
 5394TIP3   OH216142   7.323   1.959   4.562
 5394TIP3    H116143   7.242   1.907   4.553
 5394TIP3    H216144   7.310   2.026   4.492
 5395TIP3   OH216145   7.326   1.751   3.272
 5395TIP3    H116146   7.416   1.782   3.288
 5395TIP3    H216147   7.274   1.834   3.276
 5396TIP3   OH216148   7.209   1.242   3.607
 5396TIP3    H116149   7.202   1.183   3.685
 5396TIP3    H216150   7.299   1.275   3.619
 5397TIP3   OH216151   6.124   1.660   4.716
 5397TIP3    H116152   6.178   1.585   4.747
 5397TIP3    H216153   6.160   1.732   4.769
 5398TIP3   OH216154   6.416   1.304   3.399
 5398TIP3    H116155   6.427   1.210   3.375
 5398TIP3    H216156   6.394   1.296   3.495
 5399TIP3   OH216157   6.358   1.312   3.670
 5399TIP3    H116158   6.427   1.282   3.731
 5399TIP3    H216159   6.363   1.410   3.680
 5400TIP3   OH216160   6.106   1.012   3.870
 5400TIP3    H116161   6.037   1.037   3.934
 5400TIP3    H216162   6.100   1.086   3.807
 5401TIP3   OH216163   6.629   1.507   3.619
 5401TIP3    H116164   6.541   1.529   3.657
 5401TIP3    H216165   6.643   1.585   3.563
 5402TIP3   OH216166   6.832   0.570   4.015
 5402TIP3    H116167   6.888   0.650   4.008
 5402TIP3    H216168   6.811   0.571   4.111
 5403TIP3   OH216169   7.084   0.897   4.838
 5403TIP3    H116170   7.118   0.954   4.911
 5403TIP3    H216171   7.119   0.809   4.862
 5404TIP3   OH216172   6.375   1.583   3.690
 5404TIP3    H116173   6.343   1.653   3.629
 5404TIP3    H216174   6.357   1.625   3.778
 5405TIP3   OH216175   7.373   1.005   4.215
 5405TIP3    H116176   7.308   0.935   4.232
 5405TIP3    H216177   7.457   0.967   4.244
 5406TIP3   OH216178   6.087   1.215   3.675
 5406TIP3    H116179   6.160   1.279   3.685
 5406TIP3    H216180   6.130   1.154   3.611
 5407TIP3   OH216181   6.027   0.489   3.800
 5407TIP3    H116182   6.049   0.583   3.814
 5407TIP3    H216183   5.933   0.497   3.783
 5408TIP3   OH216184   7.338   1.932   4.164
 5408TIP3    H116185   7.302   1.981   4.086
 5408TIP3    H216186   7.433   1.955   4.154
 5409TIP3   OH216187   5.960   1.434   4.064
 5409TIP3    H116188   5.893   1.458   4.130
 5409TIP3    H216189   5.922   1.473   3.982
 5410TIP3   OH216190   6.118   1.972   5.144
 5410TIP3    H116191   6.206   1.972   5.188
 5410TIP3    H216192   6.102   1.877   5.137
 5411TIP3   OH216193   6.591   1.928   5.187
 5411TIP3    H116194   6.687   1.918   5.190
 5411TIP3    H216195   6.568   1.867   5.114
 5412TIP3   OH216196   6.577   1.508   3.308
 5412TIP3    H116197   6.522   1.436   3.347
 5412TIP3    H216198   6.653   1.456   3.277
 5413TIP3   OH216199   7.229   1.843   4.921
 5413TIP3    H116200   7.227   1.772   4.989
 5413TIP3    H216201   7.306   1.896   4.949
 5414TIP3   OH216202   7.007   1.548   3.233
 5414TIP3    H116203   7.043   1.472   3.283
 5414TIP3    H216204   7.056   1.546   3.148
 5415TIP3   OH216205   6.244   1.373   5.341
 5415TIP3    H116206   6.260   1.277   5.345
 5415TIP3    H216207   6.159   1.377   5.292
 5416TIP3   OH216208   6.222   1.026   3.533
 5416TIP3    H116209   6.272   0.995   3.610
 5416TIP3    H216210   6.293   1.030   3.466
 5417TIP3   OH216211   6.850   1.462   5.115
 5417TIP3    H116212   6.811   1.484   5.028
 5417TIP3    H216213   6.881   1.370   5.103
 5418TIP3   OH216214   6.741   1.227   3.343
 5418TIP3    H116215   6.739   1.238   3.440
 5418TIP3    H216216   6.740   1.129   3.335
 5419TIP3   OH216217   7.346   1.473   4.728
 5419TIP3    H116218   7.423   1.511   4.680
 5419TIP3    H216219   7.278   1.540   4.707
 5420TIP3   OH216220   6.379   1.107   5.323
 5420TIP3    H116221   6.461   1.069   5.291
 5420TIP3    H216222   6.406   1.142   5.411
 5421TIP3   OH216223   6.435   0.933   3.758
 5421TIP3    H116224   6.400   0.902   3.844
 5421TIP3    H216225   6.464   0.850   3.716
 5422TIP3   OH216226   6.703   1.008   4.992
 5422TIP3    H116227   6.620   1.061   4.987
 5422TIP3    H216228   6.750   1.039   4.911
 5423TIP3   OH216229   6.530   0.723   3.592
 5423TIP3    H116230   6.508   0.734   3.497
 5423TIP3    H216231   6.628   0.727   3.588
 5424TIP3   OH216232   7.222   1.398   5.120
 5424TIP3    H116233   7.288   1.359   5.061
 5424TIP3    H216234   7.212   1.330   5.189
 5425TIP3   OH216235   6.825   0.786   5.079
 5425TIP3    H116236   6.853   0.759   4.991
 5425TIP3    H216237   6.773   0.867   5.056
 5426TIP3   OH216238   6.851   1.107   4.793
 5426TIP3    H116239   6.936   1.115   4.748
 5426TIP3    H216240   6.796   1.171   4.743
 5427TIP3   OH216241   7.419   1.076   5.164
 5427TIP3    H116242   7.460   0.986   5.164
 5427TIP3    H216243   7.494   1.130   5.135
 5428TIP3   OH216244   7.487   1.337   4.912
 5428TIP3    H116245   7.424   1.389   4.857
 5428TIP3    H216246   7.563   1.337   4.853
 5429TIP3   OH216247   6.661   0.905   5.339
 5429TIP3    H116248   6.692   0.814   5.362
 5429TIP3    H216249   6.706   0.918   5.255
 5430TIP3   OH216250   7.056   0.875   5.220
 5430TIP3    H116251   7.089   0.795   5.265
 5430TIP3    H216252   6.973   0.841   5.180
 5431TIP3   OH216253   6.341   1.786   3.502
 5431TIP3    H116254   6.437   1.777   3.483
 5431TIP3    H216255   6.314   1.838   3.424
 5432TIP3   OH216256   5.819   1.172   3.712
 5432TIP3    H116257   5.914   1.193   3.699
 5432TIP3    H216258   5.814   1.082   3.674
 5433TIP3   OH216259   5.738   1.780   4.131
 5433TIP3    H116260   5.671   1.719   4.092
 5433TIP3    H216261   5.781   1.721   4.196
 5434TIP3   OH216262   5.870   1.627   4.319
 5434TIP3    H116263   5.855   1.556   4.384
 5434TIP3    H216264   5.924   1.689   4.372
 5435TIP3   OH216265   7.583   2.050   4.146
 5435TIP3    H116266   7.666   2.095   4.172
 5435TIP3    H216267   7.588   2.056   4.048
 5436TIP3   OH216268   7.590   2.072   4.458
 5436TIP3    H116269   7.560   2.008   4.391
 5436TIP3    H216270   7.680   2.039   4.472
 5437TIP3   OH216271   7.688   1.712   5.006
 5437TIP3    H116272   7.606   1.739   5.051
 5437TIP3    H216273   7.690   1.767   4.927
 5438TIP3   OH216274   7.520   1.793   4.423
 5438TIP3    H116275   7.450   1.841   4.474
 5438TIP3    H216276   7.468   1.753   4.351
 5439TIP3   OH216277   6.051   1.031   4.691
 5439TIP3    H116278   6.049   1.001   4.597
 5439TIP3    H216279   6.149   1.041   4.703
 5440TIP3   OH216280   6.278   0.735   5.380
 5440TIP3    H116281   6.367   0.743   5.343
 5440TIP3    H216282   6.276   0.639   5.400
 5441TIP3   OH216283   6.033   0.699   4.765
 5441TIP3    H116284   6.075   0.672   4.681
 5441TIP3    H216285   6.079   0.782   4.780
 5442TIP3   OH216286   7.172   1.904   3.779
 5442TIP3    H116287   7.228   1.890   3.700
 5442TIP3    H216288   7.228   1.962   3.834
 5443TIP3   OH216289   6.282   1.707   5.157
 5443TIP3    H116290   6.190   1.678   5.141
 5443TIP3    H216291   6.295   1.684   5.249
 5444TIP3   OH216292   6.462   1.739   4.708
 5444TIP3    H116293   6.416   1.816   4.667
 5444TIP3    H216294   6.549   1.751   4.663
 5445TIP3   OH216295   6.901   1.979   4.845
 5445TIP3    H116296   6.945   1.980   4.933
 5445TIP3    H216297   6.967   2.030   4.792
 5446TIP3   OH216298   7.081   2.131   4.706
 5446TIP3    H116299   7.151   2.084   4.660
 5446TIP3    H216300   7.133   2.188   4.767
 5447TIP3   OH216301   6.135   1.991   4.733
 5447TIP3    H116302   6.045   2.022   4.709
 5447TIP3    H216303   6.149   2.041   4.815
 5448TIP3   OH216304   6.372   1.971   4.591
 5448TIP3    H116305   6.284   1.983   4.632
 5448TIP3    H216306   6.355   2.002   4.499
 5449TIP3   OH216307   6.797   1.996   4.389
 5449TIP3    H116308   6.728   2.015   4.322
 5449TIP3    H216309   6.810   2.084   4.429
 5450TIP3   OH216310   7.068   1.933   4.443
 5450TIP3    H116311   6.975   1.955   4.421
 5450TIP3    H216312   7.117   2.003   4.396
 5451TIP3   OH216313   7.259   2.121   4.347
 5451TIP3    H116314   7.251   2.206   4.297
 5451TIP3    H216315   7.293   2.061   4.277
 5452TIP3   OH216316   6.047   1.784   4.475
 5452TIP3    H116317   6.074   1.757   4.566
 5452TIP3    H216318   6.119   1.741   4.424
 5453TIP3   OH216319   6.243   1.657   4.336
 5453TIP3    H116320   6.258   1.574   4.386
 5453TIP3    H216321   6.334   1.692   4.330
 5454TIP3   OH216322   6.511   1.748   4.340
 5454TIP3    H116323   6.541   1.656   4.328
 5454TIP3    H216324   6.559   1.771   4.421
 5455TIP3   OH216325   5.836   1.559   3.861
 5455TIP3    H116326   5.749   1.526   3.830
 5455TIP3    H216327   5.826   1.653   3.840
 5456TIP3   OH216328   6.607   1.741   3.449
 5456TIP3    H116329   6.695   1.765   3.413
 5456TIP3    H216330   6.585   1.667   3.388
 5457TIP3   OH216331   7.318   1.848   3.551
 5457TIP3    H116332   7.328   1.752   3.535
 5457TIP3    H216333   7.269   1.878   3.472
 5458TIP3   OH216334   5.911   1.581   3.503
 5458TIP3    H116335   5.912   1.599   3.598
 5458TIP3    H216336   5.999   1.538   3.489
 5459TIP3   OH216337   7.529   2.002   4.757
 5459TIP3    H116338   7.474   1.976   4.681
 5459TIP3    H216339   7.527   2.099   4.747
 5460TIP3   OH216340   7.466   2.075   3.592
 5460TIP3    H116341   7.413   1.995   3.578
 5460TIP3    H216342   7.552   2.036   3.613
 5461TIP3   OH216343   1.272   2.169   5.182
 5461TIP3    H116344   1.242   2.260   5.161
 5461TIP3    H216345   1.195   2.118   5.151
 5462TIP3   OH216346   1.275   2.168   5.569
 5462TIP3    H116347   1.308   2.144   5.657
 5462TIP3    H216348   1.232   2.086   5.541
 5463TIP3   OH216349   0.572   2.064   5.929
 5463TIP3    H116350   0.603   1.996   5.991
 5463TIP3    H216351   0.651   2.121   5.923
 5464TIP3   OH216352   1.518   2.470   5.251
 5464TIP3    H116353   1.500   2.404   5.319
 5464TIP3    H216354   1.547   2.546   5.303
 5465TIP3   OH216355   0.545   2.474   5.653
 5465TIP3    H116356   0.538   2.376   5.655
 5465TIP3    H216357   0.641   2.484   5.645
 5466TIP3   OH216358   0.298   1.720   5.428
 5466TIP3    H116359   0.247   1.794   5.463
 5466TIP3    H216360   0.229   1.652   5.424
 5467TIP3   OH216361   0.314   1.961   5.609
 5467TIP3    H116362   0.366   1.885   5.641
 5467TIP3    H216363   0.372   2.000   5.542
 5468TIP3   OH216364   1.168   2.935   5.265
 5468TIP3    H116365   1.209   2.863   5.214
 5468TIP3    H216366   1.153   2.893   5.350
 5469TIP3   OH216367   1.069   2.395   5.616
 5469TIP3    H116368   1.110   2.319   5.570
 5469TIP3    H216369   1.151   2.442   5.641
 5470TIP3   OH216370   2.087   1.713   5.613
 5470TIP3    H116371   2.116   1.798   5.653
 5470TIP3    H216372   2.107   1.730   5.519
 5471TIP3   OH216373   1.483   1.894   5.645
 5471TIP3    H116374   1.525   1.808   5.665
 5471TIP3    H216375   1.450   1.877   5.554
 5472TIP3   OH216376   0.817   1.567   5.613
 5472TIP3    H116377   0.815   1.642   5.550
 5472TIP3    H216378   0.760   1.504   5.565
 5473TIP3   OH216379   1.518   1.647   5.231
 5473TIP3    H116380   1.589   1.631   5.297
 5473TIP3    H216381   1.572   1.682   5.157
 5474TIP3   OH216382   0.455   1.746   5.714
 5474TIP3    H116383   0.539   1.722   5.757
 5474TIP3    H216384   0.459   1.689   5.635
 5475TIP3   OH216385   0.903   1.965   5.517
 5475TIP3    H116386   0.998   1.942   5.531
 5475TIP3    H216387   0.871   1.882   5.475
 5476TIP3   OH216388   2.160   1.924   5.782
 5476TIP3    H116389   2.076   1.969   5.759
 5476TIP3    H216390   2.170   1.954   5.874
 5477TIP3   OH216391   0.820   1.529   6.048
 5477TIP3    H116392   0.761   1.577   5.987
 5477TIP3    H216393   0.768   1.526   6.129
 5478TIP3   OH216394   1.160   2.389   5.051
 5478TIP3    H116395   1.119   2.378   4.964
 5478TIP3    H216396   1.116   2.471   5.082
 5479TIP3   OH216397   0.923   2.316   5.838
 5479TIP3    H116398   0.863   2.385   5.874
 5479TIP3    H216399   0.965   2.363   5.763
 5480TIP3   OH216400   1.723   1.650   5.409
 5480TIP3    H116401   1.703   1.610   5.495
 5480TIP3    H216402   1.773   1.730   5.436
 5481TIP3   OH216403   0.685   1.648   5.839
 5481TIP3    H116404   0.744   1.724   5.860
 5481TIP3    H216405   0.732   1.613   5.760
 5482TIP3   OH216406   0.751   2.511   5.940
 5482TIP3    H116407   0.729   2.598   5.902
 5482TIP3    H216408   0.671   2.497   5.995
 5483TIP3   OH216409   0.158   2.197   5.171
 5483TIP3    H116410   0.111   2.222   5.090
 5483TIP3    H216411   0.180   2.285   5.210
 5484TIP3   OH216412   1.586   2.717   5.414
 5484TIP3    H116413   1.497   2.707   5.454
 5484TIP3    H216414   1.576   2.803   5.367
 5485TIP3   OH216415   1.878   1.614   5.778
 5485TIP3    H116416   1.790   1.640   5.745
 5485TIP3    H216417   1.938   1.647   5.708
 5486TIP3   OH216418   1.170   1.279   5.747
 5486TIP3    H116419   1.168   1.184   5.776
 5486TIP3    H216420   1.092   1.312   5.796
 5487TIP3   OH216421   1.285   2.760   5.084
 5487TIP3    H116422   1.335   2.677   5.066
 5487TIP3    H216423   1.350   2.825   5.049
 5488TIP3   OH216424   1.428   2.543   5.000
 5488TIP3    H116425   1.387   2.464   4.963
 5488TIP3    H216426   1.467   2.508   5.083
 5489TIP3   OH216427   1.811   2.625   5.758
 5489TIP3    H116428   1.798   2.548   5.698
 5489TIP3    H216429   1.792   2.701   5.698
 5490TIP3   OH216430   1.102   2.018   5.017
 5490TIP3    H116431   1.023   2.073   5.000
 5490TIP3    H216432   1.147   2.020   4.931
 5491TIP3   OH216433   1.062   1.804   4.729
 5491TIP3    H116434   1.126   1.858   4.779
 5491TIP3    H216435   1.122   1.744   4.681
 5492TIP3   OH216436   2.006   2.265   5.605
 5492TIP3    H116437   1.922   2.316   5.608
 5492TIP3    H216438   2.037   2.290   5.515
 5493TIP3   OH216439   1.451   2.100   4.987
 5493TIP3    H116440   1.396   2.125   5.065
 5493TIP3    H216441   1.536   2.079   5.031
 5494TIP3   OH216442   1.684   2.140   5.903
 5494TIP3    H116443   1.681   2.224   5.953
 5494TIP3    H216444   1.598   2.144   5.857
 5495TIP3   OH216445   0.682   2.098   5.407
 5495TIP3    H116446   0.645   2.041   5.337
 5495TIP3    H216447   0.761   2.048   5.436
 5496TIP3   OH216448   0.812   2.509   5.553
 5496TIP3    H116449   0.793   2.478   5.463
 5496TIP3    H216450   0.901   2.473   5.569
 5497TIP3   OH216451   0.822   2.069   5.762
 5497TIP3    H116452   0.854   2.047   5.672
 5497TIP3    H216453   0.864   2.157   5.777
 5498TIP3   OH216454   1.346   2.709   5.537
 5498TIP3    H116455   1.332   2.790   5.588
 5498TIP3    H216456   1.327   2.637   5.601
 5499TIP3   OH216457   0.958   2.627   6.083
 5499TIP3    H116458   0.897   2.689   6.128
 5499TIP3    H216459   0.894   2.574   6.031
 5500TIP3   OH216460   1.290   1.962   4.810
 5500TIP3    H116461   1.348   2.023   4.861
 5500TIP3    H216462   1.315   1.985   4.718
 5501TIP3   OH216463   0.710   2.177   6.187
 5501TIP3    H116464   0.717   2.265   6.228
 5501TIP3    H216465   0.614   2.162   6.192
 5502TIP3   OH216466   1.037   2.637   5.091
 5502TIP3    H116467   1.118   2.691   5.097
 5502TIP3    H216468   0.976   2.696   5.045
 5503TIP3   OH216469   0.752   2.794   6.171
 5503TIP3    H116470   0.717   2.801   6.080
 5503TIP3    H216471   0.671   2.778   6.223
 5504TIP3   OH216472   1.805   1.199   4.864
 5504TIP3    H116473   1.723   1.223   4.912
 5504TIP3    H216474   1.822   1.282   4.813
 5505TIP3   OH216475   0.554   1.941   5.206
 5505TIP3    H116476   0.483   1.984   5.153
 5505TIP3    H216477   0.514   1.856   5.228
 5506TIP3   OH216478   1.602   2.559   4.415
 5506TIP3    H116479   1.609   2.654   4.393
 5506TIP3    H216480   1.694   2.530   4.401
 5507TIP3   OH216481   0.351   2.318   6.109
 5507TIP3    H116482   0.283   2.285   6.048
 5507TIP3    H216483   0.375   2.237   6.159
 5508TIP3   OH216484   0.182   2.537   5.738
 5508TIP3    H116485   0.270   2.499   5.724
 5508TIP3    H216486   0.200   2.596   5.812
 5509TIP3   OH216487   2.048   2.974   5.807
 5509TIP3    H116488   2.046   2.878   5.821
 5509TIP3    H216489   1.965   3.000   5.853
 5510TIP3   OH216490   1.155   2.754   5.942
 5510TIP3    H116491   1.152   2.847   5.973
 5510TIP3    H216492   1.082   2.714   5.994
 5511TIP3   OH216493   0.920   2.884   4.893
 5511TIP3    H116494   0.873   2.867   4.810
 5511TIP3    H216495   0.884   2.971   4.921
 5512TIP3   OH216496   0.354   2.733   5.280
 5512TIP3    H116497   0.405   2.726   5.364
 5512TIP3    H216498   0.293   2.658   5.290
 5513TIP3   OH216499   1.115   2.793   4.532
 5513TIP3    H116500   1.171   2.720   4.497
 5513TIP3    H216501   1.150   2.802   4.623
 5514TIP3   OH216502   1.170   2.837   4.801
 5514TIP3    H116503   1.080   2.847   4.840
 5514TIP3    H216504   1.218   2.797   4.875
 5515TIP3   OH216505   1.937   2.099   6.082
 5515TIP3    H116506   1.853   2.113   6.035
 5515TIP3    H216507   1.951   2.004   6.069
 5516TIP3   OH216508   0.533   2.519   6.111
 5516TIP3    H116509   0.588   2.488   6.186
 5516TIP3    H216510   0.462   2.450   6.109
 5517TIP3   OH216511   0.912   1.350   5.855
 5517TIP3    H116512   0.831   1.335   5.805
 5517TIP3    H216513   0.886   1.423   5.914
 5518TIP3   OH216514   1.471   1.450   6.085
 5518TIP3    H116515   1.539   1.420   6.149
 5518TIP3    H216516   1.388   1.431   6.133
 5519TIP3   OH216517   1.707   1.879   6.006
 5519TIP3    H116518   1.654   1.875   6.088
 5519TIP3    H216519   1.682   1.965   5.968
 5520TIP3   OH216520   1.357   2.007   4.548
 5520TIP3    H116521   1.374   1.964   4.464
 5520TIP3    H216522   1.430   2.071   4.548
 5521TIP3   OH216523   1.080   1.383   4.863
 5521TIP3    H116524   1.046   1.375   4.954
 5521TIP3    H216525   1.039   1.304   4.823
 5522TIP3   OH216526   0.861   1.845   5.910
 5522TIP3    H116527   0.817   1.871   5.993
 5522TIP3    H216528   0.849   1.927   5.856
 5523TIP3   OH216529   0.790   1.745   5.409
 5523TIP3    H116530   0.695   1.725   5.428
 5523TIP3    H216531   0.796   1.700   5.322
 5524TIP3   OH216532   1.240   1.820   5.152
 5524TIP3    H116533   1.190   1.891   5.107
 5524TIP3    H216534   1.296   1.786   5.078
 5525TIP3   OH216535   1.414   2.095   6.234
 5525TIP3    H116536   1.391   2.024   6.298
 5525TIP3    H216537   1.507   2.110   6.258
 5526TIP3   OH216538   1.396   1.846   5.388
 5526TIP3    H116539   1.334   1.876   5.318
 5526TIP3    H216540   1.431   1.767   5.342
 5527TIP3   OH216541   0.680   1.884   6.122
 5527TIP3    H116542   0.723   1.954   6.174
 5527TIP3    H216543   0.628   1.838   6.189
 5528TIP3   OH216544   0.736   1.359   4.830
 5528TIP3    H116545   0.726   1.354   4.927
 5528TIP3    H216546   0.658   1.411   4.805
 5529TIP3   OH216547   1.407   2.092   5.810
 5529TIP3    H116548   1.440   2.021   5.750
 5529TIP3    H216549   1.376   2.038   5.885
 5530TIP3   OH216550   1.081   1.554   5.482
 5530TIP3    H116551   1.003   1.558   5.540
 5530TIP3    H216552   1.154   1.547   5.547
 5531TIP3   OH216553   0.552   1.639   5.468
 5531TIP3    H116554   0.459   1.661   5.444
 5531TIP3    H216555   0.551   1.542   5.461
 5532TIP3   OH216556   0.783   1.605   5.175
 5532TIP3    H116557   0.875   1.624   5.149
 5532TIP3    H216558   0.730   1.629   5.095
 5533TIP3   OH216559   1.570   1.632   5.684
 5533TIP3    H116560   1.539   1.645   5.777
 5533TIP3    H216561   1.501   1.573   5.651
 5534TIP3   OH216562   0.627   1.643   4.957
 5534TIP3    H116563   0.556   1.598   4.909
 5534TIP3    H216564   0.677   1.682   4.882
 5535TIP3   OH216565   1.742   3.321   5.908
 5535TIP3    H116566   1.741   3.343   5.813
 5535TIP3    H216567   1.822   3.370   5.938
 5536TIP3   OH216568   0.697   2.429   6.324
 5536TIP3    H116569   0.777   2.458   6.371
 5536TIP3    H216570   0.633   2.425   6.397
 5537TIP3   OH216571   1.162   1.888   5.582
 5537TIP3    H116572   1.234   1.848   5.532
 5537TIP3    H216573   1.166   1.841   5.667
 5538TIP3   OH216574   0.696   1.382   5.450
 5538TIP3    H116575   0.727   1.317   5.514
 5538TIP3    H216576   0.757   1.372   5.375
 5539TIP3   OH216577   1.136   1.786   5.870
 5539TIP3    H116578   1.046   1.822   5.884
 5539TIP3    H216579   1.192   1.848   5.920
 5540TIP3   OH216580   0.873   2.170   4.966
 5540TIP3    H116581   0.799   2.107   4.953
 5540TIP3    H216582   0.852   2.205   5.056
 5541TIP3   OH216583   1.772   2.408   5.592
 5541TIP3    H116584   1.795   2.460   5.512
 5541TIP3    H216585   1.687   2.366   5.565
 5542TIP3   OH216586   1.331   1.482   4.833
 5542TIP3    H116587   1.234   1.464   4.840
 5542TIP3    H216588   1.338   1.577   4.855
 5543TIP3   OH216589   1.271   2.491   5.963
 5543TIP3    H116590   1.301   2.475   6.053
 5543TIP3    H216591   1.233   2.581   5.968
 5544TIP3   OH216592   1.398   1.734   4.934
 5544TIP3    H116593   1.495   1.740   4.949
 5544TIP3    H216594   1.380   1.815   4.882
 5545TIP3   OH216595   0.567   2.197   5.641
 5545TIP3    H116596   0.605   2.167   5.555
 5545TIP3    H216597   0.607   2.135   5.703
 5546TIP3   OH216598   1.018   2.321   4.791
 5546TIP3    H116599   0.969   2.407   4.791
 5546TIP3    H216600   0.963   2.268   4.851
 5547TIP3   OH216601   0.443   2.107   6.266
 5547TIP3    H116602   0.483   2.113   6.355
 5547TIP3    H216603   0.377   2.038   6.277
 5548TIP3   OH216604   1.175   2.233   6.271
 5548TIP3    H116605   1.114   2.170   6.229
 5548TIP3    H216606   1.262   2.196   6.244
 5549TIP3   OH216607   1.431   2.749   5.861
 5549TIP3    H116608   1.335   2.749   5.874
 5549TIP3    H216609   1.460   2.803   5.937
 5550TIP3   OH216610   1.838   1.827   4.768
 5550TIP3    H116611   1.774   1.784   4.705
 5550TIP3    H216612   1.836   1.916   4.727
 5551TIP3   OH216613   2.061   2.683   5.847
 5551TIP3    H116614   1.963   2.677   5.838
 5551TIP3    H216615   2.087   2.652   5.757
 5552TIP3   OH216616   1.544   2.641   4.677
 5552TIP3    H116617   1.516   2.570   4.735
 5552TIP3    H216618   1.559   2.596   4.591
 5553TIP3   OH216619   1.538   2.272   5.509
 5553TIP3    H116620   1.444   2.248   5.523
 5553TIP3    H216621   1.571   2.191   5.464
 5554TIP3   OH216622   0.670   2.501   5.266
 5554TIP3    H116623   0.667   2.581   5.210
 5554TIP3    H216624   0.576   2.485   5.280
 5555TIP3   OH216625   0.222   1.806   4.964
 5555TIP3    H116626   0.284   1.878   4.989
 5555TIP3    H216627   0.139   1.844   4.997
 5556TIP3   OH216628   0.798   2.262   5.208
 5556TIP3    H116629   0.766   2.353   5.226
 5556TIP3    H216630   0.763   2.214   5.285
 5557TIP3   OH216631   0.937   2.842   5.734
 5557TIP3    H116632   0.977   2.916   5.683
 5557TIP3    H216633   1.014   2.807   5.780
 5558TIP3   OH216634   0.587   2.737   5.118
 5558TIP3    H116635   0.501   2.748   5.163
 5558TIP3    H216636   0.620   2.830   5.120
 5559TIP3   OH216637   1.320   2.475   5.695
 5559TIP3    H116638   1.310   2.474   5.793
 5559TIP3    H216639   1.401   2.424   5.684
 5560TIP3   OH216640   1.303   2.357   4.579
 5560TIP3    H116641   1.352   2.336   4.662
 5560TIP3    H216642   1.211   2.344   4.607
 5561TIP3   OH216643   1.571   3.009   5.740
 5561TIP3    H116644   1.489   2.955   5.733
 5561TIP3    H216645   1.555   3.076   5.670
 5562TIP3   OH216646   1.636   2.838   4.396
 5562TIP3    H116647   1.669   2.908   4.337
 5562TIP3    H216648   1.556   2.884   4.430
 5563TIP3   OH216649   1.462   2.298   4.794
 5563TIP3    H116650   1.454   2.235   4.868
 5563TIP3    H216651   1.559   2.298   4.781
 5564TIP3   OH216652   0.371   2.699   5.894
 5564TIP3    H116653   0.433   2.636   5.935
 5564TIP3    H216654   0.393   2.781   5.941
 5565TIP3   OH216655   0.670   2.349   4.578
 5565TIP3    H116656   0.675   2.256   4.549
 5565TIP3    H216657   0.645   2.339   4.672
 5566TIP3   OH216658   0.608   2.355   4.850
 5566TIP3    H116659   0.684   2.333   4.906
 5566TIP3    H216660   0.609   2.453   4.854
 5567TIP3   OH216661   0.344   2.041   5.050
 5567TIP3    H116662   0.280   2.089   5.108
 5567TIP3    H216663   0.360   2.110   4.983
 5568TIP3   OH216664   1.499   1.684   5.944
 5568TIP3    H116665   1.577   1.722   5.986
 5568TIP3    H216666   1.483   1.604   5.999
 5569TIP3   OH216667   1.379   1.431   5.113
 5569TIP3    H116668   1.365   1.454   5.019
 5569TIP3    H216669   1.417   1.515   5.149
 5570TIP3   OH216670   0.877   2.551   4.799
 5570TIP3    H116671   0.789   2.576   4.834
 5570TIP3    H216672   0.890   2.622   4.734
 5571TIP3   OH216673   1.063   1.617   5.212
 5571TIP3    H116674   1.125   1.691   5.196
 5571TIP3    H216675   1.068   1.609   5.310
 5572TIP3   OH216676   1.333   1.932   6.018
 5572TIP3    H116677   1.357   1.985   6.096
 5572TIP3    H216678   1.385   1.851   6.031
 5573TIP3   OH216679   1.207   1.337   5.312
 5573TIP3    H116680   1.202   1.414   5.372
 5573TIP3    H216681   1.270   1.372   5.244
 5574TIP3   OH216682   0.621   2.626   4.866
 5574TIP3    H116683   0.591   2.696   4.804
 5574TIP3    H216684   0.605   2.670   4.953
 5575TIP3   OH216685   0.730   1.345   5.113
 5575TIP3    H116686   0.729   1.438   5.145
 5575TIP3    H216687   0.826   1.329   5.115
 5576TIP3   OH216688   1.973   1.833   6.001
 5576TIP3    H116689   1.875   1.833   6.011
 5576TIP3    H216690   1.981   1.788   5.916
 5577TIP3   OH216691   1.624   2.027   5.388
 5577TIP3    H116692   1.547   1.969   5.401
 5577TIP3    H216693   1.695   1.980   5.437
 5578TIP3   OH216694   0.340   2.253   4.856
 5578TIP3    H116695   0.406   2.323   4.865
 5578TIP3    H216696   0.384   2.198   4.788
 5579TIP3   OH216697   0.273   1.534   5.010
 5579TIP3    H116698   0.279   1.631   4.999
 5579TIP3    H216699   0.237   1.505   4.926
 5580TIP3   OH216700   1.593   2.990   5.335
 5580TIP3    H116701   1.546   3.039   5.264
 5580TIP3    H216702   1.686   3.013   5.311
 5581TIP3   OH216703   0.200   2.464   5.241
 5581TIP3    H116704   0.140   2.507   5.304
 5581TIP3    H216705   0.174   2.509   5.157
 5582TIP3   OH216706   0.401   3.032   6.281
 5582TIP3    H116707   0.473   3.038   6.347
 5582TIP3    H216708   0.362   2.948   6.303
 5583TIP3   OH216709   0.843   2.973   6.365
 5583TIP3    H116710   0.939   2.958   6.366
 5583TIP3    H216711   0.817   2.914   6.291
 5584TIP3   OH216712   0.830   2.555   4.488
 5584TIP3    H116713   0.775   2.480   4.522
 5584TIP3    H216714   0.901   2.507   4.443
 5585TIP3   OH216715   1.484   2.885   6.095
 5585TIP3    H116716   1.477   2.815   6.165
 5585TIP3    H216717   1.561   2.937   6.125
 5586TIP3   OH216718   1.260   2.595   4.415
 5586TIP3    H116719   1.323   2.540   4.463
 5586TIP3    H216720   1.303   2.602   4.326
 5587TIP3   OH216721   0.490   2.407   6.513
 5587TIP3    H116722   0.518   2.314   6.522
 5587TIP3    H216723   0.396   2.396   6.496
 5588TIP3   OH216724   0.473   2.065   4.712
 5588TIP3    H116725   0.533   2.041   4.785
 5588TIP3    H216726   0.538   2.072   4.639
 5589TIP3   OH216727   1.100   2.508   6.291
 5589TIP3    H116728   1.060   2.529   6.204
 5589TIP3    H216729   1.131   2.416   6.280
 5590TIP3   OH216730   0.995   2.269   4.520
 5590TIP3    H116731   0.992   2.280   4.617
 5590TIP3    H216732   0.980   2.173   4.511
 5591TIP3   OH216733   1.595   2.518   5.898
 5591TIP3    H116734   1.670   2.560   5.854
 5591TIP3    H216735   1.525   2.585   5.883
 5592TIP3   OH216736   0.602   2.146   6.500
 5592TIP3    H116737   0.679   2.091   6.480
 5592TIP3    H216738   0.622   2.169   6.594
 5593TIP3   OH216739   0.676   1.976   4.929
 5593TIP3    H116740   0.651   1.937   5.015
 5593TIP3    H216741   0.714   1.900   4.881
 5594TIP3   OH216742   0.948   2.035   6.155
 5594TIP3    H116743   0.874   2.099   6.159
 5594TIP3    H216744   1.003   2.072   6.082
 5595TIP3   OH216745   0.782   1.770   4.771
 5595TIP3    H116746   0.757   1.779   4.676
 5595TIP3    H216747   0.880   1.771   4.764
 5596TIP3   OH216748   1.467   2.441   6.294
 5596TIP3    H116749   1.544   2.408   6.246
 5596TIP3    H216750   1.460   2.377   6.367
 5597TIP3   OH216751   1.600   2.086   4.423
 5597TIP3    H116752   1.639   2.053   4.340
 5597TIP3    H216753   1.559   2.171   4.393
 5598TIP3   OH216754   1.075   1.828   6.282
 5598TIP3    H116755   1.076   1.749   6.224
 5598TIP3    H216756   1.029   1.895   6.226
 5599TIP3   OH216757   1.077   1.615   6.094
 5599TIP3    H116758   1.106   1.657   6.010
 5599TIP3    H216759   0.986   1.589   6.073
 5600TIP3   OH216760   1.099   2.148   5.965
 5600TIP3    H116761   1.185   2.165   5.926
 5600TIP3    H216762   1.042   2.214   5.920
 5601TIP3   OH216763   1.680   2.115   6.344
 5601TIP3    H116764   1.729   2.033   6.359
 5601TIP3    H216765   1.748   2.173   6.308
 5602TIP3   OH216766   1.724   2.369   6.083
 5602TIP3    H116767   1.666   2.424   6.025
 5602TIP3    H216768   1.812   2.392   6.044
 5603TIP3   OH216769   0.957   1.939   6.513
 5603TIP3    H116770   0.882   1.879   6.533
 5603TIP3    H216771   0.987   1.905   6.427
 5604TIP3   OH216772   1.219   1.384   6.167
 5604TIP3    H116773   1.163   1.461   6.145
 5604TIP3    H216774   1.166   1.310   6.129
 5605TIP3   OH216775   1.333   1.879   6.378
 5605TIP3    H116776   1.317   1.863   6.473
 5605TIP3    H216777   1.244   1.856   6.345
 5606TIP3   OH216778   1.571   1.829   6.233
 5606TIP3    H116779   1.496   1.831   6.296
 5606TIP3    H216780   1.644   1.798   6.290
 5607TIP3   OH216781   1.811   1.773   6.379
 5607TIP3    H116782   1.818   1.677   6.396
 5607TIP3    H216783   1.800   1.810   6.469
 5608TIP3   OH216784   0.793   1.720   6.555
 5608TIP3    H116785   0.806   1.628   6.531
 5608TIP3    H216786   0.832   1.722   6.645
 5609TIP3   OH216787   1.301   1.382   6.429
 5609TIP3    H116788   1.370   1.315   6.414
 5609TIP3    H216789   1.258   1.383   6.341
 5610TIP3   OH216790   1.378   1.609   6.568
 5610TIP3    H116791   1.352   1.532   6.514
 5610TIP3    H216792   1.294   1.657   6.576
 5611TIP3   OH216793   0.590   2.827   4.678
 5611TIP3    H116794   0.685   2.821   4.660
 5611TIP3    H216795   0.561   2.880   4.601
 5612TIP3   OH216796   0.077   2.199   4.899
 5612TIP3    H116797   0.170   2.226   4.883
 5612TIP3    H216798   0.072   2.114   4.852
 5613TIP3   OH216799  -0.029   2.792   5.286
 5613TIP3    H116800  -0.106   2.819   5.338
 5613TIP3    H216801   0.027   2.751   5.355
 5614TIP3   OH216802   0.118   2.678   5.493
 5614TIP3    H116803   0.108   2.612   5.564
 5614TIP3    H216804   0.171   2.744   5.542
 5615TIP3   OH216805   1.846   3.087   5.292
 5615TIP3    H116806   1.877   3.099   5.384
 5615TIP3    H216807   1.927   3.098   5.239
 5616TIP3   OH216808   1.884   3.092   5.569
 5616TIP3    H116809   1.834   3.008   5.572
 5616TIP3    H216810   1.954   3.072   5.633
 5617TIP3   OH216811   1.924   2.770   6.153
 5617TIP3    H116812   1.851   2.782   6.217
 5617TIP3    H216813   1.965   2.859   6.155
 5618TIP3   OH216814   1.739   2.283   4.769
 5618TIP3    H116815   1.803   2.350   4.737
 5618TIP3    H216816   1.786   2.248   4.847
 5619TIP3   OH216817   1.868   2.151   4.974
 5619TIP3    H116818   1.800   2.111   5.033
 5619TIP3    H216819   1.932   2.188   5.037
 5620TIP3   OH216820   1.925   2.547   5.407
 5620TIP3    H116821   1.974   2.478   5.358
 5620TIP3    H216822   1.919   2.618   5.340
 5621TIP3   OH216823   1.751   2.847   5.600
 5621TIP3    H116824   1.678   2.889   5.650
 5621TIP3    H216825   1.701   2.802   5.528
 5622TIP3   OH216826   1.800   2.060   4.618
 5622TIP3    H116827   1.729   2.059   4.551
 5622TIP3    H216828   1.773   2.137   4.671
 5623TIP3   OH216829   1.668   1.737   4.575
 5623TIP3    H116830   1.652   1.769   4.485
 5623TIP3    H216831   1.645   1.642   4.567
 5624TIP3   OH216832   1.679   2.012   5.120
 5624TIP3    H116833   1.686   1.916   5.111
 5624TIP3    H216834   1.664   2.024   5.216
 5625TIP3   OH216835   0.306   2.054   5.874
 5625TIP3    H116836   0.304   2.053   5.777
 5625TIP3    H216837   0.400   2.074   5.892
 5626TIP3   OH216838   1.970   2.436   5.978
 5626TIP3    H116839   2.041   2.369   5.965
 5626TIP3    H216840   1.993   2.504   5.913
 5627TIP3   OH216841   2.152   2.234   5.985
 5627TIP3    H116842   2.077   2.187   6.027
 5627TIP3    H216843   2.225   2.172   6.005
 5628TIP3   OH216844   1.617   1.470   4.558
 5628TIP3    H116845   1.690   1.436   4.613
 5628TIP3    H216846   1.543   1.409   4.575
 5629TIP3   OH216847   1.677   1.726   5.012
 5629TIP3    H116848   1.718   1.638   5.026
 5629TIP3    H216849   1.734   1.760   4.940
 5630TIP3   OH216850   1.836   1.895   5.510
 5630TIP3    H116851   1.922   1.920   5.468
 5630TIP3    H216852   1.850   1.934   5.598
 5631TIP3   OH216853   1.908   2.043   5.738
 5631TIP3    H116854   1.831   2.077   5.787
 5631TIP3    H216855   1.941   2.125   5.694
 5632TIP3   OH216856   2.362   1.642   6.296
 5632TIP3    H116857   2.421   1.575   6.255
 5632TIP3    H216858   2.328   1.689   6.217
 5633TIP3   OH216859   1.785   1.476   5.051
 5633TIP3    H116860   1.833   1.461   5.134
 5633TIP3    H216861   1.724   1.400   5.050
 5634TIP3   OH216862   0.302   1.794   5.937
 5634TIP3    H116863   0.358   1.770   5.861
 5634TIP3    H216864   0.306   1.892   5.928
 5635TIP3   OH216865   2.225   1.770   6.100
 5635TIP3    H116866   2.140   1.815   6.118
 5635TIP3    H216867   2.194   1.698   6.042
 5636TIP3   OH216868   1.863   1.406   4.688
 5636TIP3    H116869   1.903   1.339   4.628
 5636TIP3    H216870   1.929   1.479   4.684
 5637TIP3   OH216871   1.438   2.945   4.956
 5637TIP3    H116872   1.478   2.926   4.869
 5637TIP3    H216873   1.492   3.019   4.986
 5638TIP3   OH216874   0.529   2.746   6.339
 5638TIP3    H116875   0.481   2.668   6.309
 5638TIP3    H216876   0.539   2.732   6.434
 5639TIP3   OH216877   0.712   2.780   5.883
 5639TIP3    H116878   0.664   2.856   5.844
 5639TIP3    H216879   0.798   2.795   5.838
 5640TIP3   OH216880   1.151   3.021   6.021
 5640TIP3    H116881   1.193   3.023   6.110
 5640TIP3    H216882   1.216   3.074   5.969
 5641TIP3   OH216883   1.331   3.176   5.884
 5641TIP3    H116884   1.403   3.126   5.842
 5641TIP3    H216885   1.383   3.234   5.944
 5642TIP3   OH216886   2.128   1.534   5.981
 5642TIP3    H116887   2.037   1.525   5.945
 5642TIP3    H216888   2.161   1.442   5.971
 5643TIP3   OH216889   0.397   3.027   5.917
 5643TIP3    H116890   0.316   3.060   5.876
 5643TIP3    H216891   0.393   3.068   6.005
 5644TIP3   OH216892   0.627   3.013   5.765
 5644TIP3    H116893   0.542   3.025   5.812
 5644TIP3    H216894   0.605   3.048   5.676
 5645TIP3   OH216895   1.046   3.040   5.565
 5645TIP3    H116896   0.977   3.057   5.499
 5645TIP3    H216897   1.057   3.129   5.605
 5646TIP3   OH216898   1.316   2.981   5.617
 5646TIP3    H116899   1.221   2.996   5.599
 5646TIP3    H216900   1.356   3.056   5.572
 5647TIP3   OH216901   1.526   3.178   5.525
 5647TIP3    H116902   1.513   3.258   5.470
 5647TIP3    H216903   1.552   3.112   5.457
 5648TIP3   OH216904   0.294   2.825   5.652
 5648TIP3    H116905   0.313   2.793   5.742
 5648TIP3    H216906   0.367   2.782   5.604
 5649TIP3   OH216907   0.491   2.701   5.512
 5649TIP3    H116908   0.507   2.618   5.563
 5649TIP3    H216909   0.582   2.738   5.508
 5650TIP3   OH216910   0.757   2.792   5.516
 5650TIP3    H116911   0.789   2.701   5.507
 5650TIP3    H216912   0.803   2.818   5.598
 5651TIP3   OH216913   1.332   1.454   5.595
 5651TIP3    H116914   1.286   1.387   5.650
 5651TIP3    H216915   1.407   1.404   5.559
 5652TIP3   OH216916   1.852   1.329   5.501
 5652TIP3    H116917   1.889   1.383   5.427
 5652TIP3    H216918   1.758   1.351   5.498
 5653TIP3   OH216919   1.949   1.429   5.267
 5653TIP3    H116920   2.025   1.379   5.228
 5653TIP3    H216921   1.982   1.521   5.253
 5654TIP3   OH216922   1.020   1.209   5.503
 5654TIP3    H116923   1.080   1.250   5.439
 5654TIP3    H216924   1.063   1.234   5.587
 5655TIP3   OH216925   1.570   1.340   5.480
 5655TIP3    H116926   1.570   1.299   5.393
 5655TIP3    H216927   1.558   1.261   5.538
 5656TIP3   OH216928   1.601   1.263   5.045
 5656TIP3    H116929   1.516   1.308   5.061
 5656TIP3    H216930   1.585   1.178   5.090
 5657TIP3   OH216931   0.081   2.604   5.039
 5657TIP3    H116932   0.016   2.566   4.978
 5657TIP3    H216933   0.068   2.699   5.022
 5658TIP3   OH216934   0.500   1.237   5.006
 5658TIP3    H116935   0.555   1.166   4.965
 5658TIP3    H216936   0.569   1.283   5.058
 5659TIP3   OH216937   1.002   1.366   5.128
 5659TIP3    H116938   1.065   1.323   5.189
 5659TIP3    H216939   1.022   1.460   5.149
 5660TIP3   OH216940   0.857   2.788   4.628
 5660TIP3    H116941   0.944   2.812   4.590
 5660TIP3    H216942   0.835   2.714   4.566
 5661TIP3   OH216943   1.572   2.908   4.720
 5661TIP3    H116944   1.566   2.810   4.707
 5661TIP3    H216945   1.528   2.939   4.638
 5662TIP3   OH216946   1.116   1.495   6.675
 5662TIP3    H116947   1.134   1.437   6.599
 5662TIP3    H216948   1.106   1.431   6.747
 5663TIP3   OH216949   0.160   2.620   4.684
 5663TIP3    H116950   0.173   2.660   4.771
 5663TIP3    H216951   0.248   2.577   4.667
 5664TIP3   OH216952   1.865   1.501   6.413
 5664TIP3    H116953   1.882   1.470   6.505
 5664TIP3    H216954   1.955   1.493   6.373
 5665TIP3   OH216955   1.799   3.052   5.904
 5665TIP3    H116956   1.721   3.022   5.854
 5665TIP3    H216957   1.781   3.148   5.911
 5666TIP3   OH216958   3.068   2.424   4.670
 5666TIP3    H116959   3.038   2.515   4.650
 5666TIP3    H216960   2.992   2.374   4.635
 5667TIP3   OH216961   3.071   2.425   5.054
 5667TIP3    H116962   3.103   2.401   5.143
 5667TIP3    H216963   3.027   2.344   5.025
 5668TIP3   OH216964   2.365   2.319   5.420
 5668TIP3    H116965   2.396   2.249   5.481
 5668TIP3    H216966   2.446   2.371   5.408
 5669TIP3   OH216967   3.315   2.726   4.738
 5669TIP3    H116968   3.296   2.662   4.808
 5669TIP3    H216969   3.344   2.804   4.787
 5670TIP3   OH216970   2.339   2.730   5.142
 5670TIP3    H116971   2.332   2.632   5.143
 5670TIP3    H216972   2.435   2.741   5.131
 5671TIP3   OH216973   2.045   1.928   4.924
 5671TIP3    H116974   1.999   2.012   4.943
 5671TIP3    H216975   1.973   1.879   4.879
 5672TIP3   OH216976   2.102   2.219   5.104
 5672TIP3    H116977   2.153   2.141   5.135
 5672TIP3    H216978   2.163   2.258   5.039
 5673TIP3   OH216979   2.962   3.183   4.755
 5673TIP3    H116980   3.003   3.112   4.703
 5673TIP3    H216981   2.955   3.142   4.842
 5674TIP3   OH216982   2.865   2.651   5.103
 5674TIP3    H116983   2.906   2.577   5.056
 5674TIP3    H216984   2.947   2.698   5.130
 5675TIP3   OH216985   3.883   1.969   5.100
 5675TIP3    H116986   3.911   2.053   5.140
 5675TIP3    H216987   3.907   1.984   5.006
 5676TIP3   OH216988   3.277   2.149   5.132
 5676TIP3    H116989   3.321   2.064   5.152
 5676TIP3    H216990   3.246   2.133   5.041
 5677TIP3   OH216991   2.621   1.811   5.097
 5677TIP3    H116992   2.600   1.884   5.035
 5677TIP3    H216993   2.571   1.738   5.053
 5678TIP3   OH216994   3.314   1.903   4.718
 5678TIP3    H116995   3.386   1.889   4.784
 5678TIP3    H216996   3.367   1.939   4.644
 5679TIP3   OH216997   2.250   2.012   5.205
 5679TIP3    H116998   2.333   1.995   5.253
 5679TIP3    H216999   2.265   1.957   5.125
 5680TIP3   OH217000   2.690   2.209   5.003
 5680TIP3    H117001   2.784   2.186   5.012
 5680TIP3    H217002   2.652   2.126   4.968
 5681TIP3   OH217003   3.954   2.178   5.272
 5681TIP3    H117004   3.871   2.226   5.250
 5681TIP3    H217005   3.977   2.219   5.358
 5682TIP3   OH217006   2.613   1.795   5.533
 5682TIP3    H117007   2.555   1.833   5.465
 5682TIP3    H217008   2.560   1.814   5.613
 5683TIP3   OH217009   2.952   2.642   4.541
 5683TIP3    H117010   2.918   2.635   4.451
 5683TIP3    H217011   2.910   2.726   4.570
 5684TIP3   OH217012   2.720   2.570   5.325
 5684TIP3    H117013   2.661   2.640   5.361
 5684TIP3    H217014   2.763   2.617   5.250
 5685TIP3   OH217015   3.519   1.907   4.897
 5685TIP3    H117016   3.499   1.870   4.985
 5685TIP3    H217017   3.571   1.986   4.921
 5686TIP3   OH217018   2.486   1.909   5.316
 5686TIP3    H117019   2.548   1.982   5.340
 5686TIP3    H217020   2.535   1.870   5.240
 5687TIP3   OH217021   2.551   2.767   5.426
 5687TIP3    H117022   2.526   2.854   5.387
 5687TIP3    H217023   2.470   2.751   5.480
 5688TIP3   OH217024   1.938   2.455   4.661
 5688TIP3    H117025   1.900   2.481   4.575
 5688TIP3    H217026   1.970   2.541   4.695
 5689TIP3   OH217027   3.381   2.974   4.899
 5689TIP3    H117028   3.291   2.964   4.939
 5689TIP3    H217029   3.372   3.059   4.853
 5690TIP3   OH217030   3.675   1.865   5.263
 5690TIP3    H117031   3.588   1.896   5.232
 5690TIP3    H217032   3.736   1.902   5.195
 5691TIP3   OH217033   2.967   1.511   5.250
 5691TIP3    H117034   2.949   1.416   5.266
 5691TIP3    H217035   2.891   1.552   5.296
 5692TIP3   OH217036   3.078   3.012   4.573
 5692TIP3    H117037   3.128   2.929   4.554
 5692TIP3    H217038   3.143   3.077   4.536
 5693TIP3   OH217039   3.222   2.798   4.487
 5693TIP3    H117040   3.196   2.718   4.441
 5693TIP3    H217041   3.261   2.762   4.570
 5694TIP3   OH217042   3.606   2.880   5.247
 5694TIP3    H117043   3.594   2.804   5.185
 5694TIP3    H217044   3.587   2.956   5.188
 5695TIP3   OH217045   2.899   2.276   4.505
 5695TIP3    H117046   2.820   2.331   4.486
 5695TIP3    H217047   2.944   2.277   4.418
 5696TIP3   OH217048   2.858   2.062   4.216
 5696TIP3    H117049   2.922   2.116   4.265
 5696TIP3    H217050   2.918   2.001   4.169
 5697TIP3   OH217051   3.802   2.521   5.092
 5697TIP3    H117052   3.718   2.572   5.095
 5697TIP3    H217053   3.833   2.546   5.002
 5698TIP3   OH217054   3.247   2.357   4.473
 5698TIP3    H117055   3.192   2.382   4.552
 5698TIP3    H217056   3.332   2.336   4.517
 5699TIP3   OH217057   3.480   2.396   5.391
 5699TIP3    H117058   3.479   2.480   5.440
 5699TIP3    H217059   3.395   2.401   5.344
 5700TIP3   OH217060   2.477   2.355   4.894
 5700TIP3    H117061   2.437   2.298   4.824
 5700TIP3    H217062   2.554   2.302   4.922
 5701TIP3   OH217063   2.604   2.762   5.042
 5701TIP3    H117064   2.587   2.736   4.950
 5701TIP3    H217065   2.695   2.727   5.057
 5702TIP3   OH217066   2.612   2.328   5.247
 5702TIP3    H117067   2.646   2.303   5.158
 5702TIP3    H217068   2.657   2.414   5.263
 5703TIP3   OH217069   3.141   2.966   5.023
 5703TIP3    H117070   3.127   3.048   5.073
 5703TIP3    H217071   3.122   2.896   5.088
 5704TIP3   OH217072   2.755   2.883   5.572
 5704TIP3    H117073   2.693   2.945   5.616
 5704TIP3    H217074   2.692   2.830   5.519
 5705TIP3   OH217075   3.086   2.216   4.300
 5705TIP3    H117076   3.144   2.278   4.349
 5705TIP3    H217077   3.112   2.236   4.207
 5706TIP3   OH217078   2.510   2.435   5.679
 5706TIP3    H117079   2.514   2.526   5.715
 5706TIP3    H217080   2.414   2.417   5.687
 5707TIP3   OH217081   2.830   2.894   4.579
 5707TIP3    H117082   2.913   2.945   4.584
 5707TIP3    H217083   2.772   2.954   4.531
 5708TIP3   OH217084   2.548   3.049   5.657
 5708TIP3    H117085   2.513   3.054   5.566
 5708TIP3    H217086   2.467   3.027   5.708
 5709TIP3   OH217087   3.599   1.461   4.353
 5709TIP3    H117088   3.516   1.487   4.399
 5709TIP3    H217089   3.617   1.541   4.300
 5710TIP3   OH217090   2.345   2.199   4.695
 5710TIP3    H117091   2.279   2.246   4.640
 5710TIP3    H217092   2.304   2.113   4.705
 5711TIP3   OH217093   3.401   2.823   3.899
 5711TIP3    H117094   3.408   2.920   3.880
 5711TIP3    H217095   3.494   2.796   3.887
 5712TIP3   OH217096   2.125   2.584   5.604
 5712TIP3    H117097   2.058   2.564   5.536
 5712TIP3    H217098   2.163   2.496   5.623
 5713TIP3   OH217099   1.984   2.775   5.236
 5713TIP3    H117100   2.078   2.763   5.219
 5713TIP3    H217101   1.984   2.849   5.298
 5714TIP3   OH217102   3.847   3.231   5.297
 5714TIP3    H117103   3.843   3.135   5.310
 5714TIP3    H217104   3.763   3.258   5.340
 5715TIP3   OH217105   2.951   3.011   5.428
 5715TIP3    H117106   2.948   3.105   5.459
 5715TIP3    H217107   2.879   2.971   5.482
 5716TIP3   OH217108   2.711   3.122   4.380
 5716TIP3    H117109   2.664   3.116   4.295
 5716TIP3    H217110   2.680   3.208   4.415
 5717TIP3   OH217111   2.149   2.987   4.764
 5717TIP3    H117112   2.197   2.980   4.850
 5717TIP3    H217113   2.097   2.906   4.765
 5718TIP3   OH217114   2.899   3.031   4.038
 5718TIP3    H117115   2.952   2.985   3.970
 5718TIP3    H217116   2.962   3.041   4.111
 5719TIP3   OH217117   2.971   3.098   4.304
 5719TIP3    H117118   2.878   3.097   4.336
 5719TIP3    H217119   3.018   3.057   4.379
 5720TIP3   OH217120   3.733   2.356   5.570
 5720TIP3    H117121   3.651   2.369   5.519
 5720TIP3    H217122   3.748   2.260   5.558
 5721TIP3   OH217123   2.330   2.766   5.588
 5721TIP3    H117124   2.378   2.751   5.671
 5721TIP3    H217125   2.255   2.703   5.596
 5722TIP3   OH217126   2.730   1.589   5.379
 5722TIP3    H117127   2.642   1.559   5.349
 5722TIP3    H217128   2.705   1.670   5.426
 5723TIP3   OH217129   3.266   1.702   5.572
 5723TIP3    H117130   3.334   1.676   5.636
 5723TIP3    H217131   3.182   1.685   5.619
 5724TIP3   OH217132   3.500   2.133   5.488
 5724TIP3    H117133   3.449   2.132   5.572
 5724TIP3    H217134   3.479   2.221   5.452
 5725TIP3   OH217135   3.162   2.253   4.044
 5725TIP3    H117136   3.128   2.236   3.954
 5725TIP3    H217137   3.241   2.307   4.023
 5726TIP3   OH217138   2.876   1.634   4.350
 5726TIP3    H117139   2.839   1.631   4.440
 5726TIP3    H217140   2.833   1.555   4.312
 5727TIP3   OH217141   2.662   2.106   5.395
 5727TIP3    H117142   2.611   2.127   5.476
 5727TIP3    H217143   2.647   2.187   5.342
 5728TIP3   OH217144   2.547   1.991   4.909
 5728TIP3    H117145   2.453   1.967   4.927
 5728TIP3    H217146   2.558   1.950   4.820
 5729TIP3   OH217147   3.036   2.075   4.637
 5729TIP3    H117148   2.985   2.147   4.594
 5729TIP3    H217149   3.091   2.043   4.563
 5730TIP3   OH217150   3.211   2.351   5.720
 5730TIP3    H117151   3.190   2.279   5.784
 5730TIP3    H217152   3.305   2.368   5.742
 5731TIP3   OH217153   3.191   2.103   4.875
 5731TIP3    H117154   3.130   2.135   4.805
 5731TIP3    H217155   3.225   2.024   4.829
 5732TIP3   OH217156   2.482   2.134   5.602
 5732TIP3    H117157   2.508   2.200   5.668
 5732TIP3    H217158   2.471   2.054   5.657
 5733TIP3   OH217159   2.532   1.612   4.314
 5733TIP3    H117160   2.519   1.613   4.411
 5733TIP3    H217161   2.455   1.665   4.285
 5734TIP3   OH217162   2.075   1.652   5.186
 5734TIP3    H117163   2.149   1.688   5.240
 5734TIP3    H217164   2.117   1.629   5.103
 5735TIP3   OH217165   2.039   1.636   4.705
 5735TIP3    H117166   2.084   1.672   4.625
 5735TIP3    H217167   1.978   1.710   4.723
 5736TIP3   OH217168   3.201   2.348   5.297
 5736TIP3    H117169   3.235   2.277   5.237
 5736TIP3    H217170   3.170   2.293   5.372
 5737TIP3   OH217171   2.877   1.807   4.968
 5737TIP3    H117172   2.795   1.810   5.021
 5737TIP3    H217173   2.945   1.811   5.037
 5738TIP3   OH217174   2.307   1.871   4.977
 5738TIP3    H117175   2.213   1.879   4.948
 5738TIP3    H217176   2.329   1.779   4.953
 5739TIP3   OH217177   2.573   1.863   4.668
 5739TIP3    H117178   2.666   1.881   4.644
 5739TIP3    H217179   2.524   1.885   4.585
 5740TIP3   OH217180   3.366   1.888   5.171
 5740TIP3    H117181   3.335   1.903   5.264
 5740TIP3    H217182   3.295   1.830   5.138
 5741TIP3   OH217183   2.424   1.897   4.444
 5741TIP3    H117184   2.353   1.853   4.394
 5741TIP3    H217185   2.476   1.937   4.371
 5742TIP3   OH217186   3.538   3.576   5.391
 5742TIP3    H117187   3.534   3.606   5.299
 5742TIP3    H217188   3.595   3.644   5.431
 5743TIP3   OH217189   2.493   2.686   5.811
 5743TIP3    H117190   2.572   2.718   5.858
 5743TIP3    H217191   2.427   2.688   5.884
 5744TIP3   OH217192   2.955   2.140   5.065
 5744TIP3    H117193   3.032   2.107   5.016
 5744TIP3    H217194   2.964   2.097   5.152
 5745TIP3   OH217195   2.476   1.629   4.949
 5745TIP3    H117196   2.439   1.552   4.997
 5745TIP3    H217197   2.517   1.588   4.872
 5746TIP3   OH217198   2.932   2.039   5.360
 5746TIP3    H117199   2.842   2.077   5.371
 5746TIP3    H217200   2.988   2.104   5.408
 5747TIP3   OH217201   2.669   2.427   4.453
 5747TIP3    H117202   2.596   2.363   4.440
 5747TIP3    H217203   2.648   2.462   4.543
 5748TIP3   OH217204   3.568   2.664   5.078
 5748TIP3    H117205   3.592   2.717   4.999
 5748TIP3    H217206   3.483   2.623   5.051
 5749TIP3   OH217207   3.128   1.737   4.321
 5749TIP3    H117208   3.031   1.720   4.326
 5749TIP3    H217209   3.135   1.832   4.342
 5750TIP3   OH217210   3.061   2.745   5.452
 5750TIP3    H117211   3.101   2.736   5.540
 5750TIP3    H217212   3.030   2.837   5.451
 5751TIP3   OH217213   3.195   1.989   4.420
 5751TIP3    H117214   3.291   1.998   4.434
 5751TIP3    H217215   3.174   2.070   4.369
 5752TIP3   OH217216   2.360   2.451   5.126
 5752TIP3    H117217   2.398   2.425   5.040
 5752TIP3    H217218   2.409   2.393   5.187
 5753TIP3   OH217219   2.816   2.578   4.277
 5753TIP3    H117220   2.767   2.663   4.277
 5753TIP3    H217221   2.761   2.524   4.339
 5754TIP3   OH217222   2.244   2.369   5.741
 5754TIP3    H117223   2.257   2.354   5.837
 5754TIP3    H217224   2.173   2.306   5.721
 5755TIP3   OH217225   2.970   2.485   5.763
 5755TIP3    H117226   2.909   2.429   5.713
 5755TIP3    H217227   3.057   2.451   5.732
 5756TIP3   OH217228   3.227   2.999   5.352
 5756TIP3    H117229   3.130   3.006   5.362
 5756TIP3    H217230   3.256   3.056   5.426
 5757TIP3   OH217231   3.634   2.084   4.256
 5757TIP3    H117232   3.573   2.040   4.191
 5757TIP3    H217233   3.631   2.174   4.216
 5758TIP3   OH217234   3.857   2.937   5.335
 5758TIP3    H117235   3.759   2.933   5.325
 5758TIP3    H217236   3.883   2.908   5.244
 5759TIP3   OH217237   3.344   2.897   4.164
 5759TIP3    H117238   3.310   2.827   4.221
 5759TIP3    H217239   3.355   2.853   4.078
 5760TIP3   OH217240   3.334   2.528   4.997
 5760TIP3    H117241   3.240   2.505   5.010
 5760TIP3    H217242   3.366   2.448   4.951
 5761TIP3   OH217243   2.466   2.759   4.756
 5761TIP3    H117244   2.465   2.839   4.699
 5761TIP3    H217245   2.372   2.739   4.761
 5762TIP3   OH217246   2.031   2.058   4.461
 5762TIP3    H117247   2.073   2.145   4.480
 5762TIP3    H217248   1.951   2.063   4.519
 5763TIP3   OH217249   2.593   2.519   4.695
 5763TIP3    H117250   2.563   2.610   4.714
 5763TIP3    H217251   2.558   2.470   4.772
 5764TIP3   OH217252   2.734   3.098   5.220
 5764TIP3    H117253   2.774   3.172   5.169
 5764TIP3    H217254   2.811   3.063   5.266
 5765TIP3   OH217255   2.382   2.989   4.605
 5765TIP3    H117256   2.296   3.005   4.648
 5765TIP3    H217257   2.421   3.080   4.609
 5766TIP3   OH217258   3.115   2.732   5.183
 5766TIP3    H117259   3.106   2.729   5.281
 5766TIP3    H217260   3.198   2.684   5.170
 5767TIP3   OH217261   3.101   2.613   4.065
 5767TIP3    H117262   3.149   2.592   4.148
 5767TIP3    H217263   3.009   2.604   4.094
 5768TIP3   OH217264   3.367   3.262   5.227
 5768TIP3    H117265   3.284   3.213   5.218
 5768TIP3    H217266   3.356   3.331   5.157
 5769TIP3   OH217267   3.434   3.098   3.877
 5769TIP3    H117268   3.453   3.165   3.809
 5769TIP3    H217269   3.358   3.142   3.920
 5770TIP3   OH217270   2.450   1.877   5.747
 5770TIP3    H117271   2.353   1.880   5.757
 5770TIP3    H217272   2.475   1.817   5.819
 5771TIP3   OH217273   3.258   2.561   4.286
 5771TIP3    H117274   3.249   2.493   4.355
 5771TIP3    H217275   3.355   2.557   4.270
 5772TIP3   OH217276   2.168   2.959   5.382
 5772TIP3    H117277   2.225   2.887   5.413
 5772TIP3    H217278   2.200   3.033   5.436
 5773TIP3   OH217279   2.458   2.604   4.064
 5773TIP3    H117280   2.473   2.511   4.039
 5773TIP3    H217281   2.438   2.596   4.159
 5774TIP3   OH217282   2.405   2.612   4.337
 5774TIP3    H117283   2.482   2.590   4.390
 5774TIP3    H217284   2.406   2.711   4.342
 5775TIP3   OH217285   2.138   2.305   4.541
 5775TIP3    H117286   2.071   2.351   4.596
 5775TIP3    H217287   2.151   2.372   4.471
 5776TIP3   OH217288   3.294   1.940   5.431
 5776TIP3    H117289   3.373   1.981   5.469
 5776TIP3    H217290   3.282   1.860   5.487
 5777TIP3   OH217291   3.177   1.687   4.600
 5777TIP3    H117292   3.160   1.709   4.507
 5777TIP3    H217293   3.213   1.771   4.635
 5778TIP3   OH217294   2.672   2.806   4.282
 5778TIP3    H117295   2.586   2.834   4.317
 5778TIP3    H217296   2.693   2.879   4.223
 5779TIP3   OH217297   2.858   1.872   4.699
 5779TIP3    H117298   2.921   1.946   4.681
 5779TIP3    H217299   2.864   1.865   4.796
 5780TIP3   OH217300   3.129   2.188   5.505
 5780TIP3    H117301   3.154   2.242   5.583
 5780TIP3    H217302   3.183   2.108   5.517
 5781TIP3   OH217303   3.001   1.593   4.799
 5781TIP3    H117304   2.989   1.672   4.855
 5781TIP3    H217305   3.064   1.629   4.731
 5782TIP3   OH217306   2.418   2.883   4.353
 5782TIP3    H117307   2.387   2.954   4.293
 5782TIP3    H217308   2.402   2.925   4.441
 5783TIP3   OH217309   2.515   1.599   4.591
 5783TIP3    H117310   2.512   1.691   4.626
 5783TIP3    H217311   2.612   1.583   4.598
 5784TIP3   OH217312   3.767   2.090   5.492
 5784TIP3    H117313   3.669   2.087   5.495
 5784TIP3    H217314   3.783   2.057   5.402
 5785TIP3   OH217315   3.420   2.284   4.875
 5785TIP3    H117316   3.343   2.225   4.888
 5785TIP3    H217317   3.491   2.237   4.924
 5786TIP3   OH217318   2.133   2.509   4.344
 5786TIP3    H117319   2.201   2.578   4.353
 5786TIP3    H217320   2.178   2.453   4.276
 5787TIP3   OH217321   2.073   1.788   4.481
 5787TIP3    H117322   2.077   1.886   4.479
 5787TIP3    H217323   2.000   1.771   4.421
 5788TIP3   OH217324   3.386   3.245   4.816
 5788TIP3    H117325   3.346   3.287   4.737
 5788TIP3    H217326   3.481   3.264   4.799
 5789TIP3   OH217327   2.466   1.510   5.349
 5789TIP3    H117328   2.435   1.476   5.262
 5789TIP3    H217329   2.455   1.432   5.406
 5790TIP3   OH217330   1.998   2.723   4.726
 5790TIP3    H117331   1.933   2.755   4.790
 5790TIP3    H217332   1.968   2.768   4.644
 5791TIP3   OH217333   2.163   3.276   5.802
 5791TIP3    H117334   2.249   3.278   5.849
 5791TIP3    H217335   2.144   3.181   5.801
 5792TIP3   OH217336   2.636   3.228   5.852
 5792TIP3    H117337   2.733   3.220   5.853
 5792TIP3    H217338   2.614   3.168   5.778
 5793TIP3   OH217339   2.617   2.810   3.974
 5793TIP3    H117340   2.568   2.733   4.010
 5793TIP3    H217341   2.698   2.766   3.942
 5794TIP3   OH217342   3.279   3.142   5.583
 5794TIP3    H117343   3.274   3.073   5.653
 5794TIP3    H217344   3.356   3.194   5.611
 5795TIP3   OH217345   3.049   2.848   3.884
 5795TIP3    H117346   3.115   2.798   3.935
 5795TIP3    H217347   3.096   2.869   3.801
 5796TIP3   OH217348   2.291   2.676   6.004
 5796TIP3    H117349   2.305   2.579   6.008
 5796TIP3    H217350   2.204   2.681   5.958
 5797TIP3   OH217351   2.269   2.324   4.200
 5797TIP3    H117352   2.329   2.297   4.272
 5797TIP3    H217353   2.334   2.329   4.126
 5798TIP3   OH217354   2.896   2.763   5.778
 5798TIP3    H117355   2.858   2.787   5.691
 5798TIP3    H217356   2.928   2.671   5.764
 5799TIP3   OH217357   2.782   2.525   4.008
 5799TIP3    H117358   2.786   2.536   4.105
 5799TIP3    H217359   2.780   2.427   4.001
 5800TIP3   OH217360   3.390   2.775   5.385
 5800TIP3    H117361   3.468   2.815   5.341
 5800TIP3    H217362   3.323   2.845   5.370
 5801TIP3   OH217363   2.410   2.412   5.991
 5801TIP3    H117364   2.490   2.372   5.954
 5801TIP3    H217365   2.442   2.447   6.077
 5802TIP3   OH217366   2.474   2.232   4.417
 5802TIP3    H117367   2.447   2.191   4.500
 5802TIP3    H217368   2.512   2.157   4.367
 5803TIP3   OH217369   2.747   2.295   5.648
 5803TIP3    H117370   2.668   2.353   5.647
 5803TIP3    H217371   2.798   2.330   5.571
 5804TIP3   OH217372   2.579   2.026   4.259
 5804TIP3    H117373   2.553   2.036   4.165
 5804TIP3    H217374   2.677   2.029   4.251
 5805TIP3   OH217375   3.262   2.697   5.781
 5805TIP3    H117376   3.339   2.669   5.731
 5805TIP3    H217377   3.259   2.630   5.853
 5806TIP3   OH217378   3.398   2.352   3.926
 5806TIP3    H117379   3.377   2.311   3.840
 5806TIP3    H217380   3.366   2.443   3.907
 5807TIP3   OH217381   2.870   2.086   5.772
 5807TIP3    H117382   2.870   2.008   5.713
 5807TIP3    H217383   2.826   2.153   5.715
 5808TIP3   OH217384   2.872   1.871   5.583
 5808TIP3    H117385   2.901   1.914   5.500
 5808TIP3    H217386   2.779   1.849   5.563
 5809TIP3   OH217387   2.895   2.405   5.455
 5809TIP3    H117388   2.981   2.422   5.415
 5809TIP3    H217389   2.838   2.470   5.409
 5810TIP3   OH217390   3.478   2.372   5.832
 5810TIP3    H117391   3.530   2.290   5.839
 5810TIP3    H217392   3.544   2.434   5.796
 5811TIP3   OH217393   3.519   2.626   5.569
 5811TIP3    H117394   3.461   2.681   5.511
 5811TIP3    H217395   3.607   2.648   5.531
 5812TIP3   OH217396   2.749   2.190   6.009
 5812TIP3    H117397   2.681   2.120   6.020
 5812TIP3    H217398   2.781   2.172   5.919
 5813TIP3   OH217399   3.003   1.632   5.651
 5813TIP3    H117400   2.954   1.714   5.627
 5813TIP3    H217401   2.935   1.564   5.639
 5814TIP3   OH217402   3.130   2.134   5.865
 5814TIP3    H117403   3.114   2.120   5.960
 5814TIP3    H217404   3.041   2.112   5.830
 5815TIP3   OH217405   3.368   2.086   5.719
 5815TIP3    H117406   3.294   2.089   5.783
 5815TIP3    H217407   3.443   2.058   5.775
 5816TIP3   OH217408   3.596   2.029   5.869
 5816TIP3    H117409   3.610   1.933   5.885
 5816TIP3    H217410   3.593   2.066   5.960
 5817TIP3   OH217411   2.586   1.971   6.060
 5817TIP3    H117412   2.589   1.880   6.025
 5817TIP3    H217413   2.626   1.957   6.149
 5818TIP3   OH217414   3.096   1.642   5.909
 5818TIP3    H117415   3.162   1.570   5.901
 5818TIP3    H217416   3.057   1.639   5.819
 5819TIP3   OH217417   3.164   1.857   6.067
 5819TIP3    H117418   3.143   1.786   6.002
 5819TIP3    H217419   3.086   1.915   6.059
 5820TIP3   OH217420   2.382   3.088   4.173
 5820TIP3    H117421   2.476   3.077   4.147
 5820TIP3    H217422   2.348   3.136   4.095
 5821TIP3   OH217423   1.865   2.464   4.383
 5821TIP3    H117424   1.959   2.486   4.366
 5821TIP3    H217425   1.855   2.378   4.337
 5822TIP3   OH217426   1.777   3.076   4.797
 5822TIP3    H117427   1.713   3.014   4.755
 5822TIP3    H217428   1.823   3.016   4.859
 5823TIP3   OH217429   1.916   2.924   4.981
 5823TIP3    H117430   1.904   2.854   5.047
 5823TIP3    H217431   1.968   2.989   5.032
 5824TIP3   OH217432   3.642   3.330   4.783
 5824TIP3    H117433   3.667   3.367   4.870
 5824TIP3    H217434   3.709   3.368   4.724
 5825TIP3   OH217435   3.668   3.350   5.065
 5825TIP3    H117436   3.628   3.261   5.061
 5825TIP3    H217437   3.745   3.332   5.120
 5826TIP3   OH217438   3.720   3.027   5.640
 5826TIP3    H117439   3.647   3.038   5.704
 5826TIP3    H217440   3.761   3.116   5.641
 5827TIP3   OH217441   3.535   2.539   4.256
 5827TIP3    H117442   3.598   2.607   4.224
 5827TIP3    H217443   3.583   2.504   4.334
 5828TIP3   OH217444   3.665   2.407   4.461
 5828TIP3    H117445   3.596   2.368   4.520
 5828TIP3    H217446   3.729   2.445   4.524
 5829TIP3   OH217447   3.720   2.803   4.894
 5829TIP3    H117448   3.769   2.735   4.844
 5829TIP3    H217449   3.718   2.878   4.831
 5830TIP3   OH217450   3.546   3.099   5.089
 5830TIP3    H117451   3.475   3.146   5.137
 5830TIP3    H217452   3.497   3.056   5.016
 5831TIP3   OH217453   3.600   2.316   4.106
 5831TIP3    H117454   3.529   2.318   4.038
 5831TIP3    H217455   3.572   2.392   4.161
 5832TIP3   OH217456   3.472   1.988   4.060
 5832TIP3    H117457   3.426   2.030   3.987
 5832TIP3    H217458   3.447   1.894   4.048
 5833TIP3   OH217459   3.475   2.269   4.607
 5833TIP3    H117460   3.483   2.173   4.598
 5833TIP3    H217461   3.460   2.281   4.703
 5834TIP3   OH217462   2.100   2.336   5.356
 5834TIP3    H117463   2.098   2.304   5.263
 5834TIP3    H217464   2.198   2.340   5.371
 5835TIP3   OH217465   3.765   2.691   5.465
 5835TIP3    H117466   3.837   2.626   5.452
 5835TIP3    H217467   3.788   2.760   5.401
 5836TIP3   OH217468   3.947   2.491   5.472
 5836TIP3    H117469   3.873   2.443   5.515
 5836TIP3    H217470   4.021   2.429   5.490
 5837TIP3   OH217471   3.415   1.722   4.041
 5837TIP3    H117472   3.488   1.691   4.099
 5837TIP3    H217473   3.341   1.664   4.065
 5838TIP3   OH217474   3.473   1.984   4.499
 5838TIP3    H117475   3.515   1.896   4.512
 5838TIP3    H217476   3.530   2.019   4.428
 5839TIP3   OH217477   3.632   2.151   4.997
 5839TIP3    H117478   3.718   2.176   4.954
 5839TIP3    H217479   3.647   2.191   5.085
 5840TIP3   OH217480   3.705   2.300   5.226
 5840TIP3    H117481   3.627   2.335   5.274
 5840TIP3    H217482   3.738   2.381   5.181
 5841TIP3   OH217483   2.320   2.024   6.034
 5841TIP3    H117484   2.417   2.017   6.032
 5841TIP3    H217485   2.295   1.936   6.067
 5842TIP3   OH217486   4.155   1.893   5.783
 5842TIP3    H117487   4.216   1.829   5.740
 5842TIP3    H217488   4.123   1.945   5.705
 5843TIP3   OH217489   3.581   1.734   4.537
 5843TIP3    H117490   3.630   1.719   4.621
 5843TIP3    H217491   3.519   1.658   4.539
 5844TIP3   OH217492   2.281   1.719   5.359
 5844TIP3    H117493   2.343   1.644   5.366
 5844TIP3    H217494   2.343   1.793   5.349
 5845TIP3   OH217495   2.082   1.990   5.431
 5845TIP3    H117496   2.131   1.988   5.347
 5845TIP3    H217497   2.107   2.076   5.466
 5846TIP3   OH217498   4.022   2.027   5.588
 5846TIP3    H117499   3.937   2.073   5.606
 5846TIP3    H217500   3.989   1.956   5.529
 5847TIP3   OH217501   3.659   1.663   4.175
 5847TIP3    H117502   3.703   1.596   4.119
 5847TIP3    H217503   3.724   1.736   4.174
 5848TIP3   OH217504   2.068   1.490   4.930
 5848TIP3    H117505   1.975   1.488   4.960
 5848TIP3    H217506   2.063   1.551   4.854
 5849TIP3   OH217507   3.229   3.193   4.446
 5849TIP3    H117508   3.278   3.187   4.361
 5849TIP3    H217509   3.277   3.265   4.491
 5850TIP3   OH217510   2.289   1.576   5.746
 5850TIP3    H117511   2.235   1.570   5.827
 5850TIP3    H217512   2.223   1.614   5.684
 5851TIP3   OH217513   2.327   3.002   5.820
 5851TIP3    H117514   2.233   2.979   5.806
 5851TIP3    H217515   2.336   2.989   5.916
 5852TIP3   OH217516   2.508   3.037   5.370
 5852TIP3    H117517   2.463   3.114   5.329
 5852TIP3    H217518   2.595   3.049   5.325
 5853TIP3   OH217519   2.947   3.279   5.507
 5853TIP3    H117520   2.989   3.281   5.596
 5853TIP3    H217521   3.012   3.331   5.455
 5854TIP3   OH217522   3.127   3.433   5.371
 5854TIP3    H117523   3.199   3.387   5.326
 5854TIP3    H217524   3.179   3.492   5.431
 5855TIP3   OH217525   3.923   1.792   5.468
 5855TIP3    H117526   3.834   1.786   5.430
 5855TIP3    H217527   3.956   1.700   5.458
 5856TIP3   OH217528   2.190   3.283   5.405
 5856TIP3    H117529   2.113   3.323   5.364
 5856TIP3    H217530   2.201   3.337   5.485
 5857TIP3   OH217531   2.424   3.269   5.251
 5857TIP3    H117532   2.338   3.280   5.296
 5857TIP3    H217533   2.404   3.301   5.161
 5858TIP3   OH217534   2.844   3.296   5.053
 5858TIP3    H117535   2.772   3.312   4.989
 5858TIP3    H217536   2.855   3.385   5.093
 5859TIP3   OH217537   3.113   3.234   5.105
 5859TIP3    H117538   3.020   3.255   5.085
 5859TIP3    H217539   3.160   3.308   5.061
 5860TIP3   OH217540   3.313   3.424   5.015
 5860TIP3    H117541   3.303   3.511   4.970
 5860TIP3    H217542   3.343   3.367   4.941
 5861TIP3   OH217543   2.090   3.083   5.146
 5861TIP3    H117544   2.123   3.051   5.234
 5861TIP3    H217545   2.160   3.043   5.089
 5862TIP3   OH217546   2.284   2.961   5.002
 5862TIP3    H117547   2.302   2.876   5.049
 5862TIP3    H217548   2.375   2.997   4.994
 5863TIP3   OH217549   2.550   3.049   5.006
 5863TIP3    H117550   2.585   2.959   4.990
 5863TIP3    H217551   2.601   3.074   5.085
 5864TIP3   OH217552   3.131   1.709   5.092
 5864TIP3    H117553   3.086   1.637   5.140
 5864TIP3    H217554   3.205   1.663   5.047
 5865TIP3   OH217555   3.648   1.583   4.988
 5865TIP3    H117556   3.686   1.638   4.916
 5865TIP3    H217557   3.554   1.610   4.986
 5866TIP3   OH217558   3.744   1.686   4.754
 5866TIP3    H117559   3.819   1.635   4.717
 5866TIP3    H217560   3.778   1.777   4.741
 5867TIP3   OH217561   2.377   1.416   5.101
 5867TIP3    H117562   2.284   1.385   5.105
 5867TIP3    H217563   2.425   1.331   5.096
 5868TIP3   OH217564   2.171   1.287   4.752
 5868TIP3    H117565   2.196   1.344   4.677
 5868TIP3    H217566   2.140   1.353   4.817
 5869TIP3   OH217567   2.826   1.444   4.985
 5869TIP3    H117568   2.878   1.495   4.921
 5869TIP3    H217569   2.846   1.490   5.068
 5870TIP3   OH217570   3.363   1.597   4.968
 5870TIP3    H117571   3.361   1.561   4.879
 5870TIP3    H217572   3.352   1.516   5.023
 5871TIP3   OH217573   3.396   1.521   4.533
 5871TIP3    H117574   3.312   1.569   4.549
 5871TIP3    H217575   3.378   1.436   4.576
 5872TIP3   OH217576   1.879   2.863   4.530
 5872TIP3    H117577   1.793   2.830   4.497
 5872TIP3    H217578   1.872   2.956   4.499
 5873TIP3   OH217579   2.283   1.441   4.517
 5873TIP3    H117580   2.330   1.381   4.455
 5873TIP3    H217581   2.356   1.497   4.550
 5874TIP3   OH217582   2.792   1.622   4.613
 5874TIP3    H117583   2.854   1.578   4.674
 5874TIP3    H217584   2.812   1.716   4.637
 5875TIP3   OH217585   2.643   3.048   4.109
 5875TIP3    H117586   2.737   3.061   4.081
 5875TIP3    H217587   2.623   2.972   4.049
 5876TIP3   OH217588   3.372   3.164   4.214
 5876TIP3    H117589   3.366   3.066   4.200
 5876TIP3    H217590   3.326   3.196   4.133
 5877TIP3   OH217591   2.583   1.698   5.996
 5877TIP3    H117592   2.547   1.626   6.050
 5877TIP3    H217593   2.677   1.696   6.024
 5878TIP3   OH217594   2.834   1.697   6.115
 5878TIP3    H117595   2.918   1.674   6.073
 5878TIP3    H217596   2.823   1.625   6.180
 5879TIP3   OH217597   1.956   2.880   4.164
 5879TIP3    H117598   1.960   2.909   4.256
 5879TIP3    H217599   2.044   2.839   4.150
 5880TIP3   OH217600   3.662   1.758   5.899
 5880TIP3    H117601   3.680   1.727   5.991
 5880TIP3    H217602   3.751   1.753   5.859
 5881TIP3   OH217603   3.597   3.307   5.392
 5881TIP3    H117604   3.518   3.280   5.340
 5881TIP3    H217605   3.581   3.404   5.396
 5882TIP3   OH217606   4.865   2.683   4.156
 5882TIP3    H117607   4.834   2.773   4.134
 5882TIP3    H217608   4.790   2.630   4.123
 5883TIP3   OH217609   4.866   2.683   4.543
 5883TIP3    H117610   4.899   2.655   4.630
 5883TIP3    H217611   4.825   2.602   4.510
 5884TIP3   OH217612   4.162   2.575   4.906
 5884TIP3    H117613   4.193   2.506   4.968
 5884TIP3    H217614   4.242   2.627   4.895
 5885TIP3   OH217615   5.110   2.985   4.223
 5885TIP3    H117616   5.091   2.916   4.288
 5885TIP3    H217617   5.140   3.059   4.278
 5886TIP3   OH217618   4.137   2.987   4.627
 5886TIP3    H117619   4.128   2.889   4.628
 5886TIP3    H217620   4.234   2.996   4.620
 5887TIP3   OH217621   3.841   2.184   4.411
 5887TIP3    H117622   3.796   2.268   4.430
 5887TIP3    H217623   3.769   2.136   4.365
 5888TIP3   OH217624   3.899   2.475   4.591
 5888TIP3    H117625   3.950   2.397   4.622
 5888TIP3    H217626   3.958   2.512   4.524
 5889TIP3   OH217627   4.760   3.447   4.237
 5889TIP3    H117628   4.801   3.374   4.187
 5889TIP3    H217629   4.743   3.405   4.322
 5890TIP3   OH217630   4.662   2.908   4.589
 5890TIP3    H117631   4.702   2.831   4.545
 5890TIP3    H217632   4.744   2.955   4.614
 5891TIP3   OH217633   5.680   2.225   4.588
 5891TIP3    H117634   5.708   2.310   4.626
 5891TIP3    H217635   5.699   2.239   4.493
 5892TIP3   OH217636   5.077   2.406   4.618
 5892TIP3    H117637   5.117   2.319   4.637
 5892TIP3    H217638   5.042   2.390   4.528
 5893TIP3   OH217639   4.413   2.067   4.585
 5893TIP3    H117640   4.396   2.139   4.521
 5893TIP3    H217641   4.368   1.993   4.538
 5894TIP3   OH217642   5.109   2.164   4.202
 5894TIP3    H117643   5.179   2.146   4.270
 5894TIP3    H217644   5.166   2.195   4.129
 5895TIP3   OH217645   4.047   2.268   4.692
 5895TIP3    H117646   4.130   2.251   4.740
 5895TIP3    H217647   4.062   2.213   4.612
 5896TIP3   OH217648   4.486   2.467   4.491
 5896TIP3    H117649   4.581   2.443   4.501
 5896TIP3    H217650   4.449   2.383   4.456
 5897TIP3   OH217651   5.753   2.436   4.758
 5897TIP3    H117652   5.668   2.481   4.736
 5897TIP3    H217653   5.772   2.475   4.845
 5898TIP3   OH217654   4.409   2.054   5.021
 5898TIP3    H117655   4.351   2.090   4.952
 5898TIP3    H217656   4.355   2.073   5.101
 5899TIP3   OH217657   4.752   2.901   4.026
 5899TIP3    H117658   4.712   2.888   3.939
 5899TIP3    H217659   4.707   2.983   4.056
 5900TIP3   OH217660   4.517   2.828   4.811
 5900TIP3    H117661   4.457   2.897   4.847
 5900TIP3    H217662   4.559   2.875   4.736
 5901TIP3   OH217663   5.314   2.166   4.379
 5901TIP3    H117664   5.301   2.111   4.457
 5901TIP3    H217665   5.365   2.241   4.414
 5902TIP3   OH217666   4.281   2.166   4.803
 5902TIP3    H117667   4.344   2.238   4.826
 5902TIP3    H217668   4.330   2.125   4.727
 5903TIP3   OH217669   4.347   3.024   4.912
 5903TIP3    H117670   4.321   3.111   4.875
 5903TIP3    H217671   4.267   3.006   4.966
 5904TIP3   OH217672   3.735   2.711   4.147
 5904TIP3    H117673   3.694   2.740   4.063
 5904TIP3    H217674   3.765   2.797   4.183
 5905TIP3   OH217675   5.177   3.229   4.388
 5905TIP3    H117676   5.088   3.221   4.428
 5905TIP3    H217677   5.168   3.315   4.342
 5906TIP3   OH217678   5.470   2.126   4.754
 5906TIP3    H117679   5.382   2.147   4.718
 5906TIP3    H217680   5.529   2.158   4.683
 5907TIP3   OH217681   4.777   1.776   4.749
 5907TIP3    H117682   4.748   1.688   4.719
 5907TIP3    H217683   4.692   1.811   4.785
 5908TIP3   OH217684   4.875   3.270   4.058
 5908TIP3    H117685   4.925   3.186   4.040
 5908TIP3    H217686   4.942   3.334   4.023
 5909TIP3   OH217687   5.021   3.056   3.972
 5909TIP3    H117688   4.984   2.976   3.933
 5909TIP3    H217689   5.059   3.022   4.056
 5910TIP3   OH217690   5.402   3.138   4.731
 5910TIP3    H117691   5.390   3.061   4.672
 5910TIP3    H217692   5.385   3.213   4.670
 5911TIP3   OH217693   4.696   2.534   3.991
 5911TIP3    H117694   4.616   2.587   3.971
 5911TIP3    H217695   4.740   2.531   3.905
 5912TIP3   OH217696   4.652   2.321   3.701
 5912TIP3    H117697   4.719   2.372   3.750
 5912TIP3    H217698   4.710   2.257   3.655
 5913TIP3   OH217699   5.598   2.779   4.579
 5913TIP3    H117700   5.513   2.829   4.582
 5913TIP3    H217701   5.629   2.803   4.489
 5914TIP3   OH217702   5.044   2.616   3.959
 5914TIP3    H117703   4.989   2.640   4.038
 5914TIP3    H217704   5.128   2.592   4.003
 5915TIP3   OH217705   5.277   2.653   4.876
 5915TIP3    H117706   5.273   2.737   4.924
 5915TIP3    H217707   5.190   2.655   4.830
 5916TIP3   OH217708   4.275   2.612   4.380
 5916TIP3    H117709   4.233   2.555   4.312
 5916TIP3    H217710   4.351   2.558   4.409
 5917TIP3   OH217711   4.406   3.024   4.526
 5917TIP3    H117712   4.384   2.991   4.437
 5917TIP3    H217713   4.494   2.987   4.541
 5918TIP3   OH217714   4.409   2.584   4.734
 5918TIP3    H117715   4.442   2.558   4.645
 5918TIP3    H217716   4.454   2.670   4.749
 5919TIP3   OH217717   4.937   3.225   4.512
 5919TIP3    H117718   4.923   3.301   4.570
 5919TIP3    H217719   4.920   3.149   4.572
 5920TIP3   OH217720   4.550   3.140   5.058
 5920TIP3    H117721   4.488   3.201   5.102
 5920TIP3    H217722   4.487   3.087   5.005
 5921TIP3   OH217723   4.881   2.475   3.787
 5921TIP3    H117724   4.940   2.536   3.836
 5921TIP3    H217725   4.908   2.495   3.694
 5922TIP3   OH217726   4.307   2.692   5.165
 5922TIP3    H117727   4.310   2.783   5.203
 5922TIP3    H217728   4.211   2.674   5.173
 5923TIP3   OH217729   4.629   3.149   4.068
 5923TIP3    H117730   4.712   3.200   4.071
 5923TIP3    H217731   4.571   3.207   4.017
 5924TIP3   OH217732   4.344   3.306   5.145
 5924TIP3    H117733   4.308   3.311   5.054
 5924TIP3    H217734   4.264   3.283   5.197
 5925TIP3   OH217735   5.398   1.712   3.836
 5925TIP3    H117736   5.315   1.733   3.885
 5925TIP3    H217737   5.412   1.796   3.788
 5926TIP3   OH217738   4.141   2.458   4.183
 5926TIP3    H117739   4.072   2.502   4.128
 5926TIP3    H217740   4.105   2.369   4.191
 5927TIP3   OH217741   5.196   3.089   3.385
 5927TIP3    H117742   5.199   3.185   3.364
 5927TIP3    H217743   5.289   3.062   3.372
 5928TIP3   OH217744   3.921   2.841   5.091
 5928TIP3    H117745   3.854   2.822   5.022
 5928TIP3    H217746   3.959   2.752   5.108
 5929TIP3   OH217747   3.776   3.030   4.729
 5929TIP3    H117748   3.872   3.032   4.714
 5929TIP3    H217749   3.763   3.113   4.777
 5930TIP3   OH217750   5.639   3.487   4.780
 5930TIP3    H117751   5.637   3.391   4.796
 5930TIP3    H217752   5.557   3.515   4.827
 5931TIP3   OH217753   4.747   3.267   4.916
 5931TIP3    H117754   4.742   3.360   4.946
 5931TIP3    H217755   4.674   3.227   4.968
 5932TIP3   OH217756   4.504   3.386   3.850
 5932TIP3    H117757   4.477   3.349   3.763
 5932TIP3    H217758   4.447   3.463   3.855
 5933TIP3   OH217759   3.950   3.244   4.247
 5933TIP3    H117760   3.990   3.240   4.336
 5933TIP3    H217761   3.881   3.177   4.254
 5934TIP3   OH217762   4.708   3.302   3.502
 5934TIP3    H117763   4.764   3.232   3.462
 5934TIP3    H217764   4.743   3.305   3.593
 5935TIP3   OH217765   4.759   3.329   3.773
 5935TIP3    H117766   4.673   3.345   3.816
 5935TIP3    H217767   4.813   3.301   3.849
 5936TIP3   OH217768   5.528   2.612   5.056
 5936TIP3    H117769   5.446   2.624   5.005
 5936TIP3    H217770   5.544   2.516   5.043
 5937TIP3   OH217771   4.127   3.021   5.074
 5937TIP3    H117772   4.174   3.007   5.158
 5937TIP3    H217773   4.051   2.960   5.082
 5938TIP3   OH217774   4.525   1.845   4.869
 5938TIP3    H117775   4.438   1.815   4.835
 5938TIP3    H217776   4.498   1.927   4.914
 5939TIP3   OH217777   5.060   1.964   5.059
 5939TIP3    H117778   5.126   1.931   5.123
 5939TIP3    H217779   4.975   1.943   5.102
 5940TIP3   OH217780   5.300   2.391   4.978
 5940TIP3    H117781   5.244   2.389   5.059
 5940TIP3    H217782   5.275   2.477   4.938
 5941TIP3   OH217783   4.959   2.515   3.531
 5941TIP3    H117784   4.924   2.493   3.443
 5941TIP3    H217785   5.042   2.561   3.507
 5942TIP3   OH217786   4.674   1.899   3.837
 5942TIP3    H117787   4.638   1.886   3.926
 5942TIP3    H217788   4.637   1.819   3.793
 5943TIP3   OH217789   4.458   2.363   4.883
 5943TIP3    H117790   4.406   2.383   4.963
 5943TIP3    H217791   4.442   2.444   4.829
 5944TIP3   OH217792   4.342   2.249   4.396
 5944TIP3    H117793   4.250   2.223   4.414
 5944TIP3    H217794   4.355   2.209   4.307
 5945TIP3   OH217795   4.831   2.333   4.127
 5945TIP3    H117796   4.782   2.404   4.081
 5945TIP3    H217797   4.887   2.298   4.055
 5946TIP3   OH217798   5.007   2.608   5.208
 5946TIP3    H117799   4.986   2.536   5.271
 5946TIP3    H217800   5.101   2.623   5.230
 5947TIP3   OH217801   4.988   2.361   4.361
 5947TIP3    H117802   4.925   2.386   4.290
 5947TIP3    H217803   5.025   2.281   4.318
 5948TIP3   OH217804   4.278   2.391   5.090
 5948TIP3    H117805   4.304   2.457   5.156
 5948TIP3    H217806   4.268   2.310   5.144
 5949TIP3   OH217807   4.322   1.861   3.802
 5949TIP3    H117808   4.316   1.863   3.900
 5949TIP3    H217809   4.250   1.921   3.777
 5950TIP3   OH217810   3.872   1.907   4.674
 5950TIP3    H117811   3.944   1.945   4.729
 5950TIP3    H217812   3.917   1.886   4.591
 5951TIP3   OH217813   3.834   1.891   4.191
 5951TIP3    H117814   3.881   1.926   4.112
 5951TIP3    H217815   3.775   1.967   4.209
 5952TIP3   OH217816   5.002   2.604   4.783
 5952TIP3    H117817   5.035   2.533   4.723
 5952TIP3    H217818   4.968   2.550   4.857
 5953TIP3   OH217819   4.671   2.076   4.461
 5953TIP3    H117820   4.591   2.068   4.515
 5953TIP3    H217821   4.742   2.062   4.526
 5954TIP3   OH217822   4.103   2.125   4.464
 5954TIP3    H117823   4.010   2.133   4.435
 5954TIP3    H217824   4.128   2.035   4.438
 5955TIP3   OH217825   4.371   2.121   4.155
 5955TIP3    H117826   4.466   2.126   4.131
 5955TIP3    H217827   4.325   2.142   4.071
 5956TIP3   OH217828   5.159   2.142   4.663
 5956TIP3    H117829   5.121   2.158   4.752
 5956TIP3    H217830   5.095   2.077   4.629
 5957TIP3   OH217831   4.219   2.156   3.930
 5957TIP3    H117832   4.148   2.112   3.880
 5957TIP3    H217833   4.271   2.195   3.857
 5958TIP3   OH217834   5.327   3.842   4.876
 5958TIP3    H117835   5.328   3.866   4.782
 5958TIP3    H217836   5.408   3.886   4.908
 5959TIP3   OH217837   4.290   2.943   5.299
 5959TIP3    H117838   4.369   2.975   5.347
 5959TIP3    H217839   4.224   2.945   5.371
 5960TIP3   OH217840   4.751   2.401   4.555
 5960TIP3    H117841   4.820   2.358   4.502
 5960TIP3    H217842   4.757   2.352   4.640
 5961TIP3   OH217843   4.276   1.884   4.432
 5961TIP3    H117844   4.241   1.807   4.481
 5961TIP3    H217845   4.323   1.840   4.359
 5962TIP3   OH217846   4.727   2.297   4.846
 5962TIP3    H117847   4.637   2.333   4.858
 5962TIP3    H217848   4.783   2.361   4.893
 5963TIP3   OH217849   4.465   2.685   3.939
 5963TIP3    H117850   4.392   2.620   3.927
 5963TIP3    H217851   4.444   2.719   4.029
 5964TIP3   OH217852   5.363   2.921   4.565
 5964TIP3    H117853   5.387   2.973   4.485
 5964TIP3    H217854   5.279   2.878   4.538
 5965TIP3   OH217855   4.918   2.004   3.791
 5965TIP3    H117856   4.825   1.978   3.809
 5965TIP3    H217857   4.924   2.095   3.827
 5966TIP3   OH217858   4.867   3.007   4.935
 5966TIP3    H117859   4.892   2.987   5.026
 5966TIP3    H217860   4.824   3.094   4.942
 5967TIP3   OH217861   4.989   2.246   3.909
 5967TIP3    H117862   5.086   2.252   3.924
 5967TIP3    H217863   4.971   2.327   3.858
 5968TIP3   OH217864   4.159   2.708   4.613
 5968TIP3    H117865   4.196   2.681   4.526
 5968TIP3    H217866   4.204   2.649   4.674
 5969TIP3   OH217867   4.611   2.834   3.763
 5969TIP3    H117868   4.563   2.920   3.766
 5969TIP3    H217869   4.555   2.780   3.823
 5970TIP3   OH217870   4.042   2.625   5.227
 5970TIP3    H117871   4.056   2.612   5.323
 5970TIP3    H217872   3.969   2.563   5.209
 5971TIP3   OH217873   4.766   2.744   5.248
 5971TIP3    H117874   4.704   2.686   5.201
 5971TIP3    H217875   4.852   2.707   5.217
 5972TIP3   OH217876   5.023   3.269   4.831
 5972TIP3    H117877   4.927   3.263   4.847
 5972TIP3    H217878   5.051   3.320   4.910
 5973TIP3   OH217879   5.432   2.339   3.740
 5973TIP3    H117880   5.371   2.295   3.677
 5973TIP3    H217881   5.429   2.429   3.701
 5974TIP3   OH217882   5.653   3.196   4.820
 5974TIP3    H117883   5.555   3.190   4.811
 5974TIP3    H217884   5.679   3.166   4.731
 5975TIP3   OH217885   5.141   3.159   3.653
 5975TIP3    H117886   5.107   3.090   3.711
 5975TIP3    H217887   5.148   3.114   3.567
 5976TIP3   OH217888   5.130   2.784   4.483
 5976TIP3    H117889   5.037   2.760   4.497
 5976TIP3    H217890   5.163   2.704   4.439
 5977TIP3   OH217891   4.259   3.011   4.242
 5977TIP3    H117892   4.253   3.088   4.183
 5977TIP3    H217893   4.166   2.992   4.257
 5978TIP3   OH217894   3.825   2.316   3.946
 5978TIP3    H117895   3.868   2.402   3.966
 5978TIP3    H217896   3.748   2.319   4.006
 5979TIP3   OH217897   4.392   2.775   4.182
 5979TIP3    H117898   4.358   2.865   4.201
 5979TIP3    H217899   4.357   2.724   4.257
 5980TIP3   OH217900   4.529   3.356   4.707
 5980TIP3    H117901   4.571   3.429   4.657
 5980TIP3    H217902   4.606   3.318   4.752
 5981TIP3   OH217903   4.173   3.242   4.091
 5981TIP3    H117904   4.084   3.242   4.133
 5981TIP3    H217905   4.207   3.326   4.123
 5982TIP3   OH217906   4.914   2.990   4.667
 5982TIP3    H117907   4.904   2.988   4.765
 5982TIP3    H217908   4.992   2.934   4.655
 5983TIP3   OH217909   4.894   2.884   3.551
 5983TIP3    H117910   4.946   2.858   3.630
 5983TIP3    H217911   4.805   2.856   3.577
 5984TIP3   OH217912   5.164   3.521   4.717
 5984TIP3    H117913   5.085   3.464   4.711
 5984TIP3    H217914   5.147   3.585   4.644
 5985TIP3   OH217915   5.206   3.384   3.351
 5985TIP3    H117916   5.273   3.442   3.311
 5985TIP3    H217917   5.129   3.445   3.342
 5986TIP3   OH217918   4.246   2.134   5.235
 5986TIP3    H117919   4.149   2.136   5.246
 5986TIP3    H217920   4.273   2.076   5.307
 5987TIP3   OH217921   5.054   2.817   3.767
 5987TIP3    H117922   5.043   2.751   3.838
 5987TIP3    H217923   5.151   2.813   3.754
 5988TIP3   OH217924   3.968   3.216   4.867
 5988TIP3    H117925   4.024   3.147   4.908
 5988TIP3    H217926   3.992   3.294   4.919
 5989TIP3   OH217927   4.256   2.862   3.550
 5989TIP3    H117928   4.268   2.769   3.524
 5989TIP3    H217929   4.235   2.853   3.645
 5990TIP3   OH217930   4.202   2.867   3.822
 5990TIP3    H117931   4.275   2.841   3.879
 5990TIP3    H217932   4.205   2.965   3.829
 5991TIP3   OH217933   3.933   2.561   4.027
 5991TIP3    H117934   3.867   2.606   4.083
 5991TIP3    H217935   3.946   2.629   3.958
 5992TIP3   OH217936   5.084   2.205   4.925
 5992TIP3    H117937   5.171   2.236   4.956
 5992TIP3    H217938   5.072   2.121   4.974
 5993TIP3   OH217939   4.977   1.947   4.075
 5993TIP3    H117940   4.960   1.974   3.983
 5993TIP3    H217941   5.007   2.031   4.116
 5994TIP3   OH217942   4.471   3.064   3.772
 5994TIP3    H117943   4.383   3.089   3.807
 5994TIP3    H217944   4.481   3.130   3.702
 5995TIP3   OH217945   4.663   2.118   4.190
 5995TIP3    H117946   4.721   2.195   4.171
 5995TIP3    H217947   4.663   2.120   4.289
 5996TIP3   OH217948   4.924   2.445   4.990
 5996TIP3    H117949   4.952   2.495   5.069
 5996TIP3    H217950   4.977   2.364   4.994
 5997TIP3   OH217951   4.884   1.904   4.336
 5997TIP3    H117952   4.792   1.935   4.335
 5997TIP3    H217953   4.905   1.900   4.240
 5998TIP3   OH217954   4.217   3.138   3.839
 5998TIP3    H117955   4.182   3.204   3.774
 5998TIP3    H217956   4.194   3.181   3.924
 5999TIP3   OH217957   4.307   1.856   4.078
 5999TIP3    H117958   4.310   1.946   4.116
 5999TIP3    H217959   4.403   1.833   4.084
 6000TIP3   OH217960   5.565   2.345   4.977
 6000TIP3    H117961   5.467   2.345   4.982
 6000TIP3    H217962   5.578   2.307   4.889
 6001TIP3   OH217963   5.216   2.541   4.362
 6001TIP3    H117964   5.139   2.481   4.372
 6001TIP3    H217965   5.286   2.492   4.410
 6002TIP3   OH217966   3.930   2.764   3.831
 6002TIP3    H117967   3.997   2.834   3.839
 6002TIP3    H217968   3.974   2.708   3.763
 6003TIP3   OH217969   3.868   2.045   3.967
 6003TIP3    H117970   3.875   2.142   3.965
 6003TIP3    H217971   3.789   2.031   3.915
 6004TIP3   OH217972   5.186   3.499   4.312
 6004TIP3    H117973   5.140   3.548   4.240
 6004TIP3    H217974   5.279   3.518   4.288
 6005TIP3   OH217975   4.258   1.767   4.837
 6005TIP3    H117976   4.232   1.734   4.748
 6005TIP3    H217977   4.249   1.687   4.892
 6006TIP3   OH217978   3.790   2.975   4.213
 6006TIP3    H117979   3.732   3.012   4.281
 6006TIP3    H217980   3.757   3.022   4.132
 6007TIP3   OH217981   3.958   3.531   5.289
 6007TIP3    H117982   4.045   3.532   5.336
 6007TIP3    H217983   3.938   3.436   5.289
 6008TIP3   OH217984   4.438   3.486   5.335
 6008TIP3    H117985   4.532   3.467   5.338
 6008TIP3    H217986   4.408   3.426   5.264
 6009TIP3   OH217987   4.420   3.064   3.461
 6009TIP3    H117988   4.364   2.991   3.497
 6009TIP3    H217989   4.495   3.013   3.425
 6010TIP3   OH217990   5.076   3.400   5.069
 6010TIP3    H117991   5.069   3.329   5.137
 6010TIP3    H217992   5.155   3.449   5.099
 6011TIP3   OH217993   4.852   3.104   3.374
 6011TIP3    H117994   4.897   3.041   3.433
 6011TIP3    H217995   4.909   3.105   3.294
 6012TIP3   OH217996   4.087   2.933   5.490
 6012TIP3    H117997   4.101   2.836   5.495
 6012TIP3    H217998   4.000   2.938   5.444
 6013TIP3   OH217999   4.066   2.580   3.685
 6013TIP3    H118000   4.123   2.552   3.759
 6013TIP3    H218001   4.133   2.586   3.613
 6014TIP3   OH218002   4.694   3.021   5.264
 6014TIP3    H118003   4.651   3.042   5.178
 6014TIP3    H218004   4.723   2.928   5.252
 6015TIP3   OH218005   4.582   2.783   3.493
 6015TIP3    H118006   4.582   2.793   3.590
 6015TIP3    H218007   4.581   2.685   3.486
 6016TIP3   OH218008   5.188   3.031   4.873
 6016TIP3    H118009   5.263   3.074   4.828
 6016TIP3    H218010   5.117   3.096   4.855
 6017TIP3   OH218011   4.206   2.668   5.477
 6017TIP3    H118012   4.285   2.624   5.444
 6017TIP3    H218013   4.236   2.703   5.563
 6018TIP3   OH218014   4.271   2.489   3.904
 6018TIP3    H118015   4.244   2.448   3.988
 6018TIP3    H218016   4.309   2.414   3.855
 6019TIP3   OH218017   4.543   2.552   5.137
 6019TIP3    H118018   4.464   2.610   5.135
 6019TIP3    H218019   4.594   2.587   5.060
 6020TIP3   OH218020   4.374   2.284   3.745
 6020TIP3    H118021   4.350   2.292   3.650
 6020TIP3    H218022   4.472   2.285   3.739
 6021TIP3   OH218023   5.060   2.955   5.268
 6021TIP3    H118024   5.136   2.924   5.217
 6021TIP3    H218025   5.053   2.889   5.339
 6022TIP3   OH218026   5.193   2.610   3.413
 6022TIP3    H118027   5.173   2.567   3.327
 6022TIP3    H218028   5.161   2.701   3.393
 6023TIP3   OH218029   4.668   2.342   5.256
 6023TIP3    H118030   4.667   2.264   5.197
 6023TIP3    H218031   4.623   2.410   5.200
 6024TIP3   OH218032   4.668   2.128   5.069
 6024TIP3    H118033   4.697   2.169   4.985
 6024TIP3    H218034   4.575   2.106   5.049
 6025TIP3   OH218035   4.691   2.663   4.944
 6025TIP3    H118036   4.776   2.674   4.899
 6025TIP3    H218037   4.634   2.727   4.896
 6026TIP3   OH218038   5.276   2.629   5.319
 6026TIP3    H118039   5.327   2.547   5.318
 6026TIP3    H218040   5.340   2.692   5.283
 6027TIP3   OH218041   5.316   2.883   5.058
 6027TIP3    H118042   5.259   2.937   4.999
 6027TIP3    H218043   5.404   2.904   5.019
 6028TIP3   OH218044   4.548   2.445   5.494
 6028TIP3    H118045   4.478   2.378   5.508
 6028TIP3    H218046   4.577   2.425   5.403
 6029TIP3   OH218047   4.800   1.891   5.140
 6029TIP3    H118048   4.750   1.971   5.113
 6029TIP3    H218049   4.734   1.821   5.123
 6030TIP3   OH218050   4.925   2.390   5.352
 6030TIP3    H118051   4.903   2.377   5.446
 6030TIP3    H218052   4.838   2.368   5.312
 6031TIP3   OH218053   5.164   2.348   5.208
 6031TIP3    H118054   5.088   2.347   5.269
 6031TIP3    H218055   5.238   2.318   5.264
 6032TIP3   OH218056   5.396   2.289   5.356
 6032TIP3    H118057   5.406   2.194   5.374
 6032TIP3    H218058   5.391   2.328   5.446
 6033TIP3   OH218059   4.381   2.229   5.546
 6033TIP3    H118060   4.385   2.137   5.513
 6033TIP3    H218061   4.418   2.217   5.636
 6034TIP3   OH218062   4.893   1.898   5.397
 6034TIP3    H118063   4.956   1.824   5.386
 6034TIP3    H218064   4.852   1.899   5.308
 6035TIP3   OH218065   4.962   2.112   5.554
 6035TIP3    H118066   4.939   2.043   5.489
 6035TIP3    H218067   4.884   2.172   5.547
 6036TIP3   OH218068   4.182   3.329   3.643
 6036TIP3    H118069   4.277   3.324   3.624
 6036TIP3    H218070   4.152   3.381   3.565
 6037TIP3   OH218071   3.660   2.725   3.867
 6037TIP3    H118072   3.755   2.746   3.852
 6037TIP3    H218073   3.654   2.637   3.825
 6038TIP3   OH218074   3.580   3.336   4.265
 6038TIP3    H118075   3.503   3.280   4.240
 6038TIP3    H218076   3.617   3.283   4.338
 6039TIP3   OH218077   3.713   3.184   4.462
 6039TIP3    H118078   3.693   3.118   4.530
 6039TIP3    H218079   3.763   3.249   4.515
 6040TIP3   OH218080   5.441   3.587   4.270
 6040TIP3    H118081   5.469   3.618   4.359
 6040TIP3    H218082   5.506   3.629   4.212
 6041TIP3   OH218083   5.470   3.607   4.552
 6041TIP3    H118084   5.423   3.521   4.548
 6041TIP3    H218085   5.544   3.582   4.610
 6042TIP3   OH218086   5.514   3.285   5.126
 6042TIP3    H118087   5.442   3.297   5.191
 6042TIP3    H218088   5.557   3.373   5.128
 6043TIP3   OH218089   5.331   2.796   3.743
 6043TIP3    H118090   5.397   2.862   3.712
 6043TIP3    H218091   5.377   2.760   3.822
 6044TIP3   OH218092   5.460   2.664   3.948
 6044TIP3    H118093   5.392   2.623   4.006
 6044TIP3    H218094   5.523   2.701   4.013
 6045TIP3   OH218095   5.516   3.060   4.380
 6045TIP3    H118096   5.567   2.991   4.333
 6045TIP3    H218097   5.511   3.131   4.313
 6046TIP3   OH218098   5.343   3.359   4.573
 6046TIP3    H118099   5.270   3.400   4.624
 6046TIP3    H218100   5.295   3.314   4.501
 6047TIP3   OH218101   5.396   2.574   3.592
 6047TIP3    H118102   5.325   2.575   3.525
 6047TIP3    H218103   5.367   2.649   3.648
 6048TIP3   OH218104   5.269   2.244   3.544
 6048TIP3    H118105   5.220   2.281   3.470
 6048TIP3    H218106   5.246   2.149   3.537
 6049TIP3   OH218107   5.271   2.524   4.093
 6049TIP3    H118108   5.277   2.427   4.084
 6049TIP3    H218109   5.256   2.535   4.189
 6050TIP3   OH218110   3.897   2.590   4.844
 6050TIP3    H118111   3.894   2.560   4.750
 6050TIP3    H218112   3.994   2.595   4.858
 6051TIP3   OH218113   5.562   2.949   4.952
 6051TIP3    H118114   5.633   2.882   4.940
 6051TIP3    H218115   5.586   3.016   4.886
 6052TIP3   OH218116   5.743   2.748   4.961
 6052TIP3    H118117   5.669   2.698   5.002
 6052TIP3    H218118   5.817   2.685   4.978
 6053TIP3   OH218119   5.211   1.978   3.526
 6053TIP3    H118120   5.282   1.947   3.587
 6053TIP3    H218121   5.135   1.922   3.550
 6054TIP3   OH218122   5.270   2.240   3.984
 6054TIP3    H118123   5.310   2.151   4.000
 6054TIP3    H218124   5.328   2.271   3.913
 6055TIP3   OH218125   5.429   2.409   4.485
 6055TIP3    H118126   5.514   2.434   4.442
 6055TIP3    H218127   5.444   2.448   4.573
 6056TIP3   OH218128   5.502   2.557   4.714
 6056TIP3    H118129   5.423   2.591   4.761
 6056TIP3    H218130   5.534   2.638   4.668
 6057TIP3   OH218131   4.114   2.279   5.512
 6057TIP3    H118132   4.212   2.275   5.516
 6057TIP3    H218133   4.091   2.192   5.553
 6058TIP3   OH218134   5.946   2.145   5.269
 6058TIP3    H118135   6.010   2.083   5.226
 6058TIP3    H218136   5.917   2.199   5.193
 6059TIP3   OH218137   5.377   1.990   4.024
 6059TIP3    H118138   5.423   1.973   4.109
 6059TIP3    H218139   5.314   1.915   4.023
 6060TIP3   OH218140   4.075   1.976   4.850
 6060TIP3    H118141   4.136   1.900   4.855
 6060TIP3    H218142   4.138   2.050   4.838
 6061TIP3   OH218143   3.878   2.247   4.917
 6061TIP3    H118144   3.928   2.244   4.833
 6061TIP3    H218145   3.901   2.334   4.951
 6062TIP3   OH218146   5.818   2.283   5.075
 6062TIP3    H118147   5.733   2.330   5.089
 6062TIP3    H218148   5.787   2.212   5.016
 6063TIP3   OH218149   5.455   1.921   3.660
 6063TIP3    H118150   5.495   1.851   3.605
 6063TIP3    H218151   5.523   1.991   3.657
 6064TIP3   OH218152   3.862   1.744   4.415
 6064TIP3    H118153   3.770   1.746   4.446
 6064TIP3    H218154   3.859   1.807   4.340
 6065TIP3   OH218155   5.032   3.451   3.933
 6065TIP3    H118156   5.066   3.444   3.841
 6065TIP3    H218157   5.080   3.529   3.965
 6066TIP3   OH218158   4.084   1.830   5.233
 6066TIP3    H118159   4.032   1.829   5.315
 6066TIP3    H218160   4.020   1.869   5.170
 6067TIP3   OH218161   4.125   3.256   5.309
 6067TIP3    H118162   4.031   3.236   5.292
 6067TIP3    H218163   4.131   3.246   5.404
 6068TIP3   OH218164   4.304   3.296   4.858
 6068TIP3    H118165   4.253   3.370   4.819
 6068TIP3    H218166   4.389   3.311   4.811
 6069TIP3   OH218167   4.746   3.535   4.993
 6069TIP3    H118168   4.784   3.533   5.083
 6069TIP3    H218169   4.814   3.587   4.946
 6070TIP3   OH218170   4.936   3.683   4.860
 6070TIP3    H118171   4.974   3.624   4.794
 6070TIP3    H218172   5.015   3.722   4.900
 6071TIP3   OH218173   5.718   2.048   4.957
 6071TIP3    H118174   5.630   2.041   4.915
 6071TIP3    H218175   5.752   1.956   4.945
 6072TIP3   OH218176   3.979   3.544   4.887
 6072TIP3    H118177   3.890   3.574   4.858
 6072TIP3    H218178   3.989   3.598   4.967
 6073TIP3   OH218179   4.214   3.528   4.739
 6073TIP3    H118180   4.127   3.540   4.783
 6073TIP3    H218181   4.196   3.564   4.650
 6074TIP3   OH218182   4.641   3.555   4.539
 6074TIP3    H118183   4.568   3.568   4.475
 6074TIP3    H218184   4.649   3.645   4.576
 6075TIP3   OH218185   4.908   3.501   4.599
 6075TIP3    H118186   4.814   3.514   4.574
 6075TIP3    H218187   4.953   3.564   4.539
 6076TIP3   OH218188   5.117   3.687   4.502
 6076TIP3    H118189   5.100   3.770   4.453
 6076TIP3    H218190   5.143   3.626   4.429
 6077TIP3   OH218191   3.882   3.334   4.629
 6077TIP3    H118192   3.914   3.308   4.718
 6077TIP3    H218193   3.956   3.300   4.575
 6078TIP3   OH218194   4.082   3.215   4.486
 6078TIP3    H118195   4.097   3.132   4.536
 6078TIP3    H218196   4.173   3.251   4.481
 6079TIP3   OH218197   4.350   3.302   4.486
 6079TIP3    H118198   4.381   3.209   4.483
 6079TIP3    H218199   4.394   3.331   4.568
 6080TIP3   OH218200   4.935   1.972   4.597
 6080TIP3    H118201   4.891   1.898   4.643
 6080TIP3    H218202   4.931   1.942   4.503
 6081TIP3   OH218203   5.455   1.849   4.482
 6081TIP3    H118204   5.486   1.898   4.403
 6081TIP3    H218205   5.357   1.853   4.470
 6082TIP3   OH218206   5.542   1.943   4.241
 6082TIP3    H118207   5.616   1.892   4.202
 6082TIP3    H218208   5.574   2.034   4.227
 6083TIP3   OH218209   4.172   1.677   4.587
 6083TIP3    H118210   4.080   1.645   4.589
 6083TIP3    H218211   4.220   1.591   4.583
 6084TIP3   OH218212   3.962   1.543   4.236
 6084TIP3    H118213   3.993   1.600   4.163
 6084TIP3    H218214   3.935   1.609   4.303
 6085TIP3   OH218215   5.188   1.846   4.443
 6085TIP3    H118216   5.123   1.840   4.372
 6085TIP3    H218217   5.154   1.780   4.507
 6086TIP3   OH218218   5.193   1.779   4.016
 6086TIP3    H118219   5.109   1.826   4.033
 6086TIP3    H218220   5.175   1.693   4.061
 6087TIP3   OH218221   3.678   3.117   4.012
 6087TIP3    H118222   3.591   3.088   3.979
 6087TIP3    H218223   3.674   3.211   3.988
 6088TIP3   OH218224   4.080   1.699   4.002
 6088TIP3    H118225   4.129   1.639   3.942
 6088TIP3    H218226   4.153   1.755   4.036
 6089TIP3   OH218227   4.582   1.863   4.098
 6089TIP3    H118228   4.625   1.789   4.145
 6089TIP3    H218229   4.626   1.942   4.136
 6090TIP3   OH218230   4.451   3.296   3.596
 6090TIP3    H118231   4.538   3.321   3.557
 6090TIP3    H218232   4.428   3.222   3.535
 6091TIP3   OH218233   5.162   3.429   3.686
 6091TIP3    H118234   5.160   3.331   3.678
 6091TIP3    H218235   5.097   3.454   3.619
 6092TIP3   OH218236   4.380   1.953   5.481
 6092TIP3    H118237   4.344   1.883   5.537
 6092TIP3    H218238   4.474   1.953   5.509
 6093TIP3   OH218239   4.631   1.952   5.600
 6093TIP3    H118240   4.714   1.926   5.557
 6093TIP3    H218241   4.619   1.880   5.666
 6094TIP3   OH218242   3.753   3.138   3.652
 6094TIP3    H118243   3.746   3.160   3.746
 6094TIP3    H218244   3.841   3.096   3.645
 6095TIP3   OH218245   5.466   2.016   5.386
 6095TIP3    H118246   5.506   1.969   5.459
 6095TIP3    H218247   5.543   2.024   5.325
 6096TIP3   OH218248   5.389   3.574   4.881
 6096TIP3    H118249   5.313   3.542   4.828
 6096TIP3    H218250   5.367   3.669   4.887
 6097TIP3   OH218251   6.662   2.940   3.642
 6097TIP3    H118252   6.631   3.030   3.622
 6097TIP3    H218253   6.585   2.888   3.611
 6098TIP3   OH218254   6.658   2.939   4.031
 6098TIP3    H118255   6.696   2.915   4.118
 6098TIP3    H218256   6.620   2.855   4.003
 6099TIP3   OH218257   5.957   2.832   4.393
 6099TIP3    H118258   5.987   2.762   4.454
 6099TIP3    H218259   6.039   2.883   4.383
 6100TIP3   OH218260   6.905   3.245   3.709
 6100TIP3    H118261   6.890   3.174   3.773
 6100TIP3    H218262   6.936   3.318   3.766
 6101TIP3   OH218263   5.931   3.244   4.113
 6101TIP3    H118264   5.923   3.146   4.114
 6101TIP3    H218265   6.028   3.253   4.110
 6102TIP3   OH218266   5.638   2.444   3.896
 6102TIP3    H118267   5.590   2.526   3.916
 6102TIP3    H218268   5.567   2.392   3.855
 6103TIP3   OH218269   5.695   2.732   4.078
 6103TIP3    H118270   5.744   2.654   4.111
 6103TIP3    H218271   5.754   2.766   4.010
 6104TIP3   OH218272   6.558   3.704   3.728
 6104TIP3    H118273   6.599   3.632   3.676
 6104TIP3    H218274   6.548   3.662   3.815
 6105TIP3   OH218275   6.458   3.165   4.075
 6105TIP3    H118276   6.499   3.087   4.035
 6105TIP3    H218277   6.540   3.213   4.101
 6106TIP3   OH218278   7.446   2.492   4.076
 6106TIP3    H118279   7.492   2.568   4.116
 6106TIP3    H218280   7.497   2.479   3.995
 6107TIP3   OH218281   6.868   2.664   4.105
 6107TIP3    H118282   6.916   2.581   4.127
 6107TIP3    H218283   6.840   2.645   4.014
 6108TIP3   OH218284   6.212   2.324   4.071
 6108TIP3    H118285   6.192   2.397   4.008
 6108TIP3    H218286   6.163   2.251   4.027
 6109TIP3   OH218287   6.904   2.416   3.688
 6109TIP3    H118288   6.971   2.405   3.759
 6109TIP3    H218289   6.960   2.451   3.617
 6110TIP3   OH218290   5.843   2.525   4.179
 6110TIP3    H118291   5.926   2.507   4.227
 6110TIP3    H218292   5.857   2.470   4.099
 6111TIP3   OH218293   6.282   2.723   3.976
 6111TIP3    H118294   6.377   2.699   3.986
 6111TIP3    H218295   6.245   2.639   3.942
 6112TIP3   OH218296   7.541   2.712   4.221
 6112TIP3    H118297   7.450   2.748   4.222
 6112TIP3    H218298   7.563   2.712   4.315
 6113TIP3   OH218299   6.206   2.308   4.507
 6113TIP3    H118300   6.147   2.345   4.438
 6113TIP3    H218301   6.152   2.327   4.587
 6114TIP3   OH218302   6.552   3.161   3.510
 6114TIP3    H118303   6.506   3.143   3.427
 6114TIP3    H218304   6.505   3.242   3.540
 6115TIP3   OH218305   6.313   3.084   4.297
 6115TIP3    H118306   6.253   3.153   4.335
 6115TIP3    H218307   6.356   3.132   4.224
 6116TIP3   OH218308   7.100   2.433   3.871
 6116TIP3    H118309   7.109   2.373   3.946
 6116TIP3    H218310   7.156   2.508   3.899
 6117TIP3   OH218311   6.078   2.423   4.289
 6117TIP3    H118312   6.140   2.495   4.314
 6117TIP3    H218313   6.127   2.383   4.214
 6118TIP3   OH218314   6.142   3.281   4.398
 6118TIP3    H118315   6.116   3.368   4.363
 6118TIP3    H218316   6.063   3.263   4.453
 6119TIP3   OH218317   5.532   2.969   3.633
 6119TIP3    H118318   5.491   2.996   3.549
 6119TIP3    H218319   5.564   3.054   3.668
 6120TIP3   OH218320   6.971   3.486   3.872
 6120TIP3    H118321   6.882   3.476   3.913
 6120TIP3    H218322   6.962   3.574   3.829
 6121TIP3   OH218323   7.258   2.377   4.241
 6121TIP3    H118324   7.173   2.409   4.207
 6121TIP3    H218325   7.322   2.417   4.176
 6122TIP3   OH218326   6.558   2.023   4.221
 6122TIP3    H118327   6.542   1.928   4.240
 6122TIP3    H218328   6.482   2.063   4.269
 6123TIP3   OH218329   6.671   3.529   3.544
 6123TIP3    H118330   6.722   3.446   3.529
 6123TIP3    H218331   6.735   3.593   3.505
 6124TIP3   OH218332   6.820   3.315   3.457
 6124TIP3    H118333   6.773   3.236   3.427
 6124TIP3    H218334   6.858   3.283   3.542
 6125TIP3   OH218335   7.197   3.395   4.218
 6125TIP3    H118336   7.185   3.317   4.159
 6125TIP3    H218337   7.181   3.469   4.156
 6126TIP3   OH218338   6.491   2.789   3.478
 6126TIP3    H118339   6.412   2.843   3.457
 6126TIP3    H218340   6.537   2.788   3.392
 6127TIP3   OH218341   6.449   2.578   3.187
 6127TIP3    H118342   6.514   2.629   3.238
 6127TIP3    H218343   6.508   2.514   3.141
 6128TIP3   OH218344   7.395   3.041   4.071
 6128TIP3    H118345   7.311   3.090   4.073
 6128TIP3    H218346   7.415   3.043   3.975
 6129TIP3   OH218347   6.840   2.874   3.445
 6129TIP3    H118348   6.786   2.896   3.524
 6129TIP3    H218349   6.924   2.848   3.489
 6130TIP3   OH218350   7.071   2.910   4.366
 6130TIP3    H118351   7.069   2.993   4.418
 6130TIP3    H218352   6.985   2.916   4.320
 6131TIP3   OH218353   6.072   2.869   3.865
 6131TIP3    H118354   6.031   2.811   3.798
 6131TIP3    H218355   6.148   2.815   3.896
 6132TIP3   OH218356   6.202   3.284   4.012
 6132TIP3    H118357   6.182   3.246   3.925
 6132TIP3    H218358   6.291   3.246   4.030
 6133TIP3   OH218359   6.205   2.841   4.220
 6133TIP3    H118360   6.239   2.815   4.132
 6133TIP3    H218361   6.250   2.927   4.236
 6134TIP3   OH218362   6.732   3.479   3.996
 6134TIP3    H118363   6.721   3.559   4.050
 6134TIP3    H218364   6.716   3.406   4.059
 6135TIP3   OH218365   6.347   3.397   4.543
 6135TIP3    H118366   6.286   3.458   4.590
 6135TIP3    H218367   6.283   3.344   4.492
 6136TIP3   OH218368   6.677   2.732   3.274
 6136TIP3    H118369   6.737   2.792   3.324
 6136TIP3    H218370   6.704   2.753   3.181
 6137TIP3   OH218371   6.102   2.951   4.650
 6137TIP3    H118372   6.106   3.041   4.690
 6137TIP3    H218373   6.007   2.932   4.661
 6138TIP3   OH218374   6.425   3.406   3.550
 6138TIP3    H118375   6.507   3.459   3.558
 6138TIP3    H218376   6.364   3.468   3.508
 6139TIP3   OH218377   6.140   3.561   4.631
 6139TIP3    H118378   6.103   3.565   4.540
 6139TIP3    H218379   6.059   3.541   4.684
 6140TIP3   OH218380   7.193   1.984   3.330
 6140TIP3    H118381   7.111   2.004   3.379
 6140TIP3    H218382   7.209   2.068   3.283
 6141TIP3   OH218383   5.939   2.713   3.667
 6141TIP3    H118384   5.869   2.756   3.614
 6141TIP3    H218385   5.901   2.626   3.681
 6142TIP3   OH218386   6.998   3.337   2.868
 6142TIP3    H118387   7.005   3.434   2.855
 6142TIP3    H218388   7.090   3.309   2.855
 6143TIP3   OH218389   5.717   3.097   4.577
 6143TIP3    H118390   5.650   3.077   4.509
 6143TIP3    H218391   5.756   3.010   4.598
 6144TIP3   OH218392   5.573   3.289   4.209
 6144TIP3    H118393   5.669   3.283   4.199
 6144TIP3    H218394   5.564   3.368   4.265
 6145TIP3   OH218395   7.433   3.742   4.264
 6145TIP3    H118396   7.436   3.647   4.284
 6145TIP3    H218397   7.351   3.768   4.312
 6146TIP3   OH218398   6.541   3.527   4.400
 6146TIP3    H118399   6.539   3.619   4.433
 6146TIP3    H218400   6.471   3.485   4.454
 6147TIP3   OH218401   6.308   3.656   3.350
 6147TIP3    H118402   6.257   3.636   3.270
 6147TIP3    H218403   6.271   3.741   3.378
 6148TIP3   OH218404   5.744   3.503   3.738
 6148TIP3    H118405   5.789   3.494   3.825
 6148TIP3    H218406   5.693   3.421   3.735
 6149TIP3   OH218407   6.506   3.558   2.990
 6149TIP3    H118408   6.565   3.487   2.956
 6149TIP3    H218409   6.538   3.568   3.082
 6150TIP3   OH218410   6.557   3.605   3.259
 6150TIP3    H118411   6.468   3.616   3.299
 6150TIP3    H218412   6.606   3.565   3.333
 6151TIP3   OH218413   7.328   2.873   4.540
 6151TIP3    H118414   7.245   2.883   4.491
 6151TIP3    H218415   7.346   2.778   4.528
 6152TIP3   OH218416   5.922   3.279   4.561
 6152TIP3    H118417   5.971   3.264   4.645
 6152TIP3    H218418   5.848   3.217   4.570
 6153TIP3   OH218419   6.322   2.101   4.352
 6153TIP3    H118420   6.234   2.071   4.322
 6153TIP3    H218421   6.296   2.183   4.400
 6154TIP3   OH218422   6.859   2.216   4.545
 6154TIP3    H118423   6.929   2.188   4.607
 6154TIP3    H218424   6.776   2.197   4.594
 6155TIP3   OH218425   7.087   2.644   4.460
 6155TIP3    H118426   7.039   2.644   4.546
 6155TIP3    H218427   7.070   2.733   4.426
 6156TIP3   OH218428   6.754   2.773   3.018
 6156TIP3    H118429   6.720   2.751   2.930
 6156TIP3    H218430   6.839   2.816   2.995
 6157TIP3   OH218431   6.467   2.150   3.323
 6157TIP3    H118432   6.433   2.146   3.414
 6157TIP3    H218433   6.427   2.069   3.287
 6158TIP3   OH218434   6.254   2.619   4.369
 6158TIP3    H118435   6.204   2.641   4.450
 6158TIP3    H218436   6.238   2.701   4.315
 6159TIP3   OH218437   6.138   2.505   3.883
 6159TIP3    H118438   6.045   2.478   3.902
 6159TIP3    H218439   6.149   2.463   3.794
 6160TIP3   OH218440   6.629   2.589   3.612
 6160TIP3    H118441   6.579   2.661   3.567
 6160TIP3    H218442   6.685   2.555   3.539
 6161TIP3   OH218443   6.804   2.865   4.694
 6161TIP3    H118444   6.783   2.792   4.757
 6161TIP3    H218445   6.897   2.881   4.716
 6162TIP3   OH218446   6.783   2.615   3.848
 6162TIP3    H118447   6.721   2.641   3.777
 6162TIP3    H218448   6.820   2.536   3.805
 6163TIP3   OH218449   6.073   2.647   4.576
 6163TIP3    H118450   6.105   2.711   4.642
 6163TIP3    H218451   6.063   2.566   4.630
 6164TIP3   OH218452   6.123   2.125   3.287
 6164TIP3    H118453   6.113   2.124   3.384
 6164TIP3    H218454   6.046   2.179   3.261
 6165TIP3   OH218455   5.667   2.167   4.159
 6165TIP3    H118456   5.742   2.199   4.212
 6165TIP3    H218457   5.708   2.137   4.077
 6166TIP3   OH218458   5.633   2.148   3.676
 6166TIP3    H118459   5.679   2.185   3.598
 6166TIP3    H218460   5.572   2.222   3.695
 6167TIP3   OH218461   6.791   2.862   4.269
 6167TIP3    H118462   6.826   2.791   4.210
 6167TIP3    H218463   6.763   2.808   4.345
 6168TIP3   OH218464   6.468   2.326   3.942
 6168TIP3    H118465   6.389   2.326   3.998
 6168TIP3    H218466   6.540   2.319   4.007
 6169TIP3   OH218467   5.899   2.384   3.950
 6169TIP3    H118468   5.805   2.392   3.922
 6169TIP3    H218469   5.921   2.291   3.928
 6170TIP3   OH218470   6.164   2.377   3.642
 6170TIP3    H118471   6.258   2.392   3.621
 6170TIP3    H218472   6.118   2.399   3.558
 6171TIP3   OH218473   6.958   2.404   4.151
 6171TIP3    H118474   6.922   2.417   4.241
 6171TIP3    H218475   6.892   2.344   4.113
 6172TIP3   OH218476   6.015   2.413   3.418
 6172TIP3    H118477   5.943   2.368   3.371
 6172TIP3    H218478   6.066   2.450   3.343
 6173TIP3   OH218479   7.131   4.092   4.367
 6173TIP3    H118480   7.130   4.118   4.274
 6173TIP3    H218481   7.211   4.139   4.399
 6174TIP3   OH218482   6.086   3.201   4.785
 6174TIP3    H118483   6.165   3.231   4.833
 6174TIP3    H218484   6.021   3.201   4.858
 6175TIP3   OH218485   6.547   2.656   4.040
 6175TIP3    H118486   6.623   2.620   3.991
 6175TIP3    H218487   6.555   2.611   4.126
 6176TIP3   OH218488   6.068   2.141   3.924
 6176TIP3    H118489   6.030   2.065   3.973
 6176TIP3    H218490   6.114   2.097   3.851
 6177TIP3   OH218491   6.524   2.554   4.332
 6177TIP3    H118492   6.435   2.591   4.345
 6177TIP3    H218493   6.582   2.616   4.380
 6178TIP3   OH218494   6.261   2.942   3.425
 6178TIP3    H118495   6.189   2.876   3.413
 6178TIP3    H218496   6.240   2.976   3.515
 6179TIP3   OH218497   7.158   3.178   4.053
 6179TIP3    H118498   7.180   3.232   3.974
 6179TIP3    H218499   7.075   3.133   4.025
 6180TIP3   OH218500   6.717   2.255   3.286
 6180TIP3    H118501   6.622   2.234   3.300
 6180TIP3    H218502   6.725   2.347   3.317
 6181TIP3   OH218503   6.657   3.260   4.423
 6181TIP3    H118504   6.694   3.244   4.511
 6181TIP3    H218505   6.621   3.350   4.431
 6182TIP3   OH218506   6.788   2.502   3.394
 6182TIP3    H118507   6.884   2.508   3.411
 6182TIP3    H218508   6.770   2.584   3.344
 6183TIP3   OH218509   5.955   2.967   4.099
 6183TIP3    H118510   5.993   2.937   4.013
 6183TIP3    H218511   5.999   2.908   4.161
 6184TIP3   OH218512   6.405   3.091   3.247
 6184TIP3    H118513   6.356   3.177   3.251
 6184TIP3    H218514   6.351   3.037   3.308
 6185TIP3   OH218515   5.837   2.884   4.715
 6185TIP3    H118516   5.853   2.870   4.810
 6185TIP3    H218517   5.767   2.819   4.697
 6186TIP3   OH218518   6.564   3.001   4.734
 6186TIP3    H118519   6.503   2.942   4.687
 6186TIP3    H218520   6.651   2.965   4.706
 6187TIP3   OH218521   6.818   3.521   4.319
 6187TIP3    H118522   6.722   3.521   4.334
 6187TIP3    H218523   6.848   3.573   4.397
 6188TIP3   OH218524   7.228   2.589   3.231
 6188TIP3    H118525   7.167   2.550   3.165
 6188TIP3    H218526   7.233   2.679   3.194
 6189TIP3   OH218527   7.447   3.449   4.305
 6189TIP3    H118528   7.350   3.444   4.295
 6189TIP3    H218529   7.477   3.421   4.216
 6190TIP3   OH218530   6.934   3.413   3.138
 6190TIP3    H118531   6.903   3.348   3.204
 6190TIP3    H218532   6.941   3.359   3.057
 6191TIP3   OH218533   6.926   3.043   3.968
 6191TIP3    H118534   6.832   3.018   3.982
 6191TIP3    H218535   6.959   2.961   3.924
 6192TIP3   OH218536   6.056   3.271   3.726
 6192TIP3    H118537   6.050   3.351   3.671
 6192TIP3    H218538   5.963   3.250   3.739
 6193TIP3   OH218539   5.621   2.572   3.433
 6193TIP3    H118540   5.664   2.657   3.454
 6193TIP3    H218541   5.543   2.575   3.493
 6194TIP3   OH218542   6.188   3.033   3.667
 6194TIP3    H118543   6.154   3.122   3.688
 6194TIP3    H218544   6.154   2.982   3.743
 6195TIP3   OH218545   6.326   3.612   4.194
 6195TIP3    H118546   6.370   3.684   4.145
 6195TIP3    H218547   6.401   3.574   4.243
 6196TIP3   OH218548   5.972   3.510   3.577
 6196TIP3    H118549   5.887   3.517   3.625
 6196TIP3    H218550   6.004   3.602   3.580
 6197TIP3   OH218551   6.709   3.246   4.155
 6197TIP3    H118552   6.698   3.244   4.253
 6197TIP3    H218553   6.790   3.194   4.145
 6198TIP3   OH218554   6.690   3.145   3.036
 6198TIP3    H118555   6.743   3.117   3.115
 6198TIP3    H218556   6.602   3.113   3.063
 6199TIP3   OH218557   6.959   3.776   4.204
 6199TIP3    H118558   6.879   3.721   4.199
 6199TIP3    H218559   6.943   3.841   4.132
 6200TIP3   OH218560   7.026   3.619   2.852
 6200TIP3    H118561   7.057   3.699   2.805
 6200TIP3    H218562   6.944   3.655   2.892
 6201TIP3   OH218563   6.043   2.391   4.720
 6201TIP3    H118564   5.946   2.392   4.731
 6201TIP3    H218565   6.070   2.333   4.793
 6202TIP3   OH218566   6.849   3.071   3.248
 6202TIP3    H118567   6.838   3.008   3.322
 6202TIP3    H218568   6.947   3.068   3.239
 6203TIP3   OH218569   5.763   3.473   4.352
 6203TIP3    H118570   5.817   3.400   4.387
 6203TIP3    H218571   5.789   3.545   4.411
 6204TIP3   OH218572   6.053   3.120   3.037
 6204TIP3    H118573   6.064   3.026   3.011
 6204TIP3    H218574   6.032   3.111   3.132
 6205TIP3   OH218575   5.997   3.126   3.308
 6205TIP3    H118576   6.069   3.098   3.366
 6205TIP3    H218577   6.000   3.223   3.317
 6206TIP3   OH218578   5.730   2.817   3.514
 6206TIP3    H118579   5.663   2.862   3.570
 6206TIP3    H218580   5.742   2.885   3.445
 6207TIP3   OH218581   6.880   2.456   4.409
 6207TIP3    H118582   6.964   2.495   4.440
 6207TIP3    H218583   6.873   2.375   4.463
 6208TIP3   OH218584   6.766   2.202   3.574
 6208TIP3    H118585   6.753   2.226   3.480
 6208TIP3    H218586   6.806   2.284   3.611
 6209TIP3   OH218587   6.265   3.323   3.256
 6209TIP3    H118588   6.178   3.344   3.295
 6209TIP3    H218589   6.277   3.399   3.198
 6210TIP3   OH218590   6.448   2.388   3.673
 6210TIP3    H118591   6.513   2.460   3.657
 6210TIP3    H218592   6.455   2.377   3.770
 6211TIP3   OH218593   6.722   2.702   4.478
 6211TIP3    H118594   6.749   2.753   4.557
 6211TIP3    H218595   6.775   2.621   4.485
 6212TIP3   OH218596   6.593   2.106   3.772
 6212TIP3    H118597   6.592   2.181   3.834
 6212TIP3    H218598   6.656   2.140   3.704
 6213TIP3   OH218599   6.012   3.397   3.328
 6213TIP3    H118600   5.980   3.467   3.266
 6213TIP3    H218601   5.993   3.440   3.415
 6214TIP3   OH218602   6.108   2.113   3.563
 6214TIP3    H118603   6.106   2.202   3.602
 6214TIP3    H218604   6.204   2.095   3.571
 6215TIP3   OH218605   7.358   2.614   4.452
 6215TIP3    H118606   7.260   2.605   4.460
 6215TIP3    H218607   7.373   2.556   4.376
 6216TIP3   OH218608   7.006   2.801   3.847
 6216TIP3    H118609   6.932   2.739   3.859
 6216TIP3    H218610   7.079   2.756   3.896
 6217TIP3   OH218611   5.726   3.022   3.318
 6217TIP3    H118612   5.794   3.091   3.326
 6217TIP3    H218613   5.769   2.965   3.250
 6218TIP3   OH218614   5.667   2.302   3.451
 6218TIP3    H118615   5.670   2.400   3.450
 6218TIP3    H218616   5.584   2.284   3.406
 6219TIP3   OH218617   6.980   3.756   3.795
 6219TIP3    H118618   6.938   3.802   3.719
 6219TIP3    H218619   7.074   3.776   3.776
 6220TIP3   OH218620   6.057   2.022   4.322
 6220TIP3    H118621   6.027   1.988   4.235
 6220TIP3    H218622   6.046   1.944   4.380
 6221TIP3   OH218623   5.592   3.245   3.697
 6221TIP3    H118624   5.528   3.272   3.764
 6221TIP3    H218625   5.555   3.287   3.616
 6222TIP3   OH218626   5.758   3.791   4.775
 6222TIP3    H118627   5.843   3.793   4.825
 6222TIP3    H218628   5.739   3.696   4.776
 6223TIP3   OH218629   6.230   3.744   4.822
 6223TIP3    H118630   6.325   3.730   4.828
 6223TIP3    H218631   6.206   3.682   4.750
 6224TIP3   OH218632   6.215   3.321   2.946
 6224TIP3    H118633   6.157   3.252   2.986
 6224TIP3    H218634   6.291   3.267   2.918
 6225TIP3   OH218635   6.874   3.653   4.554
 6225TIP3    H118636   6.866   3.585   4.624
 6225TIP3    H218637   6.951   3.705   4.585
 6226TIP3   OH218638   6.653   3.361   2.864
 6226TIP3    H118639   6.686   3.292   2.925
 6226TIP3    H218640   6.712   3.351   2.787
 6227TIP3   OH218641   5.883   3.189   4.976
 6227TIP3    H118642   5.898   3.092   4.982
 6227TIP3    H218643   5.796   3.193   4.931
 6228TIP3   OH218644   5.863   2.838   3.172
 6228TIP3    H118645   5.919   2.808   3.246
 6228TIP3    H218646   5.930   2.843   3.101
 6229TIP3   OH218647   6.490   3.277   4.751
 6229TIP3    H118648   6.451   3.298   4.664
 6229TIP3    H218649   6.521   3.185   4.739
 6230TIP3   OH218650   6.379   3.041   2.978
 6230TIP3    H118651   6.378   3.051   3.075
 6230TIP3    H218652   6.377   2.943   2.971
 6231TIP3   OH218653   6.982   3.289   4.358
 6231TIP3    H118654   7.059   3.329   4.315
 6231TIP3    H218655   6.914   3.357   4.340
 6232TIP3   OH218656   6.003   2.924   4.962
 6232TIP3    H118657   6.084   2.881   4.931
 6232TIP3    H218658   6.033   2.959   5.049
 6233TIP3   OH218659   6.068   2.746   3.391
 6233TIP3    H118660   6.039   2.706   3.475
 6233TIP3    H218661   6.105   2.669   3.343
 6234TIP3   OH218662   6.337   2.806   4.621
 6234TIP3    H118663   6.260   2.867   4.620
 6234TIP3    H218664   6.390   2.842   4.545
 6235TIP3   OH218665   6.171   2.540   3.231
 6235TIP3    H118666   6.146   2.549   3.137
 6235TIP3    H218667   6.268   2.541   3.225
 6236TIP3   OH218668   6.856   3.211   4.754
 6236TIP3    H118669   6.936   3.183   4.708
 6236TIP3    H218670   6.850   3.146   4.826
 6237TIP3   OH218671   6.987   2.868   2.899
 6237TIP3    H118672   6.968   2.823   2.814
 6237TIP3    H218673   6.953   2.958   2.878
 6238TIP3   OH218674   6.461   2.598   4.745
 6238TIP3    H118675   6.463   2.520   4.687
 6238TIP3    H218676   6.418   2.665   4.688
 6239TIP3   OH218677   6.464   2.385   4.556
 6239TIP3    H118678   6.494   2.427   4.472
 6239TIP3    H218679   6.371   2.362   4.535
 6240TIP3   OH218680   6.487   2.917   4.429
 6240TIP3    H118681   6.573   2.930   4.389
 6240TIP3    H218682   6.431   2.983   4.381
 6241TIP3   OH218683   7.070   2.885   4.806
 6241TIP3    H118684   7.120   2.802   4.815
 6241TIP3    H218685   7.138   2.945   4.772
 6242TIP3   OH218686   7.112   3.139   4.542
 6242TIP3    H118687   7.055   3.195   4.483
 6242TIP3    H218688   7.200   3.161   4.504
 6243TIP3   OH218689   6.340   2.704   4.980
 6243TIP3    H118690   6.272   2.635   4.994
 6243TIP3    H218691   6.373   2.681   4.891
 6244TIP3   OH218692   6.596   2.146   4.625
 6244TIP3    H118693   6.546   2.227   4.601
 6244TIP3    H218694   6.528   2.077   4.612
 6245TIP3   OH218695   6.722   2.648   4.839
 6245TIP3    H118696   6.708   2.634   4.934
 6245TIP3    H218697   6.633   2.625   4.806
 6246TIP3   OH218698   6.960   2.602   4.694
 6246TIP3    H118699   6.886   2.602   4.758
 6246TIP3    H218700   7.036   2.572   4.748
 6247TIP3   OH218701   7.186   2.542   4.843
 6247TIP3    H118702   7.199   2.446   4.858
 6247TIP3    H218703   7.185   2.578   4.934
 6248TIP3   OH218704   6.177   2.485   5.034
 6248TIP3    H118705   6.182   2.394   5.000
 6248TIP3    H218706   6.215   2.474   5.123
 6249TIP3   OH218707   6.686   2.154   4.884
 6249TIP3    H118708   6.754   2.084   4.876
 6249TIP3    H218709   6.648   2.152   4.794
 6250TIP3   OH218710   6.755   2.370   5.042
 6250TIP3    H118711   6.735   2.299   4.977
 6250TIP3    H218712   6.677   2.429   5.033
 6251TIP3   OH218713   5.980   3.603   3.142
 6251TIP3    H118714   6.074   3.594   3.117
 6251TIP3    H218715   5.947   3.652   3.064
 6252TIP3   OH218716   5.456   2.984   3.353
 6252TIP3    H118717   5.551   3.004   3.338
 6252TIP3    H218718   5.448   2.895   3.312
 6253TIP3   OH218719   5.371   3.600   3.760
 6253TIP3    H118720   5.305   3.539   3.721
 6253TIP3    H218721   5.413   3.540   3.826
 6254TIP3   OH218722   5.506   3.447   3.952
 6254TIP3    H118723   5.489   3.376   4.015
 6254TIP3    H218724   5.558   3.507   4.007
 6255TIP3   OH218725   7.234   3.845   3.759
 6255TIP3    H118726   7.258   3.876   3.848
 6255TIP3    H218727   7.303   3.885   3.704
 6256TIP3   OH218728   7.264   3.863   4.038
 6256TIP3    H118729   7.219   3.775   4.036
 6256TIP3    H218730   7.338   3.841   4.097
 6257TIP3   OH218731   7.306   3.545   4.608
 6257TIP3    H118732   7.236   3.555   4.675
 6257TIP3    H218733   7.352   3.632   4.614
 6258TIP3   OH218734   7.126   3.057   3.229
 6258TIP3    H118735   7.195   3.120   3.202
 6258TIP3    H218736   7.167   3.018   3.310
 6259TIP3   OH218737   7.245   2.927   3.435
 6259TIP3    H118738   7.183   2.883   3.497
 6259TIP3    H218739   7.313   2.964   3.495
 6260TIP3   OH218740   7.303   3.326   3.870
 6260TIP3    H118741   7.350   3.249   3.829
 6260TIP3    H218742   7.300   3.390   3.797
 6261TIP3   OH218743   7.138   3.616   4.058
 6261TIP3    H118744   7.067   3.656   4.111
 6261TIP3    H218745   7.087   3.568   3.988
 6262TIP3   OH218746   7.191   2.830   3.080
 6262TIP3    H118747   7.118   2.832   3.014
 6262TIP3    H218748   7.163   2.905   3.138
 6263TIP3   OH218749   7.061   2.502   3.031
 6263TIP3    H118750   7.014   2.537   2.955
 6263TIP3    H218751   7.040   2.406   3.023
 6264TIP3   OH218752   7.065   2.780   3.580
 6264TIP3    H118753   7.077   2.684   3.572
 6264TIP3    H218754   7.051   2.792   3.676
 6265TIP3   OH218755   5.692   2.851   4.329
 6265TIP3    H118756   5.690   2.818   4.237
 6265TIP3    H218757   5.790   2.853   4.345
 6266TIP3   OH218758   7.361   3.205   4.441
 6266TIP3    H118759   7.432   3.138   4.426
 6266TIP3    H218760   7.385   3.274   4.377
 6267TIP3   OH218761   7.550   3.004   4.448
 6267TIP3    H118762   7.472   2.957   4.487
 6267TIP3    H218763   7.620   2.937   4.463
 6268TIP3   OH218764   7.008   2.234   3.008
 6268TIP3    H118765   7.077   2.211   3.073
 6268TIP3    H218766   6.933   2.178   3.035
 6269TIP3   OH218767   7.066   2.497   3.469
 6269TIP3    H118768   7.105   2.408   3.484
 6269TIP3    H218769   7.126   2.529   3.400
 6270TIP3   OH218770   7.215   2.673   3.969
 6270TIP3    H118771   7.298   2.703   3.925
 6270TIP3    H218772   7.236   2.700   4.060
 6271TIP3   OH218773   7.289   2.818   4.201
 6271TIP3    H118774   7.213   2.854   4.249
 6271TIP3    H218775   7.326   2.897   4.157
 6272TIP3   OH218776   5.910   2.536   5.001
 6272TIP3    H118777   6.008   2.532   5.004
 6272TIP3    H218778   5.888   2.449   5.041
 6273TIP3   OH218779   7.736   2.419   4.738
 6273TIP3    H118780   7.771   2.357   4.673
 6273TIP3    H218781   7.690   2.482   4.677
 6274TIP3   OH218782   7.169   2.247   3.514
 6274TIP3    H118783   7.214   2.242   3.601
 6274TIP3    H218784   7.110   2.169   3.519
 6275TIP3   OH218785   5.873   2.231   4.334
 6275TIP3    H118786   5.935   2.156   4.340
 6275TIP3    H218787   5.936   2.305   4.324
 6276TIP3   OH218788   5.675   2.503   4.405
 6276TIP3    H118789   5.724   2.499   4.320
 6276TIP3    H218790   5.703   2.589   4.438
 6277TIP3   OH218791   7.610   2.560   4.549
 6277TIP3    H118792   7.517   2.591   4.559
 6277TIP3    H218793   7.599   2.501   4.472
 6278TIP3   OH218794   7.247   2.190   3.150
 6278TIP3    H118795   7.279   2.123   3.087
 6278TIP3    H218796   7.317   2.259   3.144
 6279TIP3   OH218797   5.660   2.008   3.906
 6279TIP3    H118798   5.568   2.001   3.935
 6279TIP3    H218799   5.653   2.067   3.828
 6280TIP3   OH218800   6.818   3.713   3.409
 6280TIP3    H118801   6.875   3.705   3.330
 6280TIP3    H218802   6.867   3.776   3.464
 6281TIP3   OH218803   5.880   2.087   4.722
 6281TIP3    H118804   5.827   2.085   4.802
 6281TIP3    H218805   5.816   2.125   4.658
 6282TIP3   OH218806   5.919   3.518   4.795
 6282TIP3    H118807   5.825   3.493   4.781
 6282TIP3    H218808   5.931   3.501   4.889
 6283TIP3   OH218809   6.099   3.551   4.343
 6283TIP3    H118810   6.052   3.628   4.304
 6283TIP3    H218811   6.185   3.564   4.299
 6284TIP3   OH218812   6.539   3.794   4.480
 6284TIP3    H118813   6.581   3.792   4.569
 6284TIP3    H218814   6.606   3.846   4.430
 6285TIP3   OH218815   6.720   3.947   4.342
 6285TIP3    H118816   6.792   3.896   4.303
 6285TIP3    H218817   6.771   4.005   4.404
 6286TIP3   OH218818   7.450   2.300   4.480
 6286TIP3    H118819   7.368   2.281   4.432
 6286TIP3    H218820   7.499   2.215   4.471
 6287TIP3   OH218821   5.773   3.808   4.368
 6287TIP3    H118822   5.682   3.840   4.348
 6287TIP3    H218823   5.789   3.851   4.453
 6288TIP3   OH218824   6.010   3.786   4.227
 6288TIP3    H118825   5.922   3.797   4.271
 6288TIP3    H218826   5.990   3.814   4.136
 6289TIP3   OH218827   6.436   3.812   4.024
 6289TIP3    H118828   6.364   3.831   3.962
 6289TIP3    H218829   6.448   3.898   4.069
 6290TIP3   OH218830   6.705   3.749   4.076
 6290TIP3    H118831   6.612   3.769   4.056
 6290TIP3    H218832   6.751   3.825   4.036
 6291TIP3   OH218833   6.908   3.940   3.990
 6291TIP3    H118834   6.897   4.025   3.941
 6291TIP3    H218835   6.937   3.880   3.918
 6292TIP3   OH218836   5.685   3.600   4.112
 6292TIP3    H118837   5.712   3.572   4.203
 6292TIP3    H218838   5.756   3.555   4.061
 6293TIP3   OH218839   5.881   3.472   3.973
 6293TIP3    H118840   5.895   3.387   4.023
 6293TIP3    H218841   5.972   3.506   3.968
 6294TIP3   OH218842   6.150   3.564   3.977
 6294TIP3    H118843   6.178   3.471   3.966
 6294TIP3    H218844   6.198   3.585   4.059
 6295TIP3   OH218845   6.715   2.219   4.055
 6295TIP3    H118846   6.678   2.147   4.109
 6295TIP3    H218847   6.795   2.177   4.016
 6296TIP3   OH218848   7.239   2.096   3.969
 6296TIP3    H118849   7.278   2.156   3.902
 6296TIP3    H218850   7.145   2.121   3.965
 6297TIP3   OH218851   7.315   2.235   3.748
 6297TIP3    H118852   7.382   2.179   3.702
 6297TIP3    H218853   7.356   2.323   3.735
 6298TIP3   OH218854   5.969   1.929   4.075
 6298TIP3    H118855   5.876   1.897   4.079
 6298TIP3    H218856   6.016   1.843   4.071
 6299TIP3   OH218857   5.757   1.801   3.726
 6299TIP3    H118858   5.786   1.858   3.653
 6299TIP3    H218859   5.730   1.867   3.793
 6300TIP3   OH218860   6.416   1.960   3.958
 6300TIP3    H118861   6.470   2.009   3.894
 6300TIP3    H218862   6.443   2.001   4.041
 6301TIP3   OH218863   6.951   2.110   3.942
 6301TIP3    H118864   6.965   2.069   3.855
 6301TIP3    H218865   6.940   2.030   3.999
 6302TIP3   OH218866   6.985   2.034   3.508
 6302TIP3    H118867   6.900   2.079   3.526
 6302TIP3    H218868   6.970   1.948   3.552
 6303TIP3   OH218869   5.465   3.379   3.498
 6303TIP3    H118870   5.375   3.350   3.476
 6303TIP3    H218871   5.461   3.471   3.466
 6304TIP3   OH218872   5.876   1.959   3.485
 6304TIP3    H118873   5.924   1.895   3.429
 6304TIP3    H218874   5.950   2.012   3.521
 6305TIP3   OH218875   6.385   2.137   3.586
 6305TIP3    H118876   6.446   2.090   3.646
 6305TIP3    H218877   6.406   2.230   3.611
 6306TIP3   OH218878   6.246   3.556   3.085
 6306TIP3    H118879   6.334   3.579   3.049
 6306TIP3    H218880   6.223   3.481   3.025
 6307TIP3   OH218881   6.970   3.679   3.177
 6307TIP3    H118882   6.960   3.581   3.170
 6307TIP3    H218883   6.916   3.708   3.101
 6308TIP3   OH218884   6.176   2.210   4.968
 6308TIP3    H118885   6.141   2.139   5.024
 6308TIP3    H218886   6.271   2.209   4.995
 6309TIP3   OH218887   6.427   2.208   5.086
 6309TIP3    H118888   6.512   2.188   5.042
 6309TIP3    H218889   6.420   2.134   5.149
 6310TIP3   OH218890   5.549   3.394   3.141
 6310TIP3    H118891   5.551   3.427   3.232
 6310TIP3    H218892   5.638   3.353   3.130
 6311TIP3   OH218893   7.245   2.271   4.878
 6311TIP3    H118894   7.264   2.242   4.970
 6311TIP3    H218895   7.335   2.267   4.838
 6312TIP3   OH218896   7.189   3.823   4.364
 6312TIP3    H118897   7.110   3.793   4.315
 6312TIP3    H218898   7.169   3.918   4.372
 6313TIP3   OH218899   7.727   3.129   3.832
 6313TIP3    H118900   7.759   3.045   3.867
 6313TIP3    H218901   7.796   3.188   3.864
 6314TIP3   OH218902   7.743   3.492   3.605
 6314TIP3    H118903   7.691   3.421   3.644
 6314TIP3    H218904   7.777   3.538   3.683
 6315TIP3   OH218905   7.442   2.725   3.377
 6315TIP3    H118906   7.376   2.795   3.390
 6315TIP3    H218907   7.385   2.650   3.354
 6316TIP3   OH218908   7.482   3.004   3.549
 6316TIP3    H118909   7.518   2.917   3.580
 6316TIP3    H218910   7.547   3.026   3.481
 6317TIP3   OH218911   7.600   2.777   3.629
 6317TIP3    H118912   7.678   2.765   3.687
 6317TIP3    H218913   7.593   2.690   3.586
 6318TIP3   OH218914   7.329   3.227   3.126
 6318TIP3    H118915   7.286   3.262   3.046
 6318TIP3    H218916   7.361   3.310   3.167
 6319TIP3   OH218917   7.843   3.275   4.111
 6319TIP3    H118918   7.867   3.349   4.171
 6319TIP3    H218919   7.762   3.241   4.157
 6320TIP3   OH218920   7.923   3.838   4.130
 6320TIP3    H118921   7.899   3.810   4.040
 6320TIP3    H218922   7.844   3.810   4.182
 6321TIP3   OH218923   7.518   3.356   4.058
 6321TIP3    H118924   7.444   3.334   3.998
 6321TIP3    H218925   7.550   3.268   4.086
 6322TIP3   OH218926   7.367   3.556   3.690
 6322TIP3    H118927   7.463   3.561   3.700
 6322TIP3    H218928   7.338   3.624   3.752
 6323TIP3   OH218929   7.509   3.759   3.245
 6323TIP3    H118930   7.560   3.751   3.329
 6323TIP3    H218931   7.463   3.673   3.246
 6324TIP3   OH218932   7.712   3.550   4.034
 6324TIP3    H118933   7.758   3.548   4.121
 6324TIP3    H218934   7.648   3.477   4.045
 6325TIP3   OH218935   7.463   2.443   3.655
 6325TIP3    H118936   7.555   2.462   3.683
 6325TIP3    H218937   7.475   2.401   3.567
 6326TIP3   OH218938   7.431   2.400   3.158
 6326TIP3    H118939   7.469   2.441   3.078
 6326TIP3    H218940   7.374   2.474   3.186
 6327TIP3   OH218941   7.861   3.489   4.281
 6327TIP3    H118942   7.946   3.469   4.324
 6327TIP3    H218943   7.801   3.483   4.359
 6328TIP3   OH218944   7.623   3.147   4.209
 6328TIP3    H118945   7.645   3.114   4.299
 6328TIP3    H218946   7.561   3.077   4.179
 6329TIP3   OH218947   7.406   2.841   2.908
 6329TIP3    H118948   7.455   2.921   2.935
 6329TIP3    H218949   7.335   2.838   2.977
 6330TIP3   OH218950   7.744   3.811   3.115
 6330TIP3    H118951   7.654   3.794   3.150
 6330TIP3    H218952   7.761   3.902   3.145
 6331TIP3   OH218953   7.570   3.719   3.844
 6331TIP3    H118954   7.619   3.664   3.908
 6331TIP3    H218955   7.582   3.807   3.884
 6332TIP3   OH218956   7.518   3.079   2.988
 6332TIP3    H118957   7.454   3.119   3.051
 6332TIP3    H218958   7.536   3.155   2.929
 6333TIP3   OH218959   7.545   3.292   2.813
 6333TIP3    H118960   7.603   3.366   2.842
 6333TIP3    H218961   7.596   3.261   2.736
 6334TIP3   OH218962   7.437   2.569   2.949
 6334TIP3    H118963   7.459   2.664   2.943
 6334TIP3    H218964   7.354   2.565   2.900
 6335TIP3   OH218965   7.376   3.494   3.190
 6335TIP3    H118966   7.302   3.523   3.243
 6335TIP3    H218967   7.357   3.534   3.102
 6336TIP3   OH218968   7.551   4.041   4.265
 6336TIP3    H118969   7.640   4.032   4.305
 6336TIP3    H218970   7.524   3.948   4.261
 6337TIP3   OH218971   7.669   3.440   4.472
 6337TIP3    H118972   7.681   3.346   4.492
 6337TIP3    H218973   7.583   3.442   4.424
 6338TIP3   OH218974   7.824   3.170   4.447
 6338TIP3    H118975   7.836   3.076   4.469
 6338TIP3    H218976   7.829   3.212   4.536
 6339TIP3   OH218977   7.261   3.248   2.830
 6339TIP3    H118978   7.358   3.262   2.825
 6339TIP3    H218979   7.252   3.155   2.800
 6340TIP3   OH218980   7.172   3.849   3.254
 6340TIP3    H118981   7.102   3.788   3.221
 6340TIP3    H218982   7.214   3.792   3.323
 6341TIP3   OH218983   7.296   3.697   3.449
 6341TIP3    H118984   7.289   3.626   3.514
 6341TIP3    H218985   7.347   3.761   3.501
 6342TIP3   OH218986   7.459   3.119   3.798
 6342TIP3    H118987   7.455   3.076   3.710
 6342TIP3    H218988   7.557   3.125   3.809
 6343TIP3   OH218989   7.737   2.805   4.498
 6343TIP3    H118990   7.830   2.795   4.524
 6343TIP3    H218991   7.701   2.717   4.523
 6344TIP3   OH218992   7.450   2.779   3.872
 6344TIP3    H118993   7.490   2.764   3.784
 6344TIP3    H218994   7.527   2.807   3.923
 6345TIP3   OH218995   7.437   2.314   3.414
 6345TIP3    H118996   7.355   2.266   3.436
 6345TIP3    H218997   7.424   2.335   3.320
 6346TIP3   OH218998   7.620   2.428   4.301
 6346TIP3    H118999   7.558   2.359   4.328
 6346TIP3    H219000   7.623   2.417   4.204
 6347TIP3   OH219001   7.709   3.780   4.298
 6347TIP3    H119002   7.617   3.751   4.281
 6347TIP3    H219003   7.720   3.753   4.391
 6348TIP3   OH219004   7.903   3.788   3.837
 6348TIP3    H119005   7.848   3.854   3.788
 6348TIP3    H219006   7.991   3.816   3.808
 6349TIP3   OH219007   7.562   4.055   3.864
 6349TIP3    H119008   7.474   4.092   3.842
 6349TIP3    H219009   7.587   4.112   3.939
 6350TIP3   OH219010   7.770   3.980   3.689
 6350TIP3    H119011   7.702   4.020   3.746
 6350TIP3    H219012   7.790   4.053   3.627
 6351TIP3   OH219013   7.470   3.861   3.605
 6351TIP3    H119014   7.503   3.842   3.694
 6351TIP3    H219015   7.542   3.817   3.553
 6352TIP3   OH219016   7.664   3.732   3.467
 6352TIP3    H119017   7.693   3.641   3.491
 6352TIP3    H219018   7.746   3.781   3.481
 6353TIP3   OH219019   7.276   3.626   2.972
 6353TIP3    H119020   7.187   3.599   2.943
 6353TIP3    H219021   7.260   3.718   2.996
 6354TIP3   OH219022   7.329   3.678   2.671
 6354TIP3    H119023   7.312   3.679   2.768
 6354TIP3    H219024   7.394   3.607   2.666
 6355TIP3   OH219025   0.913   3.985   4.818
 6355TIP3    H119026   0.881   4.075   4.797
 6355TIP3    H219027   0.836   3.933   4.790
 6356TIP3   OH219028   0.916   3.988   5.207
 6356TIP3    H119029   0.947   3.963   5.295
 6356TIP3    H219030   0.876   3.904   5.178
 6357TIP3   OH219031   0.252   3.919   5.543
 6357TIP3    H119032   0.257   3.823   5.531
 6357TIP3    H219033   0.336   3.940   5.499
 6358TIP3   OH219034   1.156   4.287   4.886
 6358TIP3    H119035   1.133   4.218   4.950
 6358TIP3    H219036   1.184   4.361   4.943
 6359TIP3   OH219037   0.246   4.263   5.372
 6359TIP3    H119038   0.241   4.166   5.357
 6359TIP3    H219039   0.329   4.285   5.324
 6360TIP3   OH219040   0.811   4.750   4.905
 6360TIP3    H119041   0.849   4.677   4.852
 6360TIP3    H219042   0.793   4.706   4.989
 6361TIP3   OH219043   0.703   4.213   5.251
 6361TIP3    H119044   0.739   4.132   5.213
 6361TIP3    H219045   0.787   4.257   5.276
 6362TIP3   OH219046   1.149   3.713   5.280
 6362TIP3    H119047   1.172   3.620   5.296
 6362TIP3    H219048   1.079   3.703   5.212
 6363TIP3   OH219049   0.474   3.372   5.247
 6363TIP3    H119050   0.452   3.449   5.190
 6363TIP3    H219051   0.426   3.301   5.199
 6364TIP3   OH219052   1.157   3.457   4.864
 6364TIP3    H119053   1.229   3.441   4.929
 6364TIP3    H219054   1.209   3.494   4.790
 6365TIP3   OH219055   0.108   3.560   5.372
 6365TIP3    H119056   0.187   3.613   5.348
 6365TIP3    H219057   0.121   3.479   5.320
 6366TIP3   OH219058   0.461   3.349   5.685
 6366TIP3    H119059   0.416   3.402   5.614
 6366TIP3    H219060   0.403   3.367   5.762
 6367TIP3   OH219061   0.800   4.207   4.689
 6367TIP3    H119062   0.753   4.187   4.607
 6367TIP3    H219063   0.754   4.288   4.718
 6368TIP3   OH219064   0.574   4.131   5.499
 6368TIP3    H119065   0.504   4.186   5.538
 6368TIP3    H219066   0.590   4.171   5.412
 6369TIP3   OH219067   1.360   3.461   5.048
 6369TIP3    H119068   1.320   3.426   5.128
 6369TIP3    H219069   1.403   3.543   5.079
 6370TIP3   OH219070   0.365   3.479   5.475
 6370TIP3    H119071   0.375   3.572   5.445
 6370TIP3    H219072   0.403   3.434   5.397
 6371TIP3   OH219073   0.373   4.275   5.644
 6371TIP3    H119074   0.361   4.356   5.590
 6371TIP3    H219075   0.284   4.236   5.635
 6372TIP3   OH219076   1.222   4.531   5.051
 6372TIP3    H119077   1.133   4.521   5.092
 6372TIP3    H219078   1.212   4.617   5.006
 6373TIP3   OH219079   1.511   3.442   5.392
 6373TIP3    H119080   1.425   3.480   5.413
 6373TIP3    H219081   1.498   3.419   5.299
 6374TIP3   OH219082   0.811   3.071   5.401
 6374TIP3    H119083   0.791   2.976   5.414
 6374TIP3    H219084   0.734   3.112   5.447
 6375TIP3   OH219085   0.920   4.574   4.721
 6375TIP3    H119086   0.970   4.491   4.705
 6375TIP3    H219087   0.983   4.638   4.682
 6376TIP3   OH219088   1.067   4.360   4.635
 6376TIP3    H119089   1.022   4.281   4.602
 6376TIP3    H219090   1.107   4.326   4.719
 6377TIP3   OH219091   1.449   4.440   5.394
 6377TIP3    H119092   1.434   4.362   5.336
 6377TIP3    H219093   1.429   4.514   5.334
 6378TIP3   OH219094   0.742   3.833   4.656
 6378TIP3    H119095   0.661   3.885   4.636
 6378TIP3    H219096   0.786   3.831   4.569
 6379TIP3   OH219097   0.698   3.621   4.363
 6379TIP3    H119098   0.763   3.674   4.414
 6379TIP3    H219099   0.758   3.559   4.317
 6380TIP3   OH219100   1.645   4.071   5.238
 6380TIP3    H119101   1.560   4.121   5.246
 6380TIP3    H219102   1.675   4.105   5.151
 6381TIP3   OH219103   1.089   3.918   4.621
 6381TIP3    H119104   1.034   3.941   4.699
 6381TIP3    H219105   1.174   3.895   4.665
 6382TIP3   OH219106   1.324   3.953   5.541
 6382TIP3    H119107   1.319   4.038   5.588
 6382TIP3    H219108   1.237   3.953   5.496
 6383TIP3   OH219109   0.339   3.896   5.046
 6383TIP3    H119110   0.311   3.835   4.976
 6383TIP3    H219111   0.372   3.833   5.114
 6384TIP3   OH219112   0.449   4.305   5.193
 6384TIP3    H119113   0.440   4.284   5.099
 6384TIP3    H219114   0.542   4.279   5.210
 6385TIP3   OH219115   0.983   4.523   5.173
 6385TIP3    H119116   0.971   4.602   5.228
 6385TIP3    H219117   0.965   4.450   5.236
 6386TIP3   OH219118   0.600   4.432   5.720
 6386TIP3    H119119   0.546   4.503   5.759
 6386TIP3    H219120   0.531   4.371   5.689
 6387TIP3   OH219121   0.926   3.776   4.449
 6387TIP3    H119122   0.986   3.836   4.499
 6387TIP3    H219123   0.952   3.797   4.356
 6388TIP3   OH219124   0.375   3.997   5.833
 6388TIP3    H119125   0.367   4.093   5.829
 6388TIP3    H219126   0.284   3.969   5.812
 6389TIP3   OH219127   0.671   4.453   4.726
 6389TIP3    H119128   0.754   4.504   4.736
 6389TIP3    H219129   0.613   4.515   4.680
 6390TIP3   OH219130   1.444   3.015   4.500
 6390TIP3    H119131   1.362   3.038   4.547
 6390TIP3    H219132   1.460   3.096   4.448
 6391TIP3   OH219133   0.203   3.754   4.830
 6391TIP3    H119134   0.142   3.821   4.797
 6391TIP3    H219135   0.142   3.700   4.883
 6392TIP3   OH219136   1.244   4.380   4.047
 6392TIP3    H119137   1.254   4.477   4.033
 6392TIP3    H219138   1.336   4.350   4.035
 6393TIP3   OH219139   1.685   4.788   5.443
 6393TIP3    H119140   1.684   4.692   5.459
 6393TIP3    H219141   1.602   4.814   5.489
 6394TIP3   OH219142   0.789   4.566   5.570
 6394TIP3    H119143   0.791   4.658   5.605
 6394TIP3    H219144   0.720   4.526   5.627
 6395TIP3   OH219145   0.557   4.691   4.534
 6395TIP3    H119146   0.513   4.673   4.448
 6395TIP3    H219147   0.525   4.781   4.555
 6396TIP3   OH219148   0.746   4.599   4.162
 6396TIP3    H119149   0.809   4.530   4.131
 6396TIP3    H219150   0.778   4.614   4.254
 6397TIP3   OH219151   0.805   4.650   4.433
 6397TIP3    H119152   0.716   4.659   4.475
 6397TIP3    H219153   0.855   4.609   4.505
 6398TIP3   OH219154   1.575   3.915   5.717
 6398TIP3    H119155   1.490   3.928   5.673
 6398TIP3    H219156   1.593   3.821   5.697
 6399TIP3   OH219157   0.575   3.146   5.527
 6399TIP3    H119158   0.488   3.113   5.499
 6399TIP3    H219159   0.547   3.229   5.571
 6400TIP3   OH219160   1.105   3.260   5.722
 6400TIP3    H119161   1.173   3.234   5.788
 6400TIP3    H219162   1.021   3.242   5.769
 6401TIP3   OH219163   1.345   3.693   5.645
 6401TIP3    H119164   1.291   3.690   5.727
 6401TIP3    H219165   1.320   3.779   5.606
 6402TIP3   OH219166   1.001   3.821   4.193
 6402TIP3    H119167   0.971   3.794   4.104
 6402TIP3    H219168   1.088   3.861   4.172
 6403TIP3   OH219169   0.715   3.195   4.499
 6403TIP3    H119170   0.680   3.190   4.590
 6403TIP3    H219171   0.675   3.113   4.462
 6404TIP3   OH219172   0.391   3.522   5.043
 6404TIP3    H119173   0.296   3.522   5.061
 6404TIP3    H219174   0.394   3.482   4.953
 6405TIP3   OH219175   0.877   3.633   4.789
 6405TIP3    H119176   0.826   3.704   4.745
 6405TIP3    H219177   0.932   3.600   4.715
 6406TIP3   OH219178   1.052   3.909   5.869
 6406TIP3    H119179   1.029   3.838   5.933
 6406TIP3    H219180   1.144   3.926   5.894
 6407TIP3   OH219181   1.046   3.667   5.013
 6407TIP3    H119182   0.976   3.693   4.950
 6407TIP3    H219183   1.075   3.584   4.969
 6408TIP3   OH219184   0.301   3.672   5.756
 6408TIP3    H119185   0.353   3.750   5.777
 6408TIP3    H219186   0.344   3.603   5.809
 6409TIP3   OH219187   0.374   3.169   4.463
 6409TIP3    H119188   0.359   3.170   4.559
 6409TIP3    H219189   0.303   3.230   4.433
 6410TIP3   OH219190   1.055   3.906   5.446
 6410TIP3    H119191   1.089   3.836   5.386
 6410TIP3    H219192   1.019   3.851   5.518
 6411TIP3   OH219193   0.722   3.366   5.119
 6411TIP3    H119194   0.634   3.371   5.162
 6411TIP3    H219195   0.781   3.366   5.196
 6412TIP3   OH219196   0.150   3.381   5.125
 6412TIP3    H119197   0.085   3.322   5.086
 6412TIP3    H219198   0.227   3.320   5.131
 6413TIP3   OH219199   0.419   3.406   4.802
 6413TIP3    H119200   0.509   3.437   4.784
 6413TIP3    H219201   0.369   3.438   4.722
 6414TIP3   OH219202   1.209   3.440   5.317
 6414TIP3    H119203   1.182   3.456   5.411
 6414TIP3    H219204   1.137   3.380   5.290
 6415TIP3   OH219205   0.265   3.460   4.593
 6415TIP3    H119206   0.182   3.418   4.563
 6415TIP3    H219207   0.305   3.491   4.509
 6416TIP3   OH219208   1.380   5.136   5.544
 6416TIP3    H119209   1.377   5.160   5.450
 6416TIP3    H219210   1.459   5.184   5.575
 6417TIP3   OH219211   0.847   3.711   5.239
 6417TIP3    H119212   0.847   3.651   5.164
 6417TIP3    H219213   0.790   3.665   5.302
 6418TIP3   OH219214   0.335   3.181   5.102
 6418TIP3    H119215   0.296   3.103   5.149
 6418TIP3    H219216   0.376   3.139   5.025
 6419TIP3   OH219217   0.762   3.603   5.525
 6419TIP3    H119218   0.694   3.668   5.503
 6419TIP3    H219219   0.835   3.659   5.558
 6420TIP3   OH219220   0.515   3.986   4.599
 6420TIP3    H119221   0.444   3.919   4.587
 6420TIP3    H219222   0.494   4.019   4.689
 6421TIP3   OH219223   1.411   4.219   5.229
 6421TIP3    H119224   1.432   4.273   5.150
 6421TIP3    H219225   1.325   4.178   5.205
 6422TIP3   OH219226   0.967   3.295   4.471
 6422TIP3    H119227   0.870   3.277   4.478
 6422TIP3    H219228   0.974   3.390   4.494
 6423TIP3   OH219229   0.922   4.313   5.597
 6423TIP3    H119230   0.931   4.281   5.688
 6423TIP3    H219231   0.871   4.395   5.607
 6424TIP3   OH219232   1.036   3.548   4.571
 6424TIP3    H119233   1.133   3.555   4.583
 6424TIP3    H219234   1.016   3.628   4.518
 6425TIP3   OH219235   0.204   4.009   5.266
 6425TIP3    H119236   0.264   3.968   5.199
 6425TIP3    H219237   0.219   3.946   5.340
 6426TIP3   OH219238   0.651   4.130   4.404
 6426TIP3    H119239   0.610   4.219   4.414
 6426TIP3    H219240   0.601   4.078   4.471
 6427TIP3   OH219241   0.811   4.046   5.909
 6427TIP3    H119242   0.746   3.985   5.871
 6427TIP3    H219243   0.895   4.007   5.877
 6428TIP3   OH219244   1.069   4.574   5.490
 6428TIP3    H119245   0.974   4.563   5.506
 6428TIP3    H219246   1.096   4.621   5.572
 6429TIP3   OH219247   1.477   3.641   4.406
 6429TIP3    H119248   1.413   3.596   4.345
 6429TIP3    H219249   1.472   3.730   4.364
 6430TIP3   OH219250   1.699   4.497   5.484
 6430TIP3    H119251   1.601   4.491   5.476
 6430TIP3    H219252   1.724   4.467   5.394
 6431TIP3   OH219253   1.182   4.457   4.314
 6431TIP3    H119254   1.153   4.389   4.377
 6431TIP3    H219255   1.192   4.407   4.231
 6432TIP3   OH219256   1.177   4.086   5.145
 6432TIP3    H119257   1.083   4.063   5.161
 6432TIP3    H219258   1.208   4.003   5.103
 6433TIP3   OH219259   0.306   4.311   4.897
 6433TIP3    H119260   0.301   4.393   4.845
 6433TIP3    H219261   0.212   4.287   4.903
 6434TIP3   OH219262   0.440   4.071   4.844
 6434TIP3    H119263   0.405   4.159   4.866
 6434TIP3    H219264   0.416   4.018   4.922
 6435TIP3   OH219265   0.580   4.653   5.366
 6435TIP3    H119266   0.617   4.729   5.316
 6435TIP3    H219267   0.659   4.625   5.416
 6436TIP3   OH219268   0.215   4.553   4.762
 6436TIP3    H119269   0.127   4.590   4.750
 6436TIP3    H219270   0.268   4.636   4.767
 6437TIP3   OH219271   0.958   4.290   5.330
 6437TIP3    H119272   0.950   4.292   5.428
 6437TIP3    H219273   1.034   4.231   5.319
 6438TIP3   OH219274   0.936   4.188   4.216
 6438TIP3    H119275   0.994   4.162   4.291
 6438TIP3    H219276   0.850   4.161   4.252
 6439TIP3   OH219277   1.211   4.822   5.381
 6439TIP3    H119278   1.132   4.764   5.380
 6439TIP3    H219279   1.190   4.884   5.309
 6440TIP3   OH219280   1.275   4.657   4.032
 6440TIP3    H119281   1.314   4.734   3.986
 6440TIP3    H219282   1.194   4.700   4.067
 6441TIP3   OH219283   0.309   3.389   5.918
 6441TIP3    H119284   0.228   3.335   5.915
 6441TIP3    H219285   0.356   3.349   5.994
 6442TIP3   OH219286   1.098   4.117   4.426
 6442TIP3    H119287   1.087   4.053   4.498
 6442TIP3    H219288   1.196   4.114   4.416
 6443TIP3   OH219289   0.294   4.130   4.185
 6443TIP3    H119290   0.306   4.033   4.198
 6443TIP3    H219291   0.279   4.156   4.281
 6444TIP3   OH219292   0.278   4.166   4.449
 6444TIP3    H119293   0.317   4.124   4.526
 6444TIP3    H219294   0.271   4.259   4.477
 6445TIP3   OH219295   1.145   3.491   5.577
 6445TIP3    H119296   1.210   3.537   5.632
 6445TIP3    H219297   1.122   3.413   5.633
 6446TIP3   OH219298   1.014   3.243   4.751
 6446TIP3    H119299   0.998   3.265   4.657
 6446TIP3    H219300   1.053   3.327   4.784
 6447TIP3   OH219301   0.529   4.371   4.423
 6447TIP3    H119302   0.443   4.379   4.468
 6447TIP3    H219303   0.530   4.456   4.376
 6448TIP3   OH219304   0.700   3.429   4.848
 6448TIP3    H119305   0.762   3.503   4.832
 6448TIP3    H219306   0.700   3.425   4.946
 6449TIP3   OH219307   0.973   3.746   5.651
 6449TIP3    H119308   0.986   3.807   5.727
 6449TIP3    H219309   1.024   3.669   5.678
 6450TIP3   OH219310   0.840   3.153   4.952
 6450TIP3    H119311   0.820   3.235   5.002
 6450TIP3    H219312   0.903   3.188   4.885
 6451TIP3   OH219313   0.271   4.431   4.508
 6451TIP3    H119314   0.208   4.474   4.448
 6451TIP3    H219315   0.250   4.475   4.593
 6452TIP3   OH219316   0.356   3.149   4.739
 6452TIP3    H119317   0.359   3.243   4.769
 6452TIP3    H219318   0.452   3.129   4.745
 6453TIP3   OH219319   1.609   3.649   5.626
 6453TIP3    H119320   1.514   3.649   5.650
 6453TIP3    H219321   1.603   3.619   5.534
 6454TIP3   OH219322   1.268   3.835   5.027
 6454TIP3    H119323   1.184   3.785   5.035
 6454TIP3    H219324   1.325   3.783   5.086
 6455TIP3   OH219325   0.004   3.355   4.590
 6455TIP3    H119326  -0.058   3.428   4.580
 6455TIP3    H219327  -0.055   3.278   4.596
 6456TIP3   OH219328   1.230   4.802   4.973
 6456TIP3    H119329   1.187   4.849   4.898
 6456TIP3    H219330   1.325   4.820   4.951
 6457TIP3   OH219331   0.316   3.062   5.498
 6457TIP3    H119332   0.278   3.034   5.412
 6457TIP3    H219333   0.295   2.985   5.555
 6458TIP3   OH219334   0.546   4.832   5.925
 6458TIP3    H119335   0.616   4.780   5.969
 6458TIP3    H219336   0.469   4.775   5.937
 6459TIP3   OH219337   1.124   4.697   5.729
 6459TIP3    H119338   1.114   4.629   5.800
 6459TIP3    H219339   1.198   4.750   5.763
 6460TIP3   OH219340   0.895   4.401   4.036
 6460TIP3    H119341   0.929   4.335   4.100
 6460TIP3    H219342   0.960   4.396   3.964
 6461TIP3   OH219343   0.099   3.838   4.320
 6461TIP3    H119344   0.138   3.847   4.408
 6461TIP3    H219345   0.179   3.846   4.264
 6462TIP3   OH219346   0.755   4.322   5.920
 6462TIP3    H119347   0.707   4.339   5.836
 6462TIP3    H219348   0.780   4.228   5.912
 6463TIP3   OH219349   0.583   4.079   4.139
 6463TIP3    H119350   0.606   4.096   4.233
 6463TIP3    H219351   0.609   3.983   4.137
 6464TIP3   OH219352   1.234   4.328   5.536
 6464TIP3    H119353   1.305   4.379   5.492
 6464TIP3    H219354   1.158   4.388   5.523
 6465TIP3   OH219355   0.320   3.792   4.571
 6465TIP3    H119356   0.289   3.754   4.656
 6465TIP3    H219357   0.351   3.713   4.524
 6466TIP3   OH219358   0.597   3.847   5.799
 6466TIP3    H119359   0.521   3.908   5.811
 6466TIP3    H219360   0.643   3.887   5.722
 6467TIP3   OH219361   0.420   3.586   4.407
 6467TIP3    H119362   0.395   3.589   4.313
 6467TIP3    H219363   0.518   3.585   4.401
 6468TIP3   OH219364   1.107   4.258   5.932
 6468TIP3    H119365   1.181   4.222   5.882
 6468TIP3    H219366   1.097   4.192   6.004
 6469TIP3   OH219367   1.236   3.913   4.077
 6469TIP3    H119368   1.220   3.867   3.992
 6469TIP3    H219369   1.201   4.002   4.054
 6470TIP3   OH219370   0.722   3.637   5.909
 6470TIP3    H119371   0.718   3.559   5.850
 6470TIP3    H219372   0.677   3.706   5.855
 6471TIP3   OH219373   0.716   3.423   5.731
 6471TIP3    H119374   0.738   3.475   5.651
 6471TIP3    H219375   0.623   3.397   5.712
 6472TIP3   OH219376   0.748   3.958   5.607
 6472TIP3    H119377   0.825   3.971   5.551
 6472TIP3    H219378   0.684   4.022   5.566
 6473TIP3   OH219379   1.319   3.928   5.981
 6473TIP3    H119380   1.372   3.848   5.993
 6473TIP3    H219381   1.384   3.991   5.946
 6474TIP3   OH219382   1.363   4.183   5.722
 6474TIP3    H119383   1.304   4.237   5.664
 6474TIP3    H219384   1.450   4.205   5.683
 6475TIP3   OH219385   0.610   3.747   6.139
 6475TIP3    H119386   0.542   3.680   6.156
 6475TIP3    H219387   0.641   3.721   6.050
 6476TIP3   OH219388   0.846   3.188   5.801
 6476TIP3    H119389   0.796   3.270   5.777
 6476TIP3    H219390   0.778   3.119   5.788
 6477TIP3   OH219391   0.972   3.691   6.014
 6477TIP3    H119392   0.951   3.679   6.108
 6477TIP3    H219393   0.885   3.667   5.975
 6478TIP3   OH219394   1.205   3.638   5.868
 6478TIP3    H119395   1.131   3.646   5.932
 6478TIP3    H219396   1.280   3.612   5.926
 6479TIP3   OH219397   1.440   3.588   6.018
 6479TIP3    H119398   1.452   3.492   6.034
 6479TIP3    H219399   1.435   3.624   6.109
 6480TIP3   OH219400   0.437   3.548   6.219
 6480TIP3    H119401   0.416   3.466   6.171
 6480TIP3    H219402   0.470   3.511   6.303
 6481TIP3   OH219403   0.937   3.199   6.059
 6481TIP3    H119404   1.003   3.128   6.051
 6481TIP3    H219405   0.897   3.197   5.970
 6482TIP3   OH219406   1.006   3.413   6.218
 6482TIP3    H119407   0.983   3.344   6.153
 6482TIP3    H219408   0.929   3.474   6.212
 6483TIP3   OH219409   1.486   4.889   4.933
 6483TIP3    H119410   1.510   4.918   5.023
 6483TIP3    H219411   1.552   4.933   4.878
 6484TIP3   OH219412   1.513   4.909   5.214
 6484TIP3    H119413   1.466   4.823   5.211
 6484TIP3    H219414   1.586   4.884   5.273
 6485TIP3   OH219415   1.560   4.585   5.789
 6485TIP3    H119416   1.487   4.596   5.854
 6485TIP3    H219417   1.602   4.674   5.792
 6486TIP3   OH219418   1.375   4.102   4.407
 6486TIP3    H119419   1.442   4.164   4.374
 6486TIP3    H219420   1.420   4.064   4.486
 6487TIP3   OH219421   1.502   3.972   4.613
 6487TIP3    H119422   1.435   3.928   4.669
 6487TIP3    H219423   1.566   4.006   4.678
 6488TIP3   OH219424   1.564   4.361   5.044
 6488TIP3    H119425   1.611   4.293   4.993
 6488TIP3    H219426   1.554   4.433   4.978
 6489TIP3   OH219427   1.387   4.661   5.236
 6489TIP3    H119428   1.315   4.702   5.288
 6489TIP3    H219429   1.336   4.615   5.165
 6490TIP3   OH219430   1.436   3.872   4.263
 6490TIP3    H119431   1.369   3.874   4.192
 6490TIP3    H219432   1.408   3.951   4.315
 6491TIP3   OH219433   1.301   3.549   4.221
 6491TIP3    H119434   1.280   3.582   4.133
 6491TIP3    H219435   1.281   3.453   4.209
 6492TIP3   OH219436   1.317   3.826   4.756
 6492TIP3    H119437   1.320   3.730   4.743
 6492TIP3    H219438   1.302   3.833   4.853
 6493TIP3   OH219439   1.609   4.248   5.615
 6493TIP3    H119440   1.680   4.182   5.604
 6493TIP3    H219441   1.632   4.316   5.550
 6494TIP3   OH219442   1.793   4.047   5.621
 6494TIP3    H119443   1.718   3.998   5.663
 6494TIP3    H219444   1.864   3.980   5.629
 6495TIP3   OH219445   1.256   3.281   4.193
 6495TIP3    H119446   1.328   3.249   4.249
 6495TIP3    H219447   1.182   3.222   4.213
 6496TIP3   OH219448   1.317   3.544   4.648
 6496TIP3    H119449   1.355   3.455   4.663
 6496TIP3    H219450   1.373   3.575   4.575
 6497TIP3   OH219451   1.488   3.686   5.151
 6497TIP3    H119452   1.555   3.737   5.104
 6497TIP3    H219453   1.487   3.734   5.237
 6498TIP3   OH219454   1.530   3.849   5.365
 6498TIP3    H119455   1.460   3.885   5.423
 6498TIP3    H219456   1.577   3.931   5.338
 6499TIP3   OH219457   1.995   3.452   5.932
 6499TIP3    H119458   2.056   3.387   5.890
 6499TIP3    H219459   1.963   3.502   5.854
 6500TIP3   OH219460   1.421   3.293   4.690
 6500TIP3    H119461   1.469   3.273   4.773
 6500TIP3    H219462   1.359   3.217   4.687
 6501TIP3   OH219463   0.124   3.270   5.506
 6501TIP3    H119464   0.199   3.209   5.509
 6501TIP3    H219465   0.166   3.356   5.520
 6502TIP3   OH219466   1.866   3.590   5.734
 6502TIP3    H119467   1.783   3.635   5.760
 6502TIP3    H219468   1.828   3.517   5.681
 6503TIP3   OH219469   1.504   3.224   4.325
 6503TIP3    H119470   1.541   3.154   4.267
 6503TIP3    H219471   1.568   3.296   4.314
 6504TIP3   OH219472   1.068   4.758   4.588
 6504TIP3    H119473   1.120   4.748   4.505
 6504TIP3    H219474   1.121   4.822   4.638
 6505TIP3   OH219475   0.397   4.521   5.526
 6505TIP3    H119476   0.375   4.604   5.573
 6505TIP3    H219477   0.468   4.554   5.467
 6506TIP3   OH219478   0.800   4.824   5.654
 6506TIP3    H119479   0.835   4.828   5.746
 6506TIP3    H219480   0.864   4.882   5.608
 6507TIP3   OH219481   0.969   4.993   5.520
 6507TIP3    H119482   1.039   4.940   5.478
 6507TIP3    H219483   1.021   5.049   5.581
 6508TIP3   OH219484   1.768   3.349   5.629
 6508TIP3    H119485   1.684   3.345   5.581
 6508TIP3    H219486   1.809   3.265   5.602
 6509TIP3   OH219487   0.690   4.854   5.206
 6509TIP3    H119488   0.627   4.870   5.133
 6509TIP3    H219489   0.699   4.943   5.246
 6510TIP3   OH219490   0.957   4.795   5.255
 6510TIP3    H119491   0.863   4.811   5.237
 6510TIP3    H219492   0.999   4.870   5.210
 6511TIP3   OH219493   1.161   4.987   5.166
 6511TIP3    H119494   1.146   5.071   5.117
 6511TIP3    H219495   1.186   4.926   5.094
 6512TIP3   OH219496   0.441   4.627   5.111
 6512TIP3    H119497   0.417   4.537   5.088
 6512TIP3    H219498   0.479   4.615   5.200
 6513TIP3   OH219499   0.981   3.268   5.252
 6513TIP3    H119500   0.930   3.199   5.298
 6513TIP3    H219501   1.042   3.216   5.196
 6514TIP3   OH219502   1.491   3.168   5.156
 6514TIP3    H119503   1.525   3.207   5.073
 6514TIP3    H219504   1.394   3.171   5.139
 6515TIP3   OH219505   1.587   3.240   4.907
 6515TIP3    H119506   1.658   3.186   4.866
 6515TIP3    H219507   1.625   3.330   4.893
 6516TIP3   OH219508   0.221   2.971   5.248
 6516TIP3    H119509   0.128   2.942   5.246
 6516TIP3    H219510   0.268   2.885   5.246
 6517TIP3   OH219511   0.030   2.853   4.916
 6517TIP3    H119512   0.046   2.889   4.827
 6517TIP3    H219513  -0.018   2.927   4.957
 6518TIP3   OH219514   0.664   3.003   5.134
 6518TIP3    H119515   0.721   3.051   5.072
 6518TIP3    H219516   0.678   3.052   5.216
 6519TIP3   OH219517   1.214   3.153   5.112
 6519TIP3    H119518   1.204   3.113   5.024
 6519TIP3    H219519   1.200   3.074   5.170
 6520TIP3   OH219520   1.238   3.080   4.681
 6520TIP3    H119521   1.152   3.123   4.696
 6520TIP3    H219522   1.223   2.993   4.724
 6521TIP3   OH219523   0.124   2.997   4.669
 6521TIP3    H119524   0.170   2.936   4.608
 6521TIP3    H219525   0.199   3.050   4.703
 6522TIP3   OH219526   0.635   3.177   4.763
 6522TIP3    H119527   0.698   3.134   4.823
 6522TIP3    H219528   0.651   3.271   4.787
 6523TIP3   OH219529   0.487   4.603   4.276
 6523TIP3    H119530   0.564   4.599   4.217
 6523TIP3    H219531   0.412   4.586   4.215
 6524TIP3   OH219532   1.216   4.724   4.356
 6524TIP3    H119533   1.208   4.626   4.347
 6524TIP3    H219534   1.167   4.753   4.276
 6525TIP3   OH219535   0.421   3.261   6.136
 6525TIP3    H119536   0.385   3.186   6.189
 6525TIP3    H219537   0.513   3.259   6.170
 6526TIP3   OH219538   0.672   3.252   6.265
 6526TIP3    H119539   0.756   3.232   6.222
 6526TIP3    H219540   0.661   3.175   6.324
 6527TIP3   OH219541   1.503   3.316   6.050
 6527TIP3    H119542   1.520   3.285   6.141
 6527TIP3    H219543   1.592   3.311   6.010
 6528TIP3   OH219544   1.438   4.866   5.541
 6528TIP3    H119545   1.359   4.835   5.492
 6528TIP3    H219546   1.417   4.961   5.550
 6529TIP3   OH219547   2.688   4.238   4.698
 6529TIP3    H119548   2.734   4.214   4.781
 6529TIP3    H219549   2.688   4.155   4.650
 6530TIP3   OH219550   2.004   4.134   5.050
 6530TIP3    H119551   2.031   4.067   5.116
 6530TIP3    H219552   2.080   4.194   5.053
 6531TIP3   OH219553   2.958   4.563   4.372
 6531TIP3    H119554   2.938   4.477   4.410
 6531TIP3    H219555   2.984   4.616   4.448
 6532TIP3   OH219556   1.977   4.546   4.776
 6532TIP3    H119557   1.970   4.448   4.777
 6532TIP3    H219558   2.074   4.556   4.772
 6533TIP3   OH219559   1.675   3.749   4.566
 6533TIP3    H119560   1.625   3.832   4.574
 6533TIP3    H219561   1.611   3.695   4.514
 6534TIP3   OH219562   1.743   4.031   4.741
 6534TIP3    H119563   1.789   3.949   4.768
 6534TIP3    H219564   1.791   4.055   4.660
 6535TIP3   OH219565   2.604   5.004   4.390
 6535TIP3    H119566   2.639   4.931   4.334
 6535TIP3    H219567   2.593   4.960   4.475
 6536TIP3   OH219568   2.502   4.465   4.742
 6536TIP3    H119569   2.546   4.386   4.705
 6536TIP3    H219570   2.583   4.515   4.765
 6537TIP3   OH219571   3.521   3.789   4.748
 6537TIP3    H119572   3.553   3.867   4.799
 6537TIP3    H219573   3.514   3.827   4.659
 6538TIP3   OH219574   2.903   3.962   4.770
 6538TIP3    H119575   2.952   3.881   4.792
 6538TIP3    H219576   2.881   3.947   4.677
 6539TIP3   OH219577   2.226   3.634   4.740
 6539TIP3    H119578   2.246   3.688   4.663
 6539TIP3    H219579   2.208   3.548   4.694
 6540TIP3   OH219580   1.878   3.814   4.849
 6540TIP3    H119581   1.968   3.811   4.885
 6540TIP3    H219582   1.890   3.758   4.769
 6541TIP3   OH219583   3.587   3.997   4.912
 6541TIP3    H119584   3.503   4.044   4.893
 6541TIP3    H219585   3.608   4.033   5.001
 6542TIP3   OH219586   2.240   3.607   5.178
 6542TIP3    H119587   2.193   3.649   5.102
 6542TIP3    H219588   2.179   3.625   5.251
 6543TIP3   OH219589   2.620   4.485   4.181
 6543TIP3    H119590   2.616   4.399   4.136
 6543TIP3    H219591   2.532   4.522   4.172
 6544TIP3   OH219592   2.356   4.387   4.963
 6544TIP3    H119593   2.297   4.457   4.999
 6544TIP3    H219594   2.401   4.433   4.889
 6545TIP3   OH219595   3.172   3.700   4.598
 6545TIP3    H119596   3.103   3.703   4.668
 6545TIP3    H219597   3.195   3.795   4.589
 6546TIP3   OH219598   2.114   3.725   4.964
 6546TIP3    H119599   2.178   3.798   4.981
 6546TIP3    H219600   2.153   3.689   4.880
 6547TIP3   OH219601   2.186   4.583   5.062
 6547TIP3    H119602   2.161   4.671   5.027
 6547TIP3    H219603   2.107   4.565   5.118
 6548TIP3   OH219604   1.575   4.271   4.298
 6548TIP3    H119605   1.537   4.298   4.213
 6548TIP3    H219606   1.610   4.356   4.332
 6549TIP3   OH219607   3.018   4.790   4.546
 6549TIP3    H119608   2.929   4.773   4.585
 6549TIP3    H219609   2.999   4.871   4.495
 6550TIP3   OH219610   3.309   3.676   4.899
 6550TIP3    H119611   3.222   3.706   4.868
 6550TIP3    H219612   3.368   3.712   4.831
 6551TIP3   OH219613   2.613   3.328   4.895
 6551TIP3    H119614   2.590   3.233   4.895
 6551TIP3    H219615   2.531   3.366   4.934
 6552TIP3   OH219616   2.709   4.823   4.206
 6552TIP3    H119617   2.757   4.738   4.194
 6552TIP3    H219618   2.775   4.884   4.167
 6553TIP3   OH219619   2.864   4.611   4.119
 6553TIP3    H119620   2.801   4.536   4.114
 6553TIP3    H219621   2.911   4.587   4.202
 6554TIP3   OH219622   3.243   4.697   4.880
 6554TIP3    H119623   3.232   4.617   4.824
 6554TIP3    H219624   3.229   4.770   4.816
 6555TIP3   OH219625   3.442   4.338   4.723
 6555TIP3    H119626   3.357   4.387   4.732
 6555TIP3    H219627   3.465   4.359   4.630
 6556TIP3   OH219628   3.115   4.207   5.029
 6556TIP3    H119629   3.117   4.287   5.086
 6556TIP3    H219630   3.031   4.221   4.981
 6557TIP3   OH219631   2.121   4.158   4.531
 6557TIP3    H119632   2.053   4.119   4.471
 6557TIP3    H219633   2.191   4.093   4.520
 6558TIP3   OH219634   2.248   4.584   4.674
 6558TIP3    H119635   2.230   4.545   4.587
 6558TIP3    H219636   2.337   4.548   4.694
 6559TIP3   OH219637   2.261   4.147   4.880
 6559TIP3    H119638   2.298   4.148   4.791
 6559TIP3    H219639   2.294   4.233   4.916
 6560TIP3   OH219640   2.776   4.780   4.661
 6560TIP3    H119641   2.765   4.858   4.718
 6560TIP3    H219642   2.759   4.705   4.722
 6561TIP3   OH219643   2.392   4.700   5.206
 6561TIP3    H119644   2.331   4.760   5.253
 6561TIP3    H219645   2.328   4.646   5.156
 6562TIP3   OH219646   2.144   4.254   5.311
 6562TIP3    H119647   2.151   4.342   5.353
 6562TIP3    H219648   2.050   4.233   5.327
 6563TIP3   OH219649   2.440   4.717   4.183
 6563TIP3    H119650   2.533   4.735   4.206
 6563TIP3    H219651   2.406   4.806   4.163
 6564TIP3   OH219652   2.184   4.864   5.295
 6564TIP3    H119653   2.148   4.867   5.204
 6564TIP3    H219654   2.103   4.843   5.348
 6565TIP3   OH219655   3.252   3.268   3.992
 6565TIP3    H119656   3.169   3.290   4.042
 6565TIP3    H219657   3.260   3.346   3.934
 6566TIP3   OH219658   1.970   4.014   4.358
 6566TIP3    H119659   1.907   4.044   4.290
 6566TIP3    H219660   1.979   3.919   4.337
 6567TIP3   OH219661   3.040   4.636   3.539
 6567TIP3    H119662   3.050   4.732   3.520
 6567TIP3    H219663   3.131   4.604   3.524
 6568TIP3   OH219664   1.763   4.399   5.240
 6568TIP3    H119665   1.694   4.380   5.174
 6568TIP3    H219666   1.800   4.311   5.261
 6569TIP3   OH219667   1.618   4.592   4.869
 6569TIP3    H119668   1.714   4.586   4.864
 6569TIP3    H219669   1.607   4.669   4.927
 6570TIP3   OH219670   3.482   5.043   4.930
 6570TIP3    H119671   3.482   4.947   4.946
 6570TIP3    H219672   3.399   5.069   4.975
 6571TIP3   OH219673   2.586   4.829   5.063
 6571TIP3    H119674   2.583   4.921   5.097
 6571TIP3    H219675   2.516   4.787   5.117
 6572TIP3   OH219676   2.348   4.952   4.019
 6572TIP3    H119677   2.310   4.931   3.932
 6572TIP3    H219678   2.313   5.042   4.038
 6573TIP3   OH219679   1.790   4.803   4.400
 6573TIP3    H119680   1.835   4.797   4.487
 6573TIP3    H219681   1.739   4.720   4.399
 6574TIP3   OH219682   2.551   4.855   3.656
 6574TIP3    H119683   2.611   4.786   3.619
 6574TIP3    H219684   2.586   4.864   3.747
 6575TIP3   OH219685   2.602   4.911   3.926
 6575TIP3    H119686   2.513   4.915   3.967
 6575TIP3    H219687   2.652   4.863   3.995
 6576TIP3   OH219688   3.375   4.168   5.162
 6576TIP3    H119689   3.280   4.176   5.148
 6576TIP3    H219690   3.385   4.074   5.187
 6577TIP3   OH219691   1.967   4.581   5.225
 6577TIP3    H119692   2.016   4.565   5.309
 6577TIP3    H219693   1.892   4.519   5.234
 6578TIP3   OH219694   2.366   3.397   5.012
 6578TIP3    H119695   2.276   3.373   4.982
 6578TIP3    H219696   2.349   3.486   5.047
 6579TIP3   OH219697   2.905   3.518   5.208
 6579TIP3    H119698   2.974   3.492   5.272
 6579TIP3    H219699   2.821   3.499   5.256
 6580TIP3   OH219700   3.137   3.946   5.124
 6580TIP3    H119701   3.086   3.946   5.209
 6580TIP3    H219702   3.116   4.034   5.088
 6581TIP3   OH219703   2.777   4.075   3.657
 6581TIP3    H119704   2.772   4.041   3.566
 6581TIP3    H219705   2.867   4.111   3.660
 6582TIP3   OH219706   2.481   3.459   3.939
 6582TIP3    H119707   2.528   3.513   4.005
 6582TIP3    H219708   2.469   3.373   3.981
 6583TIP3   OH219709   2.289   3.922   5.027
 6583TIP3    H119710   2.251   3.952   5.111
 6583TIP3    H219711   2.282   4.003   4.972
 6584TIP3   OH219712   2.852   4.169   5.359
 6584TIP3    H119713   2.835   4.097   5.423
 6584TIP3    H219714   2.946   4.189   5.377
 6585TIP3   OH219715   2.863   3.927   4.491
 6585TIP3    H119716   2.841   3.980   4.413
 6585TIP3    H219717   2.897   3.846   4.451
 6586TIP3   OH219718   2.110   3.956   5.242
 6586TIP3    H119719   2.155   4.023   5.297
 6586TIP3    H219720   2.112   3.878   5.299
 6587TIP3   OH219721   1.729   3.463   4.829
 6587TIP3    H119722   1.804   3.522   4.837
 6587TIP3    H219723   1.734   3.439   4.735
 6588TIP3   OH219724   1.694   3.455   4.330
 6588TIP3    H119725   1.778   3.493   4.296
 6588TIP3    H219726   1.636   3.533   4.332
 6589TIP3   OH219727   2.831   4.166   4.927
 6589TIP3    H119728   2.868   4.093   4.872
 6589TIP3    H219729   2.809   4.114   5.008
 6590TIP3   OH219730   1.928   3.663   4.628
 6590TIP3    H119731   1.842   3.686   4.587
 6590TIP3    H219732   1.985   3.652   4.549
 6591TIP3   OH219733   3.003   3.706   4.812
 6591TIP3    H119734   2.973   3.718   4.905
 6591TIP3    H219735   2.933   3.648   4.777
 6592TIP3   OH219736   3.175   5.395   5.031
 6592TIP3    H119737   3.175   5.418   4.937
 6592TIP3    H219738   3.256   5.439   5.063
 6593TIP3   OH219739   2.130   4.502   5.448
 6593TIP3    H119740   2.210   4.532   5.497
 6593TIP3    H219741   2.066   4.501   5.521
 6594TIP3   OH219742   2.167   3.430   4.574
 6594TIP3    H119743   2.096   3.367   4.595
 6594TIP3    H219744   2.133   3.480   4.497
 6595TIP3   OH219745   2.566   3.839   5.036
 6595TIP3    H119746   2.486   3.884   5.004
 6595TIP3    H219747   2.631   3.911   5.043
 6596TIP3   OH219748   2.237   4.334   4.064
 6596TIP3    H119749   2.216   4.242   4.038
 6596TIP3    H219750   2.266   4.319   4.158
 6597TIP3   OH219751   3.208   4.481   4.716
 6597TIP3    H119752   3.228   4.528   4.633
 6597TIP3    H219753   3.122   4.437   4.694
 6598TIP3   OH219754   2.700   4.560   5.086
 6598TIP3    H119755   2.745   4.543   5.170
 6598TIP3    H219756   2.666   4.650   5.097
 6599TIP3   OH219757   2.003   4.270   4.762
 6599TIP3    H119758   2.040   4.234   4.679
 6599TIP3    H219759   2.036   4.207   4.828
 6600TIP3   OH219760   1.880   4.185   5.379
 6600TIP3    H119761   1.900   4.172   5.474
 6600TIP3    H219762   1.809   4.120   5.365
 6601TIP3   OH219763   2.611   4.302   5.397
 6601TIP3    H119764   2.555   4.245   5.343
 6601TIP3    H219765   2.700   4.268   5.373
 6602TIP3   OH219766   2.862   4.831   4.979
 6602TIP3    H119767   2.766   4.824   4.996
 6602TIP3    H219768   2.891   4.878   5.061
 6603TIP3   OH219769   3.493   4.754   4.971
 6603TIP3    H119770   3.395   4.746   4.966
 6603TIP3    H219771   3.518   4.723   4.882
 6604TIP3   OH219772   2.988   4.719   3.805
 6604TIP3    H119773   2.964   4.648   3.867
 6604TIP3    H219774   2.995   4.671   3.720
 6605TIP3   OH219775   2.972   4.354   4.647
 6605TIP3    H119776   2.878   4.329   4.653
 6605TIP3    H219777   3.010   4.271   4.610
 6606TIP3   OH219778   2.097   4.572   4.385
 6606TIP3    H119779   2.089   4.656   4.336
 6606TIP3    H219780   2.004   4.552   4.405
 6607TIP3   OH219781   1.640   3.895   4.075
 6607TIP3    H119782   1.704   3.960   4.112
 6607TIP3    H219783   1.583   3.878   4.151
 6608TIP3   OH219784   2.242   4.340   4.343
 6608TIP3    H119785   2.201   4.426   4.363
 6608TIP3    H219786   2.205   4.283   4.412
 6609TIP3   OH219787   2.371   4.913   4.858
 6609TIP3    H119788   2.415   4.985   4.809
 6609TIP3    H219789   2.446   4.874   4.906
 6610TIP3   OH219790   2.019   4.802   4.231
 6610TIP3    H119791   1.934   4.813   4.279
 6610TIP3    H219792   2.052   4.894   4.233
 6611TIP3   OH219793   2.755   4.548   4.818
 6611TIP3    H119794   2.743   4.544   4.915
 6611TIP3    H219795   2.836   4.496   4.806
 6612TIP3   OH219796   2.745   4.420   3.712
 6612TIP3    H119797   2.789   4.380   3.789
 6612TIP3    H219798   2.662   4.372   3.717
 6613TIP3   OH219799   3.003   5.078   4.871
 6613TIP3    H119800   2.926   5.019   4.868
 6613TIP3    H219801   2.984   5.141   4.798
 6614TIP3   OH219802   3.067   4.910   3.517
 6614TIP3    H119803   3.101   4.978   3.456
 6614TIP3    H219804   2.991   4.958   3.555
 6615TIP3   OH219805   2.066   3.680   5.410
 6615TIP3    H119806   2.025   3.736   5.479
 6615TIP3    H219807   2.117   3.619   5.465
 6616TIP3   OH219808   1.808   4.773   5.015
 6616TIP3    H119809   1.863   4.702   5.051
 6616TIP3    H219810   1.832   4.846   5.074
 6617TIP3   OH219811   1.778   4.118   4.183
 6617TIP3    H119812   1.709   4.162   4.236
 6617TIP3    H219813   1.791   4.184   4.112
 6618TIP3   OH219814   2.929   3.757   5.070
 6618TIP3    H119815   3.008   3.799   5.109
 6618TIP3    H219816   2.917   3.678   5.127
 6619TIP3   OH219817   2.774   4.010   5.140
 6619TIP3    H119818   2.800   4.057   5.222
 6619TIP3    H219819   2.820   3.925   5.150
 6620TIP3   OH219820   2.678   3.386   4.470
 6620TIP3    H119821   2.712   3.424   4.555
 6620TIP3    H219822   2.733   3.433   4.407
 6621TIP3   OH219823   2.095   4.657   3.991
 6621TIP3    H119824   2.069   4.715   3.917
 6621TIP3    H219825   2.066   4.711   4.068
 6622TIP3   OH219826   3.402   3.886   5.124
 6622TIP3    H119827   3.304   3.889   5.129
 6622TIP3    H219828   3.414   3.868   5.030
 6623TIP3   OH219829   3.062   4.118   4.549
 6623TIP3    H119830   2.999   4.050   4.520
 6623TIP3    H219831   3.142   4.063   4.565
 6624TIP3   OH219832   1.768   4.328   3.985
 6624TIP3    H119833   1.808   4.413   3.964
 6624TIP3    H219834   1.818   4.268   3.925
 6625TIP3   OH219835   3.028   5.066   4.463
 6625TIP3    H119836   2.983   5.112   4.389
 6625TIP3    H219837   3.118   5.058   4.430
 6626TIP3   OH219838   2.087   3.329   4.993
 6626TIP3    H119839   2.065   3.300   4.902
 6626TIP3    H219840   2.086   3.244   5.041
 6627TIP3   OH219841   1.640   4.546   4.365
 6627TIP3    H119842   1.576   4.572   4.432
 6627TIP3    H219843   1.602   4.588   4.284
 6628TIP3   OH219844   1.800   5.090   5.439
 6628TIP3    H119845   1.886   5.090   5.486
 6628TIP3    H219846   1.779   4.995   5.439
 6629TIP3   OH219847   2.277   5.046   5.484
 6629TIP3    H119848   2.371   5.026   5.491
 6629TIP3    H219849   2.250   4.984   5.413
 6630TIP3   OH219850   2.254   4.601   3.655
 6630TIP3    H119851   2.230   4.509   3.635
 6630TIP3    H219852   2.342   4.601   3.610
 6631TIP3   OH219853   2.916   4.955   5.219
 6631TIP3    H119854   2.908   4.885   5.288
 6631TIP3    H219855   2.995   5.004   5.249
 6632TIP3   OH219856   2.709   4.665   3.530
 6632TIP3    H119857   2.748   4.598   3.589
 6632TIP3    H219858   2.764   4.656   3.450
 6633TIP3   OH219859   1.928   4.492   5.640
 6633TIP3    H119860   1.942   4.396   5.649
 6633TIP3    H219861   1.841   4.495   5.595
 6634TIP3   OH219862   1.911   4.152   3.844
 6634TIP3    H119863   1.962   4.099   3.910
 6634TIP3    H219864   1.977   4.151   3.770
 6635TIP3   OH219865   2.533   4.577   5.415
 6635TIP3    H119866   2.497   4.597   5.327
 6635TIP3    H219867   2.568   4.486   5.404
 6636TIP3   OH219868   2.398   4.324   3.680
 6636TIP3    H119869   2.442   4.299   3.762
 6636TIP3    H219870   2.395   4.236   3.637
 6637TIP3   OH219871   3.026   4.592   5.019
 6637TIP3    H119872   3.106   4.631   4.980
 6637TIP3    H219873   2.960   4.662   5.000
 6638TIP3   OH219874   2.051   4.228   5.624
 6638TIP3    H119875   2.130   4.180   5.597
 6638TIP3    H219876   2.076   4.260   5.712
 6639TIP3   OH219877   2.117   4.049   4.055
 6639TIP3    H119878   2.114   4.001   4.138
 6639TIP3    H219879   2.152   3.978   3.996
 6640TIP3   OH219880   2.373   4.101   5.278
 6640TIP3    H119881   2.304   4.171   5.282
 6640TIP3    H219882   2.433   4.138   5.209
 6641TIP3   OH219883   2.211   3.858   3.889
 6641TIP3    H119884   2.179   3.848   3.797
 6641TIP3    H219885   2.302   3.827   3.883
 6642TIP3   OH219886   2.901   4.512   5.413
 6642TIP3    H119887   2.988   4.492   5.374
 6642TIP3    H219888   2.899   4.447   5.487
 6643TIP3   OH219889   3.026   4.172   3.556
 6643TIP3    H119890   3.008   4.123   3.474
 6643TIP3    H219891   2.990   4.260   3.532
 6644TIP3   OH219892   2.503   3.899   5.410
 6644TIP3    H119893   2.507   3.818   5.354
 6644TIP3    H219894   2.462   3.963   5.349
 6645TIP3   OH219895   2.502   3.674   5.238
 6645TIP3    H119896   2.535   3.726   5.161
 6645TIP3    H219897   2.410   3.656   5.210
 6646TIP3   OH219898   2.530   4.219   5.097
 6646TIP3    H119899   2.618   4.225   5.057
 6646TIP3    H219900   2.480   4.286   5.047
 6647TIP3   OH219901   3.132   4.194   5.472
 6647TIP3    H119902   3.171   4.106   5.479
 6647TIP3    H219903   3.214   4.247   5.480
 6648TIP3   OH219904   3.153   4.432   5.200
 6648TIP3    H119905   3.099   4.491   5.144
 6648TIP3    H219906   3.243   4.454   5.168
 6649TIP3   OH219907   2.384   4.008   5.642
 6649TIP3    H119908   2.318   3.937   5.658
 6649TIP3    H219909   2.419   3.982   5.554
 6650TIP3   OH219910   2.645   3.443   5.289
 6650TIP3    H119911   2.593   3.525   5.269
 6650TIP3    H219912   2.578   3.374   5.274
 6651TIP3   OH219913   2.767   3.949   5.502
 6651TIP3    H119914   2.758   3.937   5.598
 6651TIP3    H219915   2.677   3.926   5.473
 6652TIP3   OH219916   2.998   3.902   5.351
 6652TIP3    H119917   2.925   3.905   5.416
 6652TIP3    H219918   3.074   3.874   5.408
 6653TIP3   OH219919   3.207   3.840   5.511
 6653TIP3    H119920   3.240   3.748   5.521
 6653TIP3    H219921   3.222   3.877   5.600
 6654TIP3   OH219922   2.228   3.784   5.700
 6654TIP3    H119923   2.239   3.691   5.670
 6654TIP3    H219924   2.266   3.778   5.790
 6655TIP3   OH219925   2.731   3.454   5.548
 6655TIP3    H119926   2.799   3.385   5.540
 6655TIP3    H219927   2.694   3.452   5.457
 6656TIP3   OH219928   2.798   3.670   5.707
 6656TIP3    H119929   2.779   3.600   5.641
 6656TIP3    H219930   2.721   3.730   5.697
 6657TIP3   OH219931   2.026   4.881   3.799
 6657TIP3    H119932   2.123   4.884   3.782
 6657TIP3    H219933   1.997   4.940   3.728
 6658TIP3   OH219934   1.501   4.284   4.017
 6658TIP3    H119935   1.597   4.301   4.005
 6658TIP3    H219936   1.493   4.195   3.975
 6659TIP3   OH219937   1.420   4.896   4.433
 6659TIP3    H119938   1.353   4.835   4.395
 6659TIP3    H219939   1.463   4.837   4.498
 6660TIP3   OH219940   1.552   4.743   4.620
 6660TIP3    H119941   1.539   4.672   4.686
 6660TIP3    H219942   1.605   4.806   4.673
 6661TIP3   OH219943   3.315   5.192   4.373
 6661TIP3    H119944   3.325   5.143   4.457
 6661TIP3    H219945   3.330   5.283   4.410
 6662TIP3   OH219946   3.304   5.161   4.682
 6662TIP3    H119947   3.258   5.074   4.694
 6662TIP3    H219948   3.383   5.143   4.736
 6663TIP3   OH219949   3.348   4.845   5.267
 6663TIP3    H119950   3.281   4.849   5.338
 6663TIP3    H219951   3.394   4.931   5.278
 6664TIP3   OH219952   3.176   4.367   3.882
 6664TIP3    H119953   3.261   4.412   3.866
 6664TIP3    H219954   3.185   4.339   3.975
 6665TIP3   OH219955   3.273   4.254   4.116
 6665TIP3    H119956   3.243   4.162   4.118
 6665TIP3    H219957   3.369   4.247   4.120
 6666TIP3   OH219958   3.365   4.614   4.528
 6666TIP3    H119959   3.408   4.542   4.477
 6666TIP3    H219960   3.341   4.678   4.460
 6667TIP3   OH219961   3.182   4.918   4.722
 6667TIP3    H119962   3.112   4.953   4.780
 6667TIP3    H219963   3.129   4.868   4.656
 6668TIP3   OH219964   3.242   4.153   3.722
 6668TIP3    H119965   3.163   4.149   3.663
 6668TIP3    H219966   3.209   4.215   3.789
 6669TIP3   OH219967   1.738   4.146   4.992
 6669TIP3    H119968   1.736   4.117   4.898
 6669TIP3    H219969   1.835   4.152   5.006
 6670TIP3   OH219970   3.400   4.505   5.103
 6670TIP3    H119971   3.471   4.438   5.095
 6670TIP3    H219972   3.434   4.577   5.048
 6671TIP3   OH219973   3.594   4.315   5.109
 6671TIP3    H119974   3.516   4.267   5.146
 6671TIP3    H219975   3.663   4.247   5.126
 6672TIP3   OH219976   3.054   3.530   3.678
 6672TIP3    H119977   3.119   3.495   3.740
 6672TIP3    H219978   2.975   3.475   3.694
 6673TIP3   OH219979   3.278   3.962   4.628
 6673TIP3    H119980   3.361   3.992   4.585
 6673TIP3    H219981   3.290   4.004   4.716
 6674TIP3   OH219982   3.338   4.112   4.854
 6674TIP3    H119983   3.267   4.144   4.913
 6674TIP3    H219984   3.372   4.196   4.816
 6675TIP3   OH219985   1.969   3.830   5.634
 6675TIP3    H119986   2.061   3.829   5.670
 6675TIP3    H219987   1.931   3.752   5.679
 6676TIP3   OH219988   3.804   3.717   5.421
 6676TIP3    H119989   3.855   3.646   5.376
 6676TIP3    H219990   3.764   3.762   5.344
 6677TIP3   OH219991   1.935   3.548   5.066
 6677TIP3    H119992   1.973   3.459   5.043
 6677TIP3    H219993   1.997   3.604   5.014
 6678TIP3   OH219994   1.750   3.798   5.089
 6678TIP3    H119995   1.783   3.812   4.996
 6678TIP3    H219996   1.736   3.890   5.118
 6679TIP3   OH219997   3.667   3.847   5.228
 6679TIP3    H119998   3.598   3.877   5.293
 6679TIP3    H219999   3.611   3.791   5.170
 6680TIP3   OH220000   3.302   3.477   3.823
 6680TIP3    H120001   3.335   3.412   3.757
 6680TIP3    H220002   3.340   3.559   3.790
 6681TIP3   OH220003   1.699   3.319   4.567
 6681TIP3    H120004   1.605   3.305   4.585
 6681TIP3    H220005   1.698   3.373   4.485
 6682TIP3   OH220006   2.860   5.013   4.079
 6682TIP3    H120007   2.909   5.000   3.994
 6682TIP3    H220008   2.914   5.080   4.123
 6683TIP3   OH220009   1.963   4.820   5.459
 6683TIP3    H120010   1.870   4.794   5.444
 6683TIP3    H220011   1.975   4.799   5.552
 6684TIP3   OH220012   2.144   4.853   5.007
 6684TIP3    H120013   2.097   4.929   4.968
 6684TIP3    H220014   2.230   4.866   4.963
 6685TIP3   OH220015   2.584   5.096   5.145
 6685TIP3    H120016   2.627   5.093   5.234
 6685TIP3    H220017   2.651   5.147   5.095
 6686TIP3   OH220018   2.765   5.249   5.006
 6686TIP3    H120019   2.835   5.195   4.967
 6686TIP3    H220020   2.817   5.305   5.067
 6687TIP3   OH220021   3.560   3.608   5.104
 6687TIP3    H120022   3.470   3.608   5.068
 6687TIP3    H220023   3.588   3.515   5.093
 6688TIP3   OH220024   1.817   5.108   5.031
 6688TIP3    H120025   1.727   5.140   5.010
 6688TIP3    H220026   1.831   5.150   5.117
 6689TIP3   OH220027   2.055   5.087   4.891
 6689TIP3    H120028   1.967   5.099   4.935
 6689TIP3    H220029   2.036   5.118   4.801
 6690TIP3   OH220030   2.480   5.113   4.689
 6690TIP3    H120031   2.409   5.131   4.624
 6690TIP3    H220032   2.491   5.200   4.732
 6691TIP3   OH220033   2.749   5.053   4.741
 6691TIP3    H120034   2.655   5.069   4.720
 6691TIP3    H220035   2.791   5.131   4.701
 6692TIP3   OH220036   2.955   5.247   4.657
 6692TIP3    H120037   2.942   5.329   4.606
 6692TIP3    H220038   2.983   5.184   4.587
 6693TIP3   OH220039   1.731   4.900   4.776
 6693TIP3    H120040   1.757   4.872   4.866
 6693TIP3    H220041   1.802   4.856   4.725
 6694TIP3   OH220042   1.926   4.773   4.635
 6694TIP3    H120043   1.940   4.689   4.686
 6694TIP3    H220044   2.018   4.808   4.632
 6695TIP3   OH220045   2.194   4.864   4.640
 6695TIP3    H120046   2.224   4.771   4.631
 6695TIP3    H220047   2.242   4.887   4.722
 6696TIP3   OH220048   2.767   3.498   4.703
 6696TIP3    H120049   2.727   3.446   4.775
 6696TIP3    H220050   2.857   3.460   4.695
 6697TIP3   OH220051   3.289   3.406   4.610
 6697TIP3    H120052   3.318   3.493   4.579
 6697TIP3    H220053   3.193   3.423   4.622
 6698TIP3   OH220054   2.007   3.227   4.752
 6698TIP3    H120055   1.915   3.193   4.749
 6698TIP3    H220056   2.057   3.144   4.737
 6699TIP3   OH220057   1.809   3.101   4.390
 6699TIP3    H120058   1.835   3.156   4.314
 6699TIP3    H220059   1.780   3.169   4.454
 6700TIP3   OH220060   2.479   3.244   4.627
 6700TIP3    H120061   2.527   3.293   4.559
 6700TIP3    H220062   2.468   3.311   4.695
 6701TIP3   OH220063   3.006   3.402   4.608
 6701TIP3    H120064   3.021   3.369   4.519
 6701TIP3    H220065   2.993   3.319   4.660
 6702TIP3   OH220066   3.041   3.319   4.156
 6702TIP3    H120067   2.958   3.366   4.159
 6702TIP3    H220068   3.023   3.240   4.212
 6703TIP3   OH220069   1.519   4.675   4.161
 6703TIP3    H120070   1.433   4.640   4.130
 6703TIP3    H220071   1.507   4.769   4.142
 6704TIP3   OH220072   1.905   3.265   4.161
 6704TIP3    H120073   1.973   3.218   4.109
 6704TIP3    H220074   1.945   3.352   4.179
 6705TIP3   OH220075   2.292   4.862   3.753
 6705TIP3    H120076   2.379   4.878   3.710
 6705TIP3    H220077   2.272   4.773   3.716
 6706TIP3   OH220078   3.011   4.985   3.855
 6706TIP3    H120079   3.009   4.887   3.841
 6706TIP3    H220080   2.977   5.015   3.768
 6707TIP3   OH220081   2.222   3.505   5.619
 6707TIP3    H120082   2.183   3.444   5.684
 6707TIP3    H220083   2.315   3.505   5.650
 6708TIP3   OH220084   2.468   3.508   5.746
 6708TIP3    H120085   2.556   3.489   5.708
 6708TIP3    H220086   2.460   3.437   5.813
 6709TIP3   OH220087   1.591   4.702   3.804
 6709TIP3    H120088   1.592   4.714   3.899
 6709TIP3    H220089   1.676   4.655   3.788
 6710TIP3   OH220090   3.299   3.572   5.535
 6710TIP3    H120091   3.318   3.544   5.627
 6710TIP3    H220092   3.389   3.571   5.495
 6711TIP3   OH220093   3.235   5.125   5.026
 6711TIP3    H120094   3.154   5.093   4.980
 6711TIP3    H220095   3.212   5.219   5.038
 6712TIP3   OH220096   3.800   4.388   4.537
 6712TIP3    H120097   3.829   4.318   4.599
 6712TIP3    H220098   3.867   4.455   4.553
 6713TIP3   OH220099   4.752   4.790   3.868
 6713TIP3    H120100   4.741   4.734   3.946
 6713TIP3    H220101   4.775   4.876   3.908
 6714TIP3   OH220102   3.772   4.800   4.265
 6714TIP3    H120103   3.775   4.702   4.269
 6714TIP3    H220104   3.867   4.819   4.255
 6715TIP3   OH220105   4.400   5.264   3.879
 6715TIP3    H120106   4.439   5.193   3.824
 6715TIP3    H220107   4.385   5.218   3.963
 6716TIP3   OH220108   4.291   4.737   4.230
 6716TIP3    H120109   4.323   4.681   4.159
 6716TIP3    H220110   4.377   4.770   4.265
 6717TIP3   OH220111   5.315   4.039   4.224
 6717TIP3    H120112   5.343   4.123   4.265
 6717TIP3    H220113   5.344   4.051   4.132
 6718TIP3   OH220114   4.721   4.226   4.257
 6718TIP3    H120115   4.759   4.140   4.283
 6718TIP3    H220116   4.677   4.201   4.174
 6719TIP3   OH220117   4.000   3.885   4.209
 6719TIP3    H120118   3.997   3.931   4.125
 6719TIP3    H220119   3.978   3.795   4.181
 6720TIP3   OH220120   4.144   4.253   4.075
 6720TIP3    H120121   4.201   4.244   4.155
 6720TIP3    H220122   4.069   4.197   4.102
 6721TIP3   OH220123   5.389   4.251   4.396
 6721TIP3    H120124   5.302   4.293   4.381
 6721TIP3    H220125   5.416   4.293   4.479
 6722TIP3   OH220126   4.050   3.864   4.663
 6722TIP3    H120127   3.991   3.893   4.590
 6722TIP3    H220128   3.992   3.883   4.739
 6723TIP3   OH220129   4.392   4.708   3.665
 6723TIP3    H120130   4.353   4.694   3.578
 6723TIP3    H220131   4.348   4.791   3.693
 6724TIP3   OH220132   4.151   4.643   4.455
 6724TIP3    H120133   4.089   4.710   4.492
 6724TIP3    H220134   4.189   4.692   4.380
 6725TIP3   OH220135   4.936   4.008   4.019
 6725TIP3    H120136   4.933   3.931   4.077
 6725TIP3    H220137   4.992   4.071   4.068
 6726TIP3   OH220138   3.912   3.971   4.457
 6726TIP3    H120139   3.967   4.051   4.458
 6726TIP3    H220140   3.932   3.936   4.368
 6727TIP3   OH220141   3.982   4.839   4.550
 6727TIP3    H120142   3.955   4.926   4.514
 6727TIP3    H220143   3.904   4.820   4.606
 6728TIP3   OH220144   3.385   4.523   3.780
 6728TIP3    H120145   3.330   4.544   3.702
 6728TIP3    H220146   3.403   4.610   3.819
 6729TIP3   OH220147   4.814   5.043   4.021
 6729TIP3    H120148   4.726   5.033   4.063
 6729TIP3    H220149   4.804   5.130   3.978
 6730TIP3   OH220150   5.103   3.944   4.390
 6730TIP3    H120151   5.015   3.962   4.352
 6730TIP3    H220152   5.163   3.974   4.319
 6731TIP3   OH220153   4.412   3.586   4.381
 6731TIP3    H120154   4.383   3.493   4.388
 6731TIP3    H220155   4.332   3.631   4.415
 6732TIP3   OH220156   4.514   5.088   3.698
 6732TIP3    H120157   4.561   5.004   3.679
 6732TIP3    H220158   4.577   5.151   3.658
 6733TIP3   OH220159   4.658   4.872   3.614
 6733TIP3    H120160   4.633   4.796   3.559
 6733TIP3    H220161   4.691   4.828   3.695
 6734TIP3   OH220162   5.038   4.954   4.370
 6734TIP3    H120163   5.026   4.877   4.310
 6734TIP3    H220164   5.020   5.029   4.310
 6735TIP3   OH220165   4.326   4.359   3.669
 6735TIP3    H120166   4.253   4.413   3.633
 6735TIP3    H220167   4.383   4.357   3.591
 6736TIP3   OH220168   5.234   4.590   4.210
 6736TIP3    H120169   5.152   4.642   4.219
 6736TIP3    H220170   5.263   4.619   4.120
 6737TIP3   OH220171   4.670   4.426   3.591
 6737TIP3    H120172   4.631   4.487   3.656
 6737TIP3    H220173   4.751   4.395   3.637
 6738TIP3   OH220174   4.919   4.468   4.516
 6738TIP3    H120175   4.913   4.552   4.566
 6738TIP3    H220176   4.829   4.465   4.476
 6739TIP3   OH220177   3.919   4.417   3.991
 6739TIP3    H120178   3.835   4.389   3.952
 6739TIP3    H220179   3.924   4.355   4.065
 6740TIP3   OH220180   4.034   4.846   4.162
 6740TIP3    H120181   4.015   4.810   4.074
 6740TIP3    H220182   4.123   4.809   4.181
 6741TIP3   OH220183   4.085   4.396   4.354
 6741TIP3    H120184   4.010   4.429   4.300
 6741TIP3    H220185   4.114   4.479   4.397
 6742TIP3   OH220186   4.578   5.034   4.150
 6742TIP3    H120187   4.562   5.118   4.198
 6742TIP3    H220188   4.554   4.967   4.216
 6743TIP3   OH220189   4.188   4.955   4.693
 6743TIP3    H120190   4.127   5.016   4.741
 6743TIP3    H220191   4.123   4.902   4.643
 6744TIP3   OH220192   3.940   4.511   4.794
 6744TIP3    H120193   3.947   4.597   4.840
 6744TIP3    H220194   3.848   4.488   4.815
 6745TIP3   OH220195   4.266   4.963   3.703
 6745TIP3    H120196   4.346   5.018   3.707
 6745TIP3    H220197   4.204   5.020   3.655
 6746TIP3   OH220198   3.980   5.120   4.782
 6746TIP3    H120199   3.943   5.122   4.692
 6746TIP3    H220200   3.901   5.100   4.836
 6747TIP3   OH220201   3.764   4.250   3.808
 6747TIP3    H120202   3.708   4.296   3.742
 6747TIP3    H220203   3.709   4.259   3.888
 6748TIP3   OH220204   4.836   4.895   3.023
 6748TIP3    H120205   4.846   4.991   3.006
 6748TIP3    H220206   4.928   4.863   3.011
 6749TIP3   OH220207   3.560   4.654   4.728
 6749TIP3    H120208   3.492   4.633   4.661
 6749TIP3    H220209   3.597   4.567   4.751
 6750TIP3   OH220210   3.418   4.894   4.356
 6750TIP3    H120211   3.487   4.832   4.327
 6750TIP3    H220212   3.463   4.930   4.436
 6751TIP3   OH220213   5.277   5.300   4.419
 6751TIP3    H120214   5.275   5.204   4.437
 6751TIP3    H220215   5.194   5.327   4.464
 6752TIP3   OH220216   4.382   5.084   4.550
 6752TIP3    H120217   4.379   5.177   4.583
 6752TIP3    H220218   4.311   5.043   4.604
 6753TIP3   OH220219   4.149   5.209   3.509
 6753TIP3    H120220   4.109   5.186   3.422
 6753TIP3    H220221   4.110   5.297   3.526
 6754TIP3   OH220222   3.573   5.063   3.889
 6754TIP3    H120223   3.633   5.052   3.967
 6754TIP3    H220224   3.543   4.971   3.876
 6755TIP3   OH220225   4.350   5.119   3.135
 6755TIP3    H120226   4.409   5.047   3.102
 6755TIP3    H220227   4.379   5.127   3.228
 6756TIP3   OH220228   4.397   5.164   3.409
 6756TIP3    H120229   4.307   5.174   3.447
 6756TIP3    H220230   4.443   5.120   3.481
 6757TIP3   OH220231   5.171   4.420   4.699
 6757TIP3    H120232   5.087   4.446   4.657
 6757TIP3    H220233   5.178   4.327   4.670
 6758TIP3   OH220234   3.764   4.836   4.713
 6758TIP3    H120235   3.813   4.820   4.796
 6758TIP3    H220236   3.689   4.774   4.722
 6759TIP3   OH220237   4.173   3.666   4.502
 6759TIP3    H120238   4.086   3.628   4.475
 6759TIP3    H220239   4.140   3.745   4.547
 6760TIP3   OH220240   4.696   3.778   4.699
 6760TIP3    H120241   4.760   3.742   4.764
 6760TIP3    H220242   4.609   3.757   4.740
 6761TIP3   OH220243   4.932   4.205   4.624
 6761TIP3    H120244   4.880   4.205   4.707
 6761TIP3    H220245   4.908   4.291   4.583
 6762TIP3   OH220246   4.321   3.709   3.437
 6762TIP3    H120247   4.320   3.759   3.520
 6762TIP3    H220248   4.267   3.630   3.455
 6763TIP3   OH220249   4.106   4.179   4.525
 6763TIP3    H120250   4.043   4.196   4.598
 6763TIP3    H220251   4.094   4.257   4.468
 6764TIP3   OH220252   4.644   4.422   4.840
 6764TIP3    H120253   4.616   4.359   4.910
 6764TIP3    H220254   4.734   4.446   4.870
 6765TIP3   OH220255   4.649   4.167   4.003
 6765TIP3    H120256   4.649   4.219   3.922
 6765TIP3    H220257   4.705   4.090   3.981
 6766TIP3   OH220258   3.914   4.206   4.725
 6766TIP3    H120259   3.931   4.265   4.799
 6766TIP3    H220260   3.904   4.120   4.769
 6767TIP3   OH220261   3.967   3.692   3.438
 6767TIP3    H120262   3.904   3.665   3.505
 6767TIP3    H220263   3.908   3.753   3.388
 6768TIP3   OH220264   4.662   4.429   4.425
 6768TIP3    H120265   4.677   4.357   4.359
 6768TIP3    H220266   4.614   4.379   4.494
 6769TIP3   OH220267   4.796   3.964   4.305
 6769TIP3    H120268   4.758   3.975   4.395
 6769TIP3    H220269   4.730   3.902   4.267
 6770TIP3   OH220270   4.972   5.649   4.517
 6770TIP3    H120271   4.970   5.675   4.423
 6770TIP3    H220272   5.053   5.695   4.548
 6771TIP3   OH220273   3.928   4.761   4.933
 6771TIP3    H120274   4.006   4.790   4.984
 6771TIP3    H220275   3.862   4.753   5.006
 6772TIP3   OH220276   4.395   4.212   4.189
 6772TIP3    H120277   4.471   4.160   4.158
 6772TIP3    H220278   4.390   4.184   4.282
 6773TIP3   OH220279   4.368   4.130   4.462
 6773TIP3    H120280   4.275   4.148   4.488
 6773TIP3    H220281   4.419   4.186   4.523
 6774TIP3   OH220282   4.106   4.499   3.583
 6774TIP3    H120283   4.033   4.435   3.567
 6774TIP3    H220284   4.082   4.536   3.670
 6775TIP3   OH220285   5.004   4.739   4.202
 6775TIP3    H120286   5.029   4.791   4.123
 6775TIP3    H220287   4.920   4.696   4.172
 6776TIP3   OH220288   4.501   4.822   4.571
 6776TIP3    H120289   4.526   4.797   4.660
 6776TIP3    H220290   4.462   4.911   4.583
 6777TIP3   OH220291   3.818   4.510   4.254
 6777TIP3    H120292   3.774   4.480   4.172
 6777TIP3    H220293   3.794   4.437   4.312
 6778TIP3   OH220294   4.246   4.658   3.409
 6778TIP3    H120295   4.191   4.739   3.409
 6778TIP3    H220296   4.192   4.598   3.464
 6779TIP3   OH220297   3.678   4.439   4.863
 6779TIP3    H120298   3.688   4.426   4.959
 6779TIP3    H220299   3.606   4.377   4.843
 6780TIP3   OH220300   4.401   4.559   4.884
 6780TIP3    H120301   4.334   4.498   4.847
 6780TIP3    H220302   4.483   4.521   4.846
 6781TIP3   OH220303   4.659   5.074   4.470
 6781TIP3    H120304   4.563   5.076   4.486
 6781TIP3    H220305   4.690   5.128   4.547
 6782TIP3   OH220306   5.289   5.008   4.460
 6782TIP3    H120307   5.191   5.004   4.450
 6782TIP3    H220308   5.316   4.980   4.369
 6783TIP3   OH220309   4.779   4.969   3.289
 6783TIP3    H120310   4.745   4.898   3.346
 6783TIP3    H220311   4.787   4.925   3.202
 6784TIP3   OH220312   4.780   4.600   4.118
 6784TIP3    H120313   4.720   4.564   4.185
 6784TIP3    H220314   4.807   4.519   4.070
 6785TIP3   OH220315   3.907   4.818   3.882
 6785TIP3    H120316   3.899   4.903   3.834
 6785TIP3    H220317   3.815   4.791   3.886
 6786TIP3   OH220318   3.471   4.130   3.583
 6786TIP3    H120319   3.510   4.216   3.605
 6786TIP3    H220320   3.389   4.133   3.639
 6787TIP3   OH220321   4.064   4.585   3.838
 6787TIP3    H120322   4.027   4.676   3.842
 6787TIP3    H220323   3.999   4.536   3.893
 6788TIP3   OH220324   4.166   5.170   4.345
 6788TIP3    H120325   4.209   5.242   4.295
 6788TIP3    H220326   4.242   5.134   4.394
 6789TIP3   OH220327   3.835   5.063   3.768
 6789TIP3    H120328   3.739   5.072   3.772
 6789TIP3    H220329   3.861   5.150   3.735
 6790TIP3   OH220330   4.550   4.792   4.308
 6790TIP3    H120331   4.534   4.797   4.405
 6790TIP3    H220332   4.644   4.770   4.308
 6791TIP3   OH220333   4.530   4.704   3.185
 6791TIP3    H120334   4.576   4.680   3.268
 6791TIP3    H220335   4.441   4.668   3.202
 6792TIP3   OH220336   4.800   5.334   4.352
 6792TIP3    H120337   4.719   5.280   4.345
 6792TIP3    H220338   4.785   5.400   4.280
 6793TIP3   OH220339   4.868   5.171   3.005
 6793TIP3    H120340   4.898   5.246   2.951
 6793TIP3    H220341   4.787   5.212   3.043
 6794TIP3   OH220342   3.883   3.950   4.874
 6794TIP3    H120343   3.787   3.953   4.889
 6794TIP3    H220344   3.912   3.891   4.946
 6795TIP3   OH220345   4.682   4.643   3.410
 6795TIP3    H120346   4.671   4.559   3.458
 6795TIP3    H220347   4.778   4.639   3.389
 6796TIP3   OH220348   3.586   5.009   4.530
 6796TIP3    H120349   3.657   4.947   4.553
 6796TIP3    H220350   3.623   5.092   4.561
 6797TIP3   OH220351   3.928   4.657   3.192
 6797TIP3    H120352   3.919   4.563   3.167
 6797TIP3    H220353   3.868   4.663   3.268
 6798TIP3   OH220354   3.829   4.687   3.458
 6798TIP3    H120355   3.915   4.679   3.501
 6798TIP3    H220356   3.826   4.782   3.432
 6799TIP3   OH220357   3.582   4.381   3.656
 6799TIP3    H120358   3.514   4.420   3.715
 6799TIP3    H220359   3.586   4.450   3.588
 6800TIP3   OH220360   4.721   4.018   4.565
 6800TIP3    H120361   4.809   4.047   4.594
 6800TIP3    H220362   4.709   3.934   4.615
 6801TIP3   OH220363   4.090   4.882   3.410
 6801TIP3    H120364   4.015   4.934   3.441
 6801TIP3    H220365   4.115   4.936   3.333
 6802TIP3   OH220366   4.561   4.266   4.619
 6802TIP3    H120367   4.587   4.314   4.701
 6802TIP3    H220368   4.610   4.181   4.626
 6803TIP3   OH220369   5.199   4.157   4.614
 6803TIP3    H120370   5.101   4.155   4.618
 6803TIP3    H220371   5.213   4.112   4.530
 6804TIP3   OH220372   4.858   4.354   4.006
 6804TIP3    H120373   4.789   4.294   4.041
 6804TIP3    H220374   4.936   4.315   4.050
 6805TIP3   OH220375   3.563   4.582   3.464
 6805TIP3    H120376   3.629   4.654   3.468
 6805TIP3    H220377   3.608   4.524   3.398
 6806TIP3   OH220378   3.516   3.858   3.572
 6806TIP3    H120379   3.518   3.955   3.581
 6806TIP3    H220380   3.438   3.836   3.625
 6807TIP3   OH220381   4.823   5.313   3.946
 6807TIP3    H120382   4.779   5.360   3.872
 6807TIP3    H220383   4.917   5.332   3.925
 6808TIP3   OH220384   3.922   3.573   4.478
 6808TIP3    H120385   3.873   3.558   4.394
 6808TIP3    H220386   3.886   3.502   4.534
 6809TIP3   OH220387   3.436   4.820   3.860
 6809TIP3    H120388   3.349   4.817   3.900
 6809TIP3    H220389   3.413   4.853   3.770
 6810TIP3   OH220390   3.596   5.345   4.925
 6810TIP3    H120391   3.682   5.345   4.973
 6810TIP3    H220392   3.575   5.250   4.927
 6811TIP3   OH220393   4.072   5.304   4.970
 6811TIP3    H120394   4.166   5.285   4.978
 6811TIP3    H220395   4.046   5.241   4.899
 6812TIP3   OH220396   4.056   4.879   3.098
 6812TIP3    H120397   3.996   4.813   3.140
 6812TIP3    H220398   4.127   4.821   3.069
 6813TIP3   OH220399   4.718   5.209   4.702
 6813TIP3    H120400   4.708   5.142   4.773
 6813TIP3    H220401   4.793   5.263   4.735
 6814TIP3   OH220402   4.495   4.919   3.013
 6814TIP3    H120403   4.526   4.847   3.073
 6814TIP3    H220404   4.553   4.908   2.936
 6815TIP3   OH220405   3.726   4.752   5.125
 6815TIP3    H120406   3.740   4.657   5.140
 6815TIP3    H220407   3.637   4.752   5.083
 6816TIP3   OH220408   3.699   4.396   3.320
 6816TIP3    H120409   3.752   4.363   3.394
 6816TIP3    H220410   3.768   4.400   3.250
 6817TIP3   OH220411   4.332   4.835   4.900
 6817TIP3    H120412   4.289   4.854   4.815
 6817TIP3    H220413   4.361   4.742   4.891
 6818TIP3   OH220414   4.239   4.599   3.129
 6818TIP3    H120415   4.211   4.611   3.221
 6818TIP3    H220416   4.237   4.501   3.122
 6819TIP3   OH220417   4.821   4.842   4.504
 6819TIP3    H120418   4.898   4.888   4.464
 6819TIP3    H220419   4.753   4.912   4.496
 6820TIP3   OH220420   3.850   4.493   5.108
 6820TIP3    H120421   3.911   4.420   5.093
 6820TIP3    H220422   3.877   4.523   5.198
 6821TIP3   OH220423   3.918   4.303   3.557
 6821TIP3    H120424   3.874   4.259   3.631
 6821TIP3    H220425   3.947   4.227   3.502
 6822TIP3   OH220426   4.185   4.375   4.780
 6822TIP3    H120427   4.101   4.425   4.775
 6822TIP3    H220428   4.232   4.406   4.699
 6823TIP3   OH220429   4.006   4.107   3.388
 6823TIP3    H120430   3.955   4.091   3.307
 6823TIP3    H220431   4.096   4.091   3.357
 6824TIP3   OH220432   4.696   4.769   4.906
 6824TIP3    H120433   4.777   4.740   4.864
 6824TIP3    H220434   4.687   4.706   4.980
 6825TIP3   OH220435   4.854   4.433   3.032
 6825TIP3    H120436   4.806   4.377   2.968
 6825TIP3    H220437   4.804   4.516   3.020
 6826TIP3   OH220438   4.307   4.156   4.889
 6826TIP3    H120439   4.302   4.079   4.830
 6826TIP3    H220440   4.261   4.225   4.837
 6827TIP3   OH220441   4.307   3.944   4.699
 6827TIP3    H120442   4.329   3.980   4.611
 6827TIP3    H220443   4.213   3.920   4.687
 6828TIP3   OH220444   4.329   4.480   4.580
 6828TIP3    H120445   4.410   4.487   4.528
 6828TIP3    H220446   4.271   4.545   4.536
 6829TIP3   OH220447   4.904   4.459   4.946
 6829TIP3    H120448   4.957   4.378   4.937
 6829TIP3    H220449   4.970   4.529   4.932
 6830TIP3   OH220450   4.955   4.696   4.689
 6830TIP3    H120451   4.894   4.749   4.632
 6830TIP3    H220452   5.041   4.722   4.649
 6831TIP3   OH220453   4.188   4.258   5.130
 6831TIP3    H120454   4.116   4.193   5.147
 6831TIP3    H220455   4.214   4.236   5.039
 6832TIP3   OH220456   4.436   3.705   4.773
 6832TIP3    H120457   4.385   3.785   4.747
 6832TIP3    H220458   4.368   3.635   4.760
 6833TIP3   OH220459   4.559   4.208   4.986
 6833TIP3    H120460   4.537   4.189   5.080
 6833TIP3    H220461   4.473   4.185   4.946
 6834TIP3   OH220462   4.799   4.154   4.863
 6834TIP3    H120463   4.715   4.189   4.900
 6834TIP3    H220464   4.809   4.076   4.918
 6835TIP3   OH220465   4.020   4.043   5.182
 6835TIP3    H120466   4.021   3.950   5.150
 6835TIP3    H220467   4.055   4.031   5.273
 6836TIP3   OH220468   4.533   3.715   5.030
 6836TIP3    H120469   4.595   3.640   5.021
 6836TIP3    H220470   4.489   3.711   4.942
 6837TIP3   OH220471   4.600   3.930   5.185
 6837TIP3    H120472   4.574   3.858   5.123
 6837TIP3    H220473   4.522   3.989   5.183
 6838TIP3   OH220474   3.295   4.542   3.501
 6838TIP3    H120475   3.390   4.564   3.487
 6838TIP3    H220476   3.290   4.453   3.461
 6839TIP3   OH220477   5.080   5.397   3.908
 6839TIP3    H120478   5.102   5.431   3.997
 6839TIP3    H220479   5.140   5.448   3.851
 6840TIP3   OH220480   5.104   5.422   4.189
 6840TIP3    H120481   5.061   5.334   4.186
 6840TIP3    H220482   5.179   5.402   4.246
 6841TIP3   OH220483   5.151   5.098   4.762
 6841TIP3    H120484   5.079   5.110   4.828
 6841TIP3    H220485   5.195   5.186   4.765
 6842TIP3   OH220486   4.954   4.631   3.372
 6842TIP3    H120487   5.031   4.683   3.342
 6842TIP3    H220488   4.988   4.590   3.454
 6843TIP3   OH220489   5.033   4.497   3.595
 6843TIP3    H120490   4.977   4.419   3.613
 6843TIP3    H220491   5.058   4.522   3.685
 6844TIP3   OH220492   5.155   4.873   4.016
 6844TIP3    H120493   5.203   4.810   3.960
 6844TIP3    H220494   5.148   4.951   3.958
 6845TIP3   OH220495   4.978   5.172   4.210
 6845TIP3    H120496   4.908   5.217   4.262
 6845TIP3    H220497   4.927   5.129   4.139
 6846TIP3   OH220498   5.041   4.414   3.224
 6846TIP3    H120499   4.974   4.404   3.152
 6846TIP3    H220500   4.994   4.480   3.278
 6847TIP3   OH220501   4.826   4.040   3.176
 6847TIP3    H120502   4.844   4.108   3.110
 6847TIP3    H220503   4.901   3.979   3.163
 6848TIP3   OH220504   4.883   4.310   3.731
 6848TIP3    H120505   4.919   4.221   3.715
 6848TIP3    H220506   4.889   4.319   3.829
 6849TIP3   OH220507   3.538   4.403   4.458
 6849TIP3    H120508   3.547   4.379   4.364
 6849TIP3    H220509   3.633   4.400   4.486
 6850TIP3   OH220510   5.199   4.764   4.585
 6850TIP3    H120511   5.271   4.697   4.575
 6850TIP3    H220512   5.228   4.835   4.526
 6851TIP3   OH220513   5.379   4.561   4.596
 6851TIP3    H120514   5.308   4.511   4.641
 6851TIP3    H220515   5.455   4.502   4.612
 6852TIP3   OH220516   5.062   4.227   4.133
 6852TIP3    H120517   5.150   4.253   4.095
 6852TIP3    H220518   5.075   4.261   4.224
 6853TIP3   OH220519   5.139   4.373   4.358
 6853TIP3    H120520   5.061   4.408   4.405
 6853TIP3    H220521   5.170   4.453   4.310
 6854TIP3   OH220522   3.754   4.096   5.143
 6854TIP3    H120523   3.851   4.089   5.152
 6854TIP3    H220524   3.726   4.010   5.182
 6855TIP3   OH220525   5.578   3.958   4.904
 6855TIP3    H120526   5.644   3.897   4.865
 6855TIP3    H220527   5.556   4.016   4.828
 6856TIP3   OH220528   3.530   4.058   4.549
 6856TIP3    H120529   3.602   4.053   4.484
 6856TIP3    H220530   3.545   4.145   4.588
 6857TIP3   OH220531   5.454   4.098   4.697
 6857TIP3    H120532   5.363   4.132   4.692
 6857TIP3    H220533   5.442   4.014   4.649
 6858TIP3   OH220534   4.663   5.270   3.564
 6858TIP3    H120535   4.712   5.259   3.479
 6858TIP3    H220536   4.716   5.338   3.608
 6859TIP3   OH220537   3.723   3.640   4.871
 6859TIP3    H120538   3.674   3.642   4.954
 6859TIP3    H220539   3.659   3.681   4.810
 6860TIP3   OH220540   3.760   5.079   4.946
 6860TIP3    H120541   3.668   5.051   4.930
 6860TIP3    H220542   3.772   5.051   5.038
 6861TIP3   OH220543   3.938   5.109   4.493
 6861TIP3    H120544   3.893   5.186   4.454
 6861TIP3    H220545   4.025   5.121   4.451
 6862TIP3   OH220546   4.380   5.351   4.630
 6862TIP3    H120547   4.422   5.349   4.719
 6862TIP3    H220548   4.446   5.403   4.581
 6863TIP3   OH220549   4.561   5.505   4.494
 6863TIP3    H120550   4.633   5.454   4.453
 6863TIP3    H220551   4.612   5.562   4.555
 6864TIP3   OH220552   5.360   3.858   4.589
 6864TIP3    H120553   5.269   3.844   4.557
 6864TIP3    H220554   5.396   3.766   4.582
 6865TIP3   OH220555   3.614   5.371   4.511
 6865TIP3    H120556   3.522   5.401   4.496
 6865TIP3    H220557   3.630   5.401   4.601
 6866TIP3   OH220558   3.854   5.345   4.379
 6866TIP3    H120559   3.765   5.359   4.420
 6866TIP3    H220560   3.838   5.376   4.288
 6867TIP3   OH220561   4.277   5.368   4.176
 6867TIP3    H120562   4.208   5.386   4.110
 6867TIP3    H220563   4.288   5.457   4.217
 6868TIP3   OH220564   4.546   5.304   4.226
 6868TIP3    H120565   4.452   5.325   4.207
 6868TIP3    H220566   4.591   5.379   4.183
 6869TIP3   OH220567   4.750   5.499   4.139
 6869TIP3    H120568   4.737   5.584   4.092
 6869TIP3    H220569   4.778   5.439   4.066
 6870TIP3   OH220570   3.712   5.036   4.122
 6870TIP3    H120571   3.723   4.954   4.176
 6870TIP3    H220572   3.804   5.068   4.119
 6871TIP3   OH220573   3.987   5.128   4.129
 6871TIP3    H120574   4.012   5.035   4.111
 6871TIP3    H220575   4.037   5.142   4.211
 6872TIP3   OH220576   4.597   3.786   4.227
 6872TIP3    H120577   4.533   3.725   4.266
 6872TIP3    H220578   4.659   3.727   4.180
 6873TIP3   OH220579   5.079   3.668   4.131
 6873TIP3    H120580   5.126   3.713   4.057
 6873TIP3    H220581   4.985   3.681   4.109
 6874TIP3   OH220582   5.206   3.764   3.912
 6874TIP3    H120583   5.264   3.712   3.852
 6874TIP3    H220584   5.177   3.837   3.856
 6875TIP3   OH220585   3.804   3.487   4.251
 6875TIP3    H120586   3.712   3.454   4.245
 6875TIP3    H220587   3.853   3.408   4.224
 6876TIP3   OH220588   3.617   3.353   3.872
 6876TIP3    H120589   3.621   3.399   3.787
 6876TIP3    H220590   3.559   3.410   3.924
 6877TIP3   OH220591   4.804   3.661   4.078
 6877TIP3    H120592   4.816   3.622   3.990
 6877TIP3    H220593   4.790   3.581   4.134
 6878TIP3   OH220594   4.843   3.585   3.701
 6878TIP3    H120595   4.782   3.629   3.640
 6878TIP3    H220596   4.807   3.496   3.711
 6879TIP3   OH220597   3.308   4.936   3.653
 6879TIP3    H120598   3.226   4.895   3.623
 6879TIP3    H220599   3.300   5.022   3.608
 6880TIP3   OH220600   3.690   3.508   3.636
 6880TIP3    H120601   3.749   3.450   3.584
 6880TIP3    H220602   3.749   3.552   3.698
 6881TIP3   OH220603   4.097   5.122   3.253
 6881TIP3    H120604   4.176   5.124   3.195
 6881TIP3    H220605   4.035   5.072   3.196
 6882TIP3   OH220606   4.808   5.237   3.331
 6882TIP3    H120607   4.802   5.138   3.321
 6882TIP3    H220608   4.759   5.266   3.251
 6883TIP3   OH220609   4.019   3.770   5.116
 6883TIP3    H120610   3.978   3.702   5.173
 6883TIP3    H220611   4.112   3.767   5.148
 6884TIP3   OH220612   4.269   3.764   5.239
 6884TIP3    H120613   4.353   3.734   5.199
 6884TIP3    H220614   4.252   3.694   5.305
 6885TIP3   OH220615   3.385   4.952   3.295
 6885TIP3    H120616   3.384   4.979   3.388
 6885TIP3    H220617   3.481   4.933   3.289
 6886TIP3   OH220618   5.029   5.379   4.515
 6886TIP3    H120619   4.950   5.350   4.465
 6886TIP3    H220620   5.010   5.475   4.523
 6887TIP3   OH220621   6.298   4.749   3.281
 6887TIP3    H120622   6.269   4.841   3.264
 6887TIP3    H220623   6.224   4.700   3.242
 6888TIP3   OH220624   6.290   4.753   3.670
 6888TIP3    H120625   6.330   4.738   3.758
 6888TIP3    H220626   6.263   4.663   3.646
 6889TIP3   OH220627   5.601   4.645   4.035
 6889TIP3    H120628   5.627   4.574   4.096
 6889TIP3    H220629   5.666   4.713   4.058
 6890TIP3   OH220630   6.542   5.058   3.348
 6890TIP3    H120631   6.530   4.991   3.418
 6890TIP3    H220632   6.572   5.135   3.400
 6891TIP3   OH220633   5.566   5.053   3.745
 6891TIP3    H120634   5.557   4.957   3.755
 6891TIP3    H220635   5.662   5.065   3.752
 6892TIP3   OH220636   6.189   5.516   3.363
 6892TIP3    H120637   6.234   5.443   3.316
 6892TIP3    H220638   6.187   5.484   3.454
 6893TIP3   OH220639   6.098   4.974   3.707
 6893TIP3    H120640   6.149   4.897   3.676
 6893TIP3    H220641   6.174   5.029   3.736
 6894TIP3   OH220642   7.109   4.300   3.710
 6894TIP3    H120643   7.139   4.381   3.756
 6894TIP3    H220644   7.133   4.320   3.618
 6895TIP3   OH220645   6.506   4.479   3.740
 6895TIP3    H120646   6.551   4.395   3.765
 6895TIP3    H220647   6.475   4.458   3.650
 6896TIP3   OH220648   5.828   4.154   3.690
 6896TIP3    H120649   5.857   4.178   3.602
 6896TIP3    H220650   5.792   4.065   3.670
 6897TIP3   OH220651   6.544   4.232   3.330
 6897TIP3    H120652   6.614   4.216   3.397
 6897TIP3    H220653   6.598   4.267   3.256
 6898TIP3   OH220654   5.487   4.304   3.864
 6898TIP3    H120655   5.562   4.332   3.919
 6898TIP3    H220656   5.506   4.208   3.861
 6899TIP3   OH220657   5.937   4.534   3.598
 6899TIP3    H120658   6.033   4.544   3.621
 6899TIP3    H220659   5.936   4.439   3.586
 6900TIP3   OH220660   7.182   4.506   3.882
 6900TIP3    H120661   7.098   4.553   3.865
 6900TIP3    H220662   7.206   4.542   3.969
 6901TIP3   OH220663   5.850   4.113   4.155
 6901TIP3    H120664   5.794   4.152   4.085
 6901TIP3    H220665   5.795   4.133   4.234
 6902TIP3   OH220666   6.181   4.968   3.153
 6902TIP3    H120667   6.148   4.961   3.062
 6902TIP3    H220668   6.143   5.054   3.180
 6903TIP3   OH220669   5.946   4.898   3.934
 6903TIP3    H120670   5.887   4.967   3.974
 6903TIP3    H220671   5.993   4.950   3.866
 6904TIP3   OH220672   6.749   4.236   3.508
 6904TIP3    H120673   6.730   4.196   3.594
 6904TIP3    H220674   6.800   4.315   3.533
 6905TIP3   OH220675   5.736   4.228   3.940
 6905TIP3    H120676   5.794   4.305   3.961
 6905TIP3    H220677   5.775   4.199   3.854
 6906TIP3   OH220678   5.774   5.093   4.030
 6906TIP3    H120679   5.754   5.184   3.999
 6906TIP3    H220680   5.696   5.079   4.088
 6907TIP3   OH220681   5.172   4.782   3.272
 6907TIP3    H120682   5.132   4.802   3.185
 6907TIP3    H220683   5.203   4.869   3.301
 6908TIP3   OH220684   6.606   5.298   3.506
 6908TIP3    H120685   6.518   5.290   3.549
 6908TIP3    H220686   6.600   5.387   3.466
 6909TIP3   OH220687   6.904   4.193   3.872
 6909TIP3    H120688   6.818   4.228   3.843
 6909TIP3    H220689   6.965   4.230   3.805
 6910TIP3   OH220690   6.193   3.838   3.857
 6910TIP3    H120691   6.181   3.743   3.878
 6910TIP3    H220692   6.117   3.876   3.906
 6911TIP3   OH220693   6.308   5.341   3.181
 6911TIP3    H120694   6.361   5.260   3.163
 6911TIP3    H220695   6.368   5.408   3.141
 6912TIP3   OH220696   6.455   5.126   3.097
 6912TIP3    H120697   6.423   5.044   3.058
 6912TIP3    H220698   6.493   5.095   3.182
 6913TIP3   OH220699   6.835   5.209   3.856
 6913TIP3    H120700   6.823   5.132   3.796
 6913TIP3    H220701   6.817   5.285   3.797
 6914TIP3   OH220702   6.129   4.605   3.115
 6914TIP3    H120703   6.050   4.657   3.091
 6914TIP3    H220704   6.175   4.599   3.029
 6915TIP3   OH220705   6.087   4.391   2.825
 6915TIP3    H120706   6.154   4.444   2.873
 6915TIP3    H220707   6.145   4.327   2.779
 6916TIP3   OH220708   7.031   4.846   3.700
 6916TIP3    H120709   6.948   4.898   3.706
 6916TIP3    H220710   7.062   4.874   3.611
 6917TIP3   OH220711   6.477   4.688   3.083
 6917TIP3    H120712   6.423   4.710   3.162
 6917TIP3    H220713   6.562   4.664   3.126
 6918TIP3   OH220714   6.710   4.724   4.003
 6918TIP3    H120715   6.712   4.805   4.058
 6918TIP3    H220716   6.625   4.736   3.956
 6919TIP3   OH220717   5.701   4.628   3.489
 6919TIP3    H120718   5.717   4.685   3.411
 6919TIP3    H220719   5.793   4.611   3.520
 6920TIP3   OH220720   5.841   5.094   3.652
 6920TIP3    H120721   5.830   5.072   3.559
 6920TIP3    H220722   5.931   5.060   3.672
 6921TIP3   OH220723   5.841   4.661   3.845
 6921TIP3    H120724   5.892   4.640   3.765
 6921TIP3    H220725   5.883   4.745   3.876
 6922TIP3   OH220726   6.368   5.291   3.632
 6922TIP3    H120727   6.358   5.375   3.681
 6922TIP3    H220728   6.352   5.224   3.702
 6923TIP3   OH220729   5.987   5.210   4.177
 6923TIP3    H120730   5.929   5.271   4.228
 6923TIP3    H220731   5.919   5.156   4.131
 6924TIP3   OH220732   6.314   4.547   2.911
 6924TIP3    H120733   6.374   4.607   2.961
 6924TIP3    H220734   6.341   4.567   2.818
 6925TIP3   OH220735   5.735   4.769   4.277
 6925TIP3    H120736   5.744   4.857   4.321
 6925TIP3    H220737   5.643   4.748   4.302
 6926TIP3   OH220738   6.065   5.217   3.192
 6926TIP3    H120739   6.149   5.267   3.198
 6926TIP3    H220740   6.005   5.284   3.158
 6927TIP3   OH220741   5.779   5.370   4.267
 6927TIP3    H120742   5.741   5.381   4.178
 6927TIP3    H220743   5.700   5.357   4.323
 6928TIP3   OH220744   6.829   3.784   2.960
 6928TIP3    H120745   6.748   3.804   3.011
 6928TIP3    H220746   6.844   3.869   2.914
 6929TIP3   OH220747   6.633   5.151   2.509
 6929TIP3    H120748   6.642   5.248   2.493
 6929TIP3    H220749   6.725   5.121   2.496
 6930TIP3   OH220750   5.354   4.911   4.216
 6930TIP3    H120751   5.285   4.890   4.149
 6930TIP3    H220752   5.391   4.823   4.239
 6931TIP3   OH220753   5.211   5.103   3.850
 6931TIP3    H120754   5.308   5.108   3.843
 6931TIP3    H220755   5.192   5.183   3.902
 6932TIP3   OH220756   7.076   5.557   3.904
 6932TIP3    H120757   7.074   5.462   3.923
 6932TIP3    H220758   6.993   5.585   3.949
 6933TIP3   OH220759   6.177   5.343   4.033
 6933TIP3    H120760   6.180   5.434   4.072
 6933TIP3    H220761   6.110   5.302   4.092
 6934TIP3   OH220762   5.928   5.478   2.981
 6934TIP3    H120763   5.835   5.454   2.969
 6934TIP3    H220764   5.920   5.569   3.017
 6935TIP3   OH220765   5.382   5.317   3.374
 6935TIP3    H120766   5.425   5.309   3.462
 6935TIP3    H220767   5.328   5.235   3.373
 6936TIP3   OH220768   6.183   5.418   2.879
 6936TIP3    H120769   6.095   5.429   2.921
 6936TIP3    H220770   6.237   5.385   2.953
 6937TIP3   OH220771   6.965   4.684   4.180
 6937TIP3    H120772   6.881   4.696   4.135
 6937TIP3    H220773   6.980   4.588   4.171
 6938TIP3   OH220774   5.559   5.092   4.197
 6938TIP3    H120775   5.609   5.082   4.281
 6938TIP3    H220776   5.485   5.031   4.210
 6939TIP3   OH220777   5.956   3.918   3.987
 6939TIP3    H120778   5.868   3.887   3.959
 6939TIP3    H220779   5.930   3.992   4.045
 6940TIP3   OH220780   6.496   4.029   4.182
 6940TIP3    H120781   6.566   4.004   4.246
 6940TIP3    H220782   6.414   4.012   4.232
 6941TIP3   OH220783   6.726   4.460   4.097
 6941TIP3    H120784   6.678   4.457   4.183
 6941TIP3    H220785   6.707   4.551   4.065
 6942TIP3   OH220786   6.394   4.589   2.657
 6942TIP3    H120787   6.357   4.566   2.570
 6942TIP3    H220788   6.478   4.631   2.631
 6943TIP3   OH220789   6.109   3.962   2.961
 6943TIP3    H120790   6.068   3.959   3.050
 6943TIP3    H220791   6.064   3.883   2.922
 6944TIP3   OH220792   5.891   4.442   4.003
 6944TIP3    H120793   5.850   4.465   4.088
 6944TIP3    H220794   5.872   4.524   3.951
 6945TIP3   OH220795   6.264   4.402   3.249
 6945TIP3    H120796   6.215   4.475   3.204
 6945TIP3    H220797   6.320   4.369   3.176
 6946TIP3   OH220798   6.442   4.675   4.326
 6946TIP3    H120799   6.422   4.605   4.392
 6946TIP3    H220800   6.532   4.700   4.352
 6947TIP3   OH220801   6.418   4.428   3.485
 6947TIP3    H120802   6.358   4.458   3.414
 6947TIP3    H220803   6.455   4.350   3.440
 6948TIP3   OH220804   5.707   4.459   4.214
 6948TIP3    H120805   5.747   4.522   4.277
 6948TIP3    H220806   5.700   4.378   4.269
 6949TIP3   OH220807   5.768   3.941   2.925
 6949TIP3    H120808   5.748   3.935   3.020
 6949TIP3    H220809   5.689   3.991   2.894
 6950TIP3   OH220810   6.423   4.676   3.904
 6950TIP3    H120811   6.460   4.606   3.846
 6950TIP3    H220812   6.398   4.623   3.982
 6951TIP3   OH220813   6.103   4.155   3.589
 6951TIP3    H120814   6.037   4.128   3.655
 6951TIP3    H220815   6.186   4.134   3.636
 6952TIP3   OH220816   5.788   4.233   3.307
 6952TIP3    H120817   5.883   4.225   3.283
 6952TIP3    H220818   5.745   4.234   3.219
 6953TIP3   OH220819   6.596   4.219   3.779
 6953TIP3    H120820   6.569   4.231   3.873
 6953TIP3    H220821   6.529   4.156   3.749
 6954TIP3   OH220822   5.652   4.232   3.069
 6954TIP3    H120823   5.572   4.188   3.035
 6954TIP3    H220824   5.696   4.255   2.985
 6955TIP3   OH220825   6.770   5.904   4.004
 6955TIP3    H120826   6.769   5.933   3.912
 6955TIP3    H220827   6.848   5.951   4.039
 6956TIP3   OH220828   5.723   5.013   4.421
 6956TIP3    H120829   5.805   5.043   4.467
 6956TIP3    H220830   5.660   5.017   4.496
 6957TIP3   OH220831   6.190   4.477   3.679
 6957TIP3    H120832   6.262   4.434   3.630
 6957TIP3    H220833   6.193   4.431   3.765
 6958TIP3   OH220834   5.731   3.941   3.559
 6958TIP3    H120835   5.677   3.875   3.607
 6958TIP3    H220836   5.747   3.895   3.475
 6959TIP3   OH220837   6.162   4.373   3.964
 6959TIP3    H120838   6.074   4.412   3.984
 6959TIP3    H220839   6.223   4.430   4.016
 6960TIP3   OH220840   5.895   4.759   3.066
 6960TIP3    H120841   5.831   4.685   3.052
 6960TIP3    H220842   5.872   4.784   3.158
 6961TIP3   OH220843   6.799   4.993   3.688
 6961TIP3    H120844   6.823   5.045   3.609
 6961TIP3    H220845   6.714   4.952   3.661
 6962TIP3   OH220846   6.356   4.067   2.928
 6962TIP3    H120847   6.260   4.045   2.938
 6962TIP3    H220848   6.360   4.161   2.954
 6963TIP3   OH220849   6.290   5.071   4.064
 6963TIP3    H120850   6.337   5.061   4.148
 6963TIP3    H220851   6.259   5.163   4.069
 6964TIP3   OH220852   6.423   4.318   3.033
 6964TIP3    H120853   6.519   4.324   3.048
 6964TIP3    H220854   6.405   4.399   2.981
 6965TIP3   OH220855   5.575   4.758   3.746
 6965TIP3    H120856   5.615   4.722   3.666
 6965TIP3    H220857   5.634   4.722   3.815
 6966TIP3   OH220858   6.043   4.907   2.885
 6966TIP3    H120859   5.997   4.994   2.895
 6966TIP3    H220860   5.989   4.851   2.946
 6967TIP3   OH220861   5.475   4.699   4.354
 6967TIP3    H120862   5.500   4.690   4.448
 6967TIP3    H220863   5.406   4.632   4.345
 6968TIP3   OH220864   6.203   4.806   4.369
 6968TIP3    H120865   6.148   4.743   4.319
 6968TIP3    H220866   6.293   4.777   4.343
 6969TIP3   OH220867   6.451   5.324   3.950
 6969TIP3    H120868   6.357   5.336   3.969
 6969TIP3    H220869   6.490   5.376   4.025
 6970TIP3   OH220870   6.867   4.407   2.863
 6970TIP3    H120871   6.804   4.365   2.799
 6970TIP3    H220872   6.864   4.497   2.825
 6971TIP3   OH220873   7.086   5.264   3.946
 6971TIP3    H120874   6.988   5.261   3.938
 6971TIP3    H220875   7.111   5.236   3.855
 6972TIP3   OH220876   6.559   5.227   2.771
 6972TIP3    H120877   6.545   5.157   2.836
 6972TIP3    H220878   6.584   5.178   2.690
 6973TIP3   OH220879   6.564   4.858   3.602
 6973TIP3    H120880   6.471   4.837   3.619
 6973TIP3    H220881   6.596   4.776   3.560
 6974TIP3   OH220882   5.693   5.083   3.355
 6974TIP3    H120883   5.689   5.168   3.307
 6974TIP3    H220884   5.601   5.070   3.379
 6975TIP3   OH220885   5.260   4.392   3.068
 6975TIP3    H120886   5.310   4.470   3.096
 6975TIP3    H220887   5.183   4.397   3.130
 6976TIP3   OH220888   5.808   4.834   3.322
 6976TIP3    H120889   5.778   4.926   3.305
 6976TIP3    H220890   5.844   4.844   3.411
 6977TIP3   OH220891   5.965   5.424   3.832
 6977TIP3    H120892   6.009   5.499   3.786
 6977TIP3    H220893   6.038   5.391   3.887
 6978TIP3   OH220894   5.610   5.324   3.215
 6978TIP3    H120895   5.524   5.332   3.262
 6978TIP3    H220896   5.641   5.417   3.220
 6979TIP3   OH220897   6.343   5.057   3.796
 6979TIP3    H120898   6.330   5.059   3.894
 6979TIP3    H220899   6.432   5.020   3.790
 6980TIP3   OH220900   6.319   4.964   2.676
 6980TIP3    H120901   6.377   4.939   2.752
 6980TIP3    H220902   6.238   4.917   2.700
 6981TIP3   OH220903   6.598   5.586   3.837
 6981TIP3    H120904   6.516   5.533   3.836
 6981TIP3    H220905   6.579   5.654   3.769
 6982TIP3   OH220906   6.663   5.427   2.493
 6982TIP3    H120907   6.705   5.501   2.445
 6982TIP3    H220908   6.583   5.473   2.525
 6983TIP3   OH220909   5.683   4.203   4.358
 6983TIP3    H120910   5.586   4.201   4.371
 6983TIP3    H220911   5.714   4.150   4.434
 6984TIP3   OH220912   6.486   4.887   2.887
 6984TIP3    H120913   6.475   4.822   2.959
 6984TIP3    H220914   6.584   4.883   2.876
 6985TIP3   OH220915   5.403   5.286   3.990
 6985TIP3    H120916   5.458   5.220   4.035
 6985TIP3    H220917   5.423   5.365   4.042
 6986TIP3   OH220918   5.681   4.945   2.669
 6986TIP3    H120919   5.700   4.855   2.639
 6986TIP3    H220920   5.665   4.930   2.765
 6987TIP3   OH220921   5.636   4.939   2.942
 6987TIP3    H120922   5.704   4.907   3.002
 6987TIP3    H220923   5.639   5.036   2.956
 6988TIP3   OH220924   5.387   4.634   3.135
 6988TIP3    H120925   5.328   4.653   3.210
 6988TIP3    H220926   5.376   4.714   3.081
 6989TIP3   OH220927   6.526   4.263   4.038
 6989TIP3    H120928   6.600   4.309   4.080
 6989TIP3    H220929   6.513   4.186   4.097
 6990TIP3   OH220930   6.405   4.017   3.211
 6990TIP3    H120931   6.389   4.039   3.117
 6990TIP3    H220932   6.442   4.100   3.246
 6991TIP3   OH220933   5.900   5.136   2.890
 6991TIP3    H120934   5.828   5.164   2.950
 6991TIP3    H220935   5.858   5.154   2.806
 6992TIP3   OH220936   6.081   4.205   3.316
 6992TIP3    H120937   6.146   4.274   3.294
 6992TIP3    H220938   6.094   4.194   3.412
 6993TIP3   OH220939   6.360   4.515   4.115
 6993TIP3    H120940   6.384   4.571   4.191
 6993TIP3    H220941   6.414   4.436   4.132
 6994TIP3   OH220942   6.233   3.922   3.408
 6994TIP3    H120943   6.249   3.989   3.476
 6994TIP3    H220944   6.292   3.953   3.337
 6995TIP3   OH220945   5.652   5.211   2.970
 6995TIP3    H120946   5.631   5.282   2.906
 6995TIP3    H220947   5.627   5.253   3.055
 6996TIP3   OH220948   5.745   3.925   3.200
 6996TIP3    H120949   5.730   4.013   3.239
 6996TIP3    H220950   5.842   3.917   3.208
 6997TIP3   OH220951   6.994   4.418   4.101
 6997TIP3    H120952   6.896   4.415   4.105
 6997TIP3    H220953   7.010   4.379   4.014
 6998TIP3   OH220954   6.648   4.611   3.485
 6998TIP3    H120955   6.573   4.552   3.501
 6998TIP3    H220956   6.721   4.567   3.534
 6999TIP3   OH220957   5.363   4.844   2.950
 6999TIP3    H120958   5.437   4.906   2.958
 6999TIP3    H220959   5.402   4.781   2.885
 7000TIP3   OH220960   5.318   4.121   3.041
 7000TIP3    H120961   5.298   4.213   3.068
 7000TIP3    H220962   5.268   4.069   3.105
 7001TIP3   OH220963   6.619   5.569   3.431
 7001TIP3    H120964   6.577   5.615   3.355
 7001TIP3    H220965   6.713   5.589   3.412
 7002TIP3   OH220966   5.690   3.839   3.959
 7002TIP3    H120967   5.662   3.802   3.873
 7002TIP3    H220968   5.682   3.761   4.018
 7003TIP3   OH220969   5.232   5.058   3.338
 7003TIP3    H120970   5.167   5.083   3.405
 7003TIP3    H220971   5.194   5.100   3.257
 7004TIP3   OH220972   5.394   5.605   4.416
 7004TIP3    H120973   5.481   5.608   4.463
 7004TIP3    H220974   5.378   5.509   4.414
 7005TIP3   OH220975   5.874   5.577   4.455
 7005TIP3    H120976   5.971   5.588   4.464
 7005TIP3    H220977   5.870   5.504   4.391
 7006TIP3   OH220978   6.528   5.458   4.170
 7006TIP3    H120979   6.502   5.404   4.248
 7006TIP3    H220980   6.584   5.525   4.213
 7007TIP3   OH220981   6.288   5.196   2.507
 7007TIP3    H120982   6.338   5.134   2.563
 7007TIP3    H220983   6.339   5.192   2.422
 7008TIP3   OH220984   5.521   5.006   4.614
 7008TIP3    H120985   5.535   4.910   4.625
 7008TIP3    H220986   5.434   5.009   4.569
 7009TIP3   OH220987   5.495   4.660   2.802
 7009TIP3    H120988   5.538   4.616   2.876
 7009TIP3    H220989   5.568   4.662   2.736
 7010TIP3   OH220990   6.117   5.073   4.391
 7010TIP3    H120991   6.097   5.109   4.303
 7010TIP3    H220992   6.155   4.985   4.372
 7011TIP3   OH220993   6.017   4.854   2.611
 7011TIP3    H120994   6.013   4.864   2.708
 7011TIP3    H220995   6.019   4.756   2.603
 7012TIP3   OH220996   6.617   5.101   3.991
 7012TIP3    H120997   6.696   5.143   3.952
 7012TIP3    H220998   6.551   5.172   3.979
 7013TIP3   OH220999   5.642   4.732   4.596
 7013TIP3    H121000   5.726   4.690   4.572
 7013TIP3    H221001   5.666   4.771   4.683
 7014TIP3   OH221002   5.721   4.550   3.040
 7014TIP3    H121003   5.645   4.502   3.076
 7014TIP3    H221004   5.760   4.481   2.981
 7015TIP3   OH221005   5.967   4.614   4.247
 7015TIP3    H121006   5.898   4.683   4.254
 7015TIP3    H221007   6.025   4.651   4.176
 7016TIP3   OH221008   5.808   4.357   2.866
 7016TIP3    H121009   5.781   4.361   2.772
 7016TIP3    H221010   5.905   4.354   2.858
 7017TIP3   OH221011   6.479   5.011   4.388
 7017TIP3    H121012   6.569   5.010   4.355
 7017TIP3    H221013   6.484   4.951   4.464
 7018TIP3   OH221014   6.625   4.682   2.537
 7018TIP3    H121015   6.607   4.639   2.451
 7018TIP3    H221016   6.592   4.773   2.516
 7019TIP3   OH221017   6.097   4.414   4.383
 7019TIP3    H121018   6.102   4.334   4.326
 7019TIP3    H221019   6.052   4.478   4.324
 7020TIP3   OH221020   6.105   4.201   4.192
 7020TIP3    H121021   6.131   4.241   4.107
 7020TIP3    H221022   6.012   4.174   4.176
 7021TIP3   OH221023   6.123   4.726   4.060
 7021TIP3    H121024   6.212   4.746   4.030
 7021TIP3    H221025   6.070   4.797   4.018
 7022TIP3   OH221026   6.706   4.698   4.442
 7022TIP3    H121027   6.759   4.620   4.460
 7022TIP3    H221028   6.773   4.762   4.411
 7023TIP3   OH221029   6.751   4.949   4.173
 7023TIP3    H121030   6.691   5.006   4.119
 7023TIP3    H221031   6.838   4.976   4.135
 7024TIP3   OH221032   5.973   4.521   4.614
 7024TIP3    H121033   5.907   4.451   4.631
 7024TIP3    H221034   6.010   4.491   4.528
 7025TIP3   OH221035   6.233   3.959   4.259
 7025TIP3    H121036   6.183   4.041   4.239
 7025TIP3    H221037   6.164   3.891   4.250
 7026TIP3   OH221038   6.362   4.461   4.476
 7026TIP3    H121039   6.352   4.450   4.572
 7026TIP3    H221040   6.270   4.439   4.448
 7027TIP3   OH221041   6.595   4.407   4.327
 7027TIP3    H121042   6.523   4.414   4.392
 7027TIP3    H221043   6.671   4.382   4.383
 7028TIP3   OH221044   6.824   4.355   4.477
 7028TIP3    H121045   6.838   4.260   4.495
 7028TIP3    H221046   6.820   4.393   4.567
 7029TIP3   OH221047   5.813   4.300   4.670
 7029TIP3    H121048   5.820   4.207   4.641
 7029TIP3    H221049   5.853   4.293   4.760
 7030TIP3   OH221050   6.326   3.970   4.518
 7030TIP3    H121051   6.393   3.899   4.513
 7030TIP3    H221052   6.287   3.965   4.429
 7031TIP3   OH221053   6.393   4.186   4.677
 7031TIP3    H121054   6.372   4.115   4.613
 7031TIP3    H221055   6.314   4.243   4.670
 7032TIP3   OH221056   5.645   5.419   2.778
 7032TIP3    H121057   5.671   5.502   2.735
 7032TIP3    H221058   5.576   5.391   2.716
 7033TIP3   OH221059   5.094   4.797   2.992
 7033TIP3    H121060   5.189   4.817   2.975
 7033TIP3    H221061   5.086   4.708   2.951
 7034TIP3   OH221062   5.012   5.409   3.406
 7034TIP3    H121063   4.946   5.348   3.367
 7034TIP3    H221064   5.056   5.349   3.470
 7035TIP3   OH221065   5.146   5.256   3.592
 7035TIP3    H121066   5.129   5.187   3.659
 7035TIP3    H221067   5.199   5.319   3.646
 7036TIP3   OH221068   6.873   5.659   3.394
 7036TIP3    H121069   6.897   5.688   3.484
 7036TIP3    H221070   6.940   5.703   3.340
 7037TIP3   OH221071   6.901   5.678   3.674
 7037TIP3    H121072   6.857   5.590   3.673
 7037TIP3    H221073   6.974   5.659   3.735
 7038TIP3   OH221074   6.950   5.355   4.246
 7038TIP3    H121075   6.878   5.365   4.311
 7038TIP3    H221076   6.992   5.443   4.250
 7039TIP3   OH221077   6.765   4.868   2.866
 7039TIP3    H121078   6.831   4.934   2.836
 7039TIP3    H221079   6.810   4.832   2.946
 7040TIP3   OH221080   6.892   4.734   3.070
 7040TIP3    H121081   6.826   4.695   3.131
 7040TIP3    H221082   6.959   4.772   3.132
 7041TIP3   OH221083   6.947   5.130   3.501
 7041TIP3    H121084   7.001   5.064   3.454
 7041TIP3    H221085   6.945   5.204   3.437
 7042TIP3   OH221086   6.776   5.428   3.696
 7042TIP3    H121087   6.707   5.473   3.749
 7042TIP3    H221088   6.722   5.384   3.627
 7043TIP3   OH221089   6.830   4.643   2.716
 7043TIP3    H121090   6.758   4.647   2.649
 7043TIP3    H221091   6.802   4.719   2.772
 7044TIP3   OH221092   6.703   4.313   2.667
 7044TIP3    H121093   6.655   4.354   2.594
 7044TIP3    H221094   6.677   4.219   2.655
 7045TIP3   OH221095   6.703   4.595   3.217
 7045TIP3    H121096   6.712   4.499   3.211
 7045TIP3    H221097   6.689   4.609   3.313
 7046TIP3   OH221098   5.342   4.660   3.958
 7046TIP3    H121099   5.363   4.671   3.865
 7046TIP3    H221100   5.434   4.658   3.994
 7047TIP3   OH221101   6.996   5.020   4.073
 7047TIP3    H121102   7.068   4.954   4.062
 7047TIP3    H221103   7.025   5.092   4.013
 7048TIP3   OH221104   7.178   4.819   4.079
 7048TIP3    H121105   7.105   4.771   4.124
 7048TIP3    H221106   7.252   4.758   4.097
 7049TIP3   OH221107   6.644   4.046   2.646
 7049TIP3    H121108   6.711   4.018   2.712
 7049TIP3    H221109   6.564   3.995   2.672
 7050TIP3   OH221110   6.702   4.309   3.109
 7050TIP3    H121111   6.743   4.220   3.124
 7050TIP3    H221112   6.760   4.343   3.039
 7051TIP3   OH221113   6.860   4.480   3.606
 7051TIP3    H121114   6.946   4.505   3.565
 7051TIP3    H221115   6.874   4.519   3.695
 7052TIP3   OH221116   6.931   4.627   3.835
 7052TIP3    H121117   6.856   4.662   3.887
 7052TIP3    H221118   6.965   4.708   3.792
 7053TIP3   OH221119   5.547   4.351   4.635
 7053TIP3    H121120   5.645   4.349   4.642
 7053TIP3    H221121   5.525   4.263   4.673
 7054TIP3   OH221122   7.382   4.220   4.392
 7054TIP3    H121123   7.444   4.155   4.352
 7054TIP3    H221124   7.353   4.272   4.314
 7055TIP3   OH221125   6.813   4.059   3.146
 7055TIP3    H121126   6.860   4.045   3.231
 7055TIP3    H221127   6.750   3.984   3.147
 7056TIP3   OH221128   5.510   4.052   3.977
 7056TIP3    H121129   5.551   3.964   3.976
 7056TIP3    H221130   5.590   4.107   3.988
 7057TIP3   OH221131   5.303   4.327   4.067
 7057TIP3    H121132   5.365   4.325   3.991
 7057TIP3    H221133   5.321   4.413   4.107
 7058TIP3   OH221134   7.252   4.356   4.196
 7058TIP3    H121135   7.169   4.401   4.223
 7058TIP3    H221136   7.216   4.285   4.140
 7059TIP3   OH221137   6.888   3.992   2.783
 7059TIP3    H121138   6.939   3.928   2.728
 7059TIP3    H221139   6.949   4.068   2.785
 7060TIP3   OH221140   6.447   5.529   3.044
 7060TIP3    H121141   6.505   5.522   2.965
 7060TIP3    H221142   6.497   5.590   3.100
 7061TIP3   OH221143   5.518   3.904   4.357
 7061TIP3    H121144   5.465   3.895   4.439
 7061TIP3    H221145   5.450   3.939   4.296
 7062TIP3   OH221146   5.555   5.332   4.428
 7062TIP3    H121147   5.461   5.307   4.422
 7062TIP3    H221148   5.575   5.318   4.521
 7063TIP3   OH221149   5.735   5.362   3.975
 7063TIP3    H121150   5.690   5.441   3.939
 7063TIP3    H221151   5.824   5.377   3.936
 7064TIP3   OH221152   6.179   5.603   4.125
 7064TIP3    H121153   6.197   5.602   4.222
 7064TIP3    H221154   6.251   5.659   4.092
 7065TIP3   OH221155   6.358   5.764   3.978
 7065TIP3    H121156   6.432   5.707   3.951
 7065TIP3    H221157   6.405   5.823   4.042
 7066TIP3   OH221158   7.154   4.119   4.078
 7066TIP3    H121159   7.063   4.108   4.045
 7066TIP3    H221160   7.188   4.027   4.069
 7067TIP3   OH221161   5.409   5.618   4.008
 7067TIP3    H121162   5.318   5.650   3.987
 7067TIP3    H221163   5.428   5.669   4.088
 7068TIP3   OH221164   5.645   5.597   3.864
 7068TIP3    H121165   5.558   5.609   3.908
 7068TIP3    H221166   5.627   5.631   3.774
 7069TIP3   OH221167   6.073   5.627   3.660
 7069TIP3    H121168   6.001   5.650   3.599
 7069TIP3    H221169   6.086   5.713   3.708
 7070TIP3   OH221170   6.342   5.560   3.706
 7070TIP3    H121171   6.249   5.584   3.693
 7070TIP3    H221172   6.388   5.641   3.677
 7071TIP3   OH221173   6.545   5.755   3.627
 7071TIP3    H121174   6.534   5.840   3.579
 7071TIP3    H221175   6.574   5.695   3.554
 7072TIP3   OH221176   5.323   5.413   3.748
 7072TIP3    H121177   5.349   5.387   3.839
 7072TIP3    H221178   5.396   5.369   3.698
 7073TIP3   OH221179   5.519   5.285   3.608
 7073TIP3    H121180   5.533   5.202   3.658
 7073TIP3    H221181   5.610   5.322   3.608
 7074TIP3   OH221182   5.785   5.377   3.617
 7074TIP3    H121183   5.818   5.286   3.612
 7074TIP3    H221184   5.833   5.406   3.698
 7075TIP3   OH221185   6.341   4.028   3.680
 7075TIP3    H121186   6.309   3.962   3.744
 7075TIP3    H221187   6.426   3.990   3.651
 7076TIP3   OH221188   6.876   3.910   3.596
 7076TIP3    H121189   6.914   3.966   3.524
 7076TIP3    H221190   6.783   3.937   3.596
 7077TIP3   OH221191   6.976   4.015   3.363
 7077TIP3    H121192   7.051   3.964   3.328
 7077TIP3    H221193   7.009   4.106   3.350
 7078TIP3   OH221194   5.606   3.742   3.712
 7078TIP3    H121195   5.515   3.706   3.718
 7078TIP3    H221196   5.657   3.659   3.706
 7079TIP3   OH221197   5.395   3.612   3.347
 7079TIP3    H121198   5.434   3.667   3.276
 7079TIP3    H221199   5.305   3.649   3.349
 7080TIP3   OH221200   6.057   3.774   3.597
 7080TIP3    H121201   6.110   3.823   3.532
 7080TIP3    H221202   6.089   3.809   3.681
 7081TIP3   OH221203   6.588   3.925   3.579
 7081TIP3    H121204   6.597   3.883   3.493
 7081TIP3    H221205   6.580   3.847   3.638
 7082TIP3   OH221206   6.627   3.848   3.141
 7082TIP3    H121207   6.541   3.891   3.158
 7082TIP3    H221208   6.613   3.762   3.187
 7083TIP3   OH221209   5.112   5.190   3.135
 7083TIP3    H121210   5.026   5.154   3.106
 7083TIP3    H221211   5.100   5.284   3.111
 7084TIP3   OH221212   5.519   3.760   3.135
 7084TIP3    H121213   5.560   3.707   3.064
 7084TIP3    H221214   5.592   3.818   3.162
 7085TIP3   OH221215   6.019   3.955   3.223
 7085TIP3    H121216   6.077   3.904   3.282
 7085TIP3    H221217   6.045   4.046   3.249
 7086TIP3   OH221218   6.602   5.493   2.816
 7086TIP3    H121219   6.591   5.396   2.807
 7086TIP3    H221220   6.557   5.524   2.735
 7087TIP3   OH221221   5.813   4.023   4.604
 7087TIP3    H121222   5.779   3.951   4.661
 7087TIP3    H221223   5.907   4.023   4.633
 7088TIP3   OH221224   6.063   4.020   4.722
 7088TIP3    H121225   6.150   3.996   4.686
 7088TIP3    H221226   6.051   3.952   4.791
 7089TIP3   OH221227   5.190   5.214   2.778
 7089TIP3    H121228   5.177   5.228   2.873
 7089TIP3    H221229   5.275   5.165   2.774
 7090TIP3   OH221230   6.891   4.085   4.510
 7090TIP3    H121231   6.908   4.054   4.602
 7090TIP3    H221232   6.980   4.081   4.471
 7091TIP3   OH221233   6.831   5.636   3.997
 7091TIP3    H121234   6.748   5.604   3.955
 7091TIP3    H221235   6.808   5.730   4.010
 7092TIP3   OH221236   7.390   4.900   3.517
 7092TIP3    H121237   7.415   4.834   3.584
 7092TIP3    H221238   7.463   4.963   3.525
 7093TIP3   OH221239   7.361   5.313   3.235
 7093TIP3    H121240   7.355   5.215   3.238
 7093TIP3    H221241   7.458   5.324   3.234
 7094TIP3   OH221242   7.072   4.512   3.019
 7094TIP3    H121243   7.029   4.596   3.042
 7094TIP3    H221244   6.997   4.465   2.979
 7095TIP3   OH221245   7.127   4.802   3.197
 7095TIP3    H121246   7.178   4.726   3.233
 7095TIP3    H221247   7.194   4.848   3.145
 7096TIP3   OH221248   7.879   5.234   3.196
 7096TIP3    H121249   7.908   5.162   3.139
 7096TIP3    H221250   7.963   5.269   3.229
 7097TIP3   OH221251   7.616   4.397   3.204
 7097TIP3    H121252   7.610   4.467   3.137
 7097TIP3    H221253   7.571   4.324   3.156
 7098TIP3   OH221254   7.276   4.599   3.300
 7098TIP3    H121255   7.355   4.580   3.354
 7098TIP3    H221256   7.295   4.543   3.222
 7099TIP3   OH221257   7.710   4.791   3.096
 7099TIP3    H121258   7.804   4.771   3.090
 7099TIP3    H221259   7.669   4.707   3.067
 7100TIP3   OH221260   7.632   4.377   3.638
 7100TIP3    H121261   7.577   4.419   3.570
 7100TIP3    H221262   7.581   4.400   3.719
 7101TIP3   OH221263   7.744   5.157   3.431
 7101TIP3    H121264   7.681   5.223   3.470
 7101TIP3    H221265   7.783   5.210   3.359
 7102TIP3   OH221266   7.499   4.496   3.426
 7102TIP3    H121267   7.559   4.571   3.448
 7102TIP3    H221268   7.549   4.455   3.351
 7103TIP3   OH221269   7.572   5.351   3.521
 7103TIP3    H121270   7.550   5.440   3.487
 7103TIP3    H221271   7.493   5.335   3.577
 7104TIP3   OH221272   6.964   5.039   2.758
 7104TIP3    H121273   6.927   5.070   2.673
 7104TIP3    H221274   6.998   5.124   2.795
 7105TIP3   OH221275   7.500   4.937   2.990
 7105TIP3    H121276   7.464   4.880   2.919
 7105TIP3    H221277   7.577   4.886   3.022
 7106TIP3   OH221278   7.629   5.352   3.136
 7106TIP3    H121279   7.609   5.319   3.047
 7106TIP3    H221280   7.716   5.314   3.155
 7107TIP3   OH221281   7.631   4.924   3.335
 7107TIP3    H121282   7.672   4.895   3.252
 7107TIP3    H221283   7.682   5.005   3.359
 7108TIP3   OH221284   7.777   5.468   3.669
 7108TIP3    H121285   7.715   5.529   3.715
 7108TIP3    H221286   7.713   5.415   3.618
 7109TIP3   OH221287   7.533   5.026   3.767
 7109TIP3    H121288   7.540   5.114   3.811
 7109TIP3    H221289   7.440   5.004   3.787
 7110TIP3   OH221290   7.572   5.635   3.756
 7110TIP3    H121291   7.535   5.639   3.666
 7110TIP3    H221292   7.492   5.613   3.810
 7111TIP3   OH221293   7.375   4.778   2.783
 7111TIP3    H121294   7.306   4.828   2.733
 7111TIP3    H221295   7.324   4.702   2.812
 7112TIP3   OH221296   7.151   5.167   3.702
 7112TIP3    H121297   7.084   5.145   3.635
 7112TIP3    H221298   7.190   5.080   3.725
 7113TIP3   OH221299   7.007   5.361   3.331
 7113TIP3    H121300   7.104   5.357   3.325
 7113TIP3    H221301   6.995   5.438   3.389
 7114TIP3   OH221302   7.952   5.604   3.509
 7114TIP3    H121303   7.962   5.689   3.554
 7114TIP3    H221304   7.895   5.555   3.573
 7115TIP3   OH221305   7.669   5.745   2.462
 7115TIP3    H121306   7.721   5.763   2.382
 7115TIP3    H221307   7.688   5.825   2.513
 7116TIP3   OH221308   7.173   5.576   2.864
 7116TIP3    H121309   7.224   5.569   2.948
 7116TIP3    H221310   7.121   5.494   2.869
 7117TIP3   OH221311   7.356   5.350   3.685
 7117TIP3    H121312   7.404   5.337   3.769
 7117TIP3    H221313   7.281   5.288   3.695
 7118TIP3   OH221314   7.751   4.178   3.489
 7118TIP3    H121315   7.664   4.149   3.458
 7118TIP3    H221316   7.725   4.257   3.541
 7119TIP3   OH221317   7.660   4.703   3.489
 7119TIP3    H121318   7.616   4.723   3.574
 7119TIP3    H221319   7.647   4.787   3.440
 7120TIP3   OH221320   7.571   4.570   2.998
 7120TIP3    H121321   7.478   4.550   3.022
 7120TIP3    H221322   7.581   4.517   2.917
 7121TIP3   OH221323   7.498   4.720   3.710
 7121TIP3    H121324   7.533   4.781   3.777
 7121TIP3    H221325   7.493   4.636   3.760
 7122TIP3   OH221326   7.552   4.215   2.418
 7122TIP3    H121327   7.536   4.219   2.513
 7122TIP3    H221328   7.483   4.273   2.382
 7123TIP3   OH221329   7.103   4.235   3.277
 7123TIP3    H121330   7.169   4.273   3.340
 7123TIP3    H221331   7.157   4.211   3.201
 7124TIP3   OH221332   7.068   4.219   2.798
 7124TIP3    H121333   7.106   4.264   2.719
 7124TIP3    H221334   7.005   4.290   2.825
 7125TIP3   OH221335   7.874   4.410   3.107
 7125TIP3    H121336   7.793   4.403   3.161
 7125TIP3    H221337   7.942   4.410   3.175
 7126TIP3   OH221338   7.332   4.458   3.069
 7126TIP3    H121339   7.237   4.466   3.045
 7126TIP3    H221340   7.351   4.364   3.052
 7127TIP3   OH221341   7.613   4.438   2.747
 7127TIP3    H121342   7.671   4.509   2.717
 7127TIP3    H221343   7.539   4.449   2.682
 7128TIP3   OH221344   7.442   4.479   2.546
 7128TIP3    H121345   7.370   4.440   2.495
 7128TIP3    H221346   7.494   4.521   2.474
 7129TIP3   OH221347   7.520   5.271   3.908
 7129TIP3    H121348   7.599   5.302   3.957
 7129TIP3    H221349   7.454   5.271   3.981
 7130TIP3   OH221350   7.489   4.213   3.043
 7130TIP3    H121351   7.453   4.139   3.096
 7130TIP3    H221352   7.551   4.167   2.985
 7131TIP3   OH221353   7.896   4.570   3.446
 7131TIP3    H121354   7.817   4.627   3.457
 7131TIP3    H221355   7.967   4.634   3.431
 7132TIP3   OH221356   7.693   5.008   2.570
 7132TIP3    H121357   7.616   4.951   2.549
 7132TIP3    H221358   7.667   5.047   2.657
 7133TIP3   OH221359   8.082   5.317   3.571
 7133TIP3    H121360   8.128   5.339   3.654
 7133TIP3    H221361   8.059   5.404   3.537
 7134TIP3   OH221362   7.381   5.031   3.224
 7134TIP3    H121363   7.423   5.004   3.140
 7134TIP3    H221364   7.435   4.982   3.289
 7135TIP3   OH221365   7.272   4.955   3.838
 7135TIP3    H121366   7.292   4.944   3.934
 7135TIP3    H221367   7.203   4.889   3.826
 7136TIP3   OH221368   7.991   5.070   3.863
 7136TIP3    H121369   7.943   4.998   3.820
 7136TIP3    H221370   8.085   5.045   3.849
 7137TIP3   OH221371   7.489   5.344   2.850
 7137TIP3    H121372   7.485   5.425   2.794
 7137TIP3    H221373   7.395   5.328   2.864
 7138TIP3   OH221374   7.058   4.642   2.560
 7138TIP3    H121375   7.100   4.728   2.578
 7138TIP3    H221376   6.979   4.646   2.618
 7139TIP3   OH221377   7.623   5.109   2.810
 7139TIP3    H121378   7.583   5.198   2.821
 7139TIP3    H221379   7.581   5.059   2.882
 7140TIP3   OH221380   7.757   5.677   3.317
 7140TIP3    H121381   7.800   5.746   3.261
 7140TIP3    H221382   7.832   5.649   3.372
 7141TIP3   OH221383   7.408   5.579   2.705
 7141TIP3    H121384   7.322   5.592   2.749
 7141TIP3    H221385   7.443   5.670   2.706
 7142TIP3   OH221386   7.476   4.463   3.848
 7142TIP3    H121387   7.379   4.464   3.862
 7142TIP3    H221388   7.507   4.407   3.921
 7143TIP3   OH221389   7.196   5.542   3.476
 7143TIP3    H121390   7.253   5.475   3.517
 7143TIP3    H221391   7.215   5.619   3.531
 7144TIP3   OH221392   7.484   5.189   2.163
 7144TIP3    H121393   7.499   5.096   2.137
 7144TIP3    H221394   7.467   5.180   2.259
 7145TIP3   OH221395   7.434   5.192   2.434
 7145TIP3    H121396   7.521   5.172   2.472
 7145TIP3    H221397   7.432   5.290   2.443
 7146TIP3   OH221398   7.164   4.888   2.639
 7146TIP3    H121399   7.097   4.935   2.694
 7146TIP3    H221400   7.178   4.956   2.570
 7147TIP3   OH221401   7.705   5.392   2.376
 7147TIP3    H121402   7.626   5.423   2.423
 7147TIP3    H221403   7.700   5.444   2.295
 7148TIP3   OH221404   7.442   5.461   2.454
 7148TIP3    H121405   7.423   5.532   2.389
 7148TIP3    H221406   7.432   5.510   2.539
 7149TIP3   OH221407   7.525   4.174   2.693
 7149TIP3    H121408   7.549   4.262   2.729
 7149TIP3    H221409   7.607   4.125   2.705
 7150TIP3   OH221410   7.159   5.094   2.443
 7150TIP3    H121411   7.230   5.160   2.454
 7150TIP3    H221412   7.202   5.038   2.375
 7151TIP3   OH221413   7.099   4.371   2.574
 7151TIP3    H121414   7.108   4.468   2.575
 7151TIP3    H221415   7.016   4.361   2.526
 7152TIP3   OH221416   7.484   4.095   3.447
 7152TIP3    H121417   7.456   4.056   3.362
 7152TIP3    H221418   7.475   4.020   3.509
 7153TIP3   OH221419   7.024   5.303   2.824
 7153TIP3    H121420   6.965   5.339   2.892
 7153TIP3    H221421   6.992   5.351   2.744
 7154TIP3   OH221422   7.189   5.860   3.898
 7154TIP3    H121423   7.274   5.862   3.947
 7154TIP3    H221424   7.169   5.765   3.901
 7155TIP3   OH221425   7.667   5.818   3.943
 7155TIP3    H121426   7.759   5.792   3.954
 7155TIP3    H221427   7.639   5.757   3.872
 7156TIP3   OH221428   7.660   5.374   2.074
 7156TIP3    H121429   7.583   5.327   2.113
 7156TIP3    H221430   7.726   5.304   2.082
 7157TIP3   OH221431   7.318   5.261   4.099
 7157TIP3    H121432   7.330   5.166   4.111
 7157TIP3    H221433   7.230   5.265   4.056
 7158TIP3   OH221434   7.293   4.907   2.299
 7158TIP3    H121435   7.354   4.886   2.372
 7158TIP3    H221436   7.356   4.913   2.224
 7159TIP3   OH221437   7.918   5.346   3.875
 7159TIP3    H121438   7.885   5.371   3.786
 7159TIP3    H221439   7.949   5.255   3.861
 7160TIP3   OH221440   7.440   4.993   4.084
 7160TIP3    H121441   7.520   4.944   4.061
 7160TIP3    H221442   7.465   5.030   4.171
 7161TIP3   OH221443   7.490   4.817   2.515
 7161TIP3    H121444   7.464   4.782   2.602
 7161TIP3    H221445   7.527   4.739   2.469
 7162TIP3   OH221446   7.765   4.877   3.743
 7162TIP3    H121447   7.691   4.941   3.746
 7162TIP3    H221448   7.819   4.911   3.669
 7163TIP3   OH221449   7.593   4.606   2.357
 7163TIP3    H121450   7.558   4.610   2.265
 7163TIP3    H221451   7.683   4.640   2.341
 7164TIP3   OH221452   7.860   4.661   3.877
 7164TIP3    H121453   7.871   4.581   3.821
 7164TIP3    H221454   7.821   4.724   3.813
 7165TIP3   OH221455   7.887   4.461   3.697
 7165TIP3    H121456   7.904   4.489   3.605
 7165TIP3    H221457   7.803   4.413   3.685
 7166TIP3   OH221458   7.916   4.984   3.549
 7166TIP3    H121459   7.997   5.016   3.509
 7166TIP3    H221460   7.852   5.051   3.517
 7167TIP3   OH221461   7.763   4.781   4.103
 7167TIP3    H121462   7.697   4.713   4.123
 7167TIP3    H221463   7.793   4.751   4.015
 7168TIP3   OH221464   8.126   4.744   3.889
 7168TIP3    H121465   8.173   4.681   3.947
 7168TIP3    H221466   8.034   4.712   3.896
 7169TIP3   OH221467   7.609   4.557   4.158
 7169TIP3    H121468   7.617   4.467   4.123
 7169TIP3    H221469   7.645   4.545   4.248
 7170TIP3   OH221470   7.420   5.654   2.261
 7170TIP3    H121471   7.503   5.702   2.274
 7170TIP3    H221472   7.385   5.697   2.180
 7171TIP3   OH221473   6.889   5.054   2.476
 7171TIP3    H121474   6.984   5.076   2.463
 7171TIP3    H221475   6.885   4.964   2.436
 7172TIP3   OH221476   6.808   5.664   2.895
 7172TIP3    H121477   6.742   5.603   2.856
 7172TIP3    H221478   6.852   5.605   2.960
 7173TIP3   OH221479   6.943   5.509   3.080
 7173TIP3    H121480   6.931   5.442   3.149
 7173TIP3    H221481   6.994   5.575   3.130
 7174TIP3   OH221482   7.126   4.923   3.451
 7174TIP3    H121483   7.124   4.891   3.359
 7174TIP3    H221484   7.223   4.924   3.468
 7175TIP3   OH221485   7.344   4.606   4.119
 7175TIP3    H121486   7.442   4.604   4.127
 7175TIP3    H221487   7.321   4.521   4.161
 7176TIP3   OH221488   7.301   4.303   3.453
 7176TIP3    H121489   7.363   4.228   3.465
 7176TIP3    H221490   7.363   4.378   3.452
 7177TIP3   OH221491   7.105   4.573   3.525
 7177TIP3    H121492   7.158   4.577   3.443
 7177TIP3    H221493   7.132   4.655   3.570
 7178TIP3   OH221494   7.090   4.065   3.022
 7178TIP3    H121495   7.001   4.069   3.062
 7178TIP3    H221496   7.084   4.132   2.951
 7179TIP3   OH221497   7.311   4.159   3.842
 7179TIP3    H121498   7.262   4.156   3.925
 7179TIP3    H221499   7.244   4.197   3.782
 7180TIP3   OH221500   7.354   5.586   3.920
 7180TIP3    H121501   7.259   5.564   3.906
 7180TIP3    H221502   7.363   5.570   4.014
 7181TIP3   OH221503   7.533   5.620   3.467
 7181TIP3    H121504   7.486   5.697   3.429
 7181TIP3    H221505   7.619   5.634   3.422
 7182TIP3   OH221506   7.988   5.868   3.616
 7182TIP3    H121507   8.020   5.864   3.709
 7182TIP3    H221508   8.060   5.917   3.574
 7183TIP3   OH221509   7.205   5.875   3.494
 7183TIP3    H121510   7.115   5.908   3.473
 7183TIP3    H221511   7.222   5.923   3.576
 7184TIP3   OH221512   7.442   5.854   3.353
 7184TIP3    H121513   7.355   5.866   3.396
 7184TIP3    H221514   7.425   5.887   3.263
 7185TIP3   OH221515   7.860   5.865   3.148
 7185TIP3    H121516   7.797   5.898   3.082
 7185TIP3    H221517   7.892   5.946   3.191
 7186TIP3   OH221518   7.118   5.669   3.235
 7186TIP3    H121519   7.145   5.642   3.326
 7186TIP3    H221520   7.190   5.626   3.184
 7187TIP3   OH221521   7.313   5.542   3.095
 7187TIP3    H121522   7.328   5.458   3.145
 7187TIP3    H221523   7.404   5.579   3.092
 7188TIP3   OH221524   7.577   5.632   3.105
 7188TIP3    H121525   7.607   5.540   3.097
 7188TIP3    H221526   7.628   5.660   3.183
 7189TIP3   OH221527   7.395   4.003   3.191
 7189TIP3    H121528   7.301   3.977   3.198
 7189TIP3    H221529   7.436   3.914   3.199
 7190TIP3   OH221530   7.182   3.881   2.845
 7190TIP3    H121531   7.219   3.954   2.795
 7190TIP3    H221532   7.144   3.929   2.922
 7191TIP3   OH221533   6.906   5.445   2.627
 7191TIP3    H121534   6.820   5.415   2.593
 7191TIP3    H221535   6.899   5.540   2.606
 7192TIP3   OH221536   7.326   4.007   2.593
 7192TIP3    H121537   7.410   4.005   2.544
 7192TIP3    H221538   7.350   4.079   2.655
 7193TIP3   OH221539   7.607   4.279   4.087
 7193TIP3    H121540   7.570   4.211   4.145
 7193TIP3    H221541   7.700   4.280   4.118
 7194TIP3   OH221542   7.851   4.282   4.219
 7194TIP3    H121543   7.938   4.268   4.179
 7194TIP3    H221544   7.848   4.211   4.287
 7195TIP3   OH221545   6.980   5.463   2.266
 7195TIP3    H121546   6.989   5.486   2.359
 7195TIP3    H221547   7.067   5.421   2.246
 7196TIP3   OH221548   0.567   5.783   4.443
 7196TIP3    H121549   0.552   5.880   4.437
 7196TIP3    H221550   0.482   5.756   4.480
 7197TIP3   OH221551   0.557   5.782   4.828
 7197TIP3    H121552   0.576   5.787   4.924
 7197TIP3    H221553   0.481   5.723   4.826
 7198TIP3   OH221554   0.784   6.100   4.529
 7198TIP3    H121555   0.784   6.030   4.596
 7198TIP3    H221556   0.821   6.176   4.578
 7199TIP3   OH221557   1.360   5.343   4.887
 7199TIP3    H121558   1.390   5.426   4.930
 7199TIP3    H221559   1.382   5.361   4.794
 7200TIP3   OH221560   0.751   5.520   4.921
 7200TIP3    H121561   0.794   5.435   4.944
 7200TIP3    H221562   0.730   5.505   4.827
 7201TIP3   OH221563   0.790   5.275   4.504
 7201TIP3    H121564   0.859   5.259   4.573
 7201TIP3    H221565   0.846   5.308   4.432
 7202TIP3   OH221566   1.434   5.553   5.055
 7202TIP3    H121567   1.348   5.597   5.037
 7202TIP3    H221568   1.446   5.578   5.148
 7203TIP3   OH221569   0.479   6.020   4.307
 7203TIP3    H121570   0.399   5.989   4.264
 7203TIP3    H221571   0.451   6.099   4.354
 7204TIP3   OH221572   0.994   5.282   4.682
 7204TIP3    H121573   0.978   5.234   4.765
 7204TIP3    H221574   1.047   5.358   4.712
 7205TIP3   OH221575   0.852   6.344   4.680
 7205TIP3    H121576   0.762   6.341   4.721
 7205TIP3    H221577   0.850   6.432   4.638
 7206TIP3   OH221578   1.152   5.244   5.053
 7206TIP3    H121579   1.064   5.268   5.019
 7206TIP3    H221580   1.212   5.276   4.982
 7207TIP3   OH221581   0.483   4.881   5.014
 7207TIP3    H121582   0.470   4.785   5.035
 7207TIP3    H221583   0.394   4.916   5.033
 7208TIP3   OH221584   0.546   6.377   4.335
 7208TIP3    H121585   0.609   6.304   4.321
 7208TIP3    H221586   0.606   6.453   4.317
 7209TIP3   OH221587   0.719   6.172   4.270
 7209TIP3    H121588   0.661   6.098   4.244
 7209TIP3    H221589   0.751   6.141   4.357
 7210TIP3   OH221590   1.086   6.254   5.032
 7210TIP3    H121591   1.073   6.177   4.973
 7210TIP3    H221592   1.069   6.329   4.971
 7211TIP3   OH221593   0.351   5.646   4.266
 7211TIP3    H121594   0.328   5.736   4.241
 7211TIP3    H221595   0.425   5.628   4.205
 7212TIP3   OH221596   0.342   5.440   4.007
 7212TIP3    H121597   0.412   5.490   4.052
 7212TIP3    H221598   0.395   5.371   3.963
 7213TIP3   OH221599   1.281   5.895   4.878
 7213TIP3    H121600   1.196   5.945   4.883
 7213TIP3    H221601   1.310   5.919   4.788
 7214TIP3   OH221602   0.742   5.724   4.247
 7214TIP3    H121603   0.685   5.745   4.326
 7214TIP3    H221604   0.826   5.701   4.293
 7215TIP3   OH221605   0.964   5.769   5.179
 7215TIP3    H121606   0.957   5.851   5.232
 7215TIP3    H221607   0.875   5.768   5.137
 7216TIP3   OH221608   0.628   6.340   4.837
 7216TIP3    H121609   0.656   6.389   4.916
 7216TIP3    H221610   0.640   6.249   4.870
 7217TIP3   OH221611   0.560   5.597   4.092
 7217TIP3    H121612   0.628   5.652   4.137
 7217TIP3    H221613   0.585   5.613   3.998
 7218TIP3   OH221614   1.081   4.828   4.135
 7218TIP3    H121615   1.000   4.847   4.187
 7218TIP3    H221616   1.093   4.913   4.088
 7219TIP3   OH221617   0.880   6.195   3.681
 7219TIP3    H121618   0.888   6.292   3.670
 7219TIP3    H221619   0.974   6.167   3.671
 7220TIP3   OH221620   1.325   6.602   5.079
 7220TIP3    H121621   1.323   6.506   5.097
 7220TIP3    H221622   1.243   6.630   5.126
 7221TIP3   OH221623   0.398   6.421   3.789
 7221TIP3    H121624   0.455   6.347   3.760
 7221TIP3    H221625   0.419   6.428   3.884
 7222TIP3   OH221626   0.454   6.462   4.065
 7222TIP3    H121627   0.357   6.475   4.076
 7222TIP3    H221628   0.481   6.439   4.156
 7223TIP3   OH221629   1.212   5.730   5.354
 7223TIP3    H121630   1.127   5.740   5.309
 7223TIP3    H221631   1.228   5.634   5.344
 7224TIP3   OH221632   0.746   5.076   5.360
 7224TIP3    H121633   0.814   5.048   5.425
 7224TIP3    H221634   0.663   5.061   5.410
 7225TIP3   OH221635   0.977   5.504   5.275
 7225TIP3    H121636   0.927   5.500   5.359
 7225TIP3    H221637   0.954   5.593   5.241
 7226TIP3   OH221638   0.648   5.629   3.840
 7226TIP3    H121639   0.609   5.609   3.752
 7226TIP3    H221640   0.728   5.678   3.814
 7227TIP3   OH221641   0.343   5.022   4.123
 7227TIP3    H121642   0.322   5.016   4.219
 7227TIP3    H221643   0.297   4.941   4.093
 7228TIP3   OH221644   0.522   5.463   4.420
 7228TIP3    H121645   0.463   5.526   4.374
 7228TIP3    H221646   0.580   5.433   4.347
 7229TIP3   OH221647   0.705   5.731   5.506
 7229TIP3    H121648   0.669   5.667   5.571
 7229TIP3    H221649   0.797   5.739   5.538
 7230TIP3   OH221650   0.676   5.479   4.659
 7230TIP3    H121651   0.612   5.503   4.588
 7230TIP3    H221652   0.710   5.396   4.618
 7231TIP3   OH221653   0.701   5.734   5.080
 7231TIP3    H121654   0.721   5.654   5.026
 7231TIP3    H221655   0.656   5.691   5.156
 7232TIP3   OH221656   0.375   5.116   4.784
 7232TIP3    H121657   0.325   5.187   4.742
 7232TIP3    H221658   0.448   5.164   4.827
 7233TIP3   OH221659   0.848   5.262   4.962
 7233TIP3    H121660   0.817   5.275   5.054
 7233TIP3    H221661   0.779   5.200   4.930
 7234TIP3   OH221662   1.018   6.949   5.181
 7234TIP3    H121663   1.015   6.975   5.088
 7234TIP3    H221664   1.095   6.998   5.214
 7235TIP3   OH221665   0.450   5.447   4.839
 7235TIP3    H121666   0.534   5.464   4.795
 7235TIP3    H221667   0.458   5.496   4.921
 7236TIP3   OH221668   1.045   6.038   4.865
 7236TIP3    H121669   1.071   6.089   4.785
 7236TIP3    H221670   0.962   5.995   4.837
 7237TIP3   OH221671   0.598   5.121   4.095
 7237TIP3    H121672   0.503   5.102   4.110
 7237TIP3    H221673   0.609   5.211   4.133
 7238TIP3   OH221674   0.674   5.364   4.209
 7238TIP3    H121675   0.770   5.364   4.227
 7238TIP3    H221676   0.663   5.444   4.154
 7239TIP3   OH221677   0.695   6.418   5.113
 7239TIP3    H121678   0.616   6.372   5.145
 7239TIP3    H221679   0.735   6.445   5.198
 7240TIP3   OH221680   1.113   5.454   4.041
 7240TIP3    H121681   1.051   5.411   3.978
 7240TIP3    H221682   1.110   5.545   4.003
 7241TIP3   OH221683   1.336   6.312   5.121
 7241TIP3    H121684   1.238   6.306   5.114
 7241TIP3    H221685   1.361   6.281   5.031
 7242TIP3   OH221686   0.827   6.272   3.952
 7242TIP3    H121687   0.788   6.213   4.018
 7242TIP3    H221688   0.828   6.219   3.871
 7243TIP3   OH221689   0.806   5.904   4.780
 7243TIP3    H121690   0.718   5.865   4.796
 7243TIP3    H221691   0.850   5.826   4.739
 7244TIP3   OH221692   0.680   6.108   4.968
 7244TIP3    H121693   0.673   6.064   5.054
 7244TIP3    H221694   0.734   6.044   4.919
 7245TIP3   OH221695   0.577   5.994   3.841
 7245TIP3    H121696   0.625   5.971   3.924
 7245TIP3    H221697   0.487   5.959   3.861
 7246TIP3   OH221698   0.864   6.631   5.013
 7246TIP3    H121699   0.784   6.595   5.055
 7246TIP3    H221700   0.828   6.703   4.957
 7247TIP3   OH221701   0.912   6.472   3.668
 7247TIP3    H121702   0.948   6.550   3.623
 7247TIP3    H221703   0.830   6.511   3.705
 7248TIP3   OH221704   0.734   5.928   4.059
 7248TIP3    H121705   0.727   5.864   4.132
 7248TIP3    H221706   0.831   5.931   4.050
 7249TIP3   OH221707   0.767   5.309   5.219
 7249TIP3    H121708   0.845   5.354   5.256
 7249TIP3    H221709   0.762   5.228   5.273
 7250TIP3   OH221710   0.672   5.052   4.382
 7250TIP3    H121711   0.643   5.080   4.294
 7250TIP3    H221712   0.701   5.136   4.423
 7251TIP3   OH221713   0.403   5.209   4.427
 7251TIP3    H121714   0.460   5.287   4.419
 7251TIP3    H221715   0.342   5.242   4.496
 7252TIP3   OH221716   0.622   5.582   5.291
 7252TIP3    H121717   0.642   5.639   5.368
 7252TIP3    H221718   0.668   5.500   5.314
 7253TIP3   OH221719   0.474   4.953   4.580
 7253TIP3    H121720   0.461   5.019   4.651
 7253TIP3    H221721   0.533   5.002   4.519
 7254TIP3   OH221722   1.244   5.464   5.273
 7254TIP3    H121723   1.146   5.463   5.282
 7254TIP3    H221724   1.253   5.412   5.191
 7255TIP3   OH221725   0.899   5.661   4.663
 7255TIP3    H121726   0.822   5.602   4.674
 7255TIP3    H221727   0.970   5.611   4.710
 7256TIP3   OH221728   0.864   6.613   4.606
 7256TIP3    H121729   0.822   6.662   4.532
 7256TIP3    H221730   0.959   6.634   4.587
 7257TIP3   OH221731   0.757   6.508   5.368
 7257TIP3    H121732   0.763   6.433   5.429
 7257TIP3    H221733   0.829   6.566   5.399
 7258TIP3   OH221734   0.536   6.210   3.671
 7258TIP3    H121735   0.574   6.145   3.732
 7258TIP3    H221736   0.597   6.209   3.595
 7259TIP3   OH221737   0.317   5.900   3.888
 7259TIP3    H121738   0.222   5.912   3.871
 7259TIP3    H221739   0.326   5.805   3.867
 7260TIP3   OH221740   0.881   6.151   5.186
 7260TIP3    H121741   0.959   6.191   5.142
 7260TIP3    H221742   0.811   6.210   5.157
 7261TIP3   OH221743   0.775   6.082   5.571
 7261TIP3    H121744   0.831   6.023   5.519
 7261TIP3    H221745   0.738   6.021   5.637
 7262TIP3   OH221746   0.877   5.727   3.712
 7262TIP3    H121747   0.853   5.682   3.628
 7262TIP3    H221748   0.843   5.817   3.690
 7263TIP3   OH221749   0.957   5.743   5.621
 7263TIP3    H121750   1.009   5.663   5.640
 7263TIP3    H221751   1.024   5.801   5.582
 7264TIP3   OH221752   1.003   5.993   5.366
 7264TIP3    H121753   0.946   6.052   5.312
 7264TIP3    H221754   1.090   6.013   5.326
 7265TIP3   OH221755   0.470   5.026   5.426
 7265TIP3    H121756   0.432   5.113   5.400
 7265TIP3    H221757   0.392   4.982   5.462
 7266TIP3   OH221758   0.620   5.524   5.664
 7266TIP3    H121759   0.649   5.505   5.755
 7266TIP3    H221760   0.546   5.459   5.652
 7267TIP3   OH221761   0.847   5.454   5.504
 7267TIP3    H121762   0.776   5.466   5.570
 7267TIP3    H221763   0.923   5.426   5.560
 7268TIP3   OH221764   1.077   5.402   5.655
 7268TIP3    H121765   1.089   5.306   5.672
 7268TIP3    H221766   1.069   5.439   5.745
 7269TIP3   OH221767   0.625   5.031   5.656
 7269TIP3    H121768   0.671   4.945   5.666
 7269TIP3    H221769   0.562   5.013   5.585
 7270TIP3   OH221770   0.633   5.237   5.829
 7270TIP3    H121771   0.640   5.163   5.763
 7270TIP3    H221772   0.540   5.261   5.815
 7271TIP3   OH221773   1.120   6.702   4.571
 7271TIP3    H121774   1.143   6.729   4.663
 7271TIP3    H221775   1.185   6.752   4.519
 7272TIP3   OH221776   1.156   6.720   4.849
 7272TIP3    H121777   1.108   6.634   4.847
 7272TIP3    H221778   1.225   6.698   4.913
 7273TIP3   OH221779   1.200   6.400   5.419
 7273TIP3    H121780   1.129   6.409   5.487
 7273TIP3    H221781   1.242   6.489   5.424
 7274TIP3   OH221782   1.013   5.913   4.043
 7274TIP3    H121783   1.080   5.978   4.015
 7274TIP3    H221784   1.056   5.876   4.123
 7275TIP3   OH221785   1.140   5.782   4.249
 7275TIP3    H121786   1.076   5.738   4.308
 7275TIP3    H221787   1.207   5.817   4.311
 7276TIP3   OH221788   1.195   6.174   4.677
 7276TIP3    H121789   1.250   6.107   4.633
 7276TIP3    H221790   1.193   6.247   4.611
 7277TIP3   OH221791   1.029   6.470   4.867
 7277TIP3    H121792   0.962   6.520   4.918
 7277TIP3    H221793   0.975   6.426   4.798
 7278TIP3   OH221794   1.078   5.690   3.893
 7278TIP3    H121795   1.006   5.691   3.826
 7278TIP3    H221796   1.049   5.764   3.950
 7279TIP3   OH221797   0.949   5.362   3.844
 7279TIP3    H121798   0.899   5.394   3.769
 7279TIP3    H221799   0.928   5.266   3.840
 7280TIP3   OH221800   0.958   5.637   4.395
 7280TIP3    H121801   0.964   5.540   4.390
 7280TIP3    H221802   0.941   5.651   4.491
 7281TIP3   OH221803   1.244   6.064   5.252
 7281TIP3    H121804   1.315   5.996   5.240
 7281TIP3    H221805   1.271   6.132   5.188
 7282TIP3   OH221806   1.428   5.864   5.258
 7282TIP3    H121807   1.353   5.816   5.299
 7282TIP3    H221808   1.500   5.801   5.276
 7283TIP3   OH221809   0.893   5.096   3.829
 7283TIP3    H121810   0.968   5.066   3.884
 7283TIP3    H221811   0.821   5.036   3.855
 7284TIP3   OH221812   0.949   5.353   4.284
 7284TIP3    H121813   0.989   5.264   4.300
 7284TIP3    H221814   1.009   5.385   4.215
 7285TIP3   OH221815   1.109   5.525   4.783
 7285TIP3    H121816   1.196   5.550   4.742
 7285TIP3    H221817   1.124   5.562   4.872
 7286TIP3   OH221818   1.182   5.672   5.011
 7286TIP3    H121819   1.107   5.705   5.064
 7286TIP3    H221820   1.215   5.754   4.970
 7287TIP3   OH221821   1.633   5.267   5.569
 7287TIP3    H121822   1.694   5.202   5.528
 7287TIP3    H221823   1.602   5.317   5.490
 7288TIP3   OH221824   1.059   5.105   4.324
 7288TIP3    H121825   1.106   5.089   4.409
 7288TIP3    H221826   0.999   5.027   4.323
 7289TIP3   OH221827   1.501   5.401   5.371
 7289TIP3    H121828   1.417   5.445   5.395
 7289TIP3    H221829   1.466   5.328   5.316
 7290TIP3   OH221830   1.136   5.038   3.957
 7290TIP3    H121831   1.176   4.965   3.906
 7290TIP3    H221832   1.206   5.106   3.957
 7291TIP3   OH221833   0.713   6.567   4.232
 7291TIP3    H121834   0.760   6.557   4.147
 7291TIP3    H221835   0.764   6.636   4.276
 7292TIP3   OH221836   1.402   5.163   5.254
 7292TIP3    H121837   1.311   5.152   5.221
 7292TIP3    H221838   1.436   5.071   5.246
 7293TIP3   OH221839   0.822   6.813   4.804
 7293TIP3    H121840   0.792   6.889   4.751
 7293TIP3    H221841   0.831   6.743   4.737
 7294TIP3   OH221842   0.646   5.084   4.892
 7294TIP3    H121843   0.590   5.012   4.928
 7294TIP3    H221844   0.712   5.034   4.840
 7295TIP3   OH221845   1.129   4.961   4.777
 7295TIP3    H121846   1.163   5.013   4.701
 7295TIP3    H221847   1.033   4.976   4.770
 7296TIP3   OH221848   1.223   5.061   4.540
 7296TIP3    H121849   1.298   5.009   4.504
 7296TIP3    H221850   1.257   5.152   4.526
 7297TIP3   OH221851   0.303   4.811   4.764
 7297TIP3    H121852   0.357   4.857   4.698
 7297TIP3    H221853   0.315   4.871   4.839
 7298TIP3   OH221854   0.851   4.961   4.745
 7298TIP3    H121855   0.849   4.915   4.661
 7298TIP3    H221856   0.837   4.886   4.808
 7299TIP3   OH221857   0.882   4.889   4.316
 7299TIP3    H121858   0.800   4.939   4.338
 7299TIP3    H221859   0.862   4.803   4.360
 7300TIP3   OH221860   0.261   4.978   4.385
 7300TIP3    H121861   0.308   4.930   4.455
 7300TIP3    H221862   0.303   5.066   4.397
 7301TIP3   OH221863   0.856   6.540   3.993
 7301TIP3    H121864   0.849   6.442   3.986
 7301TIP3    H221865   0.802   6.567   3.916
 7302TIP3   OH221866   1.140   5.131   5.688
 7302TIP3    H121867   1.156   5.099   5.779
 7302TIP3    H221868   1.229   5.124   5.649
 7303TIP3   OH221869   1.082   6.682   5.176
 7303TIP3    H121870   1.006   6.652   5.122
 7303TIP3    H221871   1.058   6.776   5.189
 7304TIP3   OH221872   2.345   6.054   3.942
 7304TIP3    H121873   2.314   6.145   3.923
 7304TIP3    H221874   2.267   6.003   3.913
 7305TIP3   OH221875   2.342   6.053   4.331
 7305TIP3    H121876   2.378   6.031   4.419
 7305TIP3    H221877   2.301   5.970   4.305
 7306TIP3   OH221878   1.639   5.946   4.692
 7306TIP3    H121879   1.667   5.875   4.754
 7306TIP3    H221880   1.717   6.002   4.693
 7307TIP3   OH221881   2.587   6.359   4.011
 7307TIP3    H121882   2.571   6.290   4.076
 7307TIP3    H221883   2.618   6.433   4.066
 7308TIP3   OH221884   1.612   6.359   4.411
 7308TIP3    H121885   1.604   6.261   4.413
 7308TIP3    H221886   1.709   6.368   4.413
 7309TIP3   OH221887   1.321   5.560   4.195
 7309TIP3    H121888   1.273   5.642   4.216
 7309TIP3    H221889   1.249   5.507   4.158
 7310TIP3   OH221890   1.376   5.847   4.377
 7310TIP3    H121891   1.425   5.769   4.411
 7310TIP3    H221892   1.439   5.883   4.313
 7311TIP3   OH221893   2.238   6.819   4.027
 7311TIP3    H121894   2.280   6.747   3.976
 7311TIP3    H221895   2.229   6.778   4.114
 7312TIP3   OH221896   2.140   6.281   4.375
 7312TIP3    H121897   2.181   6.203   4.334
 7312TIP3    H221898   2.222   6.328   4.401
 7313TIP3   OH221899   3.159   5.602   4.373
 7313TIP3    H121900   3.186   5.685   4.418
 7313TIP3    H221901   3.175   5.625   4.280
 7314TIP3   OH221902   2.555   5.781   4.404
 7314TIP3    H121903   2.595   5.695   4.427
 7314TIP3    H221904   2.520   5.763   4.315
 7315TIP3   OH221905   1.895   5.440   4.370
 7315TIP3    H121906   1.874   5.513   4.308
 7315TIP3    H221907   1.845   5.367   4.328
 7316TIP3   OH221908   2.592   5.534   3.993
 7316TIP3    H121909   2.663   5.514   4.058
 7316TIP3    H221910   2.645   5.568   3.919
 7317TIP3   OH221911   1.526   5.642   4.478
 7317TIP3    H121912   1.608   5.623   4.528
 7317TIP3    H221913   1.540   5.585   4.400
 7318TIP3   OH221914   1.965   5.839   4.274
 7318TIP3    H121915   2.059   5.815   4.287
 7318TIP3    H221916   1.927   5.755   4.242
 7319TIP3   OH221917   3.228   5.808   4.544
 7319TIP3    H121918   3.143   5.854   4.525
 7319TIP3    H221919   3.244   5.837   4.635
 7320TIP3   OH221920   1.888   5.424   4.807
 7320TIP3    H121921   1.827   5.461   4.740
 7320TIP3    H221922   1.836   5.439   4.888
 7321TIP3   OH221923   2.232   6.275   3.813
 7321TIP3    H121924   2.188   6.260   3.728
 7321TIP3    H221925   2.187   6.358   3.842
 7322TIP3   OH221926   1.995   6.200   4.598
 7322TIP3    H121927   1.935   6.268   4.636
 7322TIP3    H221928   2.037   6.249   4.524
 7323TIP3   OH221929   2.800   5.527   4.172
 7323TIP3    H121930   2.767   5.496   4.257
 7323TIP3    H221931   2.847   5.609   4.196
 7324TIP3   OH221932   1.760   5.539   4.589
 7324TIP3    H121933   1.822   5.610   4.615
 7324TIP3    H221934   1.810   5.498   4.515
 7325TIP3   OH221935   1.824   6.396   4.698
 7325TIP3    H121936   1.798   6.484   4.665
 7325TIP3    H221937   1.745   6.377   4.753
 7326TIP3   OH221938   1.215   6.085   3.934
 7326TIP3    H121939   1.172   6.117   3.853
 7326TIP3    H221940   1.249   6.169   3.973
 7327TIP3   OH221941   2.654   6.602   4.174
 7327TIP3    H121942   2.565   6.592   4.214
 7327TIP3    H221943   2.645   6.688   4.130
 7328TIP3   OH221944   2.948   5.499   4.536
 7328TIP3    H121945   2.860   5.527   4.506
 7328TIP3    H221946   3.007   5.534   4.466
 7329TIP3   OH221947   2.239   5.140   4.521
 7329TIP3    H121948   2.225   5.045   4.541
 7329TIP3    H221949   2.163   5.179   4.569
 7330TIP3   OH221950   2.353   6.644   3.845
 7330TIP3    H121951   2.404   6.561   3.828
 7330TIP3    H221952   2.417   6.709   3.806
 7331TIP3   OH221953   2.500   6.430   3.760
 7331TIP3    H121954   2.459   6.350   3.725
 7331TIP3    H221955   2.539   6.397   3.844
 7332TIP3   OH221956   2.881   6.510   4.519
 7332TIP3    H121957   2.868   6.433   4.460
 7332TIP3    H221958   2.863   6.585   4.458
 7333TIP3   OH221959   2.173   5.905   3.778
 7333TIP3    H121960   2.094   5.958   3.757
 7333TIP3    H221961   2.219   5.902   3.693
 7334TIP3   OH221962   2.130   5.695   3.487
 7334TIP3    H121963   2.196   5.745   3.538
 7334TIP3    H221964   2.188   5.631   3.441
 7335TIP3   OH221965   3.076   6.149   4.364
 7335TIP3    H121966   2.992   6.200   4.369
 7335TIP3    H221967   3.107   6.175   4.275
 7336TIP3   OH221968   2.522   5.989   3.745
 7336TIP3    H121969   2.468   6.011   3.824
 7336TIP3    H221970   2.607   5.965   3.789
 7337TIP3   OH221971   2.755   6.026   4.665
 7337TIP3    H121972   2.753   6.108   4.716
 7337TIP3    H221973   2.668   6.031   4.619
 7338TIP3   OH221974   1.755   5.985   4.165
 7338TIP3    H121975   1.714   5.926   4.098
 7338TIP3    H221976   1.830   5.931   4.197
 7339TIP3   OH221977   1.886   6.401   4.312
 7339TIP3    H121978   1.865   6.360   4.227
 7339TIP3    H221979   1.975   6.363   4.330
 7340TIP3   OH221980   1.889   5.956   4.520
 7340TIP3    H121981   1.923   5.931   4.431
 7340TIP3    H221982   1.933   6.042   4.537
 7341TIP3   OH221983   2.414   6.595   4.297
 7341TIP3    H121984   2.403   6.674   4.351
 7341TIP3    H221985   2.398   6.522   4.360
 7342TIP3   OH221986   2.028   6.513   4.843
 7342TIP3    H121987   1.967   6.574   4.890
 7342TIP3    H221988   1.964   6.459   4.793
 7343TIP3   OH221989   2.358   5.849   3.574
 7343TIP3    H121990   2.418   5.908   3.624
 7343TIP3    H221991   2.385   5.869   3.481
 7344TIP3   OH221992   1.783   6.068   4.946
 7344TIP3    H121993   1.788   6.156   4.989
 7344TIP3    H221994   1.689   6.047   4.963
 7345TIP3   OH221995   2.106   6.523   3.848
 7345TIP3    H121996   2.189   6.573   3.857
 7345TIP3    H221997   2.046   6.589   3.810
 7346TIP3   OH221998   1.821   6.678   4.932
 7346TIP3    H121999   1.784   6.681   4.842
 7346TIP3    H222000   1.742   6.656   4.986
 7347TIP3   OH222001   2.884   5.088   3.628
 7347TIP3    H122002   2.799   5.103   3.673
 7347TIP3    H222003   2.892   5.169   3.573
 7348TIP3   OH222004   1.622   5.829   3.966
 7348TIP3    H122005   1.549   5.869   3.914
 7348TIP3    H222006   1.587   5.741   3.985
 7349TIP3   OH222007   2.677   6.451   3.171
 7349TIP3    H122008   2.686   6.548   3.157
 7349TIP3    H222009   2.770   6.422   3.160
 7350TIP3   OH222010   1.400   6.212   4.878
 7350TIP3    H122011   1.333   6.189   4.811
 7350TIP3    H222012   1.438   6.125   4.901
 7351TIP3   OH222013   1.255   6.406   4.506
 7351TIP3    H122014   1.351   6.402   4.503
 7351TIP3    H222015   1.241   6.483   4.565
 7352TIP3   OH222016   3.118   6.859   4.567
 7352TIP3    H122017   3.117   6.762   4.583
 7352TIP3    H222018   3.035   6.884   4.613
 7353TIP3   OH222019   2.223   6.642   4.701
 7353TIP3    H122020   2.220   6.734   4.734
 7353TIP3    H222021   2.152   6.601   4.755
 7354TIP3   OH222022   1.987   6.767   3.654
 7354TIP3    H122023   1.941   6.755   3.569
 7354TIP3    H222024   1.958   6.855   3.683
 7355TIP3   OH222025   1.424   6.620   4.040
 7355TIP3    H122026   1.472   6.613   4.126
 7355TIP3    H222027   1.374   6.537   4.040
 7356TIP3   OH222028   2.185   6.672   3.291
 7356TIP3    H122029   2.245   6.602   3.256
 7356TIP3    H222030   2.221   6.684   3.382
 7357TIP3   OH222031   2.238   6.720   3.560
 7357TIP3    H122032   2.150   6.729   3.604
 7357TIP3    H222033   2.291   6.684   3.633
 7358TIP3   OH222034   3.008   5.986   4.842
 7358TIP3    H122035   2.923   5.995   4.795
 7358TIP3    H222036   3.024   5.890   4.834
 7359TIP3   OH222037   1.604   6.395   4.861
 7359TIP3    H122038   1.653   6.380   4.945
 7359TIP3    H222039   1.530   6.332   4.870
 7360TIP3   OH222040   2.004   5.219   4.652
 7360TIP3    H122041   1.915   5.188   4.622
 7360TIP3    H222042   1.976   5.298   4.702
 7361TIP3   OH222043   2.540   5.333   4.846
 7361TIP3    H122044   2.610   5.304   4.909
 7361TIP3    H222045   2.457   5.313   4.895
 7362TIP3   OH222046   2.774   5.763   4.764
 7362TIP3    H122047   2.723   5.759   4.848
 7362TIP3    H222048   2.751   5.851   4.729
 7363TIP3   OH222049   2.434   5.891   3.318
 7363TIP3    H122050   2.403   5.865   3.229
 7363TIP3    H222051   2.519   5.933   3.296
 7364TIP3   OH222052   2.146   5.269   3.622
 7364TIP3    H122053   2.113   5.262   3.714
 7364TIP3    H222054   2.111   5.184   3.587
 7365TIP3   OH222055   1.937   5.735   4.670
 7365TIP3    H122056   1.886   5.755   4.751
 7365TIP3    H222057   1.920   5.816   4.617
 7366TIP3   OH222058   1.819   5.622   4.183
 7366TIP3    H122059   1.727   5.594   4.203
 7366TIP3    H222060   1.831   5.580   4.095
 7367TIP3   OH222061   2.311   5.705   3.914
 7367TIP3    H122062   2.260   5.776   3.869
 7367TIP3    H222063   2.366   5.671   3.840
 7368TIP3   OH222064   2.485   5.981   4.995
 7368TIP3    H122065   2.463   5.909   5.058
 7368TIP3    H222066   2.579   5.996   5.018
 7369TIP3   OH222067   2.467   5.732   4.149
 7369TIP3    H122068   2.403   5.759   4.080
 7369TIP3    H222069   2.503   5.652   4.104
 7370TIP3   OH222070   1.755   5.761   4.877
 7370TIP3    H122071   1.783   5.824   4.945
 7370TIP3    H222072   1.744   5.679   4.929
 7371TIP3   OH222073   1.801   5.243   3.587
 7371TIP3    H122074   1.797   5.239   3.684
 7371TIP3    H222075   1.722   5.295   3.566
 7372TIP3   OH222076   1.349   5.284   4.456
 7372TIP3    H122077   1.423   5.316   4.512
 7372TIP3    H222078   1.393   5.250   4.377
 7373TIP3   OH222079   1.315   5.264   3.976
 7373TIP3    H122080   1.364   5.300   3.899
 7373TIP3    H222081   1.255   5.338   3.994
 7374TIP3   OH222082   2.476   5.978   4.570
 7374TIP3    H122083   2.511   5.907   4.511
 7374TIP3    H222084   2.447   5.924   4.646
 7375TIP3   OH222085   2.152   5.444   4.244
 7375TIP3    H122086   2.070   5.441   4.297
 7375TIP3    H222087   2.221   5.435   4.312
 7376TIP3   OH222088   1.582   5.499   4.250
 7376TIP3    H122089   1.488   5.506   4.222
 7376TIP3    H222090   1.604   5.406   4.230
 7377TIP3   OH222091   1.846   5.493   3.943
 7377TIP3    H122092   1.940   5.506   3.922
 7377TIP3    H222093   1.800   5.514   3.858
 7378TIP3   OH222094   2.638   5.518   4.441
 7378TIP3    H122095   2.611   5.531   4.535
 7378TIP3    H222096   2.568   5.457   4.412
 7379TIP3   OH222097   1.695   5.529   3.717
 7379TIP3    H122098   1.620   5.487   3.671
 7379TIP3    H222099   1.746   5.565   3.642
 7380TIP3   OH222100   2.812   7.208   4.668
 7380TIP3    H122101   2.810   7.231   4.573
 7380TIP3    H222102   2.893   7.253   4.697
 7381TIP3   OH222103   1.768   6.318   5.085
 7381TIP3    H122104   1.847   6.347   5.134
 7381TIP3    H222105   1.702   6.315   5.157
 7382TIP3   OH222106   2.228   5.773   4.343
 7382TIP3    H122107   2.301   5.730   4.296
 7382TIP3    H222108   2.231   5.729   4.430
 7383TIP3   OH222109   1.749   5.257   4.225
 7383TIP3    H122110   1.711   5.181   4.275
 7383TIP3    H222111   1.799   5.211   4.156
 7384TIP3   OH222112   2.206   5.674   4.625
 7384TIP3    H122113   2.116   5.706   4.644
 7384TIP3    H222114   2.262   5.734   4.679
 7385TIP3   OH222115   1.942   6.058   3.724
 7385TIP3    H122116   1.870   5.991   3.713
 7385TIP3    H222117   1.923   6.092   3.815
 7386TIP3   OH222118   2.842   6.294   4.352
 7386TIP3    H122119   2.866   6.346   4.272
 7386TIP3    H222120   2.758   6.251   4.326
 7387TIP3   OH222121   2.399   5.368   3.595
 7387TIP3    H122122   2.303   5.347   3.602
 7387TIP3    H222123   2.404   5.463   3.620
 7388TIP3   OH222124   2.342   6.377   4.723
 7388TIP3    H122125   2.372   6.357   4.812
 7388TIP3    H222126   2.303   6.466   4.733
 7389TIP3   OH222127   2.468   5.621   3.696
 7389TIP3    H122128   2.565   5.624   3.710
 7389TIP3    H222129   2.451   5.701   3.644
 7390TIP3   OH222130   1.636   6.082   4.400
 7390TIP3    H122131   1.676   6.051   4.316
 7390TIP3    H222132   1.679   6.024   4.465
 7391TIP3   OH222133   2.086   6.206   3.545
 7391TIP3    H122134   2.038   6.292   3.549
 7391TIP3    H222135   2.033   6.151   3.608
 7392TIP3   OH222136   1.519   5.999   5.015
 7392TIP3    H122137   1.536   5.986   5.110
 7392TIP3    H222138   1.449   5.934   4.998
 7393TIP3   OH222139   2.245   6.118   5.033
 7393TIP3    H122140   2.183   6.055   4.992
 7393TIP3    H222141   2.331   6.080   5.005
 7394TIP3   OH222142   2.500   6.639   4.619
 7394TIP3    H122143   2.404   6.635   4.634
 7394TIP3    H222144   2.529   6.689   4.697
 7395TIP3   OH222145   2.909   5.712   3.529
 7395TIP3    H122146   2.848   5.668   3.466
 7395TIP3    H222147   2.907   5.801   3.488
 7396TIP3   OH222148   3.131   6.569   4.607
 7396TIP3    H122149   3.034   6.562   4.600
 7396TIP3    H222150   3.157   6.538   4.518
 7397TIP3   OH222151   2.611   6.529   3.437
 7397TIP3    H122152   2.587   6.460   3.500
 7397TIP3    H222153   2.626   6.479   3.354
 7398TIP3   OH222154   2.608   6.158   4.268
 7398TIP3    H122155   2.515   6.134   4.283
 7398TIP3    H222156   2.641   6.077   4.225
 7399TIP3   OH222157   1.738   6.385   4.024
 7399TIP3    H122158   1.732   6.466   3.970
 7399TIP3    H222159   1.645   6.368   4.044
 7400TIP3   OH222160   1.297   5.689   3.728
 7400TIP3    H122161   1.344   5.772   3.753
 7400TIP3    H222162   1.223   5.691   3.792
 7401TIP3   OH222163   1.869   6.147   3.966
 7401TIP3    H122164   1.836   6.237   3.987
 7401TIP3    H222165   1.837   6.096   4.043
 7402TIP3   OH222166   2.007   6.728   4.494
 7402TIP3    H122167   2.052   6.800   4.445
 7402TIP3    H222168   2.082   6.690   4.542
 7403TIP3   OH222169   1.652   6.626   3.876
 7403TIP3    H122170   1.569   6.634   3.926
 7403TIP3    H222171   1.685   6.719   3.881
 7404TIP3   OH222172   2.392   6.362   4.455
 7404TIP3    H122173   2.380   6.361   4.553
 7404TIP3    H222174   2.472   6.309   4.445
 7405TIP3   OH222175   2.372   6.257   3.339
 7405TIP3    H122176   2.427   6.231   3.416
 7405TIP3    H222177   2.284   6.229   3.370
 7406TIP3   OH222178   2.642   6.893   4.505
 7406TIP3    H122179   2.562   6.836   4.500
 7406TIP3    H222180   2.624   6.956   4.432
 7407TIP3   OH222181   2.708   6.727   3.157
 7407TIP3    H122182   2.746   6.801   3.107
 7407TIP3    H222183   2.627   6.771   3.191
 7408TIP3   OH222184   1.726   5.506   5.020
 7408TIP3    H122185   1.629   5.508   5.033
 7408TIP3    H222186   1.754   5.450   5.094
 7409TIP3   OH222187   2.532   6.187   3.551
 7409TIP3    H122188   2.521   6.123   3.624
 7409TIP3    H222189   2.630   6.184   3.541
 7410TIP3   OH222190   1.446   6.586   4.652
 7410TIP3    H122191   1.501   6.517   4.692
 7410TIP3    H222192   1.463   6.661   4.711
 7411TIP3   OH222193   1.731   6.235   3.337
 7411TIP3    H122194   1.750   6.142   3.315
 7411TIP3    H222195   1.712   6.228   3.433
 7412TIP3   OH222196   1.678   6.241   3.609
 7412TIP3    H122197   1.751   6.212   3.665
 7412TIP3    H222198   1.683   6.339   3.619
 7413TIP3   OH222199   1.411   5.931   3.814
 7413TIP3    H122200   1.344   5.976   3.871
 7413TIP3    H222201   1.425   6.001   3.747
 7414TIP3   OH222202   2.571   5.566   4.702
 7414TIP3    H122203   2.647   5.607   4.746
 7414TIP3    H222204   2.556   5.487   4.758
 7415TIP3   OH222205   2.443   5.321   3.876
 7415TIP3    H122206   2.433   5.339   3.781
 7415TIP3    H222207   2.484   5.404   3.909
 7416TIP3   OH222208   1.945   6.436   3.555
 7416TIP3    H122209   1.859   6.460   3.595
 7416TIP3    H222210   1.963   6.516   3.504
 7417TIP3   OH222211   2.130   5.504   3.975
 7417TIP3    H122212   2.195   5.576   3.958
 7417TIP3    H222213   2.137   5.493   4.072
 7418TIP3   OH222214   2.406   5.818   4.779
 7418TIP3    H122215   2.428   5.871   4.858
 7418TIP3    H222216   2.457   5.737   4.793
 7419TIP3   OH222217   2.274   5.223   4.073
 7419TIP3    H122218   2.270   5.300   4.132
 7419TIP3    H222219   2.337   5.256   4.005
 7420TIP3   OH222220   1.691   6.513   3.628
 7420TIP3    H122221   1.660   6.584   3.567
 7420TIP3    H222222   1.675   6.555   3.716
 7421TIP3   OH222223   1.790   5.228   3.862
 7421TIP3    H122224   1.788   5.317   3.904
 7421TIP3    H222225   1.886   5.209   3.871
 7422TIP3   OH222226   3.041   5.719   4.762
 7422TIP3    H122227   2.943   5.719   4.770
 7422TIP3    H222228   3.051   5.672   4.679
 7423TIP3   OH222229   2.694   5.913   4.149
 7423TIP3    H122230   2.617   5.855   4.162
 7423TIP3    H222231   2.765   5.866   4.198
 7424TIP3   OH222232   1.409   6.139   3.617
 7424TIP3    H122233   1.481   6.204   3.629
 7424TIP3    H222234   1.453   6.081   3.550
 7425TIP3   OH222235   1.351   5.420   3.750
 7425TIP3    H122236   1.348   5.518   3.748
 7425TIP3    H222237   1.265   5.397   3.713
 7426TIP3   OH222238   2.663   6.872   4.096
 7426TIP3    H122239   2.621   6.919   4.021
 7426TIP3    H222240   2.758   6.891   4.076
 7427TIP3   OH222241   1.739   5.138   4.623
 7427TIP3    H122242   1.709   5.102   4.537
 7427TIP3    H222243   1.729   5.061   4.682
 7428TIP3   OH222244   1.276   6.356   4.002
 7428TIP3    H122245   1.213   6.384   4.070
 7428TIP3    H222246   1.238   6.398   3.921
 7429TIP3   OH222247   1.439   6.904   5.073
 7429TIP3    H122248   1.523   6.904   5.123
 7429TIP3    H222249   1.416   6.809   5.076
 7430TIP3   OH222250   1.915   6.862   5.120
 7430TIP3    H122251   2.009   6.839   5.127
 7430TIP3    H222252   1.887   6.799   5.050
 7431TIP3   OH222253   1.895   6.437   3.246
 7431TIP3    H122254   1.840   6.366   3.286
 7431TIP3    H222255   1.973   6.386   3.219
 7432TIP3   OH222256   2.555   6.769   4.855
 7432TIP3    H122257   2.547   6.700   4.924
 7432TIP3    H222258   2.632   6.821   4.886
 7433TIP3   OH222259   2.331   6.476   3.162
 7433TIP3    H122260   2.374   6.413   3.224
 7433TIP3    H222261   2.391   6.473   3.085
 7434TIP3   OH222262   1.566   6.307   5.276
 7434TIP3    H122263   1.580   6.211   5.286
 7434TIP3    H222264   1.479   6.309   5.232
 7435TIP3   OH222265   1.544   5.952   3.473
 7435TIP3    H122266   1.598   5.922   3.548
 7435TIP3    H222267   1.613   5.958   3.404
 7436TIP3   OH222268   2.172   6.393   5.051
 7436TIP3    H122269   2.131   6.412   4.965
 7436TIP3    H222270   2.203   6.301   5.041
 7437TIP3   OH222271   2.054   6.154   3.278
 7437TIP3    H122272   2.058   6.166   3.375
 7437TIP3    H222273   2.057   6.056   3.272
 7438TIP3   OH222274   2.664   6.403   4.659
 7438TIP3    H122275   2.741   6.446   4.615
 7438TIP3    H222276   2.595   6.470   4.642
 7439TIP3   OH222277   1.687   6.043   5.260
 7439TIP3    H122278   1.762   5.987   5.237
 7439TIP3    H222279   1.714   6.076   5.349
 7440TIP3   OH222280   1.746   5.862   3.690
 7440TIP3    H122281   1.721   5.825   3.776
 7440TIP3    H222282   1.785   5.785   3.644
 7441TIP3   OH222283   2.020   5.925   4.922
 7441TIP3    H122284   1.941   5.983   4.920
 7441TIP3    H222285   2.072   5.959   4.845
 7442TIP3   OH222286   1.852   5.656   3.532
 7442TIP3    H122287   1.830   5.662   3.437
 7442TIP3    H222288   1.950   5.656   3.528
 7443TIP3   OH222289   2.538   6.327   5.054
 7443TIP3    H122290   2.616   6.294   5.008
 7443TIP3    H222291   2.530   6.263   5.127
 7444TIP3   OH222292   2.669   5.983   3.200
 7444TIP3    H122293   2.650   5.938   3.115
 7444TIP3    H222294   2.635   6.073   3.179
 7445TIP3   OH222295   2.144   5.715   5.045
 7445TIP3    H122296   2.144   5.635   4.988
 7445TIP3    H222297   2.099   5.781   4.988
 7446TIP3   OH222298   2.146   5.502   4.855
 7446TIP3    H122299   2.174   5.541   4.770
 7446TIP3    H222300   2.053   5.478   4.836
 7447TIP3   OH222301   2.169   6.032   4.727
 7447TIP3    H122302   2.255   6.047   4.687
 7447TIP3    H222303   2.113   6.098   4.681
 7448TIP3   OH222304   2.751   5.999   5.106
 7448TIP3    H122305   2.799   5.916   5.123
 7448TIP3    H222306   2.822   6.056   5.072
 7449TIP3   OH222307   2.795   6.255   4.843
 7449TIP3    H122308   2.737   6.310   4.785
 7449TIP3    H222309   2.883   6.277   4.805
 7450TIP3   OH222310   2.022   5.820   5.280
 7450TIP3    H122311   1.954   5.751   5.296
 7450TIP3    H222312   2.055   5.794   5.191
 7451TIP3   OH222313   2.278   5.261   4.923
 7451TIP3    H122314   2.227   5.342   4.901
 7451TIP3    H222315   2.209   5.192   4.913
 7452TIP3   OH222316   2.404   5.764   5.139
 7452TIP3    H122317   2.390   5.748   5.234
 7452TIP3    H222318   2.314   5.741   5.106
 7453TIP3   OH222319   2.641   5.714   4.993
 7453TIP3    H122320   2.568   5.716   5.057
 7453TIP3    H222321   2.716   5.685   5.048
 7454TIP3   OH222322   2.871   5.657   5.141
 7454TIP3    H122323   2.885   5.562   5.157
 7454TIP3    H222324   2.867   5.694   5.232
 7455TIP3   OH222325   1.861   5.601   5.334
 7455TIP3    H122326   1.864   5.508   5.302
 7455TIP3    H222327   1.899   5.590   5.424
 7456TIP3   OH222328   2.371   5.273   5.182
 7456TIP3    H122329   2.438   5.201   5.177
 7456TIP3    H222330   2.332   5.267   5.093
 7457TIP3   OH222331   2.440   5.488   5.339
 7457TIP3    H122332   2.418   5.416   5.276
 7457TIP3    H222333   2.360   5.544   5.333
 7458TIP3   OH222334   1.660   6.718   3.439
 7458TIP3    H122335   1.756   6.706   3.423
 7458TIP3    H222336   1.636   6.769   3.360
 7459TIP3   OH222337   1.139   6.102   3.649
 7459TIP3    H122338   1.235   6.121   3.638
 7459TIP3    H222339   1.134   6.011   3.611
 7460TIP3   OH222340   1.061   6.712   4.064
 7460TIP3    H122341   0.991   6.652   4.030
 7460TIP3    H222342   1.102   6.653   4.132
 7461TIP3   OH222343   1.189   6.559   4.256
 7461TIP3    H122344   1.175   6.489   4.322
 7461TIP3    H222345   1.242   6.621   4.311
 7462TIP3   OH222346   2.918   6.961   4.057
 7462TIP3    H122347   2.944   6.990   4.146
 7462TIP3    H222348   2.985   7.002   4.001
 7463TIP3   OH222349   2.946   6.977   4.339
 7463TIP3    H122350   2.901   6.890   4.335
 7463TIP3    H222351   3.021   6.954   4.396
 7464TIP3   OH222352   2.991   6.658   4.912
 7464TIP3    H122353   2.920   6.667   4.978
 7464TIP3    H222354   3.035   6.745   4.916
 7465TIP3   OH222355   2.810   6.170   3.530
 7465TIP3    H122356   2.876   6.235   3.500
 7465TIP3    H222357   2.854   6.133   3.610
 7466TIP3   OH222358   2.937   6.037   3.734
 7466TIP3    H122359   2.871   5.996   3.794
 7466TIP3    H222360   3.003   6.073   3.797
 7467TIP3   OH222361   2.993   6.432   4.166
 7467TIP3    H122362   3.046   6.363   4.120
 7467TIP3    H222363   2.990   6.504   4.099
 7468TIP3   OH222364   2.820   6.730   4.360
 7468TIP3    H122365   2.748   6.772   4.411
 7468TIP3    H222366   2.770   6.685   4.289
 7469TIP3   OH222367   2.874   5.946   3.379
 7469TIP3    H122368   2.802   5.947   3.313
 7469TIP3    H222369   2.846   6.021   3.436
 7470TIP3   OH222370   2.742   5.619   3.336
 7470TIP3    H122371   2.699   5.649   3.255
 7470TIP3    H222372   2.722   5.523   3.331
 7471TIP3   OH222373   2.748   5.897   3.880
 7471TIP3    H122374   2.757   5.800   3.872
 7471TIP3    H222375   2.734   5.909   3.976
 7472TIP3   OH222376   1.374   5.970   4.628
 7472TIP3    H122377   1.372   5.935   4.536
 7472TIP3    H222378   1.471   5.970   4.644
 7473TIP3   OH222379   3.041   6.321   4.738
 7473TIP3    H122380   3.112   6.253   4.728
 7473TIP3    H222381   3.067   6.388   4.674
 7474TIP3   OH222382   3.223   6.121   4.746
 7474TIP3    H122383   3.149   6.072   4.787
 7474TIP3    H222384   3.296   6.058   4.763
 7475TIP3   OH222385   2.687   5.353   3.318
 7475TIP3    H122386   2.759   5.318   3.373
 7475TIP3    H222387   2.612   5.293   3.336
 7476TIP3   OH222388   2.749   5.611   3.772
 7476TIP3    H122389   2.790   5.522   3.787
 7476TIP3    H222390   2.806   5.644   3.700
 7477TIP3   OH222391   2.905   5.779   4.270
 7477TIP3    H122392   2.991   5.804   4.228
 7477TIP3    H222393   2.919   5.818   4.358
 7478TIP3   OH222394   2.977   5.928   4.498
 7478TIP3    H122395   2.901   5.962   4.549
 7478TIP3    H222396   3.010   6.010   4.455
 7479TIP3   OH222397   1.595   5.654   5.303
 7479TIP3    H122398   1.693   5.647   5.307
 7479TIP3    H222399   1.571   5.567   5.340
 7480TIP3   OH222400   3.426   5.521   5.055
 7480TIP3    H122401   3.489   5.456   5.017
 7480TIP3    H222402   3.399   5.573   4.977
 7481TIP3   OH222403   2.856   5.360   3.819
 7481TIP3    H122404   2.884   5.347   3.911
 7481TIP3    H222405   2.795   5.284   3.807
 7482TIP3   OH222406   1.555   5.347   4.630
 7482TIP3    H122407   1.615   5.271   4.640
 7482TIP3    H222408   1.618   5.420   4.623
 7483TIP3   OH222409   1.355   5.619   4.703
 7483TIP3    H122410   1.406   5.618   4.620
 7483TIP3    H222411   1.385   5.700   4.744
 7484TIP3   OH222412   3.298   5.658   4.857
 7484TIP3    H122413   3.214   5.701   4.882
 7484TIP3    H222414   3.263   5.584   4.803
 7485TIP3   OH222415   2.934   5.293   3.445
 7485TIP3    H122416   2.969   5.221   3.388
 7485TIP3    H222417   3.003   5.361   3.439
 7486TIP3   OH222418   1.342   5.122   4.205
 7486TIP3    H122419   1.250   5.117   4.236
 7486TIP3    H222420   1.334   5.182   4.128
 7487TIP3   OH222421   2.498   6.829   3.710
 7487TIP3    H122422   2.553   6.820   3.630
 7487TIP3    H222423   2.550   6.892   3.763
 7488TIP3   OH222424   1.562   5.204   5.020
 7488TIP3    H122425   1.511   5.198   5.102
 7488TIP3    H222426   1.495   5.241   4.959
 7489TIP3   OH222427   1.602   6.633   5.096
 7489TIP3    H122428   1.508   6.609   5.080
 7489TIP3    H222429   1.611   6.613   5.190
 7490TIP3   OH222430   1.782   6.666   4.644
 7490TIP3    H122431   1.733   6.742   4.606
 7490TIP3    H222432   1.867   6.681   4.599
 7491TIP3   OH222433   2.221   6.909   4.782
 7491TIP3    H122434   2.264   6.907   4.870
 7491TIP3    H222435   2.288   6.961   4.731
 7492TIP3   OH222436   2.401   7.064   4.643
 7492TIP3    H122437   2.471   7.012   4.601
 7492TIP3    H222438   2.455   7.119   4.704
 7493TIP3   OH222439   3.201   5.418   4.739
 7493TIP3    H122440   3.109   5.408   4.711
 7493TIP3    H222441   3.233   5.325   4.729
 7494TIP3   OH222442   1.459   6.921   4.670
 7494TIP3    H122443   1.368   6.952   4.649
 7494TIP3    H222444   1.472   6.963   4.755
 7495TIP3   OH222445   1.693   6.900   4.528
 7495TIP3    H122446   1.606   6.912   4.572
 7495TIP3    H222447   1.673   6.932   4.438
 7496TIP3   OH222448   2.118   6.928   4.325
 7496TIP3    H122449   2.048   6.946   4.260
 7496TIP3    H222450   2.129   7.015   4.367
 7497TIP3   OH222451   2.387   6.866   4.378
 7497TIP3    H122452   2.294   6.885   4.357
 7497TIP3    H222453   2.433   6.939   4.334
 7498TIP3   OH222454   2.590   7.055   4.291
 7498TIP3    H122455   2.579   7.140   4.243
 7498TIP3    H222456   2.619   6.996   4.218
 7499TIP3   OH222457   1.369   6.714   4.412
 7499TIP3    H122458   1.393   6.686   4.503
 7499TIP3    H222459   1.441   6.668   4.363
 7500TIP3   OH222460   1.564   6.586   4.271
 7500TIP3    H122461   1.577   6.502   4.322
 7500TIP3    H222462   1.655   6.621   4.269
 7501TIP3   OH222463   1.831   6.678   4.277
 7501TIP3    H122464   1.860   6.585   4.269
 7501TIP3    H222465   1.878   6.702   4.360
 7502TIP3   OH222466   2.403   5.335   4.362
 7502TIP3    H122467   2.359   5.265   4.414
 7502TIP3    H222468   2.476   5.286   4.319
 7503TIP3   OH222469   2.932   5.215   4.261
 7503TIP3    H122470   2.965   5.268   4.186
 7503TIP3    H222471   2.836   5.233   4.257
 7504TIP3   OH222472   3.052   5.297   4.027
 7504TIP3    H122473   3.078   5.266   3.939
 7504TIP3    H222474   3.079   5.392   4.020
 7505TIP3   OH222475   1.651   5.044   4.375
 7505TIP3    H122476   1.559   5.010   4.380
 7505TIP3    H222477   1.699   4.958   4.371
 7506TIP3   OH222478   1.434   4.918   4.026
 7506TIP3    H122479   1.467   4.974   3.954
 7506TIP3    H222480   1.411   4.984   4.095
 7507TIP3   OH222481   2.096   5.074   4.258
 7507TIP3    H122482   2.153   5.122   4.195
 7507TIP3    H222483   2.124   5.113   4.342
 7508TIP3   OH222484   2.646   5.222   4.239
 7508TIP3    H122485   2.643   5.178   4.153
 7508TIP3    H222486   2.633   5.146   4.300
 7509TIP3   OH222487   2.673   5.151   3.805
 7509TIP3    H122488   2.583   5.187   3.817
 7509TIP3    H222489   2.662   5.064   3.849
 7510TIP3   OH222490   1.156   6.485   3.798
 7510TIP3    H122491   1.070   6.452   3.767
 7510TIP3    H222492   1.143   6.580   3.784
 7511TIP3   OH222493   1.559   5.076   3.784
 7511TIP3    H122494   1.605   5.010   3.729
 7511TIP3    H222495   1.634   5.127   3.820
 7512TIP3   OH222496   2.066   5.252   3.886
 7512TIP3    H122497   2.126   5.203   3.945
 7512TIP3    H222498   2.090   5.344   3.913
 7513TIP3   OH222499   1.926   6.672   3.386
 7513TIP3    H122500   2.015   6.694   3.351
 7513TIP3    H222501   1.905   6.597   3.326
 7514TIP3   OH222502   2.648   6.795   3.480
 7514TIP3    H122503   2.639   6.697   3.471
 7514TIP3    H222504   2.601   6.825   3.400
 7515TIP3   OH222505   1.859   5.327   5.268
 7515TIP3    H122506   1.822   5.257   5.324
 7515TIP3    H222507   1.953   5.325   5.298
 7516TIP3   OH222508   2.109   5.323   5.387
 7516TIP3    H122509   2.195   5.296   5.349
 7516TIP3    H222510   2.096   5.253   5.455
 7517TIP3   OH222511   1.232   6.513   3.443
 7517TIP3    H122512   1.231   6.519   3.540
 7517TIP3    H222513   1.319   6.470   3.427
 7518TIP3   OH222514   2.935   5.387   5.174
 7518TIP3    H122515   2.952   5.355   5.266
 7518TIP3    H222516   3.025   5.381   5.135
 7519TIP3   OH222517   2.870   6.937   4.666
 7519TIP3    H122518   2.792   6.907   4.616
 7519TIP3    H222519   2.850   7.033   4.673
 7520TIP3   OH222520   4.140   6.311   3.430
 7520TIP3    H122521   4.109   6.401   3.409
 7520TIP3    H222522   4.064   6.259   3.397
 7521TIP3   OH222523   4.138   6.312   3.818
 7521TIP3    H122524   4.174   6.287   3.905
 7521TIP3    H222525   4.098   6.228   3.788
 7522TIP3   OH222526   3.434   6.203   4.181
 7522TIP3    H122527   3.464   6.133   4.243
 7522TIP3    H222528   3.515   6.256   4.174
 7523TIP3   OH222529   4.384   6.615   3.498
 7523TIP3    H122530   4.367   6.546   3.563
 7523TIP3    H222531   4.415   6.689   3.552
 7524TIP3   OH222532   3.409   6.615   3.900
 7524TIP3    H122533   3.402   6.517   3.902
 7524TIP3    H222534   3.506   6.625   3.895
 7525TIP3   OH222535   3.115   5.812   3.685
 7525TIP3    H122536   3.070   5.896   3.705
 7525TIP3    H222537   3.043   5.764   3.639
 7526TIP3   OH222538   3.172   6.104   3.863
 7526TIP3    H122539   3.223   6.026   3.897
 7526TIP3    H222540   3.236   6.143   3.801
 7527TIP3   OH222541   4.034   7.075   3.514
 7527TIP3    H122542   4.075   7.004   3.461
 7527TIP3    H222543   4.027   7.032   3.600
 7528TIP3   OH222544   3.936   6.537   3.863
 7528TIP3    H122545   3.977   6.460   3.821
 7528TIP3    H222546   4.018   6.585   3.888
 7529TIP3   OH222547   4.952   5.856   3.861
 7529TIP3    H122548   4.982   5.939   3.904
 7529TIP3    H222549   4.973   5.873   3.768
 7530TIP3   OH222550   4.349   6.036   3.892
 7530TIP3    H122551   4.392   5.951   3.913
 7530TIP3    H222552   4.317   6.019   3.802
 7531TIP3   OH222553   3.686   5.694   3.860
 7531TIP3    H122554   3.670   5.767   3.796
 7531TIP3    H222555   3.640   5.621   3.814
 7532TIP3   OH222556   4.385   5.792   3.479
 7532TIP3    H122557   4.455   5.774   3.545
 7532TIP3    H222558   4.439   5.824   3.405
 7533TIP3   OH222559   3.321   5.898   3.965
 7533TIP3    H122560   3.404   5.882   4.014
 7533TIP3    H222561   3.337   5.843   3.886
 7534TIP3   OH222562   3.761   6.096   3.764
 7534TIP3    H122563   3.856   6.073   3.774
 7534TIP3    H222564   3.724   6.011   3.730
 7535TIP3   OH222565   5.025   6.065   4.031
 7535TIP3    H122566   4.940   6.110   4.012
 7535TIP3    H222567   5.044   6.097   4.120
 7536TIP3   OH222568   3.684   5.682   4.293
 7536TIP3    H122569   3.624   5.722   4.227
 7536TIP3    H222570   3.631   5.696   4.375
 7537TIP3   OH222571   4.026   6.531   3.301
 7537TIP3    H122572   3.986   6.518   3.213
 7537TIP3    H222573   3.981   6.613   3.329
 7538TIP3   OH222574   3.791   6.456   4.084
 7538TIP3    H122575   3.731   6.525   4.122
 7538TIP3    H222576   3.834   6.504   4.011
 7539TIP3   OH222577   4.590   5.794   3.657
 7539TIP3    H122578   4.574   5.748   3.740
 7539TIP3    H222579   4.641   5.872   3.685
 7540TIP3   OH222580   3.555   5.797   4.077
 7540TIP3    H122581   3.617   5.869   4.101
 7540TIP3    H222582   3.604   5.757   4.002
 7541TIP3   OH222583   3.620   6.653   4.186
 7541TIP3    H122584   3.594   6.740   4.150
 7541TIP3    H222585   3.540   6.635   4.241
 7542TIP3   OH222586   3.010   6.342   3.421
 7542TIP3    H122587   2.971   6.372   3.337
 7542TIP3    H222588   3.044   6.426   3.458
 7543TIP3   OH222589   4.450   6.858   3.661
 7543TIP3    H122590   4.361   6.849   3.700
 7543TIP3    H222591   4.442   6.945   3.616
 7544TIP3   OH222592   4.744   5.754   4.026
 7544TIP3    H122593   4.657   5.781   3.993
 7544TIP3    H222594   4.805   5.788   3.957
 7545TIP3   OH222595   4.035   5.392   4.006
 7545TIP3    H122596   4.020   5.298   4.029
 7545TIP3    H222597   3.960   5.433   4.054
 7546TIP3   OH222598   4.149   6.901   3.331
 7546TIP3    H122599   4.199   6.818   3.314
 7546TIP3    H222600   4.213   6.965   3.294
 7547TIP3   OH222601   4.295   6.686   3.247
 7547TIP3    H122602   4.259   6.605   3.208
 7547TIP3    H222603   4.334   6.653   3.331
 7548TIP3   OH222604   4.676   6.767   4.006
 7548TIP3    H122605   4.664   6.690   3.947
 7548TIP3    H222606   4.659   6.842   3.946
 7549TIP3   OH222607   3.970   6.163   3.265
 7549TIP3    H122608   3.891   6.216   3.243
 7549TIP3    H222609   4.015   6.158   3.179
 7550TIP3   OH222610   3.926   5.950   2.976
 7550TIP3    H122611   3.994   6.001   3.024
 7550TIP3    H222612   3.983   5.885   2.930
 7551TIP3   OH222613   4.872   6.407   3.852
 7551TIP3    H122614   4.788   6.457   3.856
 7551TIP3    H222615   4.903   6.432   3.762
 7552TIP3   OH222616   4.318   6.246   3.233
 7552TIP3    H122617   4.264   6.268   3.312
 7552TIP3    H222618   4.403   6.221   3.276
 7553TIP3   OH222619   4.551   6.282   4.152
 7553TIP3    H122620   4.549   6.365   4.203
 7553TIP3    H222621   4.465   6.287   4.106
 7554TIP3   OH222622   3.550   6.242   3.654
 7554TIP3    H122623   3.508   6.183   3.587
 7554TIP3    H222624   3.626   6.188   3.684
 7555TIP3   OH222625   3.679   6.653   3.800
 7555TIP3    H122626   3.660   6.619   3.712
 7555TIP3    H222627   3.768   6.617   3.818
 7556TIP3   OH222628   3.682   6.214   4.006
 7556TIP3    H122629   3.717   6.187   3.919
 7556TIP3    H222630   3.728   6.299   4.024
 7557TIP3   OH222631   4.210   6.852   3.784
 7557TIP3    H122632   4.199   6.932   3.838
 7557TIP3    H222633   4.194   6.779   3.847
 7558TIP3   OH222634   3.825   6.771   4.331
 7558TIP3    H122635   3.763   6.831   4.377
 7558TIP3    H222636   3.761   6.716   4.280
 7559TIP3   OH222637   4.154   6.105   3.061
 7559TIP3    H122638   4.214   6.165   3.111
 7559TIP3    H222639   4.181   6.125   2.968
 7560TIP3   OH222640   3.580   6.324   4.435
 7560TIP3    H122641   3.584   6.413   4.477
 7560TIP3    H222642   3.485   6.304   4.449
 7561TIP3   OH222643   3.901   6.781   3.338
 7561TIP3    H122644   3.985   6.830   3.344
 7561TIP3    H222645   3.843   6.844   3.294
 7562TIP3   OH222646   3.617   6.936   4.418
 7562TIP3    H122647   3.582   6.939   4.327
 7562TIP3    H222648   3.536   6.915   4.471
 7563TIP3   OH222649   4.674   5.341   3.112
 7563TIP3    H122650   4.591   5.361   3.160
 7563TIP3    H222651   4.687   5.424   3.062
 7564TIP3   OH222652   3.415   6.085   3.459
 7564TIP3    H122653   3.347   6.128   3.403
 7564TIP3    H222654   3.381   5.995   3.465
 7565TIP3   OH222655   4.473   6.709   2.659
 7565TIP3    H122656   4.482   6.806   2.644
 7565TIP3    H222657   4.566   6.680   2.646
 7566TIP3   OH222658   3.196   6.469   4.365
 7566TIP3    H122659   3.129   6.447   4.297
 7566TIP3    H222660   3.234   6.382   4.387
 7567TIP3   OH222661   3.051   6.663   3.994
 7567TIP3    H122662   3.148   6.655   3.987
 7567TIP3    H222663   3.043   6.740   4.052
 7568TIP3   OH222664   4.914   7.115   4.055
 7568TIP3    H122665   4.914   7.019   4.070
 7568TIP3    H222666   4.831   7.141   4.101
 7569TIP3   OH222667   4.020   6.899   4.188
 7569TIP3    H122668   4.016   6.991   4.221
 7569TIP3    H222669   3.949   6.857   4.242
 7570TIP3   OH222670   3.784   7.022   3.142
 7570TIP3    H122671   3.739   7.010   3.057
 7570TIP3    H222672   3.754   7.111   3.169
 7571TIP3   OH222673   3.220   6.876   3.527
 7571TIP3    H122674   3.268   6.868   3.612
 7571TIP3    H222675   3.170   6.793   3.527
 7572TIP3   OH222676   3.982   6.929   2.778
 7572TIP3    H122677   4.041   6.859   2.742
 7572TIP3    H222678   4.018   6.940   2.869
 7573TIP3   OH222679   4.034   6.977   3.047
 7573TIP3    H122680   3.946   6.986   3.090
 7573TIP3    H222681   4.087   6.941   3.121
 7574TIP3   OH222682   4.803   6.242   4.329
 7574TIP3    H122683   4.720   6.252   4.280
 7574TIP3    H222684   4.820   6.146   4.320
 7575TIP3   OH222685   3.400   6.653   4.350
 7575TIP3    H122686   3.450   6.635   4.432
 7575TIP3    H222687   3.326   6.589   4.358
 7576TIP3   OH222688   3.801   5.479   4.141
 7576TIP3    H122689   3.713   5.459   4.106
 7576TIP3    H222690   3.780   5.560   4.193
 7577TIP3   OH222691   4.337   5.589   4.333
 7577TIP3    H122692   4.406   5.561   4.396
 7577TIP3    H222693   4.254   5.570   4.381
 7578TIP3   OH222694   4.569   6.018   4.250
 7578TIP3    H122695   4.519   6.016   4.335
 7578TIP3    H222696   4.548   6.107   4.215
 7579TIP3   OH222697   4.234   6.147   2.806
 7579TIP3    H122698   4.198   6.123   2.719
 7579TIP3    H222699   4.318   6.190   2.781
 7580TIP3   OH222700   3.949   5.532   3.112
 7580TIP3    H122701   3.909   5.517   3.200
 7580TIP3    H222702   3.913   5.454   3.064
 7581TIP3   OH222703   3.731   5.993   4.156
 7581TIP3    H122704   3.683   6.015   4.238
 7581TIP3    H222705   3.716   6.074   4.103
 7582TIP3   OH222706   3.617   5.877   3.671
 7582TIP3    H122707   3.524   5.852   3.689
 7582TIP3    H222708   3.629   5.838   3.582
 7583TIP3   OH222709   4.107   5.962   3.401
 7583TIP3    H122710   4.057   6.033   3.355
 7583TIP3    H222711   4.162   5.927   3.328
 7584TIP3   OH222712   4.281   6.238   4.482
 7584TIP3    H122713   4.260   6.165   4.545
 7584TIP3    H222714   4.375   6.253   4.504
 7585TIP3   OH222715   4.261   5.989   3.635
 7585TIP3    H122716   4.199   6.015   3.565
 7585TIP3    H222717   4.299   5.910   3.591
 7586TIP3   OH222718   3.550   6.019   4.365
 7586TIP3    H122719   3.584   6.082   4.430
 7586TIP3    H222720   3.541   5.937   4.417
 7587TIP3   OH222721   3.597   5.494   3.079
 7587TIP3    H122722   3.589   5.492   3.176
 7587TIP3    H222723   3.519   5.547   3.055
 7588TIP3   OH222724   3.140   5.540   3.954
 7588TIP3    H122725   3.216   5.577   4.005
 7588TIP3    H222726   3.177   5.529   3.865
 7589TIP3   OH222727   3.116   5.519   3.475
 7589TIP3    H122728   3.162   5.552   3.395
 7589TIP3    H222729   3.053   5.593   3.488
 7590TIP3   OH222730   4.272   6.234   4.057
 7590TIP3    H122731   4.306   6.163   3.998
 7590TIP3    H222732   4.242   6.180   4.133
 7591TIP3   OH222733   3.950   5.704   3.732
 7591TIP3    H122734   3.870   5.696   3.787
 7591TIP3    H222735   4.021   5.691   3.797
 7592TIP3   OH222736   3.377   5.754   3.737
 7592TIP3    H122737   3.283   5.764   3.708
 7592TIP3    H222738   3.398   5.663   3.711
 7593TIP3   OH222739   3.642   5.750   3.429
 7593TIP3    H122740   3.737   5.762   3.408
 7593TIP3    H222741   3.597   5.772   3.345
 7594TIP3   OH222742   4.435   5.775   3.934
 7594TIP3    H122743   4.404   5.788   4.026
 7594TIP3    H222744   4.368   5.714   3.900
 7595TIP3   OH222745   3.490   5.788   3.204
 7595TIP3    H122746   3.421   5.741   3.154
 7595TIP3    H222747   3.544   5.824   3.131
 7596TIP3   OH222748   4.608   7.464   4.154
 7596TIP3    H122749   4.606   7.488   4.060
 7596TIP3    H222750   4.690   7.509   4.184
 7597TIP3   OH222751   3.563   6.575   4.572
 7597TIP3    H122752   3.643   6.603   4.620
 7597TIP3    H222753   3.499   6.571   4.645
 7598TIP3   OH222754   4.025   6.030   3.828
 7598TIP3    H122755   4.098   5.990   3.777
 7598TIP3    H222756   4.032   5.983   3.913
 7599TIP3   OH222757   3.554   5.512   3.699
 7599TIP3    H122758   3.556   5.419   3.724
 7599TIP3    H222759   3.602   5.510   3.615
 7600TIP3   OH222760   4.002   5.927   4.119
 7600TIP3    H122761   3.912   5.964   4.133
 7600TIP3    H222762   4.060   5.989   4.168
 7601TIP3   OH222763   3.737   6.315   3.211
 7601TIP3    H122764   3.665   6.248   3.200
 7601TIP3    H222765   3.718   6.348   3.302
 7602TIP3   OH222766   4.638   6.551   3.839
 7602TIP3    H122767   4.662   6.602   3.759
 7602TIP3    H222768   4.554   6.508   3.812
 7603TIP3   OH222769   4.198   5.625   3.079
 7603TIP3    H122770   4.103   5.603   3.090
 7603TIP3    H222771   4.202   5.719   3.106
 7604TIP3   OH222772   4.135   6.632   4.211
 7604TIP3    H122773   4.171   6.615   4.299
 7604TIP3    H222774   4.100   6.722   4.218
 7605TIP3   OH222775   4.264   5.877   3.184
 7605TIP3    H122776   4.360   5.881   3.198
 7605TIP3    H222777   4.246   5.957   3.131
 7606TIP3   OH222778   3.431   6.336   3.887
 7606TIP3    H122779   3.470   6.309   3.801
 7606TIP3    H222780   3.480   6.281   3.950
 7607TIP3   OH222781   3.884   6.463   3.035
 7607TIP3    H122782   3.835   6.549   3.038
 7607TIP3    H222783   3.830   6.409   3.096
 7608TIP3   OH222784   3.315   6.257   4.503
 7608TIP3    H122785   3.333   6.244   4.598
 7608TIP3    H222786   3.246   6.190   4.487
 7609TIP3   OH222787   4.042   6.374   4.520
 7609TIP3    H122788   3.981   6.313   4.475
 7609TIP3    H222789   4.129   6.337   4.493
 7610TIP3   OH222790   4.297   6.893   4.108
 7610TIP3    H122791   4.200   6.892   4.121
 7610TIP3    H222792   4.326   6.945   4.186
 7611TIP3   OH222793   4.706   5.968   3.014
 7611TIP3    H122794   4.645   5.924   2.951
 7611TIP3    H222795   4.703   6.058   2.976
 7612TIP3   OH222796   4.927   6.825   4.094
 7612TIP3    H122797   4.829   6.818   4.086
 7612TIP3    H222798   4.953   6.794   4.005
 7613TIP3   OH222799   4.410   6.785   2.924
 7613TIP3    H122800   4.382   6.716   2.986
 7613TIP3    H222801   4.422   6.737   2.841
 7614TIP3   OH222802   4.404   6.414   3.756
 7614TIP3    H122803   4.311   6.390   3.770
 7614TIP3    H222804   4.437   6.333   3.713
 7615TIP3   OH222805   3.536   6.643   3.515
 7615TIP3    H122806   3.533   6.723   3.459
 7615TIP3    H222807   3.442   6.624   3.526
 7616TIP3   OH222808   3.094   5.944   3.212
 7616TIP3    H122809   3.142   6.027   3.236
 7616TIP3    H222810   3.021   5.946   3.277
 7617TIP3   OH222811   3.664   6.404   3.454
 7617TIP3    H122812   3.633   6.494   3.475
 7617TIP3    H222813   3.632   6.354   3.531
 7618TIP3   OH222814   3.803   6.984   3.981
 7618TIP3    H122815   3.847   7.057   3.931
 7618TIP3    H222816   3.879   6.946   4.028
 7619TIP3   OH222817   3.450   6.882   3.364
 7619TIP3    H122818   3.366   6.892   3.413
 7619TIP3    H222819   3.484   6.974   3.368
 7620TIP3   OH222820   4.187   6.619   3.942
 7620TIP3    H122821   4.176   6.616   4.040
 7620TIP3    H222822   4.267   6.566   3.931
 7621TIP3   OH222823   4.168   6.515   2.826
 7621TIP3    H122824   4.222   6.488   2.904
 7621TIP3    H222825   4.080   6.485   2.854
 7622TIP3   OH222826   4.437   7.150   3.991
 7622TIP3    H122827   4.357   7.095   3.985
 7622TIP3    H222828   4.422   7.214   3.919
 7623TIP3   OH222829   4.504   6.985   2.644
 7623TIP3    H122830   4.539   7.058   2.591
 7623TIP3    H222831   4.424   7.028   2.679
 7624TIP3   OH222832   3.523   5.759   4.508
 7624TIP3    H122833   3.427   5.766   4.526
 7624TIP3    H222834   3.555   5.710   4.585
 7625TIP3   OH222835   4.328   6.446   3.040
 7625TIP3    H122836   4.317   6.380   3.111
 7625TIP3    H222837   4.425   6.441   3.028
 7626TIP3   OH222838   3.240   6.844   4.140
 7626TIP3    H122839   3.296   6.773   4.176
 7626TIP3    H222840   3.267   6.918   4.196
 7627TIP3   OH222841   3.528   6.492   2.826
 7627TIP3    H122842   3.544   6.400   2.799
 7627TIP3    H222843   3.508   6.482   2.921
 7628TIP3   OH222844   3.473   6.497   3.098
 7628TIP3    H122845   3.550   6.470   3.149
 7628TIP3    H222846   3.478   6.595   3.106
 7629TIP3   OH222847   3.207   6.187   3.301
 7629TIP3    H122848   3.142   6.233   3.357
 7629TIP3    H222849   3.223   6.256   3.233
 7630TIP3   OH222850   4.363   5.826   4.193
 7630TIP3    H122851   4.443   5.866   4.231
 7630TIP3    H222852   4.351   5.746   4.248
 7631TIP3   OH222853   4.241   5.576   3.362
 7631TIP3    H122854   4.228   5.596   3.268
 7631TIP3    H222855   4.280   5.660   3.395
 7632TIP3   OH222856   3.741   6.692   3.044
 7632TIP3    H122857   3.655   6.718   3.081
 7632TIP3    H222858   3.759   6.769   2.987
 7633TIP3   OH222859   3.926   5.761   3.463
 7633TIP3    H122860   3.990   5.833   3.444
 7633TIP3    H222861   3.934   5.752   3.560
 7634TIP3   OH222862   4.200   6.074   4.265
 7634TIP3    H122863   4.226   6.126   4.345
 7634TIP3    H222864   4.253   5.993   4.276
 7635TIP3   OH222865   4.070   5.481   3.560
 7635TIP3    H122866   4.065   5.559   3.617
 7635TIP3    H222867   4.133   5.513   3.491
 7636TIP3   OH222868   3.487   6.770   3.115
 7636TIP3    H122869   3.457   6.840   3.053
 7636TIP3    H222870   3.472   6.812   3.202
 7637TIP3   OH222871   3.582   5.486   3.356
 7637TIP3    H122872   3.589   5.579   3.386
 7637TIP3    H222873   3.676   5.461   3.360
 7638TIP3   OH222874   4.837   5.977   4.250
 7638TIP3    H122875   4.739   5.974   4.256
 7638TIP3    H222876   4.850   5.932   4.165
 7639TIP3   OH222877   4.490   6.170   3.636
 7639TIP3    H122878   4.414   6.111   3.648
 7639TIP3    H222879   4.561   6.123   3.684
 7640TIP3   OH222880   3.205   6.395   3.104
 7640TIP3    H122881   3.277   6.460   3.114
 7640TIP3    H222882   3.248   6.337   3.037
 7641TIP3   OH222883   3.141   5.674   3.249
 7641TIP3    H122884   3.145   5.771   3.239
 7641TIP3    H222885   3.070   5.650   3.188
 7642TIP3   OH222886   4.460   7.128   3.583
 7642TIP3    H122887   4.417   7.175   3.508
 7642TIP3    H222888   4.554   7.147   3.563
 7643TIP3   OH222889   3.536   5.380   4.126
 7643TIP3    H122890   3.492   5.346   4.045
 7643TIP3    H222891   3.592   5.306   4.152
 7644TIP3   OH222892   3.071   6.611   3.488
 7644TIP3    H122893   3.009   6.642   3.555
 7644TIP3    H222894   3.037   6.655   3.407
 7645TIP3   OH222895   3.234   7.161   4.564
 7645TIP3    H122896   3.320   7.160   4.611
 7645TIP3    H222897   3.214   7.065   4.562
 7646TIP3   OH222898   3.709   7.117   4.608
 7646TIP3    H122899   3.804   7.098   4.615
 7646TIP3    H222900   3.684   7.055   4.537
 7647TIP3   OH222901   3.692   6.694   2.734
 7647TIP3    H122902   3.638   6.622   2.773
 7647TIP3    H222903   3.769   6.643   2.702
 7648TIP3   OH222904   4.349   7.027   4.344
 7648TIP3    H122905   4.342   6.957   4.412
 7648TIP3    H222906   4.428   7.077   4.373
 7649TIP3   OH222907   4.128   6.733   2.649
 7649TIP3    H122908   4.170   6.668   2.709
 7649TIP3    H222909   4.186   6.729   2.570
 7650TIP3   OH222910   3.361   6.564   4.764
 7650TIP3    H122911   3.377   6.468   4.773
 7650TIP3    H222912   3.275   6.565   4.718
 7651TIP3   OH222913   3.339   6.208   2.960
 7651TIP3    H122914   3.396   6.178   3.033
 7651TIP3    H222915   3.406   6.214   2.888
 7652TIP3   OH222916   3.967   6.649   4.539
 7652TIP3    H122917   3.928   6.669   4.451
 7652TIP3    H222918   3.999   6.557   4.528
 7653TIP3   OH222919   3.853   6.411   2.767
 7653TIP3    H122920   3.856   6.422   2.864
 7653TIP3    H222921   3.855   6.313   2.760
 7654TIP3   OH222922   4.460   6.661   4.146
 7654TIP3    H122923   4.538   6.701   4.102
 7654TIP3    H222924   4.392   6.729   4.128
 7655TIP3   OH222925   3.483   6.299   4.747
 7655TIP3    H122926   3.559   6.246   4.722
 7655TIP3    H222927   3.510   6.332   4.835
 7656TIP3   OH222928   3.542   6.118   3.177
 7656TIP3    H122929   3.520   6.075   3.260
 7656TIP3    H222930   3.583   6.045   3.126
 7657TIP3   OH222931   3.814   6.178   4.406
 7657TIP3    H122932   3.738   6.240   4.406
 7657TIP3    H222933   3.868   6.214   4.331
 7658TIP3   OH222934   3.649   5.915   3.020
 7658TIP3    H122935   3.625   5.919   2.925
 7658TIP3    H222936   3.747   5.913   3.014
 7659TIP3   OH222937   4.334   6.583   4.541
 7659TIP3    H122938   4.412   6.552   4.494
 7659TIP3    H222939   4.328   6.519   4.614
 7660TIP3   OH222940   4.467   6.240   2.687
 7660TIP3    H122941   4.448   6.196   2.602
 7660TIP3    H222942   4.433   6.330   2.666
 7661TIP3   OH222943   3.939   5.971   4.533
 7661TIP3    H122944   3.941   5.892   4.475
 7661TIP3    H222945   3.895   6.037   4.475
 7662TIP3   OH222946   3.942   5.757   4.343
 7662TIP3    H122947   3.971   5.799   4.259
 7662TIP3    H222948   3.848   5.736   4.323
 7663TIP3   OH222949   3.965   6.289   4.215
 7663TIP3    H122950   4.052   6.303   4.175
 7663TIP3    H222951   3.910   6.355   4.168
 7664TIP3   OH222952   4.548   6.256   4.592
 7664TIP3    H122953   4.596   6.173   4.608
 7664TIP3    H222954   4.618   6.314   4.557
 7665TIP3   OH222955   4.590   6.512   4.330
 7665TIP3    H122956   4.533   6.567   4.272
 7665TIP3    H222957   4.678   6.533   4.292
 7666TIP3   OH222958   3.817   6.077   4.766
 7666TIP3    H122959   3.750   6.008   4.782
 7666TIP3    H222960   3.851   6.051   4.679
 7667TIP3   OH222961   4.075   5.518   4.411
 7667TIP3    H122962   4.024   5.599   4.388
 7667TIP3    H222963   4.007   5.448   4.401
 7668TIP3   OH222964   4.200   6.021   4.626
 7668TIP3    H122965   4.187   6.005   4.721
 7668TIP3    H222966   4.110   5.997   4.594
 7669TIP3   OH222967   4.438   5.973   4.481
 7669TIP3    H122968   4.364   5.974   4.545
 7669TIP3    H222969   4.513   5.943   4.536
 7670TIP3   OH222970   4.667   5.914   4.629
 7670TIP3    H122971   4.681   5.818   4.645
 7670TIP3    H222972   4.663   5.951   4.719
 7671TIP3   OH222973   3.656   5.857   4.821
 7671TIP3    H122974   3.661   5.764   4.791
 7671TIP3    H222975   3.696   5.848   4.911
 7672TIP3   OH222976   4.168   5.529   4.669
 7672TIP3    H122977   4.234   5.457   4.663
 7672TIP3    H222978   4.129   5.524   4.579
 7673TIP3   OH222979   4.236   5.745   4.826
 7673TIP3    H122980   4.215   5.672   4.762
 7673TIP3    H222981   4.156   5.801   4.820
 7674TIP3   OH222982   3.456   6.973   2.926
 7674TIP3    H122983   3.552   6.962   2.909
 7674TIP3    H222984   3.431   7.025   2.848
 7675TIP3   OH222985   2.936   6.357   3.140
 7675TIP3    H122986   3.031   6.378   3.126
 7675TIP3    H222987   2.930   6.267   3.101
 7676TIP3   OH222988   2.852   6.968   3.558
 7676TIP3    H122989   2.787   6.906   3.519
 7676TIP3    H222990   2.896   6.908   3.623
 7677TIP3   OH222991   2.986   6.813   3.744
 7677TIP3    H122992   2.974   6.743   3.810
 7677TIP3    H222993   3.039   6.876   3.795
 7678TIP3   OH222994   4.715   7.215   3.545
 7678TIP3    H122995   4.740   7.247   3.633
 7678TIP3    H222996   4.777   7.260   3.487
 7679TIP3   OH222997   4.741   7.235   3.826
 7679TIP3    H122998   4.697   7.147   3.822
 7679TIP3    H222999   4.817   7.212   3.882
 7680TIP3   OH223000   4.788   6.914   4.399
 7680TIP3    H123001   4.716   6.924   4.465
 7680TIP3    H223002   4.831   7.001   4.403
 7681TIP3   OH223003   4.606   6.426   3.017
 7681TIP3    H123004   4.672   6.491   2.987
 7681TIP3    H223005   4.651   6.389   3.097
 7682TIP3   OH223006   4.733   6.293   3.222
 7682TIP3    H123007   4.666   6.252   3.281
 7682TIP3    H223008   4.798   6.330   3.286
 7683TIP3   OH223009   4.790   6.689   3.653
 7683TIP3    H123010   4.841   6.620   3.607
 7683TIP3    H223011   4.786   6.761   3.587
 7684TIP3   OH223012   4.616   6.987   3.847
 7684TIP3    H123013   4.544   7.029   3.898
 7684TIP3    H223014   4.567   6.941   3.775
 7685TIP3   OH223015   4.670   6.203   2.867
 7685TIP3    H123016   4.599   6.204   2.799
 7685TIP3    H223017   4.641   6.278   2.922
 7686TIP3   OH223018   4.542   5.874   2.819
 7686TIP3    H123019   4.495   5.908   2.742
 7686TIP3    H223020   4.520   5.779   2.813
 7687TIP3   OH223021   4.545   6.153   3.367
 7687TIP3    H123022   4.552   6.056   3.358
 7687TIP3    H223023   4.531   6.164   3.463
 7688TIP3   OH223024   3.170   6.225   4.115
 7688TIP3    H123025   3.169   6.191   4.023
 7688TIP3    H223026   3.268   6.226   4.132
 7689TIP3   OH223027   4.837   6.577   4.225
 7689TIP3    H123028   4.907   6.510   4.215
 7689TIP3    H223029   4.863   6.645   4.161
 7690TIP3   OH223030   5.019   6.377   4.234
 7690TIP3    H123031   4.944   6.328   4.275
 7690TIP3    H223032   5.092   6.315   4.251
 7691TIP3   OH223033   4.484   5.608   2.803
 7691TIP3    H123034   4.554   5.575   2.863
 7691TIP3    H223035   4.407   5.552   2.823
 7692TIP3   OH223036   4.544   5.868   3.259
 7692TIP3    H123037   4.584   5.779   3.275
 7692TIP3    H223038   4.602   5.900   3.188
 7693TIP3   OH223039   4.702   6.038   3.757
 7693TIP3    H123040   4.788   6.063   3.715
 7693TIP3    H223041   4.717   6.076   3.846
 7694TIP3   OH223042   4.775   6.185   3.986
 7694TIP3    H123043   4.698   6.219   4.036
 7694TIP3    H223044   4.807   6.267   3.942
 7695TIP3   OH223045   3.391   5.909   4.786
 7695TIP3    H123046   3.489   5.905   4.793
 7695TIP3    H223047   3.367   5.823   4.825
 7696TIP3   OH223048   5.221   5.777   4.543
 7696TIP3    H123049   5.285   5.714   4.503
 7696TIP3    H223050   5.194   5.830   4.464
 7697TIP3   OH223051   4.652   5.619   3.299
 7697TIP3    H123052   4.699   5.602   3.383
 7697TIP3    H223053   4.590   5.542   3.297
 7698TIP3   OH223054   3.353   5.602   4.118
 7698TIP3    H123055   3.413   5.528   4.136
 7698TIP3    H223056   3.416   5.676   4.109
 7699TIP3   OH223057   3.151   5.873   4.190
 7699TIP3    H123058   3.202   5.876   4.107
 7699TIP3    H223059   3.178   5.956   4.232
 7700TIP3   OH223060   5.093   5.915   4.345
 7700TIP3    H123061   5.008   5.958   4.366
 7700TIP3    H223062   5.060   5.841   4.290
 7701TIP3   OH223063   4.730   5.549   2.935
 7701TIP3    H123064   4.768   5.480   2.877
 7701TIP3    H223065   4.797   5.620   2.929
 7702TIP3   OH223066   3.138   5.376   3.704
 7702TIP3    H123067   3.043   5.371   3.722
 7702TIP3    H223068   3.139   5.434   3.625
 7703TIP3   OH223069   4.296   7.085   3.198
 7703TIP3    H123070   4.349   7.076   3.117
 7703TIP3    H223071   4.347   7.150   3.249
 7704TIP3   OH223072   3.345   5.437   4.491
 7704TIP3    H123073   3.306   5.443   4.580
 7704TIP3    H223074   3.285   5.496   4.441
 7705TIP3   OH223075   3.396   6.893   4.583
 7705TIP3    H123076   3.304   6.865   4.567
 7705TIP3    H223077   3.410   6.868   4.675
 7706TIP3   OH223078   3.577   6.924   4.131
 7706TIP3    H123079   3.530   7.001   4.091
 7706TIP3    H223080   3.664   6.937   4.087
 7707TIP3   OH223081   4.017   7.166   4.269
 7707TIP3    H123082   4.060   7.164   4.358
 7707TIP3    H223083   4.083   7.217   4.218
 7708TIP3   OH223084   4.197   7.320   4.131
 7708TIP3    H123085   4.267   7.269   4.086
 7708TIP3    H223086   4.251   7.376   4.191
 7709TIP3   OH223087   4.994   5.678   4.228
 7709TIP3    H123088   4.904   5.668   4.193
 7709TIP3    H223089   5.028   5.586   4.219
 7710TIP3   OH223090   3.253   7.176   4.156
 7710TIP3    H123091   3.163   7.209   4.135
 7710TIP3    H223092   3.266   7.220   4.241
 7711TIP3   OH223093   3.489   7.157   4.015
 7711TIP3    H123094   3.401   7.169   4.058
 7711TIP3    H223095   3.471   7.188   3.924
 7712TIP3   OH223096   3.913   7.183   3.813
 7712TIP3    H123097   3.845   7.201   3.745
 7712TIP3    H223098   3.925   7.272   3.853
 7713TIP3   OH223099   4.183   7.122   3.866
 7713TIP3    H123100   4.090   7.141   3.844
 7713TIP3    H223101   4.230   7.194   3.820
 7714TIP3   OH223102   4.386   7.311   3.777
 7714TIP3    H123103   4.374   7.397   3.730
 7714TIP3    H223104   4.415   7.253   3.704
 7715TIP3   OH223105   3.163   6.970   3.900
 7715TIP3    H123106   3.189   6.942   3.990
 7715TIP3    H223107   3.235   6.926   3.849
 7716TIP3   OH223108   3.359   6.843   3.759
 7716TIP3    H123109   3.374   6.759   3.809
 7716TIP3    H223110   3.450   6.879   3.756
 7717TIP3   OH223111   3.625   6.935   3.765
 7717TIP3    H123112   3.656   6.843   3.753
 7717TIP3    H223113   3.674   6.958   3.846
 7718TIP3   OH223114   4.197   5.593   3.849
 7718TIP3    H123115   4.156   5.520   3.899
 7718TIP3    H223116   4.271   5.548   3.804
 7719TIP3   OH223117   4.720   5.475   3.754
 7719TIP3    H123118   4.755   5.526   3.678
 7719TIP3    H223119   4.624   5.491   3.746
 7720TIP3   OH223120   4.816   5.571   3.516
 7720TIP3    H123121   4.890   5.521   3.477
 7720TIP3    H223122   4.848   5.663   3.502
 7721TIP3   OH223123   3.402   5.269   3.916
 7721TIP3    H123124   3.353   5.289   3.835
 7721TIP3    H223125   3.458   5.193   3.888
 7722TIP3   OH223126   3.243   5.171   3.515
 7722TIP3    H123127   3.276   5.222   3.439
 7722TIP3    H223128   3.206   5.240   3.573
 7723TIP3   OH223129   3.885   5.349   3.745
 7723TIP3    H123130   3.944   5.386   3.678
 7723TIP3    H223131   3.933   5.368   3.827
 7724TIP3   OH223132   4.436   5.482   3.726
 7724TIP3    H123133   4.435   5.440   3.639
 7724TIP3    H223134   4.425   5.404   3.785
 7725TIP3   OH223135   4.469   5.406   3.292
 7725TIP3    H123136   4.380   5.446   3.303
 7725TIP3    H223137   4.454   5.319   3.335
 7726TIP3   OH223138   2.951   6.747   3.289
 7726TIP3    H123139   2.865   6.714   3.257
 7726TIP3    H223140   2.942   6.841   3.265
 7727TIP3   OH223141   3.355   5.329   3.274
 7727TIP3    H123142   3.401   5.261   3.220
 7727TIP3    H223143   3.432   5.379   3.310
 7728TIP3   OH223144   3.858   5.509   3.374
 7728TIP3    H123145   3.919   5.455   3.426
 7728TIP3    H223146   3.887   5.599   3.401
 7729TIP3   OH223147   3.723   6.928   2.873
 7729TIP3    H123148   3.811   6.951   2.838
 7729TIP3    H223149   3.702   6.854   2.813
 7730TIP3   OH223150   4.444   7.052   2.967
 7730TIP3    H123151   4.436   6.954   2.957
 7730TIP3    H223152   4.397   7.082   2.887
 7731TIP3   OH223153   3.654   5.584   4.755
 7731TIP3    H123154   3.618   5.512   4.811
 7731TIP3    H223155   3.748   5.582   4.783
 7732TIP3   OH223156   3.904   5.580   4.873
 7732TIP3    H123157   3.990   5.553   4.837
 7732TIP3    H223158   3.891   5.512   4.942
 7733TIP3   OH223159   3.027   6.766   2.927
 7733TIP3    H123160   3.032   6.786   3.021
 7733TIP3    H223161   3.114   6.723   2.910
 7734TIP3   OH223162   4.732   5.643   4.661
 7734TIP3    H123163   4.749   5.612   4.752
 7734TIP3    H223164   4.822   5.638   4.622
 7735TIP3   OH223165   4.666   7.194   4.153
 7735TIP3    H123166   4.588   7.164   4.102
 7735TIP3    H223167   4.647   7.290   4.159
 7736TIP3   OH223168   5.936   6.568   2.916
 7736TIP3    H123169   5.906   6.659   2.896
 7736TIP3    H223170   5.858   6.517   2.887
 7737TIP3   OH223171   5.935   6.566   3.305
 7737TIP3    H123172   5.971   6.545   3.393
 7737TIP3    H223173   5.893   6.482   3.280
 7738TIP3   OH223174   5.232   6.459   3.667
 7738TIP3    H123175   5.260   6.389   3.729
 7738TIP3    H223176   5.310   6.515   3.665
 7739TIP3   OH223177   6.182   6.870   2.986
 7739TIP3    H123178   6.163   6.802   3.051
 7739TIP3    H223179   6.207   6.946   3.041
 7740TIP3   OH223180   5.206   6.872   3.387
 7740TIP3    H123181   5.198   6.774   3.388
 7740TIP3    H223182   5.302   6.882   3.384
 7741TIP3   OH223183   4.913   6.073   3.170
 7741TIP3    H123184   4.865   6.155   3.190
 7741TIP3    H223185   4.841   6.021   3.129
 7742TIP3   OH223186   4.968   6.361   3.352
 7742TIP3    H123187   5.018   6.283   3.385
 7742TIP3    H223188   5.030   6.398   3.287
 7743TIP3   OH223189   5.829   7.332   3.001
 7743TIP3    H123190   5.873   7.259   2.952
 7743TIP3    H223191   5.818   7.293   3.088
 7744TIP3   OH223192   5.733   6.794   3.349
 7744TIP3    H123193   5.774   6.716   3.308
 7744TIP3    H223194   5.815   6.841   3.375
 7745TIP3   OH223195   6.747   6.114   3.347
 7745TIP3    H123196   6.778   6.196   3.392
 7745TIP3    H223197   6.772   6.132   3.255
 7746TIP3   OH223198   6.145   6.294   3.378
 7746TIP3    H123199   6.188   6.210   3.402
 7746TIP3    H223200   6.114   6.274   3.288
 7747TIP3   OH223201   5.486   5.953   3.344
 7747TIP3    H123202   5.466   6.026   3.282
 7747TIP3    H223203   5.437   5.880   3.301
 7748TIP3   OH223204   6.181   6.043   2.965
 7748TIP3    H123205   6.250   6.029   3.034
 7748TIP3    H223206   6.235   6.080   2.893
 7749TIP3   OH223207   5.117   6.155   3.452
 7749TIP3    H123208   5.200   6.137   3.501
 7749TIP3    H223209   5.132   6.099   3.373
 7750TIP3   OH223210   5.557   6.352   3.248
 7750TIP3    H123211   5.651   6.328   3.260
 7750TIP3    H223212   5.519   6.267   3.215
 7751TIP3   OH223213   6.821   6.322   3.516
 7751TIP3    H123214   6.735   6.367   3.500
 7751TIP3    H223215   6.839   6.350   3.608
 7752TIP3   OH223216   5.480   5.936   3.780
 7752TIP3    H123217   5.420   5.974   3.713
 7752TIP3    H223218   5.428   5.953   3.861
 7753TIP3   OH223219   5.825   6.789   2.786
 7753TIP3    H123220   5.781   6.774   2.701
 7753TIP3    H223221   5.781   6.871   2.815
 7754TIP3   OH223222   5.587   6.713   3.571
 7754TIP3    H123223   5.527   6.782   3.609
 7754TIP3    H223224   5.629   6.762   3.498
 7755TIP3   OH223225   6.383   6.050   3.146
 7755TIP3    H123226   6.363   6.014   3.233
 7755TIP3    H223227   6.436   6.129   3.169
 7756TIP3   OH223228   5.352   6.052   3.563
 7756TIP3    H123229   5.413   6.125   3.589
 7756TIP3    H223230   5.402   6.012   3.489
 7757TIP3   OH223231   5.416   6.910   3.672
 7757TIP3    H123232   5.390   6.998   3.637
 7757TIP3    H223233   5.336   6.892   3.728
 7758TIP3   OH223234   4.806   6.598   2.908
 7758TIP3    H123235   4.765   6.627   2.825
 7758TIP3    H223236   4.839   6.683   2.945
 7759TIP3   OH223237   6.247   7.115   3.144
 7759TIP3    H123238   6.159   7.104   3.187
 7759TIP3    H223239   6.235   7.202   3.101
 7760TIP3   OH223240   6.541   6.009   3.510
 7760TIP3    H123241   6.455   6.043   3.480
 7760TIP3    H223242   6.602   6.045   3.442
 7761TIP3   OH223243   5.831   5.654   3.495
 7761TIP3    H123244   5.818   5.560   3.517
 7761TIP3    H223245   5.756   5.695   3.543
 7762TIP3   OH223246   5.947   7.156   2.822
 7762TIP3    H123247   5.997   7.073   2.804
 7762TIP3    H223248   6.007   7.220   2.779
 7763TIP3   OH223249   6.092   6.942   2.736
 7763TIP3    H123250   6.049   6.863   2.700
 7763TIP3    H223251   6.132   6.907   2.819
 7764TIP3   OH223252   6.471   7.027   3.492
 7764TIP3    H123253   6.461   6.948   3.435
 7764TIP3    H223254   6.457   7.101   3.429
 7765TIP3   OH223255   5.764   6.417   2.752
 7765TIP3    H123256   5.685   6.471   2.732
 7765TIP3    H223257   5.811   6.418   2.666
 7766TIP3   OH223258   5.723   6.207   2.462
 7766TIP3    H123259   5.788   6.258   2.513
 7766TIP3    H223260   5.783   6.145   2.415
 7767TIP3   OH223261   6.668   6.662   3.337
 7767TIP3    H123262   6.585   6.713   3.343
 7767TIP3    H223263   6.699   6.687   3.247
 7768TIP3   OH223264   6.114   6.501   2.720
 7768TIP3    H123265   6.060   6.524   2.798
 7768TIP3    H223266   6.199   6.478   2.763
 7769TIP3   OH223267   6.348   6.539   3.639
 7769TIP3    H123268   6.347   6.620   3.694
 7769TIP3    H223269   6.261   6.546   3.594
 7770TIP3   OH223270   5.346   6.497   3.139
 7770TIP3    H123271   5.307   6.439   3.071
 7770TIP3    H223272   5.423   6.444   3.170
 7771TIP3   OH223273   5.477   6.911   3.287
 7771TIP3    H123274   5.457   6.874   3.200
 7771TIP3    H223275   5.566   6.874   3.305
 7772TIP3   OH223276   5.481   6.470   3.493
 7772TIP3    H123277   5.515   6.446   3.405
 7772TIP3    H223278   5.525   6.556   3.511
 7773TIP3   OH223279   6.011   7.106   3.271
 7773TIP3    H123280   5.994   7.188   3.322
 7773TIP3    H223281   5.991   7.035   3.335
 7774TIP3   OH223282   5.621   7.027   3.817
 7774TIP3    H123283   5.559   7.088   3.864
 7774TIP3    H223284   5.557   6.973   3.766
 7775TIP3   OH223285   5.953   6.359   2.549
 7775TIP3    H123286   6.012   6.419   2.599
 7775TIP3    H223287   5.979   6.380   2.456
 7776TIP3   OH223288   5.375   6.582   3.921
 7776TIP3    H123289   5.380   6.670   3.963
 7776TIP3    H223290   5.281   6.560   3.936
 7777TIP3   OH223291   5.699   7.035   2.822
 7777TIP3    H123292   5.781   7.088   2.833
 7777TIP3    H223293   5.638   7.100   2.785
 7778TIP3   OH223294   5.413   7.192   3.905
 7778TIP3    H123295   5.378   7.196   3.815
 7778TIP3    H223296   5.333   7.171   3.958
 7779TIP3   OH223297   6.467   5.599   2.595
 7779TIP3    H123298   6.388   5.625   2.648
 7779TIP3    H223299   6.486   5.682   2.547
 7780TIP3   OH223300   5.214   6.341   2.938
 7780TIP3    H123301   5.144   6.385   2.886
 7780TIP3    H223302   5.174   6.256   2.957
 7781TIP3   OH223303   6.273   6.957   2.145
 7781TIP3    H123304   6.257   7.053   2.130
 7781TIP3    H223305   6.367   6.949   2.121
 7782TIP3   OH223306   4.992   6.726   3.852
 7782TIP3    H123307   4.925   6.704   3.784
 7782TIP3    H223308   5.030   6.638   3.873
 7783TIP3   OH223309   4.847   6.919   3.482
 7783TIP3    H123310   4.943   6.914   3.475
 7783TIP3    H223311   4.836   6.997   3.538
 7784TIP3   OH223312   6.679   7.364   3.518
 7784TIP3    H123313   6.682   7.272   3.549
 7784TIP3    H223314   6.605   7.399   3.572
 7785TIP3   OH223315   5.816   7.156   3.674
 7785TIP3    H123316   5.813   7.248   3.708
 7785TIP3    H223317   5.745   7.114   3.728
 7786TIP3   OH223318   5.580   7.282   2.629
 7786TIP3    H123319   5.531   7.271   2.546
 7786TIP3    H223320   5.549   7.369   2.660
 7787TIP3   OH223321   5.017   7.132   3.013
 7787TIP3    H123322   5.064   7.125   3.099
 7787TIP3    H223323   4.964   7.051   3.014
 7788TIP3   OH223324   5.777   7.184   2.264
 7788TIP3    H123325   5.837   7.114   2.228
 7788TIP3    H223326   5.811   7.191   2.356
 7789TIP3   OH223327   5.826   7.221   2.534
 7789TIP3    H123328   5.739   7.233   2.579
 7789TIP3    H223329   5.882   7.191   2.608
 7790TIP3   OH223330   6.601   6.500   3.816
 7790TIP3    H123331   6.516   6.507   3.770
 7790TIP3    H223332   6.618   6.404   3.809
 7791TIP3   OH223333   5.196   6.909   3.837
 7791TIP3    H123334   5.246   6.892   3.919
 7791TIP3    H223335   5.122   6.845   3.845
 7792TIP3   OH223336   5.596   5.731   3.626
 7792TIP3    H123337   5.506   5.702   3.597
 7792TIP3    H223338   5.571   5.812   3.675
 7793TIP3   OH223339   6.136   5.843   3.820
 7793TIP3    H123340   6.206   5.817   3.883
 7793TIP3    H223341   6.054   5.825   3.872
 7794TIP3   OH223342   6.364   6.275   3.735
 7794TIP3    H123343   6.316   6.271   3.821
 7794TIP3    H223344   6.343   6.364   3.703
 7795TIP3   OH223345   6.028   6.401   2.293
 7795TIP3    H123346   5.995   6.379   2.204
 7795TIP3    H223347   6.112   6.446   2.271
 7796TIP3   OH223348   5.750   5.779   2.601
 7796TIP3    H123349   5.713   5.773   2.691
 7796TIP3    H223350   5.702   5.705   2.557
 7797TIP3   OH223351   5.528   6.248   3.643
 7797TIP3    H123352   5.479   6.270   3.725
 7797TIP3    H223353   5.513   6.330   3.590
 7798TIP3   OH223354   5.412   6.133   3.156
 7798TIP3    H123355   5.319   6.107   3.176
 7798TIP3    H223356   5.423   6.090   3.068
 7799TIP3   OH223357   5.903   6.217   2.885
 7799TIP3    H123358   5.852   6.289   2.842
 7799TIP3    H223359   5.958   6.185   2.811
 7800TIP3   OH223360   6.078   6.495   3.968
 7800TIP3    H123361   6.056   6.422   4.031
 7800TIP3    H223362   6.171   6.510   3.991
 7801TIP3   OH223363   6.059   6.244   3.122
 7801TIP3    H123364   5.996   6.273   3.053
 7801TIP3    H223365   6.093   6.164   3.077
 7802TIP3   OH223366   5.347   6.275   3.851
 7802TIP3    H123367   5.381   6.337   3.917
 7802TIP3    H223368   5.337   6.193   3.904
 7803TIP3   OH223369   5.402   5.756   2.562
 7803TIP3    H123370   5.388   5.754   2.659
 7803TIP3    H223371   5.323   5.807   2.533
 7804TIP3   OH223372   4.940   5.795   3.433
 7804TIP3    H123373   5.015   5.828   3.486
 7804TIP3    H223374   4.981   5.766   3.351
 7805TIP3   OH223375   4.908   5.778   2.951
 7805TIP3    H123376   4.953   5.815   2.872
 7805TIP3    H223377   4.846   5.851   2.970
 7806TIP3   OH223378   6.065   6.491   3.543
 7806TIP3    H123379   6.101   6.420   3.485
 7806TIP3    H223380   6.038   6.437   3.620
 7807TIP3   OH223381   5.740   5.952   3.215
 7807TIP3    H123382   5.660   5.954   3.271
 7807TIP3    H223383   5.811   5.948   3.281
 7808TIP3   OH223384   5.174   6.013   3.223
 7808TIP3    H123385   5.079   6.022   3.196
 7808TIP3    H223386   5.194   5.920   3.203
 7809TIP3   OH223387   5.440   6.003   2.916
 7809TIP3    H123388   5.533   6.024   2.894
 7809TIP3    H223389   5.391   6.027   2.833
 7810TIP3   OH223390   6.231   6.033   3.416
 7810TIP3    H123391   6.205   6.045   3.510
 7810TIP3    H223392   6.162   5.972   3.386
 7811TIP3   OH223393   5.290   6.041   2.693
 7811TIP3    H123394   5.218   5.995   2.646
 7811TIP3    H223395   5.340   6.078   2.617
 7812TIP3   OH223396   6.397   7.721   3.633
 7812TIP3    H123397   6.398   7.742   3.537
 7812TIP3    H223398   6.481   7.760   3.662
 7813TIP3   OH223399   5.360   6.831   4.059
 7813TIP3    H123400   5.440   6.859   4.108
 7813TIP3    H223401   5.295   6.828   4.133
 7814TIP3   OH223402   5.821   6.284   3.315
 7814TIP3    H123403   5.898   6.247   3.271
 7814TIP3    H223404   5.825   6.242   3.403
 7815TIP3   OH223405   5.341   5.770   3.199
 7815TIP3    H123406   5.302   5.695   3.249
 7815TIP3    H223407   5.384   5.725   3.126
 7816TIP3   OH223408   5.799   6.187   3.600
 7816TIP3    H123409   5.709   6.221   3.619
 7816TIP3    H223410   5.857   6.245   3.654
 7817TIP3   OH223411   5.536   6.570   2.699
 7817TIP3    H123412   5.464   6.505   2.687
 7817TIP3    H223413   5.515   6.605   2.789
 7818TIP3   OH223414   6.435   6.808   3.326
 7818TIP3    H123415   6.457   6.859   3.246
 7818TIP3    H223416   6.351   6.764   3.301
 7819TIP3   OH223417   5.995   5.885   2.548
 7819TIP3    H123418   5.901   5.864   2.570
 7819TIP3    H223419   6.007   5.975   2.583
 7820TIP3   OH223420   5.931   6.889   3.697
 7820TIP3    H123421   5.968   6.870   3.785
 7820TIP3    H223422   5.896   6.979   3.707
 7821TIP3   OH223423   6.062   6.128   2.665
 7821TIP3    H123424   6.158   6.136   2.684
 7821TIP3    H223425   6.043   6.210   2.616
 7822TIP3   OH223426   5.228   6.594   3.373
 7822TIP3    H123427   5.267   6.564   3.289
 7822TIP3    H223428   5.273   6.537   3.438
 7823TIP3   OH223429   5.679   6.720   2.519
 7823TIP3    H123430   5.630   6.806   2.523
 7823TIP3    H223431   5.626   6.666   2.582
 7824TIP3   OH223432   5.111   6.514   3.989
 7824TIP3    H123433   5.130   6.500   4.084
 7824TIP3    H223434   5.043   6.447   3.974
 7825TIP3   OH223435   5.839   6.631   4.006
 7825TIP3    H123436   5.779   6.568   3.963
 7825TIP3    H223437   5.926   6.594   3.980
 7826TIP3   OH223438   6.093   7.150   3.595
 7826TIP3    H123439   5.996   7.149   3.609
 7826TIP3    H223440   6.122   7.202   3.672
 7827TIP3   OH223441   6.499   6.225   2.503
 7827TIP3    H123442   6.438   6.182   2.439
 7827TIP3    H223443   6.496   6.315   2.465
 7828TIP3   OH223444   6.720   7.077   3.588
 7828TIP3    H123445   6.622   7.072   3.580
 7828TIP3    H223446   6.746   7.048   3.498
 7829TIP3   OH223447   6.200   7.023   2.409
 7829TIP3    H123448   6.176   6.952   2.470
 7829TIP3    H223449   6.219   6.977   2.326
 7830TIP3   OH223450   6.201   6.672   3.241
 7830TIP3    H123451   6.108   6.648   3.257
 7830TIP3    H223452   6.234   6.590   3.198
 7831TIP3   OH223453   5.330   6.899   2.998
 7831TIP3    H123454   5.325   6.980   2.944
 7831TIP3    H223455   5.237   6.881   3.016
 7832TIP3   OH223456   4.895   6.201   2.708
 7832TIP3    H123457   4.939   6.286   2.729
 7832TIP3    H223458   4.818   6.204   2.768
 7833TIP3   OH223459   5.462   6.661   2.941
 7833TIP3    H123460   5.428   6.751   2.961
 7833TIP3    H223461   5.428   6.611   3.017
 7834TIP3   OH223462   5.600   7.241   3.468
 7834TIP3    H123463   5.642   7.314   3.419
 7834TIP3    H223464   5.676   7.204   3.516
 7835TIP3   OH223465   5.247   7.138   2.851
 7835TIP3    H123466   5.162   7.147   2.899
 7835TIP3    H223467   5.280   7.230   2.855
 7836TIP3   OH223468   5.984   6.874   3.430
 7836TIP3    H123469   5.971   6.874   3.527
 7836TIP3    H223470   6.065   6.824   3.421
 7837TIP3   OH223471   5.963   6.769   2.314
 7837TIP3    H123472   6.018   6.743   2.391
 7837TIP3    H223473   5.876   6.742   2.344
 7838TIP3   OH223474   6.233   7.401   3.480
 7838TIP3    H123475   6.153   7.346   3.474
 7838TIP3    H223476   6.217   7.466   3.408
 7839TIP3   OH223477   6.246   7.227   2.115
 7839TIP3    H123478   6.335   7.255   2.087
 7839TIP3    H223479   6.205   7.311   2.142
 7840TIP3   OH223480   5.319   6.018   3.994
 7840TIP3    H123481   5.223   6.020   4.008
 7840TIP3    H223482   5.349   5.965   4.070
 7841TIP3   OH223483   6.124   6.700   2.525
 7841TIP3    H123484   6.113   6.636   2.598
 7841TIP3    H223485   6.222   6.696   2.514
 7842TIP3   OH223486   5.037   7.101   3.627
 7842TIP3    H123487   5.092   7.030   3.665
 7842TIP3    H223488   5.063   7.176   3.681
 7843TIP3   OH223489   5.325   6.748   2.311
 7843TIP3    H123490   5.339   6.655   2.287
 7843TIP3    H223491   5.306   6.740   2.407
 7844TIP3   OH223492   5.271   6.755   2.582
 7844TIP3    H123493   5.342   6.727   2.641
 7844TIP3    H223494   5.274   6.852   2.592
 7845TIP3   OH223495   5.004   6.447   2.788
 7845TIP3    H123496   4.938   6.491   2.845
 7845TIP3    H223497   5.016   6.515   2.720
 7846TIP3   OH223498   6.163   6.077   3.676
 7846TIP3    H123499   6.238   6.122   3.719
 7846TIP3    H223500   6.150   5.999   3.734
 7847TIP3   OH223501   6.046   5.830   2.848
 7847TIP3    H123502   6.031   5.858   2.757
 7847TIP3    H223503   6.085   5.911   2.888
 7848TIP3   OH223504   5.538   6.951   2.528
 7848TIP3    H123505   5.451   6.972   2.567
 7848TIP3    H223506   5.556   7.033   2.480
 7849TIP3   OH223507   5.722   6.014   2.944
 7849TIP3    H123508   5.787   6.087   2.930
 7849TIP3    H223509   5.729   6.003   3.042
 7850TIP3   OH223510   5.999   6.331   3.753
 7850TIP3    H123511   6.021   6.386   3.832
 7850TIP3    H223512   6.051   6.251   3.770
 7851TIP3   OH223513   5.871   5.739   3.050
 7851TIP3    H123514   5.872   5.813   3.114
 7851TIP3    H223515   5.933   5.774   2.982
 7852TIP3   OH223516   5.284   7.026   2.602
 7852TIP3    H123517   5.253   7.096   2.540
 7852TIP3    H223518   5.268   7.068   2.689
 7853TIP3   OH223519   5.385   5.740   2.839
 7853TIP3    H123520   5.378   5.830   2.876
 7853TIP3    H223521   5.481   5.726   2.849
 7854TIP3   OH223522   6.632   6.235   3.734
 7854TIP3    H123523   6.534   6.231   3.742
 7854TIP3    H223524   6.644   6.186   3.652
 7855TIP3   OH223525   6.286   6.428   3.123
 7855TIP3    H123526   6.211   6.368   3.138
 7855TIP3    H223527   6.358   6.381   3.171
 7856TIP3   OH223528   5.000   6.651   2.591
 7856TIP3    H123529   5.069   6.720   2.602
 7856TIP3    H223530   5.045   6.594   2.525
 7857TIP3   OH223531   4.943   5.931   2.725
 7857TIP3    H123532   4.942   6.028   2.724
 7857TIP3    H223533   4.861   5.910   2.679
 7858TIP3   OH223534   6.263   7.385   3.061
 7858TIP3    H123535   6.217   7.424   2.984
 7858TIP3    H223536   6.356   7.399   3.033
 7859TIP3   OH223537   5.332   5.651   3.596
 7859TIP3    H123538   5.300   5.616   3.510
 7859TIP3    H223539   5.321   5.573   3.655
 7860TIP3   OH223540   4.866   6.866   2.974
 7860TIP3    H123541   4.805   6.898   3.043
 7860TIP3    H223542   4.830   6.911   2.894
 7861TIP3   OH223543   5.030   7.417   4.051
 7861TIP3    H123544   5.117   7.417   4.098
 7861TIP3    H223545   5.010   7.322   4.049
 7862TIP3   OH223546   5.507   7.374   4.095
 7862TIP3    H123547   5.601   7.352   4.102
 7862TIP3    H223548   5.479   7.312   4.023
 7863TIP3   OH223549   5.487   6.948   2.217
 7863TIP3    H123550   5.429   6.881   2.259
 7863TIP3    H223551   5.566   6.895   2.202
 7864TIP3   OH223552   6.146   7.284   3.830
 7864TIP3    H123553   6.138   7.213   3.899
 7864TIP3    H223554   6.224   7.333   3.860
 7865TIP3   OH223555   5.921   6.987   2.140
 7865TIP3    H123556   5.965   6.925   2.202
 7865TIP3    H223557   5.982   6.988   2.064
 7866TIP3   OH223558   5.158   6.820   4.250
 7866TIP3    H123559   5.173   6.724   4.260
 7866TIP3    H223560   5.071   6.822   4.205
 7867TIP3   OH223561   5.137   6.467   2.447
 7867TIP3    H123562   5.193   6.437   2.521
 7867TIP3    H223563   5.204   6.472   2.376
 7868TIP3   OH223564   5.764   6.906   4.026
 7868TIP3    H123565   5.725   6.925   3.938
 7868TIP3    H223566   5.796   6.814   4.015
 7869TIP3   OH223567   5.648   6.670   2.251
 7869TIP3    H123568   5.651   6.681   2.348
 7869TIP3    H223569   5.649   6.572   2.244
 7870TIP3   OH223570   6.256   6.917   3.630
 7870TIP3    H123571   6.333   6.959   3.588
 7870TIP3    H223572   6.188   6.986   3.615
 7871TIP3   OH223573   5.280   6.554   4.233
 7871TIP3    H123574   5.358   6.504   4.208
 7871TIP3    H223575   5.307   6.587   4.322
 7872TIP3   OH223576   5.341   6.375   2.665
 7872TIP3    H123577   5.312   6.337   2.750
 7872TIP3    H223578   5.378   6.297   2.619
 7873TIP3   OH223579   5.610   6.435   3.892
 7873TIP3    H123580   5.534   6.497   3.892
 7873TIP3    H223581   5.664   6.470   3.818
 7874TIP3   OH223582   5.445   6.168   2.506
 7874TIP3    H123583   5.420   6.177   2.411
 7874TIP3    H223584   5.543   6.170   2.499
 7875TIP3   OH223585   6.130   6.839   4.028
 7875TIP3    H123586   6.211   6.809   3.984
 7875TIP3    H223587   6.123   6.776   4.101
 7876TIP3   OH223588   6.259   6.495   2.174
 7876TIP3    H123589   6.243   6.452   2.088
 7876TIP3    H223590   6.227   6.586   2.152
 7877TIP3   OH223591   5.733   6.228   4.021
 7877TIP3    H123592   5.737   6.148   3.964
 7877TIP3    H223593   5.690   6.293   3.962
 7878TIP3   OH223594   5.739   6.014   3.828
 7878TIP3    H123595   5.767   6.054   3.744
 7878TIP3    H223596   5.645   5.991   3.809
 7879TIP3   OH223597   5.761   6.544   3.700
 7879TIP3    H123598   5.848   6.560   3.662
 7879TIP3    H223599   5.706   6.611   3.654
 7880TIP3   OH223600   6.342   6.511   4.079
 7880TIP3    H123601   6.388   6.430   4.105
 7880TIP3    H223602   6.415   6.567   4.049
 7881TIP3   OH223603   6.386   6.767   3.814
 7881TIP3    H123604   6.329   6.822   3.756
 7881TIP3    H223605   6.474   6.789   3.776
 7882TIP3   OH223606   5.609   6.336   4.252
 7882TIP3    H123607   5.544   6.265   4.269
 7882TIP3    H223608   5.647   6.308   4.166
 7883TIP3   OH223609   5.871   5.772   3.894
 7883TIP3    H123610   5.821   5.854   3.876
 7883TIP3    H223611   5.800   5.704   3.887
 7884TIP3   OH223612   5.997   6.279   4.113
 7884TIP3    H123613   5.991   6.262   4.208
 7884TIP3    H223614   5.906   6.254   4.086
 7885TIP3   OH223615   6.232   6.225   3.965
 7885TIP3    H123616   6.161   6.228   4.031
 7885TIP3    H223617   6.309   6.197   4.019
 7886TIP3   OH223618   6.460   6.169   4.112
 7886TIP3    H123619   6.475   6.074   4.129
 7886TIP3    H223620   6.457   6.206   4.203
 7887TIP3   OH223621   5.452   6.113   4.308
 7887TIP3    H123622   5.459   6.021   4.276
 7887TIP3    H223623   5.492   6.103   4.398
 7888TIP3   OH223624   5.962   5.786   4.157
 7888TIP3    H123625   6.030   5.716   4.162
 7888TIP3    H223626   5.929   5.773   4.066
 7889TIP3   OH223627   6.032   6.003   4.312
 7889TIP3    H123628   6.013   5.928   4.253
 7889TIP3    H223629   5.950   6.056   4.306
 7890TIP3   OH223630   5.252   7.228   2.412
 7890TIP3    H123631   5.348   7.220   2.394
 7890TIP3    H223632   5.225   7.282   2.336
 7891TIP3   OH223633   4.731   6.612   2.626
 7891TIP3    H123634   4.826   6.632   2.612
 7891TIP3    H223635   4.724   6.522   2.586
 7892TIP3   OH223636   4.650   7.223   3.044
 7892TIP3    H123637   4.583   7.163   3.005
 7892TIP3    H223638   4.693   7.163   3.108
 7893TIP3   OH223639   4.783   7.068   3.230
 7893TIP3    H123640   4.769   6.999   3.297
 7893TIP3    H223641   4.836   7.132   3.281
 7894TIP3   OH223642   6.522   7.470   3.009
 7894TIP3    H123643   6.532   7.491   3.104
 7894TIP3    H223644   6.539   7.556   2.966
 7895TIP3   OH223645   6.552   7.483   3.286
 7895TIP3    H123646   6.500   7.400   3.295
 7895TIP3    H223647   6.612   7.468   3.362
 7896TIP3   OH223648   6.581   7.173   3.885
 7896TIP3    H123649   6.511   7.182   3.952
 7896TIP3    H223650   6.629   7.258   3.896
 7897TIP3   OH223651   6.398   6.680   2.506
 7897TIP3    H123652   6.467   6.743   2.476
 7897TIP3    H223653   6.443   6.641   2.585
 7898TIP3   OH223654   6.526   6.548   2.706
 7898TIP3    H123655   6.462   6.508   2.769
 7898TIP3    H223656   6.597   6.582   2.766
 7899TIP3   OH223657   6.586   6.944   3.135
 7899TIP3    H123658   6.639   6.872   3.095
 7899TIP3    H223659   6.554   6.994   3.058
 7900TIP3   OH223660   6.411   7.247   3.328
 7900TIP3    H123661   6.343   7.287   3.386
 7900TIP3    H223662   6.357   7.199   3.262
 7901TIP3   OH223663   6.460   6.456   2.356
 7901TIP3    H123664   6.389   6.461   2.288
 7901TIP3    H223665   6.435   6.533   2.411
 7902TIP3   OH223666   6.336   6.133   2.307
 7902TIP3    H123667   6.294   6.171   2.229
 7902TIP3    H223668   6.313   6.038   2.297
 7903TIP3   OH223669   6.340   6.410   2.855
 7903TIP3    H123670   6.351   6.314   2.848
 7903TIP3    H223671   6.326   6.423   2.951
 7904TIP3   OH223672   4.967   6.481   3.603
 7904TIP3    H123673   4.964   6.447   3.511
 7904TIP3    H223674   5.064   6.482   3.619
 7905TIP3   OH223675   6.632   6.833   3.710
 7905TIP3    H123676   6.703   6.765   3.700
 7905TIP3    H223677   6.664   6.904   3.652
 7906TIP3   OH223678   6.814   6.634   3.717
 7906TIP3    H123679   6.741   6.584   3.759
 7906TIP3    H223680   6.889   6.573   3.736
 7907TIP3   OH223681   6.286   5.867   2.291
 7907TIP3    H123682   6.367   5.842   2.341
 7907TIP3    H223683   6.219   5.810   2.328
 7908TIP3   OH223684   6.339   6.124   2.746
 7908TIP3    H123685   6.380   6.036   2.760
 7908TIP3    H223686   6.397   6.159   2.676
 7909TIP3   OH223687   6.497   6.295   3.242
 7909TIP3    H123688   6.584   6.319   3.201
 7909TIP3    H223689   6.512   6.332   3.331
 7910TIP3   OH223690   6.569   6.441   3.472
 7910TIP3    H123691   6.494   6.475   3.524
 7910TIP3    H223692   6.602   6.522   3.429
 7911TIP3   OH223693   5.187   6.166   4.274
 7911TIP3    H123694   5.285   6.161   4.280
 7911TIP3    H223695   5.163   6.080   4.313
 7912TIP3   OH223696   7.020   6.035   4.029
 7912TIP3    H123697   7.082   5.970   3.988
 7912TIP3    H223698   6.991   6.087   3.951
 7913TIP3   OH223699   6.446   5.874   2.785
 7913TIP3    H123700   6.497   5.860   2.868
 7913TIP3    H223701   6.386   5.797   2.786
 7914TIP3   OH223702   5.148   5.860   3.604
 7914TIP3    H123703   5.209   5.785   3.614
 7914TIP3    H223704   5.210   5.934   3.597
 7915TIP3   OH223705   4.948   6.132   3.677
 7915TIP3    H123706   4.998   6.131   3.594
 7915TIP3    H223707   4.976   6.215   3.716
 7916TIP3   OH223708   6.890   6.172   3.832
 7916TIP3    H123709   6.808   6.215   3.863
 7916TIP3    H223710   6.853   6.100   3.778
 7917TIP3   OH223711   6.525   5.808   2.418
 7917TIP3    H123712   6.568   5.737   2.366
 7917TIP3    H223713   6.594   5.877   2.421
 7918TIP3   OH223714   4.935   5.637   3.180
 7918TIP3    H123715   4.842   5.630   3.208
 7918TIP3    H223716   4.928   5.696   3.102
 7919TIP3   OH223717   6.085   7.336   2.677
 7919TIP3    H123718   6.137   7.324   2.595
 7919TIP3    H223719   6.139   7.401   2.726
 7920TIP3   OH223720   5.153   5.713   3.991
 7920TIP3    H123721   5.104   5.712   4.075
 7920TIP3    H223722   5.087   5.754   3.932
 7921TIP3   OH223723   5.193   7.149   4.070
 7921TIP3    H123724   5.100   7.122   4.055
 7921TIP3    H223725   5.206   7.125   4.162
 7922TIP3   OH223726   5.374   7.180   3.618
 7922TIP3    H123727   5.326   7.256   3.578
 7922TIP3    H223728   5.460   7.194   3.573
 7923TIP3   OH223729   5.814   7.422   3.758
 7923TIP3    H123730   5.858   7.421   3.846
 7923TIP3    H223731   5.880   7.473   3.706
 7924TIP3   OH223732   5.994   7.575   3.618
 7924TIP3    H123733   6.066   7.526   3.576
 7924TIP3    H223734   6.045   7.633   3.678
 7925TIP3   OH223735   6.791   5.934   3.714
 7925TIP3    H123736   6.699   5.922   3.684
 7925TIP3    H223737   6.826   5.842   3.707
 7926TIP3   OH223738   5.050   7.431   3.645
 7926TIP3    H123739   4.959   7.463   3.622
 7926TIP3    H223740   5.063   7.479   3.728
 7927TIP3   OH223741   5.284   7.413   3.501
 7927TIP3    H123742   5.197   7.425   3.544
 7927TIP3    H223743   5.266   7.446   3.411
 7928TIP3   OH223744   5.709   7.441   3.299
 7928TIP3    H123745   5.639   7.459   3.233
 7928TIP3    H223746   5.721   7.529   3.340
 7929TIP3   OH223747   5.977   7.374   3.351
 7929TIP3    H123748   5.884   7.398   3.330
 7929TIP3    H223749   6.026   7.450   3.313
 7930TIP3   OH223750   6.175   7.555   3.267
 7930TIP3    H123751   6.164   7.647   3.234
 7930TIP3    H223752   6.207   7.508   3.188
 7931TIP3   OH223753   4.959   7.226   3.386
 7931TIP3    H123754   4.985   7.199   3.477
 7931TIP3    H223755   5.032   7.183   3.336
 7932TIP3   OH223756   5.155   7.100   3.246
 7932TIP3    H123757   5.170   7.016   3.296
 7932TIP3    H223758   5.246   7.136   3.242
 7933TIP3   OH223759   5.422   7.191   3.252
 7933TIP3    H123760   5.452   7.098   3.243
 7933TIP3    H223761   5.470   7.216   3.333
 7934TIP3   OH223762   5.989   5.845   3.326
 7934TIP3    H123763   5.951   5.776   3.383
 7934TIP3    H223764   6.070   5.803   3.292
 7935TIP3   OH223765   6.514   5.722   3.232
 7935TIP3    H123766   6.552   5.778   3.161
 7935TIP3    H223767   6.422   5.754   3.235
 7936TIP3   OH223768   6.611   5.830   3.000
 7936TIP3    H123769   6.686   5.777   2.964
 7936TIP3    H223770   6.646   5.921   2.987
 7937TIP3   OH223771   5.243   5.557   3.347
 7937TIP3    H123772   5.150   5.525   3.352
 7937TIP3    H223773   5.290   5.471   3.344
 7938TIP3   OH223774   5.037   5.431   3.002
 7938TIP3    H123775   5.060   5.488   2.927
 7938TIP3    H223776   5.006   5.496   3.068
 7939TIP3   OH223777   5.694   5.587   3.230
 7939TIP3    H123778   5.746   5.645   3.173
 7939TIP3    H223779   5.711   5.625   3.318
 7940TIP3   OH223780   6.227   5.738   3.217
 7940TIP3    H123781   6.241   5.696   3.131
 7940TIP3    H223782   6.216   5.659   3.275
 7941TIP3   OH223783   6.259   5.662   2.772
 7941TIP3    H123784   6.179   5.710   2.800
 7941TIP3    H223785   6.242   5.573   2.812
 7942TIP3   OH223786   4.748   7.004   2.775
 7942TIP3    H123787   4.661   6.972   2.743
 7942TIP3    H223788   4.739   7.098   2.751
 7943TIP3   OH223789   5.149   5.588   2.760
 7943TIP3    H123790   5.196   5.525   2.702
 7943TIP3    H223791   5.222   5.640   2.796
 7944TIP3   OH223792   5.664   5.761   2.864
 7944TIP3    H123793   5.726   5.725   2.929
 7944TIP3    H223794   5.677   5.856   2.882
 7945TIP3   OH223795   5.519   7.184   2.359
 7945TIP3    H123796   5.608   7.206   2.324
 7945TIP3    H223797   5.497   7.109   2.299
 7946TIP3   OH223798   6.224   7.292   2.443
 7946TIP3    H123799   6.218   7.194   2.433
 7946TIP3    H223800   6.185   7.321   2.359
 7947TIP3   OH223801   5.452   5.837   4.239
 7947TIP3    H123802   5.416   5.768   4.297
 7947TIP3    H223803   5.546   5.836   4.269
 7948TIP3   OH223804   5.701   5.834   4.360
 7948TIP3    H123805   5.788   5.814   4.321
 7948TIP3    H223806   5.694   5.763   4.426
 7949TIP3   OH223807   4.822   7.024   2.414
 7949TIP3    H123808   4.822   7.046   2.508
 7949TIP3    H223809   4.910   6.982   2.402
 7950TIP3   OH223810   6.525   5.902   4.145
 7950TIP3    H123811   6.537   5.877   4.239
 7950TIP3    H223812   6.616   5.893   4.112
 7951TIP3   OH223813   6.453   7.452   3.644
 7951TIP3    H123814   6.374   7.422   3.594
 7951TIP3    H223815   6.436   7.548   3.648
 7952TIP3   OH223816   7.027   6.716   3.155
 7952TIP3    H123817   7.059   6.649   3.219
 7952TIP3    H223818   7.099   6.781   3.159
 7953TIP3   OH223819   6.709   6.324   2.656
 7953TIP3    H123820   6.668   6.409   2.677
 7953TIP3    H223821   6.633   6.278   2.615
 7954TIP3   OH223822   6.760   6.613   2.833
 7954TIP3    H123823   6.810   6.535   2.868
 7954TIP3    H223824   6.833   6.667   2.797
 7955TIP3   OH223825   7.279   6.209   2.833
 7955TIP3    H123826   7.261   6.282   2.770
 7955TIP3    H223827   7.229   6.137   2.788
 7956TIP3   OH223828   6.913   6.412   2.939
 7956TIP3    H123829   6.996   6.394   2.988
 7956TIP3    H223830   6.929   6.358   2.859
 7957TIP3   OH223831   7.353   6.607   2.741
 7957TIP3    H123832   7.438   6.596   2.697
 7957TIP3    H223833   7.305   6.527   2.710
 7958TIP3   OH223834   7.271   6.192   3.267
 7958TIP3    H123835   7.211   6.230   3.200
 7958TIP3    H223836   7.219   6.209   3.348
 7959TIP3   OH223837   7.146   6.310   3.050
 7959TIP3    H123838   7.210   6.381   3.073
 7959TIP3    H223839   7.195   6.268   2.975
 7960TIP3   OH223840   6.594   6.843   2.398
 7960TIP3    H123841   6.542   6.883   2.327
 7960TIP3    H223842   6.625   6.925   2.444
 7961TIP3   OH223843   7.614   5.897   2.984
 7961TIP3    H123844   7.600   5.804   3.011
 7961TIP3    H223845   7.542   5.942   3.032
 7962TIP3   OH223846   7.132   6.748   2.636
 7962TIP3    H123847   7.096   6.694   2.563
 7962TIP3    H223848   7.222   6.712   2.646
 7963TIP3   OH223849   7.279   6.736   2.986
 7963TIP3    H123850   7.315   6.713   2.898
 7963TIP3    H223851   7.305   6.831   2.996
 7964TIP3   OH223852   7.162   6.841   3.407
 7964TIP3    H123853   7.169   6.928   3.453
 7964TIP3    H223854   7.067   6.821   3.422
 7965TIP3   OH223855   7.000   6.597   2.448
 7965TIP3    H123856   6.967   6.643   2.370
 7965TIP3    H223857   6.957   6.511   2.441
 7966TIP3   OH223858   6.776   6.975   3.345
 7966TIP3    H123859   6.712   6.953   3.274
 7966TIP3    H223860   6.818   6.889   3.365
 7967TIP3   OH223861   6.651   7.187   2.957
 7967TIP3    H123862   6.722   7.142   3.004
 7967TIP3    H223863   6.617   7.249   3.023
 7968TIP3   OH223864   6.994   7.137   3.312
 7968TIP3    H123865   7.031   7.161   3.398
 7968TIP3    H223866   6.920   7.079   3.337
 7969TIP3   OH223867   7.388   5.987   3.118
 7969TIP3    H123868   7.300   5.958   3.086
 7969TIP3    H223869   7.362   6.068   3.165
 7970TIP3   OH223870   7.926   6.082   3.317
 7970TIP3    H123871   7.945   6.142   3.391
 7970TIP3    H223872   7.832   6.060   3.336
 7971TIP3   OH223873   7.499   6.027   2.056
 7971TIP3    H123874   7.560   6.034   2.132
 7971TIP3    H223875   7.466   5.935   2.063
 7972TIP3   OH223876   7.319   6.509   3.127
 7972TIP3    H123877   7.262   6.525   3.205
 7972TIP3    H223878   7.305   6.592   3.075
 7973TIP3   OH223879   7.209   6.391   2.645
 7973TIP3    H123880   7.115   6.368   2.662
 7973TIP3    H223881   7.221   6.350   2.556
 7974TIP3   OH223882   7.144   6.529   3.339
 7974TIP3    H123883   7.160   6.590   3.413
 7974TIP3    H223884   7.135   6.444   3.387
 7975TIP3   OH223885   7.179   6.000   2.038
 7975TIP3    H123886   7.185   6.005   2.136
 7975TIP3    H223887   7.107   6.062   2.020
 7976TIP3   OH223888   6.739   6.051   2.918
 7976TIP3    H123889   6.809   6.087   2.976
 7976TIP3    H223890   6.788   6.025   2.838
 7977TIP3   OH223891   6.700   6.033   2.438
 7977TIP3    H123892   6.749   6.068   2.361
 7977TIP3    H223893   6.642   6.109   2.457
 7978TIP3   OH223894   7.539   6.182   2.722
 7978TIP3    H123895   7.449   6.180   2.760
 7978TIP3    H223896   7.585   6.236   2.787
 7979TIP3   OH223897   6.970   6.269   2.712
 7979TIP3    H123898   6.876   6.275   2.683
 7979TIP3    H223899   6.994   6.177   2.689
 7980TIP3   OH223900   7.236   6.271   2.398
 7980TIP3    H123901   7.326   6.288   2.367
 7980TIP3    H223902   7.183   6.283   2.316
 7981TIP3   OH223903   7.095   6.300   2.169
 7981TIP3    H123904   7.009   6.256   2.168
 7981TIP3    H223905   7.110   6.309   2.074
 7982TIP3   OH223906   7.167   7.073   3.556
 7982TIP3    H123907   7.227   7.142   3.585
 7982TIP3    H223908   7.094   7.082   3.621
 7983TIP3   OH223909   7.138   6.027   2.682
 7983TIP3    H123910   7.102   5.951   2.732
 7983TIP3    H223911   7.201   5.984   2.623
 7984TIP3   OH223912   7.582   6.417   3.111
 7984TIP3    H123913   7.490   6.445   3.096
 7984TIP3    H223914   7.630   6.502   3.106
 7985TIP3   OH223915   6.998   6.787   2.862
 7985TIP3    H123916   7.049   6.769   2.780
 7985TIP3    H223917   7.055   6.748   2.930
 7986TIP3   OH223918   6.906   6.768   3.475
 7986TIP3    H123919   6.929   6.757   3.570
 7986TIP3    H223920   6.837   6.701   3.464
 7987TIP3   OH223921   6.679   6.443   2.191
 7987TIP3    H123922   6.715   6.533   2.204
 7987TIP3    H223923   6.602   6.447   2.252
 7988TIP3   OH223924   7.113   6.276   3.480
 7988TIP3    H123925   7.017   6.278   3.497
 7988TIP3    H223926   7.146   6.224   3.556
 7989TIP3   OH223927   6.771   6.691   2.251
 7989TIP3    H123928   6.723   6.739   2.322
 7989TIP3    H223929   6.852   6.745   2.239
 7990TIP3   OH223930   7.673   6.025   2.539
 7990TIP3    H123931   7.626   6.087   2.599
 7990TIP3    H223932   7.740   6.083   2.501
 7991TIP3   OH223933   7.177   5.998   2.319
 7991TIP3    H123934   7.178   6.083   2.367
 7991TIP3    H223935   7.272   5.973   2.333
 7992TIP3   OH223936   6.747   6.183   2.214
 7992TIP3    H123937   6.739   6.280   2.211
 7992TIP3    H223938   6.669   6.156   2.165
 7993TIP3   OH223939   7.123   5.909   3.084
 7993TIP3    H123940   7.097   5.873   2.997
 7993TIP3    H223941   7.116   5.831   3.143
 7994TIP3   OH223942   6.638   7.099   2.467
 7994TIP3    H123943   6.577   7.166   2.503
 7994TIP3    H223944   6.681   7.145   2.395
 7995TIP3   OH223945   6.953   7.065   3.742
 7995TIP3    H123946   6.967   6.969   3.743
 7995TIP3    H223947   6.869   7.073   3.692
 7996TIP3   OH223948   7.072   6.803   3.718
 7996TIP3    H123949   7.149   6.748   3.699
 7996TIP3    H223950   7.096   6.838   3.806
 7997TIP3   OH223951   7.391   6.707   3.372
 7997TIP3    H123952   7.308   6.755   3.390
 7997TIP3    H223953   7.394   6.708   3.276
 7998TIP3   OH223954   7.478   6.474   3.502
 7998TIP3    H123955   7.497   6.399   3.443
 7998TIP3    H223956   7.452   6.545   3.440
 7999TIP3   OH223957   7.526   6.261   3.330
 7999TIP3    H123958   7.559   6.309   3.250
 7999TIP3    H223959   7.434   6.239   3.303
 8000TIP3   OH223960   7.401   6.593   3.735
 8000TIP3    H123961   7.335   6.525   3.761
 8000TIP3    H223962   7.429   6.558   3.648
 8001TIP3   OH223963   7.665   6.029   3.380
 8001TIP3    H123964   7.612   6.111   3.366
 8001TIP3    H223965   7.596   5.960   3.370
 8002TIP3   OH223966   7.761   6.467   3.525
 8002TIP3    H123967   7.795   6.519   3.601
 8002TIP3    H223968   7.672   6.444   3.555
 8003TIP3   OH223969   7.246   6.371   3.795
 8003TIP3    H123970   7.254   6.280   3.761
 8003TIP3    H223971   7.285   6.360   3.884
 8004TIP3   OH223972   7.764   6.040   3.636
 8004TIP3    H123973   7.828   5.967   3.629
 8004TIP3    H223974   7.722   6.036   3.548
 8005TIP3   OH223975   7.818   6.250   3.806
 8005TIP3    H123976   7.800   6.182   3.737
 8005TIP3    H223977   7.744   6.313   3.792
 8006TIP3   OH223978   6.557   6.858   2.104
 8006TIP3    H123979   6.632   6.814   2.147
 8006TIP3    H223980   6.522   6.783   2.052
 8007TIP3   OH223981   6.381   7.451   2.600
 8007TIP3    H123982   6.330   7.392   2.540
 8007TIP3    H223983   6.450   7.391   2.634
 8008TIP3   OH223984   6.592   7.321   2.728
 8008TIP3    H123985   6.603   7.248   2.792
 8008TIP3    H223986   6.573   7.394   2.788
 8009TIP3   OH223987   6.763   6.741   3.085
 8009TIP3    H123988   6.763   6.706   2.994
 8009TIP3    H223989   6.860   6.741   3.103
 8010TIP3   OH223990   6.982   6.423   3.758
 8010TIP3    H123991   7.080   6.419   3.766
 8010TIP3    H223992   6.959   6.337   3.798
 8011TIP3   OH223993   6.941   6.119   3.093
 8011TIP3    H123994   7.002   6.042   3.102
 8011TIP3    H223995   7.005   6.192   3.085
 8012TIP3   OH223996   6.742   6.389   3.162
 8012TIP3    H123997   6.795   6.389   3.080
 8012TIP3    H223998   6.772   6.469   3.205
 8013TIP3   OH223999   6.730   5.886   2.662
 8013TIP3    H124000   6.639   5.888   2.696
 8013TIP3    H224001   6.725   5.949   2.587
 8014TIP3   OH224002   6.950   5.972   3.478
 8014TIP3    H124003   6.901   5.968   3.562
 8014TIP3    H224004   6.883   6.011   3.419
 8015TIP3   OH224005   6.950   7.306   3.549
 8015TIP3    H124006   6.864   7.326   3.509
 8015TIP3    H224007   6.940   7.342   3.638
 8016TIP3   OH224008   7.039   5.815   2.835
 8016TIP3    H124009   6.947   5.782   2.841
 8016TIP3    H224010   7.088   5.730   2.832
 8017TIP3   OH224011   6.822   5.686   2.485
 8017TIP3    H124012   6.857   5.742   2.413
 8017TIP3    H224013   6.799   5.752   2.553
 8018TIP3   OH224014   7.477   5.848   2.730
 8018TIP3    H124015   7.531   5.884   2.657
 8018TIP3    H224016   7.522   5.886   2.807
 8019TIP3   OH224017   6.947   5.843   2.247
 8019TIP3    H124018   6.993   5.780   2.189
 8019TIP3    H224019   7.022   5.896   2.280
 8020TIP3   OH224020   7.448   6.008   2.371
 8020TIP3    H124021   7.516   5.956   2.415
 8020TIP3    H224022   7.496   6.091   2.359
 8021TIP3   OH224023   7.248   6.095   3.725
 8021TIP3    H124024   7.210   6.027   3.782
 8021TIP3    H224025   7.341   6.095   3.756
 8022TIP3   OH224026   7.495   6.092   3.848
 8022TIP3    H124027   7.582   6.067   3.811
 8022TIP3    H224028   7.482   6.021   3.915
 8023TIP3   OH224029   0.999   7.139   4.533
 8023TIP3    H124030   1.019   7.223   4.580
 8023TIP3    H224031   0.990   7.169   4.441
 8024TIP3   OH224032   1.073   7.346   4.708
 8024TIP3    H124033   1.046   7.434   4.673
 8024TIP3    H224034   1.102   7.375   4.797
 8025TIP3   OH224035   0.682   7.075   4.327
 8025TIP3    H124036   0.646   7.052   4.412
 8025TIP3    H224037   0.708   7.168   4.342
 8026TIP3   OH224038   0.778   7.051   4.671
 8026TIP3    H124039   0.716   7.124   4.657
 8026TIP3    H224040   0.854   7.077   4.615
 8027TIP3   OH224041   0.717   6.641   3.773
 8027TIP3    H124042   0.634   6.654   3.823
 8027TIP3    H224043   0.731   6.729   3.735
 8028TIP3   OH224044   0.871   7.547   5.029
 8028TIP3    H124045   0.833   7.509   4.947
 8028TIP3    H224046   0.892   7.466   5.078
 8029TIP3   OH224047   2.262  -0.254   5.164
 8029TIP3    H124048   2.176  -0.280   5.205
 8029TIP3    H224049   2.252  -0.156   5.170
 8030TIP3   OH224050   0.881   7.262   4.931
 8030TIP3    H124051   0.786   7.259   4.916
 8030TIP3    H224052   0.916   7.259   4.841
 8031TIP3   OH224053   0.640   7.139   3.430
 8031TIP3    H124054   0.571   7.174   3.370
 8031TIP3    H224055   0.596   7.055   3.457
 8032TIP3   OH224056   0.534   6.896   3.483
 8032TIP3    H124057   0.617   6.870   3.529
 8032TIP3    H224058   0.468   6.846   3.531
 8033TIP3   OH224059   0.626   7.171   3.902
 8033TIP3    H124060   0.596   7.096   3.955
 8033TIP3    H224061   0.719   7.149   3.892
 8034TIP3   OH224062   0.768   7.321   4.421
 8034TIP3    H124063   0.814   7.375   4.356
 8034TIP3    H224064   0.706   7.387   4.455
 8035TIP3   OH224065   1.276   7.079   5.208
 8035TIP3    H124066   1.334   7.013   5.165
 8035TIP3    H224067   1.240   7.129   5.131
 8036TIP3   OH224068   0.716   6.904   3.955
 8036TIP3    H124069   0.746   6.896   4.048
 8036TIP3    H224070   0.641   6.840   3.955
 8037TIP3   OH224071   1.137   7.205   5.013
 8037TIP3    H124072   1.049   7.242   5.034
 8037TIP3    H224073   1.109   7.130   4.955
 8038TIP3   OH224074   0.784   6.853   3.590
 8038TIP3    H124075   0.810   6.771   3.542
 8038TIP3    H224076   0.860   6.910   3.573
 8039TIP3   OH224077   1.045   6.974   4.890
 8039TIP3    H124078   0.952   6.959   4.865
 8039TIP3    H224079   1.079   6.882   4.883
 8040TIP3   OH224080   0.763   6.777   4.411
 8040TIP3    H124081   0.812   6.831   4.345
 8040TIP3    H224082   0.673   6.797   4.386
 8041TIP3   OH224083   0.872   6.879   4.180
 8041TIP3    H124084   0.949   6.834   4.140
 8041TIP3    H224085   0.894   6.973   4.174
 8042TIP3   OH224086   0.513   6.706   3.948
 8042TIP3    H124087   0.420   6.733   3.944
 8042TIP3    H224088   0.505   6.622   3.997
 8043TIP3   OH224089   0.761   6.945   5.312
 8043TIP3    H124090   0.773   6.922   5.407
 8043TIP3    H224091   0.853   6.939   5.280
 8044TIP3   OH224092   2.797   7.395   4.016
 8044TIP3    H124093   2.818   7.481   4.059
 8044TIP3    H224094   2.811   7.416   3.922
 8045TIP3   OH224095   2.213   7.595   4.035
 8045TIP3    H124096   2.252   7.516   4.076
 8045TIP3    H224097   2.177   7.556   3.953
 8046TIP3   OH224098   1.535   7.242   4.010
 8046TIP3    H124099   1.514   7.301   3.935
 8046TIP3    H224100   1.485   7.164   3.982
 8047TIP3   OH224101   2.223   7.327   3.645
 8047TIP3    H124102   2.305   7.325   3.700
 8047TIP3    H224103   2.258   7.356   3.559
 8048TIP3   OH224104   1.132   7.434   4.108
 8048TIP3    H124105   1.188   7.460   4.182
 8048TIP3    H224106   1.189   7.376   4.057
 8049TIP3   OH224107   2.878   7.607   4.185
 8049TIP3    H124108   2.853   7.694   4.147
 8049TIP3    H224109   2.874   7.630   4.279
 8050TIP3   OH224110   1.527   7.232   4.449
 8050TIP3    H124111   1.470   7.270   4.379
 8050TIP3    H224112   1.470   7.246   4.527
 8051TIP3   OH224113   2.436   7.350   3.807
 8051TIP3    H124114   2.420   7.308   3.892
 8051TIP3    H224115   2.492   7.426   3.834
 8052TIP3   OH224116   1.393   7.342   4.237
 8052TIP3    H124117   1.399   7.439   4.239
 8052TIP3    H224118   1.455   7.320   4.163
 8053TIP3   OH224119   2.582   7.303   4.171
 8053TIP3    H124120   2.498   7.340   4.140
 8053TIP3    H224121   2.647   7.339   4.106
 8054TIP3   OH224122   1.875   6.952   4.157
 8054TIP3    H124123   1.862   6.858   4.180
 8054TIP3    H224124   1.800   6.993   4.205
 8055TIP3   OH224125   2.513   6.899   3.260
 8055TIP3    H124126   2.432   6.922   3.310
 8055TIP3    H224127   2.529   6.982   3.211
 8056TIP3   OH224128   2.677   7.802   4.519
 8056TIP3    H124129   2.615   7.770   4.451
 8056TIP3    H224130   2.716   7.718   4.545
 8057TIP3   OH224131   1.642   7.032   4.289
 8057TIP3    H124132   1.554   7.002   4.261
 8057TIP3    H224133   1.616   7.112   4.340
 8058TIP3   OH224134   2.178   7.149   4.483
 8058TIP3    H124135   2.248   7.118   4.545
 8058TIP3    H224136   2.095   7.125   4.530
 8059TIP3   OH224137   2.406   7.551   4.405
 8059TIP3    H124138   2.364   7.550   4.493
 8059TIP3    H224139   2.385   7.641   4.375
 8060TIP3   OH224140   1.777   7.083   3.257
 8060TIP3    H124141   1.752   7.075   3.351
 8060TIP3    H224142   1.744   6.997   3.224
 8061TIP3   OH224143   1.429   7.366   3.792
 8061TIP3    H124144   1.336   7.339   3.786
 8061TIP3    H224145   1.459   7.347   3.701
 8062TIP3   OH224146   2.085   7.491   3.817
 8062TIP3    H124147   2.086   7.550   3.740
 8062TIP3    H224148   2.120   7.409   3.775
 8063TIP3   OH224149   1.398   7.585   4.566
 8063TIP3    H124150   1.430   7.596   4.656
 8063TIP3    H224151   1.379   7.490   4.566
 8064TIP3   OH224152   1.440   7.058   3.222
 8064TIP3    H124153   1.442   7.055   3.320
 8064TIP3    H224154   1.359   7.110   3.207
 8065TIP3   OH224155   1.008   7.119   4.056
 8065TIP3    H124156   1.063   7.134   4.137
 8065TIP3    H224157   1.044   7.037   4.019
 8066TIP3   OH224158   0.960   7.081   3.588
 8066TIP3    H124159   1.057   7.080   3.579
 8066TIP3    H224160   0.946   7.146   3.659
 8067TIP3   OH224161   1.793   7.230   3.888
 8067TIP3    H124162   1.717   7.234   3.949
 8067TIP3    H224163   1.868   7.240   3.949
 8068TIP3   OH224164   1.172   7.266   3.872
 8068TIP3    H124165   1.102   7.232   3.931
 8068TIP3    H224166   1.237   7.193   3.874
 8069TIP3   OH224167   1.503   7.297   3.534
 8069TIP3    H124168   1.601   7.299   3.546
 8069TIP3    H224169   1.485   7.392   3.514
 8070TIP3   OH224170   2.276   7.328   4.091
 8070TIP3    H124171   2.238   7.340   4.180
 8070TIP3    H224172   2.208   7.270   4.051
 8071TIP3   OH224173   1.891   7.564   3.997
 8071TIP3    H124174   1.970   7.532   3.948
 8071TIP3    H224175   1.918   7.555   4.089
 8072TIP3   OH224176   1.374   7.069   3.862
 8072TIP3    H124177   1.342   6.990   3.912
 8072TIP3    H224178   1.437   7.028   3.800
 8073TIP3   OH224179   1.841   7.476   4.293
 8073TIP3    H124180   1.805   7.558   4.254
 8073TIP3    H224181   1.924   7.510   4.331
 8074TIP3   OH224182   2.032   7.175   3.227
 8074TIP3    H124183   1.937   7.153   3.236
 8074TIP3    H224184   2.030   7.273   3.228
 8075TIP3   OH224185   2.142   7.404   3.382
 8075TIP3    H124186   2.238   7.408   3.367
 8075TIP3    H224187   2.106   7.465   3.316
 8076TIP3   OH224188   2.520   7.487   3.182
 8076TIP3    H124189   2.472   7.467   3.099
 8076TIP3    H224190   2.579   7.559   3.154
 8077TIP3   OH224191   1.364   7.310   4.658
 8077TIP3    H124192   1.269   7.306   4.676
 8077TIP3    H224193   1.400   7.264   4.736
 8078TIP3   OH224194   2.189   7.392   4.349
 8078TIP3    H124195   2.278   7.425   4.370
 8078TIP3    H224196   2.186   7.307   4.400
 8079TIP3   OH224197   2.083   7.127   3.508
 8079TIP3    H124198   2.072   7.155   3.415
 8079TIP3    H224199   2.118   7.209   3.548
 8080TIP3   OH224200   1.767   7.296   3.615
 8080TIP3    H124201   1.799   7.385   3.592
 8080TIP3    H224202   1.775   7.297   3.713
 8081TIP3   OH224203   2.046   7.626   4.457
 8081TIP3    H124204   2.059   7.611   4.552
 8081TIP3    H224205   2.102   7.556   4.419
 8082TIP3   OH224206   1.913   7.030   3.711
 8082TIP3    H124207   1.898   7.108   3.767
 8082TIP3    H224208   1.975   7.067   3.644
 8083TIP3   OH224209   1.430   7.037   3.496
 8083TIP3    H124210   1.446   7.132   3.515
 8083TIP3    H224211   1.522   7.004   3.510
 8084TIP3   OH224212   2.682   7.515   4.420
 8084TIP3    H124213   2.584   7.518   4.421
 8084TIP3    H224214   2.696   7.506   4.325
 8085TIP3   OH224215   0.954   7.244   3.353
 8085TIP3    H124216   1.007   7.324   3.347
 8085TIP3    H224217   1.000   7.187   3.289
 8086TIP3   OH224218   1.380   6.948   4.260
 8086TIP3    H124219   1.348   6.911   4.175
 8086TIP3    H224220   1.371   6.872   4.321
 8087TIP3   OH224221   1.783   7.492   4.697
 8087TIP3    H124222   1.794   7.408   4.647
 8087TIP3    H224223   1.727   7.542   4.637
 8088TIP3   OH224224   1.783   7.301   4.501
 8088TIP3    H124225   1.804   7.354   4.421
 8088TIP3    H224226   1.690   7.277   4.485
 8089TIP3   OH224227   2.415   7.818   4.664
 8089TIP3    H124228   2.378   7.728   4.670
 8089TIP3    H224229   2.503   7.805   4.703
 8090TIP3   OH224230   1.654   7.635   4.902
 8090TIP3    H124231   1.583   7.577   4.936
 8090TIP3    H224232   1.693   7.580   4.832
 8091TIP3   OH224233   1.918   7.068   4.561
 8091TIP3    H124234   1.867   7.149   4.540
 8091TIP3    H224235   1.850   6.999   4.551
 8092TIP3   OH224236   2.040   7.567   4.766
 8092TIP3    H124237   2.036   7.552   4.863
 8092TIP3    H224238   1.950   7.537   4.743
 8093TIP3   OH224239   2.286   7.548   4.645
 8093TIP3    H124240   2.205   7.540   4.699
 8093TIP3    H224241   2.352   7.497   4.697
 8094TIP3   OH224242   2.513   7.469   4.781
 8094TIP3    H124243   2.525   7.373   4.797
 8094TIP3    H224244   2.509   7.506   4.871
 8095TIP3   OH224245   1.499   7.406   4.956
 8095TIP3    H124246   1.501   7.310   4.938
 8095TIP3    H224247   1.528   7.407   5.049
 8096TIP3   OH224248   2.011   7.089   4.819
 8096TIP3    H124249   2.076   7.016   4.814
 8096TIP3    H224250   1.970   7.080   4.730
 8097TIP3   OH224251   2.076   7.305   4.974
 8097TIP3    H124252   2.055   7.231   4.912
 8097TIP3    H224253   1.994   7.359   4.969
 8098TIP3   OH224254   2.378   7.434   2.955
 8098TIP3    H124255   2.340   7.421   2.866
 8098TIP3    H224256   2.368   7.341   2.986
 8099TIP3   OH224257   2.322   7.169   2.967
 8099TIP3    H124258   2.398   7.130   3.013
 8099TIP3    H224259   2.251   7.103   2.979
 8100TIP3   OH224260   2.410   7.422   3.417
 8100TIP3    H124261   2.446   7.335   3.444
 8100TIP3    H224262   2.464   7.435   3.336
 8101TIP3   OH224263   2.561   7.574   3.900
 8101TIP3    H124264   2.613   7.631   3.841
 8101TIP3    H224265   2.502   7.638   3.941
 8102TIP3   OH224266   1.225   7.451   4.928
 8102TIP3    H124267   1.322   7.457   4.943
 8102TIP3    H224268   1.205   7.368   4.976
 8103TIP3   OH224269   3.067   7.335   4.695
 8103TIP3    H124270   3.128   7.271   4.654
 8103TIP3    H224271   3.036   7.386   4.618
 8104TIP3   OH224272   2.496   7.167   3.453
 8104TIP3    H124273   2.543   7.151   3.537
 8104TIP3    H224274   2.432   7.094   3.452
 8105TIP3   OH224275   1.190   7.150   4.257
 8105TIP3    H124276   1.254   7.079   4.276
 8105TIP3    H224277   1.249   7.227   4.259
 8106TIP3   OH224278   2.935   7.464   4.496
 8106TIP3    H124279   2.843   7.497   4.503
 8106TIP3    H224280   2.917   7.385   4.441
 8107TIP3   OH224281   2.571   7.108   3.082
 8107TIP3    H124282   2.614   7.037   3.030
 8107TIP3    H224283   2.638   7.178   3.081
 8108TIP3   OH224284   0.969   6.931   3.831
 8108TIP3    H124285   0.889   6.916   3.885
 8108TIP3    H224286   0.930   6.972   3.753
 8109TIP3   OH224287   1.206   7.012   4.659
 8109TIP3    H124288   1.154   7.007   4.741
 8109TIP3    H224289   1.138   7.050   4.598
 8110TIP3   OH224290   2.840   7.232   4.380
 8110TIP3    H124291   2.750   7.230   4.345
 8110TIP3    H224292   2.869   7.139   4.368
 8111TIP3   OH224293   2.046   7.151   4.005
 8111TIP3    H124294   2.001   7.078   4.051
 8111TIP3    H224295   2.118   7.105   3.958
 8112TIP3   OH224296   2.560   7.027   3.899
 8112TIP3    H124297   2.597   7.083   3.827
 8112TIP3    H224298   2.465   7.051   3.896
 8113TIP3   OH224299   2.660   7.134   3.668
 8113TIP3    H124300   2.734   7.082   3.630
 8113TIP3    H224301   2.691   7.226   3.651
 8114TIP3   OH224302   1.287   6.857   4.009
 8114TIP3    H124303   1.197   6.818   4.018
 8114TIP3    H224304   1.340   6.774   4.008
 8115TIP3   OH224305   1.073   6.728   3.665
 8115TIP3    H124306   1.109   6.785   3.595
 8115TIP3    H224307   1.050   6.792   3.735
 8116TIP3   OH224308   1.729   6.895   3.897
 8116TIP3    H124309   1.787   6.940   3.834
 8116TIP3    H224310   1.762   6.929   3.982
 8117TIP3   OH224311   2.275   7.039   3.878
 8117TIP3    H124312   2.280   6.997   3.791
 8117TIP3    H224313   2.264   6.961   3.936
 8118TIP3   OH224314   2.307   6.963   3.441
 8118TIP3    H124315   2.222   7.007   3.458
 8118TIP3    H224316   2.293   6.877   3.487
 8119TIP3   OH224317   1.201   6.895   3.427
 8119TIP3    H124318   1.242   6.824   3.372
 8119TIP3    H224319   1.282   6.942   3.458
 8120TIP3   OH224320   1.708   7.048   3.522
 8120TIP3    H124321   1.767   6.999   3.581
 8120TIP3    H224322   1.731   7.139   3.551
 8121TIP3   OH224323   1.498   7.133   4.904
 8121TIP3    H124324   1.459   7.064   4.961
 8121TIP3    H224325   1.591   7.133   4.935
 8122TIP3   OH224326   1.748   7.136   5.024
 8122TIP3    H124327   1.833   7.105   4.988
 8122TIP3    H224328   1.731   7.069   5.093
 8123TIP3   OH224329   2.573   7.201   4.811
 8123TIP3    H124330   2.590   7.169   4.903
 8123TIP3    H224331   2.662   7.195   4.771
 8124TIP3   OH224332   4.592   7.651   3.503
 8124TIP3    H124333   4.613   7.737   3.544
 8124TIP3    H224334   4.609   7.668   3.409
 8125TIP3   OH224335   4.007   7.851   3.522
 8125TIP3    H124336   4.049   7.772   3.561
 8125TIP3    H224337   3.973   7.812   3.440
 8126TIP3   OH224338   3.330   7.498   3.497
 8126TIP3    H124339   3.311   7.556   3.421
 8126TIP3    H224340   3.282   7.419   3.468
 8127TIP3   OH224341   4.018   7.582   3.133
 8127TIP3    H124342   4.102   7.582   3.186
 8127TIP3    H224343   4.049   7.616   3.047
 8128TIP3   OH224344   2.922   7.687   3.603
 8128TIP3    H124345   2.992   7.710   3.665
 8128TIP3    H224346   2.967   7.631   3.538
 8129TIP3   OH224347   4.674   7.863   3.673
 8129TIP3    H124348   4.653   7.950   3.632
 8129TIP3    H224349   4.673   7.890   3.766
 8130TIP3   OH224350   3.323   7.490   3.936
 8130TIP3    H124351   3.267   7.527   3.864
 8130TIP3    H224352   3.265   7.506   4.014
 8131TIP3   OH224353   4.233   7.607   3.294
 8131TIP3    H124354   4.218   7.564   3.379
 8131TIP3    H224355   4.290   7.683   3.321
 8132TIP3   OH224356   3.191   7.598   3.723
 8132TIP3    H124357   3.198   7.695   3.723
 8132TIP3    H224358   3.249   7.574   3.647
 8133TIP3   OH224359   4.379   7.560   3.659
 8133TIP3    H124360   4.295   7.596   3.626
 8133TIP3    H224361   4.443   7.595   3.594
 8134TIP3   OH224362   3.672   7.209   3.644
 8134TIP3    H124363   3.658   7.115   3.664
 8134TIP3    H224364   3.597   7.250   3.692
 8135TIP3   OH224365   4.309   7.155   2.748
 8135TIP3    H124366   4.228   7.178   2.797
 8135TIP3    H224367   4.326   7.238   2.699
 8136TIP3   OH224368   4.470   8.057   4.006
 8136TIP3    H124369   4.426   8.026   3.924
 8136TIP3    H224370   4.509   7.973   4.036
 8137TIP3   OH224371   3.438   7.288   3.777
 8137TIP3    H124372   3.350   7.258   3.747
 8137TIP3    H224373   3.413   7.369   3.825
 8138TIP3   OH224374   3.974   7.406   3.969
 8138TIP3    H124375   4.045   7.375   4.030
 8138TIP3    H224376   3.892   7.381   4.017
 8139TIP3   OH224377   4.201   7.807   3.891
 8139TIP3    H124378   4.160   7.806   3.980
 8139TIP3    H224379   4.181   7.897   3.861
 8140TIP3   OH224380   3.573   7.339   2.744
 8140TIP3    H124381   3.547   7.331   2.838
 8140TIP3    H224382   3.540   7.254   2.711
 8141TIP3   OH224383   3.233   7.625   3.278
 8141TIP3    H124384   3.140   7.596   3.277
 8141TIP3    H224385   3.259   7.604   3.186
 8142TIP3   OH224386   3.879   7.749   3.302
 8142TIP3    H124387   3.886   7.808   3.225
 8142TIP3    H224388   3.915   7.667   3.261
 8143TIP3   OH224389   3.192   7.847   4.055
 8143TIP3    H124390   3.240   7.847   4.139
 8143TIP3    H224391   3.169   7.752   4.048
 8144TIP3   OH224392   3.234   7.316   2.711
 8144TIP3    H124393   3.232   7.310   2.808
 8144TIP3    H224394   3.157   7.372   2.693
 8145TIP3   OH224395   2.784   7.357   3.573
 8145TIP3    H124396   2.854   7.388   3.635
 8145TIP3    H224397   2.833   7.306   3.506
 8146TIP3   OH224398   2.754   7.331   3.095
 8146TIP3    H124399   2.806   7.358   3.017
 8146TIP3    H224400   2.715   7.417   3.118
 8147TIP3   OH224401   3.590   7.485   3.375
 8147TIP3    H124402   3.513   7.489   3.435
 8147TIP3    H224403   3.664   7.498   3.437
 8148TIP3   OH224404   2.982   7.533   3.365
 8148TIP3    H124405   2.894   7.493   3.370
 8148TIP3    H224406   3.040   7.454   3.362
 8149TIP3   OH224407   3.300   7.555   3.020
 8149TIP3    H124408   3.397   7.558   3.030
 8149TIP3    H224409   3.279   7.648   2.999
 8150TIP3   OH224410   4.072   7.585   3.580
 8150TIP3    H124411   4.032   7.597   3.668
 8150TIP3    H224412   4.006   7.526   3.538
 8151TIP3   OH224413   3.689   7.821   3.486
 8151TIP3    H124414   3.764   7.791   3.432
 8151TIP3    H224415   3.722   7.809   3.576
 8152TIP3   OH224416   3.171   7.326   3.348
 8152TIP3    H124417   3.141   7.246   3.396
 8152TIP3    H224418   3.224   7.288   3.276
 8153TIP3   OH224419   3.637   7.729   3.783
 8153TIP3    H124420   3.601   7.811   3.742
 8153TIP3    H224421   3.721   7.763   3.818
 8154TIP3   OH224422   3.829   7.432   2.714
 8154TIP3    H124423   3.733   7.412   2.722
 8154TIP3    H224424   3.830   7.529   2.717
 8155TIP3   OH224425   3.940   7.658   2.866
 8155TIP3    H124426   4.036   7.667   2.856
 8155TIP3    H224427   3.905   7.730   2.811
 8156TIP3   OH224428   4.321   7.741   2.667
 8156TIP3    H124429   4.269   7.720   2.586
 8156TIP3    H224430   4.345   7.834   2.648
 8157TIP3   OH224431   3.158   7.569   4.145
 8157TIP3    H124432   3.061   7.567   4.158
 8157TIP3    H224433   3.188   7.516   4.220
 8158TIP3   OH224434   3.982   7.650   3.838
 8158TIP3    H124435   4.073   7.683   3.855
 8158TIP3    H224436   3.981   7.565   3.888
 8159TIP3   OH224437   3.879   7.383   2.994
 8159TIP3    H124438   3.868   7.411   2.901
 8159TIP3    H224439   3.915   7.465   3.034
 8160TIP3   OH224440   3.565   7.553   3.101
 8160TIP3    H124441   3.594   7.643   3.075
 8160TIP3    H224442   3.573   7.558   3.199
 8161TIP3   OH224443   3.843   7.882   3.944
 8161TIP3    H124444   3.863   7.866   4.038
 8161TIP3    H224445   3.897   7.813   3.901
 8162TIP3   OH224446   3.709   7.287   3.197
 8162TIP3    H124447   3.690   7.366   3.251
 8162TIP3    H224448   3.771   7.324   3.131
 8163TIP3   OH224449   3.226   7.292   2.984
 8163TIP3    H124450   3.238   7.388   3.002
 8163TIP3    H224451   3.319   7.263   2.996
 8164TIP3   OH224452   4.478   7.772   3.907
 8164TIP3    H124453   4.380   7.774   3.906
 8164TIP3    H224454   4.494   7.765   3.812
 8165TIP3   OH224455   2.788   7.458   2.849
 8165TIP3    H124456   2.800   7.551   2.821
 8165TIP3    H224457   2.692   7.450   2.846
 8166TIP3   OH224458   3.174   7.207   3.747
 8166TIP3    H124459   3.143   7.172   3.661
 8166TIP3    H224460   3.164   7.129   3.806
 8167TIP3   OH224461   3.576   7.749   4.187
 8167TIP3    H124462   3.588   7.666   4.136
 8167TIP3    H224463   3.533   7.805   4.121
 8168TIP3   OH224464   3.579   7.558   3.991
 8168TIP3    H124465   3.600   7.610   3.910
 8168TIP3    H224466   3.485   7.534   3.973
 8169TIP3   OH224467   4.209   8.075   4.149
 8169TIP3    H124468   4.174   7.985   4.156
 8169TIP3    H224469   4.301   8.062   4.178
 8170TIP3   OH224470   3.443   7.891   4.385
 8170TIP3    H124471   3.381   7.823   4.418
 8170TIP3    H224472   3.490   7.842   4.315
 8171TIP3   OH224473   3.715   7.326   4.049
 8171TIP3    H124474   3.663   7.406   4.027
 8171TIP3    H224475   3.647   7.256   4.037
 8172TIP3   OH224476   3.835   7.828   4.255
 8172TIP3    H124477   3.835   7.811   4.351
 8172TIP3    H224478   3.745   7.795   4.234
 8173TIP3   OH224479   4.082   7.805   4.131
 8173TIP3    H124480   4.002   7.798   4.188
 8173TIP3    H224481   4.149   7.756   4.183
 8174TIP3   OH224482   4.306   7.725   4.268
 8174TIP3    H124483   4.320   7.629   4.284
 8174TIP3    H224484   4.304   7.763   4.358
 8175TIP3   OH224485   3.293   7.665   4.450
 8175TIP3    H124486   3.297   7.571   4.424
 8175TIP3    H224487   3.327   7.662   4.541
 8176TIP3   OH224488   3.805   7.344   4.307
 8176TIP3    H124489   3.871   7.273   4.302
 8176TIP3    H224490   3.766   7.337   4.218
 8177TIP3   OH224491   3.871   7.560   4.462
 8177TIP3    H124492   3.851   7.486   4.400
 8177TIP3    H224493   3.789   7.614   4.456
 8178TIP3   OH224494   4.184   7.679   2.441
 8178TIP3    H124495   4.144   7.673   2.352
 8178TIP3    H224496   4.170   7.586   2.469
 8179TIP3   OH224497   4.119   7.416   2.446
 8179TIP3    H124498   4.193   7.379   2.499
 8179TIP3    H224499   4.046   7.355   2.465
 8180TIP3   OH224500   4.208   7.677   2.902
 8180TIP3    H124501   4.244   7.589   2.928
 8180TIP3    H224502   4.263   7.691   2.821
 8181TIP3   OH224503   4.358   7.832   3.388
 8181TIP3    H124504   4.413   7.880   3.326
 8181TIP3    H224505   4.299   7.902   3.419
 8182TIP3   OH224506   3.025   7.718   4.434
 8182TIP3    H124507   3.122   7.708   4.432
 8182TIP3    H224508   2.999   7.629   4.467
 8183TIP3   OH224509   4.862   7.591   4.182
 8183TIP3    H124510   4.924   7.527   4.141
 8183TIP3    H224511   4.831   7.642   4.104
 8184TIP3   OH224512   4.295   7.422   2.939
 8184TIP3    H124513   4.340   7.406   3.024
 8184TIP3    H224514   4.229   7.350   2.938
 8185TIP3   OH224515   2.984   7.410   3.756
 8185TIP3    H124516   3.049   7.338   3.767
 8185TIP3    H224517   3.044   7.487   3.748
 8186TIP3   OH224518   4.731   7.721   3.983
 8186TIP3    H124519   4.639   7.754   3.988
 8186TIP3    H224520   4.714   7.642   3.927
 8187TIP3   OH224521   4.367   7.364   2.571
 8187TIP3    H124522   4.410   7.295   2.517
 8187TIP3    H224523   4.431   7.437   2.569
 8188TIP3   OH224524   2.775   7.194   3.328
 8188TIP3    H124525   2.684   7.189   3.360
 8188TIP3    H224526   2.766   7.251   3.249
 8189TIP3   OH224527   3.001   7.272   4.149
 8189TIP3    H124528   2.947   7.267   4.229
 8189TIP3    H224529   2.935   7.307   4.085
 8190TIP3   OH224530   4.636   7.489   3.867
 8190TIP3    H124531   4.546   7.488   3.830
 8190TIP3    H224532   4.664   7.396   3.855
 8191TIP3   OH224533   3.845   7.409   3.496
 8191TIP3    H124534   3.798   7.335   3.538
 8191TIP3    H224535   3.915   7.364   3.445
 8192TIP3   OH224536   4.356   7.285   3.388
 8192TIP3    H124537   4.394   7.339   3.315
 8192TIP3    H224538   4.261   7.308   3.383
 8193TIP3   OH224539   4.456   7.387   3.157
 8193TIP3    H124540   4.530   7.336   3.117
 8193TIP3    H224541   4.486   7.479   3.140
 8194TIP3   OH224542   3.083   7.114   3.498
 8194TIP3    H124543   2.991   7.080   3.504
 8194TIP3    H224544   3.133   7.030   3.495
 8195TIP3   OH224545   2.871   6.988   3.149
 8195TIP3    H124546   2.903   7.043   3.075
 8195TIP3    H224547   2.847   7.055   3.216
 8196TIP3   OH224548   3.528   7.149   3.385
 8196TIP3    H124549   3.583   7.194   3.319
 8196TIP3    H224550   3.561   7.187   3.468
 8197TIP3   OH224551   4.071   7.296   3.365
 8197TIP3    H124552   4.074   7.257   3.277
 8197TIP3    H224553   4.060   7.217   3.422
 8198TIP3   OH224554   4.104   7.220   2.928
 8198TIP3    H124555   4.018   7.265   2.944
 8198TIP3    H224556   4.088   7.134   2.973
 8199TIP3   OH224557   2.991   7.142   2.914
 8199TIP3    H124558   3.037   7.080   2.854
 8199TIP3    H224559   3.066   7.195   2.948
 8200TIP3   OH224560   3.504   7.305   3.009
 8200TIP3    H124561   3.565   7.256   3.067
 8200TIP3    H224562   3.527   7.397   3.037
 8201TIP3   OH224563   3.292   7.393   4.394
 8201TIP3    H124564   3.256   7.321   4.449
 8201TIP3    H224565   3.386   7.391   4.422
 8202TIP3   OH224566   3.544   7.395   4.511
 8202TIP3    H124567   3.628   7.368   4.472
 8202TIP3    H224568   3.531   7.325   4.579
 8203TIP3   OH224569   4.369   7.458   4.298
 8203TIP3    H124570   4.387   7.426   4.389
 8203TIP3    H224571   4.459   7.452   4.258
 8204TIP3   OH224572   5.796   8.109   3.010
 8204TIP3    H124573   5.839   8.035   3.055
 8204TIP3    H224574   5.765   8.065   2.929
 8205TIP3   OH224575   5.129   7.753   2.982
 8205TIP3    H124576   5.107   7.812   2.907
 8205TIP3    H224577   5.078   7.675   2.955
 8206TIP3   OH224578   5.808   7.837   2.612
 8206TIP3    H124579   5.892   7.835   2.665
 8206TIP3    H224580   5.837   7.875   2.527
 8207TIP3   OH224581   4.723   7.925   3.109
 8207TIP3    H124582   4.790   7.979   3.153
 8207TIP3    H224583   4.758   7.915   3.019
 8208TIP3   OH224584   5.120   7.744   3.426
 8208TIP3    H124585   5.067   7.782   3.352
 8208TIP3    H224586   5.061   7.763   3.502
 8209TIP3   OH224587   6.029   7.839   2.773
 8209TIP3    H124588   5.993   7.828   2.863
 8209TIP3    H224589   6.106   7.896   2.788
 8210TIP3   OH224590   4.997   7.853   3.213
 8210TIP3    H124591   4.992   7.950   3.208
 8210TIP3    H224592   5.050   7.831   3.134
 8211TIP3   OH224593   6.172   7.808   3.175
 8211TIP3    H124594   6.099   7.872   3.167
 8211TIP3    H224595   6.211   7.809   3.085
 8212TIP3   OH224596   5.470   7.467   3.133
 8212TIP3    H124597   5.453   7.373   3.151
 8212TIP3    H224598   5.394   7.508   3.180
 8213TIP3   OH224599   6.091   7.435   2.236
 8213TIP3    H124600   6.010   7.438   2.291
 8213TIP3    H224601   6.112   7.528   2.225
 8214TIP3   OH224602   5.236   7.545   3.263
 8214TIP3    H124603   5.147   7.515   3.234
 8214TIP3    H224604   5.210   7.626   3.311
 8215TIP3   OH224605   5.772   7.661   3.456
 8215TIP3    H124606   5.840   7.632   3.519
 8215TIP3    H224607   5.688   7.640   3.503
 8216TIP3   OH224608   5.999   8.065   3.358
 8216TIP3    H124609   5.971   8.068   3.451
 8216TIP3    H224610   5.990   8.159   3.333
 8217TIP3   OH224611   5.380   7.589   2.233
 8217TIP3    H124612   5.348   7.584   2.325
 8217TIP3    H224613   5.337   7.509   2.197
 8218TIP3   OH224614   5.030   7.879   2.765
 8218TIP3    H124615   4.937   7.851   2.769
 8218TIP3    H224616   5.052   7.859   2.671
 8219TIP3   OH224617   5.676   8.003   2.789
 8219TIP3    H124618   5.668   8.065   2.715
 8219TIP3    H224619   5.708   7.923   2.743
 8220TIP3   OH224620   4.987   8.105   3.543
 8220TIP3    H124621   5.038   8.102   3.625
 8220TIP3    H224622   4.965   8.011   3.533
 8221TIP3   OH224623   5.036   7.576   2.199
 8221TIP3    H124624   5.026   7.568   2.296
 8221TIP3    H224625   4.958   7.630   2.177
 8222TIP3   OH224626   4.578   7.609   3.065
 8222TIP3    H124627   4.647   7.647   3.124
 8222TIP3    H224628   4.629   7.568   2.994
 8223TIP3   OH224629   4.545   7.590   2.580
 8223TIP3    H124630   4.606   7.627   2.515
 8223TIP3    H224631   4.495   7.670   2.606
 8224TIP3   OH224632   5.385   7.737   2.861
 8224TIP3    H124633   5.304   7.743   2.917
 8224TIP3    H224634   5.454   7.761   2.926
 8225TIP3   OH224635   4.779   7.791   2.843
 8225TIP3    H124636   4.690   7.757   2.855
 8225TIP3    H224637   4.833   7.710   2.846
 8226TIP3   OH224638   5.096   7.810   2.504
 8226TIP3    H124639   5.193   7.818   2.513
 8226TIP3    H224640   5.071   7.903   2.485
 8227TIP3   OH224641   5.864   7.839   3.052
 8227TIP3    H124642   5.836   7.853   3.145
 8227TIP3    H224643   5.790   7.781   3.023
 8228TIP3   OH224644   5.482   8.074   2.973
 8228TIP3    H124645   5.562   8.046   2.925
 8228TIP3    H224646   5.512   8.075   3.064
 8229TIP3   OH224647   4.969   7.580   2.835
 8229TIP3    H124648   4.937   7.501   2.884
 8229TIP3    H224649   5.018   7.540   2.762
 8230TIP3   OH224650   5.433   7.988   3.271
 8230TIP3    H124651   5.398   8.068   3.227
 8230TIP3    H224652   5.513   8.025   3.312
 8231TIP3   OH224653   5.625   7.698   2.210
 8231TIP3    H124654   5.534   7.659   2.218
 8231TIP3    H224655   5.602   7.790   2.186
 8232TIP3   OH224656   5.796   7.953   2.358
 8232TIP3    H124657   5.850   7.908   2.292
 8232TIP3    H224658   5.710   7.957   2.313
 8233TIP3   OH224659   4.954   7.825   3.633
 8233TIP3    H124660   4.857   7.822   3.643
 8233TIP3    H224661   4.984   7.772   3.708
 8234TIP3   OH224662   5.788   7.901   3.312
 8234TIP3    H124663   5.873   7.945   3.335
 8234TIP3    H224664   5.789   7.821   3.369
 8235TIP3   OH224665   5.675   7.634   2.481
 8235TIP3    H124666   5.664   7.664   2.388
 8235TIP3    H224667   5.712   7.715   2.524
 8236TIP3   OH224668   5.367   7.811   2.587
 8236TIP3    H124669   5.373   7.906   2.563
 8236TIP3    H224670   5.372   7.815   2.685
 8237TIP3   OH224671   5.633   8.130   3.424
 8237TIP3    H124672   5.659   8.126   3.518
 8237TIP3    H224673   5.695   8.067   3.384
 8238TIP3   OH224674   5.505   7.544   2.687
 8238TIP3    H124675   5.481   7.623   2.741
 8238TIP3    H224676   5.565   7.584   2.621
 8239TIP3   OH224677   5.022   7.548   2.472
 8239TIP3    H124678   5.032   7.645   2.489
 8239TIP3    H224679   5.116   7.521   2.483
 8240TIP3   OH224680   4.575   7.718   2.314
 8240TIP3    H124681   4.590   7.814   2.307
 8240TIP3    H224682   4.489   7.716   2.358
 8241TIP3   OH224683   4.974   7.463   3.232
 8241TIP3    H124684   4.939   7.429   3.147
 8241TIP3    H224685   4.960   7.386   3.291
 8242TIP3   OH224686   5.373   8.007   3.673
 8242TIP3    H124687   5.383   7.924   3.621
 8242TIP3    H224688   5.333   8.065   3.607
 8243TIP3   OH224689   5.376   7.815   3.477
 8243TIP3    H124690   5.397   7.867   3.396
 8243TIP3    H224691   5.282   7.791   3.460
 8244TIP3   OH224692   6.040   8.338   3.651
 8244TIP3    H124693   5.997   8.251   3.645
 8244TIP3    H224694   6.099   8.326   3.727
 8245TIP3   OH224695   5.241   8.148   3.873
 8245TIP3    H124696   5.178   8.080   3.906
 8245TIP3    H224697   5.286   8.099   3.801
 8246TIP3   OH224698   5.510   7.582   3.536
 8246TIP3    H124699   5.460   7.663   3.513
 8246TIP3    H224700   5.441   7.513   3.524
 8247TIP3   OH224701   5.633   8.085   3.742
 8247TIP3    H124702   5.629   8.068   3.838
 8247TIP3    H224703   5.544   8.051   3.717
 8248TIP3   OH224704   5.881   8.062   3.610
 8248TIP3    H124705   5.802   8.058   3.668
 8248TIP3    H224706   5.949   8.017   3.665
 8249TIP3   OH224707   6.107   7.987   3.754
 8249TIP3    H124708   6.119   7.891   3.771
 8249TIP3    H224709   6.106   8.024   3.845
 8250TIP3   OH224710   5.088   7.922   3.936
 8250TIP3    H124711   5.093   7.828   3.910
 8250TIP3    H224712   5.122   7.918   4.027
 8251TIP3   OH224713   5.601   7.600   3.794
 8251TIP3    H124714   5.668   7.528   3.788
 8251TIP3    H224715   5.562   7.593   3.704
 8252TIP3   OH224716   5.665   7.816   3.951
 8252TIP3    H124717   5.646   7.743   3.887
 8252TIP3    H224718   5.586   7.872   3.942
 8253TIP3   OH224719   5.907   7.700   1.961
 8253TIP3    H124720   5.962   7.635   2.005
 8253TIP3    H224721   5.828   7.647   1.939
 8254TIP3   OH224722   4.820   7.975   3.921
 8254TIP3    H124723   4.917   7.965   3.919
 8254TIP3    H224724   4.795   7.886   3.954
 8255TIP3   OH224725   6.023   7.686   2.442
 8255TIP3    H124726   6.022   7.691   2.539
 8255TIP3    H224727   5.964   7.611   2.426
 8256TIP3   OH224728   4.780   7.663   3.250
 8256TIP3    H124729   4.853   7.598   3.255
 8256TIP3    H224730   4.829   7.745   3.232
 8257TIP3   OH224731   4.572   7.451   2.813
 8257TIP3    H124732   4.480   7.445   2.846
 8257TIP3    H224733   4.561   7.509   2.734
 8258TIP3   OH224734   4.798   7.527   3.635
 8258TIP3    H124735   4.743   7.524   3.715
 8258TIP3    H224736   4.733   7.563   3.571
 8259TIP3   OH224737   6.417   7.746   3.357
 8259TIP3    H124738   6.335   7.757   3.306
 8259TIP3    H224739   6.448   7.659   3.330
 8260TIP3   OH224740   5.644   7.666   2.985
 8260TIP3    H124741   5.592   7.596   3.029
 8260TIP3    H224742   5.710   7.616   2.934
 8261TIP3   OH224743   6.155   7.532   2.861
 8261TIP3    H124744   6.193   7.622   2.856
 8261TIP3    H224745   6.059   7.551   2.861
 8262TIP3   OH224746   4.879   7.370   2.985
 8262TIP3    H124747   4.787   7.337   2.990
 8262TIP3    H224748   4.928   7.285   2.982
 8263TIP3   OH224749   4.671   7.245   2.637
 8263TIP3    H124750   4.698   7.301   2.562
 8263TIP3    H224751   4.642   7.311   2.703
 8264TIP3   OH224752   5.326   7.403   2.871
 8264TIP3    H124753   5.382   7.453   2.809
 8264TIP3    H224754   5.349   7.445   2.955
 8265TIP3   OH224755   5.872   7.549   2.849
 8265TIP3    H124756   5.859   7.507   2.764
 8265TIP3    H224757   5.858   7.473   2.911
 8266TIP3   OH224758   5.876   7.460   2.409
 8266TIP3    H124759   5.789   7.500   2.431
 8266TIP3    H224760   5.869   7.374   2.456
 8267TIP3   OH224761   4.787   7.397   2.402
 8267TIP3    H124762   4.833   7.338   2.340
 8267TIP3    H224763   4.861   7.452   2.436
 8268TIP3   OH224764   5.302   7.564   2.496
 8268TIP3    H124765   5.359   7.515   2.557
 8268TIP3    H224766   5.325   7.655   2.523
 8269TIP3   OH224767   5.088   7.648   3.880
 8269TIP3    H124768   5.053   7.577   3.936
 8269TIP3    H224769   5.182   7.648   3.908
 8270TIP3   OH224770   5.339   7.652   3.998
 8270TIP3    H124771   5.424   7.625   3.958
 8270TIP3    H224772   5.327   7.582   4.066
 8271TIP3   OH224773   6.163   7.715   3.785
 8271TIP3    H124774   6.183   7.684   3.876
 8271TIP3    H224775   6.251   7.711   3.742
 8272TIP3   OH224776   2.415   1.198   6.555
 8272TIP3    H124777   2.423   1.294   6.535
 8272TIP3    H224778   2.506   1.167   6.541
 8273TIP3   OH224779   1.723   1.527   7.018
 8273TIP3    H124780   1.679   1.505   6.934
 8273TIP3    H224781   1.691   1.618   7.034
 8274TIP3   OH224782   1.925   1.418   6.670
 8274TIP3    H124783   1.984   1.348   6.636
 8274TIP3    H224784   1.957   1.428   6.762
 8275TIP3   OH224785   1.977   1.468   6.939
 8275TIP3    H124786   1.889   1.478   6.982
 8275TIP3    H224787   2.036   1.457   7.015
 8276TIP3   OH224788   2.170   0.667   6.683
 8276TIP3    H124789   2.145   0.608   6.610
 8276TIP3    H224790   2.263   0.687   6.661
 8277TIP3   OH224791   1.821   0.959   6.913
 8277TIP3    H124792   1.771   1.041   6.931
 8277TIP3    H224793   1.798   0.904   6.990
 8278TIP3   OH224794   2.668   0.438   6.875
 8278TIP3    H124795   2.598   0.414   6.809
 8278TIP3    H224796   2.662   0.535   6.866
 8279TIP3   OH224797   2.356   1.262   6.820
 8279TIP3    H124798   2.316   1.186   6.864
 8279TIP3    H224799   2.367   1.229   6.729
 8280TIP3   OH224800   2.103   1.007   6.711
 8280TIP3    H124801   2.164   0.983   6.784
 8280TIP3    H224802   2.021   0.966   6.743
 8281TIP3   OH224803   2.445   1.472   6.535
 8281TIP3    H124804   2.476   1.542   6.476
 8281TIP3    H224805   2.365   1.516   6.572
 8282TIP3   OH224806   2.277   0.951   6.913
 8282TIP3    H124807   2.241   0.892   6.980
 8282TIP3    H224808   2.372   0.927   6.915
 8283TIP3   OH224809   1.674   1.189   6.931
 8283TIP3    H124810   1.615   1.219   7.001
 8283TIP3    H224811   1.692   1.272   6.884
 8284TIP3   OH224812   1.635   1.181   6.627
 8284TIP3    H124813   1.611   1.126   6.703
 8284TIP3    H224814   1.706   1.126   6.588
 8285TIP3   OH224815   2.072   1.223   6.544
 8285TIP3    H124816   2.102   1.150   6.603
 8285TIP3    H224817   2.129   1.213   6.465
 8286TIP3   OH224818   1.771   0.916   6.654
 8286TIP3    H124819   1.785   0.933   6.750
 8286TIP3    H224820   1.792   0.820   6.653
 8287TIP3   OH224821   2.417   0.729   6.572
 8287TIP3    H124822   2.392   0.686   6.488
 8287TIP3    H224823   2.378   0.818   6.555
 8288TIP3   OH224824   1.387   1.443   6.808
 8288TIP3    H124825   1.483   1.445   6.793
 8288TIP3    H224826   1.355   1.504   6.739
 8289TIP3   OH224827   2.554   0.909   6.922
 8289TIP3    H124828   2.616   0.973   6.883
 8289TIP3    H224829   2.588   0.899   7.012
 8290TIP3   OH224830   2.616   0.696   6.755
 8290TIP3    H124831   2.544   0.692   6.688
 8290TIP3    H224832   2.580   0.766   6.814
 8291TIP3   OH224833   2.470   0.392   6.693
 8291TIP3    H124834   2.407   0.424   6.627
 8291TIP3    H224835   2.428   0.310   6.723
 8292TIP3   OH224836   2.222   1.587   7.077
 8292TIP3    H124837   2.279   1.554   7.006
 8292TIP3    H224838   2.277   1.657   7.114
 8293TIP3   OH224839   1.665   1.418   6.765
 8293TIP3    H124840   1.754   1.439   6.728
 8293TIP3    H224841   1.640   1.347   6.703
 8294TIP3   OH224842   2.390   1.533   6.859
 8294TIP3    H124843   2.382   1.435   6.851
 8294TIP3    H224844   2.337   1.562   6.782
 8295TIP3   OH224845   3.872   1.051   6.813
 8295TIP3    H124846   3.849   1.144   6.794
 8295TIP3    H224847   3.795   1.007   6.774
 8296TIP3   OH224848   3.898   1.058   7.198
 8296TIP3    H124849   3.921   1.014   7.281
 8296TIP3    H224850   3.840   0.994   7.154
 8297TIP3   OH224851   4.120   1.356   6.878
 8297TIP3    H124852   4.107   1.290   6.947
 8297TIP3    H224853   4.151   1.433   6.929
 8298TIP3   OH224854   3.770   1.820   6.893
 8298TIP3    H124855   3.812   1.747   6.842
 8298TIP3    H224856   3.757   1.780   6.979
 8299TIP3   OH224857   3.674   1.293   7.218
 8299TIP3    H124858   3.707   1.207   7.189
 8299TIP3    H224859   3.755   1.328   7.260
 8300TIP3   OH224860   4.075   0.777   7.258
 8300TIP3    H124861   4.119   0.691   7.270
 8300TIP3    H224862   4.061   0.780   7.162
 8301TIP3   OH224863   4.145   0.573   6.881
 8301TIP3    H124864   4.215   0.508   6.898
 8301TIP3    H224865   4.132   0.559   6.786
 8302TIP3   OH224866   3.499   0.844   7.107
 8302TIP3    H124867   3.590   0.820   7.089
 8302TIP3    H224868   3.448   0.772   7.065
 8303TIP3   OH224869   4.735   0.805   7.449
 8303TIP3    H124870   4.667   0.827   7.382
 8303TIP3    H224871   4.687   0.830   7.531
 8304TIP3   OH224872   3.766   1.274   6.678
 8304TIP3    H124873   3.723   1.262   6.593
 8304TIP3    H224874   3.722   1.356   6.710
 8305TIP3   OH224875   2.742   1.084   6.801
 8305TIP3    H124876   2.703   1.106   6.714
 8305TIP3    H224877   2.773   1.170   6.833
 8306TIP3   OH224878   4.190   1.603   7.038
 8306TIP3    H124879   4.100   1.591   7.075
 8306TIP3    H224880   4.180   1.689   6.993
 8307TIP3   OH224881   3.888   1.645   6.713
 8307TIP3    H124882   3.938   1.562   6.694
 8307TIP3    H224883   3.951   1.710   6.674
 8308TIP3   OH224884   4.033   1.430   6.627
 8308TIP3    H124885   3.991   1.351   6.590
 8308TIP3    H224886   4.071   1.395   6.710
 8309TIP3   OH224887   4.419   1.522   7.378
 8309TIP3    H124888   4.414   1.442   7.321
 8309TIP3    H224889   4.404   1.594   7.313
 8310TIP3   OH224890   3.704   0.909   6.643
 8310TIP3    H124891   3.623   0.962   6.625
 8310TIP3    H224892   3.748   0.911   6.556
 8311TIP3   OH224893   3.664   0.693   6.364
 8311TIP3    H124894   3.728   0.752   6.409
 8311TIP3    H224895   3.725   0.641   6.307
 8312TIP3   OH224896   4.618   1.158   7.239
 8312TIP3    H124897   4.532   1.205   7.244
 8312TIP3    H224898   4.640   1.174   7.144
 8313TIP3   OH224899   4.052   0.990   6.614
 8313TIP3    H124900   3.999   1.013   6.693
 8313TIP3    H224901   4.139   0.969   6.656
 8314TIP3   OH224902   3.283   1.003   7.006
 8314TIP3    H124903   3.240   0.933   6.954
 8314TIP3    H224904   3.349   0.953   7.059
 8315TIP3   OH224905   3.421   1.412   7.174
 8315TIP3    H124906   3.399   1.359   7.097
 8315TIP3    H224907   3.509   1.374   7.198
 8316TIP3   OH224908   3.944   1.591   7.149
 8316TIP3    H124909   3.934   1.677   7.193
 8316TIP3    H224910   3.922   1.527   7.220
 8317TIP3   OH224911   3.888   0.855   6.438
 8317TIP3    H124912   3.948   0.916   6.487
 8317TIP3    H224913   3.916   0.873   6.345
 8318TIP3   OH224914   3.640   1.523   6.716
 8318TIP3    H124915   3.722   1.575   6.726
 8318TIP3    H224916   3.580   1.587   6.673
 8319TIP3   OH224917   3.156   0.823   6.818
 8319TIP3    H124918   3.084   0.869   6.771
 8319TIP3    H224919   3.111   0.742   6.845
 8320TIP3   OH224920   4.210   1.453   6.039
 8320TIP3    H124921   4.218   1.550   6.023
 8320TIP3    H224922   4.303   1.424   6.027
 8321TIP3   OH224923   4.661   1.856   7.427
 8321TIP3    H124924   4.656   1.760   7.442
 8321TIP3    H224925   4.576   1.885   7.468
 8322TIP3   OH224926   3.520   1.769   6.520
 8322TIP3    H124927   3.475   1.753   6.436
 8322TIP3    H224928   3.488   1.858   6.546
 8323TIP3   OH224929   2.955   1.624   6.910
 8323TIP3    H124930   3.011   1.609   6.989
 8323TIP3    H224931   2.907   1.539   6.904
 8324TIP3   OH224932   3.719   1.674   6.157
 8324TIP3    H124933   3.778   1.604   6.122
 8324TIP3    H224934   3.754   1.685   6.248
 8325TIP3   OH224935   3.771   1.722   6.427
 8325TIP3    H124936   3.683   1.731   6.469
 8325TIP3    H224937   3.823   1.686   6.501
 8326TIP3   OH224938   3.971   0.890   6.185
 8326TIP3    H124939   3.935   0.869   6.097
 8326TIP3    H224940   4.054   0.934   6.161
 8327TIP3   OH224941   3.347   0.639   7.016
 8327TIP3    H124942   3.260   0.600   7.029
 8327TIP3    H224943   3.374   0.592   6.934
 8328TIP3   OH224944   3.844   0.711   6.768
 8328TIP3    H124945   3.792   0.783   6.726
 8328TIP3    H224946   3.900   0.682   6.694
 8329TIP3   OH224947   3.997   0.765   6.992
 8329TIP3    H124948   3.935   0.783   6.918
 8329TIP3    H224949   4.054   0.698   6.948
 8330TIP3   OH224950   2.928   0.331   6.860
 8330TIP3    H124951   2.933   0.373   6.773
 8330TIP3    H224952   2.840   0.363   6.888
 8331TIP3   OH224953   3.674   0.436   7.140
 8331TIP3    H124954   3.590   0.385   7.147
 8331TIP3    H224955   3.644   0.521   7.177
 8332TIP3   OH224956   3.400   0.504   6.785
 8332TIP3    H124957   3.483   0.524   6.738
 8332TIP3    H224958   3.333   0.512   6.713
 8333TIP3   OH224959   3.226   0.529   6.582
 8333TIP3    H124960   3.149   0.490   6.537
 8333TIP3    H224961   3.275   0.566   6.505
 8334TIP3   OH224962   4.340   2.191   7.527
 8334TIP3    H124963   4.334   2.219   7.434
 8334TIP3    H224964   4.417   2.245   7.556
 8335TIP3   OH224965   3.802   0.770   7.182
 8335TIP3    H124966   3.863   0.773   7.106
 8335TIP3    H224967   3.866   0.774   7.255
 8336TIP3   OH224968   3.477   1.057   6.590
 8336TIP3    H124969   3.403   0.992   6.581
 8336TIP3    H224970   3.456   1.096   6.679
 8337TIP3   OH224971   4.381   1.294   7.220
 8337TIP3    H124972   4.403   1.347   7.140
 8337TIP3    H224973   4.293   1.259   7.197
 8338TIP3   OH224974   3.910   0.392   6.465
 8338TIP3    H124975   3.816   0.398   6.446
 8338TIP3    H224976   3.934   0.486   6.479
 8339TIP3   OH224977   4.009   0.636   6.556
 8339TIP3    H124978   4.105   0.647   6.568
 8339TIP3    H224979   3.985   0.715   6.504
 8340TIP3   OH224980   3.622   1.208   6.416
 8340TIP3    H124981   3.573   1.293   6.418
 8340TIP3    H224982   3.567   1.153   6.477
 8341TIP3   OH224983   4.043   1.660   7.435
 8341TIP3    H124984   3.950   1.684   7.429
 8341TIP3    H224985   4.076   1.718   7.505
 8342TIP3   OH224986   4.440   0.718   6.393
 8342TIP3    H124987   4.374   0.681   6.330
 8342TIP3    H224988   4.442   0.809   6.355
 8343TIP3   OH224989   4.663   1.568   7.477
 8343TIP3    H124990   4.566   1.556   7.466
 8343TIP3    H224991   4.694   1.539   7.389
 8344TIP3   OH224992   4.148   1.529   6.304
 8344TIP3    H124993   4.118   1.460   6.365
 8344TIP3    H224994   4.159   1.482   6.220
 8345TIP3   OH224995   4.144   1.169   7.133
 8345TIP3    H124996   4.053   1.139   7.157
 8345TIP3    H224997   4.179   1.088   7.091
 8346TIP3   OH224998   3.263   1.391   6.899
 8346TIP3    H124999   3.271   1.472   6.845
 8346TIP3    H225000   3.175   1.360   6.877
 8347TIP3   OH225001   2.838   0.692   6.598
 8347TIP3    H125002   2.880   0.778   6.620
 8347TIP3    H225003   2.759   0.695   6.658
 8348TIP3   OH225004   3.408   1.162   6.826
 8348TIP3    H125005   3.377   1.249   6.856
 8348TIP3    H225006   3.369   1.104   6.895
 8349TIP3   OH225007   3.540   1.734   7.338
 8349TIP3    H125008   3.586   1.803   7.286
 8349TIP3    H225009   3.602   1.722   7.413
 8350TIP3   OH225010   3.186   1.629   6.743
 8350TIP3    H125011   3.102   1.641   6.790
 8350TIP3    H225012   3.222   1.721   6.747
 8351TIP3   OH225013   3.923   1.363   7.326
 8351TIP3    H125014   3.960   1.361   7.415
 8351TIP3    H225015   4.003   1.338   7.276
 8352TIP3   OH225016   3.904   1.258   6.205
 8352TIP3    H125017   3.957   1.231   6.284
 8352TIP3    H225018   3.816   1.230   6.232
 8353TIP3   OH225019   4.173   1.901   7.368
 8353TIP3    H125020   4.100   1.842   7.342
 8353TIP3    H225021   4.171   1.967   7.294
 8354TIP3   OH225022   4.241   1.729   6.023
 8354TIP3    H125023   4.275   1.801   5.968
 8354TIP3    H225024   4.161   1.773   6.059
 8355TIP3   OH225025   4.065   1.188   6.418
 8355TIP3    H125026   4.055   1.124   6.492
 8355TIP3    H225027   4.162   1.186   6.407
 8356TIP3   OH225028   3.267   1.236   6.205
 8356TIP3    H125029   3.279   1.143   6.178
 8356TIP3    H225030   3.245   1.226   6.300
 8357TIP3   OH225031   3.210   1.243   6.478
 8357TIP3    H125032   3.287   1.216   6.531
 8357TIP3    H225033   3.215   1.341   6.484
 8358TIP3   OH225034   2.945   0.936   6.680
 8358TIP3    H125035   2.877   0.980   6.736
 8358TIP3    H225036   2.957   1.005   6.611
 8359TIP3   OH225037   3.479   1.437   6.423
 8359TIP3    H125038   3.392   1.463   6.461
 8359TIP3    H225039   3.495   1.512   6.364
 8360TIP3   OH225040   3.694   0.494   6.835
 8360TIP3    H125041   3.747   0.572   6.806
 8360TIP3    H225042   3.666   0.522   6.923
 8361TIP3   OH225043   3.225   1.515   6.494
 8361TIP3    H125044   3.195   1.584   6.431
 8361TIP3    H225045   3.209   1.559   6.581
 8362TIP3   OH225046   4.233   0.927   7.014
 8362TIP3    H125047   4.156   0.870   7.024
 8362TIP3    H225048   4.304   0.876   7.059
 8363TIP3   OH225049   2.943   1.140   6.484
 8363TIP3    H125050   3.015   1.205   6.491
 8363TIP3    H225051   2.983   1.080   6.417
 8364TIP3   OH225052   2.871   0.422   6.609
 8364TIP3    H125053   2.880   0.520   6.603
 8364TIP3    H225054   2.777   0.412   6.589
 8365TIP3   OH225055   4.196   1.872   6.962
 8365TIP3    H125056   4.153   1.919   6.887
 8365TIP3    H225057   4.291   1.890   6.941
 8366TIP3   OH225058   2.811   1.372   6.878
 8366TIP3    H125059   2.729   1.388   6.926
 8366TIP3    H225060   2.787   1.405   6.789
 8367TIP3   OH225061   3.430   1.439   6.114
 8367TIP3    H125062   3.375   1.367   6.152
 8367TIP3    H225063   3.506   1.388   6.080
 8368TIP3   OH225064   3.865   1.478   6.028
 8368TIP3    H125065   3.908   1.414   6.088
 8368TIP3    H225066   3.921   1.475   5.948
 8369TIP3   OH225067   3.076   0.955   6.340
 8369TIP3    H125068   3.133   0.924   6.413
 8369TIP3    H225069   3.143   0.960   6.268
 8370TIP3   OH225070   3.592   1.157   6.147
 8370TIP3    H125071   3.593   1.168   6.244
 8370TIP3    H225072   3.592   1.060   6.140
 8371TIP3   OH225073   4.188   1.382   7.443
 8371TIP3    H125074   4.256   1.450   7.426
 8371TIP3    H225075   4.165   1.398   7.536
 8372TIP3   OH225076   3.282   0.863   6.559
 8372TIP3    H125077   3.251   0.826   6.644
 8372TIP3    H225078   3.318   0.785   6.513
 8373TIP3   OH225079   3.384   0.658   6.398
 8373TIP3    H125080   3.361   0.664   6.303
 8373TIP3    H225081   3.482   0.657   6.393
 8374TIP3   OH225082   4.205   0.982   6.066
 8374TIP3    H125083   4.184   0.941   5.980
 8374TIP3    H225084   4.172   1.073   6.048
 8375TIP3   OH225085   3.194   1.718   6.308
 8375TIP3    H125086   3.289   1.709   6.288
 8375TIP3    H225087   3.166   1.769   6.229
 8376TIP3   OH225088   2.673   1.098   6.525
 8376TIP3    H125089   2.767   1.119   6.506
 8376TIP3    H225090   2.664   1.010   6.482
 8377TIP3   OH225091   2.585   1.724   6.914
 8377TIP3    H125092   2.520   1.657   6.881
 8377TIP3    H225093   2.625   1.673   6.989
 8378TIP3   OH225094   2.688   1.605   7.134
 8378TIP3    H125095   2.687   1.510   7.158
 8378TIP3    H225096   2.776   1.631   7.169
 8379TIP3   OH225097   4.452   1.958   6.924
 8379TIP3    H125098   4.475   1.993   7.012
 8379TIP3    H225099   4.513   2.006   6.866
 8380TIP3   OH225100   4.477   1.985   7.204
 8380TIP3    H125101   4.435   1.896   7.200
 8380TIP3    H225102   4.555   1.964   7.258
 8381TIP3   OH225103   4.343   1.171   6.397
 8381TIP3    H125104   4.407   1.237   6.366
 8381TIP3    H225105   4.389   1.135   6.476
 8382TIP3   OH225106   4.470   1.040   6.601
 8382TIP3    H125107   4.403   1.001   6.661
 8382TIP3    H225108   4.536   1.078   6.664
 8383TIP3   OH225109   4.530   1.437   7.037
 8383TIP3    H125110   4.578   1.365   6.990
 8383TIP3    H225111   4.525   1.507   6.968
 8384TIP3   OH225112   4.354   1.737   7.220
 8384TIP3    H125113   4.281   1.774   7.274
 8384TIP3    H225114   4.305   1.689   7.150
 8385TIP3   OH225115   4.410   0.949   6.246
 8385TIP3    H125116   4.337   0.948   6.179
 8385TIP3    H225117   4.380   1.025   6.301
 8386TIP3   OH225118   4.258   0.647   6.204
 8386TIP3    H125119   4.219   0.676   6.121
 8386TIP3    H225120   4.257   0.550   6.196
 8387TIP3   OH225121   4.280   0.902   6.745
 8387TIP3    H125122   4.284   0.805   6.735
 8387TIP3    H225123   4.270   0.914   6.842
 8388TIP3   OH225124   4.579   1.288   7.534
 8388TIP3    H125125   4.655   1.236   7.562
 8388TIP3    H225126   4.622   1.369   7.501
 8389TIP3   OH225127   4.283   0.628   6.624
 8389TIP3    H125128   4.322   0.544   6.654
 8389TIP3    H225129   4.345   0.653   6.552
 8390TIP3   OH225130   4.440   0.793   7.133
 8390TIP3    H125131   4.525   0.820   7.090
 8390TIP3    H225132   4.451   0.838   7.219
 8391TIP3   OH225133   4.497   0.929   7.364
 8391TIP3    H125134   4.493   0.930   7.462
 8391TIP3    H225135   4.538   1.014   7.341
 8392TIP3   OH225136   4.033   1.829   6.579
 8392TIP3    H125137   4.085   1.820   6.496
 8392TIP3    H225138   4.084   1.896   6.627
 8393TIP3   OH225139   3.957   2.076   7.470
 8393TIP3    H125140   4.021   2.019   7.424
 8393TIP3    H225141   4.015   2.115   7.538
 8394TIP3   OH225142   3.244   1.911   7.362
 8394TIP3    H125143   3.175   1.895   7.429
 8394TIP3    H225144   3.195   1.948   7.286
 8395TIP3   OH225145   3.656   1.929   7.181
 8395TIP3    H125146   3.582   1.947   7.120
 8395TIP3    H225147   3.666   2.016   7.225
 8396TIP3   OH225148   3.920   1.857   7.239
 8396TIP3    H125149   3.826   1.877   7.219
 8396TIP3    H225150   3.962   1.936   7.204
 8397TIP3   OH225151   4.128   2.057   7.155
 8397TIP3    H125152   4.113   2.143   7.108
 8397TIP3    H225153   4.153   1.998   7.080
 8398TIP3   OH225154   2.914   1.689   7.256
 8398TIP3    H125155   2.930   1.744   7.336
 8398TIP3    H225156   3.001   1.650   7.235
 8399TIP3   OH225157   3.125   1.571   7.123
 8399TIP3    H125158   3.174   1.488   7.128
 8399TIP3    H225159   3.201   1.633   7.117
 8400TIP3   OH225160   3.370   1.685   7.132
 8400TIP3    H125161   3.401   1.592   7.129
 8400TIP3    H225162   3.413   1.711   7.216
 8401TIP3   OH225163   2.688   1.489   6.670
 8401TIP3    H125164   2.602   1.456   6.640
 8401TIP3    H225165   2.680   1.581   6.639
 8402TIP3   OH225166   3.461   1.673   6.254
 8402TIP3    H125167   3.548   1.696   6.217
 8402TIP3    H225168   3.438   1.599   6.193
 8403TIP3   OH225169   4.181   1.796   6.347
 8403TIP3    H125170   4.173   1.699   6.337
 8403TIP3    H225171   4.134   1.827   6.267
 8404TIP3   OH225172   2.765   1.512   6.307
 8404TIP3    H125173   2.769   1.532   6.401
 8404TIP3    H225174   2.852   1.468   6.291
 8405TIP3   OH225175   4.421   1.930   7.532
 8405TIP3    H125176   4.336   1.897   7.498
 8405TIP3    H225177   4.400   2.026   7.537
 8406TIP3   OH225178   5.673   1.315   6.295
 8406TIP3    H125179   5.642   1.405   6.276
 8406TIP3    H225180   5.597   1.262   6.263
 8407TIP3   OH225181   5.666   1.318   6.676
 8407TIP3    H125182   5.698   1.298   6.766
 8407TIP3    H225183   5.629   1.231   6.649
 8408TIP3   OH225184   4.966   1.220   7.043
 8408TIP3    H125185   4.994   1.146   7.101
 8408TIP3    H225186   5.052   1.260   7.023
 8409TIP3   OH225187   5.914   1.622   6.358
 8409TIP3    H125188   5.904   1.548   6.419
 8409TIP3    H225189   5.949   1.692   6.416
 8410TIP3   OH225190   4.944   1.618   6.767
 8410TIP3    H125191   4.935   1.520   6.768
 8410TIP3    H225192   5.041   1.627   6.762
 8411TIP3   OH225193   4.643   0.824   6.555
 8411TIP3    H125194   4.595   0.907   6.575
 8411TIP3    H225195   4.570   0.771   6.518
 8412TIP3   OH225196   4.705   1.111   6.728
 8412TIP3    H125197   4.757   1.035   6.764
 8412TIP3    H225198   4.765   1.145   6.660
 8413TIP3   OH225199   5.569   2.079   6.382
 8413TIP3    H125200   5.611   2.006   6.330
 8413TIP3    H225201   5.548   2.034   6.465
 8414TIP3   OH225202   5.456   1.531   6.724
 8414TIP3    H125203   5.499   1.454   6.681
 8414TIP3    H225204   5.538   1.575   6.757
 8415TIP3   OH225205   5.871   1.047   6.771
 8415TIP3    H125206   5.909   0.960   6.794
 8415TIP3    H225207   5.844   1.034   6.678
 8416TIP3   OH225208   5.216   0.752   6.750
 8416TIP3    H125209   5.210   0.829   6.690
 8416TIP3    H225210   5.191   0.682   6.687
 8417TIP3   OH225211   5.938   0.838   6.365
 8417TIP3    H125212   6.001   0.767   6.382
 8417TIP3    H225213   5.929   0.831   6.269
 8418TIP3   OH225214   4.863   0.917   6.832
 8418TIP3    H125215   4.934   0.890   6.893
 8418TIP3    H225216   4.873   0.848   6.764
 8419TIP3   OH225217   5.294   1.106   6.631
 8419TIP3    H125218   5.389   1.083   6.643
 8419TIP3    H225219   5.258   1.023   6.592
 8420TIP3   OH225220   5.568   1.540   6.159
 8420TIP3    H125221   5.510   1.513   6.086
 8420TIP3    H225222   5.520   1.618   6.193
 8421TIP3   OH225223   5.323   1.458   6.950
 8421TIP3    H125224   5.263   1.526   6.987
 8421TIP3    H225225   5.358   1.503   6.870
 8422TIP3   OH225226   5.085   0.818   6.973
 8422TIP3    H125227   5.146   0.881   7.015
 8422TIP3    H225228   5.132   0.802   6.888
 8423TIP3   OH225229   5.156   1.652   7.050
 8423TIP3    H125230   5.131   1.740   7.014
 8423TIP3    H225231   5.075   1.634   7.101
 8424TIP3   OH225232   4.542   1.342   6.287
 8424TIP3    H125233   4.502   1.371   6.203
 8424TIP3    H225234   4.575   1.428   6.323
 8425TIP3   OH225235   5.987   1.858   6.523
 8425TIP3    H125236   5.898   1.850   6.565
 8425TIP3    H225237   5.979   1.945   6.479
 8426TIP3   OH225238   5.690   1.900   6.211
 8426TIP3    H125239   5.739   1.819   6.188
 8426TIP3    H225240   5.740   1.966   6.157
 8427TIP3   OH225241   5.828   1.681   6.101
 8427TIP3    H125242   5.775   1.600   6.094
 8427TIP3    H225243   5.873   1.662   6.187
 8428TIP3   OH225244   6.194   1.758   6.861
 8428TIP3    H125245   6.198   1.677   6.805
 8428TIP3    H225246   6.192   1.830   6.796
 8429TIP3   OH225247   5.504   1.166   6.131
 8429TIP3    H125248   5.422   1.216   6.111
 8429TIP3    H225249   5.547   1.162   6.044
 8430TIP3   OH225250   5.460   0.950   5.849
 8430TIP3    H125251   5.525   1.006   5.895
 8430TIP3    H225252   5.520   0.896   5.793
 8431TIP3   OH225253   6.415   1.409   6.682
 8431TIP3    H125254   6.324   1.446   6.686
 8431TIP3    H225255   6.440   1.431   6.590
 8432TIP3   OH225256   5.850   1.251   6.097
 8432TIP3    H125257   5.796   1.270   6.177
 8432TIP3    H225258   5.935   1.225   6.140
 8433TIP3   OH225259   6.058   1.330   6.953
 8433TIP3    H125260   6.053   1.414   7.001
 8433TIP3    H225261   5.966   1.312   6.933
 8434TIP3   OH225262   5.082   1.245   6.517
 8434TIP3    H125263   5.041   1.185   6.451
 8434TIP3    H225264   5.157   1.191   6.549
 8435TIP3   OH225265   5.211   1.657   6.663
 8435TIP3    H125266   5.186   1.621   6.576
 8435TIP3    H225267   5.298   1.614   6.679
 8436TIP3   OH225268   5.214   1.215   6.874
 8436TIP3    H125269   5.246   1.187   6.785
 8436TIP3    H225270   5.259   1.301   6.887
 8437TIP3   OH225271   5.749   1.852   6.654
 8437TIP3    H125272   5.727   1.941   6.687
 8437TIP3    H225273   5.705   1.793   6.717
 8438TIP3   OH225274   5.366   1.764   7.198
 8438TIP3    H125275   5.305   1.828   7.239
 8438TIP3    H225276   5.302   1.712   7.145
 8439TIP3   OH225277   5.684   1.114   5.924
 8439TIP3    H125278   5.746   1.172   5.975
 8439TIP3    H225279   5.712   1.134   5.832
 8440TIP3   OH225280   5.116   1.329   7.313
 8440TIP3    H125281   5.122   1.426   7.325
 8440TIP3    H225282   5.020   1.316   7.304
 8441TIP3   OH225283   5.439   1.783   6.198
 8441TIP3    H125284   5.519   1.837   6.210
 8441TIP3    H225285   5.380   1.844   6.151
 8442TIP3   OH225286   5.159   1.936   7.282
 8442TIP3    H125287   5.119   1.937   7.193
 8442TIP3    H225288   5.079   1.921   7.338
 8443TIP3   OH225289   4.951   1.089   6.321
 8443TIP3    H125290   4.879   1.129   6.268
 8443TIP3    H225291   4.917   1.000   6.336
 8444TIP3   OH225292   6.017   1.717   5.545
 8444TIP3    H125293   6.026   1.809   5.510
 8444TIP3    H225294   6.106   1.681   5.523
 8445TIP3   OH225295   4.728   1.473   7.234
 8445TIP3    H125296   4.659   1.457   7.166
 8445TIP3    H225297   4.763   1.384   7.251
 8446TIP3   OH225298   4.583   1.664   6.863
 8446TIP3    H125299   4.680   1.661   6.857
 8446TIP3    H225300   4.570   1.743   6.917
 8447TIP3   OH225301   6.431   2.157   6.902
 8447TIP3    H125302   6.430   2.058   6.912
 8447TIP3    H225303   6.355   2.177   6.961
 8448TIP3   OH225304   5.322   2.025   6.014
 8448TIP3    H125305   5.284   2.010   5.926
 8448TIP3    H225306   5.288   2.114   6.037
 8449TIP3   OH225307   4.754   1.876   6.392
 8449TIP3    H125308   4.800   1.868   6.478
 8449TIP3    H225309   4.700   1.795   6.392
 8450TIP3   OH225310   4.928   1.657   7.201
 8450TIP3    H125311   4.983   1.646   7.281
 8450TIP3    H225312   4.854   1.594   7.218
 8451TIP3   OH225313   5.767   1.164   5.675
 8451TIP3    H125314   5.728   1.134   5.590
 8451TIP3    H225315   5.857   1.189   5.646
 8452TIP3   OH225316   5.276   1.012   7.040
 8452TIP3    H125317   5.216   1.035   7.113
 8452TIP3    H225318   5.256   1.084   6.976
 8453TIP3   OH225319   5.148   0.894   6.532
 8453TIP3    H125320   5.059   0.859   6.551
 8453TIP3    H225321   5.167   0.847   6.447
 8454TIP3   OH225322   5.648   0.974   6.267
 8454TIP3    H125323   5.594   1.042   6.221
 8454TIP3    H225324   5.701   0.938   6.193
 8455TIP3   OH225325   5.795   1.020   6.505
 8455TIP3    H125326   5.727   1.039   6.438
 8455TIP3    H225327   5.849   0.957   6.453
 8456TIP3   OH225328   5.075   1.031   7.218
 8456TIP3    H125329   5.093   1.075   7.302
 8456TIP3    H225330   5.083   0.936   7.243
 8457TIP3   OH225331   4.690   0.585   6.370
 8457TIP3    H125332   4.727   0.601   6.282
 8457TIP3    H225333   4.627   0.659   6.376
 8458TIP3   OH225334   5.772   1.245   6.922
 8458TIP3    H125335   5.814   1.176   6.864
 8458TIP3    H225336   5.752   1.191   7.000
 8459TIP3   OH225337   5.445   0.739   6.566
 8459TIP3    H125338   5.368   0.708   6.614
 8459TIP3    H225339   5.510   0.747   6.639
 8460TIP3   OH225340   4.907   0.768   6.593
 8460TIP3    H125341   4.813   0.790   6.572
 8460TIP3    H225342   4.900   0.671   6.603
 8461TIP3   OH225343   5.187   0.763   6.290
 8461TIP3    H125344   5.279   0.784   6.262
 8461TIP3    H225345   5.134   0.777   6.209
 8462TIP3   OH225346   5.020   0.789   6.068
 8462TIP3    H125347   4.950   0.745   6.018
 8462TIP3    H225348   5.074   0.826   5.995
 8463TIP3   OH225349   6.129   2.465   7.015
 8463TIP3    H125350   6.127   2.493   6.922
 8463TIP3    H225351   6.213   2.508   7.043
 8464TIP3   OH225352   5.131   1.592   7.393
 8464TIP3    H125353   5.208   1.622   7.446
 8464TIP3    H225354   5.059   1.613   7.457
 8465TIP3   OH225355   5.553   1.038   6.697
 8465TIP3    H125356   5.619   0.993   6.643
 8465TIP3    H225357   5.551   0.980   6.775
 8466TIP3   OH225358   5.527   0.931   6.987
 8466TIP3    H125359   5.434   0.959   7.003
 8466TIP3    H225360   5.578   1.002   7.030
 8467TIP3   OH225361   5.273   1.316   6.079
 8467TIP3    H125362   5.202   1.250   6.066
 8467TIP3    H225363   5.251   1.349   6.170
 8468TIP3   OH225364   6.174   1.541   6.689
 8468TIP3    H125365   6.192   1.598   6.611
 8468TIP3    H225366   6.087   1.501   6.667
 8469TIP3   OH225367   5.705   0.650   5.951
 8469TIP3    H125368   5.609   0.654   5.945
 8469TIP3    H225369   5.728   0.744   5.967
 8470TIP3   OH225370   5.805   0.893   6.043
 8470TIP3    H125371   5.902   0.902   6.053
 8470TIP3    H225372   5.782   0.972   5.991
 8471TIP3   OH225373   4.966   1.342   6.751
 8471TIP3    H125374   5.005   1.311   6.666
 8471TIP3    H225375   5.002   1.278   6.814
 8472TIP3   OH225376   5.418   1.470   5.907
 8472TIP3    H125377   5.365   1.553   5.908
 8472TIP3    H225378   5.363   1.412   5.964
 8473TIP3   OH225379   4.846   1.253   7.363
 8473TIP3    H125380   4.871   1.207   7.445
 8473TIP3    H225381   4.772   1.199   7.329
 8474TIP3   OH225382   5.560   1.379   7.384
 8474TIP3    H125383   5.492   1.320   7.343
 8474TIP3    H225384   5.641   1.344   7.349
 8475TIP3   OH225385   6.233   0.980   5.879
 8475TIP3    H125386   6.167   0.941   5.818
 8475TIP3    H225387   6.235   1.070   5.838
 8476TIP3   OH225388   6.419   1.890   6.955
 8476TIP3    H125389   6.343   1.831   6.937
 8476TIP3    H225390   6.494   1.829   6.948
 8477TIP3   OH225391   5.891   1.756   5.783
 8477TIP3    H125392   5.953   1.725   5.852
 8477TIP3    H225393   5.943   1.738   5.701
 8478TIP3   OH225394   5.929   1.424   6.612
 8478TIP3    H125395   5.837   1.393   6.629
 8478TIP3    H225396   5.968   1.342   6.575
 8479TIP3   OH225397   5.068   1.645   6.381
 8479TIP3    H125398   5.063   1.725   6.327
 8479TIP3    H225399   4.975   1.625   6.395
 8480TIP3   OH225400   4.636   0.944   6.087
 8480TIP3    H125401   4.678   1.030   6.107
 8480TIP3    H225402   4.557   0.949   6.146
 8481TIP3   OH225403   5.201   1.408   6.322
 8481TIP3    H125404   5.166   1.497   6.342
 8481TIP3    H225405   5.165   1.355   6.396
 8482TIP3   OH225406   5.328   2.001   6.845
 8482TIP3    H125407   5.371   2.061   6.781
 8482TIP3    H225408   5.383   2.015   6.923
 8483TIP3   OH225409   4.985   1.880   6.233
 8483TIP3    H125410   4.899   1.891   6.278
 8483TIP3    H225411   5.019   1.973   6.234
 8484TIP3   OH225412   5.702   1.611   6.804
 8484TIP3    H125413   5.754   1.599   6.885
 8484TIP3    H225414   5.772   1.602   6.738
 8485TIP3   OH225415   5.667   1.538   5.732
 8485TIP3    H125416   5.731   1.478   5.778
 8485TIP3    H225417   5.589   1.481   5.724
 8486TIP3   OH225418   5.964   2.152   6.853
 8486TIP3    H125419   5.879   2.111   6.828
 8486TIP3    H225420   5.968   2.223   6.784
 8487TIP3   OH225421   6.036   1.990   5.510
 8487TIP3    H125422   6.077   2.056   5.451
 8487TIP3    H225423   5.957   2.041   5.537
 8488TIP3   OH225424   5.857   1.444   5.899
 8488TIP3    H125425   5.849   1.380   5.973
 8488TIP3    H225426   5.955   1.441   5.887
 8489TIP3   OH225427   4.776   1.846   7.007
 8489TIP3    H125428   4.830   1.776   7.049
 8489TIP3    H225429   4.796   1.922   7.062
 8490TIP3   OH225430   5.072   1.493   5.691
 8490TIP3    H125431   5.073   1.399   5.663
 8490TIP3    H225432   5.046   1.484   5.785
 8491TIP3   OH225433   5.008   1.498   5.960
 8491TIP3    H125434   5.077   1.471   6.022
 8491TIP3    H225435   5.010   1.596   5.970
 8492TIP3   OH225436   4.740   1.191   6.167
 8492TIP3    H125437   4.674   1.235   6.224
 8492TIP3    H225438   4.753   1.259   6.098
 8493TIP3   OH225439   5.279   1.701   5.911
 8493TIP3    H125440   5.192   1.716   5.953
 8493TIP3    H225441   5.284   1.782   5.857
 8494TIP3   OH225442   5.465   0.771   6.301
 8494TIP3    H125443   5.530   0.844   6.297
 8494TIP3    H225444   5.453   0.762   6.398
 8495TIP3   OH225445   5.723   1.075   7.131
 8495TIP3    H125446   5.741   1.115   7.215
 8495TIP3    H225447   5.726   0.978   7.152
 8496TIP3   OH225448   5.024   1.768   5.984
 8496TIP3    H125449   4.992   1.837   5.921
 8496TIP3    H225450   5.006   1.812   6.070
 8497TIP3   OH225451   6.024   1.184   6.502
 8497TIP3    H125452   5.946   1.128   6.517
 8497TIP3    H225453   6.097   1.129   6.538
 8498TIP3   OH225454   4.737   1.395   5.971
 8498TIP3    H125455   4.803   1.465   5.979
 8498TIP3    H225456   4.781   1.338   5.904
 8499TIP3   OH225457   4.665   0.669   6.101
 8499TIP3    H125458   4.685   0.765   6.098
 8499TIP3    H225459   4.582   0.667   6.050
 8500TIP3   OH225460   5.993   2.128   6.450
 8500TIP3    H125461   5.950   2.172   6.373
 8500TIP3    H225462   6.087   2.149   6.430
 8501TIP3   OH225463   4.602   1.610   6.354
 8501TIP3    H125464   4.542   1.642   6.422
 8501TIP3    H225465   4.567   1.656   6.273
 8502TIP3   OH225466   4.768   2.165   7.431
 8502TIP3    H125467   4.854   2.171   7.479
 8502TIP3    H225468   4.757   2.069   7.428
 8503TIP3   OH225469   5.256   2.125   7.463
 8503TIP3    H125470   5.346   2.090   7.474
 8503TIP3    H225471   5.217   2.059   7.403
 8504TIP3   OH225472   5.232   1.700   5.600
 8504TIP3    H125473   5.178   1.626   5.637
 8504TIP3    H225474   5.304   1.651   5.555
 8505TIP3   OH225475   5.862   2.007   7.180
 8505TIP3    H125476   5.880   1.955   7.262
 8505TIP3    H225477   5.950   2.048   7.167
 8506TIP3   OH225478   4.920   1.627   7.555
 8506TIP3    H125479   4.952   1.550   7.604
 8506TIP3    H225480   4.824   1.607   7.549
 8507TIP3   OH225481   4.873   1.211   5.826
 8507TIP3    H125482   4.930   1.181   5.899
 8507TIP3    H225483   4.940   1.216   5.753
 8508TIP3   OH225484   5.522   1.655   7.395
 8508TIP3    H125485   5.469   1.675   7.315
 8508TIP3    H225486   5.537   1.559   7.386
 8509TIP3   OH225487   5.403   1.410   5.636
 8509TIP3    H125488   5.384   1.420   5.731
 8509TIP3    H225489   5.400   1.312   5.627
 8510TIP3   OH225490   5.923   1.724   6.947
 8510TIP3    H125491   6.005   1.751   6.900
 8510TIP3    H225492   5.963   1.665   7.014
 8511TIP3   OH225493   5.040   1.373   7.594
 8511TIP3    H125494   5.092   1.352   7.515
 8511TIP3    H225495   5.104   1.354   7.667
 8512TIP3   OH225496   5.081   1.121   6.046
 8512TIP3    H125497   5.051   1.080   6.129
 8512TIP3    H225498   5.117   1.044   5.996
 8513TIP3   OH225499   5.356   1.204   7.282
 8513TIP3    H125500   5.268   1.249   7.281
 8513TIP3    H225501   5.396   1.235   7.197
 8514TIP3   OH225502   5.180   0.916   5.885
 8514TIP3    H125503   5.159   0.920   5.790
 8514TIP3    H225504   5.278   0.911   5.881
 8515TIP3   OH225505   5.875   1.579   7.448
 8515TIP3    H125506   5.787   1.621   7.381
 8515TIP3    H225507   5.928   1.628   7.380
 8516TIP3   OH225508   6.001   1.238   5.554
 8516TIP3    H125509   5.983   1.198   5.467
 8516TIP3    H225510   5.970   1.330   5.536
 8517TIP3   OH225511   5.491   0.991   7.373
 8517TIP3    H125512   5.485   0.945   7.288
 8517TIP3    H225513   5.440   1.072   7.352
 8518TIP3   OH225514   5.509   1.306   7.081
 8518TIP3    H125515   5.585   1.303   7.021
 8518TIP3    H225516   5.450   1.371   7.035
 8519TIP3   OH225517   6.027   1.574   7.138
 8519TIP3    H125518   5.988   1.555   7.223
 8519TIP3    H225519   6.122   1.590   7.166
 8520TIP3   OH225520   5.277   1.101   7.604
 8520TIP3    H125521   5.316   1.013   7.623
 8520TIP3    H225522   5.335   1.134   7.536
 8521TIP3   OH225523   4.988   1.969   5.795
 8521TIP3    H125524   5.084   1.966   5.776
 8521TIP3    H225525   4.957   2.019   5.718
 8522TIP3   OH225526   4.468   1.355   6.007
 8522TIP3    H125527   4.563   1.376   5.992
 8522TIP3    H225528   4.461   1.266   5.967
 8523TIP3   OH225529   4.386   1.967   6.424
 8523TIP3    H125530   4.320   1.907   6.384
 8523TIP3    H225531   4.430   1.906   6.488
 8524TIP3   OH225532   4.521   1.812   6.609
 8524TIP3    H125533   4.506   1.744   6.677
 8524TIP3    H225534   4.572   1.877   6.661
 8525TIP3   OH225535   6.246   2.218   6.412
 8525TIP3    H125536   6.275   2.253   6.498
 8525TIP3    H225537   6.311   2.258   6.351
 8526TIP3   OH225538   6.270   2.240   6.692
 8526TIP3    H125539   6.233   2.150   6.683
 8526TIP3    H225540   6.345   2.219   6.751
 8527TIP3   OH225541   6.176   1.946   7.211
 8527TIP3    H125542   6.196   1.851   7.202
 8527TIP3    H225543   6.239   1.985   7.148
 8528TIP3   OH225544   6.135   1.434   5.884
 8528TIP3    H125545   6.205   1.493   5.850
 8528TIP3    H225546   6.180   1.394   5.962
 8529TIP3   OH225547   6.262   1.301   6.088
 8529TIP3    H125548   6.197   1.257   6.148
 8529TIP3    H225549   6.331   1.332   6.149
 8530TIP3   OH225550   6.320   1.694   6.510
 8530TIP3    H125551   6.378   1.631   6.463
 8530TIP3    H225552   6.320   1.771   6.449
 8531TIP3   OH225553   6.151   1.989   6.710
 8531TIP3    H125554   6.079   2.030   6.762
 8531TIP3    H225555   6.102   1.944   6.638
 8532TIP3   OH225556   6.205   1.209   5.733
 8532TIP3    H125557   6.133   1.205   5.666
 8532TIP3    H225558   6.173   1.284   5.787
 8533TIP3   OH225559   6.051   0.902   5.693
 8533TIP3    H125560   6.021   0.923   5.604
 8533TIP3    H225561   6.060   0.805   5.691
 8534TIP3   OH225562   6.075   1.159   6.232
 8534TIP3    H125563   6.079   1.062   6.221
 8534TIP3    H225564   6.063   1.169   6.329
 8535TIP3   OH225565   4.700   1.225   6.981
 8535TIP3    H125566   4.697   1.192   6.889
 8535TIP3    H225567   4.797   1.232   6.995
 8536TIP3   OH225568   6.080   0.885   6.109
 8536TIP3    H125569   6.117   0.800   6.141
 8536TIP3    H225570   6.142   0.907   6.037
 8537TIP3   OH225571   6.243   1.035   6.588
 8537TIP3    H125572   6.332   1.064   6.557
 8537TIP3    H225573   6.241   1.080   6.675
 8538TIP3   OH225574   6.250   1.193   6.807
 8538TIP3    H125575   6.184   1.241   6.862
 8538TIP3    H225576   6.317   1.262   6.794
 8539TIP3   OH225577   4.682   0.884   7.050
 8539TIP3    H125578   4.735   0.865   6.970
 8539TIP3    H225579   4.724   0.964   7.082
 8540TIP3   OH225580   5.815   2.088   6.053
 8540TIP3    H125581   5.880   2.083   5.980
 8540TIP3    H225582   5.859   2.149   6.114
 8541TIP3   OH225583   4.941   1.898   7.444
 8541TIP3    H125584   4.848   1.869   7.435
 8541TIP3    H225585   4.968   1.845   7.521
 8542TIP3   OH225586   5.110   1.922   6.996
 8542TIP3    H125587   5.059   1.997   6.959
 8542TIP3    H225588   5.191   1.934   6.943
 8543TIP3   OH225589   5.583   2.116   7.115
 8543TIP3    H125590   5.589   2.146   7.209
 8543TIP3    H225591   5.624   2.192   7.068
 8544TIP3   OH225592   5.731   2.314   7.003
 8544TIP3    H125593   5.806   2.280   6.952
 8544TIP3    H225594   5.778   2.376   7.063
 8545TIP3   OH225595   4.786   2.178   7.026
 8545TIP3    H125596   4.695   2.207   7.002
 8545TIP3    H225597   4.800   2.231   7.106
 8546TIP3   OH225598   5.021   2.158   6.882
 8546TIP3    H125599   4.934   2.169   6.925
 8546TIP3    H225600   5.002   2.190   6.791
 8547TIP3   OH225601   5.447   2.183   6.678
 8547TIP3    H125602   5.377   2.201   6.612
 8547TIP3    H225603   5.458   2.272   6.718
 8548TIP3   OH225604   5.715   2.117   6.733
 8548TIP3    H125605   5.622   2.140   6.714
 8548TIP3    H225606   5.762   2.189   6.686
 8549TIP3   OH225607   5.917   2.313   6.642
 8549TIP3    H125608   5.905   2.399   6.597
 8549TIP3    H225609   5.947   2.256   6.567
 8550TIP3   OH225610   4.696   1.972   6.765
 8550TIP3    H125611   4.721   1.944   6.856
 8550TIP3    H225612   4.768   1.928   6.715
 8551TIP3   OH225613   4.891   1.844   6.626
 8551TIP3    H125614   4.906   1.761   6.676
 8551TIP3    H225615   4.982   1.880   6.620
 8552TIP3   OH225616   5.157   1.935   6.627
 8552TIP3    H125617   5.187   1.843   6.616
 8552TIP3    H225618   5.201   1.958   6.711
 8553TIP3   OH225619   4.484   1.749   6.155
 8553TIP3    H125620   4.398   1.717   6.123
 8553TIP3    H225621   4.476   1.843   6.129
 8554TIP3   OH225622   5.260   1.934   5.736
 8554TIP3    H125623   5.286   1.999   5.669
 8554TIP3    H225624   5.246   1.854   5.681
 8555TIP3   OH225625   5.974   2.046   5.827
 8555TIP3    H125626   5.963   1.954   5.800
 8555TIP3    H225627   5.933   2.093   5.751
 8556TIP3   OH225628   4.559   1.767   5.793
 8556TIP3    H125629   4.561   1.792   5.886
 8556TIP3    H225630   4.647   1.725   5.780
 8557TIP3   OH225631   6.187   2.201   7.020
 8557TIP3    H125632   6.113   2.170   6.964
 8557TIP3    H225633   6.171   2.297   7.021
 8558TIP3   OH225634   7.471   1.593   5.768
 8558TIP3    H125635   7.422   1.673   5.739
 8558TIP3    H225636   7.400   1.526   5.767
 8559TIP3   OH225637   6.723   1.866   6.254
 8559TIP3    H125638   6.726   1.769   6.253
 8559TIP3    H225639   6.812   1.886   6.287
 8560TIP3   OH225640   6.432   1.076   6.045
 8560TIP3    H125641   6.387   1.161   6.060
 8560TIP3    H225642   6.361   1.025   6.003
 8561TIP3   OH225643   6.504   1.355   6.208
 8561TIP3    H125644   6.555   1.279   6.243
 8561TIP3    H225645   6.565   1.390   6.142
 8562TIP3   OH225646   7.358   2.330   5.862
 8562TIP3    H125647   7.408   2.257   5.820
 8562TIP3    H225648   7.369   2.312   5.956
 8563TIP3   OH225649   6.666   1.163   6.319
 8563TIP3    H125650   6.754   1.150   6.357
 8563TIP3    H225651   6.674   1.107   6.238
 8564TIP3   OH225652   7.013   1.361   6.132
 8564TIP3    H125653   7.073   1.339   6.206
 8564TIP3    H225654   6.999   1.274   6.088
 8565TIP3   OH225655   7.363   1.810   5.642
 8565TIP3    H125656   7.314   1.785   5.561
 8565TIP3    H225657   7.309   1.888   5.671
 8566TIP3   OH225658   6.917   1.914   6.486
 8566TIP3    H125659   6.925   2.010   6.470
 8566TIP3    H225660   6.853   1.914   6.560
 8567TIP3   OH225661   6.335   1.600   5.775
 8567TIP3    H125662   6.305   1.627   5.686
 8567TIP3    H225663   6.372   1.684   5.810
 8568TIP3   OH225664   7.484   2.151   5.690
 8568TIP3    H125665   7.538   2.076   5.659
 8568TIP3    H225666   7.539   2.225   5.655
 8569TIP3   OH225667   7.626   1.927   5.613
 8569TIP3    H125668   7.574   1.877   5.548
 8569TIP3    H225669   7.590   1.892   5.695
 8570TIP3   OH225670   7.298   1.425   5.612
 8570TIP3    H125671   7.217   1.477   5.594
 8570TIP3    H225672   7.339   1.420   5.524
 8571TIP3   OH225673   7.252   1.206   5.337
 8571TIP3    H125674   7.318   1.258   5.386
 8571TIP3    H225675   7.312   1.149   5.283
 8572TIP3   OH225676   7.646   1.514   5.578
 8572TIP3    H125677   7.577   1.541   5.643
 8572TIP3    H225678   7.710   1.475   5.643
 8573TIP3   OH225679   6.852   1.523   5.993
 8573TIP3    H125680   6.817   1.461   5.926
 8573TIP3    H225681   6.919   1.466   6.038
 8574TIP3   OH225682   7.000   1.930   6.140
 8574TIP3    H125683   6.976   1.883   6.058
 8574TIP3    H225684   7.069   1.875   6.178
 8575TIP3   OH225685   7.485   1.364   5.406
 8575TIP3    H125686   7.541   1.426   5.456
 8575TIP3    H225687   7.514   1.384   5.314
 8576TIP3   OH225688   7.228   2.041   5.692
 8576TIP3    H125689   7.306   2.098   5.704
 8576TIP3    H225690   7.166   2.100   5.647
 8577TIP3   OH225691   6.914   2.259   6.762
 8577TIP3    H125692   6.924   2.209   6.679
 8577TIP3    H225693   6.849   2.206   6.811
 8578TIP3   OH225694   6.744   1.351   5.802
 8578TIP3    H125695   6.667   1.378   5.748
 8578TIP3    H225696   6.725   1.258   5.823
 8579TIP3   OH225697   6.526   1.685   6.702
 8579TIP3    H125698   6.453   1.717   6.645
 8579TIP3    H225699   6.507   1.590   6.702
 8580TIP3   OH225700   6.382   1.921   6.350
 8580TIP3    H125701   6.477   1.914   6.335
 8580TIP3    H225702   6.378   2.000   6.406
 8581TIP3   OH225703   7.114   2.283   5.494
 8581TIP3    H125704   7.068   2.268   5.409
 8581TIP3    H225705   7.081   2.371   5.521
 8582TIP3   OH225706   6.548   2.133   5.880
 8582TIP3    H125707   6.600   2.127   5.964
 8582TIP3    H225708   6.497   2.051   5.885
 8583TIP3   OH225709   7.309   2.191   5.134
 8583TIP3    H125710   7.367   2.121   5.096
 8583TIP3    H225711   7.345   2.199   5.224
 8584TIP3   OH225712   7.364   2.233   5.402
 8584TIP3    H125713   7.274   2.243   5.441
 8584TIP3    H225714   7.416   2.211   5.481
 8585TIP3   OH225715   6.735   1.893   6.693
 8585TIP3    H125716   6.758   1.935   6.777
 8585TIP3    H225717   6.654   1.844   6.716
 8586TIP3   OH225718   7.577   1.422   5.158
 8586TIP3    H125719   7.542   1.387   5.073
 8586TIP3    H225720   7.618   1.504   5.127
 8587TIP3   OH225721   6.923   1.146   5.993
 8587TIP3    H125722   6.848   1.098   6.034
 8587TIP3    H225723   6.958   1.077   5.934
 8588TIP3   OH225724   7.410   1.202   5.738
 8588TIP3    H125725   7.373   1.282   5.698
 8588TIP3    H225726   7.482   1.177   5.678
 8589TIP3   OH225727   6.474   0.837   5.856
 8589TIP3    H125728   6.519   0.852   5.772
 8589TIP3    H225729   6.416   0.914   5.858
 8590TIP3   OH225730   6.697   1.017   6.092
 8590TIP3    H125731   6.604   1.026   6.061
 8590TIP3    H225732   6.708   0.920   6.095
 8591TIP3   OH225733   7.000   1.008   5.751
 8591TIP3    H125734   7.061   1.078   5.726
 8591TIP3    H225735   6.927   1.020   5.687
 8592TIP3   OH225736   6.813   1.047   5.557
 8592TIP3    H125737   6.745   1.001   5.505
 8592TIP3    H225738   6.869   1.083   5.486
 8593TIP3   OH225739   7.065   1.574   5.564
 8593TIP3    H125740   6.993   1.508   5.553
 8593TIP3    H225741   7.046   1.607   5.655
 8594TIP3   OH225742   7.526   0.889   5.449
 8594TIP3    H125743   7.434   0.913   5.437
 8594TIP3    H225744   7.562   0.970   5.490
 8595TIP3   OH225745   7.603   1.143   5.530
 8595TIP3    H125746   7.698   1.158   5.534
 8595TIP3    H225747   7.570   1.220   5.480
 8596TIP3   OH225748   6.763   1.580   6.249
 8596TIP3    H125749   6.784   1.573   6.153
 8596TIP3    H225750   6.836   1.528   6.286
 8597TIP3   OH225751   7.217   1.723   5.394
 8597TIP3    H125752   7.166   1.808   5.393
 8597TIP3    H225753   7.159   1.668   5.451
 8598TIP3   OH225754   7.780   1.983   5.274
 8598TIP3    H125755   7.700   1.974   5.327
 8598TIP3    H225756   7.752   2.037   5.197
 8599TIP3   OH225757   6.863   1.900   5.865
 8599TIP3    H125758   6.861   1.981   5.810
 8599TIP3    H225759   6.770   1.882   5.876
 8600TIP3   OH225760   6.432   1.200   5.574
 8600TIP3    H125761   6.474   1.287   5.592
 8600TIP3    H225762   6.354   1.206   5.633
 8601TIP3   OH225763   7.001   1.667   5.807
 8601TIP3    H125764   6.964   1.755   5.826
 8601TIP3    H225765   6.960   1.615   5.879
 8602TIP3   OH225766   7.132   2.255   6.334
 8602TIP3    H125767   7.172   2.321   6.274
 8602TIP3    H225768   7.214   2.225   6.379
 8603TIP3   OH225769   6.781   2.139   5.718
 8603TIP3    H125770   6.696   2.151   5.765
 8603TIP3    H225771   6.816   2.231   5.721
 8604TIP3   OH225772   7.479   1.772   5.174
 8604TIP3    H125773   7.533   1.750   5.253
 8604TIP3    H225774   7.391   1.746   5.205
 8605TIP3   OH225775   7.773   2.189   5.077
 8605TIP3    H125776   7.854   2.216   5.028
 8605TIP3    H225777   7.718   2.268   5.061
 8606TIP3   OH225778   7.640   1.712   5.386
 8606TIP3    H125779   7.642   1.638   5.450
 8606TIP3    H225780   7.733   1.721   5.361
 8607TIP3   OH225781   6.570   2.105   6.493
 8607TIP3    H125782   6.635   2.038   6.519
 8607TIP3    H225783   6.600   2.182   6.544
 8608TIP3   OH225784   6.860   1.749   5.179
 8608TIP3    H125785   6.871   1.656   5.151
 8608TIP3    H225786   6.837   1.738   5.274
 8609TIP3   OH225787   6.801   1.755   5.452
 8609TIP3    H125788   6.879   1.729   5.504
 8609TIP3    H225789   6.806   1.853   5.458
 8610TIP3   OH225790   6.532   1.446   5.651
 8610TIP3    H125791   6.469   1.493   5.709
 8610TIP3    H225792   6.550   1.514   5.584
 8611TIP3   OH225793   7.072   1.951   5.400
 8611TIP3    H125794   6.985   1.976   5.434
 8611TIP3    H225795   7.087   2.023   5.337
 8612TIP3   OH225796   6.818   2.027   5.468
 8612TIP3    H125797   6.788   2.097   5.405
 8612TIP3    H225798   6.802   2.071   5.554
 8613TIP3   OH225799   6.533   1.653   5.457
 8613TIP3    H125800   6.605   1.719   5.466
 8613TIP3    H225801   6.576   1.595   5.391
 8614TIP3   OH225802   6.461   0.926   5.587
 8614TIP3    H125803   6.481   1.021   5.585
 8614TIP3    H225804   6.382   0.923   5.531
 8615TIP3   OH225805   7.738   2.410   5.958
 8615TIP3    H125806   7.735   2.452   5.870
 8615TIP3    H225807   7.805   2.340   5.947
 8616TIP3   OH225808   6.400   1.864   5.842
 8616TIP3    H125809   6.340   1.904   5.906
 8616TIP3    H225810   6.372   1.909   5.759
 8617TIP3   OH225811   6.560   2.414   6.912
 8617TIP3    H125812   6.642   2.380   6.952
 8617TIP3    H225813   6.512   2.330   6.899
 8618TIP3   OH225814   7.023   1.952   5.089
 8618TIP3    H125815   6.969   1.878   5.125
 8618TIP3    H225816   7.097   1.904   5.049
 8619TIP3   OH225817   7.451   1.995   5.015
 8619TIP3    H125818   7.488   1.917   5.061
 8619TIP3    H225819   7.497   1.994   4.927
 8620TIP3   OH225820   6.668   1.467   5.315
 8620TIP3    H125821   6.727   1.438   5.386
 8620TIP3    H225822   6.733   1.473   5.241
 8621TIP3   OH225823   7.186   1.671   5.124
 8621TIP3    H125824   7.183   1.680   5.221
 8621TIP3    H225825   7.188   1.573   5.115
 8622TIP3   OH225826   6.872   1.378   5.530
 8622TIP3    H125827   6.847   1.339   5.615
 8622TIP3    H225828   6.910   1.301   5.482
 8623TIP3   OH225829   6.975   1.171   5.374
 8623TIP3    H125830   6.953   1.175   5.279
 8623TIP3    H225831   7.073   1.169   5.369
 8624TIP3   OH225832   6.785   2.228   5.280
 8624TIP3    H125833   6.881   2.220   5.261
 8624TIP3    H225834   6.758   2.281   5.203
 8625TIP3   OH225835   6.265   1.610   5.496
 8625TIP3    H125836   6.360   1.632   5.477
 8625TIP3    H225837   6.258   1.521   5.454
 8626TIP3   OH225838   6.180   2.221   5.913
 8626TIP3    H125839   6.118   2.158   5.870
 8626TIP3    H225840   6.226   2.162   5.977
 8627TIP3   OH225841   6.316   2.066   6.096
 8627TIP3    H125842   6.307   2.000   6.166
 8627TIP3    H225843   6.369   2.133   6.144
 8628TIP3   OH225844   6.511   1.501   6.439
 8628TIP3    H125845   6.500   1.455   6.353
 8628TIP3    H225846   6.605   1.525   6.435
 8629TIP3   OH225847   6.495   1.125   6.538
 8629TIP3    H125848   6.551   1.146   6.461
 8629TIP3    H225849   6.505   1.203   6.594
 8630TIP3   OH225850   7.613   2.339   5.556
 8630TIP3    H125851   7.672   2.334   5.477
 8630TIP3    H225852   7.657   2.407   5.610
 8631TIP3   OH225853   6.708   2.134   6.902
 8631TIP3    H125854   6.611   2.136   6.906
 8631TIP3    H225855   6.731   2.103   6.992
 8632TIP3   OH225856   6.908   2.185   6.471
 8632TIP3    H125857   6.864   2.267   6.442
 8632TIP3    H225858   6.997   2.202   6.432
 8633TIP3   OH225859   6.577   2.430   6.507
 8633TIP3    H125860   6.488   2.467   6.487
 8633TIP3    H225861   6.595   2.473   6.591
 8634TIP3   OH225862   6.816   2.421   6.368
 8634TIP3    H125863   6.728   2.431   6.409
 8634TIP3    H225864   6.799   2.451   6.277
 8635TIP3   OH225865   7.234   2.448   6.160
 8635TIP3    H125866   7.163   2.467   6.096
 8635TIP3    H225867   7.249   2.535   6.201
 8636TIP3   OH225868   7.509   2.355   6.214
 8636TIP3    H125869   7.430   2.403   6.187
 8636TIP3    H225870   7.576   2.427   6.217
 8637TIP3   OH225871   7.668   2.591   6.151
 8637TIP3    H125872   7.692   2.676   6.110
 8637TIP3    H225873   7.703   2.527   6.085
 8638TIP3   OH225874   6.490   2.226   6.251
 8638TIP3    H125875   6.518   2.204   6.342
 8638TIP3    H225876   6.564   2.184   6.202
 8639TIP3   OH225877   6.687   2.101   6.112
 8639TIP3    H125878   6.704   2.015   6.157
 8639TIP3    H225879   6.778   2.138   6.108
 8640TIP3   OH225880   6.951   2.198   6.117
 8640TIP3    H125881   6.977   2.104   6.108
 8640TIP3    H225882   7.001   2.221   6.197
 8641TIP3   OH225883   6.275   2.008   5.650
 8641TIP3    H125884   6.192   1.979   5.608
 8641TIP3    H225885   6.275   2.102   5.622
 8642TIP3   OH225886   7.052   2.186   5.228
 8642TIP3    H125887   7.139   2.211   5.191
 8642TIP3    H225888   7.030   2.112   5.167
 8643TIP3   OH225889   7.761   2.299   5.331
 8643TIP3    H125890   7.784   2.209   5.301
 8643TIP3    H225891   7.717   2.333   5.250
 8644TIP3   OH225892   6.356   2.020   5.282
 8644TIP3    H125893   6.370   2.054   5.371
 8644TIP3    H225894   6.442   1.977   5.262
 8645TIP3   OH225895   7.923   2.507   5.403
 8645TIP3    H125896   7.858   2.442   5.368
 8645TIP3    H225897   8.006   2.464   5.376
 8646TIP3   OH225898   1.712   2.615   6.964
 8646TIP3    H125899   1.682   2.705   6.937
 8646TIP3    H225900   1.636   2.562   6.935
 8647TIP3   OH225901   1.958   2.905   7.030
 8647TIP3    H125902   1.939   2.837   7.097
 8647TIP3    H225903   1.998   2.976   7.082
 8648TIP3   OH225904   1.608   3.371   7.043
 8648TIP3    H125905   1.648   3.306   6.982
 8648TIP3    H225906   1.615   3.324   7.126
 8649TIP3   OH225907   1.949   2.079   7.001
 8649TIP3    H125908   2.017   2.067   7.072
 8649TIP3    H225909   2.001   2.129   6.936
 8650TIP3   OH225910   1.604   2.834   6.829
 8650TIP3    H125911   1.562   2.819   6.743
 8650TIP3    H225912   1.558   2.916   6.858
 8651TIP3   OH225913   2.163   2.095   7.167
 8651TIP3    H125914   2.194   2.115   7.258
 8651TIP3    H225915   2.216   2.161   7.120
 8652TIP3   OH225916   0.604   2.644   6.948
 8652TIP3    H125917   0.554   2.663   6.866
 8652TIP3    H225918   0.619   2.731   6.987
 8653TIP3   OH225919   2.039   3.153   7.177
 8653TIP3    H125920   1.946   3.151   7.208
 8653TIP3    H225921   2.042   3.243   7.139
 8654TIP3   OH225922   1.725   3.204   6.859
 8654TIP3    H125923   1.776   3.121   6.845
 8654TIP3    H225924   1.790   3.268   6.823
 8655TIP3   OH225925   1.872   2.988   6.781
 8655TIP3    H125926   1.831   2.909   6.743
 8655TIP3    H225927   1.910   2.952   6.865
 8656TIP3   OH225928   1.546   2.465   6.792
 8656TIP3    H125929   1.466   2.519   6.775
 8656TIP3    H225930   1.591   2.468   6.706
 8657TIP3   OH225931   1.505   2.253   6.505
 8657TIP3    H125932   1.571   2.304   6.555
 8657TIP3    H225933   1.564   2.190   6.458
 8658TIP3   OH225934   2.485   2.682   7.343
 8658TIP3    H125935   2.391   2.700   7.359
 8658TIP3    H225936   2.502   2.743   7.269
 8659TIP3   OH225937   1.892   2.549   6.767
 8659TIP3    H125938   1.838   2.571   6.847
 8659TIP3    H225939   1.978   2.526   6.808
 8660TIP3   OH225940   1.788   3.168   7.281
 8660TIP3    H125941   1.769   3.256   7.320
 8660TIP3    H225942   1.755   3.105   7.345
 8661TIP3   OH225943   1.736   2.405   6.591
 8661TIP3    H125944   1.792   2.468   6.642
 8661TIP3    H225945   1.763   2.427   6.498
 8662TIP3   OH225946   1.477   3.083   6.867
 8662TIP3    H125947   1.562   3.132   6.874
 8662TIP3    H225948   1.422   3.145   6.818
 8663TIP3   OH225949   2.252   1.642   6.643
 8663TIP3    H125950   2.168   1.662   6.691
 8663TIP3    H225951   2.267   1.726   6.595
 8664TIP3   OH225952   1.005   2.377   6.956
 8664TIP3    H125953   0.927   2.419   6.914
 8664TIP3    H225954   0.968   2.298   6.996
 8665TIP3   OH225955   2.051   3.011   6.189
 8665TIP3    H125956   2.059   3.108   6.174
 8665TIP3    H225957   2.144   2.982   6.177
 8666TIP3   OH225958   1.362   3.326   6.672
 8666TIP3    H125959   1.317   3.310   6.587
 8666TIP3    H225960   1.331   3.416   6.696
 8667TIP3   OH225961   0.807   3.163   7.081
 8667TIP3    H125962   0.864   3.112   7.141
 8667TIP3    H225963   0.743   3.093   7.056
 8668TIP3   OH225964   1.560   3.232   6.307
 8668TIP3    H125965   1.620   3.162   6.272
 8668TIP3    H225966   1.596   3.243   6.398
 8669TIP3   OH225967   1.612   3.280   6.577
 8669TIP3    H125968   1.524   3.289   6.619
 8669TIP3    H225969   1.665   3.244   6.650
 8670TIP3   OH225970   1.813   2.446   6.336
 8670TIP3    H125971   1.776   2.425   6.248
 8670TIP3    H225972   1.894   2.494   6.311
 8671TIP3   OH225973   1.528   1.825   6.637
 8671TIP3    H125974   1.491   1.818   6.727
 8671TIP3    H225975   1.485   1.747   6.597
 8672TIP3   OH225976   1.673   2.250   6.901
 8672TIP3    H125977   1.627   2.330   6.868
 8672TIP3    H225978   1.735   2.229   6.828
 8673TIP3   OH225979   1.841   2.314   7.117
 8673TIP3    H125980   1.762   2.321   7.060
 8673TIP3    H225981   1.865   2.222   7.102
 8674TIP3   OH225982   1.185   1.806   6.605
 8674TIP3    H125983   1.175   1.797   6.701
 8674TIP3    H225984   1.103   1.855   6.583
 8675TIP3   OH225985   1.223   2.038   6.957
 8675TIP3    H125986   1.307   2.083   6.942
 8675TIP3    H225987   1.167   2.071   6.882
 8676TIP3   OH225988   1.064   2.093   6.740
 8676TIP3    H125989   0.989   2.047   6.697
 8676TIP3    H225990   1.114   2.123   6.661
 8677TIP3   OH225991   1.316   2.616   6.742
 8677TIP3    H125992   1.245   2.549   6.730
 8677TIP3    H225993   1.297   2.646   6.834
 8678TIP3   OH225994   2.231   2.817   7.321
 8678TIP3    H125995   2.264   2.882   7.255
 8678TIP3    H225996   2.134   2.826   7.311
 8679TIP3   OH225997   1.775   1.929   6.603
 8679TIP3    H125998   1.679   1.907   6.614
 8679TIP3    H225999   1.779   2.023   6.628
 8680TIP3   OH226000   1.848   2.178   6.701
 8680TIP3    H126001   1.943   2.188   6.722
 8680TIP3    H226002   1.827   2.260   6.653
 8681TIP3   OH226003   1.462   2.766   6.567
 8681TIP3    H126004   1.413   2.851   6.569
 8681TIP3    H226005   1.407   2.711   6.627
 8682TIP3   OH226006   2.286   2.272   6.543
 8682TIP3    H126007   2.225   2.228   6.479
 8682TIP3    H226008   2.280   2.363   6.505
 8683TIP3   OH226009   1.988   3.087   6.454
 8683TIP3    H126010   1.959   3.018   6.515
 8683TIP3    H226011   2.000   3.040   6.370
 8684TIP3   OH226012   1.934   2.701   7.237
 8684TIP3    H126013   1.866   2.643   7.278
 8684TIP3    H226014   1.982   2.633   7.186
 8685TIP3   OH226015   1.101   2.932   7.010
 8685TIP3    H126016   1.132   3.017   6.975
 8685TIP3    H226017   1.008   2.934   6.984
 8686TIP3   OH226018   0.659   2.248   6.753
 8686TIP3    H126019   0.723   2.320   6.771
 8686TIP3    H226020   0.577   2.289   6.782
 8687TIP3   OH226021   1.250   2.700   6.990
 8687TIP3    H126022   1.213   2.789   7.002
 8687TIP3    H226023   1.214   2.654   7.066
 8688TIP3   OH226024   1.024   3.193   6.890
 8688TIP3    H126025   0.945   3.207   6.945
 8688TIP3    H226026   1.069   3.279   6.900
 8689TIP3   OH226027   1.746   2.816   6.355
 8689TIP3    H126028   1.798   2.789   6.434
 8689TIP3    H226029   1.657   2.788   6.382
 8690TIP3   OH226030   2.082   3.287   6.173
 8690TIP3    H126031   2.120   3.361   6.123
 8690TIP3    H226032   2.002   3.331   6.208
 8691TIP3   OH226033   1.906   2.745   6.569
 8691TIP3    H126034   1.894   2.683   6.644
 8691TIP3    H226035   2.003   2.742   6.559
 8692TIP3   OH226036   1.108   2.794   6.356
 8692TIP3    H126037   1.120   2.701   6.329
 8692TIP3    H226038   1.086   2.784   6.450
 8693TIP3   OH226039   1.051   2.800   6.628
 8693TIP3    H126040   1.127   2.771   6.680
 8693TIP3    H226041   1.057   2.898   6.636
 8694TIP3   OH226042   0.787   2.485   6.825
 8694TIP3    H126043   0.724   2.533   6.883
 8694TIP3    H226044   0.805   2.555   6.759
 8695TIP3   OH226045   1.829   1.871   6.875
 8695TIP3    H126046   1.812   1.897   6.782
 8695TIP3    H226047   1.865   1.953   6.914
 8696TIP3   OH226048   1.320   2.996   6.575
 8696TIP3    H126049   1.233   3.021   6.611
 8696TIP3    H226050   1.335   3.069   6.514
 8697TIP3   OH226051   1.510   2.061   6.998
 8697TIP3    H126052   1.570   2.127   6.954
 8697TIP3    H226053   1.563   2.038   7.075
 8698TIP3   OH226054   1.663   1.789   7.071
 8698TIP3    H126055   1.712   1.823   7.147
 8698TIP3    H226056   1.721   1.819   6.997
 8699TIP3   OH226057   1.067   3.073   6.645
 8699TIP3    H126058   1.037   3.141   6.581
 8699TIP3    H226059   1.048   3.119   6.730
 8700TIP3   OH226060   1.173   1.784   6.881
 8700TIP3    H126061   1.177   1.875   6.918
 8700TIP3    H226062   1.267   1.759   6.890
 8701TIP3   OH226063   2.062   2.479   7.137
 8701TIP3    H126064   1.991   2.416   7.160
 8701TIP3    H226065   2.135   2.457   7.199
 8702TIP3   OH226066   0.787   2.700   6.631
 8702TIP3    H126067   0.860   2.764   6.639
 8702TIP3    H226068   0.827   2.639   6.565
 8703TIP3   OH226069   0.745   1.986   6.739
 8703TIP3    H126070   0.723   2.078   6.762
 8703TIP3    H226071   0.671   1.936   6.775
 8704TIP3   OH226072   2.036   3.431   7.113
 8704TIP3    H126073   1.994   3.479   7.039
 8704TIP3    H226074   2.131   3.448   7.092
 8705TIP3   OH226075   0.647   2.931   7.022
 8705TIP3    H126076   0.563   2.958   7.060
 8705TIP3    H226077   0.632   2.957   6.929
 8706TIP3   OH226078   1.271   2.997   6.265
 8706TIP3    H126079   1.216   2.924   6.302
 8706TIP3    H226080   1.347   2.946   6.231
 8707TIP3   OH226081   1.706   3.035   6.179
 8707TIP3    H126082   1.749   2.971   6.239
 8707TIP3    H226083   1.764   3.032   6.100
 8708TIP3   OH226084   0.917   2.510   6.491
 8708TIP3    H126085   0.975   2.480   6.564
 8708TIP3    H226086   0.984   2.517   6.419
 8709TIP3   OH226087   1.434   2.714   6.297
 8709TIP3    H126088   1.434   2.725   6.394
 8709TIP3    H226089   1.433   2.616   6.290
 8710TIP3   OH226090   1.121   2.423   6.706
 8710TIP3    H126091   1.092   2.391   6.794
 8710TIP3    H226092   1.156   2.341   6.666
 8711TIP3   OH226093   1.226   2.213   6.549
 8711TIP3    H126094   1.201   2.222   6.455
 8711TIP3    H226095   1.323   2.215   6.543
 8712TIP3   OH226096   2.047   2.541   6.217
 8712TIP3    H126097   2.027   2.499   6.131
 8712TIP3    H226098   2.014   2.632   6.197
 8713TIP3   OH226099   1.035   3.274   6.458
 8713TIP3    H126100   1.130   3.267   6.437
 8713TIP3    H226101   1.005   3.325   6.381
 8714TIP3   OH226102   0.524   2.646   6.678
 8714TIP3    H126103   0.617   2.671   6.659
 8714TIP3    H226104   0.515   2.561   6.631
 8715TIP3   OH226105   0.448   3.248   7.050
 8715TIP3    H126106   0.373   3.190   7.033
 8715TIP3    H226107   0.452   3.246   7.147
 8716TIP3   OH226108   2.291   3.516   7.068
 8716TIP3    H126109   2.310   3.549   7.157
 8716TIP3    H226110   2.352   3.569   7.013
 8717TIP3   OH226111   2.314   3.550   7.341
 8717TIP3    H126112   2.265   3.464   7.333
 8717TIP3    H226113   2.387   3.519   7.396
 8718TIP3   OH226114   2.185   2.726   6.548
 8718TIP3    H126115   2.249   2.793   6.518
 8718TIP3    H226116   2.233   2.687   6.625
 8719TIP3   OH226117   2.321   2.583   6.740
 8719TIP3    H126118   2.252   2.544   6.798
 8719TIP3    H226119   2.382   2.624   6.805
 8720TIP3   OH226120   2.375   2.999   7.175
 8720TIP3    H126121   2.433   2.936   7.128
 8720TIP3    H226122   2.370   3.074   7.112
 8721TIP3   OH226123   2.216   3.301   7.351
 8721TIP3    H126124   2.190   3.294   7.444
 8721TIP3    H226125   2.163   3.233   7.306
 8722TIP3   OH226126   2.249   2.503   6.397
 8722TIP3    H126127   2.178   2.506   6.329
 8722TIP3    H226128   2.221   2.579   6.452
 8723TIP3   OH226129   2.124   2.173   6.350
 8723TIP3    H126130   2.076   2.215   6.278
 8723TIP3    H226131   2.097   2.080   6.339
 8724TIP3   OH226132   2.127   2.451   6.879
 8724TIP3    H126133   2.121   2.354   6.877
 8724TIP3    H226134   2.107   2.470   6.975
 8725TIP3   OH226135   2.063   1.907   6.336
 8725TIP3    H126136   2.123   1.870   6.403
 8725TIP3    H226137   1.981   1.855   6.349
 8726TIP3   OH226138   2.123   2.171   6.793
 8726TIP3    H126139   2.158   2.080   6.804
 8726TIP3    H226140   2.176   2.202   6.717
 8727TIP3   OH226141   2.293   2.433   7.277
 8727TIP3    H126142   2.389   2.441   7.256
 8727TIP3    H226143   2.291   2.463   7.370
 8728TIP3   OH226144   2.231   1.918   6.825
 8728TIP3    H126145   2.273   1.899   6.912
 8728TIP3    H226146   2.165   1.845   6.822
 8729TIP3   OH226147   2.324   1.849   6.470
 8729TIP3    H126148   2.342   1.772   6.411
 8729TIP3    H226149   2.367   1.920   6.422
 8730TIP3   OH226150   1.874   3.388   6.729
 8730TIP3    H126151   1.926   3.379   6.647
 8730TIP3    H226152   1.925   3.454   6.778
 8731TIP3   OH226153   1.513   3.570   7.326
 8731TIP3    H126154   1.449   3.558   7.254
 8731TIP3    H226155   1.501   3.663   7.348
 8732TIP3   OH226156   1.774   3.439   7.364
 8732TIP3    H126157   1.707   3.497   7.325
 8732TIP3    H226158   1.856   3.485   7.336
 8733TIP3   OH226159   1.962   3.630   7.304
 8733TIP3    H126160   1.957   3.717   7.258
 8733TIP3    H226161   2.004   3.574   7.236
 8734TIP3   OH226162   2.391   1.875   7.039
 8734TIP3    H126163   2.470   1.831   7.002
 8734TIP3    H226164   2.426   1.953   7.084
 8735TIP3   OH226165   2.047   1.711   6.816
 8735TIP3    H126166   1.962   1.756   6.836
 8735TIP3    H226167   2.033   1.627   6.866
 8736TIP3   OH226168   0.509   3.046   6.817
 8736TIP3    H126169   0.462   3.006   6.744
 8736TIP3    H226170   0.503   3.141   6.792
 8737TIP3   OH226171   0.943   1.679   6.783
 8737TIP3    H126172   1.001   1.613   6.739
 8737TIP3    H226173   1.012   1.727   6.833
 8738TIP3   OH226174   1.447   1.811   6.900
 8738TIP3    H126175   1.515   1.778   6.961
 8738TIP3    H226176   1.448   1.905   6.923
 8739TIP3   OH226177   1.303   3.231   6.405
 8739TIP3    H126178   1.390   3.254   6.368
 8739TIP3    H226179   1.279   3.158   6.344
 8740TIP3   OH226180   2.021   3.354   6.497
 8740TIP3    H126181   2.014   3.256   6.487
 8740TIP3    H226182   1.974   3.385   6.417
 8741TIP3   OH226183   0.608   3.065   6.462
 8741TIP3    H126184   0.621   3.110   6.546
 8741TIP3    H226185   0.695   3.023   6.446
 8742TIP3   OH226186   3.512   2.868   6.447
 8742TIP3    H126187   3.483   2.959   6.428
 8742TIP3    H226188   3.436   2.818   6.412
 8743TIP3   OH226189   3.513   2.871   6.833
 8743TIP3    H126190   3.547   2.848   6.922
 8743TIP3    H226191   3.473   2.787   6.806
 8744TIP3   OH226192   2.812   2.760   7.188
 8744TIP3    H126193   2.839   2.692   7.253
 8744TIP3    H226194   2.886   2.821   7.197
 8745TIP3   OH226195   3.759   3.171   6.515
 8745TIP3    H126196   3.742   3.107   6.585
 8745TIP3    H226197   3.788   3.249   6.566
 8746TIP3   OH226198   2.786   3.174   6.920
 8746TIP3    H126199   2.775   3.077   6.922
 8746TIP3    H226200   2.883   3.181   6.907
 8747TIP3   OH226201   2.508   2.348   6.695
 8747TIP3    H126202   2.513   2.438   6.730
 8747TIP3    H226203   2.418   2.349   6.655
 8748TIP3   OH226204   2.558   2.666   6.865
 8748TIP3    H126205   2.616   2.594   6.897
 8748TIP3    H226206   2.619   2.726   6.821
 8749TIP3   OH226207   3.407   3.633   6.530
 8749TIP3    H126208   3.448   3.562   6.477
 8749TIP3    H226209   3.401   3.592   6.617
 8750TIP3   OH226210   3.310   3.095   6.880
 8750TIP3    H126211   3.353   3.020   6.836
 8750TIP3    H226212   3.392   3.144   6.907
 8751TIP3   OH226213   4.327   2.414   6.879
 8751TIP3    H126214   4.355   2.498   6.922
 8751TIP3    H226215   4.347   2.433   6.786
 8752TIP3   OH226216   3.720   2.594   6.910
 8752TIP3    H126217   3.766   2.511   6.931
 8752TIP3    H226218   3.690   2.577   6.818
 8753TIP3   OH226219   3.056   2.254   6.875
 8753TIP3    H126220   3.035   2.326   6.812
 8753TIP3    H226221   3.003   2.182   6.835
 8754TIP3   OH226222   3.759   2.349   6.496
 8754TIP3    H126223   3.830   2.334   6.562
 8754TIP3    H226224   3.812   2.383   6.421
 8755TIP3   OH226225   2.694   2.451   6.969
 8755TIP3    H126226   2.781   2.439   7.012
 8755TIP3    H226227   2.661   2.360   6.971
 8756TIP3   OH226228   3.139   2.653   6.775
 8756TIP3    H126229   3.235   2.635   6.789
 8756TIP3    H226230   3.107   2.565   6.749
 8757TIP3   OH226231   4.397   2.623   7.051
 8757TIP3    H126232   4.314   2.670   7.031
 8757TIP3    H226233   4.422   2.664   7.136
 8758TIP3   OH226234   3.052   2.239   7.311
 8758TIP3    H126235   2.996   2.285   7.246
 8758TIP3    H226236   2.995   2.234   7.388
 8759TIP3   OH226237   3.397   3.087   6.318
 8759TIP3    H126238   3.362   3.080   6.228
 8759TIP3    H226239   3.355   3.171   6.348
 8760TIP3   OH226240   3.163   3.017   7.102
 8760TIP3    H126241   3.103   3.085   7.139
 8760TIP3    H226242   3.206   3.065   7.028
 8761TIP3   OH226243   3.964   2.352   6.675
 8761TIP3    H126244   3.947   2.312   6.761
 8761TIP3    H226245   4.015   2.432   6.699
 8762TIP3   OH226246   2.929   2.359   7.096
 8762TIP3    H126247   2.989   2.433   7.119
 8762TIP3    H226248   2.978   2.318   7.021
 8763TIP3   OH226249   2.989   3.211   7.207
 8763TIP3    H126250   2.962   3.295   7.164
 8763TIP3    H226251   2.911   3.196   7.265
 8764TIP3   OH226252   2.385   2.899   6.438
 8764TIP3    H126253   2.344   2.928   6.354
 8764TIP3    H226254   2.416   2.985   6.474
 8765TIP3   OH226255   3.825   3.416   6.676
 8765TIP3    H126256   3.735   3.408   6.716
 8765TIP3    H226257   3.817   3.503   6.632
 8766TIP3   OH226258   4.119   2.309   7.041
 8766TIP3    H126259   4.032   2.340   7.010
 8766TIP3    H226260   4.180   2.345   6.973
 8767TIP3   OH226261   3.409   1.954   7.022
 8767TIP3    H126262   3.395   1.860   7.046
 8767TIP3    H226263   3.332   1.996   7.066
 8768TIP3   OH226264   3.524   3.459   6.349
 8768TIP3    H126265   3.574   3.376   6.330
 8768TIP3    H226266   3.587   3.524   6.312
 8769TIP3   OH226267   3.668   3.243   6.265
 8769TIP3    H126268   3.638   3.162   6.221
 8769TIP3    H226269   3.706   3.208   6.348
 8770TIP3   OH226270   4.051   3.325   7.024
 8770TIP3    H126271   4.039   3.249   6.963
 8770TIP3    H226272   4.032   3.401   6.964
 8771TIP3   OH226273   3.343   2.720   6.282
 8771TIP3    H126274   3.265   2.776   6.262
 8771TIP3    H226275   3.389   2.720   6.196
 8772TIP3   OH226276   3.302   2.506   5.994
 8772TIP3    H126277   3.366   2.560   6.043
 8772TIP3    H226278   3.362   2.445   5.947
 8773TIP3   OH226279   4.246   2.965   6.869
 8773TIP3    H126280   4.163   3.016   6.873
 8773TIP3    H226281   4.278   2.991   6.779
 8774TIP3   OH226282   3.691   2.803   6.251
 8774TIP3    H126283   3.637   2.827   6.329
 8774TIP3    H226284   3.777   2.781   6.294
 8775TIP3   OH226285   3.924   2.841   7.170
 8775TIP3    H126286   3.924   2.922   7.224
 8775TIP3    H226287   3.840   2.851   7.122
 8776TIP3   OH226288   2.924   2.798   6.673
 8776TIP3    H126289   2.884   2.740   6.605
 8776TIP3    H226290   3.004   2.747   6.700
 8777TIP3   OH226291   3.051   3.206   6.819
 8777TIP3    H126292   3.034   3.180   6.727
 8777TIP3    H226293   3.141   3.171   6.835
 8778TIP3   OH226294   3.061   2.774   7.020
 8778TIP3    H126295   3.097   2.752   6.932
 8778TIP3    H226296   3.104   2.859   7.041
 8779TIP3   OH226297   3.585   3.410   6.800
 8779TIP3    H126298   3.572   3.492   6.851
 8779TIP3    H226299   3.567   3.340   6.866
 8780TIP3   OH226300   3.202   3.322   7.343
 8780TIP3    H126301   3.141   3.386   7.387
 8780TIP3    H226302   3.137   3.270   7.291
 8781TIP3   OH226303   3.529   2.662   6.078
 8781TIP3    H126304   3.588   2.723   6.127
 8781TIP3    H226305   3.556   2.682   5.985
 8782TIP3   OH226306   2.971   2.888   7.417
 8782TIP3    H126307   2.984   2.973   7.459
 8782TIP3    H226308   2.879   2.869   7.446
 8783TIP3   OH226309   3.276   3.339   6.356
 8783TIP3    H126310   3.359   3.390   6.362
 8783TIP3    H226311   3.217   3.401   6.311
 8784TIP3   OH226312   3.003   3.497   7.410
 8784TIP3    H126313   2.968   3.497   7.318
 8784TIP3    H226314   2.925   3.479   7.463
 8785TIP3   OH226315   4.047   1.900   6.128
 8785TIP3    H126316   3.966   1.924   6.176
 8785TIP3    H226317   4.063   1.982   6.077
 8786TIP3   OH226318   2.785   2.633   6.480
 8786TIP3    H126319   2.735   2.698   6.427
 8786TIP3    H226320   2.731   2.555   6.465
 8787TIP3   OH226321   3.846   3.268   5.677
 8787TIP3    H126322   3.854   3.365   5.660
 8787TIP3    H226323   3.940   3.240   5.664
 8788TIP3   OH226324   2.575   3.034   7.375
 8788TIP3    H126325   2.502   3.011   7.315
 8788TIP3    H226326   2.600   2.949   7.415
 8789TIP3   OH226327   2.424   3.226   7.005
 8789TIP3    H126328   2.520   3.226   7.004
 8789TIP3    H226329   2.405   3.301   7.064
 8790TIP3   OH226330   4.291   3.675   7.074
 8790TIP3    H126331   4.287   3.578   7.088
 8790TIP3    H226332   4.207   3.702   7.117
 8791TIP3   OH226333   3.396   3.455   7.205
 8791TIP3    H126334   3.390   3.549   7.234
 8791TIP3    H226335   3.325   3.414   7.259
 8792TIP3   OH226336   3.158   3.583   6.159
 8792TIP3    H126337   3.114   3.569   6.073
 8792TIP3    H226338   3.127   3.672   6.184
 8793TIP3   OH226339   2.594   3.435   6.543
 8793TIP3    H126340   2.642   3.427   6.629
 8793TIP3    H226341   2.538   3.356   6.546
 8794TIP3   OH226342   3.356   3.488   5.795
 8794TIP3    H126343   3.415   3.419   5.757
 8794TIP3    H226344   3.393   3.499   5.885
 8795TIP3   OH226345   3.409   3.536   6.065
 8795TIP3    H126346   3.320   3.546   6.106
 8795TIP3    H226347   3.462   3.503   6.139
 8796TIP3   OH226348   4.184   2.801   7.344
 8796TIP3    H126349   4.094   2.815   7.312
 8796TIP3    H226350   4.194   2.704   7.334
 8797TIP3   OH226351   2.779   3.208   7.389
 8797TIP3    H126352   2.794   3.189   7.483
 8797TIP3    H226353   2.700   3.150   7.374
 8798TIP3   OH226354   3.166   2.046   7.134
 8798TIP3    H126355   3.076   2.016   7.111
 8798TIP3    H226356   3.144   2.128   7.184
 8799TIP3   OH226357   3.718   2.154   7.329
 8799TIP3    H126358   3.786   2.126   7.394
 8799TIP3    H226359   3.634   2.135   7.375
 8800TIP3   OH226360   3.943   2.578   7.264
 8800TIP3    H126361   3.899   2.575   7.352
 8800TIP3    H226362   3.923   2.668   7.233
 8801TIP3   OH226363   3.607   2.701   5.823
 8801TIP3    H126364   3.572   2.682   5.734
 8801TIP3    H226365   3.689   2.749   5.799
 8802TIP3   OH226366   3.318   2.080   6.127
 8802TIP3    H126367   3.283   2.076   6.218
 8802TIP3    H226368   3.279   1.999   6.090
 8803TIP3   OH226369   3.107   2.553   7.173
 8803TIP3    H126370   3.060   2.576   7.256
 8803TIP3    H226371   3.091   2.635   7.119
 8804TIP3   OH226372   2.990   2.436   6.682
 8804TIP3    H126373   2.918   2.492   6.650
 8804TIP3    H226374   3.006   2.381   6.602
 8805TIP3   OH226375   3.479   2.518   6.415
 8805TIP3    H126376   3.430   2.591   6.371
 8805TIP3    H226377   3.536   2.486   6.341
 8806TIP3   OH226378   3.644   2.784   7.514
 8806TIP3    H126379   3.637   2.778   7.610
 8806TIP3    H226380   3.740   2.807   7.507
 8807TIP3   OH226381   3.634   2.547   6.653
 8807TIP3    H126382   3.574   2.578   6.583
 8807TIP3    H226383   3.670   2.468   6.606
 8808TIP3   OH226384   2.925   2.586   7.382
 8808TIP3    H126385   2.971   2.640   7.449
 8808TIP3    H226386   2.863   2.535   7.436
 8809TIP3   OH226387   2.975   2.055   6.091
 8809TIP3    H126388   2.964   2.056   6.188
 8809TIP3    H226389   2.899   2.109   6.063
 8810TIP3   OH226390   2.584   2.142   6.890
 8810TIP3    H126391   2.626   2.146   6.980
 8810TIP3    H226392   2.549   2.051   6.890
 8811TIP3   OH226393   2.525   2.131   6.519
 8811TIP3    H126394   2.557   2.143   6.427
 8811TIP3    H226395   2.439   2.179   6.510
 8812TIP3   OH226396   3.641   2.794   7.072
 8812TIP3    H126397   3.677   2.723   7.015
 8812TIP3    H226398   3.612   2.740   7.149
 8813TIP3   OH226399   3.322   2.258   6.749
 8813TIP3    H126400   3.244   2.256   6.808
 8813TIP3    H226401   3.396   2.250   6.810
 8814TIP3   OH226402   3.019   2.307   6.443
 8814TIP3    H126403   3.113   2.324   6.422
 8814TIP3    H226404   2.973   2.331   6.360
 8815TIP3   OH226405   3.812   2.334   6.950
 8815TIP3    H126406   3.779   2.350   7.041
 8815TIP3    H226407   3.744   2.274   6.916
 8816TIP3   OH226408   2.866   2.343   6.220
 8816TIP3    H126409   2.799   2.296   6.166
 8816TIP3    H226410   2.920   2.384   6.149
 8817TIP3   OH226411   3.985   4.021   7.169
 8817TIP3    H126412   3.981   4.049   7.076
 8817TIP3    H226413   4.062   4.072   7.201
 8818TIP3   OH226414   3.401   2.588   6.842
 8818TIP3    H126415   3.476   2.552   6.793
 8818TIP3    H226416   3.409   2.544   6.929
 8819TIP3   OH226417   2.891   2.086   6.724
 8819TIP3    H126418   2.869   2.004   6.773
 8819TIP3    H226419   2.945   2.053   6.651
 8820TIP3   OH226420   3.376   2.487   7.137
 8820TIP3    H126421   3.287   2.527   7.148
 8820TIP3    H226422   3.434   2.550   7.184
 8821TIP3   OH226423   3.113   2.872   6.230
 8821TIP3    H126424   3.040   2.808   6.217
 8821TIP3    H226425   3.093   2.907   6.320
 8822TIP3   OH226426   4.013   3.109   6.856
 8822TIP3    H126427   4.037   3.162   6.777
 8822TIP3    H226428   3.928   3.068   6.829
 8823TIP3   OH226429   3.571   2.181   6.100
 8823TIP3    H126430   3.475   2.164   6.105
 8823TIP3    H226431   3.579   2.277   6.120
 8824TIP3   OH226432   3.507   3.190   7.229
 8824TIP3    H126433   3.532   3.174   7.321
 8824TIP3    H226434   3.473   3.281   7.231
 8825TIP3   OH226435   3.639   2.434   6.198
 8825TIP3    H126436   3.736   2.442   6.213
 8825TIP3    H226437   3.619   2.515   6.146
 8826TIP3   OH226438   2.801   2.889   6.904
 8826TIP3    H126439   2.846   2.864   6.820
 8826TIP3    H226440   2.851   2.839   6.970
 8827TIP3   OH226441   3.260   3.023   6.053
 8827TIP3    H126442   3.210   3.109   6.055
 8827TIP3    H226443   3.205   2.969   6.115
 8828TIP3   OH226444   3.402   2.943   7.512
 8828TIP3    H126445   3.347   2.871   7.477
 8828TIP3    H226446   3.489   2.902   7.513
 8829TIP3   OH226447   3.671   3.448   7.126
 8829TIP3    H126448   3.574   3.450   7.139
 8829TIP3    H226449   3.701   3.499   7.204
 8830TIP3   OH226450   4.080   2.528   6.032
 8830TIP3    H126451   4.018   2.484   5.969
 8830TIP3    H226452   4.077   2.618   5.993
 8831TIP3   OH226453   4.302   3.383   7.112
 8831TIP3    H126454   4.204   3.378   7.103
 8831TIP3    H226455   4.328   3.353   7.022
 8832TIP3   OH226456   3.785   3.343   5.941
 8832TIP3    H126457   3.755   3.273   6.000
 8832TIP3    H226458   3.797   3.298   5.855
 8833TIP3   OH226459   3.779   2.973   6.773
 8833TIP3    H126460   3.685   2.951   6.787
 8833TIP3    H226461   3.811   2.893   6.729
 8834TIP3   OH226462   2.910   3.203   6.532
 8834TIP3    H126463   2.909   3.283   6.476
 8834TIP3    H226464   2.816   3.186   6.543
 8835TIP3   OH226465   2.478   2.502   6.240
 8835TIP3    H126466   2.518   2.590   6.257
 8835TIP3    H226467   2.397   2.507   6.297
 8836TIP3   OH226468   3.036   2.962   6.472
 8836TIP3    H126469   3.007   3.054   6.489
 8836TIP3    H226470   3.004   2.917   6.551
 8837TIP3   OH226471   3.177   3.543   6.999
 8837TIP3    H126472   3.218   3.617   6.948
 8837TIP3    H226473   3.255   3.507   7.044
 8838TIP3   OH226474   2.827   3.439   6.383
 8838TIP3    H126475   2.741   3.450   6.428
 8838TIP3    H226476   2.860   3.531   6.385
 8839TIP3   OH226477   3.560   3.177   6.962
 8839TIP3    H126478   3.550   3.174   7.059
 8839TIP3    H226479   3.644   3.130   6.950
 8840TIP3   OH226480   3.542   3.069   5.843
 8840TIP3    H126481   3.594   3.044   5.923
 8840TIP3    H226482   3.453   3.046   5.871
 8841TIP3   OH226483   3.811   3.708   7.006
 8841TIP3    H126484   3.729   3.656   6.996
 8841TIP3    H226485   3.799   3.775   6.934
 8842TIP3   OH226486   3.877   3.544   5.659
 8842TIP3    H126487   3.906   3.614   5.599
 8842TIP3    H226488   3.798   3.588   5.697
 8843TIP3   OH226489   3.702   3.004   6.060
 8843TIP3    H126490   3.692   2.937   6.130
 8843TIP3    H226491   3.799   3.001   6.045
 8844TIP3   OH226492   2.612   3.407   7.152
 8844TIP3    H126493   2.665   3.336   7.191
 8844TIP3    H226494   2.649   3.486   7.193
 8845TIP3   OH226495   2.905   3.051   5.842
 8845TIP3    H126496   2.918   2.958   5.816
 8845TIP3    H226497   2.883   3.041   5.937
 8846TIP3   OH226498   2.849   3.056   6.115
 8846TIP3    H126499   2.927   3.034   6.168
 8846TIP3    H226500   2.849   3.154   6.120
 8847TIP3   OH226501   2.586   2.751   6.319
 8847TIP3    H126502   2.519   2.796   6.375
 8847TIP3    H226503   2.597   2.818   6.249
 8848TIP3   OH226504   3.736   2.397   7.208
 8848TIP3    H126505   3.820   2.432   7.242
 8848TIP3    H226506   3.727   2.311   7.256
 8849TIP3   OH226507   3.618   2.133   6.378
 8849TIP3    H126508   3.603   2.155   6.284
 8849TIP3    H226509   3.656   2.217   6.413
 8850TIP3   OH226510   3.116   3.251   6.062
 8850TIP3    H126511   3.029   3.277   6.097
 8850TIP3    H226512   3.133   3.327   6.003
 8851TIP3   OH226513   3.299   2.319   6.478
 8851TIP3    H126514   3.363   2.391   6.460
 8851TIP3    H226515   3.308   2.310   6.576
 8852TIP3   OH226516   3.574   2.633   7.282
 8852TIP3    H126517   3.597   2.678   7.366
 8852TIP3    H226518   3.630   2.553   7.282
 8853TIP3   OH226519   3.446   2.036   6.575
 8853TIP3    H126520   3.447   2.111   6.637
 8853TIP3    H226521   3.508   2.071   6.506
 8854TIP3   OH226522   2.861   3.327   6.131
 8854TIP3    H126523   2.832   3.397   6.069
 8854TIP3    H226524   2.845   3.371   6.218
 8855TIP3   OH226525   2.958   2.045   6.368
 8855TIP3    H126526   2.961   2.137   6.401
 8855TIP3    H226527   3.053   2.023   6.375
 8856TIP3   OH226528   4.210   2.532   7.269
 8856TIP3    H126529   4.112   2.530   7.269
 8856TIP3    H226530   4.228   2.500   7.180
 8857TIP3   OH226531   3.864   2.728   6.653
 8857TIP3    H126532   3.788   2.669   6.666
 8857TIP3    H226533   3.936   2.682   6.701
 8858TIP3   OH226534   2.578   2.953   6.122
 8858TIP3    H126535   2.645   3.023   6.131
 8858TIP3    H226536   2.622   2.897   6.054
 8859TIP3   OH226537   2.506   2.227   6.265
 8859TIP3    H126538   2.516   2.324   6.259
 8859TIP3    H226539   2.441   2.211   6.195
 8860TIP3   OH226540   3.834   3.685   6.600
 8860TIP3    H126541   3.791   3.733   6.525
 8860TIP3    H226542   3.928   3.704   6.579
 8861TIP3   OH226543   2.907   1.941   7.127
 8861TIP3    H126544   2.879   1.916   7.037
 8861TIP3    H226545   2.899   1.856   7.174
 8862TIP3   OH226546   2.442   3.164   6.504
 8862TIP3    H126547   2.383   3.198   6.573
 8862TIP3    H226548   2.409   3.211   6.424
 8863TIP3   OH226549   2.594   3.701   7.594
 8863TIP3    H126550   2.678   3.730   7.635
 8863TIP3    H226551   2.623   3.633   7.533
 8864TIP3   OH226552   3.102   3.695   7.583
 8864TIP3    H126553   3.193   3.728   7.582
 8864TIP3    H226554   3.096   3.642   7.502
 8865TIP3   OH226555   3.067   3.254   5.750
 8865TIP3    H126556   3.013   3.180   5.788
 8865TIP3    H226557   3.143   3.205   5.714
 8866TIP3   OH226558   3.728   3.574   7.367
 8866TIP3    H126559   3.730   3.512   7.443
 8866TIP3    H226560   3.802   3.635   7.388
 8867TIP3   OH226561   3.502   3.292   5.664
 8867TIP3    H126562   3.550   3.231   5.723
 8867TIP3    H226563   3.556   3.292   5.583
 8868TIP3   OH226564   2.713   2.768   5.977
 8868TIP3    H126565   2.772   2.743   6.049
 8868TIP3    H226566   2.778   2.774   5.903
 8869TIP3   OH226567   3.349   3.215   7.548
 8869TIP3    H126568   3.304   3.234   7.463
 8869TIP3    H226569   3.373   3.120   7.537
 8870TIP3   OH226570   3.228   2.970   5.784
 8870TIP3    H126571   3.230   2.982   5.881
 8870TIP3    H226572   3.227   2.872   5.778
 8871TIP3   OH226573   3.832   3.221   7.158
 8871TIP3    H126574   3.910   3.262   7.115
 8871TIP3    H226575   3.765   3.291   7.143
 8872TIP3   OH226576   2.919   2.675   6.195
 8872TIP3    H126577   2.893   2.627   6.275
 8872TIP3    H226578   2.959   2.605   6.141
 8873TIP3   OH226579   3.203   2.734   7.418
 8873TIP3    H126580   3.123   2.790   7.411
 8873TIP3    H226581   3.254   2.764   7.339
 8874TIP3   OH226582   3.024   2.471   6.038
 8874TIP3    H126583   2.998   2.479   5.943
 8874TIP3    H226584   3.121   2.472   6.030
 8875TIP3   OH226585   3.717   3.141   7.552
 8875TIP3    H126586   3.803   3.134   7.508
 8875TIP3    H226587   3.711   3.055   7.596
 8876TIP3   OH226588   3.841   2.797   5.705
 8876TIP3    H126589   3.822   2.755   5.618
 8876TIP3    H226590   3.809   2.888   5.685
 8877TIP3   OH226591   3.321   2.514   7.540
 8877TIP3    H126592   3.342   2.452   7.468
 8877TIP3    H226593   3.284   2.590   7.491
 8878TIP3   OH226594   3.318   2.308   7.343
 8878TIP3    H126595   3.339   2.358   7.262
 8878TIP3    H226596   3.221   2.295   7.335
 8879TIP3   OH226597   3.341   2.842   7.217
 8879TIP3    H126598   3.429   2.869   7.186
 8879TIP3    H226599   3.284   2.913   7.179
 8880TIP3   OH226600   3.901   2.838   7.578
 8880TIP3    H126601   3.938   2.771   7.639
 8880TIP3    H226602   3.971   2.905   7.576
 8881TIP3   OH226603   3.965   3.070   7.337
 8881TIP3    H126604   3.906   3.125   7.280
 8881TIP3    H226605   4.053   3.094   7.299
 8882TIP3   OH226606   3.458   2.075   7.383
 8882TIP3    H126607   3.403   2.153   7.363
 8882TIP3    H226608   3.393   2.002   7.369
 8883TIP3   OH226609   3.825   2.523   7.504
 8883TIP3    H126610   3.740   2.503   7.543
 8883TIP3    H226611   3.881   2.539   7.582
 8884TIP3   OH226612   2.831   3.528   5.943
 8884TIP3    H126613   2.926   3.521   5.926
 8884TIP3    H226614   2.804   3.581   5.866
 8885TIP3   OH226615   2.309   2.913   6.158
 8885TIP3    H126616   2.403   2.934   6.143
 8885TIP3    H226617   2.302   2.824   6.116
 8886TIP3   OH226618   2.227   3.524   6.574
 8886TIP3    H126619   2.160   3.464   6.535
 8886TIP3    H226620   2.270   3.463   6.638
 8887TIP3   OH226621   2.363   3.369   6.759
 8887TIP3    H126622   2.350   3.302   6.828
 8887TIP3    H226623   2.412   3.436   6.809
 8888TIP3   OH226624   4.090   3.770   6.562
 8888TIP3    H126625   4.113   3.809   6.648
 8888TIP3    H226626   4.148   3.820   6.502
 8889TIP3   OH226627   4.113   3.796   6.844
 8889TIP3    H126628   4.071   3.708   6.839
 8889TIP3    H226629   4.191   3.775   6.897
 8890TIP3   OH226630   4.168   3.473   7.410
 8890TIP3    H126631   4.092   3.483   7.472
 8890TIP3    H226632   4.209   3.562   7.415
 8891TIP3   OH226633   3.980   2.984   6.034
 8891TIP3    H126634   4.044   3.051   6.002
 8891TIP3    H226635   4.026   2.948   6.112
 8892TIP3   OH226636   4.109   2.851   6.238
 8892TIP3    H126637   4.041   2.812   6.297
 8892TIP3    H226638   4.173   2.889   6.301
 8893TIP3   OH226639   4.165   3.248   6.671
 8893TIP3    H126640   4.214   3.180   6.621
 8893TIP3    H226641   4.162   3.322   6.608
 8894TIP3   OH226642   3.990   3.545   6.865
 8894TIP3    H126643   3.918   3.590   6.914
 8894TIP3    H226644   3.941   3.501   6.792
 8895TIP3   OH226645   4.045   2.761   5.884
 8895TIP3    H126646   3.973   2.763   5.816
 8895TIP3    H226647   4.016   2.837   5.938
 8896TIP3   OH226648   3.916   2.433   5.838
 8896TIP3    H126649   3.871   2.472   5.762
 8896TIP3    H226650   3.892   2.339   5.827
 8897TIP3   OH226651   3.919   2.713   6.384
 8897TIP3    H126652   3.927   2.617   6.376
 8897TIP3    H226653   3.904   2.725   6.481
 8898TIP3   OH226654   2.553   2.805   7.108
 8898TIP3    H126655   2.548   2.762   7.021
 8898TIP3    H226656   2.648   2.795   7.130
 8899TIP3   OH226657   4.212   3.137   7.239
 8899TIP3    H126658   4.284   3.070   7.228
 8899TIP3    H226659   4.238   3.206   7.176
 8900TIP3   OH226660   4.396   2.938   7.247
 8900TIP3    H126661   4.322   2.889   7.289
 8900TIP3    H226662   4.469   2.876   7.266
 8901TIP3   OH226663   3.859   2.167   5.821
 8901TIP3    H126664   3.931   2.135   5.879
 8901TIP3    H226665   3.784   2.108   5.842
 8902TIP3   OH226666   3.918   2.428   6.277
 8902TIP3    H126667   3.959   2.339   6.290
 8902TIP3    H226668   3.975   2.461   6.205
 8903TIP3   OH226669   4.077   2.596   6.774
 8903TIP3    H126670   4.162   2.621   6.732
 8903TIP3    H226671   4.091   2.636   6.862
 8904TIP3   OH226672   4.148   2.744   7.003
 8904TIP3    H126673   4.073   2.778   7.055
 8904TIP3    H226674   4.181   2.825   6.959
 8905TIP3   OH226675   4.580   2.320   7.563
 8905TIP3    H126676   4.655   2.271   7.522
 8905TIP3    H226677   4.559   2.385   7.493
 8906TIP3   OH226678   4.026   2.178   6.316
 8906TIP3    H126679   4.074   2.161   6.399
 8906TIP3    H226680   3.965   2.101   6.315
 8907TIP3   OH226681   2.727   2.151   7.115
 8907TIP3    H126682   2.792   2.082   7.137
 8907TIP3    H226683   2.774   2.231   7.144
 8908TIP3   OH226684   2.567   2.452   7.222
 8908TIP3    H126685   2.604   2.484   7.138
 8908TIP3    H226686   2.561   2.533   7.276
 8909TIP3   OH226687   4.467   2.473   7.365
 8909TIP3    H126688   4.382   2.517   7.386
 8909TIP3    H226689   4.435   2.401   7.308
 8910TIP3   OH226690   4.104   2.108   5.952
 8910TIP3    H126691   4.143   2.040   5.894
 8910TIP3    H226692   4.170   2.180   5.948
 8911TIP3   OH226693   2.497   1.952   6.715
 8911TIP3    H126694   2.408   1.919   6.738
 8911TIP3    H226695   2.484   1.984   6.624
 8912TIP3   OH226696   3.672   3.642   6.217
 8912TIP3    H126697   3.722   3.634   6.133
 8912TIP3    H226698   3.721   3.712   6.262
 8913TIP3   OH226699   2.949   3.483   7.142
 8913TIP3    H126700   2.904   3.561   7.102
 8913TIP3    H226701   3.036   3.495   7.099
 8914TIP3   OH226702   3.389   3.723   7.280
 8914TIP3    H126703   3.433   3.721   7.367
 8914TIP3    H226704   3.453   3.776   7.228
 8915TIP3   OH226705   3.571   3.876   7.147
 8915TIP3    H126706   3.643   3.830   7.102
 8915TIP3    H226707   3.622   3.935   7.207
 8916TIP3   OH226708   4.368   2.238   7.242
 8916TIP3    H126709   4.279   2.233   7.204
 8916TIP3    H226710   4.400   2.146   7.231
 8917TIP3   OH226711   2.629   3.733   7.187
 8917TIP3    H126712   2.540   3.759   7.153
 8917TIP3    H226713   2.645   3.807   7.249
 8918TIP3   OH226714   2.859   3.714   7.032
 8918TIP3    H126715   2.772   3.727   7.075
 8918TIP3    H226716   2.842   3.748   6.941
 8919TIP3   OH226717   3.286   3.741   6.831
 8919TIP3    H126718   3.219   3.760   6.763
 8919TIP3    H226719   3.299   3.829   6.871
 8920TIP3   OH226720   3.557   3.679   6.882
 8920TIP3    H126721   3.464   3.700   6.862
 8920TIP3    H226722   3.603   3.752   6.837
 8921TIP3   OH226723   3.759   3.871   6.793
 8921TIP3    H126724   3.747   3.956   6.747
 8921TIP3    H226725   3.788   3.813   6.719
 8922TIP3   OH226726   2.537   3.532   6.913
 8922TIP3    H126727   2.557   3.500   7.003
 8922TIP3    H226728   2.609   3.487   6.863
 8923TIP3   OH226729   2.732   3.402   6.777
 8923TIP3    H126730   2.749   3.319   6.827
 8923TIP3    H226731   2.823   3.439   6.772
 8924TIP3   OH226732   2.998   3.495   6.782
 8924TIP3    H126733   3.031   3.404   6.769
 8924TIP3    H226734   3.047   3.519   6.863
 8925TIP3   OH226735   3.567   2.150   6.858
 8925TIP3    H126736   3.529   2.079   6.912
 8925TIP3    H226737   3.647   2.107   6.820
 8926TIP3   OH226738   4.092   2.031   6.768
 8926TIP3    H126739   4.129   2.083   6.694
 8926TIP3    H226740   3.998   2.054   6.764
 8927TIP3   OH226741   4.190   2.129   6.533
 8927TIP3    H126742   4.264   2.079   6.494
 8927TIP3    H226743   4.223   2.221   6.519
 8928TIP3   OH226744   2.820   1.863   6.876
 8928TIP3    H126745   2.729   1.827   6.876
 8928TIP3    H226746   2.871   1.779   6.873
 8929TIP3   OH226747   2.622   1.726   6.530
 8929TIP3    H126748   2.649   1.781   6.454
 8929TIP3    H226749   2.585   1.791   6.592
 8930TIP3   OH226750   3.267   1.894   6.767
 8930TIP3    H126751   3.317   1.942   6.699
 8930TIP3    H226752   3.304   1.931   6.848
 8931TIP3   OH226753   3.806   2.042   6.746
 8931TIP3    H126754   3.812   2.003   6.658
 8931TIP3    H226755   3.795   1.962   6.802
 8932TIP3   OH226756   3.842   1.965   6.308
 8932TIP3    H126757   3.756   2.009   6.323
 8932TIP3    H226758   3.827   1.879   6.353
 8933TIP3   OH226759   2.325   3.307   6.307
 8933TIP3    H126760   2.239   3.274   6.275
 8933TIP3    H226761   2.317   3.400   6.283
 8934TIP3   OH226762   2.727   1.887   6.297
 8934TIP3    H126763   2.772   1.824   6.236
 8934TIP3    H226764   2.803   1.941   6.327
 8935TIP3   OH226765   3.236   2.068   6.391
 8935TIP3    H126766   3.298   2.021   6.450
 8935TIP3    H226767   3.257   2.160   6.416
 8936TIP3   OH226768   3.098   3.487   5.893
 8936TIP3    H126769   3.185   3.512   5.855
 8936TIP3    H226770   3.076   3.414   5.831
 8937TIP3   OH226771   3.817   3.611   5.985
 8937TIP3    H126772   3.809   3.513   5.973
 8937TIP3    H226773   3.770   3.643   5.905
 8938TIP3   OH226774   2.399   3.324   5.943
 8938TIP3    H126775   2.404   3.349   6.036
 8938TIP3    H226776   2.487   3.282   5.928
 8939TIP3   OH226777   4.042   3.752   7.168
 8939TIP3    H126778   3.963   3.723   7.116
 8939TIP3    H226779   4.024   3.848   7.174
 8940TIP3   OH226780   5.309   3.124   5.935
 8940TIP3    H126781   5.280   3.216   5.915
 8940TIP3    H226782   5.232   3.075   5.900
 8941TIP3   OH226783   5.312   3.125   6.318
 8941TIP3    H126784   5.344   3.103   6.408
 8941TIP3    H226785   5.267   3.044   6.291
 8942TIP3   OH226786   4.607   3.019   6.683
 8942TIP3    H126787   4.637   2.950   6.744
 8942TIP3    H226788   4.684   3.077   6.680
 8943TIP3   OH226789   5.554   3.428   6.002
 8943TIP3    H126790   5.537   3.364   6.071
 8943TIP3    H226791   5.585   3.506   6.052
 8944TIP3   OH226792   4.581   3.431   6.404
 8944TIP3    H126793   4.573   3.333   6.406
 8944TIP3    H226794   4.678   3.440   6.397
 8945TIP3   OH226795   4.286   2.629   6.188
 8945TIP3    H126796   4.240   2.713   6.208
 8945TIP3    H226797   4.215   2.581   6.143
 8946TIP3   OH226798   4.343   2.920   6.368
 8946TIP3    H126799   4.394   2.843   6.400
 8946TIP3    H226800   4.404   2.960   6.304
 8947TIP3   OH226801   5.207   3.892   6.019
 8947TIP3    H126802   5.249   3.821   5.966
 8947TIP3    H226803   5.196   3.850   6.105
 8948TIP3   OH226804   5.106   3.352   6.367
 8948TIP3    H126805   5.147   3.278   6.320
 8948TIP3    H226806   5.187   3.400   6.394
 8949TIP3   OH226807   6.123   2.670   6.365
 8949TIP3    H126808   6.151   2.754   6.407
 8949TIP3    H226809   6.145   2.687   6.272
 8950TIP3   OH226810   5.518   2.850   6.397
 8950TIP3    H126811   5.562   2.765   6.416
 8950TIP3    H226812   5.487   2.835   6.305
 8951TIP3   OH226813   4.862   2.512   6.361
 8951TIP3    H126814   4.841   2.585   6.299
 8951TIP3    H226815   4.812   2.439   6.318
 8952TIP3   OH226816   5.556   2.603   5.983
 8952TIP3    H126817   5.627   2.590   6.049
 8952TIP3    H226818   5.607   2.641   5.909
 8953TIP3   OH226819   4.491   2.713   6.470
 8953TIP3    H126820   4.574   2.696   6.518
 8953TIP3    H226821   4.506   2.658   6.390
 8954TIP3   OH226822   4.931   2.910   6.265
 8954TIP3    H126823   5.025   2.886   6.276
 8954TIP3    H226824   4.892   2.827   6.231
 8955TIP3   OH226825   6.193   2.878   6.537
 8955TIP3    H126826   6.112   2.927   6.514
 8955TIP3    H226827   6.213   2.915   6.625
 8956TIP3   OH226828   4.854   2.496   6.798
 8956TIP3    H126829   4.796   2.534   6.730
 8956TIP3    H226830   4.801   2.513   6.878
 8957TIP3   OH226831   5.196   3.344   5.804
 8957TIP3    H126832   5.157   3.334   5.717
 8957TIP3    H226833   5.154   3.428   5.834
 8958TIP3   OH226834   4.961   3.272   6.589
 8958TIP3    H126835   4.901   3.341   6.626
 8958TIP3    H226836   5.003   3.320   6.515
 8959TIP3   OH226837   5.760   2.607   6.163
 8959TIP3    H126838   5.735   2.574   6.251
 8959TIP3    H226839   5.812   2.687   6.186
 8960TIP3   OH226840   4.727   2.610   6.580
 8960TIP3    H126841   4.788   2.684   6.605
 8960TIP3    H226842   4.777   2.571   6.505
 8961TIP3   OH226843   4.791   3.469   6.689
 8961TIP3    H126844   4.766   3.556   6.652
 8961TIP3    H226845   4.711   3.452   6.743
 8962TIP3   OH226846   4.179   3.156   5.925
 8962TIP3    H126847   4.139   3.185   5.840
 8962TIP3    H226848   4.211   3.242   5.961
 8963TIP3   OH226849   5.619   3.671   6.162
 8963TIP3    H126850   5.530   3.664   6.203
 8963TIP3    H226851   5.614   3.759   6.119
 8964TIP3   OH226852   5.916   2.565   6.528
 8964TIP3    H126853   5.830   2.597   6.497
 8964TIP3    H226854   5.977   2.601   6.460
 8965TIP3   OH226855   5.210   2.212   6.518
 8965TIP3    H126856   5.188   2.118   6.529
 8965TIP3    H226857   5.133   2.253   6.562
 8966TIP3   OH226858   5.322   3.718   5.833
 8966TIP3    H126859   5.372   3.636   5.815
 8966TIP3    H226860   5.384   3.784   5.796
 8967TIP3   OH226861   5.464   3.501   5.751
 8967TIP3    H126862   5.430   3.420   5.710
 8967TIP3    H226863   5.503   3.466   5.835
 8968TIP3   OH226864   5.849   3.580   6.512
 8968TIP3    H126865   5.836   3.505   6.451
 8968TIP3    H226866   5.828   3.657   6.454
 8969TIP3   OH226867   5.139   2.976   5.770
 8969TIP3    H126868   5.060   3.031   5.751
 8969TIP3    H226869   5.184   2.976   5.683
 8970TIP3   OH226870   5.098   2.763   5.481
 8970TIP3    H126871   5.163   2.818   5.529
 8970TIP3    H226872   5.159   2.702   5.433
 8971TIP3   OH226873   6.042   3.221   6.356
 8971TIP3    H126874   5.959   3.273   6.359
 8971TIP3    H226875   6.074   3.247   6.267
 8972TIP3   OH226876   5.487   3.060   5.737
 8972TIP3    H126877   5.433   3.083   5.816
 8972TIP3    H226878   5.573   3.038   5.780
 8973TIP3   OH226879   5.721   3.097   6.656
 8973TIP3    H126880   5.719   3.181   6.705
 8973TIP3    H226881   5.635   3.103   6.609
 8974TIP3   OH226882   4.719   3.056   6.157
 8974TIP3    H126883   4.679   2.999   6.088
 8974TIP3    H226884   4.796   3.003   6.186
 8975TIP3   OH226885   4.848   3.467   6.304
 8975TIP3    H126886   4.829   3.435   6.215
 8975TIP3    H226887   4.938   3.431   6.321
 8976TIP3   OH226888   4.857   3.028   6.511
 8976TIP3    H126889   4.889   3.006   6.421
 8976TIP3    H226890   4.899   3.115   6.528
 8977TIP3   OH226891   5.381   3.667   6.287
 8977TIP3    H126892   5.367   3.749   6.337
 8977TIP3    H226893   5.363   3.597   6.353
 8978TIP3   OH226894   4.995   3.584   6.836
 8978TIP3    H126895   4.933   3.646   6.880
 8978TIP3    H226896   4.931   3.531   6.783
 8979TIP3   OH226897   5.326   2.917   5.565
 8979TIP3    H126898   5.385   2.979   5.614
 8979TIP3    H226899   5.353   2.938   5.472
 8980TIP3   OH226900   4.750   3.137   6.940
 8980TIP3    H126901   4.756   3.226   6.979
 8980TIP3    H226902   4.655   3.118   6.953
 8981TIP3   OH226903   5.075   3.594   5.841
 8981TIP3    H126904   5.157   3.647   5.848
 8981TIP3    H226905   5.013   3.657   5.803
 8982TIP3   OH226906   4.789   3.750   6.922
 8982TIP3    H126907   4.753   3.756   6.831
 8982TIP3    H226908   4.708   3.728   6.974
 8983TIP3   OH226909   5.839   2.158   5.616
 8983TIP3    H126910   5.757   2.186   5.662
 8983TIP3    H226911   5.859   2.239   5.563
 8984TIP3   OH226912   4.587   2.900   5.957
 8984TIP3    H126913   4.519   2.947   5.904
 8984TIP3    H226914   4.544   2.814   5.971
 8985TIP3   OH226915   5.644   3.525   5.160
 8985TIP3    H126916   5.654   3.621   5.147
 8985TIP3    H226917   5.737   3.495   5.148
 8986TIP3   OH226918   4.366   3.284   6.869
 8986TIP3    H126919   4.298   3.266   6.800
 8986TIP3    H226920   4.404   3.196   6.887
 8987TIP3   OH226921   4.221   3.476   6.503
 8987TIP3    H126922   4.317   3.476   6.494
 8987TIP3    H226923   4.207   3.558   6.554
 8988TIP3   OH226924   6.089   3.933   6.564
 8988TIP3    H126925   6.083   3.836   6.575
 8988TIP3    H226926   6.003   3.960   6.604
 8989TIP3   OH226927   5.191   3.712   6.693
 8989TIP3    H126928   5.188   3.805   6.724
 8989TIP3    H226929   5.119   3.672   6.747
 8990TIP3   OH226930   4.957   3.845   5.641
 8990TIP3    H126931   4.900   3.828   5.564
 8990TIP3    H226932   4.920   3.928   5.676
 8991TIP3   OH226933   4.392   3.691   6.029
 8991TIP3    H126934   4.438   3.683   6.115
 8991TIP3    H226935   4.334   3.613   6.032
 8992TIP3   OH226936   5.162   3.786   5.274
 8992TIP3    H126937   5.199   3.707   5.228
 8992TIP3    H226938   5.188   3.765   5.367
 8993TIP3   OH226939   5.206   3.799   5.546
 8993TIP3    H126940   5.119   3.805   5.593
 8993TIP3    H226941   5.262   3.764   5.618
 8994TIP3   OH226942   5.974   3.058   6.832
 8994TIP3    H126943   5.891   3.071   6.784
 8994TIP3    H226944   5.987   2.962   6.824
 8995TIP3   OH226945   4.571   3.466   6.852
 8995TIP3    H126946   4.619   3.452   6.935
 8995TIP3    H226947   4.496   3.404   6.860
 8996TIP3   OH226948   4.972   2.290   6.643
 8996TIP3    H126949   4.883   2.260   6.613
 8996TIP3    H226950   4.945   2.371   6.690
 8997TIP3   OH226951   5.506   2.402   6.836
 8997TIP3    H126952   5.572   2.383   6.904
 8997TIP3    H226953   5.421   2.390   6.883
 8998TIP3   OH226954   5.736   2.834   6.752
 8998TIP3    H126955   5.687   2.833   6.837
 8998TIP3    H226956   5.717   2.923   6.717
 8999TIP3   OH226957   5.404   2.959   5.310
 8999TIP3    H126958   5.368   2.939   5.221
 8999TIP3    H226959   5.486   3.005   5.286
 9000TIP3   OH226960   5.119   2.332   5.615
 9000TIP3    H126961   5.080   2.330   5.705
 9000TIP3    H226962   5.070   2.256   5.576
 9001TIP3   OH226963   4.903   2.807   6.660
 9001TIP3    H126964   4.852   2.828   6.741
 9001TIP3    H226965   4.888   2.888   6.606
 9002TIP3   OH226966   4.787   2.691   6.173
 9002TIP3    H126967   4.694   2.668   6.192
 9002TIP3    H226968   4.798   2.651   6.084
 9003TIP3   OH226969   5.277   2.776   5.902
 9003TIP3    H126970   5.226   2.849   5.859
 9003TIP3    H226971   5.332   2.745   5.827
 9004TIP3   OH226972   5.452   3.051   6.984
 9004TIP3    H126973   5.430   2.981   7.049
 9004TIP3    H226974   5.544   3.070   7.008
 9005TIP3   OH226975   5.432   2.804   6.140
 9005TIP3    H126976   5.371   2.837   6.071
 9005TIP3    H226977   5.465   2.725   6.093
 9006TIP3   OH226978   4.723   2.834   6.867
 9006TIP3    H126979   4.747   2.901   6.934
 9006TIP3    H226980   4.712   2.754   6.922
 9007TIP3   OH226981   4.775   2.314   5.579
 9007TIP3    H126982   4.760   2.314   5.675
 9007TIP3    H226983   4.698   2.366   5.549
 9008TIP3   OH226984   4.315   2.352   6.452
 9008TIP3    H126985   4.389   2.388   6.505
 9008TIP3    H226986   4.356   2.329   6.368
 9009TIP3   OH226987   4.280   2.337   5.969
 9009TIP3    H126988   4.325   2.374   5.889
 9009TIP3    H226989   4.219   2.411   5.988
 9010TIP3   OH226990   5.442   3.049   6.561
 9010TIP3    H126991   5.476   2.978   6.502
 9010TIP3    H226992   5.411   2.995   6.636
 9011TIP3   OH226993   5.118   2.507   6.233
 9011TIP3    H126994   5.034   2.510   6.284
 9011TIP3    H226995   5.184   2.515   6.303
 9012TIP3   OH226996   4.547   2.572   6.241
 9012TIP3    H126997   4.453   2.581   6.213
 9012TIP3    H226998   4.569   2.480   6.218
 9013TIP3   OH226999   4.814   2.564   5.932
 9013TIP3    H127000   4.907   2.583   5.907
 9013TIP3    H227001   4.764   2.586   5.850
 9014TIP3   OH227002   5.606   2.588   6.433
 9014TIP3    H127003   5.577   2.603   6.526
 9014TIP3    H227004   5.534   2.530   6.401
 9015TIP3   OH227005   4.665   2.598   5.709
 9015TIP3    H127006   4.594   2.554   5.660
 9015TIP3    H227007   4.716   2.637   5.635
 9016TIP3   OH227008   5.780   4.278   6.656
 9016TIP3    H127009   5.775   4.302   6.562
 9016TIP3    H227010   5.856   4.330   6.686
 9017TIP3   OH227011   4.734   3.388   7.076
 9017TIP3    H127012   4.813   3.419   7.124
 9017TIP3    H227013   4.669   3.388   7.148
 9018TIP3   OH227014   5.195   2.841   6.330
 9018TIP3    H127015   5.273   2.808   6.283
 9018TIP3    H227016   5.204   2.799   6.418
 9019TIP3   OH227017   4.717   2.329   6.215
 9019TIP3    H127018   4.679   2.253   6.263
 9019TIP3    H227019   4.756   2.287   6.137
 9020TIP3   OH227020   5.172   2.741   6.625
 9020TIP3    H127021   5.082   2.778   6.636
 9020TIP3    H227022   5.229   2.806   6.672
 9021TIP3   OH227023   4.911   3.128   5.717
 9021TIP3    H127024   4.838   3.064   5.705
 9021TIP3    H227025   4.889   3.163   5.807
 9022TIP3   OH227026   5.809   3.365   6.344
 9022TIP3    H127027   5.834   3.417   6.265
 9022TIP3    H227028   5.724   3.324   6.316
 9023TIP3   OH227029   5.369   2.436   5.588
 9023TIP3    H127030   5.272   2.420   5.592
 9023TIP3    H227031   5.377   2.532   5.605
 9024TIP3   OH227032   5.304   3.446   6.716
 9024TIP3    H127033   5.338   3.436   6.805
 9024TIP3    H227034   5.270   3.538   6.717
 9025TIP3   OH227035   5.436   2.690   5.684
 9025TIP3    H127036   5.532   2.700   5.698
 9025TIP3    H227037   5.414   2.771   5.633
 9026TIP3   OH227038   4.602   3.152   6.391
 9026TIP3    H127039   4.640   3.124   6.306
 9026TIP3    H227040   4.648   3.093   6.454
 9027TIP3   OH227041   5.054   3.279   5.539
 9027TIP3    H127042   5.005   3.364   5.542
 9027TIP3    H227043   5.001   3.224   5.601
 9028TIP3   OH227044   4.487   3.069   7.004
 9028TIP3    H127045   4.501   3.057   7.100
 9028TIP3    H227046   4.414   3.007   6.988
 9029TIP3   OH227047   5.211   3.188   7.025
 9029TIP3    H127048   5.148   3.129   6.980
 9029TIP3    H227049   5.297   3.153   6.994
 9030TIP3   OH227050   5.467   3.700   6.616
 9030TIP3    H127051   5.371   3.706   6.626
 9030TIP3    H227052   5.497   3.758   6.689
 9031TIP3   OH227053   5.874   2.786   5.520
 9031TIP3    H127054   5.814   2.742   5.456
 9031TIP3    H227055   5.872   2.875   5.480
 9032TIP3   OH227056   6.099   3.640   6.599
 9032TIP3    H127057   6.001   3.635   6.590
 9032TIP3    H227058   6.125   3.610   6.509
 9033TIP3   OH227059   5.569   3.597   5.421
 9033TIP3    H127060   5.556   3.528   5.487
 9033TIP3    H227061   5.592   3.548   5.341
 9034TIP3   OH227062   5.575   3.230   6.261
 9034TIP3    H127063   5.481   3.206   6.274
 9034TIP3    H227064   5.607   3.149   6.215
 9035TIP3   OH227065   4.705   3.458   6.016
 9035TIP3    H127066   4.701   3.539   5.962
 9035TIP3    H227067   4.612   3.441   6.032
 9036TIP3   OH227068   4.271   2.760   5.725
 9036TIP3    H127069   4.313   2.846   5.745
 9036TIP3    H227070   4.192   2.764   5.784
 9037TIP3   OH227071   4.835   3.220   5.959
 9037TIP3    H127072   4.802   3.310   5.977
 9037TIP3    H227073   4.800   3.171   6.035
 9038TIP3   OH227074   4.974   3.800   6.484
 9038TIP3    H127075   5.015   3.874   6.434
 9038TIP3    H227076   5.051   3.765   6.531
 9039TIP3   OH227077   4.622   3.695   5.868
 9039TIP3    H127078   4.537   3.705   5.915
 9039TIP3    H227079   4.655   3.787   5.872
 9040TIP3   OH227080   5.356   3.432   6.447
 9040TIP3    H127081   5.346   3.431   6.545
 9040TIP3    H227082   5.440   3.385   6.436
 9041TIP3   OH227083   5.337   3.330   5.330
 9041TIP3    H127084   5.391   3.304   5.407
 9041TIP3    H227085   5.249   3.300   5.358
 9042TIP3   OH227086   5.609   3.964   6.492
 9042TIP3    H127087   5.526   3.913   6.483
 9042TIP3    H227088   5.596   4.032   6.422
 9043TIP3   OH227089   5.677   3.803   5.150
 9043TIP3    H127090   5.721   3.881   5.111
 9043TIP3    H227091   5.590   3.844   5.170
 9044TIP3   OH227092   4.693   2.576   7.012
 9044TIP3    H127093   4.596   2.580   7.026
 9044TIP3    H227094   4.722   2.523   7.088
 9045TIP3   OH227095   5.498   3.259   5.543
 9045TIP3    H127096   5.488   3.194   5.615
 9045TIP3    H227097   5.595   3.256   5.531
 9046TIP3   OH227098   4.412   3.661   6.643
 9046TIP3    H127099   4.468   3.593   6.684
 9046TIP3    H227100   4.436   3.739   6.694
 9047TIP3   OH227101   4.701   3.309   5.328
 9047TIP3    H127102   4.713   3.216   5.302
 9047TIP3    H227103   4.680   3.299   5.423
 9048TIP3   OH227104   4.646   3.313   5.599
 9048TIP3    H127105   4.718   3.288   5.658
 9048TIP3    H227106   4.647   3.411   5.607
 9049TIP3   OH227107   4.379   3.006   5.806
 9049TIP3    H127108   4.312   3.051   5.861
 9049TIP3    H227109   4.390   3.074   5.736
 9050TIP3   OH227110   5.538   2.637   6.692
 9050TIP3    H127111   5.612   2.684   6.733
 9050TIP3    H227112   5.524   2.560   6.750
 9051TIP3   OH227113   5.423   2.387   5.863
 9051TIP3    H127114   5.403   2.411   5.770
 9051TIP3    H227115   5.459   2.472   5.898
 9052TIP3   OH227116   4.913   3.509   5.548
 9052TIP3    H127117   4.825   3.531   5.586
 9052TIP3    H227118   4.926   3.586   5.491
 9053TIP3   OH227119   5.101   2.573   5.963
 9053TIP3    H127120   5.162   2.647   5.945
 9053TIP3    H227121   5.105   2.566   6.060
 9054TIP3   OH227122   5.370   2.890   6.770
 9054TIP3    H127123   5.392   2.946   6.847
 9054TIP3    H227124   5.424   2.811   6.786
 9055TIP3   OH227125   5.243   2.297   6.064
 9055TIP3    H127126   5.226   2.376   6.119
 9055TIP3    H227127   5.306   2.334   5.998
 9056TIP3   OH227128   4.660   3.585   5.618
 9056TIP3    H127129   4.627   3.654   5.557
 9056TIP3    H227130   4.641   3.627   5.705
 9057TIP3   OH227131   4.756   2.300   5.856
 9057TIP3    H127132   4.753   2.391   5.891
 9057TIP3    H227133   4.852   2.284   5.863
 9058TIP3   OH227134   6.003   2.791   6.754
 9058TIP3    H127135   5.905   2.789   6.758
 9058TIP3    H227136   6.018   2.759   6.664
 9059TIP3   OH227137   5.661   2.985   6.140
 9059TIP3    H127138   5.584   2.926   6.153
 9059TIP3    H227139   5.732   2.938   6.188
 9060TIP3   OH227140   4.374   3.209   5.609
 9060TIP3    H127141   4.440   3.280   5.618
 9060TIP3    H227142   4.419   3.154   5.541
 9061TIP3   OH227143   4.315   2.489   5.744
 9061TIP3    H127144   4.318   2.587   5.743
 9061TIP3    H227145   4.236   2.473   5.691
 9062TIP3   OH227146   5.646   3.945   6.091
 9062TIP3    H127147   5.592   3.986   6.020
 9062TIP3    H227148   5.734   3.959   6.054
 9063TIP3   OH227149   4.708   2.210   6.612
 9063TIP3    H127150   4.676   2.177   6.526
 9063TIP3    H227151   4.695   2.132   6.671
 9064TIP3   OH227152   4.237   3.422   5.990
 9064TIP3    H127153   4.178   3.456   6.058
 9064TIP3    H227154   4.204   3.469   5.910
 9065TIP3   OH227155   4.403   3.976   7.069
 9065TIP3    H127156   4.490   3.977   7.115
 9065TIP3    H227157   4.385   3.880   7.066
 9066TIP3   OH227158   4.878   3.929   7.117
 9066TIP3    H127159   4.974   3.920   7.117
 9066TIP3    H227160   4.854   3.869   7.044
 9067TIP3   OH227161   4.865   3.510   5.237
 9067TIP3    H127162   4.807   3.439   5.276
 9067TIP3    H227163   4.939   3.456   5.204
 9068TIP3   OH227164   5.521   3.842   6.846
 9068TIP3    H127165   5.515   3.773   6.916
 9068TIP3    H227166   5.597   3.896   6.876
 9069TIP3   OH227167   5.292   3.557   5.157
 9069TIP3    H127168   5.336   3.494   5.219
 9069TIP3    H227169   5.352   3.553   5.080
 9070TIP3   OH227170   4.532   3.379   7.269
 9070TIP3    H127171   4.547   3.283   7.274
 9070TIP3    H227172   4.445   3.382   7.222
 9071TIP3   OH227173   4.511   3.026   5.463
 9071TIP3    H127174   4.568   2.998   5.536
 9071TIP3    H227175   4.577   3.031   5.391
 9072TIP3   OH227176   5.137   3.466   7.043
 9072TIP3    H127177   5.097   3.488   6.956
 9072TIP3    H227178   5.168   3.373   7.029
 9073TIP3   OH227179   5.024   3.228   5.270
 9073TIP3    H127180   5.026   3.239   5.367
 9073TIP3    H227181   5.024   3.131   5.263
 9074TIP3   OH227182   5.631   3.475   6.650
 9074TIP3    H127183   5.708   3.516   6.606
 9074TIP3    H227184   5.563   3.544   6.635
 9075TIP3   OH227185   4.653   3.116   7.252
 9075TIP3    H127186   4.728   3.063   7.225
 9075TIP3    H227187   4.681   3.148   7.340
 9076TIP3   OH227188   4.716   2.934   5.682
 9076TIP3    H127189   4.687   2.893   5.765
 9076TIP3    H227190   4.753   2.857   5.633
 9077TIP3   OH227191   4.989   2.996   6.912
 9077TIP3    H127192   4.909   3.054   6.911
 9077TIP3    H227193   5.039   3.031   6.835
 9078TIP3   OH227194   4.819   2.727   5.523
 9078TIP3    H127195   4.794   2.736   5.429
 9078TIP3    H227196   4.917   2.729   5.515
 9079TIP3   OH227197   5.503   3.398   7.046
 9079TIP3    H127198   5.580   3.368   6.996
 9079TIP3    H227199   5.498   3.333   7.118
 9080TIP3   OH227200   5.637   3.054   5.191
 9080TIP3    H127201   5.618   3.012   5.105
 9080TIP3    H227202   5.604   3.145   5.171
 9081TIP3   OH227203   5.113   2.787   7.034
 9081TIP3    H127204   5.110   2.709   6.975
 9081TIP3    H227205   5.067   2.855   6.979
 9082TIP3   OH227206   5.114   2.569   6.845
 9082TIP3    H127207   5.141   2.615   6.763
 9082TIP3    H227208   5.020   2.549   6.827
 9083TIP3   OH227209   5.136   3.105   6.717
 9083TIP3    H127210   5.222   3.125   6.678
 9083TIP3    H227211   5.078   3.171   6.673
 9084TIP3   OH227212   5.719   3.071   7.095
 9084TIP3    H127213   5.773   2.992   7.110
 9084TIP3    H227214   5.784   3.134   7.060
 9085TIP3   OH227215   5.760   3.327   6.834
 9085TIP3    H127216   5.702   3.382   6.776
 9085TIP3    H227217   5.847   3.350   6.796
 9086TIP3   OH227218   4.991   2.890   7.271
 9086TIP3    H127219   4.921   2.824   7.286
 9086TIP3    H227220   5.021   2.867   7.181
 9087TIP3   OH227221   5.242   2.331   6.916
 9087TIP3    H127222   5.195   2.414   6.891
 9087TIP3    H227223   5.172   2.264   6.903
 9088TIP3   OH227224   5.371   2.834   7.130
 9088TIP3    H127225   5.354   2.823   7.225
 9088TIP3    H227226   5.282   2.814   7.095
 9089TIP3   OH227227   5.605   2.782   6.982
 9089TIP3    H127228   5.533   2.790   7.047
 9089TIP3    H227229   5.681   2.758   7.039
 9090TIP3   OH227230   5.835   2.727   7.132
 9090TIP3    H127231   5.847   2.632   7.152
 9090TIP3    H227232   5.831   2.768   7.221
 9091TIP3   OH227233   4.826   2.673   7.322
 9091TIP3    H127234   4.830   2.580   7.292
 9091TIP3    H227235   4.864   2.665   7.412
 9092TIP3   OH227236   5.351   2.344   7.165
 9092TIP3    H127237   5.393   2.257   7.162
 9092TIP3    H227238   5.299   2.344   7.082
 9093TIP3   OH227239   5.404   2.558   7.332
 9093TIP3    H127240   5.384   2.490   7.265
 9093TIP3    H227241   5.326   2.618   7.325
 9094TIP3   OH227242   4.628   3.787   5.429
 9094TIP3    H127243   4.722   3.782   5.406
 9094TIP3    H227244   4.594   3.839   5.354
 9095TIP3   OH227245   4.105   3.169   5.645
 9095TIP3    H127246   4.200   3.190   5.630
 9095TIP3    H227247   4.098   3.081   5.603
 9096TIP3   OH227248   4.024   3.781   6.060
 9096TIP3    H127249   3.957   3.721   6.020
 9096TIP3    H227250   4.067   3.720   6.124
 9097TIP3   OH227251   4.160   3.625   6.245
 9097TIP3    H127252   4.143   3.559   6.314
 9097TIP3    H227253   4.210   3.690   6.296
 9098TIP3   OH227254   5.900   4.055   6.345
 9098TIP3    H127255   5.864   3.966   6.330
 9098TIP3    H227256   5.989   4.032   6.376
 9099TIP3   OH227257   5.961   3.727   6.905
 9099TIP3    H127258   5.887   3.738   6.969
 9099TIP3    H227259   6.001   3.817   6.905
 9100TIP3   OH227260   5.775   3.242   5.521
 9100TIP3    H127261   5.840   3.308   5.488
 9100TIP3    H227262   5.823   3.206   5.599
 9101TIP3   OH227263   5.905   3.108   5.724
 9101TIP3    H127264   5.837   3.070   5.784
 9101TIP3    H227265   5.970   3.146   5.786
 9102TIP3   OH227266   5.961   3.502   6.160
 9102TIP3    H127267   6.009   3.436   6.108
 9102TIP3    H227268   5.962   3.581   6.101
 9103TIP3   OH227269   5.786   3.797   6.353
 9103TIP3    H127270   5.715   3.846   6.400
 9103TIP3    H227271   5.736   3.755   6.280
 9104TIP3   OH227272   5.840   3.018   5.371
 9104TIP3    H127273   5.769   3.020   5.303
 9104TIP3    H227274   5.813   3.094   5.425
 9105TIP3   OH227275   5.712   2.691   5.325
 9105TIP3    H127276   5.669   2.730   5.248
 9105TIP3    H227277   5.688   2.597   5.314
 9106TIP3   OH227278   5.715   2.971   5.871
 9106TIP3    H127279   5.724   2.874   5.863
 9106TIP3    H227280   5.700   2.983   5.968
 9107TIP3   OH227281   4.341   3.036   6.621
 9107TIP3    H127282   4.338   3.005   6.528
 9107TIP3    H227283   4.439   3.039   6.635
 9108TIP3   OH227284   6.005   3.393   6.729
 9108TIP3    H127285   6.077   3.328   6.717
 9108TIP3    H227286   6.027   3.461   6.664
 9109TIP3   OH227287   6.188   3.196   6.738
 9109TIP3    H127288   6.114   3.146   6.779
 9109TIP3    H227289   6.262   3.134   6.755
 9110TIP3   OH227290   5.655   2.426   5.309
 9110TIP3    H127291   5.726   2.391   5.365
 9110TIP3    H227292   5.580   2.366   5.325
 9111TIP3   OH227293   5.714   2.686   5.764
 9111TIP3    H127294   5.756   2.597   5.776
 9111TIP3    H227295   5.771   2.721   5.692
 9112TIP3   OH227296   5.873   2.852   6.261
 9112TIP3    H127297   5.958   2.877   6.219
 9112TIP3    H227298   5.887   2.892   6.349
 9113TIP3   OH227299   5.944   3.001   6.490
 9113TIP3    H127300   5.867   3.036   6.538
 9113TIP3    H227301   5.978   3.082   6.445
 9114TIP3   OH227302   4.560   2.723   7.285
 9114TIP3    H127303   4.657   2.721   7.293
 9114TIP3    H227304   4.537   2.638   7.328
 9115TIP3   OH227305   6.370   2.582   7.030
 9115TIP3    H127306   6.448   2.529   7.002
 9115TIP3    H227307   6.357   2.643   6.955
 9116TIP3   OH227308   5.821   2.434   5.802
 9116TIP3    H127309   5.871   2.421   5.885
 9116TIP3    H227310   5.760   2.358   5.803
 9117TIP3   OH227311   4.522   2.419   6.623
 9117TIP3    H127312   4.584   2.344   6.631
 9117TIP3    H227313   4.584   2.494   6.614
 9118TIP3   OH227314   4.322   2.690   6.695
 9118TIP3    H127315   4.372   2.691   6.611
 9118TIP3    H227316   4.345   2.777   6.731
 9119TIP3   OH227317   6.262   2.739   6.837
 9119TIP3    H127318   6.176   2.781   6.857
 9119TIP3    H227319   6.230   2.662   6.786
 9120TIP3   OH227320   5.900   2.361   5.441
 9120TIP3    H127321   5.941   2.297   5.379
 9120TIP3    H227322   5.963   2.436   5.438
 9121TIP3   OH227323   4.309   2.193   6.195
 9121TIP3    H127324   4.216   2.189   6.224
 9121TIP3    H227325   4.303   2.254   6.118
 9122TIP3   OH227326   5.460   3.911   5.701
 9122TIP3    H127327   5.518   3.896   5.622
 9122TIP3    H227328   5.521   3.962   5.758
 9123TIP3   OH227329   4.529   2.270   7.007
 9123TIP3    H127330   4.480   2.272   7.090
 9123TIP3    H227331   4.464   2.312   6.946
 9124TIP3   OH227332   4.569   3.702   7.084
 9124TIP3    H127333   4.475   3.680   7.069
 9124TIP3    H227334   4.577   3.690   7.179
 9125TIP3   OH227335   4.749   3.739   6.634
 9125TIP3    H127336   4.700   3.815   6.595
 9125TIP3    H227337   4.834   3.754   6.589
 9126TIP3   OH227338   5.188   3.979   6.771
 9126TIP3    H127339   5.229   3.981   6.860
 9126TIP3    H227340   5.252   4.032   6.720
 9127TIP3   OH227341   5.367   4.134   6.635
 9127TIP3    H127342   5.439   4.087   6.590
 9127TIP3    H227343   5.419   4.191   6.695
 9128TIP3   OH227344   6.164   2.495   6.732
 9128TIP3    H127345   6.076   2.490   6.690
 9128TIP3    H227346   6.198   2.404   6.721
 9129TIP3   OH227347   4.421   3.990   6.664
 9129TIP3    H127348   4.331   4.020   6.639
 9129TIP3    H227349   4.436   4.046   6.741
 9130TIP3   OH227350   4.657   3.971   6.518
 9130TIP3    H127351   4.569   3.983   6.561
 9130TIP3    H227352   4.639   4.005   6.428
 9131TIP3   OH227353   5.084   3.998   6.317
 9131TIP3    H127354   5.014   4.016   6.251
 9131TIP3    H227355   5.095   4.086   6.358
 9132TIP3   OH227356   5.354   3.935   6.368
 9132TIP3    H127357   5.261   3.957   6.349
 9132TIP3    H227358   5.400   4.010   6.326
 9133TIP3   OH227359   5.550   4.127   6.281
 9133TIP3    H127360   5.540   4.213   6.236
 9133TIP3    H227361   5.587   4.071   6.209
 9134TIP3   OH227362   4.332   3.785   6.401
 9134TIP3    H127363   4.358   3.759   6.492
 9134TIP3    H227364   4.405   3.743   6.351
 9135TIP3   OH227365   4.529   3.659   6.263
 9135TIP3    H127366   4.544   3.575   6.314
 9135TIP3    H227367   4.620   3.695   6.259
 9136TIP3   OH227368   4.795   3.750   6.268
 9136TIP3    H127369   4.826   3.659   6.258
 9136TIP3    H227370   4.842   3.776   6.350
 9137TIP3   OH227371   5.374   2.411   6.359
 9137TIP3    H127372   5.326   2.339   6.406
 9137TIP3    H227373   5.445   2.363   6.313
 9138TIP3   OH227374   5.887   2.275   6.247
 9138TIP3    H127375   5.927   2.333   6.178
 9138TIP3    H227376   5.795   2.308   6.250
 9139TIP3   OH227377   5.985   2.386   6.018
 9139TIP3    H127378   6.060   2.335   5.980
 9139TIP3    H227379   6.019   2.478   6.005
 9140TIP3   OH227380   4.617   2.117   6.365
 9140TIP3    H127381   4.524   2.086   6.369
 9140TIP3    H227382   4.664   2.031   6.361
 9141TIP3   OH227383   4.410   1.989   6.018
 9141TIP3    H127384   4.436   2.045   5.943
 9141TIP3    H227385   4.380   2.055   6.083
 9142TIP3   OH227386   5.065   2.145   6.249
 9142TIP3    H127387   5.121   2.194   6.186
 9142TIP3    H227388   5.080   2.194   6.331
 9143TIP3   OH227389   5.604   2.300   6.234
 9143TIP3    H127390   5.596   2.262   6.146
 9143TIP3    H227391   5.594   2.220   6.291
 9144TIP3   OH227392   5.632   2.220   5.796
 9144TIP3    H127393   5.551   2.275   5.806
 9144TIP3    H227394   5.625   2.163   5.873
 9145TIP3   OH227395   4.121   3.564   5.793
 9145TIP3    H127396   4.034   3.534   5.761
 9145TIP3    H227397   4.116   3.658   5.764
 9146TIP3   OH227398   4.523   2.143   5.780
 9146TIP3    H127399   4.571   2.082   5.720
 9146TIP3    H227400   4.596   2.198   5.814
 9147TIP3   OH227401   5.033   2.323   5.878
 9147TIP3    H127402   5.093   2.278   5.941
 9147TIP3    H227403   5.053   2.416   5.901
 9148TIP3   OH227404   4.897   3.743   5.374
 9148TIP3    H127405   4.986   3.760   5.338
 9148TIP3    H227406   4.869   3.668   5.315
 9149TIP3   OH227407   5.587   3.863   5.469
 9149TIP3    H127408   5.593   3.766   5.458
 9149TIP3    H227409   5.584   3.892   5.377
 9150TIP3   OH227410   4.826   2.395   7.256
 9150TIP3    H127411   4.788   2.327   7.314
 9150TIP3    H227412   4.919   2.396   7.287
 9151TIP3   OH227413   5.076   2.396   7.377
 9151TIP3    H127414   5.163   2.366   7.345
 9151TIP3    H227415   5.057   2.327   7.444
 9152TIP3   OH227416   4.196   3.581   5.430
 9152TIP3    H127417   4.194   3.610   5.522
 9152TIP3    H227418   4.285   3.541   5.421
 9153TIP3   OH227419   5.899   2.456   7.167
 9153TIP3    H127420   5.922   2.432   7.259
 9153TIP3    H227421   5.987   2.458   7.124
 9154TIP3   OH227422   5.836   4.007   6.660
 9154TIP3    H127423   5.761   3.978   6.604
 9154TIP3    H227424   5.820   4.104   6.662
 9155TIP3   OH227425   7.102   3.382   5.425
 9155TIP3    H127426   7.073   3.473   5.403
 9155TIP3    H227427   7.028   3.331   5.387
 9156TIP3   OH227428   7.103   3.386   5.807
 9156TIP3    H127429   7.138   3.356   5.893
 9156TIP3    H227430   7.066   3.305   5.771
 9157TIP3   OH227431   6.403   3.276   6.172
 9157TIP3    H127432   6.435   3.207   6.233
 9157TIP3    H227433   6.483   3.329   6.158
 9158TIP3   OH227434   7.348   3.688   5.488
 9158TIP3    H127435   7.335   3.618   5.553
 9158TIP3    H227436   7.380   3.762   5.542
 9159TIP3   OH227437   6.380   3.686   5.895
 9159TIP3    H127438   6.371   3.588   5.896
 9159TIP3    H227439   6.476   3.695   5.882
 9160TIP3   OH227440   6.081   2.883   5.675
 9160TIP3    H127441   6.038   2.968   5.696
 9160TIP3    H227442   6.009   2.838   5.629
 9161TIP3   OH227443   6.139   3.176   5.854
 9161TIP3    H127444   6.190   3.099   5.886
 9161TIP3    H227445   6.201   3.219   5.793
 9162TIP3   OH227446   7.002   4.148   5.505
 9162TIP3    H127447   7.043   4.076   5.451
 9162TIP3    H227448   6.989   4.104   5.590
 9163TIP3   OH227449   6.902   3.608   5.855
 9163TIP3    H127450   6.944   3.532   5.811
 9163TIP3    H227451   6.984   3.657   5.879
 9164TIP3   OH227452   7.902   2.940   5.854
 9164TIP3    H127453   7.935   3.026   5.888
 9164TIP3    H227454   7.914   2.949   5.759
 9165TIP3   OH227455   7.309   3.108   5.884
 9165TIP3    H127456   7.357   3.025   5.904
 9165TIP3    H227457   7.283   3.092   5.792
 9166TIP3   OH227458   6.655   2.769   5.849
 9166TIP3    H127459   6.638   2.842   5.786
 9166TIP3    H227460   6.607   2.696   5.804
 9167TIP3   OH227461   7.349   2.861   5.467
 9167TIP3    H127462   7.418   2.851   5.536
 9167TIP3    H227463   7.404   2.896   5.394
 9168TIP3   OH227464   6.287   2.969   5.957
 9168TIP3    H127465   6.370   2.953   6.005
 9168TIP3    H227466   6.303   2.915   5.877
 9169TIP3   OH227467   6.727   3.167   5.756
 9169TIP3    H127468   6.822   3.143   5.764
 9169TIP3    H227469   6.690   3.083   5.720
 9170TIP3   OH227470   7.989   3.150   6.006
 9170TIP3    H127471   7.902   3.194   6.011
 9170TIP3    H227472   7.991   3.099   6.089
 9171TIP3   OH227473   6.650   2.753   6.285
 9171TIP3    H127474   6.592   2.791   6.216
 9171TIP3    H227475   6.596   2.772   6.365
 9172TIP3   OH227476   6.993   3.602   5.291
 9172TIP3    H127477   6.953   3.591   5.203
 9172TIP3    H227478   6.948   3.684   5.320
 9173TIP3   OH227479   6.757   3.528   6.075
 9173TIP3    H127480   6.698   3.598   6.111
 9173TIP3    H227481   6.800   3.575   6.000
 9174TIP3   OH227482   7.544   2.876   5.652
 9174TIP3    H127483   7.552   2.822   5.731
 9174TIP3    H227484   7.601   2.952   5.673
 9175TIP3   OH227485   6.522   2.867   6.068
 9175TIP3    H127486   6.584   2.940   6.091
 9175TIP3    H227487   6.571   2.827   5.992
 9176TIP3   OH227488   6.589   3.726   6.177
 9176TIP3    H127489   6.563   3.811   6.138
 9176TIP3    H227490   6.508   3.708   6.230
 9177TIP3   OH227491   5.973   3.407   5.409
 9177TIP3    H127492   5.935   3.441   5.326
 9177TIP3    H227493   6.003   3.492   5.450
 9178TIP3   OH227494   7.416   3.930   5.651
 9178TIP3    H127495   7.326   3.921   5.690
 9178TIP3    H227496   7.408   4.016   5.605
 9179TIP3   OH227497   7.698   2.852   6.022
 9179TIP3    H127498   7.614   2.859   5.974
 9179TIP3    H227499   7.765   2.877   5.955
 9180TIP3   OH227500   6.997   2.469   5.994
 9180TIP3    H127501   6.985   2.374   6.015
 9180TIP3    H227502   6.922   2.508   6.043
 9181TIP3   OH227503   7.116   3.973   5.322
 9181TIP3    H127504   7.167   3.890   5.304
 9181TIP3    H227505   7.180   4.038   5.284
 9182TIP3   OH227506   7.261   3.757   5.236
 9182TIP3    H127507   7.221   3.677   5.200
 9182TIP3    H227508   7.298   3.724   5.321
 9183TIP3   OH227509   7.640   3.838   5.996
 9183TIP3    H127510   7.628   3.761   5.936
 9183TIP3    H227511   7.622   3.913   5.936
 9184TIP3   OH227512   6.937   3.235   5.256
 9184TIP3    H127513   6.858   3.289   5.235
 9184TIP3    H227514   6.983   3.232   5.170
 9185TIP3   OH227515   6.894   3.021   4.967
 9185TIP3    H127516   6.959   3.074   5.015
 9185TIP3    H227517   6.953   2.959   4.920
 9186TIP3   OH227518   7.842   3.486   5.847
 9186TIP3    H127519   7.756   3.534   5.850
 9186TIP3    H227520   7.862   3.492   5.751
 9187TIP3   OH227521   7.278   3.318   5.224
 9187TIP3    H127522   7.226   3.341   5.304
 9187TIP3    H227523   7.361   3.287   5.267
 9188TIP3   OH227524   7.513   3.354   6.142
 9188TIP3    H127525   7.512   3.441   6.185
 9188TIP3    H227526   7.426   3.356   6.096
 9189TIP3   OH227527   6.515   3.312   5.645
 9189TIP3    H127528   6.475   3.255   5.576
 9189TIP3    H227529   6.592   3.259   5.674
 9190TIP3   OH227530   6.644   3.722   5.792
 9190TIP3    H127531   6.625   3.693   5.701
 9190TIP3    H227532   6.733   3.685   5.807
 9191TIP3   OH227533   6.648   3.286   5.998
 9191TIP3    H127534   6.683   3.260   5.910
 9191TIP3    H227535   6.694   3.372   6.014
 9192TIP3   OH227536   7.176   3.924   5.774
 9192TIP3    H127537   7.163   4.005   5.827
 9192TIP3    H227538   7.160   3.852   5.837
 9193TIP3   OH227539   6.791   3.842   6.325
 9193TIP3    H127540   6.727   3.904   6.366
 9193TIP3    H227541   6.729   3.789   6.270
 9194TIP3   OH227542   7.119   3.176   5.051
 9194TIP3    H127543   7.179   3.236   5.101
 9194TIP3    H227544   7.147   3.196   4.958
 9195TIP3   OH227545   6.547   3.392   6.430
 9195TIP3    H127546   6.551   3.482   6.467
 9195TIP3    H227547   6.451   3.374   6.437
 9196TIP3   OH227548   6.869   3.852   5.328
 9196TIP3    H127549   6.952   3.903   5.334
 9196TIP3    H227550   6.809   3.914   5.286
 9197TIP3   OH227551   6.585   4.008   6.409
 9197TIP3    H127552   6.551   4.015   6.318
 9197TIP3    H227553   6.504   3.984   6.459
 9198TIP3   OH227554   7.638   2.428   5.109
 9198TIP3    H127555   7.554   2.452   5.154
 9198TIP3    H227556   7.656   2.509   5.058
 9199TIP3   OH227557   6.383   3.157   5.445
 9199TIP3    H127558   6.315   3.204   5.392
 9199TIP3    H227559   6.342   3.071   5.456
 9200TIP3   OH227560   7.436   3.783   4.650
 9200TIP3    H127561   7.445   3.880   4.635
 9200TIP3    H227562   7.526   3.753   4.624
 9201TIP3   OH227563   6.162   3.542   6.356
 9201TIP3    H127564   6.095   3.524   6.286
 9201TIP3    H227565   6.200   3.453   6.372
 9202TIP3   OH227566   6.021   3.730   6.004
 9202TIP3    H127567   6.105   3.719   5.958
 9202TIP3    H227568   6.038   3.811   6.054
 9203TIP3   OH227569   7.861   4.180   6.036
 9203TIP3    H127570   7.869   4.084   6.055
 9203TIP3    H227571   7.775   4.201   6.078
 9204TIP3   OH227572   6.988   3.967   6.181
 9204TIP3    H127573   6.984   4.060   6.211
 9204TIP3    H227574   6.915   3.928   6.233
 9205TIP3   OH227575   6.752   4.098   5.131
 9205TIP3    H127576   6.704   4.083   5.048
 9205TIP3    H227577   6.717   4.185   5.160
 9206TIP3   OH227578   6.183   3.949   5.523
 9206TIP3    H127579   6.242   3.941   5.600
 9206TIP3    H227580   6.103   3.908   5.562
 9207TIP3   OH227581   6.949   4.001   4.767
 9207TIP3    H127582   7.008   3.931   4.732
 9207TIP3    H227583   6.984   4.012   4.858
 9208TIP3   OH227584   7.002   4.050   5.036
 9208TIP3    H127585   6.914   4.060   5.079
 9208TIP3    H227586   7.054   4.013   5.109
 9209TIP3   OH227587   7.782   3.311   6.311
 9209TIP3    H127588   7.706   3.332   6.256
 9209TIP3    H227589   7.798   3.217   6.289
 9210TIP3   OH227590   6.367   3.723   6.338
 9210TIP3    H127591   6.415   3.706   6.422
 9210TIP3    H227592   6.291   3.661   6.346
 9211TIP3   OH227593   6.765   2.547   6.129
 9211TIP3    H127594   6.677   2.518   6.100
 9211TIP3    H227595   6.741   2.629   6.176
 9212TIP3   OH227596   7.293   2.667   6.323
 9212TIP3    H127597   7.357   2.634   6.388
 9212TIP3    H227598   7.207   2.644   6.363
 9213TIP3   OH227599   7.530   3.092   6.245
 9213TIP3    H127600   7.482   3.094   6.330
 9213TIP3    H227601   7.511   3.180   6.206
 9214TIP3   OH227602   7.198   3.216   4.796
 9214TIP3    H127603   7.165   3.196   4.707
 9214TIP3    H227604   7.283   3.259   4.774
 9215TIP3   OH227605   6.909   2.595   5.100
 9215TIP3    H127606   6.875   2.590   5.192
 9215TIP3    H227607   6.871   2.513   5.064
 9216TIP3   OH227608   6.698   3.064   6.146
 9216TIP3    H127609   6.647   3.085   6.227
 9216TIP3    H227610   6.683   3.145   6.093
 9217TIP3   OH227611   6.584   2.949   5.661
 9217TIP3    H127612   6.490   2.925   5.678
 9217TIP3    H227613   6.595   2.908   5.572
 9218TIP3   OH227614   7.072   3.032   5.389
 9218TIP3    H127615   7.023   3.104   5.344
 9218TIP3    H227616   7.130   3.000   5.316
 9219TIP3   OH227617   7.243   3.309   6.461
 9219TIP3    H127618   7.223   3.241   6.529
 9219TIP3    H227619   7.324   3.348   6.497
 9220TIP3   OH227620   7.227   3.061   5.626
 9220TIP3    H127621   7.167   3.090   5.554
 9220TIP3    H227622   7.264   2.982   5.582
 9221TIP3   OH227623   6.519   3.092   6.355
 9221TIP3    H127624   6.544   3.158   6.420
 9221TIP3    H227625   6.509   3.011   6.409
 9222TIP3   OH227626   6.566   2.568   5.065
 9222TIP3    H127627   6.556   2.570   5.162
 9222TIP3    H227628   6.491   2.625   5.038
 9223TIP3   OH227629   6.113   2.607   5.939
 9223TIP3    H127630   6.184   2.646   5.995
 9223TIP3    H227631   6.158   2.591   5.855
 9224TIP3   OH227632   6.074   2.593   5.456
 9224TIP3    H127633   6.120   2.629   5.377
 9224TIP3    H227634   6.015   2.668   5.475
 9225TIP3   OH227635   7.239   3.307   6.049
 9225TIP3    H127636   7.271   3.236   5.988
 9225TIP3    H227637   7.204   3.252   6.122
 9226TIP3   OH227638   6.913   2.768   5.720
 9226TIP3    H127639   6.834   2.769   5.776
 9226TIP3    H227640   6.985   2.764   5.785
 9227TIP3   OH227641   6.343   2.828   5.729
 9227TIP3    H127642   6.249   2.835   5.699
 9227TIP3    H227643   6.368   2.738   5.703
 9228TIP3   OH227644   6.609   2.821   5.420
 9228TIP3    H127645   6.703   2.837   5.399
 9228TIP3    H227646   6.563   2.843   5.335
 9229TIP3   OH227647   7.400   2.850   5.930
 9229TIP3    H127648   7.359   2.860   6.019
 9229TIP3    H227649   7.339   2.788   5.888
 9230TIP3   OH227650   6.460   2.855   5.194
 9230TIP3    H127651   6.390   2.811   5.143
 9230TIP3    H227652   6.513   2.895   5.122
 9231TIP3   OH227653   7.494   4.523   6.100
 9231TIP3    H127654   7.517   4.521   6.004
 9231TIP3    H227655   7.483   4.618   6.112
 9232TIP3   OH227656   6.529   3.643   6.562
 9232TIP3    H127657   6.607   3.676   6.610
 9232TIP3    H227658   6.462   3.645   6.634
 9233TIP3   OH227659   6.993   3.098   5.815
 9233TIP3    H127660   7.068   3.066   5.764
 9233TIP3    H227661   7.004   3.052   5.900
 9234TIP3   OH227662   6.511   2.588   5.699
 9234TIP3    H127663   6.478   2.509   5.747
 9234TIP3    H227664   6.559   2.549   5.625
 9235TIP3   OH227665   6.966   2.994   6.113
 9235TIP3    H127666   6.877   3.033   6.122
 9235TIP3    H227667   7.024   3.059   6.158
 9236TIP3   OH227668   6.706   3.386   5.203
 9236TIP3    H127669   6.633   3.322   5.191
 9236TIP3    H227670   6.685   3.420   5.293
 9237TIP3   OH227671   7.603   3.622   5.832
 9237TIP3    H127672   7.627   3.675   5.753
 9237TIP3    H227673   7.519   3.578   5.803
 9238TIP3   OH227674   7.164   2.695   5.073
 9238TIP3    H127675   7.067   2.680   5.078
 9238TIP3    H227676   7.173   2.790   5.094
 9239TIP3   OH227677   7.101   3.703   6.202
 9239TIP3    H127678   7.139   3.692   6.290
 9239TIP3    H227679   7.067   3.794   6.204
 9240TIP3   OH227680   7.233   2.948   5.172
 9240TIP3    H127681   7.329   2.953   5.187
 9240TIP3    H227682   7.215   3.028   5.119
 9241TIP3   OH227683   6.397   3.406   5.878
 9241TIP3    H127684   6.435   3.381   5.791
 9241TIP3    H227685   6.448   3.349   5.938
 9242TIP3   OH227686   6.850   3.536   5.025
 9242TIP3    H127687   6.801   3.621   5.027
 9242TIP3    H227688   6.796   3.482   5.087
 9243TIP3   OH227689   6.282   3.325   6.491
 9243TIP3    H127690   6.295   3.313   6.587
 9243TIP3    H227691   6.209   3.263   6.473
 9244TIP3   OH227692   7.004   3.444   6.512
 9244TIP3    H127693   6.942   3.388   6.463
 9244TIP3    H227694   7.090   3.410   6.477
 9245TIP3   OH227695   7.262   3.959   6.097
 9245TIP3    H127696   7.165   3.959   6.106
 9245TIP3    H227697   7.287   4.015   6.173
 9246TIP3   OH227698   7.677   3.030   5.013
 9246TIP3    H127699   7.615   2.993   4.947
 9246TIP3    H227700   7.673   3.124   4.983
 9247TIP3   OH227701   7.890   3.898   6.081
 9247TIP3    H127702   7.793   3.886   6.072
 9247TIP3    H227703   7.920   3.865   5.993
 9248TIP3   OH227704   7.368   3.861   4.912
 9248TIP3    H127705   7.349   3.790   4.974
 9248TIP3    H227706   7.388   3.814   4.829
 9249TIP3   OH227707   7.369   3.489   5.751
 9249TIP3    H127708   7.275   3.464   5.761
 9249TIP3    H227709   7.403   3.407   5.708
 9250TIP3   OH227710   6.501   3.715   5.505
 9250TIP3    H127711   6.497   3.796   5.450
 9250TIP3    H227712   6.407   3.701   5.522
 9251TIP3   OH227713   6.066   3.017   5.211
 9251TIP3    H127714   6.109   3.103   5.231
 9251TIP3    H227715   5.989   3.021   5.271
 9252TIP3   OH227716   6.630   3.477   5.445
 9252TIP3    H127717   6.597   3.567   5.464
 9252TIP3    H227718   6.596   3.428   5.522
 9253TIP3   OH227719   6.770   4.057   5.972
 9253TIP3    H127720   6.810   4.130   5.921
 9253TIP3    H227721   6.848   4.020   6.016
 9254TIP3   OH227722   6.415   3.951   5.356
 9254TIP3    H127723   6.329   3.959   5.403
 9254TIP3    H227724   6.447   4.044   5.359
 9255TIP3   OH227725   7.154   3.691   5.932
 9255TIP3    H127726   7.144   3.686   6.030
 9255TIP3    H227727   7.233   3.638   5.917
 9256TIP3   OH227728   7.134   3.585   4.817
 9256TIP3    H127729   7.186   3.558   4.896
 9256TIP3    H227730   7.045   3.558   4.844
 9257TIP3   OH227731   7.403   4.218   5.978
 9257TIP3    H127732   7.321   4.166   5.971
 9257TIP3    H227733   7.389   4.285   5.907
 9258TIP3   OH227734   7.467   4.059   4.633
 9258TIP3    H127735   7.506   4.137   4.588
 9258TIP3    H227736   7.386   4.101   4.668
 9259TIP3   OH227737   6.487   2.834   6.499
 9259TIP3    H127738   6.390   2.837   6.510
 9259TIP3    H227739   6.515   2.777   6.572
 9260TIP3   OH227740   7.288   3.517   5.036
 9260TIP3    H127741   7.272   3.448   5.105
 9260TIP3    H227742   7.385   3.517   5.034
 9261TIP3   OH227743   6.204   3.911   6.139
 9261TIP3    H127744   6.264   3.844   6.175
 9261TIP3    H227745   6.236   3.991   6.183
 9262TIP3   OH227746   6.496   3.564   4.815
 9262TIP3    H127747   6.510   3.471   4.790
 9262TIP3    H227748   6.475   3.556   4.910
 9263TIP3   OH227749   6.441   3.570   5.086
 9263TIP3    H127750   6.515   3.544   5.143
 9263TIP3    H227751   6.443   3.668   5.095
 9264TIP3   OH227752   6.175   3.262   5.292
 9264TIP3    H127753   6.108   3.307   5.348
 9264TIP3    H227754   6.187   3.330   5.223
 9265TIP3   OH227755   7.321   2.911   6.195
 9265TIP3    H127756   7.414   2.937   6.207
 9265TIP3    H227757   7.316   2.824   6.242
 9266TIP3   OH227758   7.210   2.646   5.352
 9266TIP3    H127759   7.197   2.668   5.258
 9266TIP3    H227760   7.249   2.729   5.387
 9267TIP3   OH227761   6.708   3.765   5.034
 9267TIP3    H127762   6.621   3.789   5.071
 9267TIP3    H227763   6.725   3.844   4.979
 9268TIP3   OH227764   6.891   2.832   5.450
 9268TIP3    H127765   6.956   2.903   5.432
 9268TIP3    H227766   6.900   2.822   5.547
 9269TIP3   OH227767   7.161   3.142   6.249
 9269TIP3    H127768   7.192   3.191   6.328
 9269TIP3    H227769   7.217   3.061   6.248
 9270TIP3   OH227770   7.038   2.549   5.549
 9270TIP3    H127771   7.033   2.626   5.609
 9270TIP3    H227772   7.100   2.584   5.481
 9271TIP3   OH227773   6.454   3.841   5.105
 9271TIP3    H127774   6.423   3.912   5.044
 9271TIP3    H227775   6.437   3.883   5.193
 9272TIP3   OH227776   6.552   2.557   5.342
 9272TIP3    H127777   6.550   2.648   5.378
 9272TIP3    H227778   6.648   2.539   5.349
 9273TIP3   OH227779   7.796   3.043   6.227
 9273TIP3    H127780   7.699   3.053   6.216
 9273TIP3    H227781   7.811   2.966   6.170
 9274TIP3   OH227782   7.450   3.247   5.637
 9274TIP3    H127783   7.377   3.183   5.642
 9274TIP3    H227784   7.523   3.199   5.682
 9275TIP3   OH227785   6.169   3.466   5.095
 9275TIP3    H127786   6.236   3.536   5.107
 9275TIP3    H227787   6.216   3.411   5.028
 9276TIP3   OH227788   6.109   2.746   5.233
 9276TIP3    H127789   6.115   2.843   5.230
 9276TIP3    H227790   6.032   2.730   5.176
 9277TIP3   OH227791   7.425   4.200   5.574
 9277TIP3    H127792   7.383   4.247   5.499
 9277TIP3    H227793   7.520   4.217   5.555
 9278TIP3   OH227794   6.500   2.467   6.101
 9278TIP3    H127795   6.472   2.434   6.014
 9278TIP3    H227796   6.490   2.388   6.158
 9279TIP3   OH227797   6.026   3.661   5.483
 9279TIP3    H127798   6.004   3.718   5.558
 9279TIP3    H227799   6.000   3.718   5.407
 9280TIP3   OH227800   6.199   4.232   6.555
 9280TIP3    H127801   6.286   4.230   6.600
 9280TIP3    H227802   6.177   4.137   6.552
 9281TIP3   OH227803   6.678   4.183   6.605
 9281TIP3    H127804   6.774   4.171   6.600
 9281TIP3    H227805   6.648   4.127   6.531
 9282TIP3   OH227806   6.659   3.766   4.723
 9282TIP3    H127807   6.603   3.695   4.762
 9282TIP3    H227808   6.736   3.715   4.693
 9283TIP3   OH227809   7.300   4.098   6.328
 9283TIP3    H127810   7.294   4.024   6.393
 9283TIP3    H227811   7.380   4.145   6.358
 9284TIP3   OH227812   7.095   3.805   4.639
 9284TIP3    H127813   7.139   3.744   4.702
 9284TIP3    H227814   7.155   3.801   4.562
 9285TIP3   OH227815   6.328   3.635   6.756
 9285TIP3    H127816   6.342   3.538   6.758
 9285TIP3    H227817   6.241   3.640   6.710
 9286TIP3   OH227818   6.307   3.281   4.950
 9286TIP3    H127819   6.364   3.254   5.024
 9286TIP3    H227820   6.373   3.286   4.878
 9287TIP3   OH227821   6.931   3.721   6.530
 9287TIP3    H127822   6.893   3.744   6.442
 9287TIP3    H227823   6.964   3.629   6.514
 9288TIP3   OH227824   6.819   3.484   4.756
 9288TIP3    H127825   6.821   3.495   4.853
 9288TIP3    H227826   6.819   3.386   4.750
 9289TIP3   OH227827   7.429   3.732   6.143
 9289TIP3    H127828   7.505   3.770   6.094
 9289TIP3    H227829   7.360   3.799   6.121
 9290TIP3   OH227830   6.445   3.371   6.737
 9290TIP3    H127831   6.521   3.321   6.708
 9290TIP3    H227832   6.474   3.402   6.825
 9291TIP3   OH227833   6.510   3.191   5.167
 9291TIP3    H127834   6.484   3.150   5.251
 9291TIP3    H227835   6.549   3.115   5.119
 9292TIP3   OH227836   6.785   3.253   6.401
 9292TIP3    H127837   6.705   3.310   6.399
 9292TIP3    H227838   6.835   3.287   6.323
 9293TIP3   OH227839   6.616   2.984   5.010
 9293TIP3    H127840   6.591   2.993   4.916
 9293TIP3    H227841   6.714   2.985   5.003
 9294TIP3   OH227842   7.295   3.652   6.528
 9294TIP3    H127843   7.376   3.628   6.481
 9294TIP3    H227844   7.299   3.595   6.607
 9295TIP3   OH227845   7.429   3.318   4.684
 9295TIP3    H127846   7.415   3.271   4.599
 9295TIP3    H227847   7.396   3.407   4.658
 9296TIP3   OH227848   6.908   3.042   6.520
 9296TIP3    H127849   6.908   2.964   6.461
 9296TIP3    H227850   6.864   3.110   6.464
 9297TIP3   OH227851   6.908   2.828   6.336
 9297TIP3    H127852   6.938   2.871   6.253
 9297TIP3    H227853   6.815   2.806   6.314
 9298TIP3   OH227854   6.932   3.365   6.208
 9298TIP3    H127855   7.017   3.378   6.165
 9298TIP3    H227856   6.875   3.429   6.160
 9299TIP3   OH227857   7.544   3.316   6.583
 9299TIP3    H127858   7.533   3.245   6.519
 9299TIP3    H227859   7.588   3.386   6.531
 9300TIP3   OH227860   7.557   3.583   6.328
 9300TIP3    H127861   7.500   3.638   6.269
 9300TIP3    H227862   7.644   3.598   6.286
 9301TIP3   OH227863   6.779   3.153   6.755
 9301TIP3    H127864   6.712   3.082   6.769
 9301TIP3    H227865   6.814   3.129   6.668
 9302TIP3   OH227866   7.041   2.589   6.404
 9302TIP3    H127867   6.990   2.670   6.382
 9302TIP3    H227868   6.973   2.520   6.391
 9303TIP3   OH227869   7.166   3.097   6.611
 9303TIP3    H127870   7.143   3.093   6.706
 9303TIP3    H227871   7.077   3.077   6.574
 9304TIP3   OH227872   7.423   3.063   6.500
 9304TIP3    H127873   7.334   3.065   6.541
 9304TIP3    H227874   7.463   2.988   6.547
 9305TIP3   OH227875   6.623   2.929   6.806
 9305TIP3    H127876   6.623   2.836   6.775
 9305TIP3    H227877   6.662   2.919   6.895
 9306TIP3   OH227878   7.122   2.602   6.674
 9306TIP3    H127879   7.162   2.518   6.704
 9306TIP3    H227880   7.101   2.582   6.580
 9307TIP3   OH227881   7.217   2.844   6.771
 9307TIP3    H127882   7.202   2.758   6.728
 9307TIP3    H227883   7.146   2.898   6.733
 9308TIP3   OH227884   6.423   4.043   4.916
 9308TIP3    H127885   6.519   4.034   4.898
 9308TIP3    H227886   6.397   4.097   4.839
 9309TIP3   OH227887   5.900   3.427   5.127
 9309TIP3    H127888   5.996   3.449   5.116
 9309TIP3    H227889   5.896   3.337   5.088
 9310TIP3   OH227890   5.976   3.878   5.694
 9310TIP3    H127891   5.944   3.834   5.774
 9310TIP3    H227892   5.932   3.965   5.704
 9311TIP3   OH227893   7.682   4.281   5.541
 9311TIP3    H127894   7.707   4.331   5.620
 9311TIP3    H227895   7.734   4.327   5.473
 9312TIP3   OH227896   7.714   4.299   5.823
 9312TIP3    H127897   7.670   4.213   5.808
 9312TIP3    H227898   7.786   4.270   5.881
 9313TIP3   OH227899   7.758   4.013   6.381
 9313TIP3    H127900   7.684   4.007   6.444
 9313TIP3    H227901   7.777   4.109   6.377
 9314TIP3   OH227902   7.688   3.339   5.207
 9314TIP3    H127903   7.617   3.322   5.272
 9314TIP3    H227904   7.731   3.419   5.241
 9315TIP3   OH227905   7.750   3.767   5.651
 9315TIP3    H127906   7.792   3.692   5.605
 9315TIP3    H227907   7.752   3.837   5.582
 9316TIP3   OH227908   7.581   4.055   5.837
 9316TIP3    H127909   7.508   4.100   5.882
 9316TIP3    H227910   7.535   4.010   5.763
 9317TIP3   OH227911   7.639   3.264   4.876
 9317TIP3    H127912   7.568   3.302   4.822
 9317TIP3    H227913   7.684   3.342   4.915
 9318TIP3   OH227914   7.509   2.945   4.813
 9318TIP3    H127915   7.465   2.989   4.741
 9318TIP3    H227916   7.483   2.851   4.798
 9319TIP3   OH227917   7.490   3.222   5.366
 9319TIP3    H127918   7.519   3.130   5.356
 9319TIP3    H227919   7.484   3.233   5.464
 9320TIP3   OH227920   6.138   3.290   6.108
 9320TIP3    H127921   6.135   3.261   6.015
 9320TIP3    H227922   6.235   3.295   6.122
 9321TIP3   OH227923   7.798   3.634   6.198
 9321TIP3    H127924   7.874   3.572   6.191
 9321TIP3    H227925   7.823   3.702   6.134
 9322TIP3   OH227926   8.010   3.456   6.228
 9322TIP3    H127927   7.943   3.398   6.270
 9322TIP3    H227928   8.093   3.408   6.244
 9323TIP3   OH227929   7.448   2.680   4.791
 9323TIP3    H127930   7.520   2.655   4.851
 9323TIP3    H227931   7.376   2.619   4.814
 9324TIP3   OH227932   7.509   2.942   5.248
 9324TIP3    H127933   7.549   2.852   5.256
 9324TIP3    H227934   7.569   2.979   5.180
 9325TIP3   OH227935   7.663   3.113   5.749
 9325TIP3    H127936   7.743   3.145   5.701
 9325TIP3    H227937   7.684   3.145   5.838
 9326TIP3   OH227938   7.736   3.264   5.979
 9326TIP3    H127939   7.657   3.301   6.022
 9326TIP3    H227940   7.774   3.342   5.934
 9327TIP3   OH227941   6.360   2.990   6.777
 9327TIP3    H127942   6.457   2.983   6.780
 9327TIP3    H227943   6.335   2.901   6.811
 9328TIP3   OH227944   7.612   2.691   5.283
 9328TIP3    H127945   7.656   2.691   5.371
 9328TIP3    H227946   7.552   2.614   5.291
 9329TIP3   OH227947   6.317   2.677   6.114
 9329TIP3    H127948   6.379   2.602   6.119
 9329TIP3    H227949   6.379   2.751   6.102
 9330TIP3   OH227950   6.118   2.947   6.182
 9330TIP3    H127951   6.168   2.946   6.098
 9330TIP3    H227952   6.140   3.035   6.216
 9331TIP3   OH227953   7.694   2.631   4.926
 9331TIP3    H127954   7.729   2.567   4.862
 9331TIP3    H227955   7.761   2.703   4.922
 9332TIP3   OH227956   6.104   2.445   5.679
 9332TIP3    H127957   6.012   2.447   5.710
 9332TIP3    H227958   6.101   2.508   5.603
 9333TIP3   OH227959   7.263   4.157   5.190
 9333TIP3    H127960   7.314   4.147   5.107
 9333TIP3    H227961   7.316   4.223   5.237
 9334TIP3   OH227962   6.324   2.531   6.497
 9334TIP3    H127963   6.273   2.532   6.579
 9334TIP3    H227964   6.260   2.570   6.435
 9335TIP3   OH227965   6.366   3.956   6.574
 9335TIP3    H127966   6.273   3.937   6.553
 9335TIP3    H227967   6.366   3.949   6.669
 9336TIP3   OH227968   6.545   3.998   6.124
 9336TIP3    H127969   6.495   4.072   6.084
 9336TIP3    H227970   6.630   4.013   6.077
 9337TIP3   OH227971   6.982   4.233   6.260
 9337TIP3    H127972   7.026   4.236   6.347
 9337TIP3    H227973   7.046   4.283   6.205
 9338TIP3   OH227974   7.153   4.384   6.112
 9338TIP3    H127975   7.228   4.342   6.067
 9338TIP3    H227976   7.199   4.442   6.176
 9339TIP3   OH227977   6.224   4.246   6.155
 9339TIP3    H127978   6.139   4.271   6.112
 9339TIP3    H227979   6.217   4.301   6.235
 9340TIP3   OH227980   6.456   4.229   6.006
 9340TIP3    H127981   6.369   4.239   6.050
 9340TIP3    H227982   6.434   4.257   5.914
 9341TIP3   OH227983   6.880   4.255   5.804
 9341TIP3    H127984   6.809   4.270   5.738
 9341TIP3    H227985   6.890   4.344   5.842
 9342TIP3   OH227986   7.150   4.193   5.858
 9342TIP3    H127987   7.056   4.213   5.837
 9342TIP3    H227988   7.195   4.264   5.809
 9343TIP3   OH227989   7.351   4.382   5.766
 9343TIP3    H127990   7.333   4.466   5.718
 9343TIP3    H227991   7.377   4.322   5.692
 9344TIP3   OH227992   6.156   4.061   5.903
 9344TIP3    H127993   6.168   4.016   5.989
 9344TIP3    H227994   6.203   3.999   5.843
 9345TIP3   OH227995   6.330   3.911   5.746
 9345TIP3    H127996   6.345   3.830   5.800
 9345TIP3    H227997   6.419   3.951   5.746
 9346TIP3   OH227998   6.594   4.009   5.753
 9346TIP3    H127999   6.625   3.918   5.741
 9346TIP3    H228000   6.640   4.032   5.837
 9347TIP3   OH228001   7.160   2.666   5.837
 9347TIP3    H128002   7.121   2.592   5.885
 9347TIP3    H228003   7.238   2.626   5.795
 9348TIP3   OH228004   7.678   2.541   5.723
 9348TIP3    H128005   7.714   2.604   5.657
 9348TIP3    H228006   7.587   2.573   5.734
 9349TIP3   OH228007   7.757   2.687   5.512
 9349TIP3    H128008   7.827   2.628   5.477
 9349TIP3    H228009   7.801   2.775   5.498
 9350TIP3   OH228010   6.413   2.373   5.853
 9350TIP3    H128011   6.321   2.342   5.855
 9350TIP3    H228012   6.461   2.287   5.849
 9351TIP3   OH228013   6.206   2.244   5.505
 9351TIP3    H128014   6.235   2.299   5.429
 9351TIP3    H228015   6.177   2.312   5.569
 9352TIP3   OH228016   6.860   2.404   5.738
 9352TIP3    H128017   6.912   2.452   5.670
 9352TIP3    H228018   6.893   2.445   5.820
 9353TIP3   OH228019   7.388   2.557   5.720
 9353TIP3    H128020   7.401   2.520   5.632
 9353TIP3    H228021   7.379   2.475   5.775
 9354TIP3   OH228022   7.429   2.480   5.288
 9354TIP3    H128023   7.344   2.525   5.303
 9354TIP3    H228024   7.412   2.393   5.328
 9355TIP3   OH228025   5.926   3.815   5.277
 9355TIP3    H128026   5.839   3.784   5.245
 9355TIP3    H228027   5.915   3.910   5.267
 9356TIP3   OH228028   6.321   2.397   5.269
 9356TIP3    H128029   6.368   2.338   5.207
 9356TIP3    H228030   6.394   2.454   5.301
 9357TIP3   OH228031   6.829   2.580   5.365
 9357TIP3    H128032   6.892   2.536   5.424
 9357TIP3    H228033   6.849   2.674   5.388
 9358TIP3   OH228034   6.690   3.999   4.864
 9358TIP3    H128035   6.778   4.023   4.828
 9358TIP3    H228036   6.668   3.925   4.804
 9359TIP3   OH228037   7.408   4.126   4.957
 9359TIP3    H128038   7.398   4.028   4.946
 9359TIP3    H228039   7.362   4.157   4.876
 9360TIP3   OH228040   6.622   2.655   6.749
 9360TIP3    H128041   6.584   2.582   6.801
 9360TIP3    H228042   6.716   2.649   6.776
 9361TIP3   OH228043   6.881   2.636   6.864
 9361TIP3    H128044   6.957   2.650   6.805
 9361TIP3    H228045   6.899   2.545   6.894
 9362TIP3   OH228046   5.993   3.838   4.919
 9362TIP3    H128047   5.994   3.855   5.014
 9362TIP3    H228048   6.081   3.797   4.903
 9363TIP3   OH228049   7.618   4.275   6.147
 9363TIP3    H128050   7.549   4.236   6.088
 9363TIP3    H228051   7.589   4.368   6.144
 9364TIP3   OH228052   8.168   3.586   5.603
 9364TIP3    H128053   8.201   3.504   5.645
 9364TIP3    H228054   8.245   3.642   5.613
 9365TIP3   OH228055   8.183   3.936   5.381
 9365TIP3    H128056   8.133   3.861   5.415
 9365TIP3    H228057   8.223   3.973   5.461
 9366TIP3   OH228058   7.893   3.151   5.178
 9366TIP3    H128059   7.838   3.232   5.178
 9366TIP3    H228060   7.834   3.093   5.128
 9367TIP3   OH228061   7.923   3.461   5.323
 9367TIP3    H128062   7.969   3.377   5.346
 9367TIP3    H228063   7.949   3.472   5.229
 9368TIP3   OH228064   8.040   3.226   5.408
 9368TIP3    H128065   8.134   3.204   5.407
 9368TIP3    H228066   8.002   3.165   5.341
 9369TIP3   OH228067   8.299   3.710   5.913
 9369TIP3    H128068   8.316   3.800   5.945
 9369TIP3    H228069   8.203   3.698   5.935
 9370TIP3   OH228070   7.957   3.800   5.837
 9370TIP3    H128071   7.884   3.785   5.774
 9370TIP3    H228072   7.984   3.709   5.860
 9371TIP3   OH228073   7.811   3.990   5.482
 9371TIP3    H128074   7.905   4.005   5.468
 9371TIP3    H228075   7.785   4.072   5.528
 9372TIP3   OH228076   7.957   4.217   5.022
 9372TIP3    H128077   7.998   4.199   5.110
 9372TIP3    H228078   7.911   4.131   5.007
 9373TIP3   OH228079   8.163   3.978   5.804
 9373TIP3    H128080   8.169   4.019   5.892
 9373TIP3    H228081   8.091   3.912   5.817
 9374TIP3   OH228082   7.906   2.893   5.425
 9374TIP3    H128083   7.993   2.930   5.450
 9374TIP3    H228084   7.922   2.855   5.337
 9375TIP3   OH228085   7.880   2.848   4.940
 9375TIP3    H128086   7.917   2.887   4.858
 9375TIP3    H228087   7.820   2.922   4.965
 9376TIP3   OH228088   8.307   3.936   6.093
 9376TIP3    H128089   8.391   3.971   6.057
 9376TIP3    H228090   8.251   4.018   6.094
 9377TIP3   OH228091   8.061   3.586   5.986
 9377TIP3    H128092   8.066   3.541   6.073
 9377TIP3    H228093   8.003   3.524   5.938
 9378TIP3   OH228094   7.843   3.277   4.689
 9378TIP3    H128095   7.893   3.350   4.732
 9378TIP3    H228096   7.773   3.271   4.758
 9379TIP3   OH228097   8.194   4.255   4.896
 9379TIP3    H128098   8.102   4.239   4.929
 9379TIP3    H228099   8.203   4.350   4.908
 9380TIP3   OH228100   8.016   4.170   5.620
 9380TIP3    H128101   8.069   4.103   5.666
 9380TIP3    H228102   8.028   4.246   5.678
 9381TIP3   OH228103   7.958   3.784   4.584
 9381TIP3    H128104   8.023   3.847   4.620
 9381TIP3    H228105   8.011   3.702   4.589
 9382TIP3   OH228106   7.882   3.009   4.723
 9382TIP3    H128107   7.898   3.106   4.726
 9382TIP3    H228108   7.789   3.005   4.699
 9383TIP3   OH228109   7.842   3.972   4.991
 9383TIP3    H128110   7.757   3.938   5.022
 9383TIP3    H228111   7.833   3.961   4.895
 9384TIP3   OH228112   8.080   3.862   6.288
 9384TIP3    H128113   8.141   3.803   6.243
 9384TIP3    H228114   8.022   3.892   6.216
 9385TIP3   OH228115   7.684   3.703   4.569
 9385TIP3    H128116   7.774   3.726   4.601
 9385TIP3    H228117   7.690   3.605   4.565
 9386TIP3   OH228118   7.611   4.298   5.031
 9386TIP3    H128119   7.547   4.233   4.995
 9386TIP3    H228120   7.656   4.243   5.099
 9387TIP3   OH228121   7.730   4.160   5.234
 9387TIP3    H128122   7.733   4.073   5.276
 9387TIP3    H228123   7.789   4.212   5.292
 9388TIP3   OH228124   7.901   3.552   5.581
 9388TIP3    H128125   7.894   3.516   5.490
 9388TIP3    H228126   7.998   3.567   5.584
 9389TIP3   OH228127   7.897   3.213   5.647
 9389TIP3    H128128   7.934   3.214   5.557
 9389TIP3    H228129   7.970   3.255   5.696
 9390TIP3   OH228130   7.880   2.738   5.189
 9390TIP3    H128131   7.789   2.711   5.207
 9390TIP3    H228132   7.873   2.777   5.099
 9391TIP3   OH228133   8.140   4.146   6.058
 9391TIP3    H128134   8.047   4.172   6.056
 9391TIP3    H228135   8.180   4.221   6.106
 9392TIP3   OH228136   8.342   4.213   5.587
 9392TIP3    H128137   8.287   4.285   5.550
 9392TIP3    H228138   8.429   4.253   5.583
 9393TIP3   OH228139   8.013   4.510   5.641
 9393TIP3    H128140   7.921   4.540   5.622
 9393TIP3    H228141   8.019   4.522   5.737
 9394TIP3   OH228142   8.224   4.442   5.480
 9394TIP3    H128143   8.143   4.467   5.530
 9394TIP3    H228144   8.209   4.492   5.396
 9395TIP3   OH228145   7.916   4.305   5.387
 9395TIP3    H128146   7.946   4.279   5.476
 9395TIP3    H228147   7.987   4.261   5.334
 9396TIP3   OH228148   8.106   4.173   5.252
 9396TIP3    H128149   8.131   4.080   5.273
 9396TIP3    H228150   8.194   4.214   5.249
 9397TIP3   OH228151   7.719   4.065   4.750
 9397TIP3    H128152   7.630   4.035   4.724
 9397TIP3    H228153   7.705   4.161   4.755
 9398TIP3   OH228154   7.803   4.100   4.422
 9398TIP3    H128155   7.766   4.137   4.504
 9398TIP3    H228156   7.848   4.021   4.456
 9399TIP3   OH228157   1.355   4.428   6.596
 9399TIP3    H128158   1.324   4.519   6.575
 9399TIP3    H228159   1.279   4.377   6.564
 9400TIP3   OH228160   1.352   4.428   6.978
 9400TIP3    H128161   1.389   4.410   7.066
 9400TIP3    H228162   1.308   4.344   6.957
 9401TIP3   OH228163   0.649   4.362   7.274
 9401TIP3    H128164   0.571   4.383   7.328
 9401TIP3    H228165   0.723   4.402   7.326
 9402TIP3   OH228166   1.600   4.730   6.664
 9402TIP3    H128167   1.579   4.663   6.730
 9402TIP3    H228168   1.628   4.805   6.719
 9403TIP3   OH228169   0.705   4.696   7.175
 9403TIP3    H128170   0.673   4.618   7.127
 9403TIP3    H228171   0.771   4.730   7.111
 9404TIP3   OH228172   1.257   5.196   6.683
 9404TIP3    H128173   1.294   5.122   6.630
 9404TIP3    H228174   1.231   5.151   6.764
 9405TIP3   OH228175   1.151   4.658   7.027
 9405TIP3    H128176   1.189   4.580   6.982
 9405TIP3    H228177   1.235   4.704   7.046
 9406TIP3   OH228178   2.167   3.974   7.025
 9406TIP3    H128179   2.196   4.055   7.072
 9406TIP3    H228180   2.189   3.996   6.933
 9407TIP3   OH228181   1.566   4.149   7.060
 9407TIP3    H128182   1.610   4.063   7.075
 9407TIP3    H228183   1.533   4.138   6.969
 9408TIP3   OH228184   0.928   3.802   7.008
 9408TIP3    H128185   0.900   3.877   6.951
 9408TIP3    H228186   0.882   3.728   6.964
 9409TIP3   OH228187   1.600   3.905   6.646
 9409TIP3    H128188   1.672   3.890   6.712
 9409TIP3    H228189   1.653   3.940   6.572
 9410TIP3   OH228190   0.552   3.996   7.176
 9410TIP3    H128191   0.644   3.963   7.173
 9410TIP3    H228192   0.517   3.978   7.088
 9411TIP3   OH228193   0.976   4.215   6.919
 9411TIP3    H128194   1.072   4.196   6.924
 9411TIP3    H228195   0.940   4.128   6.892
 9412TIP3   OH228196   2.237   4.181   7.200
 9412TIP3    H128197   2.152   4.227   7.183
 9412TIP3    H228198   2.267   4.225   7.281
 9413TIP3   OH228199   1.245   4.650   6.464
 9413TIP3    H128200   1.199   4.634   6.381
 9413TIP3    H228201   1.199   4.731   6.495
 9414TIP3   OH228202   1.017   4.565   7.267
 9414TIP3    H128203   0.953   4.622   7.313
 9414TIP3    H228204   1.048   4.622   7.193
 9415TIP3   OH228205   1.806   3.909   6.825
 9415TIP3    H128206   1.782   3.874   6.912
 9415TIP3    H228207   1.857   3.988   6.848
 9416TIP3   OH228208   0.814   3.895   7.240
 9416TIP3    H128209   0.865   3.973   7.267
 9416TIP3    H228210   0.861   3.865   7.160
 9417TIP3   OH228211   0.811   4.740   7.435
 9417TIP3    H128212   0.797   4.816   7.373
 9417TIP3    H228213   0.755   4.674   7.391
 9418TIP3   OH228214   1.668   4.976   6.829
 9418TIP3    H128215   1.578   4.966   6.869
 9418TIP3    H228216   1.657   5.062   6.783
 9419TIP3   OH228217   1.953   3.883   7.186
 9419TIP3    H128218   1.869   3.907   7.142
 9419TIP3    H228219   2.020   3.912   7.120
 9420TIP3   OH228220   1.280   3.515   7.157
 9420TIP3    H128221   1.266   3.455   7.082
 9420TIP3    H228222   1.186   3.541   7.174
 9421TIP3   OH228223   1.367   5.018   6.501
 9421TIP3    H128224   1.416   4.935   6.483
 9421TIP3    H228225   1.430   5.082   6.462
 9422TIP3   OH228226   1.512   4.802   6.413
 9422TIP3    H128227   1.464   4.725   6.380
 9422TIP3    H228228   1.551   4.768   6.497
 9423TIP3   OH228229   1.894   4.886   7.171
 9423TIP3    H128230   1.879   4.807   7.115
 9423TIP3    H228231   1.873   4.959   7.110
 9424TIP3   OH228232   1.187   4.277   6.434
 9424TIP3    H128233   1.106   4.329   6.417
 9424TIP3    H228234   1.229   4.276   6.346
 9425TIP3   OH228235   1.143   4.065   6.143
 9425TIP3    H128236   1.208   4.118   6.192
 9425TIP3    H228237   1.203   4.002   6.097
 9426TIP3   OH228238   2.087   4.524   7.019
 9426TIP3    H128239   2.002   4.574   7.023
 9426TIP3    H228240   2.118   4.548   6.929
 9427TIP3   OH228241   1.533   4.362   6.400
 9427TIP3    H128242   1.478   4.386   6.478
 9427TIP3    H228243   1.618   4.340   6.444
 9428TIP3   OH228244   1.767   4.391   7.317
 9428TIP3    H128245   1.771   4.470   7.377
 9428TIP3    H228246   1.684   4.410   7.269
 9429TIP3   OH228247   0.771   4.354   6.811
 9429TIP3    H128248   0.737   4.292   6.744
 9429TIP3    H228249   0.848   4.304   6.847
 9430TIP3   OH228250   0.886   4.743   6.968
 9430TIP3    H128251   0.879   4.736   6.872
 9430TIP3    H228252   0.980   4.719   6.983
 9431TIP3   OH228253   0.939   4.315   7.179
 9431TIP3    H128254   0.948   4.304   7.082
 9431TIP3    H228255   0.965   4.408   7.194
 9432TIP3   OH228256   1.427   4.970   6.948
 9432TIP3    H128257   1.416   5.047   7.007
 9432TIP3    H228258   1.411   4.894   7.007
 9433TIP3   OH228259   1.048   4.902   7.462
 9433TIP3    H128260   1.018   4.930   7.550
 9433TIP3    H228261   0.980   4.835   7.440
 9434TIP3   OH228262   1.372   4.218   6.228
 9434TIP3    H128263   1.430   4.281   6.278
 9434TIP3    H228264   1.399   4.239   6.135
 9435TIP3   OH228265   1.118   4.894   6.507
 9435TIP3    H128266   1.198   4.950   6.513
 9435TIP3    H228267   1.055   4.952   6.461
 9436TIP3   OH228268   1.888   3.458   6.278
 9436TIP3    H128269   1.806   3.481   6.327
 9436TIP3    H228270   1.904   3.541   6.228
 9437TIP3   OH228271   0.646   4.200   6.615
 9437TIP3    H128272   0.603   4.268   6.561
 9437TIP3    H228273   0.568   4.162   6.659
 9438TIP3   OH228274   1.688   4.825   5.825
 9438TIP3    H128275   1.696   4.922   5.811
 9438TIP3    H228276   1.781   4.796   5.814
 9439TIP3   OH228277   2.132   5.233   7.218
 9439TIP3    H128278   2.131   5.136   7.230
 9439TIP3    H228279   2.046   5.256   7.260
 9440TIP3   OH228280   1.250   5.019   7.332
 9440TIP3    H128281   1.242   5.109   7.370
 9440TIP3    H228282   1.175   4.973   7.377
 9441TIP3   OH228283   1.006   5.142   6.307
 9441TIP3    H128284   0.951   5.129   6.229
 9441TIP3    H228285   0.974   5.228   6.341
 9442TIP3   OH228286   1.198   5.047   5.944
 9442TIP3    H128287   1.256   4.976   5.909
 9442TIP3    H228288   1.232   5.057   6.035
 9443TIP3   OH228289   1.253   5.093   6.212
 9443TIP3    H128290   1.163   5.106   6.251
 9443TIP3    H228291   1.300   5.053   6.287
 9444TIP3   OH228292   2.030   4.357   7.486
 9444TIP3    H128293   1.936   4.378   7.471
 9444TIP3    H228294   2.033   4.261   7.467
 9445TIP3   OH228295   1.017   3.556   7.211
 9445TIP3    H128296   0.925   3.532   7.197
 9445TIP3    H228297   1.010   3.627   7.278
 9446TIP3   OH228298   1.774   4.134   7.432
 9446TIP3    H128299   1.751   4.167   7.520
 9446TIP3    H228300   1.752   4.213   7.379
 9447TIP3   OH228301   1.451   4.259   5.974
 9447TIP3    H128302   1.413   4.240   5.886
 9447TIP3    H228303   1.532   4.308   5.949
 9448TIP3   OH228304   1.162   3.636   6.278
 9448TIP3    H128305   1.123   3.633   6.368
 9448TIP3    H228306   1.120   3.557   6.240
 9449TIP3   OH228307   0.966   4.105   7.340
 9449TIP3    H128308   0.903   4.130   7.410
 9449TIP3    H228309   0.956   4.183   7.280
 9450TIP3   OH228310   0.837   3.989   6.838
 9450TIP3    H128311   0.743   3.969   6.848
 9450TIP3    H228312   0.850   3.956   6.746
 9451TIP3   OH228313   1.322   4.077   6.566
 9451TIP3    H128314   1.272   4.149   6.523
 9451TIP3    H228315   1.377   4.045   6.492
 9452TIP3   OH228316   1.480   4.106   6.803
 9452TIP3    H128317   1.416   4.137   6.736
 9452TIP3    H228318   1.513   4.027   6.755
 9453TIP3   OH228319   0.822   3.614   6.244
 9453TIP3    H128320   0.803   3.617   6.339
 9453TIP3    H228321   0.751   3.672   6.209
 9454TIP3   OH228322   1.488   4.361   7.211
 9454TIP3    H128323   1.520   4.285   7.157
 9454TIP3    H228324   1.490   4.322   7.301
 9455TIP3   OH228325   1.176   3.803   6.893
 9455TIP3    H128326   1.090   3.807   6.940
 9455TIP3    H228327   1.236   3.833   6.964
 9456TIP3   OH228328   0.610   3.820   6.880
 9456TIP3    H128329   0.543   3.761   6.843
 9456TIP3    H228330   0.682   3.756   6.896
 9457TIP3   OH228331   0.864   3.866   6.599
 9457TIP3    H128332   0.955   3.885   6.570
 9457TIP3    H228333   0.811   3.888   6.518
 9458TIP3   OH228334   1.658   3.888   7.092
 9458TIP3    H128335   1.638   3.886   7.188
 9458TIP3    H228336   1.584   3.834   7.058
 9459TIP3   OH228337   0.720   3.893   6.378
 9459TIP3    H128338   0.632   3.861   6.352
 9459TIP3    H228339   0.755   3.930   6.294
 9460TIP3   OH228340   1.832   5.578   7.317
 9460TIP3    H128341   1.822   5.603   7.223
 9460TIP3    H228342   1.910   5.630   7.343
 9461TIP3   OH228343   1.239   4.156   6.968
 9461TIP3    H128344   1.322   4.117   6.936
 9461TIP3    H228345   1.230   4.113   7.056
 9462TIP3   OH228346   0.790   3.614   6.869
 9462TIP3    H128347   0.743   3.541   6.917
 9462TIP3    H228348   0.800   3.575   6.781
 9463TIP3   OH228349   1.208   4.032   7.212
 9463TIP3    H128350   1.122   4.059   7.251
 9463TIP3    H228351   1.261   4.017   7.291
 9464TIP3   OH228352   0.961   4.426   6.383
 9464TIP3    H128353   0.887   4.363   6.368
 9464TIP3    H228354   0.937   4.464   6.471
 9465TIP3   OH228355   1.853   4.668   7.007
 9465TIP3    H128356   1.876   4.719   6.927
 9465TIP3    H228357   1.769   4.624   6.981
 9466TIP3   OH228358   1.413   3.740   6.248
 9466TIP3    H128359   1.316   3.721   6.255
 9466TIP3    H228360   1.419   3.834   6.271
 9467TIP3   OH228361   1.358   4.752   7.357
 9467TIP3    H128362   1.363   4.731   7.452
 9467TIP3    H228363   1.316   4.839   7.360
 9468TIP3   OH228364   1.480   3.991   6.349
 9468TIP3    H128365   1.576   4.000   6.364
 9468TIP3    H228366   1.459   4.072   6.298
 9469TIP3   OH228367   0.645   4.471   7.026
 9469TIP3    H128368   0.698   4.424   6.958
 9469TIP3    H228369   0.654   4.413   7.104
 9470TIP3   OH228370   1.099   4.582   6.204
 9470TIP3    H128371   1.050   4.667   6.207
 9470TIP3    H228372   1.044   4.527   6.264
 9471TIP3   OH228373   1.518   5.014   7.252
 9471TIP3    H128374   1.424   5.014   7.277
 9471TIP3    H228375   1.561   5.048   7.334
 9472TIP3   OH228376   1.920   4.085   6.182
 9472TIP3    H128377   1.860   4.041   6.118
 9472TIP3    H228378   1.917   4.176   6.143
 9473TIP3   OH228379   2.143   4.948   7.258
 9473TIP3    H128380   2.046   4.936   7.249
 9473TIP3    H228381   2.171   4.914   7.170
 9474TIP3   OH228382   1.629   4.901   6.093
 9474TIP3    H128383   1.595   4.835   6.154
 9474TIP3    H228384   1.637   4.852   6.009
 9475TIP3   OH228385   1.620   4.531   6.924
 9475TIP3    H128386   1.526   4.508   6.935
 9475TIP3    H228387   1.652   4.451   6.879
 9476TIP3   OH228388   0.739   4.758   6.680
 9476TIP3    H128389   0.738   4.846   6.635
 9476TIP3    H228390   0.648   4.731   6.660
 9477TIP3   OH228391   0.880   4.525   6.620
 9477TIP3    H128392   0.845   4.614   6.640
 9477TIP3    H228393   0.848   4.473   6.696
 9478TIP3   OH228394   1.025   5.098   7.146
 9478TIP3    H128395   1.059   5.173   7.092
 9478TIP3    H228396   1.106   5.073   7.194
 9479TIP3   OH228397   0.663   4.991   6.552
 9479TIP3    H128398   0.571   4.997   6.515
 9479TIP3    H228399   0.692   5.085   6.545
 9480TIP3   OH228400   1.410   4.732   7.093
 9480TIP3    H128401   1.396   4.732   7.191
 9480TIP3    H228402   1.489   4.677   7.085
 9481TIP3   OH228403   1.382   4.632   5.991
 9481TIP3    H128404   1.434   4.605   6.070
 9481TIP3    H228405   1.293   4.603   6.018
 9482TIP3   OH228406   1.653   5.269   7.159
 9482TIP3    H128407   1.574   5.211   7.152
 9482TIP3    H228408   1.636   5.331   7.085
 9483TIP3   OH228409   1.719   5.101   5.810
 9483TIP3    H128410   1.755   5.176   5.759
 9483TIP3    H228411   1.639   5.144   5.846
 9484TIP3   OH228412   1.543   4.559   6.203
 9484TIP3    H128413   1.532   4.496   6.277
 9484TIP3    H228414   1.641   4.557   6.194
 9485TIP3   OH228415   0.742   4.604   5.983
 9485TIP3    H128416   0.760   4.510   5.962
 9485TIP3    H228417   0.731   4.599   6.081
 9486TIP3   OH228418   0.714   4.615   6.252
 9486TIP3    H128419   0.754   4.586   6.335
 9486TIP3    H228420   0.701   4.711   6.267
 9487TIP3   OH228421   1.597   3.915   7.366
 9487TIP3    H128422   1.661   3.989   7.378
 9487TIP3    H228423   1.532   3.937   7.434
 9488TIP3   OH228424   1.459   3.689   6.529
 9488TIP3    H128425   1.443   3.711   6.435
 9488TIP3    H228426   1.497   3.773   6.563
 9489TIP3   OH228427   0.962   4.816   6.213
 9489TIP3    H128428   0.873   4.832   6.250
 9489TIP3    H228429   0.970   4.893   6.156
 9490TIP3   OH228430   1.147   3.874   6.626
 9490TIP3    H128431   1.208   3.949   6.606
 9490TIP3    H228432   1.155   3.868   6.723
 9491TIP3   OH228433   1.497   4.239   7.458
 9491TIP3    H128434   1.454   4.298   7.522
 9491TIP3    H228435   1.438   4.162   7.461
 9492TIP3   OH228436   1.284   3.595   6.727
 9492TIP3    H128437   1.267   3.676   6.780
 9492TIP3    H228438   1.349   3.631   6.662
 9493TIP3   OH228439   0.701   4.891   6.275
 9493TIP3    H128440   0.663   4.957   6.215
 9493TIP3    H228441   0.661   4.918   6.360
 9494TIP3   OH228442   0.800   3.602   6.525
 9494TIP3    H128443   0.799   3.696   6.552
 9494TIP3    H228444   0.896   3.586   6.526
 9495TIP3   OH228445   2.046   4.085   7.418
 9495TIP3    H128446   1.948   4.078   7.419
 9495TIP3    H228447   2.066   4.050   7.330
 9496TIP3   OH228448   1.705   4.287   6.803
 9496TIP3    H128449   1.629   4.227   6.814
 9496TIP3    H228450   1.776   4.239   6.851
 9497TIP3   OH228451   0.438   3.798   6.389
 9497TIP3    H128452   0.389   3.867   6.342
 9497TIP3    H228453   0.422   3.720   6.333
 9498TIP3   OH228454   1.675   5.247   6.752
 9498TIP3    H128455   1.631   5.293   6.677
 9498TIP3    H228456   1.769   5.264   6.729
 9499TIP3   OH228457   0.908   4.808   5.903
 9499TIP3    H128458   0.848   4.738   5.938
 9499TIP3    H228459   0.984   4.753   5.877
 9500TIP3   OH228460   1.618   5.110   7.491
 9500TIP3    H128461   1.541   5.112   7.550
 9500TIP3    H228462   1.672   5.183   7.526
 9501TIP3   OH228463   1.345   4.850   5.817
 9501TIP3    H128464   1.383   4.783   5.877
 9501TIP3    H228465   1.402   4.844   5.739
 9502TIP3   OH228466   0.549   4.274   6.101
 9502TIP3    H128467   0.588   4.299   6.185
 9502TIP3    H228468   0.623   4.293   6.040
 9503TIP3   OH228469   1.070   4.532   5.935
 9503TIP3    H128470   1.069   4.541   6.032
 9503TIP3    H228471   1.067   4.434   5.927
 9504TIP3   OH228472   1.671   4.780   7.304
 9504TIP3    H128473   1.745   4.827   7.261
 9504TIP3    H228474   1.597   4.841   7.284
 9505TIP3   OH228475   0.767   4.233   6.354
 9505TIP3    H128476   0.739   4.187   6.434
 9505TIP3    H228477   0.797   4.159   6.297
 9506TIP3   OH228478   0.863   4.030   6.184
 9506TIP3    H128479   0.836   4.039   6.091
 9506TIP3    H228480   0.960   4.032   6.177
 9507TIP3   OH228481   1.684   4.356   5.853
 9507TIP3    H128482   1.662   4.313   5.768
 9507TIP3    H228483   1.650   4.447   5.833
 9508TIP3   OH228484   1.212   4.392   7.381
 9508TIP3    H128485   1.280   4.425   7.320
 9508TIP3    H228486   1.135   4.445   7.352
 9509TIP3   OH228487   1.815   4.617   7.465
 9509TIP3    H128488   1.746   4.676   7.426
 9509TIP3    H228489   1.896   4.658   7.429
 9510TIP3   OH228490   0.671   5.104   6.076
 9510TIP3    H128491   0.766   5.080   6.075
 9510TIP3    H228492   0.661   5.136   5.984
 9511TIP3   OH228493   1.931   5.331   6.712
 9511TIP3    H128494   1.957   5.365   6.799
 9511TIP3    H228495   1.994   5.375   6.653
 9512TIP3   OH228496   1.957   5.354   6.994
 9512TIP3    H128497   1.909   5.268   6.987
 9512TIP3    H228498   2.033   5.325   7.047
 9513TIP3   OH228499   1.996   5.035   7.569
 9513TIP3    H128500   1.903   5.054   7.552
 9513TIP3    H228501   2.037   5.123   7.571
 9514TIP3   OH228502   1.822   4.542   6.184
 9514TIP3    H128503   1.887   4.608   6.153
 9514TIP3    H228504   1.867   4.506   6.263
 9515TIP3   OH228505   1.950   4.410   6.389
 9515TIP3    H128506   1.882   4.370   6.447
 9515TIP3    H228507   2.013   4.447   6.453
 9516TIP3   OH228508   2.007   4.807   6.822
 9516TIP3    H128509   2.056   4.737   6.775
 9516TIP3    H228510   2.000   4.877   6.755
 9517TIP3   OH228511   1.830   5.106   7.014
 9517TIP3    H128512   1.756   5.145   7.063
 9517TIP3    H228513   1.783   5.060   6.941
 9518TIP3   OH228514   1.885   4.318   6.034
 9518TIP3    H128515   1.814   4.321   5.966
 9518TIP3    H228516   1.857   4.394   6.089
 9519TIP3   OH228517   1.761   3.989   5.984
 9519TIP3    H128518   1.708   4.029   5.914
 9519TIP3    H228519   1.736   3.895   5.974
 9520TIP3   OH228520   1.761   4.271   6.534
 9520TIP3    H128521   1.767   4.174   6.526
 9520TIP3    H228522   1.746   4.283   6.631
 9521TIP3   OH228523   2.063   4.703   7.390
 9521TIP3    H128524   2.127   4.629   7.380
 9521TIP3    H228525   2.084   4.760   7.315
 9522TIP3   OH228526   2.240   4.500   7.398
 9522TIP3    H128527   2.166   4.449   7.438
 9522TIP3    H228528   2.313   4.439   7.416
 9523TIP3   OH228529   1.701   3.722   5.966
 9523TIP3    H128530   1.772   3.692   6.026
 9523TIP3    H228531   1.625   3.667   5.990
 9524TIP3   OH228532   1.759   3.986   6.428
 9524TIP3    H128533   1.799   3.897   6.442
 9524TIP3    H228534   1.816   4.019   6.356
 9525TIP3   OH228535   1.917   4.153   6.924
 9525TIP3    H128536   2.003   4.178   6.882
 9525TIP3    H228537   1.931   4.193   7.012
 9526TIP3   OH228538   1.988   4.301   7.153
 9526TIP3    H128539   1.914   4.336   7.206
 9526TIP3    H228540   2.020   4.383   7.109
 9527TIP3   OH228541   1.867   3.736   6.465
 9527TIP3    H128542   1.915   3.720   6.549
 9527TIP3    H228543   1.806   3.660   6.464
 9528TIP3   OH228544   2.296   4.039   7.524
 9528TIP3    H128545   2.202   4.058   7.504
 9528TIP3    H228546   2.302   3.952   7.481
 9529TIP3   OH228547   1.944   3.666   6.102
 9529TIP3    H128548   1.985   3.598   6.045
 9529TIP3    H228549   2.011   3.738   6.100
 9530TIP3   OH228550   1.516   5.201   6.368
 9530TIP3    H128551   1.564   5.191   6.283
 9530TIP3    H228552   1.567   5.270   6.412
 9531TIP3   OH228553   0.827   4.969   7.290
 9531TIP3    H128554   0.816   5.046   7.350
 9531TIP3    H228555   0.905   4.999   7.240
 9532TIP3   OH228556   1.242   5.271   7.437
 9532TIP3    H128557   1.297   5.248   7.514
 9532TIP3    H228558   1.304   5.330   7.387
 9533TIP3   OH228559   1.410   5.432   7.294
 9533TIP3    H128560   1.479   5.384   7.245
 9533TIP3    H228561   1.463   5.496   7.346
 9534TIP3   OH228562   2.237   3.810   7.369
 9534TIP3    H128563   2.144   3.811   7.398
 9534TIP3    H228564   2.255   3.714   7.364
 9535TIP3   OH228565   1.136   5.293   6.983
 9535TIP3    H128566   1.070   5.309   6.912
 9535TIP3    H228567   1.145   5.383   7.020
 9536TIP3   OH228568   1.403   5.242   7.036
 9536TIP3    H128569   1.308   5.252   7.016
 9536TIP3    H228570   1.441   5.314   6.984
 9537TIP3   OH228571   1.610   5.434   6.944
 9537TIP3    H128572   1.592   5.516   6.895
 9537TIP3    H228573   1.632   5.371   6.871
 9538TIP3   OH228574   0.890   5.076   6.890
 9538TIP3    H128575   0.848   4.995   6.860
 9538TIP3    H228576   0.928   5.049   6.976
 9539TIP3   OH228577   1.437   3.721   7.024
 9539TIP3    H128578   1.381   3.649   7.057
 9539TIP3    H228579   1.503   3.673   6.969
 9540TIP3   OH228580   1.933   3.590   6.917
 9540TIP3    H128581   1.971   3.642   6.843
 9540TIP3    H228582   1.839   3.614   6.913
 9541TIP3   OH228583   2.031   3.688   6.682
 9541TIP3    H128584   2.106   3.637   6.644
 9541TIP3    H228585   2.064   3.779   6.669
 9542TIP3   OH228586   0.673   3.411   7.002
 9542TIP3    H128587   0.580   3.382   7.005
 9542TIP3    H228588   0.717   3.328   7.028
 9543TIP3   OH228589   0.475   3.295   6.698
 9543TIP3    H128590   0.489   3.329   6.607
 9543TIP3    H228591   0.415   3.365   6.733
 9544TIP3   OH228592   1.126   3.451   6.927
 9544TIP3    H128593   1.170   3.493   6.851
 9544TIP3    H228594   1.071   3.523   6.961
 9545TIP3   OH228595   1.646   3.595   6.892
 9545TIP3    H128596   1.656   3.556   6.804
 9545TIP3    H228597   1.635   3.515   6.949
 9546TIP3   OH228598   1.683   3.524   6.458
 9546TIP3    H128599   1.597   3.568   6.474
 9546TIP3    H228600   1.667   3.437   6.503
 9547TIP3   OH228601   0.569   3.439   6.447
 9547TIP3    H128602   0.615   3.379   6.386
 9547TIP3    H228603   0.642   3.494   6.481
 9548TIP3   OH228604   1.077   3.624   6.541
 9548TIP3    H128605   1.143   3.580   6.597
 9548TIP3    H228606   1.097   3.718   6.564
 9549TIP3   OH228607   0.937   5.043   6.039
 9549TIP3    H128608   1.026   5.067   6.005
 9549TIP3    H228609   0.917   4.967   5.979
 9550TIP3   OH228610   1.660   5.169   6.134
 9550TIP3    H128611   1.653   5.071   6.124
 9550TIP3    H228612   1.611   5.198   6.054
 9551TIP3   OH228613   1.883   5.309   7.312
 9551TIP3    H128614   1.805   5.277   7.261
 9551TIP3    H228615   1.865   5.406   7.311
 9552TIP3   OH228616   3.149   4.682   6.088
 9552TIP3    H128617   3.118   4.772   6.066
 9552TIP3    H228618   3.077   4.630   6.048
 9553TIP3   OH228619   3.145   4.688   6.473
 9553TIP3    H128620   3.183   4.658   6.558
 9553TIP3    H228621   3.109   4.606   6.436
 9554TIP3   OH228622   2.446   4.576   6.834
 9554TIP3    H128623   2.476   4.507   6.896
 9554TIP3    H228624   2.526   4.630   6.828
 9555TIP3   OH228625   3.390   4.992   6.151
 9555TIP3    H128626   3.383   4.918   6.213
 9555TIP3    H228627   3.432   5.060   6.206
 9556TIP3   OH228628   2.423   4.990   6.557
 9556TIP3    H128629   2.414   4.892   6.557
 9556TIP3    H228630   2.519   4.998   6.546
 9557TIP3   OH228631   2.127   4.188   6.338
 9557TIP3    H128632   2.081   4.271   6.358
 9557TIP3    H228633   2.055   4.138   6.295
 9558TIP3   OH228634   2.185   4.478   6.519
 9558TIP3    H128635   2.234   4.400   6.551
 9558TIP3    H228636   2.245   4.514   6.452
 9559TIP3   OH228637   3.048   5.449   6.171
 9559TIP3    H128638   3.086   5.380   6.113
 9559TIP3    H228639   3.038   5.401   6.254
 9560TIP3   OH228640   2.947   4.911   6.518
 9560TIP3    H128641   2.987   4.833   6.476
 9560TIP3    H228642   3.030   4.959   6.541
 9561TIP3   OH228643   3.964   4.228   6.515
 9561TIP3    H128644   3.993   4.312   6.556
 9561TIP3    H228645   3.984   4.245   6.421
 9562TIP3   OH228646   3.357   4.409   6.547
 9562TIP3    H128647   3.403   4.325   6.567
 9562TIP3    H228648   3.328   4.392   6.455
 9563TIP3   OH228649   2.701   4.070   6.512
 9563TIP3    H128650   2.682   4.143   6.450
 9563TIP3    H228651   2.652   3.997   6.468
 9564TIP3   OH228652   3.395   4.164   6.134
 9564TIP3    H128653   3.469   4.149   6.198
 9564TIP3    H228654   3.446   4.198   6.058
 9565TIP3   OH228655   2.332   4.271   6.620
 9565TIP3    H128656   2.415   4.254   6.668
 9565TIP3    H228657   2.348   4.216   6.540
 9566TIP3   OH228658   2.771   4.469   6.419
 9566TIP3    H128659   2.866   4.445   6.427
 9566TIP3    H228660   2.734   4.385   6.383
 9567TIP3   OH228661   4.036   4.435   6.690
 9567TIP3    H128662   3.955   4.484   6.667
 9567TIP3    H228663   4.064   4.481   6.771
 9568TIP3   OH228664   2.694   4.053   6.948
 9568TIP3    H128665   2.636   4.090   6.879
 9568TIP3    H228666   2.641   4.072   7.028
 9569TIP3   OH228667   3.031   4.900   5.959
 9569TIP3    H128668   3.002   4.890   5.868
 9569TIP3    H228669   2.988   4.984   5.985
 9570TIP3   OH228670   2.803   4.830   6.738
 9570TIP3    H128671   2.743   4.899   6.775
 9570TIP3    H228672   2.845   4.877   6.663
 9571TIP3   OH228673   3.601   4.166   6.312
 9571TIP3    H128674   3.586   4.127   6.399
 9571TIP3    H228675   3.654   4.245   6.334
 9572TIP3   OH228676   2.567   4.168   6.731
 9572TIP3    H128677   2.629   4.241   6.755
 9572TIP3    H228678   2.616   4.129   6.655
 9573TIP3   OH228679   2.632   5.027   6.842
 9573TIP3    H128680   2.605   5.112   6.803
 9573TIP3    H228681   2.553   5.008   6.896
 9574TIP3   OH228682   2.021   4.715   6.075
 9574TIP3    H128683   1.981   4.743   5.991
 9574TIP3    H228684   2.054   4.800   6.111
 9575TIP3   OH228685   3.459   5.235   6.319
 9575TIP3    H128686   3.368   5.224   6.354
 9575TIP3    H228687   3.451   5.320   6.271
 9576TIP3   OH228688   3.756   4.124   6.678
 9576TIP3    H128689   3.670   4.155   6.646
 9576TIP3    H228690   3.818   4.160   6.611
 9577TIP3   OH228691   3.048   3.770   6.663
 9577TIP3    H128692   3.030   3.676   6.679
 9577TIP3    H228693   2.972   3.811   6.710
 9578TIP3   OH228694   3.157   5.277   5.984
 9578TIP3    H128695   3.206   5.192   5.968
 9578TIP3    H228696   3.223   5.339   5.946
 9579TIP3   OH228697   3.301   5.061   5.900
 9579TIP3    H128698   3.288   4.978   5.850
 9579TIP3    H228699   3.337   5.027   5.985
 9580TIP3   OH228700   3.692   5.140   6.657
 9580TIP3    H128701   3.680   5.062   6.597
 9580TIP3    H228702   3.674   5.214   6.597
 9581TIP3   OH228703   2.982   4.537   5.920
 9581TIP3    H128704   2.905   4.592   5.894
 9581TIP3    H228705   3.031   4.531   5.836
 9582TIP3   OH228706   2.942   4.320   5.627
 9582TIP3    H128707   3.005   4.377   5.675
 9582TIP3    H228708   3.006   4.263   5.579
 9583TIP3   OH228709   3.882   4.771   6.503
 9583TIP3    H128710   3.803   4.829   6.509
 9583TIP3    H228711   3.918   4.804   6.418
 9584TIP3   OH228712   3.327   4.621   5.885
 9584TIP3    H128713   3.275   4.640   5.966
 9584TIP3    H228714   3.412   4.592   5.925
 9585TIP3   OH228715   3.562   4.654   6.806
 9585TIP3    H128716   3.560   4.740   6.851
 9585TIP3    H228717   3.477   4.658   6.758
 9586TIP3   OH228718   2.560   4.614   6.309
 9586TIP3    H128719   2.519   4.557   6.240
 9586TIP3    H228720   2.637   4.561   6.338
 9587TIP3   OH228721   2.690   5.026   6.454
 9587TIP3    H128722   2.669   4.994   6.365
 9587TIP3    H228723   2.779   4.989   6.470
 9588TIP3   OH228724   2.695   4.586   6.662
 9588TIP3    H128725   2.728   4.560   6.573
 9588TIP3    H228726   2.740   4.672   6.677
 9589TIP3   OH228727   3.214   5.228   6.437
 9589TIP3    H128728   3.209   5.305   6.496
 9589TIP3    H228729   3.204   5.152   6.497
 9590TIP3   OH228730   2.833   5.145   6.987
 9590TIP3    H128731   2.768   5.205   7.029
 9590TIP3    H228732   2.773   5.089   6.934
 9591TIP3   OH228733   3.150   4.490   5.710
 9591TIP3    H128734   3.223   4.532   5.761
 9591TIP3    H228735   3.182   4.507   5.618
 9592TIP3   OH228736   2.591   4.699   7.085
 9592TIP3    H128737   2.596   4.784   7.132
 9592TIP3    H228738   2.497   4.676   7.102
 9593TIP3   OH228739   2.912   5.155   5.994
 9593TIP3    H128740   2.997   5.203   5.997
 9593TIP3    H228741   2.855   5.218   5.947
 9594TIP3   OH228742   2.628   5.313   7.073
 9594TIP3    H128743   2.595   5.315   6.981
 9594TIP3    H228744   2.547   5.289   7.124
 9595TIP3   OH228745   3.685   3.714   5.765
 9595TIP3    H128746   3.602   3.740   5.810
 9595TIP3    H228747   3.705   3.795   5.714
 9596TIP3   OH228748   2.427   4.459   6.111
 9596TIP3    H128749   2.359   4.503   6.055
 9596TIP3    H228750   2.389   4.371   6.122
 9597TIP3   OH228751   3.484   5.082   5.314
 9597TIP3    H128752   3.495   5.178   5.298
 9597TIP3    H228753   3.576   5.050   5.300
 9598TIP3   OH228754   2.208   4.844   7.019
 9598TIP3    H128755   2.140   4.823   6.951
 9598TIP3    H228756   2.246   4.756   7.039
 9599TIP3   OH228757   2.061   5.036   6.648
 9599TIP3    H128758   2.158   5.030   6.641
 9599TIP3    H228759   2.050   5.114   6.704
 9600TIP3   OH228760   3.923   5.487   6.707
 9600TIP3    H128761   3.925   5.389   6.714
 9600TIP3    H228762   3.839   5.507   6.754
 9601TIP3   OH228763   3.033   5.270   6.847
 9601TIP3    H128764   3.027   5.363   6.875
 9601TIP3    H228765   2.958   5.230   6.897
 9602TIP3   OH228766   2.796   5.399   5.794
 9602TIP3    H128767   2.749   5.381   5.711
 9602TIP3    H228768   2.761   5.486   5.820
 9603TIP3   OH228769   2.232   5.249   6.180
 9603TIP3    H128770   2.278   5.240   6.266
 9603TIP3    H228771   2.181   5.166   6.178
 9604TIP3   OH228772   2.994   5.302   5.431
 9604TIP3    H128773   3.053   5.232   5.396
 9604TIP3    H228774   3.029   5.312   5.522
 9605TIP3   OH228775   3.047   5.352   5.701
 9605TIP3    H128776   2.958   5.361   5.743
 9605TIP3    H228777   3.097   5.310   5.772
 9606TIP3   OH228778   3.804   4.609   6.986
 9606TIP3    H128779   3.729   4.621   6.927
 9606TIP3    H228780   3.824   4.513   6.975
 9607TIP3   OH228781   2.411   5.028   7.006
 9607TIP3    H128782   2.463   5.007   7.086
 9607TIP3    H228783   2.338   4.963   7.011
 9608TIP3   OH228784   2.812   3.846   6.795
 9608TIP3    H128785   2.724   3.818   6.764
 9608TIP3    H228786   2.786   3.929   6.841
 9609TIP3   OH228787   3.348   3.962   6.986
 9609TIP3    H128788   3.417   3.935   7.050
 9609TIP3    H228789   3.265   3.944   7.034
 9610TIP3   OH228790   3.580   4.389   6.901
 9610TIP3    H128791   3.532   4.389   6.987
 9610TIP3    H228792   3.561   4.478   6.867
 9611TIP3   OH228793   3.228   4.543   5.455
 9611TIP3    H128794   3.210   4.495   5.373
 9611TIP3    H228795   3.326   4.542   5.456
 9612TIP3   OH228796   2.951   3.899   5.762
 9612TIP3    H128797   2.919   3.892   5.854
 9612TIP3    H228798   2.917   3.815   5.727
 9613TIP3   OH228799   2.743   4.365   6.811
 9613TIP3    H128800   2.692   4.387   6.892
 9613TIP3    H228801   2.727   4.446   6.757
 9614TIP3   OH228802   2.628   4.250   6.324
 9614TIP3    H128803   2.535   4.225   6.342
 9614TIP3    H228804   2.640   4.210   6.235
 9615TIP3   OH228805   3.118   4.332   6.050
 9615TIP3    H128806   3.069   4.405   6.006
 9615TIP3    H228807   3.178   4.304   5.977
 9616TIP3   OH228808   3.295   4.619   7.141
 9616TIP3    H128809   3.271   4.543   7.199
 9616TIP3    H228810   3.391   4.625   7.158
 9617TIP3   OH228811   3.272   4.362   6.289
 9617TIP3    H128812   3.212   4.391   6.217
 9617TIP3    H228813   3.309   4.283   6.244
 9618TIP3   OH228814   2.563   4.392   7.019
 9618TIP3    H128815   2.592   4.456   7.087
 9618TIP3    H228816   2.552   4.310   7.071
 9619TIP3   OH228817   2.608   3.868   5.728
 9619TIP3    H128818   2.601   3.870   5.826
 9619TIP3    H228819   2.535   3.927   5.703
 9620TIP3   OH228820   2.157   3.910   6.601
 9620TIP3    H128821   2.230   3.946   6.656
 9620TIP3    H228822   2.201   3.886   6.518
 9621TIP3   OH228823   2.121   3.894   6.118
 9621TIP3    H128824   2.167   3.930   6.039
 9621TIP3    H228825   2.061   3.969   6.137
 9622TIP3   OH228826   3.281   4.607   6.711
 9622TIP3    H128827   3.316   4.536   6.651
 9622TIP3    H228828   3.253   4.552   6.787
 9623TIP3   OH228829   2.959   4.068   6.384
 9623TIP3    H128830   2.878   4.070   6.438
 9623TIP3    H228831   3.029   4.068   6.451
 9624TIP3   OH228832   2.389   4.130   6.392
 9624TIP3    H128833   2.295   4.137   6.363
 9624TIP3    H228834   2.412   4.038   6.368
 9625TIP3   OH228835   2.654   4.122   6.083
 9625TIP3    H128836   2.748   4.138   6.063
 9625TIP3    H228837   2.609   4.145   5.998
 9626TIP3   OH228838   3.448   4.149   6.589
 9626TIP3    H128839   3.414   4.162   6.680
 9626TIP3    H228840   3.380   4.089   6.552
 9627TIP3   OH228841   2.505   4.158   5.857
 9627TIP3    H128842   2.435   4.114   5.805
 9627TIP3    H228843   2.558   4.198   5.785
 9628TIP3   OH228844   3.619   5.839   6.807
 9628TIP3    H128845   3.617   5.860   6.712
 9628TIP3    H228846   3.702   5.883   6.835
 9629TIP3   OH228847   2.578   4.951   7.224
 9629TIP3    H128848   2.657   4.977   7.275
 9629TIP3    H228849   2.513   4.940   7.296
 9630TIP3   OH228850   3.036   4.400   6.480
 9630TIP3    H128851   3.112   4.366   6.429
 9630TIP3    H228852   3.047   4.354   6.565
 9631TIP3   OH228853   2.556   3.889   6.364
 9631TIP3    H128854   2.521   3.811   6.412
 9631TIP3    H228855   2.603   3.847   6.290
 9632TIP3   OH228856   3.013   4.298   6.775
 9632TIP3    H128857   2.923   4.336   6.786
 9632TIP3    H228858   3.070   4.362   6.822
 9633TIP3   OH228859   2.747   4.690   5.864
 9633TIP3    H128860   2.676   4.622   5.854
 9633TIP3    H228861   2.729   4.722   5.956
 9634TIP3   OH228862   3.650   4.925   6.494
 9634TIP3    H128863   3.677   4.972   6.412
 9634TIP3    H228864   3.567   4.881   6.465
 9635TIP3   OH228865   3.211   3.995   5.744
 9635TIP3    H128866   3.113   3.986   5.741
 9635TIP3    H228867   3.225   4.092   5.750
 9636TIP3   OH228868   3.148   5.006   6.861
 9636TIP3    H128869   3.169   4.982   6.952
 9636TIP3    H228870   3.110   5.095   6.869
 9637TIP3   OH228871   3.278   4.258   5.839
 9637TIP3    H128872   3.374   4.246   5.842
 9637TIP3    H228873   3.273   4.309   5.756
 9638TIP3   OH228874   2.444   4.713   6.541
 9638TIP3    H128875   2.481   4.683   6.456
 9638TIP3    H228876   2.488   4.653   6.604
 9639TIP3   OH228877   2.894   4.837   5.687
 9639TIP3    H128878   2.845   4.923   5.692
 9639TIP3    H228879   2.842   4.782   5.750
 9640TIP3   OH228880   2.327   4.631   7.154
 9640TIP3    H128881   2.345   4.620   7.249
 9640TIP3    H228882   2.258   4.564   7.139
 9641TIP3   OH228883   3.051   4.751   7.172
 9641TIP3    H128884   2.988   4.688   7.132
 9641TIP3    H228885   3.137   4.712   7.145
 9642TIP3   OH228886   3.308   5.273   6.763
 9642TIP3    H128887   3.212   5.264   6.775
 9642TIP3    H228888   3.333   5.324   6.843
 9643TIP3   OH228889   3.716   4.338   5.657
 9643TIP3    H128890   3.629   4.306   5.623
 9643TIP3    H228891   3.714   4.428   5.616
 9644TIP3   OH228892   3.950   5.200   6.727
 9644TIP3    H128893   3.855   5.183   6.712
 9644TIP3    H228894   3.991   5.140   6.662
 9645TIP3   OH228895   3.420   5.158   5.578
 9645TIP3    H128896   3.394   5.086   5.639
 9645TIP3    H228897   3.433   5.111   5.494
 9646TIP3   OH228898   3.414   4.787   6.413
 9646TIP3    H128899   3.320   4.763   6.422
 9646TIP3    H228900   3.449   4.707   6.368
 9647TIP3   OH228901   2.546   5.018   6.173
 9647TIP3    H128902   2.544   5.097   6.114
 9647TIP3    H228903   2.453   4.995   6.178
 9648TIP3   OH228904   2.110   4.317   5.874
 9648TIP3    H128905   2.154   4.402   5.895
 9648TIP3    H228906   2.033   4.321   5.935
 9649TIP3   OH228907   2.674   4.778   6.109
 9649TIP3    H128908   2.644   4.868   6.130
 9649TIP3    H228909   2.642   4.727   6.185
 9650TIP3   OH228910   2.814   5.359   6.635
 9650TIP3    H128911   2.856   5.431   6.583
 9650TIP3    H228912   2.892   5.318   6.676
 9651TIP3   OH228913   2.461   5.255   6.018
 9651TIP3    H128914   2.376   5.264   6.066
 9651TIP3    H228915   2.494   5.347   6.021
 9652TIP3   OH228916   3.201   4.994   6.593
 9652TIP3    H128917   3.193   4.989   6.691
 9652TIP3    H228918   3.277   4.938   6.576
 9653TIP3   OH228919   3.181   4.894   5.481
 9653TIP3    H128920   3.236   4.868   5.558
 9653TIP3    H228921   3.097   4.852   5.505
 9654TIP3   OH228922   3.446   5.528   6.649
 9654TIP3    H128923   3.367   5.471   6.639
 9654TIP3    H228924   3.434   5.590   6.574
 9655TIP3   OH228925   3.516   5.359   5.296
 9655TIP3    H128926   3.555   5.436   5.251
 9655TIP3    H228927   3.434   5.401   5.330
 9656TIP3   OH228928   2.532   4.135   7.159
 9656TIP3    H128929   2.436   4.138   7.173
 9656TIP3    H228930   2.561   4.081   7.234
 9657TIP3   OH228931   3.339   4.829   5.700
 9657TIP3    H128932   3.325   4.755   5.764
 9657TIP3    H228933   3.436   4.818   5.684
 9658TIP3   OH228934   2.252   5.218   6.793
 9658TIP3    H128935   2.305   5.144   6.827
 9658TIP3    H228936   2.281   5.290   6.851
 9659TIP3   OH228937   2.538   4.867   5.479
 9659TIP3    H128938   2.555   4.775   5.453
 9659TIP3    H228939   2.519   4.856   5.574
 9660TIP3   OH228940   2.485   4.871   5.752
 9660TIP3    H128941   2.563   4.843   5.802
 9660TIP3    H228942   2.490   4.969   5.760
 9661TIP3   OH228943   2.219   4.562   5.955
 9661TIP3    H128944   2.153   4.608   6.011
 9661TIP3    H228945   2.233   4.630   5.886
 9662TIP3   OH228946   3.372   4.201   6.848
 9662TIP3    H128947   3.455   4.241   6.882
 9662TIP3    H228948   3.363   4.120   6.903
 9663TIP3   OH228949   3.254   3.948   6.017
 9663TIP3    H128950   3.240   3.968   5.922
 9663TIP3    H228951   3.293   4.032   6.049
 9664TIP3   OH228952   2.752   5.067   5.699
 9664TIP3    H128953   2.666   5.092   5.736
 9664TIP3    H228954   2.768   5.141   5.639
 9665TIP3   OH228955   2.936   4.133   6.113
 9665TIP3    H128956   3.002   4.203   6.093
 9665TIP3    H228957   2.947   4.125   6.210
 9666TIP3   OH228958   3.211   4.447   6.920
 9666TIP3    H128959   3.235   4.495   7.001
 9666TIP3    H228960   3.264   4.366   6.928
 9667TIP3   OH228961   3.083   3.851   6.213
 9667TIP3    H128962   3.074   3.930   6.270
 9667TIP3    H228963   3.145   3.886   6.145
 9668TIP3   OH228964   2.499   5.144   5.768
 9668TIP3    H128965   2.468   5.214   5.707
 9668TIP3    H228966   2.482   5.186   5.855
 9669TIP3   OH228967   2.597   3.859   6.005
 9669TIP3    H128968   2.596   3.950   6.042
 9669TIP3    H228969   2.693   3.841   6.012
 9670TIP3   OH228970   3.848   4.347   6.909
 9670TIP3    H128971   3.750   4.341   6.909
 9670TIP3    H228972   3.868   4.321   6.817
 9671TIP3   OH228973   3.501   4.544   6.292
 9671TIP3    H128974   3.427   4.482   6.300
 9671TIP3    H228975   3.573   4.497   6.338
 9672TIP3   OH228976   2.216   4.768   5.758
 9672TIP3    H128977   2.288   4.833   5.769
 9672TIP3    H228978   2.259   4.710   5.691
 9673TIP3   OH228979   2.152   4.046   5.892
 9673TIP3    H128980   2.163   4.143   5.891
 9673TIP3    H228981   2.065   4.037   5.852
 9674TIP3   OH228982   3.470   5.506   6.238
 9674TIP3    H128983   3.427   5.553   6.163
 9674TIP3    H228984   3.564   5.526   6.217
 9675TIP3   OH228985   2.547   3.769   6.763
 9675TIP3    H128986   2.516   3.736   6.676
 9675TIP3    H228987   2.535   3.691   6.820
 9676TIP3   OH228988   2.082   4.986   6.142
 9676TIP3    H128989   2.018   5.015   6.208
 9676TIP3    H228990   2.047   5.029   6.060
 9677TIP3   OH228991   2.244   5.530   7.221
 9677TIP3    H128992   2.332   5.526   7.264
 9677TIP3    H228993   2.222   5.435   7.215
 9678TIP3   OH228994   2.719   5.482   7.273
 9678TIP3    H128995   2.814   5.487   7.259
 9678TIP3    H228996   2.691   5.425   7.198
 9679TIP3   OH228997   2.704   5.067   5.388
 9679TIP3    H128998   2.649   4.996   5.427
 9679TIP3    H228999   2.781   5.016   5.358
 9680TIP3   OH229000   3.354   5.403   7.014
 9680TIP3    H129001   3.366   5.334   7.083
 9680TIP3    H229002   3.435   5.457   7.025
 9681TIP3   OH229003   3.140   5.105   5.304
 9681TIP3    H129004   3.174   5.038   5.367
 9681TIP3    H229005   3.203   5.097   5.230
 9682TIP3   OH229006   2.375   4.943   7.413
 9682TIP3    H129007   2.393   4.849   7.430
 9682TIP3    H229008   2.289   4.939   7.366
 9683TIP3   OH229009   2.351   4.582   5.615
 9683TIP3    H129010   2.409   4.553   5.688
 9683TIP3    H229011   2.417   4.588   5.542
 9684TIP3   OH229012   2.978   5.023   7.190
 9684TIP3    H129013   2.934   5.038   7.104
 9684TIP3    H229014   3.008   4.929   7.183
 9685TIP3   OH229015   2.861   4.784   5.419
 9685TIP3    H129016   2.867   4.795   5.516
 9685TIP3    H229017   2.865   4.686   5.412
 9686TIP3   OH229018   3.475   5.036   6.803
 9686TIP3    H129019   3.553   5.073   6.755
 9686TIP3    H229020   3.407   5.102   6.780
 9687TIP3   OH229021   2.492   4.683   7.395
 9687TIP3    H129022   2.540   4.600   7.395
 9687TIP3    H229023   2.518   4.715   7.484
 9688TIP3   OH229024   2.553   4.491   5.830
 9688TIP3    H129025   2.531   4.450   5.914
 9688TIP3    H229026   2.595   4.418   5.781
 9689TIP3   OH229027   2.828   4.556   7.060
 9689TIP3    H129028   2.749   4.614   7.059
 9689TIP3    H229029   2.880   4.592   6.985
 9690TIP3   OH229030   2.663   4.286   5.674
 9690TIP3    H129031   2.639   4.294   5.579
 9690TIP3    H229032   2.761   4.285   5.667
 9691TIP3   OH229033   3.357   4.961   7.196
 9691TIP3    H129034   3.418   4.917   7.134
 9691TIP3    H229035   3.340   4.891   7.260
 9692TIP3   OH229036   3.489   4.619   5.337
 9692TIP3    H129037   3.461   4.561   5.264
 9692TIP3    H229038   3.443   4.702   5.312
 9693TIP3   OH229039   2.949   4.342   7.179
 9693TIP3    H129040   2.950   4.264   7.120
 9693TIP3    H229041   2.906   4.410   7.123
 9694TIP3   OH229042   2.954   4.127   6.994
 9694TIP3    H129043   2.982   4.171   6.912
 9694TIP3    H229044   2.860   4.107   6.975
 9695TIP3   OH229045   2.979   4.665   6.868
 9695TIP3    H129046   3.064   4.675   6.824
 9695TIP3    H229047   2.922   4.729   6.820
 9696TIP3   OH229048   3.561   4.631   7.246
 9696TIP3    H129049   3.606   4.548   7.267
 9696TIP3    H229050   3.631   4.679   7.199
 9697TIP3   OH229051   3.602   4.891   6.992
 9697TIP3    H129052   3.547   4.945   6.930
 9697TIP3    H229053   3.691   4.908   6.954
 9698TIP3   OH229054   2.839   4.451   7.416
 9698TIP3    H129055   2.754   4.408   7.436
 9698TIP3    H229056   2.858   4.418   7.326
 9699TIP3   OH229057   3.084   3.891   7.065
 9699TIP3    H129058   3.036   3.973   7.040
 9699TIP3    H229059   3.015   3.823   7.052
 9700TIP3   OH229060   3.211   4.396   7.268
 9700TIP3    H129061   3.200   4.377   7.363
 9700TIP3    H229062   3.121   4.372   7.238
 9701TIP3   OH229063   3.452   4.351   7.135
 9701TIP3    H129064   3.377   4.351   7.198
 9701TIP3    H229065   3.526   4.319   7.191
 9702TIP3   OH229066   3.679   4.286   7.280
 9702TIP3    H129067   3.692   4.191   7.298
 9702TIP3    H229068   3.676   4.325   7.370
 9703TIP3   OH229069   2.660   4.230   7.454
 9703TIP3    H129070   2.672   4.141   7.418
 9703TIP3    H229071   2.722   4.226   7.530
 9704TIP3   OH229072   3.177   3.898   7.322
 9704TIP3    H129073   3.247   3.831   7.310
 9704TIP3    H229074   3.137   3.898   7.233
 9705TIP3   OH229075   3.247   4.112   7.482
 9705TIP3    H129076   3.224   4.041   7.419
 9705TIP3    H229077   3.171   4.173   7.473
 9706TIP3   OH229078   2.469   5.349   5.581
 9706TIP3    H129079   2.564   5.337   5.562
 9706TIP3    H229080   2.442   5.399   5.502
 9707TIP3   OH229081   1.947   4.729   5.794
 9707TIP3    H129082   2.042   4.750   5.780
 9707TIP3    H229083   1.940   4.640   5.754
 9708TIP3   OH229084   1.864   5.340   6.211
 9708TIP3    H129085   1.798   5.280   6.171
 9708TIP3    H229086   1.908   5.280   6.275
 9709TIP3   OH229087   1.997   5.186   6.397
 9709TIP3    H129088   1.983   5.116   6.463
 9709TIP3    H229089   2.050   5.249   6.450
 9710TIP3   OH229090   3.721   5.606   6.197
 9710TIP3    H129091   3.757   5.626   6.285
 9710TIP3    H229092   3.797   5.622   6.139
 9711TIP3   OH229093   3.754   5.611   6.483
 9711TIP3    H129094   3.708   5.524   6.476
 9711TIP3    H229095   3.832   5.583   6.532
 9712TIP3   OH229096   3.804   5.290   7.051
 9712TIP3    H129097   3.733   5.302   7.117
 9712TIP3    H229098   3.848   5.377   7.053
 9713TIP3   OH229099   3.615   4.802   5.672
 9713TIP3    H129100   3.684   4.865   5.642
 9713TIP3    H229101   3.659   4.762   5.750
 9714TIP3   OH229102   3.743   4.667   5.873
 9714TIP3    H129103   3.678   4.626   5.934
 9714TIP3    H229104   3.812   4.701   5.934
 9715TIP3   OH229105   3.775   5.052   6.291
 9715TIP3    H129106   3.854   4.997   6.275
 9715TIP3    H229107   3.788   5.126   6.229
 9716TIP3   OH229108   3.628   5.363   6.500
 9716TIP3    H129109   3.552   5.398   6.550
 9716TIP3    H229110   3.583   5.313   6.428
 9717TIP3   OH229111   3.687   4.577   5.522
 9717TIP3    H129112   3.613   4.572   5.457
 9717TIP3    H229113   3.654   4.651   5.576
 9718TIP3   OH229114   3.555   4.527   6.020
 9718TIP3    H129115   3.561   4.431   6.008
 9718TIP3    H229116   3.542   4.536   6.117
 9719TIP3   OH229117   2.182   4.597   6.770
 9719TIP3    H129118   2.179   4.564   6.678
 9719TIP3    H229119   2.279   4.598   6.785
 9720TIP3   OH229120   3.849   4.950   6.880
 9720TIP3    H129121   3.920   4.882   6.875
 9720TIP3    H229122   3.874   5.007   6.806
 9721TIP3   OH229123   4.026   4.749   6.924
 9721TIP3    H129124   3.950   4.693   6.948
 9721TIP3    H229125   4.099   4.685   6.922
 9722TIP3   OH229126   3.513   3.908   5.445
 9722TIP3    H129127   3.568   3.959   5.508
 9722TIP3    H229128   3.426   3.945   5.462
 9723TIP3   OH229129   3.558   4.243   5.921
 9723TIP3    H129130   3.600   4.155   5.931
 9723TIP3    H229131   3.597   4.272   5.837
 9724TIP3   OH229132   3.714   4.411   6.411
 9724TIP3    H129133   3.799   4.436   6.368
 9724TIP3    H229134   3.730   4.451   6.499
 9725TIP3   OH229135   3.787   4.557   6.642
 9725TIP3    H129136   3.708   4.594   6.687
 9725TIP3    H229137   3.820   4.635   6.594
 9726TIP3   OH229138   2.392   4.277   7.424
 9726TIP3    H129139   2.489   4.282   7.439
 9726TIP3    H229140   2.371   4.193   7.469
 9727TIP3   OH229141   4.238   4.153   7.198
 9727TIP3    H129142   4.298   4.089   7.154
 9727TIP3    H229143   4.204   4.204   7.121
 9728TIP3   OH229144   3.665   3.991   5.953
 9728TIP3    H129145   3.711   3.974   6.038
 9728TIP3    H229146   3.602   3.916   5.951
 9729TIP3   OH229147   2.362   3.978   6.774
 9729TIP3    H129148   2.424   3.903   6.782
 9729TIP3    H229149   2.425   4.052   6.765
 9730TIP3   OH229150   2.162   4.248   6.844
 9730TIP3    H129151   2.213   4.248   6.760
 9730TIP3    H229152   2.189   4.332   6.883
 9731TIP3   OH229153   4.103   4.285   7.004
 9731TIP3    H129154   4.018   4.331   7.021
 9731TIP3    H229155   4.070   4.214   6.945
 9732TIP3   OH229156   3.760   3.924   5.602
 9732TIP3    H129157   3.784   3.859   5.533
 9732TIP3    H229158   3.822   3.998   5.586
 9733TIP3   OH229159   2.149   3.749   6.344
 9733TIP3    H129160   2.057   3.747   6.375
 9733TIP3    H229161   2.143   3.811   6.268
 9734TIP3   OH229162   3.307   5.462   5.853
 9734TIP3    H129163   3.358   5.448   5.770
 9734TIP3    H229164   3.366   5.521   5.902
 9735TIP3   OH229165   2.380   3.833   7.136
 9735TIP3    H129166   2.331   3.832   7.221
 9735TIP3    H229167   2.313   3.874   7.078
 9736TIP3   OH229168   2.408   5.269   7.240
 9736TIP3    H129169   2.318   5.241   7.216
 9736TIP3    H229170   2.418   5.232   7.328
 9737TIP3   OH229171   2.590   5.300   6.789
 9737TIP3    H129172   2.541   5.375   6.747
 9737TIP3    H229173   2.675   5.313   6.742
 9738TIP3   OH229174   3.029   5.539   6.926
 9738TIP3    H129175   3.074   5.545   7.013
 9738TIP3    H229176   3.092   5.589   6.869
 9739TIP3   OH229177   3.207   5.691   6.786
 9739TIP3    H129178   3.275   5.644   6.735
 9739TIP3    H229179   3.263   5.748   6.843
 9740TIP3   OH229180   4.005   4.052   6.882
 9740TIP3    H129181   3.916   4.047   6.843
 9740TIP3    H229182   4.036   3.959   6.871
 9741TIP3   OH229183   2.262   5.552   6.810
 9741TIP3    H129184   2.172   5.584   6.785
 9741TIP3    H229185   2.273   5.597   6.895
 9742TIP3   OH229186   2.500   5.532   6.670
 9742TIP3    H129187   2.411   5.544   6.711
 9742TIP3    H229188   2.482   5.562   6.578
 9743TIP3   OH229189   2.923   5.556   6.468
 9743TIP3    H129190   2.855   5.573   6.400
 9743TIP3    H229191   2.935   5.645   6.507
 9744TIP3   OH229192   3.194   5.498   6.524
 9744TIP3    H129193   3.101   5.514   6.499
 9744TIP3    H229194   3.241   5.566   6.472
 9745TIP3   OH229195   3.400   5.688   6.431
 9745TIP3    H129196   3.386   5.771   6.382
 9745TIP3    H229197   3.428   5.627   6.359
 9746TIP3   OH229198   2.175   5.345   6.554
 9746TIP3    H129199   2.201   5.316   6.644
 9746TIP3    H229200   2.246   5.301   6.502
 9747TIP3   OH229201   2.369   5.217   6.414
 9747TIP3    H129202   2.385   5.133   6.464
 9747TIP3    H229203   2.461   5.252   6.408
 9748TIP3   OH229204   2.637   5.310   6.417
 9748TIP3    H129205   2.667   5.218   6.403
 9748TIP3    H229206   2.685   5.330   6.500
 9749TIP3   OH229207   3.211   3.968   6.504
 9749TIP3    H129208   3.169   3.895   6.552
 9749TIP3    H229209   3.286   3.923   6.460
 9750TIP3   OH229210   3.730   3.846   6.408
 9750TIP3    H129211   3.767   3.897   6.333
 9750TIP3    H229212   3.635   3.868   6.401
 9751TIP3   OH229213   3.827   3.941   6.172
 9751TIP3    H129214   3.901   3.893   6.130
 9751TIP3    H229215   3.859   4.034   6.158
 9752TIP3   OH229216   2.458   3.675   6.516
 9752TIP3    H129217   2.365   3.643   6.520
 9752TIP3    H229218   2.506   3.589   6.511
 9753TIP3   OH229219   2.247   3.546   6.167
 9753TIP3    H129220   2.276   3.604   6.094
 9753TIP3    H229221   2.219   3.612   6.234
 9754TIP3   OH229222   2.906   3.704   6.400
 9754TIP3    H129223   2.958   3.752   6.334
 9754TIP3    H229224   2.932   3.750   6.482
 9755TIP3   OH229225   3.444   3.856   6.383
 9755TIP3    H129226   3.447   3.820   6.293
 9755TIP3    H229227   3.432   3.774   6.437
 9756TIP3   OH229228   3.479   3.780   5.946
 9756TIP3    H129229   3.394   3.826   5.958
 9756TIP3    H229230   3.462   3.694   5.990
 9757TIP3   OH229231   1.962   5.120   5.941
 9757TIP3    H129232   1.876   5.087   5.911
 9757TIP3    H229233   1.952   5.214   5.918
 9758TIP3   OH229234   2.366   3.704   5.929
 9758TIP3    H129235   2.414   3.642   5.871
 9758TIP3    H229236   2.440   3.759   5.964
 9759TIP3   OH229237   2.874   3.881   6.029
 9759TIP3    H129238   2.938   3.837   6.087
 9759TIP3    H229239   2.895   3.975   6.051
 9760TIP3   OH229240   2.735   5.302   5.527
 9760TIP3    H129241   2.824   5.324   5.491
 9760TIP3    H229242   2.713   5.227   5.467
 9761TIP3   OH229243   3.454   5.424   5.622
 9761TIP3    H129244   3.447   5.326   5.612
 9761TIP3    H229245   3.408   5.453   5.540
 9762TIP3   OH229246   2.671   3.945   7.398
 9762TIP3    H129247   2.622   3.893   7.464
 9762TIP3    H229248   2.762   3.944   7.436
 9763TIP3   OH229249   2.912   3.932   7.531
 9763TIP3    H129250   2.997   3.912   7.488
 9763TIP3    H229251   2.932   3.900   7.622
 9764TIP3   OH229252   2.039   5.141   5.581
 9764TIP3    H129253   2.040   5.159   5.676
 9764TIP3    H229254   2.126   5.098   5.566
 9765TIP3   OH229255   3.743   4.016   7.308
 9765TIP3    H129256   3.761   3.988   7.400
 9765TIP3    H229257   3.833   4.013   7.268
 9766TIP3   OH229258   3.673   5.567   6.812
 9766TIP3    H129259   3.598   5.538   6.755
 9766TIP3    H229260   3.657   5.664   6.812
 9767TIP3   OH229261   4.948   4.941   5.570
 9767TIP3    H129262   4.919   5.033   5.550
 9767TIP3    H229263   4.868   4.892   5.543
 9768TIP3   OH229264   4.949   4.939   5.957
 9768TIP3    H129265   4.983   4.917   6.046
 9768TIP3    H229266   4.902   4.857   5.933
 9769TIP3   OH229267   4.240   4.840   6.302
 9769TIP3    H129268   4.294   4.795   6.369
 9769TIP3    H229269   4.249   4.935   6.325
 9770TIP3   OH229270   5.191   5.245   5.639
 9770TIP3    H129271   5.174   5.177   5.705
 9770TIP3    H229272   5.221   5.320   5.693
 9771TIP3   OH229273   4.210   5.246   6.018
 9771TIP3    H129274   4.187   5.162   6.060
 9771TIP3    H229275   4.297   5.261   6.058
 9772TIP3   OH229276   3.922   4.441   5.820
 9772TIP3    H129277   3.877   4.525   5.843
 9772TIP3    H229278   3.850   4.394   5.776
 9773TIP3   OH229279   3.978   4.733   6.002
 9773TIP3    H129280   4.029   4.657   6.037
 9773TIP3    H229281   4.048   4.787   5.961
 9774TIP3   OH229282   4.845   5.709   5.656
 9774TIP3    H129283   4.886   5.636   5.605
 9774TIP3    H229284   4.829   5.666   5.741
 9775TIP3   OH229285   4.743   5.167   6.001
 9775TIP3    H129286   4.784   5.089   5.960
 9775TIP3    H229287   4.825   5.213   6.029
 9776TIP3   OH229288   5.752   4.483   6.003
 9776TIP3    H129289   5.788   4.568   6.034
 9776TIP3    H229290   5.783   4.482   5.911
 9777TIP3   OH229291   5.157   4.666   6.033
 9777TIP3    H129292   5.199   4.581   6.054
 9777TIP3    H229293   5.125   4.649   5.942
 9778TIP3   OH229294   4.500   4.326   5.998
 9778TIP3    H129295   4.477   4.400   5.937
 9778TIP3    H229296   4.450   4.253   5.955
 9779TIP3   OH229297   5.193   4.410   5.622
 9779TIP3    H129298   5.263   4.397   5.690
 9779TIP3    H229299   5.245   4.452   5.551
 9780TIP3   OH229300   4.125   4.527   6.107
 9780TIP3    H129301   4.209   4.514   6.155
 9780TIP3    H229302   4.143   4.472   6.028
 9781TIP3   OH229303   4.573   4.725   5.887
 9781TIP3    H129304   4.665   4.698   5.909
 9781TIP3    H229305   4.532   4.640   5.863
 9782TIP3   OH229306   5.836   4.698   6.169
 9782TIP3    H129307   5.751   4.742   6.147
 9782TIP3    H229308   5.847   4.726   6.261
 9783TIP3   OH229309   4.490   4.310   6.436
 9783TIP3    H129310   4.433   4.350   6.367
 9783TIP3    H229311   4.437   4.330   6.516
 9784TIP3   OH229312   4.839   5.164   5.437
 9784TIP3    H129313   4.791   5.146   5.355
 9784TIP3    H229314   4.793   5.245   5.468
 9785TIP3   OH229315   4.585   5.089   6.236
 9785TIP3    H129316   4.500   5.126   6.264
 9785TIP3    H229317   4.615   5.149   6.166
 9786TIP3   OH229318   5.399   4.412   5.799
 9786TIP3    H129319   5.370   4.392   5.890
 9786TIP3    H229320   5.454   4.491   5.814
 9787TIP3   OH229321   4.363   4.424   6.217
 9787TIP3    H129322   4.422   4.499   6.243
 9787TIP3    H229323   4.415   4.387   6.142
 9788TIP3   OH229324   3.818   4.971   5.562
 9788TIP3    H129325   3.776   5.001   5.479
 9788TIP3    H229326   3.853   5.054   5.599
 9789TIP3   OH229327   5.259   5.488   5.801
 9789TIP3    H129328   5.170   5.478   5.842
 9789TIP3    H229329   5.249   5.575   5.757
 9790TIP3   OH229330   5.553   4.381   6.168
 9790TIP3    H129331   5.467   4.413   6.136
 9790TIP3    H229332   5.615   4.417   6.102
 9791TIP3   OH229333   4.846   4.027   6.152
 9791TIP3    H129334   4.827   3.933   6.168
 9791TIP3    H229335   4.769   4.068   6.198
 9792TIP3   OH229336   4.959   5.531   5.475
 9792TIP3    H129337   5.009   5.448   5.457
 9792TIP3    H229338   5.021   5.595   5.434
 9793TIP3   OH229339   5.104   5.316   5.387
 9793TIP3    H129340   5.053   5.239   5.359
 9793TIP3    H229341   5.144   5.283   5.471
 9794TIP3   OH229342   5.485   5.397   6.147
 9794TIP3    H129343   5.471   5.319   6.088
 9794TIP3    H229344   5.466   5.472   6.086
 9795TIP3   OH229345   4.775   4.790   5.406
 9795TIP3    H129346   4.695   4.843   5.389
 9795TIP3    H229347   4.820   4.794   5.320
 9796TIP3   OH229348   4.731   4.582   5.119
 9796TIP3    H129349   4.795   4.631   5.173
 9796TIP3    H229350   4.792   4.520   5.073
 9797TIP3   OH229351   5.680   5.040   5.996
 9797TIP3    H129352   5.595   5.089   5.999
 9797TIP3    H229353   5.709   5.061   5.905
 9798TIP3   OH229354   5.125   4.873   5.373
 9798TIP3    H129355   5.070   4.898   5.452
 9798TIP3    H229356   5.210   4.851   5.418
 9799TIP3   OH229357   5.358   4.911   6.292
 9799TIP3    H129358   5.355   4.994   6.344
 9799TIP3    H229359   5.271   4.917   6.247
 9800TIP3   OH229360   4.363   4.871   5.787
 9800TIP3    H129361   4.320   4.812   5.722
 9800TIP3    H229362   4.439   4.816   5.817
 9801TIP3   OH229363   4.503   5.299   5.934
 9801TIP3    H129364   4.464   5.247   5.862
 9801TIP3    H229365   4.589   5.253   5.948
 9802TIP3   OH229366   4.521   4.835   6.143
 9802TIP3    H129367   4.541   4.827   6.048
 9802TIP3    H229368   4.544   4.927   6.164
 9803TIP3   OH229369   5.020   5.481   5.925
 9803TIP3    H129370   5.006   5.561   5.978
 9803TIP3    H229371   5.001   5.408   5.987
 9804TIP3   OH229372   4.622   5.402   6.468
 9804TIP3    H129373   4.569   5.468   6.518
 9804TIP3    H229374   4.551   5.347   6.433
 9805TIP3   OH229375   4.970   4.719   5.205
 9805TIP3    H129376   5.027   4.780   5.257
 9805TIP3    H229377   4.996   4.744   5.113
 9806TIP3   OH229378   4.377   4.947   6.581
 9806TIP3    H129379   4.399   5.029   6.631
 9806TIP3    H229380   4.300   4.982   6.532
 9807TIP3   OH229381   4.712   5.407   5.475
 9807TIP3    H129382   4.793   5.461   5.486
 9807TIP3    H229383   4.649   5.470   5.439
 9808TIP3   OH229384   4.426   5.572   6.564
 9808TIP3    H129385   4.398   5.574   6.470
 9808TIP3    H229386   4.343   5.549   6.610
 9809TIP3   OH229387   5.472   3.974   5.237
 9809TIP3    H129388   5.412   4.004   5.307
 9809TIP3    H229389   5.499   4.059   5.196
 9810TIP3   OH229390   4.227   4.712   5.588
 9810TIP3    H129391   4.156   4.758   5.539
 9810TIP3    H229392   4.183   4.631   5.615
 9811TIP3   OH229393   5.281   5.338   4.798
 9811TIP3    H129394   5.289   5.434   4.784
 9811TIP3    H229395   5.374   5.309   4.788
 9812TIP3   OH229396   3.862   5.293   6.134
 9812TIP3    H129397   3.952   5.257   6.133
 9812TIP3    H229398   3.872   5.364   6.200
 9813TIP3   OH229399   5.719   5.748   6.192
 9813TIP3    H129400   5.722   5.651   6.207
 9813TIP3    H229401   5.636   5.769   6.239
 9814TIP3   OH229402   4.826   5.526   6.330
 9814TIP3    H129403   4.822   5.619   6.363
 9814TIP3    H229404   4.751   5.486   6.380
 9815TIP3   OH229405   4.592   5.658   5.280
 9815TIP3    H129406   4.543   5.641   5.198
 9815TIP3    H229407   4.557   5.744   5.309
 9816TIP3   OH229408   4.026   5.504   5.664
 9816TIP3    H129409   4.073   5.499   5.751
 9816TIP3    H229410   3.982   5.418   5.663
 9817TIP3   OH229411   4.790   5.560   4.918
 9817TIP3    H129412   4.849   5.490   4.883
 9817TIP3    H229413   4.824   5.570   5.009
 9818TIP3   OH229414   4.842   5.607   5.187
 9818TIP3    H129415   4.753   5.617   5.229
 9818TIP3    H229416   4.893   5.569   5.260
 9819TIP3   OH229417   5.612   4.873   6.470
 9819TIP3    H129418   5.528   4.885   6.423
 9819TIP3    H229419   5.628   4.777   6.457
 9820TIP3   OH229420   4.609   4.104   6.281
 9820TIP3    H129421   4.520   4.075   6.251
 9820TIP3    H229422   4.582   4.186   6.328
 9821TIP3   OH229423   5.143   4.217   6.473
 9821TIP3    H129424   5.211   4.192   6.538
 9821TIP3    H229425   5.059   4.201   6.521
 9822TIP3   OH229426   5.380   4.649   6.392
 9822TIP3    H129427   5.328   4.646   6.475
 9822TIP3    H229428   5.357   4.737   6.356
 9823TIP3   OH229429   5.039   4.764   4.945
 9823TIP3    H129430   5.005   4.751   4.854
 9823TIP3    H229431   5.117   4.820   4.928
 9824TIP3   OH229432   4.804   4.108   5.239
 9824TIP3    H129433   4.762   4.142   5.320
 9824TIP3    H229434   4.734   4.046   5.209
 9825TIP3   OH229435   4.539   4.618   6.300
 9825TIP3    H129436   4.485   4.643   6.378
 9825TIP3    H229437   4.530   4.699   6.245
 9826TIP3   OH229438   4.423   4.505   5.811
 9826TIP3    H129439   4.330   4.481   5.830
 9826TIP3    H229440   4.433   4.463   5.722
 9827TIP3   OH229441   4.916   4.592   5.538
 9827TIP3    H129442   4.863   4.664   5.497
 9827TIP3    H229443   4.967   4.559   5.461
 9828TIP3   OH229444   5.088   4.866   6.619
 9828TIP3    H129445   5.066   4.795   6.684
 9828TIP3    H229446   5.179   4.887   6.646
 9829TIP3   OH229447   5.071   4.616   5.776
 9829TIP3    H129448   5.009   4.649   5.708
 9829TIP3    H229449   5.102   4.535   5.731
 9830TIP3   OH229450   4.365   4.653   6.509
 9830TIP3    H129451   4.375   4.727   6.571
 9830TIP3    H229452   4.355   4.576   6.567
 9831TIP3   OH229453   4.416   4.131   5.214
 9831TIP3    H129454   4.401   4.128   5.311
 9831TIP3    H229455   4.336   4.182   5.186
 9832TIP3   OH229456   3.950   4.165   6.093
 9832TIP3    H129457   4.026   4.202   6.142
 9832TIP3    H229458   3.986   4.146   6.005
 9833TIP3   OH229459   3.924   4.156   5.603
 9833TIP3    H129460   3.968   4.195   5.525
 9833TIP3    H229461   3.856   4.223   5.620
 9834TIP3   OH229462   5.080   4.865   6.197
 9834TIP3    H129463   5.114   4.794   6.139
 9834TIP3    H229464   5.049   4.812   6.273
 9835TIP3   OH229465   4.753   4.322   5.869
 9835TIP3    H129466   4.671   4.326   5.921
 9835TIP3    H229467   4.821   4.324   5.938
 9836TIP3   OH229468   4.183   4.387   5.877
 9836TIP3    H129469   4.089   4.397   5.849
 9836TIP3    H229470   4.202   4.294   5.854
 9837TIP3   OH229471   4.452   4.377   5.570
 9837TIP3    H129472   4.544   4.398   5.544
 9837TIP3    H229473   4.401   4.400   5.489
 9838TIP3   OH229474   5.243   4.404   6.068
 9838TIP3    H129475   5.216   4.418   6.162
 9838TIP3    H229476   5.171   4.345   6.038
 9839TIP3   OH229477   4.302   4.413   5.349
 9839TIP3    H129478   4.227   4.369   5.304
 9839TIP3    H229479   4.351   4.449   5.272
 9840TIP3   OH229480   5.418   6.091   6.293
 9840TIP3    H129481   5.406   6.114   6.199
 9840TIP3    H229482   5.491   6.151   6.317
 9841TIP3   OH229483   4.399   5.180   6.727
 9841TIP3    H129484   4.464   5.225   6.784
 9841TIP3    H229485   4.315   5.202   6.770
 9842TIP3   OH229486   4.832   4.657   5.970
 9842TIP3    H129487   4.910   4.619   5.926
 9842TIP3    H229488   4.836   4.616   6.058
 9843TIP3   OH229489   4.356   4.143   5.852
 9843TIP3    H129490   4.316   4.068   5.901
 9843TIP3    H229491   4.393   4.098   5.775
 9844TIP3   OH229492   4.809   4.559   6.258
 9844TIP3    H129493   4.718   4.593   6.273
 9844TIP3    H229494   4.864   4.621   6.308
 9845TIP3   OH229495   4.548   4.942   5.353
 9845TIP3    H129496   4.476   4.877   5.342
 9845TIP3    H229497   4.528   4.978   5.443
 9846TIP3   OH229498   5.444   5.181   5.980
 9846TIP3    H129499   5.468   5.233   5.900
 9846TIP3    H229500   5.360   5.138   5.954
 9847TIP3   OH229501   4.949   5.266   6.350
 9847TIP3    H129502   4.976   5.244   6.440
 9847TIP3    H229503   4.907   5.353   6.360
 9848TIP3   OH229504   5.071   4.481   5.323
 9848TIP3    H129505   5.168   4.491   5.332
 9848TIP3    H229506   5.048   4.555   5.264
 9849TIP3   OH229507   4.219   4.936   6.022
 9849TIP3    H129508   4.281   4.920   5.949
 9849TIP3    H229509   4.266   4.905   6.101
 9850TIP3   OH229510   4.690   5.092   5.174
 9850TIP3    H129511   4.642   5.178   5.177
 9850TIP3    H229512   4.636   5.038   5.236
 9851TIP3   OH229513   4.068   4.927   6.683
 9851TIP3    H129514   4.133   4.890   6.746
 9851TIP3    H229515   4.043   4.851   6.629
 9852TIP3   OH229516   4.848   5.004   6.663
 9852TIP3    H129517   4.783   4.944   6.621
 9852TIP3    H229518   4.932   4.966   6.631
 9853TIP3   OH229519   5.105   5.526   6.246
 9853TIP3    H129520   5.009   5.521   6.261
 9853TIP3    H229521   5.133   5.577   6.325
 9854TIP3   OH229522   5.507   4.594   5.161
 9854TIP3    H129523   5.447   4.550   5.097
 9854TIP3    H229524   5.509   4.683   5.120
 9855TIP3   OH229525   5.735   5.457   6.234
 9855TIP3    H129526   5.637   5.449   6.226
 9855TIP3    H229527   5.762   5.425   6.145
 9856TIP3   OH229528   5.215   5.415   5.064
 9856TIP3    H129529   5.190   5.346   5.128
 9856TIP3    H229530   5.230   5.365   4.982
 9857TIP3   OH229531   5.212   5.045   5.896
 9857TIP3    H129532   5.118   5.020   5.911
 9857TIP3    H229533   5.244   4.964   5.852
 9858TIP3   OH229534   4.341   5.270   5.646
 9858TIP3    H129535   4.330   5.352   5.595
 9858TIP3    H229536   4.252   5.253   5.678
 9859TIP3   OH229537   3.908   4.575   5.362
 9859TIP3    H129538   3.951   4.660   5.383
 9859TIP3    H229539   3.830   4.578   5.422
 9860TIP3   OH229540   4.477   5.035   5.594
 9860TIP3    H129541   4.441   5.124   5.613
 9860TIP3    H229542   4.442   4.984   5.669
 9861TIP3   OH229543   4.610   5.614   6.120
 9861TIP3    H129544   4.655   5.686   6.071
 9861TIP3    H229545   4.684   5.574   6.168
 9862TIP3   OH229546   4.256   5.512   5.504
 9862TIP3    H129547   4.172   5.520   5.553
 9862TIP3    H229548   4.288   5.605   5.508
 9863TIP3   OH229549   4.995   5.248   6.083
 9863TIP3    H129550   4.983   5.248   6.181
 9863TIP3    H229551   5.075   5.195   6.074
 9864TIP3   OH229552   4.974   5.142   4.965
 9864TIP3    H129553   5.028   5.116   5.044
 9864TIP3    H229554   4.886   5.117   4.996
 9865TIP3   OH229555   5.246   5.779   6.133
 9865TIP3    H129556   5.167   5.721   6.129
 9865TIP3    H229557   5.228   5.842   6.060
 9866TIP3   OH229558   5.311   5.614   4.783
 9866TIP3    H129559   5.352   5.689   4.736
 9866TIP3    H229560   5.231   5.659   4.817
 9867TIP3   OH229561   4.330   4.389   6.652
 9867TIP3    H129562   4.233   4.392   6.661
 9867TIP3    H229563   4.356   4.332   6.726
 9868TIP3   OH229564   5.136   5.069   5.175
 9868TIP3    H129565   5.124   5.007   5.251
 9868TIP3    H229566   5.234   5.068   5.167
 9869TIP3   OH229567   4.051   5.458   6.281
 9869TIP3    H129568   4.100   5.374   6.294
 9869TIP3    H229569   4.103   5.517   6.336
 9870TIP3   OH229570   4.337   5.121   4.965
 9870TIP3    H129571   4.350   5.028   4.940
 9870TIP3    H229572   4.318   5.113   5.061
 9871TIP3   OH229573   4.281   5.128   5.236
 9871TIP3    H129574   4.350   5.100   5.297
 9871TIP3    H229575   4.286   5.226   5.246
 9872TIP3   OH229576   4.017   4.821   5.442
 9872TIP3    H129577   3.949   4.863   5.499
 9872TIP3    H229578   4.027   4.891   5.374
 9873TIP3   OH229579   5.177   4.451   6.329
 9873TIP3    H129580   5.251   4.495   6.374
 9873TIP3    H229581   5.160   4.374   6.386
 9874TIP3   OH229582   5.062   4.225   5.475
 9874TIP3    H129583   5.023   4.288   5.412
 9874TIP3    H229584   5.106   4.289   5.536
 9875TIP3   OH229585   4.550   5.324   5.182
 9875TIP3    H129586   4.464   5.345   5.222
 9875TIP3    H229587   4.564   5.403   5.129
 9876TIP3   OH229588   4.740   4.387   5.600
 9876TIP3    H129589   4.800   4.463   5.586
 9876TIP3    H229590   4.742   4.378   5.697
 9877TIP3   OH229591   5.008   4.705   6.405
 9877TIP3    H129592   5.030   4.761   6.482
 9877TIP3    H229593   5.060   4.625   6.422
 9878TIP3   OH229594   4.880   4.112   5.701
 9878TIP3    H129595   4.868   4.184   5.766
 9878TIP3    H229596   4.938   4.155   5.636
 9879TIP3   OH229597   4.297   5.400   5.255
 9879TIP3    H129598   4.265   5.471   5.195
 9879TIP3    H229599   4.279   5.441   5.343
 9880TIP3   OH229600   4.395   4.114   5.491
 9880TIP3    H129601   4.390   4.204   5.529
 9880TIP3    H229602   4.492   4.099   5.496
 9881TIP3   OH229603   5.648   4.607   6.387
 9881TIP3    H129604   5.550   4.606   6.395
 9881TIP3    H229605   5.658   4.563   6.302
 9882TIP3   OH229606   5.297   4.802   5.776
 9882TIP3    H129607   5.221   4.742   5.791
 9882TIP3    H229608   5.369   4.757   5.824
 9883TIP3   OH229609   4.012   5.025   5.245
 9883TIP3    H129610   4.083   5.091   5.255
 9883TIP3    H229611   4.055   4.967   5.178
 9884TIP3   OH229612   3.952   4.305   5.374
 9884TIP3    H129613   3.953   4.403   5.376
 9884TIP3    H229614   3.863   4.287   5.342
 9885TIP3   OH229615   5.267   5.758   5.725
 9885TIP3    H129616   5.224   5.802   5.648
 9885TIP3    H229617   5.361   5.777   5.704
 9886TIP3   OH229618   4.345   4.024   6.249
 9886TIP3    H129619   4.313   3.992   6.163
 9886TIP3    H229620   4.332   3.946   6.307
 9887TIP3   OH229621   3.880   5.246   5.628
 9887TIP3    H129622   3.818   5.272   5.697
 9887TIP3    H229623   3.841   5.288   5.548
 9888TIP3   OH229624   4.040   5.789   6.708
 9888TIP3    H129625   4.128   5.788   6.752
 9888TIP3    H229626   4.022   5.694   6.702
 9889TIP3   OH229627   4.517   5.749   6.751
 9889TIP3    H129628   4.611   5.728   6.757
 9889TIP3    H229629   4.489   5.688   6.679
 9890TIP3   OH229630   4.499   5.323   4.873
 9890TIP3    H129631   4.443   5.253   4.913
 9890TIP3    H229632   4.576   5.270   4.847
 9891TIP3   OH229633   5.159   5.659   6.481
 9891TIP3    H129634   5.148   5.587   6.547
 9891TIP3    H229635   5.236   5.707   6.516
 9892TIP3   OH229636   4.936   5.363   4.790
 9892TIP3    H129637   4.978   5.300   4.852
 9892TIP3    H229638   4.995   5.359   4.712
 9893TIP3   OH229639   4.169   5.194   6.901
 9893TIP3    H129640   4.188   5.098   6.902
 9893TIP3    H229641   4.086   5.195   6.848
 9894TIP3   OH229642   4.148   4.841   5.100
 9894TIP3    H129643   4.202   4.809   5.174
 9894TIP3    H229644   4.216   4.846   5.029
 9895TIP3   OH229645   4.771   5.279   6.678
 9895TIP3    H129646   4.728   5.294   6.592
 9895TIP3    H229647   4.804   5.187   6.670
 9896TIP3   OH229648   4.661   5.043   4.905
 9896TIP3    H129649   4.662   5.054   5.003
 9896TIP3    H229650   4.659   4.945   4.899
 9897TIP3   OH229651   5.268   5.289   6.286
 9897TIP3    H129652   5.343   5.333   6.242
 9897TIP3    H229653   5.197   5.355   6.271
 9898TIP3   OH229654   4.288   4.919   6.893
 9898TIP3    H129655   4.372   4.899   6.849
 9898TIP3    H229656   4.319   4.955   6.979
 9899TIP3   OH229657   4.353   4.748   5.321
 9899TIP3    H129658   4.322   4.712   5.406
 9899TIP3    H229659   4.388   4.669   5.276
 9900TIP3   OH229660   4.628   4.817   6.555
 9900TIP3    H129661   4.544   4.866   6.552
 9900TIP3    H229662   4.674   4.850   6.475
 9901TIP3   OH229663   4.454   4.541   5.159
 9901TIP3    H129664   4.429   4.550   5.065
 9901TIP3    H229665   4.552   4.546   5.152
 9902TIP3   OH229666   5.139   5.212   6.681
 9902TIP3    H129667   5.221   5.183   6.640
 9902TIP3    H229668   5.131   5.149   6.756
 9903TIP3   OH229669   5.273   4.868   4.827
 9903TIP3    H129670   5.252   4.827   4.740
 9903TIP3    H229671   5.241   4.959   4.809
 9904TIP3   OH229672   4.749   4.601   6.672
 9904TIP3    H129673   4.747   4.524   6.612
 9904TIP3    H229674   4.705   4.670   6.617
 9905TIP3   OH229675   4.750   4.385   6.481
 9905TIP3    H129676   4.777   4.430   6.398
 9905TIP3    H229677   4.656   4.365   6.463
 9906TIP3   OH229678   4.772   4.924   6.355
 9906TIP3    H129679   4.855   4.940   6.310
 9906TIP3    H229680   4.711   4.987   6.311
 9907TIP3   OH229681   5.355   4.887   6.732
 9907TIP3    H129682   5.408   4.807   6.747
 9907TIP3    H229683   5.422   4.949   6.701
 9908TIP3   OH229684   5.399   5.139   6.468
 9908TIP3    H129685   5.340   5.194   6.412
 9908TIP3    H229686   5.486   5.162   6.428
 9909TIP3   OH229687   4.628   4.705   6.910
 9909TIP3    H129688   4.558   4.639   6.923
 9909TIP3    H229689   4.658   4.685   6.819
 9910TIP3   OH229690   4.880   4.148   6.553
 9910TIP3    H129691   4.831   4.229   6.528
 9910TIP3    H229692   4.811   4.079   6.540
 9911TIP3   OH229693   5.009   4.649   6.766
 9911TIP3    H129694   4.993   4.637   6.861
 9911TIP3    H229695   4.919   4.627   6.732
 9912TIP3   OH229696   5.244   4.596   6.619
 9912TIP3    H129697   5.170   4.604   6.683
 9912TIP3    H229698   5.319   4.571   6.676
 9913TIP3   OH229699   5.478   4.544   6.768
 9913TIP3    H129700   5.489   4.449   6.786
 9913TIP3    H229701   5.471   4.583   6.858
 9914TIP3   OH229702   4.460   4.488   6.962
 9914TIP3    H129703   4.467   4.397   6.928
 9914TIP3    H229704   4.498   4.477   7.052
 9915TIP3   OH229705   4.973   4.156   6.811
 9915TIP3    H129706   5.040   4.085   6.802
 9915TIP3    H229707   4.933   4.154   6.721
 9916TIP3   OH229708   5.040   4.372   6.970
 9916TIP3    H129709   5.019   4.302   6.904
 9916TIP3    H229710   4.963   4.432   6.963
 9917TIP3   OH229711   4.264   5.605   5.068
 9917TIP3    H129712   4.359   5.594   5.049
 9917TIP3    H229713   4.238   5.656   4.989
 9918TIP3   OH229714   3.741   4.988   5.277
 9918TIP3    H129715   3.837   5.006   5.265
 9918TIP3    H229716   3.735   4.897   5.239
 9919TIP3   OH229717   3.659   5.596   5.700
 9919TIP3    H129718   3.594   5.534   5.661
 9919TIP3    H229719   3.704   5.537   5.765
 9920TIP3   OH229720   3.792   5.442   5.888
 9920TIP3    H129721   3.786   5.370   5.954
 9920TIP3    H229722   3.847   5.505   5.938
 9921TIP3   OH229723   5.521   5.848   5.685
 9921TIP3    H129724   5.546   5.877   5.774
 9921TIP3    H229725   5.588   5.890   5.629
 9922TIP3   OH229726   5.547   5.864   5.965
 9922TIP3    H129727   5.503   5.776   5.962
 9922TIP3    H229728   5.623   5.841   6.022
 9923TIP3   OH229729   5.592   5.538   6.541
 9923TIP3    H129730   5.517   5.554   6.602
 9923TIP3    H229731   5.637   5.625   6.538
 9924TIP3   OH229732   5.414   5.054   5.156
 9924TIP3    H129733   5.479   5.121   5.126
 9924TIP3    H229734   5.459   5.020   5.237
 9925TIP3   OH229735   5.540   4.926   5.364
 9925TIP3    H129736   5.473   4.885   5.423
 9925TIP3    H229737   5.606   4.961   5.427
 9926TIP3   OH229738   5.598   5.319   5.794
 9926TIP3    H129739   5.649   5.250   5.749
 9926TIP3    H229740   5.593   5.389   5.727
 9927TIP3   OH229741   5.423   5.617   5.988
 9927TIP3    H129742   5.351   5.658   6.039
 9927TIP3    H229743   5.374   5.570   5.916
 9928TIP3   OH229744   5.475   4.829   5.007
 9928TIP3    H129745   5.404   4.838   4.939
 9928TIP3    H229746   5.451   4.905   5.065
 9929TIP3   OH229747   5.346   4.497   4.961
 9929TIP3    H129748   5.306   4.567   4.908
 9929TIP3    H229749   5.331   4.419   4.907
 9930TIP3   OH229750   5.353   4.785   5.508
 9930TIP3    H129751   5.362   4.688   5.503
 9930TIP3    H229752   5.337   4.799   5.605
 9931TIP3   OH229753   3.972   4.854   6.259
 9931TIP3    H129754   3.968   4.823   6.166
 9931TIP3    H229755   4.070   4.863   6.269
 9932TIP3   OH229756   5.643   5.206   6.361
 9932TIP3    H129757   5.715   5.139   6.351
 9932TIP3    H229758   5.669   5.274   6.296
 9933TIP3   OH229759   5.826   5.008   6.374
 9933TIP3    H129760   5.752   4.959   6.415
 9933TIP3    H229761   5.900   4.946   6.393
 9934TIP3   OH229762   5.349   4.495   5.401
 9934TIP3    H129763   5.395   4.409   5.417
 9934TIP3    H229764   5.407   4.533   5.332
 9935TIP3   OH229765   5.508   4.670   5.896
 9935TIP3    H129766   5.594   4.695   5.855
 9935TIP3    H229767   5.523   4.705   5.986
 9936TIP3   OH229768   5.582   4.815   6.127
 9936TIP3    H129769   5.505   4.850   6.177
 9936TIP3    H229770   5.615   4.896   6.083
 9937TIP3   OH229771   4.192   4.534   6.921
 9937TIP3    H129772   4.290   4.534   6.927
 9937TIP3    H229773   4.172   4.449   6.965
 9938TIP3   OH229774   6.036   4.411   6.684
 9938TIP3    H129775   6.095   4.346   6.640
 9938TIP3    H229776   6.002   4.461   6.607
 9939TIP3   OH229777   5.464   4.248   5.449
 9939TIP3    H129778   5.525   4.234   5.524
 9939TIP3    H229779   5.410   4.168   5.453
 9940TIP3   OH229780   4.160   4.233   6.262
 9940TIP3    H129781   4.224   4.160   6.268
 9940TIP3    H229782   4.220   4.309   6.252
 9941TIP3   OH229783   3.959   4.506   6.334
 9941TIP3    H129784   4.010   4.505   6.250
 9941TIP3    H229785   3.974   4.596   6.365
 9942TIP3   OH229786   5.901   4.543   6.489
 9942TIP3    H129787   5.815   4.588   6.507
 9942TIP3    H229788   5.870   4.472   6.430
 9943TIP3   OH229789   5.536   4.185   5.076
 9943TIP3    H129790   5.577   4.116   5.020
 9943TIP3    H229791   5.603   4.256   5.076
 9944TIP3   OH229792   3.947   4.014   5.835
 9944TIP3    H129793   3.853   4.004   5.857
 9944TIP3    H229794   3.943   4.072   5.756
 9945TIP3   OH229795   5.099   5.716   5.337
 9945TIP3    H129796   5.155   5.707   5.257
 9945TIP3    H229797   5.152   5.777   5.392
 9946TIP3   OH229798   4.165   4.085   6.645
 9946TIP3    H129799   4.114   4.087   6.728
 9946TIP3    H229800   4.102   4.127   6.584
 9947TIP3   OH229801   4.201   5.527   6.720
 9947TIP3    H129802   4.110   5.494   6.706
 9947TIP3    H229803   4.221   5.492   6.807
 9948TIP3   OH229804   4.384   5.571   6.291
 9948TIP3    H129805   4.344   5.644   6.239
 9948TIP3    H229806   4.466   5.560   6.240
 9949TIP3   OH229807   4.825   5.794   6.412
 9949TIP3    H129808   4.869   5.794   6.500
 9949TIP3    H229809   4.890   5.846   6.360
 9950TIP3   OH229810   5.003   5.948   6.270
 9950TIP3    H129811   5.072   5.895   6.227
 9950TIP3    H229812   5.058   6.002   6.332
 9951TIP3   OH229813   5.799   4.308   6.370
 9951TIP3    H129814   5.712   4.299   6.329
 9951TIP3    H229815   5.834   4.216   6.362
 9952TIP3   OH229816   4.059   5.814   6.289
 9952TIP3    H129817   3.968   5.848   6.272
 9952TIP3    H229818   4.071   5.840   6.381
 9953TIP3   OH229819   4.297   5.792   6.153
 9953TIP3    H129820   4.209   5.801   6.196
 9953TIP3    H229821   4.277   5.819   6.062
 9954TIP3   OH229822   4.722   5.815   5.951
 9954TIP3    H129823   4.650   5.832   5.888
 9954TIP3    H229824   4.732   5.903   5.994
 9955TIP3   OH229825   4.990   5.752   6.006
 9955TIP3    H129826   4.897   5.771   5.985
 9955TIP3    H229827   5.036   5.826   5.962
 9956TIP3   OH229828   5.194   5.941   5.918
 9956TIP3    H129829   5.182   6.025   5.869
 9956TIP3    H229830   5.222   5.880   5.846
 9957TIP3   OH229831   3.968   5.597   6.046
 9957TIP3    H129832   3.998   5.567   6.134
 9957TIP3    H229833   4.040   5.557   5.992
 9958TIP3   OH229834   4.165   5.482   5.896
 9958TIP3    H129835   4.176   5.393   5.938
 9958TIP3    H229836   4.258   5.513   5.895
 9959TIP3   OH229837   4.435   5.566   5.904
 9959TIP3    H129838   4.465   5.472   5.896
 9959TIP3    H229839   4.483   5.588   5.987
 9960TIP3   OH229840   5.004   4.224   5.989
 9960TIP3    H129841   4.964   4.151   6.039
 9960TIP3    H229842   5.079   4.180   5.943
 9961TIP3   OH229843   5.540   4.094   5.895
 9961TIP3    H129844   5.620   4.130   5.850
 9961TIP3    H229845   5.470   4.155   5.867
 9962TIP3   OH229846   4.255   3.932   6.002
 9962TIP3    H129847   4.161   3.902   6.005
 9962TIP3    H229848   4.300   3.845   5.997
 9963TIP3   OH229849   4.056   3.802   5.657
 9963TIP3    H129850   4.073   3.858   5.580
 9963TIP3    H229851   4.015   3.865   5.719
 9964TIP3   OH229852   4.704   3.958   5.886
 9964TIP3    H129853   4.757   4.012   5.825
 9964TIP3    H229854   4.718   4.005   5.970
 9965TIP3   OH229855   5.223   4.110   5.861
 9965TIP3    H129856   5.256   4.063   5.784
 9965TIP3    H229857   5.224   4.038   5.928
 9966TIP3   OH229858   5.245   4.035   5.404
 9966TIP3    H129859   5.185   4.098   5.453
 9966TIP3    H229860   5.250   3.955   5.463
 9967TIP3   OH229861   3.759   5.376   5.426
 9967TIP3    H129862   3.673   5.342   5.394
 9967TIP3    H229863   3.748   5.471   5.406
 9968TIP3   OH229864   4.160   3.958   5.415
 9968TIP3    H129865   4.209   3.897   5.356
 9968TIP3    H229866   4.233   4.013   5.451
 9969TIP3   OH229867   4.675   4.139   5.505
 9969TIP3    H129868   4.729   4.093   5.572
 9969TIP3    H229869   4.693   4.232   5.533
 9970TIP3   OH229870   4.530   5.558   5.013
 9970TIP3    H129871   4.619   5.581   4.978
 9970TIP3    H229872   4.509   5.483   4.953
 9971TIP3   OH229873   5.250   5.681   5.108
 9971TIP3    H129874   5.242   5.584   5.098
 9971TIP3    H229875   5.205   5.711   5.027
 9972TIP3   OH229876   4.461   4.209   6.893
 9972TIP3    H129877   4.425   4.140   6.951
 9972TIP3    H229878   4.555   4.210   6.923
 9973TIP3   OH229879   4.711   4.210   7.014
 9973TIP3    H129880   4.797   4.189   6.973
 9973TIP3    H229881   4.702   4.137   7.079
 9974TIP3   OH229882   3.835   5.400   5.069
 9974TIP3    H129883   3.836   5.412   5.165
 9974TIP3    H229884   3.922   5.356   5.053
 9975TIP3   OH229885   5.539   4.272   6.800
 9975TIP3    H129886   5.557   4.243   6.892
 9975TIP3    H229887   5.629   4.268   6.760
 9976TIP3   OH229888   5.474   5.822   6.295
 9976TIP3    H129889   5.396   5.792   6.244
 9976TIP3    H229890   5.456   5.918   6.300
 9977TIP3   OH229891   6.741   5.192   5.059
 9977TIP3    H129892   6.714   5.284   5.040
 9977TIP3    H229893   6.664   5.145   5.024
 9978TIP3   OH229894   6.726   5.198   5.448
 9978TIP3    H129895   6.769   5.177   5.533
 9978TIP3    H229896   6.692   5.112   5.420
 9979TIP3   OH229897   6.038   5.090   5.807
 9979TIP3    H129898   6.067   5.019   5.867
 9979TIP3    H229899   6.120   5.141   5.798
 9980TIP3   OH229900   6.978   5.484   5.122
 9980TIP3    H129901   6.981   5.420   5.194
 9980TIP3    H229902   7.000   5.567   5.170
 9981TIP3   OH229903   6.014   5.502   5.525
 9981TIP3    H129904   6.002   5.404   5.522
 9981TIP3    H229905   6.109   5.507   5.542
 9982TIP3   OH229906   5.724   4.713   5.307
 9982TIP3    H129907   5.670   4.793   5.324
 9982TIP3    H229908   5.655   4.648   5.287
 9983TIP3   OH229909   5.777   4.990   5.492
 9983TIP3    H129910   5.826   4.912   5.526
 9983TIP3    H229911   5.835   5.020   5.421
 9984TIP3   OH229912   6.643   5.902   5.193
 9984TIP3    H129913   6.679   5.855   5.113
 9984TIP3    H229914   6.707   5.975   5.201
 9985TIP3   OH229915   6.534   5.424   5.482
 9985TIP3    H129916   6.574   5.344   5.441
 9985TIP3    H229917   6.617   5.467   5.511
 9986TIP3   OH229918   7.549   4.699   5.458
 9986TIP3    H129919   7.552   4.786   5.503
 9986TIP3    H229920   7.581   4.722   5.369
 9987TIP3   OH229921   6.952   4.922   5.520
 9987TIP3    H129922   6.997   4.837   5.540
 9987TIP3    H229923   6.920   4.905   5.429
 9988TIP3   OH229924   6.297   4.584   5.483
 9988TIP3    H129925   6.273   4.657   5.421
 9988TIP3    H229926   6.246   4.511   5.442
 9989TIP3   OH229927   6.987   4.675   5.106
 9989TIP3    H129928   7.058   4.662   5.173
 9989TIP3    H229929   7.041   4.710   5.032
 9990TIP3   OH229930   5.925   4.783   5.595
 9990TIP3    H129931   6.008   4.762   5.643
 9990TIP3    H229932   5.936   4.726   5.516
 9991TIP3   OH229933   6.363   4.982   5.393
 9991TIP3    H129934   6.458   4.958   5.401
 9991TIP3    H229935   6.325   4.899   5.357
 9992TIP3   OH229936   7.547   4.911   5.625
 9992TIP3    H129937   7.479   4.980   5.608
 9992TIP3    H229938   7.619   4.964   5.665
 9993TIP3   OH229939   6.289   4.568   5.923
 9993TIP3    H129940   6.229   4.600   5.853
 9993TIP3    H229941   6.234   4.585   6.002
 9994TIP3   OH229942   6.624   5.411   4.931
 9994TIP3    H129943   6.594   5.402   4.839
 9994TIP3    H229944   6.581   5.494   4.958
 9995TIP3   OH229945   6.399   5.344   5.714
 9995TIP3    H129946   6.335   5.409   5.751
 9995TIP3    H229947   6.437   5.394   5.639
 9996TIP3   OH229948   7.192   4.681   5.284
 9996TIP3    H129949   7.182   4.635   5.368
 9996TIP3    H229950   7.245   4.759   5.310
 9997TIP3   OH229951   6.162   4.679   5.703
 9997TIP3    H129952   6.224   4.751   5.728
 9997TIP3    H229953   6.211   4.640   5.627
 9998TIP3   OH229954   6.221   5.536   5.811
 9998TIP3    H129955   6.196   5.625   5.778
 9998TIP3    H229956   6.142   5.517   5.866
 9999TIP3   OH229957   5.613   5.228   5.049
 9999TIP3    H129958   5.577   5.258   4.963
 9999TIP3    H229959   5.648   5.312   5.085
10000TIP3   OH229960   7.010   5.706   5.281
10000TIP3    H129961   7.005   5.749   5.366
10000TIP3    H229962   7.032   5.782   5.223
10001TIP3   OH229963   7.346   4.628   5.647
10001TIP3    H129964   7.261   4.666   5.617
10001TIP3    H229965   7.406   4.656   5.575
10002TIP3   OH229966   6.643   4.283   5.640
10002TIP3    H129967   6.623   4.189   5.655
10002TIP3    H229968   6.565   4.324   5.685
10003TIP3   OH229969   6.746   5.794   4.964
10003TIP3    H129970   6.793   5.709   4.947
10003TIP3    H229971   6.810   5.855   4.921
10004TIP3   OH229972   6.884   5.575   4.880
10004TIP3    H129973   6.871   5.494   4.829
10004TIP3    H229974   6.928   5.540   4.961
10005TIP3   OH229975   6.570   5.048   4.892
10005TIP3    H129976   6.492   5.104   4.874
10005TIP3    H229977   6.617   5.051   4.807
10006TIP3   OH229978   6.531   4.835   4.603
10006TIP3    H129979   6.595   4.887   4.656
10006TIP3    H229980   6.593   4.774   4.558
10007TIP3   OH229981   7.497   5.297   5.475
10007TIP3    H129982   7.406   5.338   5.474
10007TIP3    H229983   7.526   5.322   5.384
10008TIP3   OH229984   6.920   5.129   4.862
10008TIP3    H129985   6.866   5.154   4.941
10008TIP3    H229986   7.005   5.108   4.905
10009TIP3   OH229987   7.146   5.197   5.768
10009TIP3    H129988   7.155   5.291   5.795
10009TIP3    H229989   7.055   5.197   5.732
10010TIP3   OH229990   6.152   5.128   5.282
10010TIP3    H129991   6.111   5.071   5.213
10010TIP3    H229992   6.228   5.074   5.311
10011TIP3   OH229993   6.295   5.558   5.417
10011TIP3    H129994   6.259   5.521   5.334
10011TIP3    H229995   6.375   5.503   5.431
10012TIP3   OH229996   6.289   5.099   5.637
10012TIP3    H129997   6.319   5.071   5.547
10012TIP3    H229998   6.334   5.185   5.649
10013TIP3   OH229999   6.422   5.660   5.961
10013TIP3    H130000   6.355   5.715   6.008
10013TIP3    H230001   6.363   5.599   5.913
10014TIP3   OH230002   6.760   4.989   4.689
10014TIP3    H130003   6.818   5.051   4.739
10014TIP3    H230004   6.787   5.010   4.596
10015TIP3   OH230005   6.183   5.208   6.061
10015TIP3    H130006   6.184   5.297   6.101
10015TIP3    H230007   6.088   5.186   6.073
10016TIP3   OH230008   6.501   5.676   4.974
10016TIP3    H130009   6.587   5.721   4.964
10016TIP3    H230010   6.442   5.734   4.923
10017TIP3   OH230011   6.211   5.808   6.043
10017TIP3    H130012   6.158   5.814   5.962
10017TIP3    H230013   6.141   5.802   6.112
10018TIP3   OH230014   7.274   4.230   4.737
10018TIP3    H130015   7.193   4.252   4.788
10018TIP3    H230016   7.290   4.313   4.688
10019TIP3   OH230017   6.020   4.972   5.084
10019TIP3    H130018   5.951   5.014   5.028
10019TIP3    H230019   5.981   4.886   5.101
10020TIP3   OH230020   7.076   5.595   4.281
10020TIP3    H130021   7.084   5.693   4.271
10020TIP3    H230022   7.169   5.567   4.272
10021TIP3   OH230023   5.799   5.355   5.992
10021TIP3    H130024   5.731   5.334   5.925
10021TIP3    H230025   5.838   5.268   6.013
10022TIP3   OH230026   5.653   5.551   5.621
10022TIP3    H130027   5.750   5.547   5.619
10022TIP3    H230028   5.639   5.628   5.678
10023TIP3   OH230029   6.613   5.772   5.808
10023TIP3    H130030   6.604   5.865   5.831
10023TIP3    H230031   6.542   5.732   5.863
10024TIP3   OH230032   6.386   5.908   4.774
10024TIP3    H130033   6.318   5.884   4.708
10024TIP3    H230034   6.359   5.999   4.798
10025TIP3   OH230035   5.820   5.762   5.153
10025TIP3    H130036   5.865   5.753   5.240
10025TIP3    H230037   5.772   5.677   5.148
10026TIP3   OH230038   6.605   5.837   4.393
10026TIP3    H130039   6.652   5.755   4.367
10026TIP3    H230040   6.609   5.834   4.490
10027TIP3   OH230041   6.636   5.866   4.670
10027TIP3    H130042   6.548   5.873   4.712
10027TIP3    H230043   6.691   5.833   4.743
10028TIP3   OH230044   7.388   5.138   5.911
10028TIP3    H130045   7.322   5.169   5.846
10028TIP3    H230046   7.417   5.053   5.872
10029TIP3   OH230047   5.998   5.543   5.971
10029TIP3    H130048   6.049   5.524   6.052
10029TIP3    H230049   5.926   5.477   5.979
10030TIP3   OH230050   6.403   4.359   5.765
10030TIP3    H130051   6.314   4.327   5.738
10030TIP3    H230052   6.375   4.439   5.814
10031TIP3   OH230053   6.939   4.478   5.960
10031TIP3    H130054   7.007   4.443   6.022
10031TIP3    H230055   6.855   4.457   6.006
10032TIP3   OH230056   7.154   4.908   5.868
10032TIP3    H130057   7.113   4.909   5.957
10032TIP3    H230058   7.140   5.000   5.838
10033TIP3   OH230059   6.832   5.027   4.430
10033TIP3    H130060   6.802   5.006   4.339
10033TIP3    H230061   6.913   5.078   4.411
10034TIP3   OH230062   6.547   4.409   4.737
10034TIP3    H130063   6.514   4.406   4.829
10034TIP3    H230064   6.508   4.327   4.702
10035TIP3   OH230065   6.338   4.878   5.786
10035TIP3    H130066   6.284   4.897   5.866
10035TIP3    H230067   6.321   4.959   5.733
10036TIP3   OH230068   6.220   4.765   5.296
10036TIP3    H130069   6.128   4.738   5.316
10036TIP3    H230070   6.231   4.723   5.208
10037TIP3   OH230071   6.709   4.847   5.026
10037TIP3    H130072   6.659   4.920   4.983
10037TIP3    H230073   6.765   4.816   4.952
10038TIP3   OH230074   6.883   5.134   6.119
10038TIP3    H130075   6.860   5.058   6.178
10038TIP3    H230076   6.978   5.121   6.107
10039TIP3   OH230077   6.864   4.874   5.264
10039TIP3    H130078   6.804   4.905   5.194
10039TIP3    H230079   6.899   4.795   5.217
10040TIP3   OH230080   6.154   4.904   5.991
10040TIP3    H130081   6.177   4.968   6.060
10040TIP3    H230082   6.142   4.822   6.042
10041TIP3   OH230083   6.201   4.383   4.701
10041TIP3    H130084   6.195   4.382   4.799
10041TIP3    H230085   6.127   4.442   4.679
10042TIP3   OH230086   5.768   4.451   5.536
10042TIP3    H130087   5.807   4.476   5.621
10042TIP3    H230088   5.781   4.355   5.538
10043TIP3   OH230089   5.716   4.409   5.093
10043TIP3    H130090   5.764   4.446   5.016
10043TIP3    H230091   5.658   4.484   5.114
10044TIP3   OH230092   6.870   5.120   5.684
10044TIP3    H130093   6.907   5.052   5.623
10044TIP3    H230094   6.841   5.063   5.758
10045TIP3   OH230095   6.551   4.581   5.357
10045TIP3    H130096   6.468   4.584   5.409
10045TIP3    H230097   6.619   4.580   5.426
10046TIP3   OH230098   5.984   4.644   5.365
10046TIP3    H130099   5.889   4.651   5.340
10046TIP3    H230100   6.001   4.549   5.354
10047TIP3   OH230101   6.247   4.635   5.056
10047TIP3    H130102   6.341   4.652   5.034
10047TIP3    H230103   6.200   4.657   4.972
10048TIP3   OH230104   7.038   4.660   5.563
10048TIP3    H130105   7.000   4.674   5.653
10048TIP3    H230106   6.972   4.601   5.524
10049TIP3   OH230107   6.097   4.669   4.831
10049TIP3    H130108   6.024   4.628   4.781
10049TIP3    H230109   6.148   4.709   4.758
10050TIP3   OH230110   6.149   5.455   6.190
10050TIP3    H130111   6.235   5.469   6.236
10050TIP3    H230112   6.088   5.455   6.266
10051TIP3   OH230113   6.629   4.913   5.454
10051TIP3    H130114   6.704   4.876   5.405
10051TIP3    H230115   6.635   4.867   5.540
10052TIP3   OH230116   6.152   4.401   5.339
10052TIP3    H130117   6.111   4.327   5.390
10052TIP3    H230118   6.197   4.352   5.269
10053TIP3   OH230119   6.605   4.812   5.744
10053TIP3    H130120   6.515   4.846   5.758
10053TIP3    H230121   6.661   4.875   5.793
10054TIP3   OH230122   6.340   5.201   4.840
10054TIP3    H130123   6.266   5.138   4.828
10054TIP3    H230124   6.319   5.237   4.930
10055TIP3   OH230125   7.250   5.401   5.458
10055TIP3    H130126   7.272   5.481   5.405
10055TIP3    H230127   7.154   5.393   5.442
10056TIP3   OH230128   6.799   4.512   4.703
10056TIP3    H130129   6.703   4.494   4.714
10056TIP3    H230130   6.808   4.605   4.731
10057TIP3   OH230131   6.760   5.534   5.841
10057TIP3    H130132   6.719   5.503   5.925
10057TIP3    H230133   6.704   5.612   5.824
10058TIP3   OH230134   6.869   4.760   4.808
10058TIP3    H130135   6.965   4.768   4.825
10058TIP3    H230136   6.850   4.843   4.759
10059TIP3   OH230137   6.038   5.228   5.515
10059TIP3    H130138   6.074   5.196   5.429
10059TIP3    H230139   6.076   5.165   5.577
10060TIP3   OH230140   6.498   5.369   4.688
10060TIP3    H130141   6.439   5.435   4.650
10060TIP3    H230142   6.437   5.308   4.734
10061TIP3   OH230143   5.918   5.141   6.127
10061TIP3    H130144   5.934   5.126   6.222
10061TIP3    H230145   5.847   5.077   6.109
10062TIP3   OH230146   6.622   5.226   6.156
10062TIP3    H130147   6.560   5.170   6.105
10062TIP3    H230148   6.709   5.200   6.120
10063TIP3   OH230149   6.889   5.788   5.751
10063TIP3    H130150   6.830   5.729   5.700
10063TIP3    H230151   6.823   5.845   5.793
10064TIP3   OH230152   7.308   4.855   4.642
10064TIP3    H130153   7.248   4.812   4.578
10064TIP3    H230154   7.305   4.946   4.605
10065TIP3   OH230155   7.016   5.670   4.549
10065TIP3    H130156   6.986   5.603   4.612
10065TIP3    H230157   7.023   5.621   4.466
10066TIP3   OH230158   6.993   5.303   5.375
10066TIP3    H130159   6.900   5.277   5.389
10066TIP3    H230160   7.031   5.223   5.334
10067TIP3   OH230161   6.140   5.535   5.158
10067TIP3    H130162   6.138   5.612   5.096
10067TIP3    H230163   6.051   5.499   5.144
10068TIP3   OH230164   5.699   4.832   4.843
10068TIP3    H130165   5.746   4.916   4.865
10068TIP3    H230166   5.625   4.836   4.908
10069TIP3   OH230167   6.269   5.294   5.086
10069TIP3    H130168   6.239   5.384   5.107
10069TIP3    H230169   6.233   5.242   5.160
10070TIP3   OH230170   6.065   5.769   5.007
10070TIP3    H130171   5.974   5.779   5.040
10070TIP3    H230172   6.094   5.863   5.003
10071TIP3   OH230173   6.773   5.516   5.569
10071TIP3    H130174   6.783   5.498   5.665
10071TIP3    H230175   6.865   5.503   5.539
10072TIP3   OH230176   6.774   5.399   4.448
10072TIP3    H130177   6.817   5.376   4.533
10072TIP3    H230178   6.683   5.368   4.464
10073TIP3   OH230179   7.109   5.872   4.271
10073TIP3    H130180   7.147   5.951   4.227
10073TIP3    H230181   7.028   5.913   4.307
10074TIP3   OH230182   6.122   4.651   6.134
10074TIP3    H130183   6.024   4.651   6.140
10074TIP3    H230184   6.145   4.585   6.202
10075TIP3   OH230185   6.931   5.334   4.673
10075TIP3    H130186   6.922   5.267   4.744
10075TIP3    H230187   7.027   5.330   4.657
10076TIP3   OH230188   5.844   5.730   5.769
10076TIP3    H130189   5.898   5.663   5.813
10076TIP3    H230190   5.862   5.809   5.822
10077TIP3   OH230191   6.058   5.380   4.759
10077TIP3    H130192   6.153   5.363   4.761
10077TIP3    H230193   6.057   5.477   4.740
10078TIP3   OH230194   5.811   5.074   4.927
10078TIP3    H130195   5.746   5.122   4.982
10078TIP3    H230196   5.830   5.142   4.860
10079TIP3   OH230197   6.955   4.716   5.821
10079TIP3    H130198   7.039   4.758   5.844
10079TIP3    H230199   6.954   4.634   5.876
10080TIP3   OH230200   6.849   4.461   4.988
10080TIP3    H130201   6.834   4.484   4.895
10080TIP3    H230202   6.887   4.544   5.025
10081TIP3   OH230203   6.531   4.645   5.087
10081TIP3    H130204   6.594   4.719   5.071
10081TIP3    H230205   6.537   4.636   5.185
10082TIP3   OH230206   6.802   4.958   5.892
10082TIP3    H130207   6.823   5.001   5.976
10082TIP3    H230208   6.853   4.875   5.895
10083TIP3   OH230209   6.675   4.366   5.188
10083TIP3    H130210   6.666   4.444   5.245
10083TIP3    H230211   6.738   4.400   5.120
10084TIP3   OH230212   6.048   5.652   4.747
10084TIP3    H130213   6.064   5.718   4.677
10084TIP3    H230214   6.066   5.702   4.828
10085TIP3   OH230215   6.190   4.371   4.977
10085TIP3    H130216   6.186   4.460   5.017
10085TIP3    H230217   6.286   4.354   4.986
10086TIP3   OH230218   7.426   4.862   5.870
10086TIP3    H130219   7.328   4.860   5.871
10086TIP3    H230220   7.445   4.852   5.774
10087TIP3   OH230221   7.094   5.054   5.265
10087TIP3    H130222   7.018   4.995   5.278
10087TIP3    H230223   7.166   5.008   5.312
10088TIP3   OH230224   5.804   5.283   4.730
10088TIP3    H130225   5.882   5.341   4.751
10088TIP3    H230226   5.847   5.228   4.661
10089TIP3   OH230227   5.751   4.562   4.867
10089TIP3    H130228   5.757   4.660   4.865
10089TIP3    H230229   5.668   4.547   4.821
10090TIP3   OH230230   7.034   5.965   5.185
10090TIP3    H130231   7.013   6.041   5.129
10090TIP3    H230232   7.123   5.988   5.216
10091TIP3   OH230233   6.136   4.289   5.743
10091TIP3    H130234   6.097   4.252   5.661
10091TIP3    H230235   6.123   4.214   5.805
10092TIP3   OH230236   5.677   5.498   5.116
10092TIP3    H130237   5.610   5.529   5.180
10092TIP3    H230238   5.645   5.540   5.033
10093TIP3   OH230239   5.835   6.029   6.197
10093TIP3    H130240   5.922   5.997   6.225
10093TIP3    H230241   5.790   5.943   6.185
10094TIP3   OH230242   6.733   5.618   4.277
10094TIP3    H130243   6.766   5.550   4.339
10094TIP3    H230244   6.796   5.612   4.203
10095TIP3   OH230245   5.960   5.438   6.393
10095TIP3    H130246   5.976   5.342   6.397
10095TIP3    H230247   5.874   5.443   6.347
10096TIP3   OH230248   5.939   5.096   4.589
10096TIP3    H130249   5.999   5.076   4.663
10096TIP3    H230250   6.005   5.102   4.516
10097TIP3   OH230251   6.638   5.493   6.075
10097TIP3    H130252   6.560   5.550   6.081
10097TIP3    H230253   6.608   5.409   6.114
10098TIP3   OH230254   6.470   5.292   4.380
10098TIP3    H130255   6.406   5.331   4.441
10098TIP3    H230256   6.452   5.197   4.389
10099TIP3   OH230257   7.048   5.551   5.652
10099TIP3    H130258   7.121   5.509   5.701
10099TIP3    H230259   7.002   5.598   5.723
10100TIP3   OH230260   6.084   5.180   6.370
10100TIP3    H130261   6.160   5.127   6.344
10100TIP3    H230262   6.115   5.218   6.456
10101TIP3   OH230263   6.147   5.003   4.807
10101TIP3    H130264   6.123   4.962   4.891
10101TIP3    H230265   6.185   4.928   4.757
10102TIP3   OH230266   6.419   5.067   6.034
10102TIP3    H130267   6.339   5.124   6.034
10102TIP3    H230268   6.467   5.102   5.955
10103TIP3   OH230269   6.253   4.797   4.647
10103TIP3    H130270   6.228   4.809   4.553
10103TIP3    H230271   6.350   4.801   4.640
10104TIP3   OH230272   7.070   5.125   4.314
10104TIP3    H130273   7.050   5.083   4.228
10104TIP3    H230274   7.039   5.216   4.295
10105TIP3   OH230275   6.545   4.859   6.156
10105TIP3    H130276   6.544   4.779   6.100
10105TIP3    H230277   6.497   4.924   6.099
10106TIP3   OH230278   6.547   4.644   5.971
10106TIP3    H130279   6.574   4.684   5.886
10106TIP3    H230280   6.453   4.621   5.952
10107TIP3   OH230281   6.572   5.177   5.843
10107TIP3    H130282   6.657   5.188   5.798
10107TIP3    H230283   6.515   5.242   5.797
10108TIP3   OH230284   6.422   4.963   6.391
10108TIP3    H130285   6.355   4.893   6.408
10108TIP3    H230286   6.451   4.939   6.301
10109TIP3   OH230287   6.677   4.405   6.037
10109TIP3    H130288   6.627   4.486   6.014
10109TIP3    H230289   6.607   4.336   6.025
10110TIP3   OH230290   6.800   4.911   6.250
10110TIP3    H130291   6.785   4.889   6.344
10110TIP3    H230292   6.711   4.890   6.216
10111TIP3   OH230293   7.047   4.882   6.118
10111TIP3    H130294   6.971   4.865   6.175
10111TIP3    H230295   7.123   4.853   6.173
10112TIP3   OH230296   7.259   4.792   6.294
10112TIP3    H130297   7.268   4.695   6.300
10112TIP3    H230298   7.208   4.813   6.373
10113TIP3   OH230299   6.261   4.745   6.446
10113TIP3    H130300   6.260   4.653   6.412
10113TIP3    H230301   6.294   4.730   6.537
10114TIP3   OH230302   6.766   4.406   6.294
10114TIP3    H130303   6.834   4.336   6.284
10114TIP3    H230304   6.728   4.405   6.204
10115TIP3   OH230305   6.820   4.613   6.458
10115TIP3    H130306   6.802   4.542   6.392
10115TIP3    H230307   6.742   4.671   6.448
10116TIP3   OH230308   6.096   5.860   4.557
10116TIP3    H130309   6.134   5.781   4.511
10116TIP3    H230310   6.071   5.915   4.480
10117TIP3   OH230311   5.538   5.243   4.769
10117TIP3    H130312   5.633   5.267   4.754
10117TIP3    H230313   5.535   5.154   4.728
10118TIP3   OH230314   5.452   5.854   5.189
10118TIP3    H130315   5.389   5.791   5.148
10118TIP3    H230316   5.498   5.795   5.252
10119TIP3   OH230317   5.588   5.700   5.372
10119TIP3    H130318   5.578   5.629   5.437
10119TIP3    H230319   5.640   5.763   5.424
10120TIP3   OH230320   7.207   5.313   4.639
10120TIP3    H130321   7.273   5.380   4.613
10120TIP3    H230322   7.249   5.276   4.720
10121TIP3   OH230323   7.328   5.172   4.839
10121TIP3    H130324   7.264   5.137   4.905
10121TIP3    H230325   7.398   5.209   4.895
10122TIP3   OH230326   7.378   5.581   5.286
10122TIP3    H130327   7.428   5.516   5.236
10122TIP3    H230328   7.363   5.644   5.212
10123TIP3   OH230329   7.274   5.088   4.494
10123TIP3    H130330   7.202   5.092   4.427
10123TIP3    H230331   7.248   5.164   4.550
10124TIP3   OH230332   7.146   4.759   4.446
10124TIP3    H130333   7.097   4.799   4.374
10124TIP3    H230334   7.123   4.665   4.436
10125TIP3   OH230335   7.145   5.038   4.996
10125TIP3    H130336   7.156   4.942   4.991
10125TIP3    H230337   7.132   5.053   5.093
10126TIP3   OH230338   5.773   5.111   5.743
10126TIP3    H130339   5.771   5.076   5.651
10126TIP3    H230340   5.870   5.112   5.759
10127TIP3   OH230341   7.089   4.492   4.427
10127TIP3    H130342   7.162   4.465   4.486
10127TIP3    H230343   7.015   4.436   4.454
10128TIP3   OH230344   7.146   4.753   4.887
10128TIP3    H130345   7.188   4.665   4.900
10128TIP3    H230346   7.204   4.789   4.818
10129TIP3   OH230347   7.309   4.921   5.384
10129TIP3    H130348   7.396   4.947   5.345
10129TIP3    H230349   7.312   4.974   5.466
10130TIP3   OH230350   7.348   5.094   5.600
10130TIP3    H130351   7.269   5.134   5.640
10130TIP3    H230352   7.394   5.172   5.563
10131TIP3   OH230353   5.994   4.799   6.423
10131TIP3    H130354   6.092   4.791   6.421
10131TIP3    H230355   5.970   4.710   6.458
10132TIP3   OH230356   7.257   4.504   4.925
10132TIP3    H130357   7.304   4.489   5.010
10132TIP3    H230358   7.195   4.429   4.925
10133TIP3   OH230359   5.939   4.499   5.766
10133TIP3    H130360   5.981   4.411   5.766
10133TIP3    H230361   6.015   4.555   5.743
10134TIP3   OH230362   5.750   4.767   5.816
10134TIP3    H130363   5.804   4.751   5.736
10134TIP3    H230364   5.789   4.848   5.849
10135TIP3   OH230365   7.678   4.786   5.922
10135TIP3    H130366   7.589   4.827   5.913
10135TIP3    H230367   7.656   4.697   5.888
10136TIP3   OH230368   7.332   4.438   4.561
10136TIP3    H130369   7.373   4.367   4.507
10136TIP3    H230370   7.399   4.508   4.559
10137TIP3   OH230371   5.733   4.239   5.305
10137TIP3    H130372   5.653   4.262   5.352
10137TIP3    H230373   5.742   4.314   5.243
10138TIP3   OH230374   6.892   5.969   4.824
10138TIP3    H130375   6.950   5.962   4.746
10138TIP3    H230376   6.942   6.028   4.882
10139TIP3   OH230377   5.973   4.366   6.145
10139TIP3    H130378   5.913   4.350   6.219
10139TIP3    H230379   5.910   4.383   6.073
10140TIP3   OH230380   5.998   5.786   6.223
10140TIP3    H130381   5.909   5.754   6.201
10140TIP3    H230382   6.006   5.758   6.316
10141TIP3   OH230383   6.175   5.801   5.750
10141TIP3    H130384   6.123   5.873   5.708
10141TIP3    H230385   6.263   5.841   5.752
10142TIP3   OH230386   7.587   4.541   5.841
10142TIP3    H130387   7.506   4.528   5.789
10142TIP3    H230388   7.631   4.453   5.830
10143TIP3   OH230389   5.856   6.064   5.793
10143TIP3    H130390   5.766   6.093   5.767
10143TIP3    H230391   5.875   6.128   5.864
10144TIP3   OH230392   6.080   6.023   5.631
10144TIP3    H130393   5.997   6.044   5.680
10144TIP3    H230394   6.066   6.074   5.548
10145TIP3   OH230395   6.501   6.085   5.436
10145TIP3    H130396   6.432   6.105   5.369
10145TIP3    H230397   6.471   6.143   5.509
10146TIP3   OH230398   6.748   5.970   5.447
10146TIP3    H130399   6.685   6.045   5.456
10146TIP3    H230400   6.833   6.014   5.462
10147TIP3   OH230401   5.765   5.858   5.528
10147TIP3    H130402   5.792   5.830   5.618
10147TIP3    H230403   5.836   5.815   5.476
10148TIP3   OH230404   5.960   5.730   5.388
10148TIP3    H130405   5.972   5.644   5.435
10148TIP3    H230406   6.049   5.745   5.353
10149TIP3   OH230407   6.268   5.828   5.388
10149TIP3    H130408   6.276   5.730   5.395
10149TIP3    H230409   6.220   5.849   5.469
10150TIP3   OH230410   6.804   4.480   5.478
10150TIP3    H130411   6.760   4.408   5.528
10150TIP3    H230412   6.877   4.433   5.434
10151TIP3   OH230413   7.322   4.359   5.381
10151TIP3    H130414   7.360   4.411   5.307
10151TIP3    H230415   7.227   4.380   5.373
10152TIP3   OH230416   7.417   4.457   5.145
10152TIP3    H130417   7.491   4.406   5.106
10152TIP3    H230418   7.452   4.549   5.132
10153TIP3   OH230419   6.053   4.192   5.488
10153TIP3    H130420   5.966   4.170   5.525
10153TIP3    H230421   6.096   4.104   5.484
10154TIP3   OH230422   5.826   4.054   5.127
10154TIP3    H130423   5.863   4.116   5.062
10154TIP3    H230424   5.798   4.116   5.198
10155TIP3   OH230425   6.498   4.216   5.371
10155TIP3    H130426   6.554   4.267   5.310
10155TIP3    H230427   6.513   4.262   5.454
10156TIP3   OH230428   7.038   4.369   5.355
10156TIP3    H130429   7.041   4.329   5.267
10156TIP3    H230430   7.026   4.289   5.412
10157TIP3   OH230431   7.071   4.293   4.919
10157TIP3    H130432   6.986   4.338   4.936
10157TIP3    H230433   7.056   4.207   4.963
10158TIP3   OH230434   5.552   5.634   4.921
10158TIP3    H130435   5.466   5.601   4.887
10158TIP3    H230436   5.545   5.727   4.893
10159TIP3   OH230437   5.958   4.220   4.897
10159TIP3    H130438   6.007   4.156   4.843
10159TIP3    H230439   6.031   4.273   4.935
10160TIP3   OH230440   6.467   4.394   5.000
10160TIP3    H130441   6.527   4.348   5.062
10160TIP3    H230442   6.488   4.487   5.026
10161TIP3   OH230443   7.043   5.937   4.595
10161TIP3    H130444   7.038   5.839   4.584
10161TIP3    H230445   6.997   5.967   4.514
10162TIP3   OH230446   6.257   4.473   6.386
10162TIP3    H130447   6.221   4.400   6.439
10162TIP3    H230448   6.352   4.470   6.414
10163TIP3   OH230449   6.510   4.467   6.503
10163TIP3    H130450   6.593   4.442   6.460
10163TIP3    H230451   6.498   4.393   6.566
10164TIP3   OH230452   5.632   5.648   4.555
10164TIP3    H130453   5.643   5.669   4.649
10164TIP3    H230454   5.721   5.610   4.534
10165TIP3   OH230455   7.301   4.521   6.293
10165TIP3    H130456   7.324   4.480   6.380
10165TIP3    H230457   7.381   4.501   6.240
10166TIP3   OH230458   7.517   4.951   4.798
10166TIP3    H130459   7.480   5.038   4.823
10166TIP3    H230460   7.439   4.911   4.755
10167TIP3   OH230461   7.555   5.234   4.972
10167TIP3    H130462   7.615   5.162   5.003
10167TIP3    H230463   7.620   5.307   4.956
10168TIP3   OH230464   8.064   4.841   4.986
10168TIP3    H130465   8.055   4.909   4.916
10168TIP3    H230466   8.024   4.765   4.940
10169TIP3   OH230467   7.719   5.040   5.081
10169TIP3    H130468   7.803   5.027   5.129
10169TIP3    H230469   7.736   4.988   4.999
10170TIP3   OH230470   8.152   5.235   4.838
10170TIP3    H130471   8.241   5.208   4.865
10170TIP3    H230472   8.110   5.150   4.818
10171TIP3   OH230473   8.030   4.785   5.419
10171TIP3    H130474   7.998   4.853   5.358
10171TIP3    H230475   7.961   4.784   5.488
10172TIP3   OH230476   7.954   4.956   5.207
10172TIP3    H130477   8.022   5.022   5.231
10172TIP3    H230478   7.999   4.912   5.130
10173TIP3   OH230479   7.411   5.480   4.533
10173TIP3    H130480   7.367   5.515   4.454
10173TIP3    H230481   7.443   5.563   4.575
10174TIP3   OH230482   7.940   5.389   4.758
10174TIP3    H130483   7.906   5.326   4.691
10174TIP3    H230484   8.015   5.339   4.797
10175TIP3   OH230485   7.820   5.221   4.557
10175TIP3    H130486   7.750   5.271   4.509
10175TIP3    H230487   7.769   5.149   4.595
10176TIP3   OH230488   7.616   6.000   4.647
10176TIP3    H130489   7.627   6.000   4.743
10176TIP3    H230490   7.547   5.932   4.638
10177TIP3   OH230491   8.191   4.617   5.274
10177TIP3    H130492   8.110   4.586   5.230
10177TIP3    H230493   8.155   4.694   5.321
10178TIP3   OH230494   8.014   5.007   4.776
10178TIP3    H130495   7.920   4.989   4.799
10178TIP3    H230496   8.023   4.958   4.692
10179TIP3   OH230497   8.012   4.681   4.200
10179TIP3    H130498   7.977   4.646   4.282
10179TIP3    H230499   7.931   4.710   4.154
10180TIP3   OH230500   7.547   4.678   5.063
10180TIP3    H130501   7.621   4.716   5.113
10180TIP3    H230502   7.586   4.655   4.978
10181TIP3   OH230503   7.510   4.664   4.578
10181TIP3    H130504   7.555   4.702   4.500
10181TIP3    H230505   7.450   4.739   4.599
10182TIP3   OH230506   8.324   4.878   4.894
10182TIP3    H130507   8.241   4.855   4.939
10182TIP3    H230508   8.391   4.834   4.949
10183TIP3   OH230509   7.775   4.900   4.850
10183TIP3    H130510   7.680   4.910   4.824
10183TIP3    H230511   7.792   4.806   4.832
10184TIP3   OH230512   8.058   4.883   4.522
10184TIP3    H130513   8.113   4.955   4.490
10184TIP3    H230514   7.981   4.895   4.460
10185TIP3   OH230515   7.882   4.930   4.328
10185TIP3    H130516   7.809   4.884   4.282
10185TIP3    H230517   7.934   4.962   4.251
10186TIP3   OH230518   7.944   4.655   4.823
10186TIP3    H130519   7.901   4.584   4.875
10186TIP3    H230520   7.969   4.609   4.742
10187TIP3   OH230521   8.133   5.458   4.332
10187TIP3    H130522   8.063   5.393   4.315
10187TIP3    H230523   8.108   5.492   4.421
10188TIP3   OH230524   7.756   5.411   4.962
10188TIP3    H130525   7.796   5.425   4.874
10188TIP3    H230526   7.834   5.431   5.019
10189TIP3   OH230527   7.886   5.751   4.574
10189TIP3    H130528   7.870   5.832   4.520
10189TIP3    H230529   7.796   5.728   4.601
10190TIP3   OH230530   7.498   5.088   4.333
10190TIP3    H130531   7.542   5.173   4.355
10190TIP3    H230532   7.421   5.092   4.394
10191TIP3   OH230533   8.064   5.547   4.574
10191TIP3    H130534   8.005   5.626   4.575
10191TIP3    H230535   8.030   5.499   4.652
10192TIP3   OH230536   7.830   5.992   4.468
10192TIP3    H130537   7.746   5.999   4.517
10192TIP3    H230538   7.872   6.072   4.504
10193TIP3   OH230539   7.895   4.826   5.654
10193TIP3    H130540   7.839   4.885   5.708
10193TIP3    H230541   7.962   4.798   5.718
10194TIP3   OH230542   7.930   5.629   3.940
10194TIP3    H130543   7.944   5.536   3.915
10194TIP3    H230544   7.910   5.620   4.035
10195TIP3   OH230545   7.878   5.634   4.209
10195TIP3    H130546   7.960   5.607   4.255
10195TIP3    H230547   7.882   5.732   4.219
10196TIP3   OH230548   7.609   5.333   4.416
10196TIP3    H130549   7.541   5.376   4.473
10196TIP3    H230550   7.621   5.402   4.348
10197TIP3   OH230551   8.156   5.862   4.155
10197TIP3    H130552   8.067   5.876   4.193
10197TIP3    H230553   8.139   5.876   4.061
10198TIP3   OH230554   7.890   5.906   4.217
10198TIP3    H130555   7.861   5.979   4.157
10198TIP3    H230556   7.866   5.944   4.305
10199TIP3   OH230557   7.969   4.613   4.474
10199TIP3    H130558   7.993   4.704   4.501
10199TIP3    H230559   8.055   4.568   4.473
10200TIP3   OH230560   7.604   5.538   4.220
10200TIP3    H130561   7.676   5.603   4.232
10200TIP3    H230562   7.647   5.480   4.153
10201TIP3   OH230563   7.547   4.819   4.354
10201TIP3    H130564   7.549   4.917   4.353
10201TIP3    H230565   7.464   4.801   4.310
10202TIP3   OH230566   7.930   4.535   5.219
10202TIP3    H130567   7.896   4.500   5.134
10202TIP3    H230568   7.914   4.460   5.280
10203TIP3   OH230569   7.468   5.743   4.599
10203TIP3    H130570   7.418   5.764   4.679
10203TIP3    H230571   7.420   5.792   4.528
10204TIP3   OH230572   8.100   5.823   3.863
10204TIP3    H130573   8.028   5.762   3.892
10204TIP3    H230574   8.172   5.760   3.856
10205TIP3   OH230575   7.738   5.352   4.076
10205TIP3    H130576   7.797   5.327   4.150
10205TIP3    H230577   7.804   5.357   4.003
10206TIP3   OH230578   7.937   5.261   4.293
10206TIP3    H130579   7.906   5.228   4.379
10206TIP3    H230580   7.969   5.180   4.250
10207TIP3   OH230581   8.037   5.050   4.134
10207TIP3    H130582   8.001   5.055   4.043
10207TIP3    H230583   8.127   5.081   4.119
10208TIP3   OH230584   7.863   6.115   4.041
10208TIP3    H130585   7.955   6.120   4.016
10208TIP3    H230586   7.821   6.157   3.964
10209TIP3   OH230587   7.334   5.501   4.248
10209TIP3    H130588   7.430   5.521   4.240
10209TIP3    H230589   7.329   5.411   4.212
10210TIP3   OH230590   7.243   6.106   4.667
10210TIP3    H130591   7.179   6.039   4.634
10210TIP3    H230592   7.295   6.051   4.730
10211TIP3   OH230593   7.407   5.976   4.837
10211TIP3    H130594   7.394   5.899   4.899
10211TIP3    H230595   7.454   6.039   4.895
10212TIP3   OH230596   7.590   5.352   5.228
10212TIP3    H130597   7.560   5.324   5.139
10212TIP3    H230598   7.664   5.409   5.204
10213TIP3   OH230599   7.754   4.750   5.232
10213TIP3    H130600   7.817   4.675   5.238
10213TIP3    H230601   7.815   4.825   5.226
10214TIP3   OH230602   7.552   5.026   5.306
10214TIP3    H130603   7.604   5.019   5.223
10214TIP3    H230604   7.556   5.121   5.322
10215TIP3   OH230605   7.539   4.522   4.805
10215TIP3    H130606   7.447   4.516   4.836
10215TIP3    H230607   7.531   4.582   4.728
10216TIP3   OH230608   7.745   4.566   5.607
10216TIP3    H130609   7.701   4.593   5.689
10216TIP3    H230610   7.688   4.610   5.541
10217TIP3   OH230611   7.832   4.454   4.969
10217TIP3    H130612   7.738   4.426   4.972
10217TIP3    H230613   7.874   4.365   4.976
10218TIP3   OH230614   7.628   4.318   4.618
10218TIP3    H130615   7.658   4.379   4.547
10218TIP3    H230616   7.605   4.381   4.689
10219TIP3   OH230617   7.351   5.892   4.404
10219TIP3    H130618   7.266   5.859   4.371
10219TIP3    H230619   7.341   5.987   4.385
10220TIP3   OH230620   7.742   4.473   4.390
10220TIP3    H130621   7.790   4.410   4.333
10220TIP3    H230622   7.816   4.525   4.428
10221TIP3   OH230623   7.425   5.910   4.042
10221TIP3    H130624   7.421   5.930   4.137
10221TIP3    H230625   7.514   5.869   4.032
10222TIP3   OH230626   1.014   6.231   6.230
10222TIP3    H130627   0.991   6.325   6.221
10222TIP3    H230628   0.927   6.191   6.223
10223TIP3   OH230629   0.992   6.232   6.598
10223TIP3    H130630   0.992   6.256   6.691
10223TIP3    H230631   0.936   6.152   6.596
10224TIP3   OH230632   1.225   6.535   6.308
10224TIP3    H130633   1.227   6.458   6.366
10224TIP3    H230634   1.232   6.607   6.372
10225TIP3   OH230635   1.808   5.787   6.665
10225TIP3    H130636   1.835   5.873   6.702
10225TIP3    H230637   1.826   5.801   6.570
10226TIP3   OH230638   1.178   5.955   6.701
10226TIP3    H130639   1.232   5.876   6.718
10226TIP3    H230640   1.168   5.950   6.604
10227TIP3   OH230641   1.235   5.721   6.283
10227TIP3    H130642   1.305   5.703   6.349
10227TIP3    H230643   1.289   5.752   6.208
10228TIP3   OH230644   1.880   6.001   6.832
10228TIP3    H130645   1.797   6.046   6.805
10228TIP3    H230646   1.867   6.004   6.929
10229TIP3   OH230647   0.924   6.460   6.086
10229TIP3    H130648   0.843   6.434   6.041
10229TIP3    H230649   0.899   6.542   6.131
10230TIP3   OH230650   1.440   5.725   6.459
10230TIP3    H130651   1.422   5.677   6.542
10230TIP3    H230652   1.492   5.801   6.491
10231TIP3   OH230653   1.598   5.690   6.832
10231TIP3    H130654   1.509   5.710   6.797
10231TIP3    H230655   1.656   5.721   6.759
10232TIP3   OH230656   0.931   5.330   6.800
10232TIP3    H130657   0.916   5.234   6.815
10232TIP3    H230658   0.839   5.363   6.798
10233TIP3   OH230659   0.988   6.810   6.127
10233TIP3    H130660   1.052   6.743   6.098
10233TIP3    H230661   1.046   6.889   6.120
10234TIP3   OH230662   1.165   6.610   6.045
10234TIP3    H130663   1.107   6.538   6.020
10234TIP3    H230664   1.198   6.580   6.132
10235TIP3   OH230665   0.813   6.097   6.056
10235TIP3    H130666   0.763   6.171   6.020
10235TIP3    H230667   0.875   6.078   5.984
10236TIP3   OH230668   0.790   5.885   5.791
10236TIP3    H130669   0.864   5.936   5.827
10236TIP3    H230670   0.836   5.815   5.743
10237TIP3   OH230671   1.733   6.341   6.659
10237TIP3    H130672   1.644   6.383   6.664
10237TIP3    H230673   1.757   6.365   6.566
10238TIP3   OH230674   1.184   6.171   6.029
10238TIP3    H130675   1.129   6.193   6.108
10238TIP3    H230676   1.268   6.147   6.073
10239TIP3   OH230677   1.417   6.252   6.944
10239TIP3    H130678   1.395   6.341   6.975
10239TIP3    H230679   1.327   6.221   6.916
10240TIP3   OH230680   1.008   6.040   5.868
10240TIP3    H130681   1.074   6.097   5.914
10240TIP3    H230682   1.033   6.057   5.774
10241TIP3   OH230683   1.526   5.272   5.913
10241TIP3    H130684   1.445   5.292   5.965
10241TIP3    H230685   1.539   5.356   5.865
10242TIP3   OH230686   1.324   6.640   5.457
10242TIP3    H130687   1.332   6.737   5.447
10242TIP3    H230688   1.418   6.612   5.450
10243TIP3   OH230689   0.840   6.865   5.566
10243TIP3    H130690   0.899   6.792   5.538
10243TIP3    H230691   0.861   6.874   5.660
10244TIP3   OH230692   0.900   6.908   5.842
10244TIP3    H130693   0.804   6.920   5.858
10244TIP3    H230694   0.934   6.887   5.931
10245TIP3   OH230695   1.683   6.186   7.103
10245TIP3    H130696   1.591   6.199   7.074
10245TIP3    H230697   1.684   6.090   7.114
10246TIP3   OH230698   1.183   5.518   7.128
10246TIP3    H130699   1.252   5.499   7.195
10246TIP3    H230700   1.100   5.503   7.177
10247TIP3   OH230701   1.457   5.988   7.043
10247TIP3    H130702   1.396   5.931   7.093
10247TIP3    H230703   1.399   6.060   7.012
10248TIP3   OH230704   1.094   6.074   5.617
10248TIP3    H130705   1.053   6.054   5.530
10248TIP3    H230706   1.174   6.122   5.589
10249TIP3   OH230707   0.780   5.455   5.899
10249TIP3    H130708   0.753   5.453   5.993
10249TIP3    H230709   0.746   5.368   5.871
10250TIP3   OH230710   0.969   5.908   6.198
10250TIP3    H130711   0.910   5.972   6.154
10250TIP3    H230712   1.025   5.877   6.124
10251TIP3   OH230713   1.120   5.923   6.434
10251TIP3    H130714   1.057   5.949   6.364
10251TIP3    H230715   1.155   5.841   6.391
10252TIP3   OH230716   1.173   6.149   6.893
10252TIP3    H130717   1.166   6.078   6.826
10252TIP3    H230718   1.082   6.154   6.928
10253TIP3   OH230719   0.815   5.562   6.565
10253TIP3    H130720   0.763   5.627   6.513
10253TIP3    H230721   0.888   5.615   6.599
10254TIP3   OH230722   1.299   5.705   6.739
10254TIP3    H130723   1.263   5.720   6.829
10254TIP3    H230724   1.231   5.642   6.705
10255TIP3   OH230725   0.896   5.909   6.612
10255TIP3    H130726   0.980   5.914   6.563
10255TIP3    H230727   0.920   5.942   6.699
10256TIP3   OH230728   1.486   6.456   6.648
10256TIP3    H130729   1.507   6.521   6.577
10256TIP3    H230730   1.408   6.410   6.609
10257TIP3   OH230731   1.039   5.561   5.879
10257TIP3    H130732   0.943   5.543   5.888
10257TIP3    H230733   1.049   5.653   5.911
10258TIP3   OH230734   1.118   5.808   5.986
10258TIP3    H130735   1.214   5.810   6.002
10258TIP3    H230736   1.104   5.888   5.931
10259TIP3   OH230737   1.559   5.900   5.819
10259TIP3    H130738   1.497   5.856   5.755
10259TIP3    H230739   1.555   5.990   5.780
10260TIP3   OH230740   1.272   6.711   5.729
10260TIP3    H130741   1.230   6.654   5.795
10260TIP3    H230742   1.271   6.658   5.648
10261TIP3   OH230743   1.261   6.340   6.547
10261TIP3    H130744   1.171   6.316   6.576
10261TIP3    H230745   1.289   6.256   6.505
10262TIP3   OH230746   1.021   6.440   5.619
10262TIP3    H130747   1.067   6.415   5.702
10262TIP3    H230748   0.931   6.405   5.637
10263TIP3   OH230749   1.357   6.916   5.446
10263TIP3    H130750   1.391   6.992   5.396
10263TIP3    H230751   1.276   6.957   5.483
10264TIP3   OH230752   1.177   6.371   5.836
10264TIP3    H130753   1.170   6.308   5.911
10264TIP3    H230754   1.274   6.375   5.827
10265TIP3   OH230755   1.193   5.749   6.988
10265TIP3    H130756   1.259   5.773   7.057
10265TIP3    H230757   1.174   5.658   7.019
10266TIP3   OH230758   1.119   5.495   6.156
10266TIP3    H130759   1.086   5.521   6.069
10266TIP3    H230760   1.142   5.581   6.197
10267TIP3   OH230761   0.862   5.651   6.218
10267TIP3    H130762   0.913   5.733   6.204
10267TIP3    H230763   0.793   5.686   6.279
10268TIP3   OH230764   1.111   5.979   7.165
10268TIP3    H130765   1.049   6.041   7.122
10268TIP3    H230766   1.128   5.917   7.093
10269TIP3   OH230767   0.929   5.401   6.367
10269TIP3    H130768   0.908   5.470   6.432
10269TIP3    H230769   0.978   5.452   6.299
10270TIP3   OH230770   1.707   5.896   7.042
10270TIP3    H130771   1.612   5.923   7.051
10270TIP3    H230772   1.698   5.840   6.964
10271TIP3   OH230773   1.343   6.098   6.439
10271TIP3    H130774   1.266   6.038   6.446
10271TIP3    H230775   1.413   6.049   6.487
10272TIP3   OH230776   0.979   6.655   5.448
10272TIP3    H130777   1.018   6.590   5.510
10272TIP3    H230778   1.042   6.654   5.374
10273TIP3   OH230779   0.761   6.346   5.660
10273TIP3    H130780   0.664   6.351   5.659
10273TIP3    H230781   0.771   6.250   5.643
10274TIP3   OH230782   1.321   6.171   5.490
10274TIP3    H130783   1.299   6.127   5.405
10274TIP3    H230784   1.288   6.261   5.469
10275TIP3   OH230785   0.918   5.480   7.205
10275TIP3    H130786   0.884   5.563   7.166
10275TIP3    H230787   0.834   5.445   7.241
10276TIP3   OH230788   1.332   5.811   7.207
10276TIP3    H130789   1.268   5.872   7.250
10276TIP3    H230790   1.408   5.815   7.268
10277TIP3   OH230791   1.535   5.845   7.387
10277TIP3    H130792   1.547   5.748   7.401
10277TIP3    H230793   1.533   5.877   7.480
10278TIP3   OH230794   1.030   5.450   7.453
10278TIP3    H130795   1.106   5.389   7.450
10278TIP3    H230796   1.006   5.458   7.359
10279TIP3   OH230797   1.457   6.357   5.821
10279TIP3    H130798   1.523   6.423   5.791
10279TIP3    H230799   1.501   6.320   5.901
10280TIP3   OH230800   1.586   6.226   6.027
10280TIP3    H130801   1.520   6.182   6.084
10280TIP3    H230802   1.650   6.262   6.091
10281TIP3   OH230803   1.632   6.619   6.469
10281TIP3    H130804   1.683   6.548   6.425
10281TIP3    H230805   1.638   6.691   6.403
10282TIP3   OH230806   1.523   6.134   5.671
10282TIP3    H130807   1.451   6.135   5.603
10282TIP3    H230808   1.493   6.209   5.726
10283TIP3   OH230809   1.395   5.805   5.623
10283TIP3    H130810   1.345   5.841   5.549
10283TIP3    H230811   1.372   5.710   5.616
10284TIP3   OH230812   1.403   6.082   6.172
10284TIP3    H130813   1.407   5.985   6.164
10284TIP3    H230814   1.386   6.094   6.267
10285TIP3   OH230815   1.919   6.333   7.066
10285TIP3    H130816   1.823   6.319   7.076
10285TIP3    H230817   1.952   6.241   7.076
10286TIP3   OH230818   1.337   5.539   5.607
10286TIP3    H130819   1.409   5.508   5.665
10286TIP3    H230820   1.262   5.482   5.629
10287TIP3   OH230821   1.394   5.798   6.063
10287TIP3    H130822   1.435   5.709   6.078
10287TIP3    H230823   1.453   5.831   5.992
10288TIP3   OH230824   1.555   5.967   6.562
10288TIP3    H130825   1.640   5.993   6.520
10288TIP3    H230826   1.569   6.007   6.650
10289TIP3   OH230827   1.628   6.117   6.785
10289TIP3    H130828   1.557   6.152   6.843
10289TIP3    H230829   1.663   6.200   6.746
10290TIP3   OH230830   2.084   5.710   7.345
10290TIP3    H130831   2.142   5.644   7.301
10290TIP3    H230832   2.050   5.760   7.267
10291TIP3   OH230833   1.504   5.550   6.102
10291TIP3    H130834   1.550   5.533   6.187
10291TIP3    H230835   1.443   5.473   6.100
10292TIP3   OH230836   1.952   5.842   7.152
10292TIP3    H130837   1.869   5.890   7.174
10292TIP3    H230838   1.914   5.774   7.092
10293TIP3   OH230839   1.582   5.481   5.738
10293TIP3    H130840   1.620   5.411   5.682
10293TIP3    H230841   1.650   5.551   5.734
10294TIP3   OH230842   1.163   6.980   6.003
10294TIP3    H130843   1.213   6.969   5.920
10294TIP3    H230844   1.160   7.077   6.009
10295TIP3   OH230845   1.846   5.606   7.033
10295TIP3    H130846   1.756   5.597   6.997
10295TIP3    H230847   1.879   5.514   7.022
10296TIP3   OH230848   1.090   5.531   6.672
10296TIP3    H130849   1.031   5.462   6.710
10296TIP3    H230850   1.149   5.478   6.616
10297TIP3   OH230851   1.575   5.408   6.558
10297TIP3    H130852   1.609   5.458   6.481
10297TIP3    H230853   1.478   5.419   6.547
10298TIP3   OH230854   1.668   5.503   6.319
10298TIP3    H130855   1.742   5.452   6.281
10298TIP3    H230856   1.701   5.595   6.305
10299TIP3   OH230857   0.755   5.253   6.541
10299TIP3    H130858   0.814   5.303   6.483
10299TIP3    H230859   0.732   5.320   6.606
10300TIP3   OH230860   1.297   5.408   6.523
10300TIP3    H130861   1.285   5.366   6.437
10300TIP3    H230862   1.284   5.332   6.585
10301TIP3   OH230863   1.328   5.334   6.094
10301TIP3    H130864   1.247   5.385   6.115
10301TIP3    H230865   1.306   5.248   6.138
10302TIP3   OH230866   0.707   5.431   6.163
10302TIP3    H130867   0.737   5.371   6.232
10302TIP3    H230868   0.763   5.510   6.182
10303TIP3   OH230869   1.310   6.977   5.759
10303TIP3    H130870   1.298   6.879   5.751
10303TIP3    H230871   1.252   7.009   5.687
10304TIP3   OH230872   1.582   5.586   7.437
10304TIP3    H130873   1.582   5.552   7.530
10304TIP3    H230874   1.675   5.568   7.410
10305TIP3   OH230875   2.788   6.500   5.721
10305TIP3    H130876   2.757   6.590   5.699
10305TIP3    H230877   2.713   6.448   5.689
10306TIP3   OH230878   2.790   6.499   6.108
10306TIP3    H130879   2.823   6.472   6.195
10306TIP3    H230880   2.748   6.418   6.076
10307TIP3   OH230881   2.081   6.389   6.468
10307TIP3    H130882   2.109   6.320   6.531
10307TIP3    H230883   2.164   6.438   6.457
10308TIP3   OH230884   3.032   6.802   5.787
10308TIP3    H130885   3.013   6.731   5.850
10308TIP3    H230886   3.062   6.874   5.845
10309TIP3   OH230887   2.056   6.800   6.200
10309TIP3    H130888   2.047   6.702   6.199
10309TIP3    H230889   2.153   6.805   6.186
10310TIP3   OH230890   1.765   6.005   5.975
10310TIP3    H130891   1.716   6.086   5.994
10310TIP3    H230892   1.694   5.951   5.934
10311TIP3   OH230893   1.821   6.293   6.158
10311TIP3    H130894   1.871   6.214   6.190
10311TIP3    H230895   1.879   6.326   6.088
10312TIP3   OH230896   2.694   7.275   5.805
10312TIP3    H130897   2.732   7.197   5.760
10312TIP3    H230898   2.648   7.237   5.881
10313TIP3   OH230899   2.587   6.725   6.156
10313TIP3    H130900   2.626   6.648   6.111
10313TIP3    H230901   2.670   6.771   6.180
10314TIP3   OH230902   3.598   6.043   6.151
10314TIP3    H130903   3.631   6.126   6.191
10314TIP3    H230904   3.625   6.055   6.058
10315TIP3   OH230905   2.998   6.224   6.183
10315TIP3    H130906   3.041   6.139   6.204
10315TIP3    H230907   2.965   6.207   6.092
10316TIP3   OH230908   2.339   5.884   6.148
10316TIP3    H130909   2.318   5.957   6.086
10316TIP3    H230910   2.291   5.811   6.105
10317TIP3   OH230911   3.032   5.978   5.769
10317TIP3    H130912   3.101   5.962   5.836
10317TIP3    H230913   3.087   6.011   5.695
10318TIP3   OH230914   1.969   6.085   6.257
10318TIP3    H130915   2.052   6.067   6.305
10318TIP3    H230916   1.983   6.030   6.177
10319TIP3   OH230917   2.408   6.283   6.055
10319TIP3    H130918   2.503   6.259   6.066
10319TIP3    H230919   2.370   6.199   6.021
10320TIP3   OH230920   3.674   6.253   6.320
10320TIP3    H130921   3.589   6.297   6.301
10320TIP3    H230922   3.688   6.280   6.412
10321TIP3   OH230923   2.332   5.869   6.585
10321TIP3    H130924   2.273   5.905   6.516
10321TIP3    H230925   2.278   5.887   6.665
10322TIP3   OH230926   2.677   6.720   5.589
10322TIP3    H130927   2.633   6.703   5.505
10322TIP3    H230928   2.632   6.802   5.618
10323TIP3   OH230929   2.441   6.644   6.375
10323TIP3    H130930   2.383   6.713   6.413
10323TIP3    H230931   2.481   6.691   6.299
10324TIP3   OH230932   3.236   5.983   5.946
10324TIP3    H130933   3.229   5.932   6.028
10324TIP3    H230934   3.289   6.059   5.974
10325TIP3   OH230935   2.205   5.982   6.367
10325TIP3    H130936   2.267   6.055   6.392
10325TIP3    H230937   2.254   5.943   6.292
10326TIP3   OH230938   2.266   6.834   6.483
10326TIP3    H130939   2.250   6.925   6.450
10326TIP3    H230940   2.176   6.807   6.509
10327TIP3   OH230941   1.659   6.529   5.712
10327TIP3    H130942   1.616   6.558   5.629
10327TIP3    H230943   1.690   6.614   5.749
10328TIP3   OH230944   3.103   7.048   5.954
10328TIP3    H130945   3.014   7.037   5.996
10328TIP3    H230946   3.089   7.132   5.906
10329TIP3   OH230947   3.393   5.945   6.318
10329TIP3    H130948   3.306   5.969   6.283
10329TIP3    H230949   3.454   5.976   6.248
10330TIP3   OH230950   2.685   5.584   6.300
10330TIP3    H130951   2.669   5.489   6.317
10330TIP3    H230952   2.608   5.623   6.347
10331TIP3   OH230953   2.801   7.088   5.625
10331TIP3    H130954   2.851   7.006   5.607
10331TIP3    H230955   2.863   7.154   5.587
10332TIP3   OH230956   2.946   6.874   5.536
10332TIP3    H130957   2.904   6.795   5.500
10332TIP3    H230958   2.984   6.840   5.620
10333TIP3   OH230959   3.328   6.956   6.296
10333TIP3    H130960   3.313   6.876   6.240
10333TIP3    H230961   3.309   7.028   6.232
10334TIP3   OH230962   2.618   6.350   5.557
10334TIP3    H130963   2.538   6.403   5.536
10334TIP3    H230964   2.663   6.347   5.470
10335TIP3   OH230965   2.575   6.138   5.266
10335TIP3    H130966   2.641   6.189   5.315
10335TIP3    H230967   2.634   6.074   5.220
10336TIP3   OH230968   3.520   6.597   6.145
10336TIP3    H130969   3.435   6.646   6.147
10336TIP3    H230970   3.550   6.618   6.054
10337TIP3   OH230971   2.966   6.434   5.524
10337TIP3    H130972   2.912   6.457   5.603
10337TIP3    H230973   3.051   6.409   5.567
10338TIP3   OH230974   3.199   6.470   6.441
10338TIP3    H130975   3.194   6.554   6.492
10338TIP3    H230976   3.112   6.472   6.396
10339TIP3   OH230977   2.198   6.429   5.944
10339TIP3    H130978   2.157   6.371   5.876
10339TIP3    H230979   2.273   6.375   5.975
10340TIP3   OH230980   2.312   6.809   6.105
10340TIP3    H130981   2.303   6.805   6.009
10340TIP3    H230982   2.407   6.792   6.118
10341TIP3   OH230983   2.331   6.402   6.300
10341TIP3    H130984   2.364   6.376   6.211
10341TIP3    H230985   2.376   6.488   6.314
10342TIP3   OH230986   2.865   7.041   6.080
10342TIP3    H130987   2.844   7.116   6.138
10342TIP3    H230988   2.845   6.964   6.137
10343TIP3   OH230989   2.483   6.960   6.622
10343TIP3    H130990   2.437   7.031   6.671
10343TIP3    H230991   2.410   6.915   6.577
10344TIP3   OH230992   2.803   6.292   5.352
10344TIP3    H130993   2.863   6.352   5.402
10344TIP3    H230994   2.830   6.312   5.259
10345TIP3   OH230995   2.224   6.509   6.730
10345TIP3    H130996   2.229   6.595   6.774
10345TIP3    H230997   2.128   6.489   6.739
10346TIP3   OH230998   2.552   6.966   5.626
10346TIP3    H130999   2.633   7.020   5.637
10346TIP3    H231000   2.490   7.028   5.587
10347TIP3   OH231001   3.320   5.530   5.401
10347TIP3    H131002   3.239   5.551   5.451
10347TIP3    H231003   3.335   5.613   5.352
10348TIP3   OH231004   2.065   6.273   5.746
10348TIP3    H131005   1.995   6.316   5.692
10348TIP3    H231006   2.028   6.185   5.759
10349TIP3   OH231007   3.122   6.896   4.950
10349TIP3    H131008   3.131   6.993   4.935
10349TIP3    H231009   3.214   6.866   4.938
10350TIP3   OH231010   1.859   6.657   6.635
10350TIP3    H131011   1.781   6.629   6.584
10350TIP3    H231012   1.882   6.577   6.685
10351TIP3   OH231013   1.713   6.848   6.309
10351TIP3    H131014   1.802   6.838   6.270
10351TIP3    H231015   1.705   6.943   6.325
10352TIP3   OH231016   3.563   7.299   6.344
10352TIP3    H131017   3.571   7.202   6.351
10352TIP3    H231018   3.472   7.310   6.377
10353TIP3   OH231019   2.683   7.078   6.479
10353TIP3    H131020   2.690   7.165   6.523
10353TIP3    H231021   2.605   7.040   6.526
10354TIP3   OH231022   2.434   7.209   5.430
10354TIP3    H131023   2.383   7.196   5.348
10354TIP3    H231024   2.403   7.296   5.461
10355TIP3   OH231025   1.869   7.061   5.815
10355TIP3    H131026   1.928   7.046   5.892
10355TIP3    H231027   1.816   6.979   5.815
10356TIP3   OH231028   2.631   7.118   5.068
10356TIP3    H131029   2.690   7.048   5.033
10356TIP3    H231030   2.666   7.128   5.160
10357TIP3   OH231031   2.684   7.164   5.338
10357TIP3    H131032   2.595   7.174   5.378
10357TIP3    H231033   2.732   7.123   5.412
10358TIP3   OH231034   3.450   6.430   6.618
10358TIP3    H131035   3.367   6.439   6.569
10358TIP3    H231036   3.468   6.335   6.608
10359TIP3   OH231037   2.029   6.863   6.678
10359TIP3    H131038   2.097   6.813   6.730
10359TIP3    H231039   1.965   6.788   6.661
10360TIP3   OH231040   2.449   5.662   6.431
10360TIP3    H131041   2.361   5.631   6.400
10360TIP3    H231042   2.421   5.743   6.479
10361TIP3   OH231043   2.984   5.778   6.623
10361TIP3    H131044   3.053   5.748   6.686
10361TIP3    H231045   2.901   5.757   6.671
10362TIP3   OH231046   3.220   6.207   6.542
10362TIP3    H131047   3.168   6.204   6.626
10362TIP3    H231048   3.195   6.294   6.505
10363TIP3   OH231049   2.881   6.334   5.097
10363TIP3    H131050   2.846   6.311   5.008
10363TIP3    H231051   2.966   6.377   5.072
10364TIP3   OH231052   2.593   5.711   5.401
10364TIP3    H131053   2.558   5.706   5.492
10364TIP3    H231054   2.554   5.629   5.364
10365TIP3   OH231055   2.382   6.179   6.447
10365TIP3    H131056   2.330   6.200   6.528
10365TIP3    H231057   2.365   6.261   6.394
10366TIP3   OH231058   2.264   6.066   5.961
10366TIP3    H131059   2.171   6.039   5.980
10366TIP3    H231060   2.276   6.024   5.873
10367TIP3   OH231061   2.756   6.150   5.691
10367TIP3    H131062   2.705   6.221   5.646
10367TIP3    H231063   2.811   6.115   5.618
10368TIP3   OH231064   2.930   6.423   6.771
10368TIP3    H131065   2.908   6.352   6.835
10368TIP3    H231066   3.022   6.443   6.796
10369TIP3   OH231067   2.911   6.177   5.926
10369TIP3    H131068   2.848   6.203   5.856
10369TIP3    H231069   2.948   6.097   5.882
10370TIP3   OH231070   2.199   6.205   6.653
10370TIP3    H131071   2.225   6.268   6.721
10370TIP3    H231072   2.186   6.123   6.705
10371TIP3   OH231073   2.249   5.686   5.365
10371TIP3    H131074   2.240   5.684   5.462
10371TIP3    H231075   2.172   5.739   5.340
10372TIP3   OH231076   1.793   5.727   6.237
10372TIP3    H131077   1.869   5.760   6.290
10372TIP3    H231078   1.833   5.697   6.155
10373TIP3   OH231079   1.759   5.708   5.755
10373TIP3    H131080   1.806   5.745   5.677
10373TIP3    H231081   1.698   5.782   5.773
10374TIP3   OH231082   2.924   6.422   6.349
10374TIP3    H131083   2.956   6.351   6.289
10374TIP3    H231084   2.892   6.368   6.424
10375TIP3   OH231085   2.596   5.888   6.021
10375TIP3    H131086   2.515   5.886   6.075
10375TIP3    H231087   2.666   5.879   6.089
10376TIP3   OH231088   2.026   5.944   6.029
10376TIP3    H131089   1.932   5.952   6.000
10376TIP3    H231090   2.048   5.851   6.006
10377TIP3   OH231091   2.291   5.938   5.721
10377TIP3    H131092   2.385   5.952   5.698
10377TIP3    H231093   2.244   5.959   5.637
10378TIP3   OH231094   3.084   5.964   6.227
10378TIP3    H131095   3.050   5.976   6.318
10378TIP3    H231096   3.018   5.902   6.190
10379TIP3   OH231097   2.141   5.974   5.496
10379TIP3    H131098   2.069   5.928   5.449
10379TIP3    H231099   2.192   6.010   5.421
10380TIP3   OH231100   3.284   7.631   6.432
10380TIP3    H131101   3.221   7.644   6.359
10380TIP3    H231102   3.334   7.715   6.425
10381TIP3   OH231103   2.219   6.788   6.865
10381TIP3    H131104   2.288   6.798   6.931
10381TIP3    H231105   2.148   6.751   6.922
10382TIP3   OH231106   2.674   6.217   6.120
10382TIP3    H131107   2.746   6.177   6.070
10382TIP3    H231108   2.678   6.171   6.206
10383TIP3   OH231109   2.195   5.701   6.002
10383TIP3    H131110   2.157   5.625   6.051
10383TIP3    H231111   2.240   5.657   5.930
10384TIP3   OH231112   2.650   6.115   6.408
10384TIP3    H131113   2.560   6.150   6.422
10384TIP3    H231114   2.707   6.177   6.458
10385TIP3   OH231115   2.387   6.502   5.503
10385TIP3    H131116   2.316   6.436   5.492
10385TIP3    H231117   2.367   6.536   5.594
10386TIP3   OH231118   3.285   6.740   6.131
10386TIP3    H131119   3.308   6.790   6.050
10386TIP3    H231120   3.202   6.695   6.105
10387TIP3   OH231121   2.844   5.813   5.368
10387TIP3    H131122   2.748   5.793   5.379
10387TIP3    H231123   2.850   5.907   5.396
10388TIP3   OH231124   2.801   6.824   6.501
10388TIP3    H131125   2.815   6.799   6.594
10388TIP3    H231126   2.749   6.906   6.509
10389TIP3   OH231127   2.913   6.063   5.473
10389TIP3    H131128   3.009   6.068   5.489
10389TIP3    H231129   2.895   6.144   5.422
10390TIP3   OH231130   2.078   6.525   6.177
10390TIP3    H131131   2.118   6.499   6.092
10390TIP3    H231132   2.122   6.465   6.239
10391TIP3   OH231133   2.532   6.651   5.326
10391TIP3    H131134   2.483   6.737   5.329
10391TIP3    H231135   2.478   6.597   5.387
10392TIP3   OH231136   1.959   6.437   6.789
10392TIP3    H131137   1.934   6.443   6.884
10392TIP3    H231138   1.887   6.381   6.754
10393TIP3   OH231139   2.688   6.552   6.815
10393TIP3    H131140   2.628   6.493   6.767
10393TIP3    H231141   2.775   6.519   6.786
10394TIP3   OH231142   2.951   7.099   6.388
10394TIP3    H131143   2.857   7.081   6.405
10394TIP3    H231144   2.979   7.136   6.475
10395TIP3   OH231145   3.353   6.156   5.306
10395TIP3    H131146   3.292   6.112   5.243
10395TIP3    H231147   3.351   6.246   5.267
10396TIP3   OH231148   3.578   7.023   6.380
10396TIP3    H131149   3.481   7.007   6.375
10396TIP3    H231150   3.605   6.985   6.292
10397TIP3   OH231151   3.060   6.972   5.216
10397TIP3    H131152   3.030   6.904   5.278
10397TIP3    H231153   3.071   6.924   5.132
10398TIP3   OH231154   3.054   6.602   6.048
10398TIP3    H131155   2.960   6.577   6.062
10398TIP3    H231156   3.087   6.521   6.004
10399TIP3   OH231157   2.184   6.831   5.804
10399TIP3    H131158   2.180   6.912   5.750
10399TIP3    H231159   2.091   6.812   5.817
10400TIP3   OH231160   1.746   6.132   5.511
10400TIP3    H131161   1.790   6.217   5.533
10400TIP3    H231162   1.669   6.135   5.571
10401TIP3   OH231163   2.313   6.592   5.746
10401TIP3    H131164   2.281   6.682   5.767
10401TIP3    H231165   2.281   6.541   5.822
10402TIP3   OH231166   2.461   7.169   6.299
10402TIP3    H131167   2.474   7.226   6.222
10402TIP3    H231168   2.551   7.141   6.321
10403TIP3   OH231169   2.099   7.069   5.656
10403TIP3    H131170   2.012   7.079   5.700
10403TIP3    H231171   2.132   7.162   5.662
10404TIP3   OH231172   2.839   6.807   6.233
10404TIP3    H131173   2.828   6.805   6.331
10404TIP3    H231174   2.914   6.747   6.222
10405TIP3   OH231175   2.816   6.704   5.116
10405TIP3    H131176   2.869   6.677   5.194
10405TIP3    H231177   2.728   6.672   5.143
10406TIP3   OH231178   3.085   7.344   6.287
10406TIP3    H131179   3.010   7.280   6.291
10406TIP3    H231180   3.060   7.398   6.209
10407TIP3   OH231181   3.152   7.172   4.934
10407TIP3    H131182   3.188   7.245   4.881
10407TIP3    H231183   3.072   7.216   4.969
10408TIP3   OH231184   2.165   5.952   6.795
10408TIP3    H131185   2.067   5.956   6.805
10408TIP3    H231186   2.190   5.891   6.866
10409TIP3   OH231187   2.976   6.633   5.329
10409TIP3    H131188   2.965   6.568   5.402
10409TIP3    H231189   3.074   6.629   5.318
10410TIP3   OH231190   1.949   7.042   6.440
10410TIP3    H131191   1.925   6.953   6.470
10410TIP3    H231192   1.873   7.099   6.463
10411TIP3   OH231193   2.177   6.680   5.116
10411TIP3    H131194   2.191   6.587   5.090
10411TIP3    H231195   2.158   6.671   5.211
10412TIP3   OH231196   2.122   6.686   5.387
10412TIP3    H131197   2.195   6.658   5.444
10412TIP3    H231198   2.127   6.784   5.396
10413TIP3   OH231199   1.856   6.377   5.592
10413TIP3    H131200   1.789   6.422   5.648
10413TIP3    H231201   1.869   6.446   5.523
10414TIP3   OH231202   3.009   6.017   6.487
10414TIP3    H131203   3.093   6.052   6.521
10414TIP3    H231204   2.998   5.935   6.540
10415TIP3   OH231205   2.891   5.763   5.653
10415TIP3    H131206   2.879   5.784   5.558
10415TIP3    H231207   2.930   5.845   5.688
10416TIP3   OH231208   2.390   6.881   5.334
10416TIP3    H131209   2.304   6.905   5.373
10416TIP3    H231210   2.405   6.959   5.278
10417TIP3   OH231211   2.575   5.948   5.752
10417TIP3    H131212   2.640   6.020   5.736
10417TIP3    H231213   2.582   5.938   5.849
10418TIP3   OH231214   2.848   6.262   6.555
10418TIP3    H131215   2.874   6.313   6.634
10418TIP3    H231216   2.900   6.180   6.564
10419TIP3   OH231217   2.719   5.667   5.851
10419TIP3    H131218   2.714   5.744   5.909
10419TIP3    H231219   2.782   5.700   5.782
10420TIP3   OH231220   2.137   6.959   5.406
10420TIP3    H131221   2.105   7.029   5.346
10420TIP3    H231222   2.120   7.000   5.494
10421TIP3   OH231223   2.234   5.673   5.641
10421TIP3    H131224   2.232   5.762   5.680
10421TIP3    H231225   2.330   5.654   5.649
10422TIP3   OH231226   3.487   6.165   6.540
10422TIP3    H131227   3.389   6.164   6.547
10422TIP3    H231228   3.498   6.115   6.458
10423TIP3   OH231229   3.138   6.359   5.927
10423TIP3    H131230   3.062   6.299   5.938
10423TIP3    H231231   3.209   6.311   5.975
10424TIP3   OH231232   1.853   6.583   5.395
10424TIP3    H131233   1.923   6.650   5.405
10424TIP3    H231234   1.897   6.525   5.329
10425TIP3   OH231235   1.794   5.862   5.530
10425TIP3    H131236   1.795   5.960   5.529
10425TIP3    H231237   1.712   5.842   5.484
10426TIP3   OH231238   3.108   7.320   5.877
10426TIP3    H131239   3.065   7.369   5.803
10426TIP3    H231240   3.202   7.338   5.855
10427TIP3   OH231241   2.184   5.583   6.401
10427TIP3    H131242   2.153   5.548   6.314
10427TIP3    H231243   2.173   5.504   6.458
10428TIP3   OH231244   1.718   6.804   5.781
10428TIP3    H131245   1.646   6.828   5.841
10428TIP3    H231246   1.687   6.845   5.697
10429TIP3   OH231247   2.341   6.881   5.024
10429TIP3    H131248   2.285   6.810   5.064
10429TIP3    H231249   2.417   6.829   4.995
10430TIP3   OH231250   3.020   7.207   6.635
10430TIP3    H131251   2.984   7.141   6.699
10430TIP3    H231252   3.044   7.276   6.697
10431TIP3   OH231253   2.777   6.921   4.941
10431TIP3    H131254   2.816   6.855   5.002
10431TIP3    H231255   2.835   6.915   4.863
10432TIP3   OH231256   1.989   6.398   5.251
10432TIP3    H131257   2.044   6.367   5.324
10432TIP3    H231258   2.056   6.403   5.179
10433TIP3   OH231259   2.626   6.825   6.842
10433TIP3    H131260   2.582   6.856   6.761
10433TIP3    H231261   2.646   6.732   6.823
10434TIP3   OH231262   2.503   6.600   5.057
10434TIP3    H131263   2.504   6.611   5.154
10434TIP3    H231264   2.503   6.502   5.050
10435TIP3   OH231265   3.113   6.843   6.439
10435TIP3    H131266   3.183   6.892   6.392
10435TIP3    H231267   3.036   6.899   6.423
10436TIP3   OH231268   2.174   6.423   7.083
10436TIP3    H131269   2.228   6.388   7.011
10436TIP3    H231270   2.084   6.386   7.066
10437TIP3   OH231271   2.193   6.306   5.469
10437TIP3    H131272   2.166   6.266   5.553
10437TIP3    H231273   2.231   6.229   5.421
10438TIP3   OH231274   2.463   6.366   6.697
10438TIP3    H131275   2.385   6.426   6.695
10438TIP3    H231276   2.517   6.401   6.622
10439TIP3   OH231277   2.297   6.101   5.310
10439TIP3    H131278   2.273   6.108   5.215
10439TIP3    H231279   2.395   6.101   5.303
10440TIP3   OH231280   2.984   6.772   6.817
10440TIP3    H131281   3.064   6.730   6.783
10440TIP3    H231282   2.969   6.724   6.900
10441TIP3   OH231283   3.114   6.428   4.978
10441TIP3    H131284   3.096   6.384   4.892
10441TIP3    H231285   3.080   6.518   4.957
10442TIP3   OH231286   2.593   6.157   6.816
10442TIP3    H131287   2.592   6.078   6.759
10442TIP3    H231288   2.547   6.223   6.760
10443TIP3   OH231289   2.591   5.944   6.632
10443TIP3    H131290   2.619   5.985   6.548
10443TIP3    H231291   2.497   5.922   6.613
10444TIP3   OH231292   2.614   6.478   6.508
10444TIP3    H131293   2.699   6.490   6.465
10444TIP3    H231294   2.557   6.543   6.460
10445TIP3   OH231295   3.198   6.443   6.884
10445TIP3    H131296   3.244   6.358   6.892
10445TIP3    H231297   3.267   6.499   6.846
10446TIP3   OH231298   3.242   6.699   6.626
10446TIP3    H131299   3.182   6.752   6.568
10446TIP3    H231300   3.329   6.720   6.584
10447TIP3   OH231301   2.470   6.257   7.043
10447TIP3    H131302   2.411   6.180   7.056
10447TIP3    H231303   2.510   6.236   6.956
10448TIP3   OH231304   2.722   5.707   6.705
10448TIP3    H131305   2.672   5.787   6.679
10448TIP3    H231306   2.655   5.637   6.691
10449TIP3   OH231307   2.849   6.207   6.918
10449TIP3    H131308   2.832   6.194   7.013
10449TIP3    H231309   2.761   6.184   6.881
10450TIP3   OH231310   3.087   6.162   6.773
10450TIP3    H131311   3.013   6.163   6.836
10450TIP3    H231312   3.162   6.131   6.829
10451TIP3   OH231313   3.317   6.103   6.921
10451TIP3    H131314   3.330   6.007   6.936
10451TIP3    H231315   3.314   6.138   7.012
10452TIP3   OH231316   2.314   6.033   7.092
10452TIP3    H131317   2.314   5.939   7.067
10452TIP3    H231318   2.349   6.029   7.183
10453TIP3   OH231319   2.813   5.713   6.963
10453TIP3    H131320   2.881   5.643   6.952
10453TIP3    H231321   2.774   5.713   6.873
10454TIP3   OH231322   2.882   5.929   7.121
10454TIP3    H131323   2.862   5.859   7.055
10454TIP3    H231324   2.804   5.988   7.114
10455TIP3   OH231325   2.107   7.165   5.218
10455TIP3    H131326   2.201   7.151   5.196
10455TIP3    H231327   2.077   7.213   5.139
10456TIP3   OH231328   1.583   6.543   5.431
10456TIP3    H131329   1.679   6.563   5.417
10456TIP3    H231330   1.577   6.454   5.391
10457TIP3   OH231331   1.495   7.158   5.851
10457TIP3    H131332   1.443   7.091   5.800
10457TIP3    H231333   1.545   7.098   5.911
10458TIP3   OH231334   1.635   7.002   6.029
10458TIP3    H131335   1.614   6.935   6.095
10458TIP3    H231336   1.702   7.057   6.075
10459TIP3   OH231337   3.363   7.409   5.837
10459TIP3    H131338   3.397   7.445   5.920
10459TIP3    H231339   3.429   7.439   5.773
10460TIP3   OH231340   3.390   7.424   6.125
10460TIP3    H131341   3.340   7.340   6.114
10460TIP3    H231342   3.472   7.389   6.162
10461TIP3   OH231343   3.443   7.104   6.678
10461TIP3    H131344   3.365   7.114   6.737
10461TIP3    H231345   3.484   7.191   6.683
10462TIP3   OH231346   3.254   6.614   5.309
10462TIP3    H131347   3.320   6.678   5.278
10462TIP3    H231348   3.298   6.577   5.388
10463TIP3   OH231349   3.381   6.483   5.514
10463TIP3    H131350   3.315   6.441   5.572
10463TIP3    H231351   3.447   6.517   5.577
10464TIP3   OH231352   3.439   6.877   5.945
10464TIP3    H131353   3.490   6.806   5.901
10464TIP3    H231354   3.433   6.945   5.875
10465TIP3   OH231355   3.263   7.178   6.138
10465TIP3    H131356   3.184   7.211   6.184
10465TIP3    H231357   3.222   7.130   6.063
10466TIP3   OH231358   3.318   6.391   5.158
10466TIP3    H131359   3.246   6.392   5.090
10466TIP3    H231360   3.289   6.466   5.214
10467TIP3   OH231361   3.189   6.063   5.110
10467TIP3    H131362   3.143   6.096   5.033
10467TIP3    H231363   3.167   5.967   5.105
10468TIP3   OH231364   3.193   6.341   5.658
10468TIP3    H131365   3.201   6.244   5.649
10468TIP3    H231366   3.179   6.352   5.754
10469TIP3   OH231367   1.814   6.417   6.407
10469TIP3    H131368   1.812   6.382   6.315
10469TIP3    H231369   1.912   6.418   6.423
10470TIP3   OH231370   3.488   6.766   6.517
10470TIP3    H131371   3.556   6.696   6.508
10470TIP3    H231372   3.509   6.825   6.443
10471TIP3   OH231373   3.668   6.566   6.531
10471TIP3    H131374   3.592   6.515   6.568
10471TIP3    H231375   3.741   6.502   6.547
10472TIP3   OH231376   3.133   5.797   5.093
10472TIP3    H131377   3.207   5.765   5.150
10472TIP3    H231378   3.060   5.737   5.116
10473TIP3   OH231379   3.192   6.056   5.550
10473TIP3    H131380   3.232   5.967   5.566
10473TIP3    H231381   3.250   6.088   5.479
10474TIP3   OH231382   3.350   6.228   6.048
10474TIP3    H131383   3.436   6.252   6.006
10474TIP3    H231384   3.366   6.263   6.137
10475TIP3   OH231385   3.424   6.374   6.279
10475TIP3    H131386   3.346   6.408   6.326
10475TIP3    H231387   3.456   6.455   6.233
10476TIP3   OH231388   2.050   6.096   7.095
10476TIP3    H131389   2.142   6.074   7.072
10476TIP3    H231390   2.018   6.009   7.124
10477TIP3   OH231391   3.870   5.965   6.834
10477TIP3    H131392   3.933   5.900   6.794
10477TIP3    H231393   3.843   6.017   6.755
10478TIP3   OH231394   3.299   5.807   5.590
10478TIP3    H131395   3.348   5.790   5.673
10478TIP3    H231396   3.238   5.730   5.589
10479TIP3   OH231397   2.000   5.792   6.411
10479TIP3    H131398   2.061   5.716   6.418
10479TIP3    H231399   2.063   5.865   6.401
10480TIP3   OH231400   1.801   6.063   6.483
10480TIP3    H131401   1.849   6.059   6.398
10480TIP3    H231402   1.832   6.147   6.519
10481TIP3   OH231403   3.741   6.102   6.635
10481TIP3    H131404   3.653   6.143   6.647
10481TIP3    H231405   3.715   6.026   6.579
10482TIP3   OH231406   3.377   5.739   5.223
10482TIP3    H131407   3.417   5.667   5.171
10482TIP3    H231408   3.446   5.807   5.222
10483TIP3   OH231409   1.787   5.569   5.985
10483TIP3    H131410   1.694   5.561   6.013
10483TIP3    H231411   1.780   5.627   5.907
10484TIP3   OH231412   2.950   7.273   5.492
10484TIP3    H131413   2.995   7.258   5.406
10484TIP3    H231414   3.009   7.337   5.533
10485TIP3   OH231415   2.008   5.650   6.800
10485TIP3    H131416   1.954   5.643   6.880
10485TIP3    H231417   1.942   5.688   6.737
10486TIP3   OH231418   2.245   7.106   6.452
10486TIP3    H131419   2.175   7.146   6.398
10486TIP3    H231420   2.325   7.128   6.398
10487TIP3   OH231421   2.718   7.330   6.583
10487TIP3    H131422   2.739   7.355   6.674
10487TIP3    H231423   2.769   7.396   6.532
10488TIP3   OH231424   2.849   7.513   6.421
10488TIP3    H131425   2.907   7.459   6.366
10488TIP3    H231426   2.909   7.568   6.474
10489TIP3   OH231427   3.642   5.862   6.521
10489TIP3    H131428   3.553   5.849   6.483
10489TIP3    H231429   3.679   5.771   6.512
10490TIP3   OH231430   2.110   7.300   6.273
10490TIP3    H131431   2.037   7.275   6.215
10490TIP3    H231432   2.175   7.327   6.203
10491TIP3   OH231433   2.565   7.365   6.087
10491TIP3    H131434   2.474   7.360   6.048
10491TIP3    H231435   2.561   7.457   6.120
10492TIP3   OH231436   2.828   7.323   6.163
10492TIP3    H131437   2.733   7.330   6.138
10492TIP3    H231438   2.868   7.380   6.096
10493TIP3   OH231439   3.043   7.508   6.065
10493TIP3    H131440   3.022   7.587   6.012
10493TIP3    H231441   3.067   7.442   5.995
10494TIP3   OH231442   1.844   7.140   6.156
10494TIP3    H131443   1.874   7.116   6.245
10494TIP3    H231444   1.914   7.098   6.101
10495TIP3   OH231445   2.039   7.012   6.025
10495TIP3    H131446   2.050   6.934   6.084
10495TIP3    H231447   2.131   7.043   6.015
10496TIP3   OH231448   2.846   5.780   6.139
10496TIP3    H131449   2.805   5.708   6.190
10496TIP3    H231450   2.921   5.735   6.095
10497TIP3   OH231451   3.366   5.666   6.045
10497TIP3    H131452   3.403   5.714   5.968
10497TIP3    H231453   3.270   5.681   6.033
10498TIP3   OH231454   3.463   5.761   5.807
10498TIP3    H131455   3.537   5.708   5.770
10498TIP3    H231456   3.498   5.852   5.792
10499TIP3   OH231457   2.095   5.489   6.153
10499TIP3    H131458   2.002   5.457   6.157
10499TIP3    H231459   2.142   5.403   6.149
10500TIP3   OH231460   1.885   5.362   5.805
10500TIP3    H131461   1.913   5.418   5.731
10500TIP3    H231462   1.857   5.428   5.872
10501TIP3   OH231463   2.542   5.521   6.036
10501TIP3    H131464   2.597   5.567   5.972
10501TIP3    H231465   2.570   5.561   6.120
10502TIP3   OH231466   3.081   5.669   6.017
10502TIP3    H131467   3.088   5.625   5.931
10502TIP3    H231468   3.071   5.591   6.077
10503TIP3   OH231469   3.116   5.594   5.582
10503TIP3    H131470   3.029   5.635   5.599
10503TIP3    H231471   3.104   5.507   5.627
10504TIP3   OH231472   1.600   6.933   5.578
10504TIP3    H131473   1.513   6.901   5.548
10504TIP3    H231474   1.591   7.028   5.556
10505TIP3   OH231475   2.002   5.519   5.564
10505TIP3    H131476   2.050   5.454   5.507
10505TIP3    H231477   2.076   5.571   5.599
10506TIP3   OH231478   2.511   5.697   5.664
10506TIP3    H131479   2.570   5.649   5.723
10506TIP3    H231480   2.534   5.789   5.690
10507TIP3   OH231481   2.371   7.116   5.161
10507TIP3    H131482   2.460   7.138   5.126
10507TIP3    H231483   2.350   7.041   5.102
10508TIP3   OH231484   3.092   7.239   5.258
10508TIP3    H131485   3.086   7.141   5.248
10508TIP3    H231486   3.045   7.268   5.177
10509TIP3   OH231487   2.303   5.760   7.047
10509TIP3    H131488   2.267   5.690   7.104
10509TIP3    H231489   2.397   5.760   7.076
10510TIP3   OH231490   2.552   5.771   7.166
10510TIP3    H131491   2.637   5.747   7.123
10510TIP3    H231492   2.543   5.700   7.233
10511TIP3   OH231493   1.675   6.957   5.217
10511TIP3    H131494   1.672   6.976   5.312
10511TIP3    H231495   1.763   6.914   5.207
10512TIP3   OH231496   3.381   5.832   6.950
10512TIP3    H131497   3.400   5.800   7.041
10512TIP3    H231498   3.470   5.828   6.909
10513TIP3   OH231499   3.315   7.371   6.431
10513TIP3    H131500   3.248   7.311   6.394
10513TIP3    H231501   3.269   7.456   6.405
10514TIP3   OH231502   4.584   6.756   5.204
10514TIP3    H131503   4.554   6.848   5.190
10514TIP3    H231504   4.503   6.707   5.184
10515TIP3   OH231505   4.520   6.758   5.602
10515TIP3    H131506   4.582   6.753   5.677
10515TIP3    H231507   4.523   6.667   5.570
10516TIP3   OH231508   3.879   6.650   5.962
10516TIP3    H131509   3.908   6.580   6.024
10516TIP3    H231510   3.964   6.690   5.939
10517TIP3   OH231511   4.831   7.063   5.272
10517TIP3    H131512   4.815   6.996   5.339
10517TIP3    H231513   4.869   7.135   5.326
10518TIP3   OH231514   3.855   7.060   5.681
10518TIP3    H131515   3.847   6.962   5.681
10518TIP3    H231516   3.952   7.069   5.672
10519TIP3   OH231517   3.560   6.260   5.461
10519TIP3    H131518   3.512   6.343   5.480
10519TIP3    H231519   3.489   6.208   5.421
10520TIP3   OH231520   3.617   6.548   5.643
10520TIP3    H131521   3.666   6.469   5.676
10520TIP3    H231522   3.679   6.583   5.578
10521TIP3   OH231523   4.482   7.519   5.295
10521TIP3    H131524   4.519   7.449   5.238
10521TIP3    H231525   4.480   7.475   5.381
10522TIP3   OH231526   4.379   6.987   5.646
10522TIP3    H131527   4.417   6.900   5.619
10522TIP3    H231528   4.464   7.034   5.661
10523TIP3   OH231529   5.372   6.306   5.607
10523TIP3    H131530   5.408   6.375   5.667
10523TIP3    H231531   5.438   6.306   5.534
10524TIP3   OH231532   4.803   6.490   5.668
10524TIP3    H131533   4.831   6.399   5.688
10524TIP3    H231534   4.771   6.479   5.576
10525TIP3   OH231535   4.133   6.141   5.636
10525TIP3    H131536   4.115   6.214   5.572
10525TIP3    H231537   4.085   6.068   5.592
10526TIP3   OH231538   4.827   6.236   5.256
10526TIP3    H131539   4.884   6.180   5.310
10526TIP3    H231540   4.887   6.269   5.187
10527TIP3   OH231541   3.766   6.342   5.743
10527TIP3    H131542   3.849   6.323   5.792
10527TIP3    H231543   3.781   6.287   5.664
10528TIP3   OH231544   4.203   6.539   5.544
10528TIP3    H131545   4.299   6.517   5.552
10528TIP3    H231546   4.167   6.455   5.509
10529TIP3   OH231547   5.436   6.490   5.792
10529TIP3    H131548   5.359   6.550   5.795
10529TIP3    H231549   5.492   6.527   5.864
10530TIP3   OH231550   4.129   6.125   6.070
10530TIP3    H131551   4.069   6.162   6.003
10530TIP3    H231552   4.077   6.141   6.152
10531TIP3   OH231553   4.473   6.979   5.074
10531TIP3    H131554   4.428   6.963   4.990
10531TIP3    H231555   4.426   7.059   5.106
10532TIP3   OH231556   4.235   6.899   5.863
10532TIP3    H131557   4.179   6.971   5.899
10532TIP3    H231558   4.283   6.946   5.790
10533TIP3   OH231559   3.999   6.239   5.854
10533TIP3    H131560   4.062   6.311   5.879
10533TIP3    H231561   4.049   6.199   5.779
10534TIP3   OH231562   4.063   7.099   5.968
10534TIP3    H131563   4.037   7.184   5.927
10534TIP3    H231564   3.983   7.081   6.021
10535TIP3   OH231565   3.454   6.786   5.199
10535TIP3    H131566   3.415   6.814   5.114
10535TIP3    H231567   3.488   6.870   5.234
10536TIP3   OH231568   4.880   7.306   5.429
10536TIP3    H131569   4.792   7.293   5.471
10536TIP3    H231570   4.871   7.397   5.393
10537TIP3   OH231571   5.190   6.193   5.799
10537TIP3    H131572   5.100   6.218   5.771
10537TIP3    H231573   5.244   6.226   5.725
10538TIP3   OH231574   4.480   5.838   5.787
10538TIP3    H131575   4.465   5.744   5.808
10538TIP3    H231576   4.404   5.879   5.833
10539TIP3   OH231577   4.590   7.347   5.105
10539TIP3    H131578   4.641   7.264   5.092
10539TIP3    H231579   4.654   7.411   5.068
10540TIP3   OH231580   4.738   7.133   5.024
10540TIP3    H131581   4.694   7.053   4.993
10540TIP3    H231582   4.778   7.102   5.109
10541TIP3   OH231583   5.085   7.174   5.767
10541TIP3    H131584   5.067   7.096   5.712
10541TIP3    H231585   5.084   7.247   5.702
10542TIP3   OH231586   4.410   6.603   5.040
10542TIP3    H131587   4.332   6.659   5.020
10542TIP3    H231588   4.457   6.603   4.955
10543TIP3   OH231589   4.371   6.394   4.752
10543TIP3    H131590   4.436   6.445   4.803
10543TIP3    H231591   4.431   6.331   4.706
10544TIP3   OH231592   5.319   6.821   5.604
10544TIP3    H131593   5.227   6.854   5.620
10544TIP3    H231594   5.341   6.873   5.523
10545TIP3   OH231595   4.759   6.690   5.011
10545TIP3    H131596   4.695   6.717   5.082
10545TIP3    H231597   4.831   6.657   5.066
10546TIP3   OH231598   3.995   6.686   5.431
10546TIP3    H131599   3.956   6.627   5.364
10546TIP3    H231600   4.071   6.633   5.464
10547TIP3   OH231601   4.124   7.097   5.579
10547TIP3    H131602   4.107   7.061   5.491
10547TIP3    H231603   4.213   7.062   5.599
10548TIP3   OH231604   4.120   6.661   5.785
10548TIP3    H131605   4.159   6.631   5.700
10548TIP3    H231606   4.172   6.743   5.803
10549TIP3   OH231607   4.642   7.293   5.561
10549TIP3    H131608   4.643   7.371   5.619
10549TIP3    H231609   4.641   7.219   5.624
10550TIP3   OH231610   4.267   7.221   6.110
10550TIP3    H131611   4.201   7.279   6.153
10550TIP3    H231612   4.207   7.162   6.059
10551TIP3   OH231613   4.599   6.549   4.837
10551TIP3    H131614   4.658   6.609   4.886
10551TIP3    H231615   4.626   6.568   4.744
10552TIP3   OH231616   4.025   6.771   6.216
10552TIP3    H131617   4.027   6.859   6.257
10552TIP3    H231618   3.931   6.748   6.222
10553TIP3   OH231619   4.345   7.225   5.115
10553TIP3    H131620   4.429   7.273   5.121
10553TIP3    H231621   4.287   7.290   5.072
10554TIP3   OH231622   4.054   7.386   6.190
10554TIP3    H131623   4.025   7.385   6.097
10554TIP3    H231624   3.973   7.361   6.239
10555TIP3   OH231625   5.117   5.786   4.888
10555TIP3    H131626   5.035   5.808   4.937
10555TIP3    H231627   5.132   5.868   4.837
10556TIP3   OH231628   3.861   6.530   5.233
10556TIP3    H131629   3.791   6.571   5.178
10556TIP3    H231630   3.827   6.441   5.247
10557TIP3   OH231631   4.918   7.153   4.437
10557TIP3    H131632   4.927   7.249   4.422
10557TIP3    H231633   5.011   7.123   4.424
10558TIP3   OH231634   3.642   6.916   6.140
10558TIP3    H131635   3.575   6.893   6.072
10558TIP3    H231636   3.679   6.828   6.164
10559TIP3   OH231637   3.496   7.108   5.770
10559TIP3    H131638   3.591   7.093   5.760
10559TIP3    H231639   3.495   7.183   5.831
10560TIP3   OH231640   4.464   7.340   5.967
10560TIP3    H131641   4.454   7.429   6.007
10560TIP3    H231642   4.394   7.291   6.015
10561TIP3   OH231643   4.228   7.467   4.919
10561TIP3    H131644   4.182   7.453   4.834
10561TIP3    H231645   4.197   7.556   4.946
10562TIP3   OH231646   3.664   7.320   5.305
10562TIP3    H131647   3.712   7.311   5.391
10562TIP3    H231648   3.618   7.235   5.301
10563TIP3   OH231649   4.426   7.374   4.556
10563TIP3    H131650   4.485   7.304   4.520
10563TIP3    H231651   4.462   7.384   4.647
10564TIP3   OH231652   4.479   7.422   4.826
10564TIP3    H131653   4.391   7.430   4.868
10564TIP3    H231654   4.531   7.384   4.899
10565TIP3   OH231655   5.246   6.686   6.111
10565TIP3    H131656   5.198   6.728   6.039
10565TIP3    H231657   5.256   6.593   6.081
10566TIP3   OH231658   3.841   7.104   6.136
10566TIP3    H131659   3.896   7.077   6.212
10566TIP3    H231660   3.770   7.036   6.136
10567TIP3   OH231661   4.243   5.920   5.914
10567TIP3    H131662   4.154   5.889   5.886
10567TIP3    H231663   4.218   6.000   5.964
10568TIP3   OH231664   4.781   6.034   6.112
10568TIP3    H131665   4.850   6.003   6.174
10568TIP3    H231666   4.698   6.014   6.158
10569TIP3   OH231667   5.014   6.460   6.026
10569TIP3    H131668   4.967   6.457   6.112
10569TIP3    H231669   4.976   6.538   5.984
10570TIP3   OH231670   4.677   6.591   4.583
10570TIP3    H131671   4.643   6.568   4.494
10570TIP3    H231672   4.762   6.634   4.559
10571TIP3   OH231673   4.388   5.967   4.887
10571TIP3    H131674   4.355   5.963   4.979
10571TIP3    H231675   4.349   5.885   4.852
10572TIP3   OH231676   4.174   6.437   5.932
10572TIP3    H131677   4.128   6.460   6.015
10572TIP3    H231678   4.159   6.518   5.879
10573TIP3   OH231679   4.059   6.322   5.447
10573TIP3    H131680   3.967   6.294   5.467
10573TIP3    H231681   4.072   6.280   5.359
10574TIP3   OH231682   4.549   6.405   5.172
10574TIP3    H131683   4.499   6.476   5.128
10574TIP3    H231684   4.605   6.371   5.099
10575TIP3   OH231685   4.724   6.684   6.261
10575TIP3    H131686   4.705   6.611   6.324
10575TIP3    H231687   4.818   6.700   6.280
10576TIP3   OH231688   4.690   6.424   5.422
10576TIP3    H131689   4.639   6.465   5.350
10576TIP3    H231690   4.732   6.352   5.370
10577TIP3   OH231691   3.994   6.464   6.144
10577TIP3    H131692   4.040   6.521   6.207
10577TIP3    H231693   3.985   6.381   6.194
10578TIP3   OH231694   4.045   5.942   4.851
10578TIP3    H131695   4.037   5.940   4.949
10578TIP3    H231696   3.967   5.996   4.827
10579TIP3   OH231697   3.590   5.984   5.724
10579TIP3    H131698   3.664   6.016   5.778
10579TIP3    H231699   3.632   5.952   5.642
10580TIP3   OH231700   3.554   5.964   5.241
10580TIP3    H131701   3.603   6.000   5.164
10580TIP3    H231702   3.495   6.039   5.260
10581TIP3   OH231703   4.663   6.680   5.825
10581TIP3    H131704   4.729   6.634   5.769
10581TIP3    H231705   4.668   6.626   5.906
10582TIP3   OH231706   4.390   6.137   5.506
10582TIP3    H131707   4.310   6.139   5.562
10582TIP3    H231708   4.460   6.145   5.572
10583TIP3   OH231709   3.822   6.200   5.516
10583TIP3    H131710   3.728   6.206   5.487
10583TIP3    H231711   3.846   6.107   5.494
10584TIP3   OH231712   4.087   6.193   5.207
10584TIP3    H131713   4.181   6.208   5.187
10584TIP3    H231714   4.041   6.215   5.122
10585TIP3   OH231715   4.873   6.223   5.710
10585TIP3    H131716   4.842   6.234   5.802
10585TIP3    H231717   4.807   6.161   5.675
10586TIP3   OH231718   3.936   6.231   4.982
10586TIP3    H131719   3.865   6.186   4.934
10586TIP3    H231720   3.988   6.268   4.908
10587TIP3   OH231721   4.007   7.024   6.352
10587TIP3    H131722   4.090   7.047   6.398
10587TIP3    H231723   3.947   7.012   6.427
10588TIP3   OH231724   4.467   6.461   5.599
10588TIP3    H131725   4.548   6.434   5.552
10588TIP3    H231726   4.483   6.430   5.689
10589TIP3   OH231727   3.988   5.958   5.489
10589TIP3    H131728   3.952   5.882   5.539
10589TIP3    H231729   4.040   5.914   5.421
10590TIP3   OH231730   4.447   6.367   5.902
10590TIP3    H131731   4.359   6.408   5.911
10590TIP3    H231732   4.506   6.431   5.948
10591TIP3   OH231733   4.181   6.759   4.988
10591TIP3    H131734   4.110   6.692   4.977
10591TIP3    H231735   4.161   6.793   5.079
10592TIP3   OH231736   4.640   6.068   4.857
10592TIP3    H131737   4.543   6.050   4.865
10592TIP3    H231738   4.647   6.162   4.882
10593TIP3   OH231739   4.560   7.069   5.992
10593TIP3    H131740   4.630   7.056   6.057
10593TIP3    H231741   4.545   7.165   5.993
10594TIP3   OH231742   4.708   6.319   4.956
10594TIP3    H131743   4.804   6.322   4.974
10594TIP3    H231744   4.692   6.400   4.905
10595TIP3   OH231745   3.876   6.783   5.663
10595TIP3    H131746   3.914   6.755   5.577
10595TIP3    H231747   3.928   6.728   5.724
10596TIP3   OH231748   4.328   6.907   4.812
10596TIP3    H131749   4.279   6.993   4.815
10596TIP3    H231750   4.274   6.852   4.873
10597TIP3   OH231751   3.755   6.707   6.282
10597TIP3    H131752   3.776   6.687   6.376
10597TIP3    H231753   3.691   6.636   6.261
10598TIP3   OH231754   4.485   6.816   6.301
10598TIP3    H131755   4.427   6.762   6.246
10598TIP3    H231756   4.573   6.782   6.272
10599TIP3   OH231757   4.733   7.356   5.868
10599TIP3    H131758   4.638   7.348   5.888
10599TIP3    H231759   4.768   7.389   5.953
10600TIP3   OH231760   5.148   6.416   4.791
10600TIP3    H131761   5.086   6.370   4.729
10600TIP3    H231762   5.144   6.505   4.749
10601TIP3   OH231763   5.300   7.246   5.918
10601TIP3    H131764   5.212   7.231   5.879
10601TIP3    H231765   5.354   7.239   5.837
10602TIP3   OH231766   4.853   7.230   4.702
10602TIP3    H131767   4.826   7.161   4.765
10602TIP3    H231768   4.866   7.180   4.619
10603TIP3   OH231769   3.979   7.089   5.294
10603TIP3    H131770   3.976   7.168   5.237
10603TIP3    H231771   3.886   7.065   5.300
10604TIP3   OH231772   3.542   6.389   4.997
10604TIP3    H131773   3.587   6.473   5.019
10604TIP3    H231774   3.466   6.392   5.059
10605TIP3   OH231775   4.107   6.849   5.230
10605TIP3    H131776   4.077   6.939   5.254
10605TIP3    H231777   4.078   6.797   5.308
10606TIP3   OH231778   4.248   7.428   5.759
10606TIP3    H131779   4.292   7.500   5.708
10606TIP3    H231780   4.325   7.385   5.800
10607TIP3   OH231781   3.893   7.328   5.141
10607TIP3    H131782   3.809   7.336   5.190
10607TIP3    H231783   3.926   7.420   5.145
10608TIP3   OH231784   4.642   7.060   5.723
10608TIP3    H131785   4.623   7.047   5.818
10608TIP3    H231786   4.721   7.006   5.711
10609TIP3   OH231787   4.611   6.960   4.603
10609TIP3    H131788   4.666   6.933   4.680
10609TIP3    H231789   4.524   6.929   4.632
10610TIP3   OH231790   4.847   7.632   5.807
10610TIP3    H131791   4.811   7.544   5.791
10610TIP3    H231792   4.846   7.671   5.717
10611TIP3   OH231793   4.949   7.429   4.421
10611TIP3    H131794   4.985   7.503   4.370
10611TIP3    H231795   4.868   7.472   4.455
10612TIP3   OH231796   3.967   6.209   6.285
10612TIP3    H131797   3.870   6.206   6.295
10612TIP3    H231798   3.996   6.149   6.356
10613TIP3   OH231799   4.773   6.888   4.814
10613TIP3    H131800   4.763   6.824   4.887
10613TIP3    H231801   4.870   6.886   4.802
10614TIP3   OH231802   3.681   7.291   5.920
10614TIP3    H131803   3.735   7.215   5.949
10614TIP3    H231804   3.724   7.363   5.968
10615TIP3   OH231805   3.972   6.937   4.603
10615TIP3    H131806   3.988   6.845   4.577
10615TIP3    H231807   3.953   6.927   4.698
10616TIP3   OH231808   3.917   6.942   4.876
10616TIP3    H131809   3.993   6.913   4.928
10616TIP3    H231810   3.923   7.040   4.884
10617TIP3   OH231811   3.652   6.633   5.078
10617TIP3    H131812   3.585   6.678   5.135
10617TIP3    H231813   3.667   6.701   5.011
10618TIP3   OH231814   4.809   6.268   5.971
10618TIP3    H131815   4.891   6.306   6.007
10618TIP3    H231816   4.797   6.187   6.025
10619TIP3   OH231817   4.688   6.019   5.137
10619TIP3    H131818   4.673   6.036   5.042
10619TIP3    H231819   4.719   6.107   5.168
10620TIP3   OH231820   4.186   7.137   4.821
10620TIP3    H131821   4.100   7.162   4.859
10620TIP3    H231822   4.203   7.212   4.764
10621TIP3   OH231823   4.370   6.205   5.239
10621TIP3    H131824   4.434   6.277   5.223
10621TIP3    H231825   4.377   6.193   5.336
10622TIP3   OH231826   4.644   6.515   6.048
10622TIP3    H131827   4.666   6.568   6.127
10622TIP3    H231828   4.696   6.434   6.060
10623TIP3   OH231829   4.515   5.923   5.338
10623TIP3    H131830   4.509   5.999   5.398
10623TIP3    H231831   4.578   5.958   5.271
10624TIP3   OH231832   3.932   7.215   4.892
10624TIP3    H131833   3.902   7.285   4.831
10624TIP3    H231834   3.916   7.257   4.979
10625TIP3   OH231835   4.031   5.929   5.127
10625TIP3    H131836   4.029   6.018   5.168
10625TIP3    H231837   4.126   5.910   5.136
10626TIP3   OH231838   5.282   6.422   6.033
10626TIP3    H131839   5.183   6.415   6.031
10626TIP3    H231840   5.304   6.406   5.941
10627TIP3   OH231841   3.650   6.840   4.881
10627TIP3    H131842   3.723   6.904   4.892
10627TIP3    H231843   3.692   6.781   4.815
10628TIP3   OH231844   3.590   6.119   5.017
10628TIP3    H131845   3.592   6.217   5.015
10628TIP3    H231846   3.507   6.100   4.971
10629TIP3   OH231847   4.903   7.571   5.355
10629TIP3    H131848   4.867   7.622   5.279
10629TIP3    H231849   5.000   7.581   5.340
10630TIP3   OH231850   3.977   5.839   5.889
10630TIP3    H131851   3.949   5.802   5.803
10630TIP3    H231852   3.969   5.761   5.949
10631TIP3   OH231853   3.518   7.062   5.266
10631TIP3    H131854   3.451   7.088   5.331
10631TIP3    H231855   3.483   7.103   5.184
10632TIP3   OH231856   3.678   7.589   6.353
10632TIP3    H131857   3.767   7.587   6.394
10632TIP3    H231858   3.666   7.495   6.334
10633TIP3   OH231859   4.155   7.551   6.382
10633TIP3    H131860   4.239   7.503   6.392
10633TIP3    H231861   4.120   7.505   6.302
10634TIP3   OH231862   4.137   7.139   4.512
10634TIP3    H131863   4.082   7.066   4.551
10634TIP3    H231864   4.214   7.088   4.480
10635TIP3   OH231865   4.809   7.436   6.118
10635TIP3    H131866   4.784   7.374   6.190
10635TIP3    H231867   4.904   7.410   6.105
10636TIP3   OH231868   4.573   7.178   4.427
10636TIP3    H131869   4.613   7.113   4.488
10636TIP3    H231870   4.631   7.173   4.348
10637TIP3   OH231871   3.804   7.010   6.545
10637TIP3    H131872   3.822   6.914   6.553
10637TIP3    H231873   3.719   7.009   6.495
10638TIP3   OH231874   3.784   6.654   4.739
10638TIP3    H131875   3.841   6.623   4.812
10638TIP3    H231876   3.851   6.659   4.666
10639TIP3   OH231877   4.405   7.087   6.316
10639TIP3    H131878   4.379   7.106   6.224
10639TIP3    H231879   4.441   6.996   6.308
10640TIP3   OH231880   4.296   6.856   4.544
10640TIP3    H131881   4.300   6.867   4.641
10640TIP3    H231882   4.298   6.758   4.537
10641TIP3   OH231883   4.885   7.120   5.948
10641TIP3    H131884   4.967   7.124   5.896
10641TIP3    H231885   4.834   7.188   5.902
10642TIP3   OH231886   3.927   6.749   6.521
10642TIP3    H131887   4.001   6.695   6.491
10642TIP3    H231888   3.957   6.775   6.611
10643TIP3   OH231889   3.987   6.563   4.955
10643TIP3    H131890   3.963   6.523   5.040
10643TIP3    H231891   4.027   6.487   4.907
10644TIP3   OH231892   4.256   6.621   6.179
10644TIP3    H131893   4.183   6.686   6.180
10644TIP3    H231894   4.314   6.656   6.107
10645TIP3   OH231895   4.093   6.358   4.796
10645TIP3    H131896   4.069   6.365   4.702
10645TIP3    H231897   4.191   6.358   4.790
10646TIP3   OH231898   4.796   7.021   6.308
10646TIP3    H131899   4.857   6.977   6.246
10646TIP3    H231900   4.794   6.960   6.384
10647TIP3   OH231901   4.910   6.684   4.465
10647TIP3    H131902   4.892   6.640   4.379
10647TIP3    H231903   4.877   6.774   4.444
10648TIP3   OH231904   4.383   6.417   6.312
10648TIP3    H131905   4.386   6.336   6.256
10648TIP3    H231906   4.341   6.481   6.252
10649TIP3   OH231907   4.387   6.202   6.124
10649TIP3    H131908   4.417   6.244   6.041
10649TIP3    H231909   4.294   6.178   6.102
10650TIP3   OH231910   4.414   6.732   5.994
10650TIP3    H131911   4.497   6.728   5.943
10650TIP3    H231912   4.365   6.800   5.945
10651TIP3   OH231913   5.009   6.704   6.379
10651TIP3    H131914   5.057   6.627   6.344
10651TIP3    H231915   5.058   6.776   6.336
10652TIP3   OH231916   5.020   6.953   6.127
10652TIP3    H131917   4.966   7.002   6.062
10652TIP3    H231918   5.107   6.956   6.081
10653TIP3   OH231919   4.259   6.524   6.544
10653TIP3    H131920   4.195   6.451   6.559
10653TIP3    H231921   4.295   6.500   6.457
10654TIP3   OH231922   4.519   5.962   6.188
10654TIP3    H131923   4.468   6.043   6.166
10654TIP3    H231924   4.451   5.892   6.177
10655TIP3   OH231925   4.647   6.465   6.403
10655TIP3    H131926   4.636   6.449   6.499
10655TIP3    H231927   4.556   6.442   6.373
10656TIP3   OH231928   4.885   6.423   6.259
10656TIP3    H131929   4.811   6.420   6.323
10656TIP3    H231930   4.959   6.383   6.310
10657TIP3   OH231931   5.122   6.347   6.386
10657TIP3    H131932   5.135   6.252   6.406
10657TIP3    H231933   5.110   6.385   6.475
10658TIP3   OH231934   4.101   6.303   6.600
10658TIP3    H131935   4.104   6.211   6.566
10658TIP3    H231936   4.141   6.289   6.689
10659TIP3   OH231937   4.611   5.971   6.445
10659TIP3    H131938   4.677   5.899   6.440
10659TIP3    H231939   4.572   5.966   6.355
10660TIP3   OH231940   4.670   6.181   6.606
10660TIP3    H131941   4.653   6.110   6.540
10660TIP3    H231942   4.591   6.238   6.594
10661TIP3   OH231943   3.902   7.420   4.705
10661TIP3    H131944   3.997   7.408   4.686
10661TIP3    H231945   3.875   7.470   4.625
10662TIP3   OH231946   3.380   6.800   4.918
10662TIP3    H131947   3.475   6.821   4.903
10662TIP3    H231948   3.373   6.711   4.878
10663TIP3   OH231949   3.294   7.413   5.337
10663TIP3    H131950   3.230   7.351   5.296
10663TIP3    H231951   3.339   7.354   5.400
10664TIP3   OH231952   3.427   7.259   5.523
10664TIP3    H131953   3.417   7.187   5.586
10664TIP3    H231954   3.484   7.319   5.574
10665TIP3   OH231955   5.162   7.658   5.330
10665TIP3    H131956   5.171   7.717   5.406
10665TIP3    H231957   5.207   7.706   5.259
10666TIP3   OH231958   5.049   6.871   4.794
10666TIP3    H131959   5.115   6.936   4.763
10666TIP3    H231960   5.095   6.834   4.873
10667TIP3   OH231961   5.183   6.745   5.000
10667TIP3    H131962   5.142   6.742   5.087
10667TIP3    H231963   5.273   6.779   5.024
10668TIP3   OH231964   5.208   7.139   5.395
10668TIP3    H131965   5.261   7.066   5.360
10668TIP3    H231966   5.186   7.189   5.316
10669TIP3   OH231967   5.069   7.402   5.613
10669TIP3    H131968   5.019   7.472   5.656
10669TIP3    H231969   5.008   7.371   5.543
10670TIP3   OH231970   5.114   6.648   4.644
10670TIP3    H131971   5.042   6.649   4.576
10670TIP3    H231972   5.085   6.724   4.699
10671TIP3   OH231973   4.983   6.320   4.598
10671TIP3    H131974   4.940   6.353   4.519
10671TIP3    H231975   4.962   6.224   4.592
10672TIP3   OH231976   3.615   6.671   5.893
10672TIP3    H131977   3.613   6.635   5.802
10672TIP3    H231978   3.712   6.672   5.910
10673TIP3   OH231979   5.259   6.972   5.975
10673TIP3    H131980   5.345   6.948   6.015
10673TIP3    H231981   5.275   7.064   5.948
10674TIP3   OH231982   5.473   6.826   6.055
10674TIP3    H131983   5.396   6.780   6.095
10674TIP3    H231984   5.541   6.758   6.061
10675TIP3   OH231985   4.929   6.053   4.581
10675TIP3    H131986   5.003   6.022   4.637
10675TIP3    H231987   4.856   5.994   4.603
10676TIP3   OH231988   4.982   6.305   5.030
10676TIP3    H131989   5.026   6.218   5.042
10676TIP3    H231990   5.046   6.349   4.972
10677TIP3   OH231991   5.209   6.636   5.763
10677TIP3    H131992   5.124   6.686   5.770
10677TIP3    H231993   5.266   6.713   5.743
10678TIP3   OH231994   3.836   6.356   6.572
10678TIP3    H131995   3.933   6.349   6.572
10678TIP3    H231996   3.812   6.268   6.607
10679TIP3   OH231997   5.681   6.215   6.331
10679TIP3    H131998   5.743   6.166   6.272
10679TIP3    H231999   5.648   6.285   6.272
10680TIP3   OH232000   5.092   6.061   5.079
10680TIP3    H132001   5.146   6.041   5.159
10680TIP3    H232002   5.032   5.984   5.077
10681TIP3   OH232003   3.794   6.049   5.900
10681TIP3    H132004   3.854   5.972   5.907
10681TIP3    H232005   3.859   6.121   5.889
10682TIP3   OH232006   3.595   6.322   5.967
10682TIP3    H132007   3.645   6.315   5.883
10682TIP3    H232008   3.632   6.402   6.005
10683TIP3   OH232009   5.504   6.342   6.159
10683TIP3    H132010   5.418   6.382   6.133
10683TIP3    H232011   5.504   6.267   6.097
10684TIP3   OH232012   5.173   5.994   4.712
10684TIP3    H132013   5.214   5.924   4.657
10684TIP3    H232014   5.241   6.065   4.710
10685TIP3   OH232015   3.583   5.825   5.471
10685TIP3    H132016   3.490   5.819   5.500
10685TIP3    H232017   3.576   5.884   5.393
10686TIP3   OH232018   4.738   7.532   4.975
10686TIP3    H132019   4.792   7.521   4.894
10686TIP3    H232020   4.795   7.590   5.029
10687TIP3   OH232021   3.805   5.915   6.290
10687TIP3    H132022   3.749   5.900   6.368
10687TIP3    H232023   3.737   5.941   6.225
10688TIP3   OH232024   3.838   7.346   6.366
10688TIP3    H132025   3.753   7.306   6.340
10688TIP3    H232026   3.861   7.295   6.444
10689TIP3   OH232027   4.021   7.372   5.911
10689TIP3    H132028   3.978   7.449   5.868
10689TIP3    H232029   4.108   7.381   5.868
10690TIP3   OH232030   4.445   7.592   6.080
10690TIP3    H132031   4.503   7.598   6.157
10690TIP3    H232032   4.497   7.641   6.013
10691TIP3   OH232033   4.591   7.727   5.896
10691TIP3    H132034   4.649   7.674   5.839
10691TIP3    H232035   4.655   7.796   5.923
10692TIP3   OH232036   5.438   6.118   6.003
10692TIP3    H132037   5.348   6.113   5.966
10692TIP3    H232038   5.469   6.025   5.992
10693TIP3   OH232039   3.697   7.624   5.937
10693TIP3    H132040   3.605   7.650   5.915
10693TIP3    H232041   3.714   7.684   6.011
10694TIP3   OH232042   3.932   7.602   5.792
10694TIP3    H132043   3.844   7.614   5.834
10694TIP3    H232044   3.915   7.632   5.701
10695TIP3   OH232045   4.353   7.630   5.589
10695TIP3    H132046   4.286   7.648   5.521
10695TIP3    H232047   4.365   7.718   5.630
10696TIP3   OH232048   4.622   7.563   5.640
10696TIP3    H132049   4.532   7.589   5.610
10696TIP3    H232050   4.679   7.629   5.596
10697TIP3   OH232051   4.818   7.741   5.557
10697TIP3    H132052   4.814   7.832   5.519
10697TIP3    H232053   4.853   7.690   5.481
10698TIP3   OH232054   3.606   7.413   5.679
10698TIP3    H132055   3.634   7.386   5.769
10698TIP3    H232056   3.679   7.371   5.628
10699TIP3   OH232057   3.803   7.288   5.539
10699TIP3    H132058   3.819   7.203   5.587
10699TIP3    H232059   3.894   7.323   5.533
10700TIP3   OH232060   4.071   7.380   5.543
10700TIP3    H132061   4.101   7.288   5.529
10700TIP3    H232062   4.121   7.401   5.624
10701TIP3   OH232063   4.644   6.035   5.625
10701TIP3    H132064   4.600   5.965   5.676
10701TIP3    H232065   4.718   5.987   5.582
10702TIP3   OH232066   5.164   5.912   5.527
10702TIP3    H132067   5.202   5.966   5.454
10702TIP3    H232068   5.071   5.940   5.526
10703TIP3   OH232069   5.258   6.020   5.294
10703TIP3    H132070   5.331   5.965   5.258
10703TIP3    H232071   5.297   6.110   5.279
10704TIP3   OH232072   3.891   5.744   5.640
10704TIP3    H132073   3.799   5.711   5.646
10704TIP3    H232074   3.939   5.659   5.636
10705TIP3   OH232075   3.674   5.619   5.290
10705TIP3    H132076   3.708   5.675   5.218
10705TIP3    H232077   3.653   5.685   5.359
10706TIP3   OH232078   4.336   5.779   5.524
10706TIP3    H132079   4.392   5.827   5.461
10706TIP3    H232080   4.364   5.816   5.609
10707TIP3   OH232081   4.877   5.922   5.496
10707TIP3    H132082   4.885   5.870   5.415
10707TIP3    H232083   4.867   5.850   5.562
10708TIP3   OH232084   4.912   5.850   5.070
10708TIP3    H132085   4.825   5.892   5.086
10708TIP3    H232086   4.899   5.763   5.114
10709TIP3   OH232087   3.395   7.192   5.065
10709TIP3    H132088   3.309   7.157   5.034
10709TIP3    H232089   3.385   7.285   5.038
10710TIP3   OH232090   3.799   5.777   5.050
10710TIP3    H132091   3.846   5.712   4.994
10710TIP3    H232092   3.873   5.829   5.086
10711TIP3   OH232093   4.307   5.954   5.151
10711TIP3    H132094   4.366   5.906   5.212
10711TIP3    H232095   4.330   6.046   5.177
10712TIP3   OH232096   4.167   7.373   4.651
10712TIP3    H132097   4.256   7.395   4.615
10712TIP3    H232098   4.146   7.298   4.591
10713TIP3   OH232099   4.888   7.496   4.745
10713TIP3    H132100   4.880   7.398   4.736
10713TIP3    H232101   4.841   7.525   4.664
10714TIP3   OH232102   4.098   6.031   6.537
10714TIP3    H132103   4.063   5.956   6.588
10714TIP3    H232104   4.193   6.028   6.562
10715TIP3   OH232105   4.350   6.025   6.651
10715TIP3    H132106   4.435   6.000   6.610
10715TIP3    H232107   4.339   5.954   6.718
10716TIP3   OH232108   3.472   7.212   4.705
10716TIP3    H132109   3.476   7.229   4.800
10716TIP3    H232110   3.559   7.169   4.688
10717TIP3   OH232111   5.178   6.079   6.436
10717TIP3    H132112   5.192   6.051   6.529
10717TIP3    H232113   5.269   6.072   6.400
10718TIP3   OH232114   6.400   6.995   4.681
10718TIP3    H132115   6.380   7.077   4.731
10718TIP3    H232116   6.312   6.968   4.651
10719TIP3   OH232117   6.387   6.950   5.056
10719TIP3    H132118   6.344   6.965   5.140
10719TIP3    H232119   6.342   6.869   5.025
10720TIP3   OH232120   5.660   6.854   5.424
10720TIP3    H132121   5.719   6.807   5.485
10720TIP3    H232122   5.673   6.948   5.451
10721TIP3   OH232123   5.635   7.310   5.162
10721TIP3    H132124   5.629   7.226   5.212
10721TIP3    H232125   5.731   7.312   5.141
10722TIP3   OH232126   5.354   6.498   4.952
10722TIP3    H132127   5.320   6.586   4.974
10722TIP3    H232128   5.278   6.461   4.903
10723TIP3   OH232129   5.431   6.806   5.090
10723TIP3    H132130   5.478   6.733   5.134
10723TIP3    H232131   5.503   6.872   5.080
10724TIP3   OH232132   6.634   6.725   5.104
10724TIP3    H132133   6.661   6.632   5.120
10724TIP3    H232134   6.587   6.716   5.019
10725TIP3   OH232135   5.931   6.397   5.122
10725TIP3    H132136   5.912   6.472   5.062
10725TIP3    H232137   5.881   6.326   5.078
10726TIP3   OH232138   6.620   6.488   4.736
10726TIP3    H132139   6.689   6.471   4.805
10726TIP3    H232140   6.674   6.531   4.668
10727TIP3   OH232141   5.550   6.599   5.228
10727TIP3    H132142   5.634   6.597   5.277
10727TIP3    H232143   5.577   6.540   5.150
10728TIP3   OH232144   6.007   6.794   5.011
10728TIP3    H132145   6.098   6.761   5.029
10728TIP3    H232146   5.962   6.712   4.984
10729TIP3   OH232147   5.905   6.375   5.557
10729TIP3    H132148   5.850   6.419   5.489
10729TIP3    H232149   5.855   6.398   5.639
10730TIP3   OH232150   6.271   7.244   4.554
10730TIP3    H132151   6.221   7.213   4.478
10730TIP3    H232152   6.234   7.333   4.570
10731TIP3   OH232153   6.820   6.483   4.919
10731TIP3    H132154   6.796   6.499   5.012
10731TIP3    H232155   6.870   6.565   4.897
10732TIP3   OH232156   5.787   6.495   5.338
10732TIP3    H132157   5.845   6.571   5.364
10732TIP3    H232158   5.843   6.457   5.266
10733TIP3   OH232159   5.249   7.043   4.686
10733TIP3    H132160   5.212   7.073   4.601
10733TIP3    H232161   5.285   7.126   4.722
10734TIP3   OH232162   6.276   6.099   5.269
10734TIP3    H132163   6.263   6.004   5.288
10734TIP3    H232164   6.201   6.139   5.318
10735TIP3   OH232165   6.515   7.390   4.488
10735TIP3    H132166   6.506   7.319   4.422
10735TIP3    H232167   6.478   7.344   4.565
10736TIP3   OH232168   6.201   6.861   4.519
10736TIP3    H132169   6.123   6.916   4.498
10736TIP3    H232170   6.250   6.859   4.435
10737TIP3   OH232171   6.164   6.650   4.237
10737TIP3    H132172   6.229   6.701   4.288
10737TIP3    H232173   6.224   6.586   4.193
10738TIP3   OH232174   6.568   6.929   4.479
10738TIP3    H132175   6.509   6.952   4.555
10738TIP3    H232176   6.647   6.900   4.531
10739TIP3   OH232177   5.801   6.945   4.909
10739TIP3    H132178   5.755   6.885   4.847
10739TIP3    H232179   5.874   6.889   4.942
10740TIP3   OH232180   5.892   7.345   5.085
10740TIP3    H132181   5.929   7.309   5.003
10740TIP3    H232182   5.965   7.333   5.149
10741TIP3   OH232183   5.942   6.922   5.254
10741TIP3    H132184   5.976   6.896   5.166
10741TIP3    H232185   5.998   6.997   5.280
10742TIP3   OH232186   6.386   6.805   4.318
10742TIP3    H132187   6.453   6.857   4.369
10742TIP3    H232188   6.415   6.824   4.226
10743TIP3   OH232189   6.180   7.507   4.577
10743TIP3    H132190   6.196   7.547   4.664
10743TIP3    H232191   6.089   7.534   4.558
10744TIP3   OH232192   6.914   6.043   4.374
10744TIP3    H132193   6.831   6.059   4.422
10744TIP3    H232194   6.927   6.128   4.327
10745TIP3   OH232195   5.661   6.787   4.714
10745TIP3    H132196   5.588   6.827   4.663
10745TIP3    H232197   5.624   6.702   4.741
10746TIP3   OH232198   6.715   7.407   3.933
10746TIP3    H132199   6.695   7.501   3.910
10746TIP3    H232200   6.807   7.399   3.902
10747TIP3   OH232201   5.397   7.228   5.651
10747TIP3    H132202   5.323   7.199   5.595
10747TIP3    H232203   5.473   7.205   5.592
10748TIP3   OH232204   5.301   7.382   5.242
10748TIP3    H132205   5.380   7.336   5.274
10748TIP3    H232206   5.263   7.418   5.324
10749TIP3   OH232207   6.021   7.730   4.398
10749TIP3    H132208   5.984   7.690   4.317
10749TIP3    H232209   5.981   7.818   4.396
10750TIP3   OH232210   5.463   7.574   4.794
10750TIP3    H132211   5.511   7.564   4.879
10750TIP3    H232212   5.414   7.490   4.791
10751TIP3   OH232213   6.222   7.630   4.042
10751TIP3    H132214   6.280   7.559   4.005
10751TIP3    H232215   6.265   7.644   4.129
10752TIP3   OH232216   6.273   7.664   4.319
10752TIP3    H132217   6.189   7.685   4.366
10752TIP3    H232218   6.298   7.582   4.365
10753TIP3   OH232219   6.041   6.172   5.405
10753TIP3    H132220   5.949   6.151   5.377
10753TIP3    H232221   6.025   6.256   5.451
10754TIP3   OH232222   6.470   6.848   4.067
10754TIP3    H132223   6.438   6.823   3.978
10754TIP3    H232224   6.556   6.889   4.045
10755TIP3   OH232225   6.182   6.227   4.373
10755TIP3    H132226   6.150   6.221   4.465
10755TIP3    H232227   6.147   6.142   4.339
10756TIP3   OH232228   5.960   6.694   5.403
10756TIP3    H132229   5.941   6.726   5.494
10756TIP3    H232230   5.949   6.778   5.353
10757TIP3   OH232231   5.854   6.578   4.934
10757TIP3    H132232   5.762   6.551   4.954
10757TIP3    H232233   5.867   6.536   4.846
10758TIP3   OH232234   6.337   6.657   4.647
10758TIP3    H132235   6.290   6.731   4.604
10758TIP3    H232236   6.399   6.628   4.578
10759TIP3   OH232237   6.458   6.657   4.898
10759TIP3    H132238   6.415   6.701   4.822
10759TIP3    H232239   6.508   6.589   4.849
10760TIP3   OH232240   5.800   6.714   5.636
10760TIP3    H132241   5.810   6.782   5.704
10760TIP3    H232242   5.796   6.633   5.690
10761TIP3   OH232243   5.836   6.197   4.338
10761TIP3    H132244   5.832   6.196   4.435
10761TIP3    H232245   5.761   6.255   4.317
10762TIP3   OH232246   5.381   6.247   5.219
10762TIP3    H132247   5.458   6.279   5.270
10762TIP3    H232248   5.419   6.226   5.132
10763TIP3   OH232249   5.349   6.220   4.728
10763TIP3    H132250   5.398   6.255   4.650
10763TIP3    H232251   5.292   6.297   4.747
10764TIP3   OH232252   6.186   6.392   4.993
10764TIP3    H132253   6.106   6.394   5.049
10764TIP3    H232254   6.257   6.397   5.059
10765TIP3   OH232255   5.618   6.453   5.002
10765TIP3    H132256   5.523   6.455   4.976
10765TIP3    H232257   5.645   6.363   4.978
10766TIP3   OH232258   5.882   6.449   4.695
10766TIP3    H132259   5.977   6.463   4.677
10766TIP3    H232260   5.839   6.472   4.609
10767TIP3   OH232261   6.652   6.461   5.172
10767TIP3    H132262   6.666   6.451   5.267
10767TIP3    H232263   6.571   6.408   5.157
10768TIP3   OH232264   5.732   6.486   4.467
10768TIP3    H132265   5.661   6.443   4.417
10768TIP3    H232266   5.785   6.525   4.394
10769TIP3   OH232267   6.256   6.701   5.086
10769TIP3    H132268   6.331   6.669   5.032
10769TIP3    H232269   6.269   6.655   5.170
10770TIP3   OH232270   5.783   6.217   4.974
10770TIP3    H132271   5.749   6.139   5.022
10770TIP3    H232272   5.834   6.176   4.903
10771TIP3   OH232273   6.227   6.621   5.401
10771TIP3    H132274   6.134   6.652   5.398
10771TIP3    H232275   6.276   6.702   5.418
10772TIP3   OH232276   5.972   7.021   4.473
10772TIP3    H132277   5.903   6.952   4.465
10772TIP3    H232278   5.958   7.052   4.566
10773TIP3   OH232279   6.434   6.329   4.335
10773TIP3    H132280   6.339   6.309   4.351
10773TIP3    H232281   6.444   6.421   4.368
10774TIP3   OH232282   6.508   6.575   4.440
10774TIP3    H132283   6.603   6.578   4.462
10774TIP3    H232284   6.496   6.658   4.391
10775TIP3   OH232285   5.643   6.984   5.138
10775TIP3    H132286   5.711   6.988   5.068
10775TIP3    H232287   5.697   6.972   5.218
10776TIP3   OH232288   6.122   7.165   4.297
10776TIP3    H132289   6.076   7.251   4.304
10776TIP3    H232290   6.068   7.110   4.358
10777TIP3   OH232291   5.524   6.898   5.782
10777TIP3    H132292   5.466   6.894   5.860
10777TIP3    H232293   5.461   6.894   5.708
10778TIP3   OH232294   6.940   6.644   4.277
10778TIP3    H132295   6.875   6.625   4.205
10778TIP3    H232296   6.953   6.739   4.266
10779TIP3   OH232297   6.651   7.488   4.202
10779TIP3    H132298   6.616   7.412   4.248
10779TIP3    H232299   6.669   7.453   4.113
10780TIP3   OH232300   5.771   7.343   4.762
10780TIP3    H132301   5.755   7.426   4.713
10780TIP3    H232302   5.683   7.319   4.792
10781TIP3   OH232303   5.338   6.646   4.483
10781TIP3    H132304   5.384   6.729   4.506
10781TIP3    H232305   5.262   6.649   4.545
10782TIP3   OH232306   5.913   7.109   4.719
10782TIP3    H132307   5.871   7.195   4.739
10782TIP3    H232308   5.879   7.054   4.793
10783TIP3   OH232309   5.689   7.586   4.630
10783TIP3    H132310   5.603   7.589   4.677
10783TIP3    H232311   5.714   7.681   4.635
10784TIP3   OH232312   6.407   7.214   4.092
10784TIP3    H132313   6.461   7.187   4.170
10784TIP3    H232314   6.320   7.183   4.119
10785TIP3   OH232315   6.680   7.672   3.884
10785TIP3    H132316   6.773   7.698   3.867
10785TIP3    H232317   6.643   7.749   3.931
10786TIP3   OH232318   5.771   6.460   5.784
10786TIP3    H132319   5.679   6.470   5.815
10786TIP3    H232320   5.810   6.408   5.856
10787TIP3   OH232321   6.566   7.152   4.308
10787TIP3    H132322   6.553   7.082   4.376
10787TIP3    H232323   6.662   7.140   4.293
10788TIP3   OH232324   5.769   7.193   4.090
10788TIP3    H132325   5.784   7.101   4.063
10788TIP3    H232326   5.748   7.183   4.185
10789TIP3   OH232327   5.714   7.199   4.362
10789TIP3    H132328   5.789   7.167   4.415
10789TIP3    H232329   5.720   7.296   4.373
10790TIP3   OH232330   5.447   6.889   4.566
10790TIP3    H132331   5.381   6.934   4.623
10790TIP3    H232332   5.462   6.958   4.498
10791TIP3   OH232333   6.478   6.278   4.626
10791TIP3    H132334   6.470   6.299   4.531
10791TIP3    H232335   6.521   6.359   4.661
10792TIP3   OH232336   5.985   7.397   4.314
10792TIP3    H132337   5.896   7.421   4.347
10792TIP3    H232338   5.995   7.461   4.242
10793TIP3   OH232339   6.162   6.461   4.726
10793TIP3    H132340   6.227   6.532   4.705
10793TIP3    H232341   6.175   6.452   4.823
10794TIP3   OH232342   6.310   6.178   4.825
10794TIP3    H132343   6.301   6.257   4.882
10794TIP3    H232344   6.373   6.213   4.756
10795TIP3   OH232345   5.731   7.473   4.380
10795TIP3    H132346   5.698   7.542   4.318
10795TIP3    H232347   5.712   7.514   4.467
10796TIP3   OH232348   5.826   6.186   4.614
10796TIP3    H132349   5.826   6.276   4.653
10796TIP3    H232350   5.922   6.166   4.621
10797TIP3   OH232351   5.445   7.096   4.368
10797TIP3    H132352   5.518   7.161   4.379
10797TIP3    H232353   5.488   7.037   4.302
10798TIP3   OH232354   5.384   6.375   4.505
10798TIP3    H132355   5.389   6.472   4.503
10798TIP3    H232356   5.305   6.358   4.454
10799TIP3   OH232357   5.771   6.098   5.374
10799TIP3    H132358   5.745   6.062   5.287
10799TIP3    H232359   5.763   6.019   5.432
10800TIP3   OH232360   5.313   7.315   4.752
10800TIP3    H132361   5.252   7.342   4.822
10800TIP3    H232362   5.274   7.358   4.673
10801TIP3   OH232363   5.934   7.394   4.002
10801TIP3    H132364   5.878   7.321   4.037
10801TIP3    H232365   6.010   7.344   3.968
10802TIP3   OH232366   6.367   7.434   3.916
10802TIP3    H132367   6.411   7.371   3.976
10802TIP3    H232368   6.424   7.433   3.837
10803TIP3   OH232369   5.581   6.910   4.226
10803TIP3    H132370   5.637   6.879   4.299
10803TIP3    H232371   5.648   6.915   4.154
10804TIP3   OH232372   6.092   7.111   4.029
10804TIP3    H132373   6.095   7.123   4.127
10804TIP3    H232374   6.094   7.013   4.023
10805TIP3   OH232375   5.783   6.820   4.442
10805TIP3    H132376   5.759   6.782   4.528
10805TIP3    H232377   5.823   6.744   4.396
10806TIP3   OH232378   5.889   6.615   4.284
10806TIP3    H132379   5.866   6.622   4.189
10806TIP3    H232380   5.987   6.614   4.279
10807TIP3   OH232381   6.701   6.941   3.950
10807TIP3    H132382   6.685   6.896   3.865
10807TIP3    H232383   6.668   7.031   3.927
10808TIP3   OH232384   6.173   6.411   5.595
10808TIP3    H132385   6.205   6.484   5.540
10808TIP3    H232386   6.076   6.417   5.583
10809TIP3   OH232387   6.331   6.191   5.659
10809TIP3    H132388   6.312   6.285   5.639
10809TIP3    H232389   6.242   6.154   5.658
10810TIP3   OH232390   5.699   7.680   4.194
10810TIP3    H132391   5.793   7.668   4.173
10810TIP3    H232392   5.670   7.727   4.113
10811TIP3   OH232393   5.176   7.057   4.403
10811TIP3    H132394   5.271   7.077   4.390
10811TIP3    H232395   5.170   6.967   4.364
10812TIP3   OH232396   5.091   7.669   4.824
10812TIP3    H132397   5.026   7.607   4.784
10812TIP3    H232398   5.136   7.608   4.888
10813TIP3   OH232399   5.223   7.512   5.008
10813TIP3    H132400   5.224   7.442   5.076
10813TIP3    H232401   5.280   7.577   5.055
10814TIP3   OH232402   6.843   7.120   4.298
10814TIP3    H132403   6.900   7.196   4.287
10814TIP3    H232404   6.862   7.093   4.389
10815TIP3   OH232405   6.909   6.906   4.123
10815TIP3    H132406   6.833   6.908   4.062
10815TIP3    H232407   6.880   6.972   4.189
10816TIP3   OH232408   6.772   6.577   4.072
10816TIP3    H132409   6.724   6.603   3.993
10816TIP3    H232410   6.755   6.480   4.072
10817TIP3   OH232411   6.764   6.835   4.648
10817TIP3    H132412   6.790   6.746   4.620
10817TIP3    H232413   6.819   6.841   4.729
10818TIP3   OH232414   5.402   6.912   5.360
10818TIP3    H132415   5.411   6.893   5.266
10818TIP3    H232416   5.496   6.910   5.386
10819TIP3   OH232417   6.727   6.307   4.062
10819TIP3    H132418   6.801   6.281   4.121
10819TIP3    H232419   6.653   6.251   4.092
10820TIP3   OH232420   6.782   6.563   4.515
10820TIP3    H132421   6.823   6.476   4.533
10820TIP3    H232422   6.842   6.595   4.445
10821TIP3   OH232423   5.589   6.559   6.004
10821TIP3    H132424   5.665   6.611   6.036
10821TIP3    H232425   5.579   6.492   6.075
10822TIP3   OH232426   6.897   6.318   4.564
10822TIP3    H132427   6.943   6.303   4.648
10822TIP3    H232428   6.834   6.242   4.563
10823TIP3   OH232429   5.587   6.307   5.400
10823TIP3    H132430   5.650   6.232   5.400
10823TIP3    H232431   5.649   6.380   5.378
10824TIP3   OH232432   5.361   6.596   5.427
10824TIP3    H132433   5.412   6.584   5.356
10824TIP3    H232434   5.407   6.669   5.474
10825TIP3   OH232435   6.968   6.254   4.195
10825TIP3    H132436   7.011   6.182   4.145
10825TIP3    H232437   7.037   6.323   4.197
10826TIP3   OH232438   5.377   6.085   4.960
10826TIP3    H132439   5.283   6.077   4.983
10826TIP3    H232440   5.374   6.142   4.881
10827TIP3   OH232441   5.597   6.157   5.767
10827TIP3    H132442   5.549   6.155   5.852
10827TIP3    H232443   5.529   6.193   5.707
10828TIP3   OH232444   5.410   7.668   5.154
10828TIP3    H132445   5.426   7.637   5.244
10828TIP3    H232446   5.481   7.619   5.106
10829TIP3   OH232447   5.608   7.534   5.023
10829TIP3    H132448   5.600   7.449   5.074
10829TIP3    H232449   5.704   7.533   5.009
10830TIP3   OH232450   6.435   6.293   5.115
10830TIP3    H132451   6.391   6.221   5.162
10830TIP3    H232452   6.507   6.246   5.067
10831TIP3   OH232453   6.942   6.171   5.006
10831TIP3    H132454   6.993   6.217   4.935
10831TIP3    H232455   6.862   6.224   5.008
10832TIP3   OH232456   7.062   6.273   4.782
10832TIP3    H132457   7.129   6.214   4.742
10832TIP3    H232458   7.105   6.360   4.765
10833TIP3   OH232459   5.686   6.002   5.126
10833TIP3    H132460   5.593   5.971   5.131
10833TIP3    H232461   5.733   5.916   5.122
10834TIP3   OH232462   5.471   5.874   4.777
10834TIP3    H132463   5.506   5.929   4.704
10834TIP3    H232464   5.450   5.941   4.845
10835TIP3   OH232465   6.133   6.038   5.010
10835TIP3    H132466   6.187   6.082   4.942
10835TIP3    H232467   6.161   6.085   5.090
10836TIP3   OH232468   6.641   6.157   4.987
10836TIP3    H132469   6.674   6.171   4.898
10836TIP3    H232470   6.668   6.066   5.003
10837TIP3   OH232471   6.711   6.108   4.557
10837TIP3    H132472   6.621   6.144   4.567
10837TIP3    H232473   6.698   6.019   4.595
10838TIP3   OH232474   5.191   7.448   4.552
10838TIP3    H132475   5.105   7.414   4.520
10838TIP3    H232476   5.182   7.542   4.528
10839TIP3   OH232477   5.596   6.031   4.538
10839TIP3    H132478   5.644   5.968   4.482
10839TIP3    H232479   5.670   6.085   4.573
10840TIP3   OH232480   6.102   6.211   4.636
10840TIP3    H132481   6.163   6.159   4.691
10840TIP3    H232482   6.126   6.302   4.665
10841TIP3   OH232483   5.965   7.628   4.140
10841TIP3    H132484   6.054   7.650   4.103
10841TIP3    H232485   5.942   7.555   4.078
10842TIP3   OH232486   5.900   6.266   5.999
10842TIP3    H132487   5.890   6.212   6.079
10842TIP3    H232488   5.985   6.309   6.015
10843TIP3   OH232489   5.269   7.468   4.191
10843TIP3    H132490   5.271   7.485   4.287
10843TIP3    H232491   5.356   7.425   4.176
10844TIP3   OH232492   7.095   6.847   4.418
10844TIP3    H132493   7.098   6.871   4.511
10844TIP3    H232494   7.120   6.754   4.420
10845TIP3   OH232495   7.956   6.481   3.871
10845TIP3    H132496   8.001   6.458   3.953
10845TIP3    H232497   7.918   6.395   3.843
10846TIP3   OH232498   7.625   6.444   3.816
10846TIP3    H132499   7.627   6.450   3.913
10846TIP3    H232500   7.554   6.507   3.794
10847TIP3   OH232501   7.212   6.483   4.696
10847TIP3    H132502   7.242   6.574   4.706
10847TIP3    H232503   7.237   6.462   4.605
10848TIP3   OH232504   7.150   6.476   4.213
10848TIP3    H132505   7.197   6.518   4.138
10848TIP3    H232506   7.083   6.545   4.232
10849TIP3   OH232507   7.516   6.739   3.951
10849TIP3    H132508   7.436   6.693   3.922
10849TIP3    H232509   7.562   6.752   3.868
10850TIP3   OH232510   7.130   6.893   3.968
10850TIP3    H132511   7.184   6.962   4.007
10850TIP3    H232512   7.051   6.895   4.027
10851TIP3   OH232513   7.615   6.439   4.095
10851TIP3    H132514   7.598   6.523   4.139
10851TIP3    H232515   7.687   6.401   4.149
10852TIP3   OH232516   7.187   6.627   3.985
10852TIP3    H132517   7.184   6.725   3.984
10852TIP3    H232518   7.098   6.605   3.956
10853TIP3   OH232519   6.988   7.317   3.846
10853TIP3    H132520   7.038   7.303   3.927
10853TIP3    H232521   6.973   7.225   3.815
10854TIP3   OH232522   7.170   6.327   4.437
10854TIP3    H132523   7.078   6.325   4.470
10854TIP3    H232524   7.164   6.390   4.362
10855TIP3   OH232525   7.480   6.245   4.605
10855TIP3    H132526   7.382   6.235   4.604
10855TIP3    H232527   7.505   6.151   4.620
10856TIP3   OH232528   7.267   6.130   4.262
10856TIP3    H132529   7.297   6.190   4.192
10856TIP3    H232530   7.240   6.193   4.332
10857TIP3   OH232531   7.387   6.287   4.020
10857TIP3    H132532   7.434   6.223   3.963
10857TIP3    H232533   7.462   6.341   4.053
10858TIP3   OH232534   1.162   7.086   5.550
10858TIP3    H132535   1.079   7.104   5.600
10858TIP3    H232536   1.176   7.173   5.508
10859TIP3   OH232537   1.192   7.678   5.476
10859TIP3    H132538   1.128   7.643   5.410
10859TIP3    H232539   1.172   7.773   5.468
10860TIP3   OH232540   1.034   7.606   5.255
10860TIP3    H132541   0.996   7.614   5.165
10860TIP3    H232542   1.015   7.512   5.272
10861TIP3   OH232543   0.977   7.339   5.254
10861TIP3    H132544   1.067   7.322   5.291
10861TIP3    H232545   0.924   7.281   5.310
10862TIP3   OH232546   1.128   7.361   5.700
10862TIP3    H132547   1.159   7.312   5.779
10862TIP3    H232548   1.041   7.319   5.691
10863TIP3   OH232549   1.220   7.300   5.365
10863TIP3    H132550   1.266   7.226   5.320
10863TIP3    H232551   1.290   7.369   5.371
10864TIP3   OH232552   1.225   7.235   5.917
10864TIP3    H132553   1.309   7.200   5.882
10864TIP3    H232554   1.257   7.308   5.973
10865TIP3   OH232555   0.944   7.148   5.714
10865TIP3    H132556   0.849   7.167   5.719
10865TIP3    H232557   0.947   7.065   5.767
10866TIP3   OH232558   3.244   7.840   5.791
10866TIP3    H132559   3.272   7.927   5.826
10866TIP3    H232560   3.259   7.852   5.695
10867TIP3   OH232561   2.649   8.028   5.802
10867TIP3    H132562   2.694   7.954   5.848
10867TIP3    H232563   2.601   7.979   5.734
10868TIP3   OH232564   2.036   7.709   5.778
10868TIP3    H132565   1.969   7.758   5.727
10868TIP3    H232566   1.982   7.636   5.811
10869TIP3   OH232567   2.655   7.783   5.440
10869TIP3    H132568   2.743   7.778   5.485
10869TIP3    H232569   2.680   7.805   5.348
10870TIP3   OH232570   3.332   8.057   5.955
10870TIP3    H132571   3.324   8.151   5.929
10870TIP3    H232572   3.258   8.050   6.018
10871TIP3   OH232573   2.880   7.801   5.587
10871TIP3    H132574   2.913   7.725   5.637
10871TIP3    H232575   2.935   7.875   5.622
10872TIP3   OH232576   3.029   7.770   5.953
10872TIP3    H132577   2.945   7.800   5.914
10872TIP3    H232578   3.094   7.790   5.881
10873TIP3   OH232579   2.958   7.343   5.038
10873TIP3    H132580   2.876   7.364   5.088
10873TIP3    H232581   2.973   7.426   4.989
10874TIP3   OH232582   2.638   7.614   6.216
10874TIP3    H132583   2.718   7.576   6.256
10874TIP3    H232584   2.573   7.585   6.282
10875TIP3   OH232585   2.228   7.524   5.035
10875TIP3    H132586   2.196   7.518   5.128
10875TIP3    H232587   2.188   7.442   4.999
10876TIP3   OH232588   1.912   7.860   5.589
10876TIP3    H132589   1.817   7.846   5.610
10876TIP3    H232590   1.917   7.807   5.507
10877TIP3   OH232591   2.482   7.914   5.608
10877TIP3    H132592   2.492   7.989   5.547
10877TIP3    H232593   2.538   7.848   5.559
10878TIP3   OH232594   1.888   7.509   5.001
10878TIP3    H132595   1.881   7.499   5.098
10878TIP3    H232596   1.807   7.559   4.981
10879TIP3   OH232597   1.399   7.520   5.384
10879TIP3    H132598   1.472   7.573   5.349
10879TIP3    H232599   1.337   7.591   5.415
10880TIP3   OH232600   1.664   7.765   5.618
10880TIP3    H132601   1.573   7.736   5.629
10880TIP3    H232602   1.712   7.682   5.640
10881TIP3   OH232603   1.941   7.745   5.343
10881TIP3    H132604   2.035   7.753   5.320
10881TIP3    H232605   1.906   7.832   5.316
10882TIP3   OH232606   2.713   7.763   5.886
10882TIP3    H132607   2.684   7.721   5.968
10882TIP3    H232608   2.711   7.688   5.824
10883TIP3   OH232609   1.827   7.523   5.628
10883TIP3    H132610   1.786   7.460   5.691
10883TIP3    H232611   1.898   7.469   5.593
10884TIP3   OH232612   2.475   7.626   5.008
10884TIP3    H132613   2.383   7.592   5.016
10884TIP3    H232614   2.458   7.721   4.989
10885TIP3   OH232615   2.590   7.862   5.179
10885TIP3    H132616   2.682   7.855   5.147
10885TIP3    H232617   2.541   7.887   5.099
10886TIP3   OH232618   2.970   7.930   4.957
10886TIP3    H132619   2.918   7.909   4.876
10886TIP3    H232620   3.015   8.012   4.932
10887TIP3   OH232621   2.533   7.572   5.278
10887TIP3    H132622   2.517   7.596   5.184
10887TIP3    H232623   2.554   7.659   5.315
10888TIP3   OH232624   2.242   7.742   5.420
10888TIP3    H132625   2.257   7.815   5.356
10888TIP3    H232626   2.202   7.792   5.492
10889TIP3   OH232627   2.371   7.474   5.478
10889TIP3    H132628   2.343   7.562   5.507
10889TIP3    H232629   2.433   7.499   5.406
10890TIP3   OH232630   1.873   7.481   5.272
10890TIP3    H132631   1.872   7.569   5.316
10890TIP3    H232632   1.967   7.458   5.285
10891TIP3   OH232633   3.097   7.987   6.121
10891TIP3    H132634   3.012   8.036   6.115
10891TIP3    H232635   3.077   7.911   6.063
10892TIP3   OH232636   1.412   7.650   5.100
10892TIP3    H132637   1.433   7.744   5.111
10892TIP3    H232638   1.352   7.633   5.173
10893TIP3   OH232639   1.812   7.408   6.057
10893TIP3    H132640   1.806   7.407   5.960
10893TIP3    H232641   1.822   7.315   6.078
10894TIP3   OH232642   2.828   7.872   4.734
10894TIP3    H132643   2.788   7.862   4.645
10894TIP3    H232644   2.816   7.779   4.763
10895TIP3   OH232645   2.765   7.609   4.745
10895TIP3    H132646   2.840   7.568   4.792
10895TIP3    H232647   2.693   7.544   4.756
10896TIP3   OH232648   2.861   7.868   5.193
10896TIP3    H132649   2.894   7.779   5.220
10896TIP3    H232650   2.915   7.880   5.112
10897TIP3   OH232651   3.009   8.021   5.690
10897TIP3    H132652   3.053   8.072   5.621
10897TIP3    H232653   2.953   8.089   5.729
10898TIP3   OH232654   3.522   7.760   6.495
10898TIP3    H132655   3.587   7.720   6.434
10898TIP3    H232656   3.497   7.842   6.449
10899TIP3   OH232657   2.940   7.611   5.231
10899TIP3    H132658   2.986   7.592   5.315
10899TIP3    H232659   2.875   7.537   5.228
10900TIP3   OH232660   3.353   7.906   6.304
10900TIP3    H132661   3.322   7.990   6.267
10900TIP3    H232662   3.361   7.852   6.224
10901TIP3   OH232663   3.016   7.552   4.862
10901TIP3    H132664   3.057   7.481   4.807
10901TIP3    H232665   3.083   7.622   4.858
10902TIP3   OH232666   1.398   7.370   5.613
10902TIP3    H132667   1.304   7.375   5.637
10902TIP3    H232668   1.404   7.436   5.541
10903TIP3   OH232669   3.270   7.669   6.150
10903TIP3    H132670   3.182   7.649   6.113
10903TIP3    H232671   3.312   7.579   6.143
10904TIP3   OH232672   3.011   7.489   5.688
10904TIP3    H132673   3.045   7.529   5.605
10904TIP3    H232674   2.914   7.489   5.674
10905TIP3   OH232675   3.102   7.577   5.449
10905TIP3    H132676   3.175   7.524   5.409
10905TIP3    H232677   3.135   7.668   5.429
10906TIP3   OH232678   1.738   7.310   5.788
10906TIP3    H132679   1.646   7.279   5.791
10906TIP3    H232680   1.786   7.224   5.789
10907TIP3   OH232681   1.520   7.176   5.442
10907TIP3    H132682   1.547   7.236   5.370
10907TIP3    H232683   1.485   7.239   5.509
10908TIP3   OH232684   2.176   7.331   5.688
10908TIP3    H132685   2.253   7.373   5.647
10908TIP3    H232686   2.186   7.359   5.781
10909TIP3   OH232687   2.740   7.500   5.663
10909TIP3    H132688   2.704   7.466   5.580
10909TIP3    H232689   2.717   7.425   5.723
10910TIP3   OH232690   2.753   7.406   5.219
10910TIP3    H132691   2.667   7.450   5.235
10910TIP3    H232692   2.739   7.320   5.265
10911TIP3   OH232693   1.638   7.333   5.200
10911TIP3    H132694   1.685   7.270   5.143
10911TIP3    H232695   1.713   7.384   5.237
10912TIP3   OH232696   2.153   7.504   5.300
10912TIP3    H132697   2.197   7.438   5.356
10912TIP3    H232698   2.186   7.586   5.344
10913TIP3   OH232699   5.013   8.112   5.304
10913TIP3    H132700   4.977   8.201   5.305
10913TIP3    H232701   5.040   8.106   5.212
10914TIP3   OH232702   4.452   8.294   5.308
10914TIP3    H132703   4.478   8.205   5.338
10914TIP3    H232704   4.417   8.269   5.220
10915TIP3   OH232705   3.775   7.942   5.275
10915TIP3    H132706   3.755   7.997   5.197
10915TIP3    H232707   3.728   7.861   5.247
10916TIP3   OH232708   4.462   8.032   4.914
10916TIP3    H132709   4.547   8.030   4.965
10916TIP3    H232710   4.492   8.058   4.825
10917TIP3   OH232711   3.368   8.132   5.379
10917TIP3    H132712   3.439   8.147   5.443
10917TIP3    H232713   3.408   8.074   5.313
10918TIP3   OH232714   3.770   7.933   5.709
10918TIP3    H132715   3.715   7.969   5.636
10918TIP3    H232716   3.711   7.950   5.785
10919TIP3   OH232717   4.678   8.053   5.072
10919TIP3    H132718   4.683   7.995   5.149
10919TIP3    H232719   4.733   8.129   5.099
10920TIP3   OH232720   3.634   8.043   5.498
10920TIP3    H132721   3.641   8.140   5.499
10920TIP3    H232722   3.692   8.019   5.423
10921TIP3   OH232723   4.799   7.986   5.433
10921TIP3    H132724   4.726   8.029   5.386
10921TIP3    H232725   4.879   8.026   5.392
10922TIP3   OH232726   4.115   7.654   5.418
10922TIP3    H132727   4.105   7.560   5.440
10922TIP3    H232728   4.039   7.693   5.468
10923TIP3   OH232729   4.754   7.600   4.525
10923TIP3    H132730   4.672   7.622   4.574
10923TIP3    H232731   4.769   7.682   4.475
10924TIP3   OH232732   3.883   7.731   5.553
10924TIP3    H132733   3.794   7.701   5.523
10924TIP3    H232734   3.857   7.811   5.603
10925TIP3   OH232735   4.406   7.855   5.740
10925TIP3    H132736   4.479   7.816   5.794
10925TIP3    H232737   4.327   7.826   5.790
10926TIP3   OH232738   4.021   7.782   4.521
10926TIP3    H132739   3.992   7.774   4.615
10926TIP3    H232740   3.984   7.697   4.487
10927TIP3   OH232741   3.679   8.070   5.057
10927TIP3    H132742   3.585   8.042   5.057
10927TIP3    H232743   3.703   8.047   4.965
10928TIP3   OH232744   4.326   8.197   5.084
10928TIP3    H132745   4.327   8.254   5.005
10928TIP3    H232746   4.362   8.115   5.044
10929TIP3   OH232747   3.638   8.290   5.828
10929TIP3    H132748   3.668   8.293   5.919
10929TIP3    H232749   3.621   8.194   5.819
10930TIP3   OH232750   3.680   7.762   4.489
10930TIP3    H132751   3.676   7.754   4.586
10930TIP3    H232752   3.602   7.816   4.471
10931TIP3   OH232753   3.226   7.798   5.358
10931TIP3    H132754   3.300   7.830   5.413
10931TIP3    H232755   3.269   7.755   5.283
10932TIP3   OH232756   3.200   7.776   4.874
10932TIP3    H132757   3.249   7.806   4.795
10932TIP3    H232758   3.152   7.858   4.897
10933TIP3   OH232759   4.035   7.935   5.153
10933TIP3    H132760   3.958   7.935   5.212
10933TIP3    H232761   4.109   7.939   5.216
10934TIP3   OH232762   3.428   7.978   5.145
10934TIP3    H132763   3.340   7.939   5.136
10934TIP3    H232764   3.485   7.898   5.140
10935TIP3   OH232765   3.743   7.999   4.798
10935TIP3    H132766   3.840   8.002   4.807
10935TIP3    H232767   3.722   8.092   4.776
10936TIP3   OH232768   4.508   8.034   5.361
10936TIP3    H132769   4.469   8.025   5.449
10936TIP3    H232770   4.456   7.969   5.310
10937TIP3   OH232771   4.130   8.264   5.261
10937TIP3    H132772   4.207   8.232   5.208
10937TIP3    H232773   4.159   8.249   5.351
10938TIP3   OH232774   3.616   7.770   5.125
10938TIP3    H132775   3.585   7.689   5.173
10938TIP3    H232776   3.668   7.730   5.053
10939TIP3   OH232777   4.067   8.170   5.546
10939TIP3    H132778   4.025   8.242   5.495
10939TIP3    H232779   4.135   8.220   5.593
10940TIP3   OH232780   4.272   7.881   4.496
10940TIP3    H132781   4.178   7.849   4.503
10940TIP3    H232782   4.258   7.976   4.480
10941TIP3   OH232783   4.385   8.118   4.660
10941TIP3    H132784   4.478   8.112   4.631
10941TIP3    H232785   4.338   8.146   4.580
10942TIP3   OH232786   4.761   8.189   4.447
10942TIP3    H132787   4.713   8.169   4.363
10942TIP3    H232788   4.824   8.258   4.418
10943TIP3   OH232789   3.597   8.011   5.903
10943TIP3    H132790   3.501   8.020   5.918
10943TIP3    H232791   3.624   7.968   5.986
10944TIP3   OH232792   4.448   8.101   5.636
10944TIP3    H132793   4.543   8.088   5.647
10944TIP3    H232794   4.416   8.018   5.679
10945TIP3   OH232795   4.321   7.830   4.772
10945TIP3    H132796   4.310   7.855   4.678
10945TIP3    H232797   4.355   7.914   4.810
10946TIP3   OH232798   4.009   7.998   4.880
10946TIP3    H132799   4.042   8.086   4.854
10946TIP3    H232800   4.018   8.001   4.977
10947TIP3   OH232801   4.269   8.309   5.677
10947TIP3    H132802   4.314   8.312   5.763
10947TIP3    H232803   4.325   8.239   5.635
10948TIP3   OH232804   4.153   7.732   4.975
10948TIP3    H132805   4.136   7.812   5.029
10948TIP3    H232806   4.216   7.768   4.908
10949TIP3   OH232807   3.670   7.736   4.762
10949TIP3    H132808   3.682   7.832   4.780
10949TIP3    H232809   3.763   7.707   4.773
10950TIP3   OH232810   3.232   7.904   4.628
10950TIP3    H132811   3.242   7.997   4.601
10950TIP3    H232812   3.137   7.891   4.619
10951TIP3   OH232813   3.618   7.651   5.525
10951TIP3    H132814   3.588   7.616   5.438
10951TIP3    H232815   3.608   7.573   5.583
10952TIP3   OH232816   4.004   8.188   5.968
10952TIP3    H132817   4.025   8.103   5.925
10952TIP3    H232818   3.997   8.245   5.891
10953TIP3   OH232819   4.025   8.002   5.763
10953TIP3    H132820   4.043   8.051   5.680
10953TIP3    H232821   3.931   7.978   5.748
10954TIP3   OH232822   3.859   8.345   6.137
10954TIP3    H132823   3.795   8.271   6.131
10954TIP3    H232824   3.930   8.309   6.082
10955TIP3   OH232825   4.158   7.769   5.828
10955TIP3    H132826   4.107   7.850   5.803
10955TIP3    H232827   4.090   7.699   5.815
10956TIP3   OH232828   3.671   8.105   6.194
10956TIP3    H132829   3.690   8.009   6.192
10956TIP3    H232830   3.712   8.132   6.278
10957TIP3   OH232831   4.245   7.786   6.088
10957TIP3    H132832   4.308   7.711   6.090
10957TIP3    H232833   4.212   7.779   5.996
10958TIP3   OH232834  -0.253   3.494   1.760
10958TIP3    H132835  -0.224   3.417   1.707
10958TIP3    H232836  -0.262   3.560   1.691
10959TIP3   OH232837   4.622   8.133   4.219
10959TIP3    H132838   4.582   8.120   4.131
10959TIP3    H232839   4.611   8.040   4.251
10960TIP3   OH232840   4.561   7.869   4.234
10960TIP3    H132841   4.638   7.828   4.279
10960TIP3    H232842   4.491   7.802   4.243
10961TIP3   OH232843   4.655   8.125   4.683
10961TIP3    H132844   4.690   8.036   4.708
10961TIP3    H232845   4.708   8.138   4.601
10962TIP3   OH232846   4.808   8.277   5.161
10962TIP3    H132847   4.793   8.356   5.105
10962TIP3    H232848   4.777   8.312   5.247
10963TIP3   OH232849   4.736   7.868   4.717
10963TIP3    H132850   4.783   7.851   4.801
10963TIP3    H232851   4.671   7.794   4.716
10964TIP3   OH232852   3.429   7.855   5.539
10964TIP3    H132853   3.493   7.782   5.546
10964TIP3    H232854   3.489   7.930   5.529
10965TIP3   OH232855   4.812   7.808   4.348
10965TIP3    H132856   4.854   7.738   4.294
10965TIP3    H232857   4.879   7.879   4.346
10966TIP3   OH232858   3.220   7.646   5.111
10966TIP3    H132859   3.127   7.634   5.137
10966TIP3    H232860   3.211   7.698   5.028
10967TIP3   OH232861   3.442   7.714   5.932
10967TIP3    H132862   3.382   7.709   6.008
10967TIP3    H232863   3.383   7.752   5.865
10968TIP3   OH232864   4.286   7.852   5.273
10968TIP3    H132865   4.240   7.777   5.315
10968TIP3    H232866   4.356   7.806   5.222
10969TIP3   OH232867   4.804   7.731   5.160
10969TIP3    H132868   4.837   7.784   5.084
10969TIP3    H232869   4.709   7.749   5.158
10970TIP3   OH232870   4.902   7.840   4.932
10970TIP3    H132871   4.975   7.785   4.893
10970TIP3    H232872   4.935   7.930   4.912
10971TIP3   OH232873   3.527   7.559   5.277
10971TIP3    H132874   3.435   7.525   5.282
10971TIP3    H232875   3.576   7.474   5.274
10972TIP3   OH232876   3.318   7.432   4.928
10972TIP3    H132877   3.348   7.487   4.853
10972TIP3    H232878   3.293   7.500   4.994
10973TIP3   OH232879   3.972   7.595   5.163
10973TIP3    H132880   4.029   7.638   5.097
10973TIP3    H232881   4.009   7.629   5.246
10974TIP3   OH232882   4.517   7.740   5.144
10974TIP3    H132883   4.522   7.697   5.058
10974TIP3    H232884   4.506   7.662   5.204
10975TIP3   OH232885   4.548   7.663   4.706
10975TIP3    H132886   4.461   7.706   4.722
10975TIP3    H232887   4.534   7.577   4.752
10976TIP3   OH232888   3.435   7.586   4.691
10976TIP3    H132889   3.481   7.524   4.632
10976TIP3    H232890   3.510   7.639   4.725
10977TIP3   OH232891   3.948   7.750   4.786
10977TIP3    H132892   4.007   7.700   4.844
10977TIP3    H232893   3.972   7.841   4.815
10978TIP3   OH232894   3.732   7.825   6.170
10978TIP3    H132895   3.707   7.750   6.227
10978TIP3    H232896   3.828   7.832   6.191
10979TIP3   OH232897   3.984   7.831   6.284
10979TIP3    H132898   4.073   7.847   6.249
10979TIP3    H232899   3.999   7.754   6.342
10980TIP3   OH232900   2.040   3.399  -0.514
10980TIP3    H132901   1.974   3.370  -0.447
10980TIP3    H232902   2.051   3.490  -0.485
10981TIP3   OH232903   5.825   8.035   4.012
10981TIP3    H132904   5.794   8.031   4.104
10981TIP3    H232905   5.784   7.954   3.977
10982TIP3   OH232906   5.500   8.370   4.567
10982TIP3    H132907   5.414   8.335   4.598
10982TIP3    H232908   5.516   8.315   4.489
10983TIP3   OH232909   5.477   8.020   3.973
10983TIP3    H132910   5.470   8.013   4.070
10983TIP3    H232911   5.399   8.073   3.952
10984TIP3   OH232912   5.023   8.063   4.832
10984TIP3    H132913   5.108   8.077   4.880
10984TIP3    H232914   5.049   8.011   4.753
10985TIP3   OH232915   4.994   8.030   4.360
10985TIP3    H132916   5.049   8.056   4.283
10985TIP3    H232917   4.957   8.117   4.384
10986TIP3   OH232918   5.250   8.251   4.617
10986TIP3    H132919   5.169   8.206   4.644
10986TIP3    H232920   5.310   8.173   4.605
10987TIP3   OH232921   5.557   8.254   4.319
10987TIP3    H132922   5.642   8.299   4.327
10987TIP3    H232923   5.505   8.329   4.282
10988TIP3   OH232924   5.404   8.031   4.600
10988TIP3    H132925   5.377   7.961   4.662
10988TIP3    H232926   5.486   7.994   4.564
10989TIP3   OH232927   6.084   8.125   3.988
10989TIP3    H132928   5.991   8.098   4.005
10989TIP3    H232929   6.074   8.222   3.981
10990TIP3   OH232930   5.465   7.994   4.244
10990TIP3    H132931   5.476   8.083   4.283
10990TIP3    H232932   5.556   7.960   4.254
10991TIP3   OH232933   5.030   8.162   4.114
10991TIP3    H132934   5.038   8.254   4.085
10991TIP3    H232935   4.935   8.148   4.109
10992TIP3   OH232936   5.413   7.907   5.019
10992TIP3    H132937   5.403   7.873   4.928
10992TIP3    H232938   5.414   7.826   5.072
10993TIP3   OH232939   6.356   8.141   3.732
10993TIP3    H132940   6.404   8.074   3.780
10993TIP3    H232941   6.270   8.097   3.717
10994TIP3   OH232942   5.242   8.112   4.984
10994TIP3    H132943   5.305   8.037   5.000
10994TIP3    H232944   5.299   8.187   5.005
10995TIP3   OH232945   5.010   7.906   4.600
10995TIP3    H132946   4.916   7.890   4.620
10995TIP3    H232947   5.005   7.956   4.517
10996TIP3   OH232948   5.329   7.817   4.765
10996TIP3    H132949   5.237   7.785   4.772
10996TIP3    H232950   5.377   7.732   4.761
10997TIP3   OH232951   5.112   7.689   4.413
10997TIP3    H132952   5.144   7.744   4.339
10997TIP3    H232953   5.091   7.757   4.480
10998TIP3   OH232954   5.732   7.858   4.665
10998TIP3    H132955   5.822   7.889   4.642
10998TIP3    H232956   5.711   7.917   4.740
10999TIP3   OH232957   6.352   7.900   4.189
10999TIP3    H132958   6.273   7.956   4.190
10999TIP3    H232959   6.326   7.826   4.247
11000TIP3   OH232960   5.229   7.843   4.177
11000TIP3    H132961   5.276   7.781   4.118
11000TIP3    H232962   5.304   7.896   4.212
11001TIP3   OH232963   5.747   8.020   4.281
11001TIP3    H132964   5.787   7.971   4.353
11001TIP3    H232965   5.730   8.106   4.323
11002TIP3   OH232966   5.761   2.483   7.766
11002TIP3    H132967   5.710   2.475   7.685
11002TIP3    H232968   5.731   2.569   7.801
11003TIP3   OH232969   5.959   2.383   7.429
11003TIP3    H132970   6.021   2.316   7.391
11003TIP3    H232971   5.992   2.388   7.521
11004TIP3   OH232972   6.014   2.413   7.703
11004TIP3    H132973   5.922   2.427   7.738
11004TIP3    H232974   6.067   2.432   7.782
11005TIP3   OH232975   5.822   1.914   7.659
11005TIP3    H132976   5.787   2.006   7.670
11005TIP3    H232977   5.804   1.877   7.747
11006TIP3   OH232978   6.486   2.489   7.281
11006TIP3    H132979   6.537   2.562   7.240
11006TIP3    H232980   6.405   2.537   7.309
11007TIP3   OH232981   5.516   1.932   7.464
11007TIP3    H132982   5.515   1.837   7.443
11007TIP3    H232983   5.496   1.929   7.561
11008TIP3   OH232984   5.467   1.946   7.732
11008TIP3    H132985   5.522   1.918   7.805
11008TIP3    H232986   5.469   2.044   7.742
11009TIP3   OH232987   5.722   2.161   7.677
11009TIP3    H132988   5.643   2.178   7.732
11009TIP3    H232989   5.732   2.248   7.635
11010TIP3   OH232990   5.459   2.215   7.750
11010TIP3    H132991   5.440   2.280   7.678
11010TIP3    H232992   5.390   2.236   7.813
11011TIP3   OH232993   5.198   1.888   7.699
11011TIP3    H132994   5.286   1.925   7.719
11011TIP3    H232995   5.224   1.810   7.647
11012TIP3   OH232996   5.663   2.140   7.369
11012TIP3    H132997   5.610   2.073   7.419
11012TIP3    H232998   5.751   2.099   7.371
11013TIP3   OH232999   6.106   2.198   7.294
11013TIP3    H133000   6.136   2.106   7.302
11013TIP3    H233001   6.158   2.222   7.215
11014TIP3   OH233002   5.321   1.670   7.582
11014TIP3    H133003   5.344   1.632   7.668
11014TIP3    H233004   5.404   1.663   7.533
11015TIP3   OH233005   5.810   1.860   7.394
11015TIP3    H133006   5.804   1.882   7.492
11015TIP3    H233007   5.775   1.772   7.395
11016TIP3   OH233008   5.433   2.415   7.568
11016TIP3    H133009   5.528   2.414   7.546
11016TIP3    H233010   5.400   2.470   7.494
11017TIP3   OH233011   5.696   2.380   7.506
11017TIP3    H133012   5.786   2.402   7.473
11017TIP3    H233013   5.675   2.305   7.446
11018TIP3   OH233014   5.000   2.219   7.567
11018TIP3    H133015   4.981   2.253   7.656
11018TIP3    H233016   5.085   2.172   7.579
11019TIP3   OH233017   4.293   3.713   7.453
11019TIP3    H133018   4.301   3.809   7.434
11019TIP3    H233019   4.386   3.684   7.441
11020TIP3   OH233020   3.519   4.069   7.882
11020TIP3    H133021   3.539   4.030   7.795
11020TIP3    H233022   3.568   4.011   7.943
11021TIP3   OH233023   3.808   3.935   7.559
11021TIP3    H133024   3.867   3.865   7.525
11021TIP3    H233025   3.845   3.951   7.649
11022TIP3   OH233026   3.886   3.974   7.819
11022TIP3    H133027   3.816   3.974   7.889
11022TIP3    H233028   3.950   3.917   7.864
11023TIP3   OH233029   4.042   3.156   7.590
11023TIP3    H133030   4.017   3.127   7.500
11023TIP3    H233031   4.131   3.193   7.574
11024TIP3   OH233032   4.545   2.965   7.777
11024TIP3    H133033   4.472   2.931   7.720
11024TIP3    H233034   4.539   3.060   7.757
11025TIP3   OH233035   4.224   3.781   7.715
11025TIP3    H133036   4.195   3.703   7.764
11025TIP3    H233037   4.240   3.745   7.626
11026TIP3   OH233038   3.985   3.518   7.606
11026TIP3    H133039   4.044   3.493   7.680
11026TIP3    H233040   3.901   3.477   7.631
11027TIP3   OH233041   4.322   3.987   7.435
11027TIP3    H133042   4.359   4.059   7.380
11027TIP3    H233043   4.241   4.032   7.467
11028TIP3   OH233044   4.174   3.467   7.802
11028TIP3    H133045   4.175   3.477   7.899
11028TIP3    H233046   4.270   3.455   7.785
11029TIP3   OH233047   3.342   3.488   7.600
11029TIP3    H133048   3.360   3.395   7.578
11029TIP3    H233049   3.268   3.480   7.662
11030TIP3   OH233050   3.509   3.688   7.858
11030TIP3    H133051   3.554   3.736   7.930
11030TIP3    H233052   3.546   3.731   7.780
11031TIP3   OH233053   3.513   3.686   7.520
11031TIP3    H133054   3.455   3.615   7.557
11031TIP3    H233055   3.587   3.634   7.484
11032TIP3   OH233056   3.949   3.735   7.437
11032TIP3    H133057   3.985   3.667   7.497
11032TIP3    H233058   4.007   3.729   7.359
11033TIP3   OH233059   3.675   3.415   7.586
11033TIP3    H133060   3.615   3.411   7.663
11033TIP3    H233061   3.683   3.319   7.567
11034TIP3   OH233062   4.285   3.242   7.478
11034TIP3    H133063   4.265   3.199   7.393
11034TIP3    H233064   4.252   3.332   7.457
11035TIP3   OH233065   3.280   3.959   7.715
11035TIP3    H133066   3.376   3.963   7.702
11035TIP3    H233067   3.250   4.020   7.645
11036TIP3   OH233068   4.449   3.446   7.798
11036TIP3    H133069   4.515   3.513   7.768
11036TIP3    H233070   4.496   3.403   7.872
11037TIP3   OH233071   4.488   3.214   7.655
11037TIP3    H133072   4.416   3.208   7.587
11037TIP3    H233073   4.461   3.296   7.700
11038TIP3   OH233074   4.353   2.871   7.609
11038TIP3    H133075   4.300   2.912   7.539
11038TIP3    H233076   4.327   2.777   7.600
11039TIP3   OH233077   4.309   2.600   7.610
11039TIP3    H133078   4.403   2.593   7.640
11039TIP3    H233079   4.266   2.535   7.665
11040TIP3   OH233080   4.563   2.576   7.702
11040TIP3    H133081   4.616   2.496   7.683
11040TIP3    H233082   4.633   2.643   7.717
11041TIP3   OH233083   4.193   4.114   7.992
11041TIP3    H133084   4.225   4.073   7.909
11041TIP3    H233085   4.226   4.205   7.981
11042TIP3   OH233086   3.549   3.926   7.647
11042TIP3    H133087   3.639   3.944   7.613
11042TIP3    H233088   3.526   3.847   7.594
11043TIP3   OH233089   4.278   4.048   7.739
11043TIP3    H133090   4.262   3.951   7.729
11043TIP3    H233091   4.220   4.083   7.668
11044TIP3   OH233092   5.756   3.575   7.706
11044TIP3    H133093   5.721   3.664   7.684
11044TIP3    H233094   5.678   3.520   7.684
11045TIP3   OH233095   5.772   3.584   8.091
11045TIP3    H133096   5.750   3.560   8.181
11045TIP3    H233097   5.726   3.516   8.041
11046TIP3   OH233098   5.997   3.860   7.769
11046TIP3    H133099   5.959   3.786   7.819
11046TIP3    H233100   5.983   3.935   7.828
11047TIP3   OH233101   5.643   4.334   7.786
11047TIP3    H133102   5.691   4.264   7.736
11047TIP3    H233103   5.646   4.301   7.876
11048TIP3   OH233104   5.996   3.042   7.766
11048TIP3    H133105   6.039   2.969   7.816
11048TIP3    H233106   6.068   3.074   7.708
11049TIP3   OH233107   5.364   3.354   7.974
11049TIP3    H133108   5.446   3.331   8.018
11049TIP3    H233109   5.324   3.267   7.956
11050TIP3   OH233110   5.643   3.796   7.582
11050TIP3    H133111   5.600   3.779   7.496
11050TIP3    H233112   5.597   3.878   7.609
11051TIP3   OH233113   4.636   3.613   7.694
11051TIP3    H133114   4.596   3.638   7.608
11051TIP3    H233115   4.663   3.700   7.730
11052TIP3   OH233116   5.772   4.154   7.625
11052TIP3    H133117   5.818   4.072   7.595
11052TIP3    H233118   5.831   4.220   7.582
11053TIP3   OH233119   5.913   3.943   7.521
11053TIP3    H133120   5.867   3.867   7.484
11053TIP3    H233121   5.955   3.904   7.601
11054TIP3   OH233122   5.583   3.420   7.545
11054TIP3    H133123   5.502   3.474   7.528
11054TIP3    H233124   5.627   3.423   7.458
11055TIP3   OH233125   5.542   3.208   7.256
11055TIP3    H133126   5.607   3.261   7.307
11055TIP3    H233127   5.603   3.146   7.210
11056TIP3   OH233128   5.933   3.505   7.512
11056TIP3    H133129   5.877   3.528   7.590
11056TIP3    H233130   6.017   3.481   7.557
11057TIP3   OH233131   5.156   3.521   7.907
11057TIP3    H133132   5.113   3.453   7.853
11057TIP3    H233133   5.229   3.469   7.948
11058TIP3   OH233134   5.293   3.937   8.072
11058TIP3    H133135   5.262   3.887   7.994
11058TIP3    H233136   5.363   3.879   8.107
11059TIP3   OH233137   5.771   3.361   7.341
11059TIP3    H133138   5.829   3.423   7.391
11059TIP3    H233139   5.798   3.382   7.248
11060TIP3   OH233140   5.516   4.042   7.620
11060TIP3    H133141   5.595   4.097   7.630
11060TIP3    H233142   5.455   4.101   7.572
11061TIP3   OH233143   6.266   2.615   7.386
11061TIP3    H133144   6.187   2.632   7.442
11061TIP3    H233145   6.264   2.691   7.324
11062TIP3   OH233146   5.033   3.337   7.721
11062TIP3    H133147   4.963   3.385   7.672
11062TIP3    H233148   4.987   3.257   7.748
11063TIP3   OH233149   6.086   3.969   6.941
11063TIP3    H133150   6.094   4.066   6.924
11063TIP3    H233151   6.179   3.941   6.930
11064TIP3   OH233152   5.401   4.284   7.423
11064TIP3    H133153   5.353   4.271   7.339
11064TIP3    H233154   5.368   4.372   7.451
11065TIP3   OH233155   4.833   4.134   7.804
11065TIP3    H133156   4.880   4.127   7.889
11065TIP3    H233157   4.769   4.062   7.814
11066TIP3   OH233158   5.597   4.190   7.058
11066TIP3    H133159   5.656   4.120   7.023
11066TIP3    H233160   5.631   4.201   7.149
11067TIP3   OH233161   5.649   4.238   7.326
11067TIP3    H133162   5.561   4.248   7.368
11067TIP3    H233163   5.703   4.208   7.400
11068TIP3   OH233164   5.849   3.403   7.086
11068TIP3    H133165   5.812   3.383   6.998
11068TIP3    H233166   5.930   3.451   7.062
11069TIP3   OH233167   5.561   2.780   7.392
11069TIP3    H133168   5.527   2.776   7.484
11069TIP3    H233169   5.518   2.700   7.356
11070TIP3   OH233170   5.228   3.117   7.937
11070TIP3    H133171   5.138   3.082   7.942
11070TIP3    H233172   5.257   3.075   7.853
11071TIP3   OH233173   5.721   3.223   7.675
11071TIP3    H133174   5.669   3.294   7.632
11071TIP3    H233175   5.776   3.190   7.602
11072TIP3   OH233176   5.884   3.262   7.897
11072TIP3    H133177   5.818   3.278   7.827
11072TIP3    H233178   5.922   3.179   7.863
11073TIP3   OH233179   5.217   2.757   7.356
11073TIP3    H133180   5.205   2.756   7.453
11073TIP3    H233181   5.140   2.811   7.329
11074TIP3   OH233182   4.739   2.774   7.763
11074TIP3    H133183   4.785   2.807   7.683
11074TIP3    H233184   4.674   2.848   7.774
11075TIP3   OH233185   5.564   2.961   7.997
11075TIP3    H133186   5.469   2.956   8.014
11075TIP3    H233187   5.599   2.981   8.085
11076TIP3   OH233188   5.265   2.999   7.697
11076TIP3    H133189   5.356   3.025   7.674
11076TIP3    H233190   5.213   3.028   7.618
11077TIP3   OH233191   5.106   3.044   7.484
11077TIP3    H133192   5.033   3.000   7.436
11077TIP3    H233193   5.156   3.083   7.410
11078TIP3   OH233194   5.710   3.300   8.108
11078TIP3    H133195   5.775   3.288   8.036
11078TIP3    H233196   5.723   3.221   8.164
11079TIP3   OH233197   5.262   2.786   7.964
11079TIP3    H133198   5.189   2.730   7.997
11079TIP3    H233199   5.244   2.788   7.870
11080TIP3   OH233200   5.355   3.572   7.493
11080TIP3    H133201   5.281   3.508   7.483
11080TIP3    H233202   5.334   3.611   7.581
11081TIP3   OH233203   5.811   2.885   7.356
11081TIP3    H133204   5.714   2.866   7.367
11081TIP3    H233205   5.819   2.979   7.382
11082TIP3   OH233206   5.881   3.134   7.460
11082TIP3    H133207   5.976   3.145   7.480
11082TIP3    H233208   5.859   3.216   7.410
11083TIP3   OH233209   5.500   3.724   7.319
11083TIP3    H133210   5.450   3.810   7.320
11083TIP3    H233211   5.444   3.670   7.379
11084TIP3   OH233212   6.318   3.224   7.298
11084TIP3    H133213   6.257   3.186   7.230
11084TIP3    H233214   6.321   3.316   7.264
11085TIP3   OH233215   6.036   4.042   7.209
11085TIP3    H133216   5.993   3.976   7.266
11085TIP3    H233217   6.039   3.998   7.122
11086TIP3   OH233218   5.142   3.911   7.805
11086TIP3    H133219   5.147   3.989   7.747
11086TIP3    H233220   5.054   3.878   7.783
11087TIP3   OH233221   4.716   3.202   7.502
11087TIP3    H133222   4.759   3.288   7.521
11087TIP3    H233223   4.637   3.207   7.561
11088TIP3   OH233224   5.284   3.679   7.728
11088TIP3    H133225   5.251   3.765   7.759
11088TIP3    H233226   5.247   3.620   7.797
11089TIP3   OH233227   5.070   4.141   7.647
11089TIP3    H133228   4.983   4.153   7.690
11089TIP3    H233229   5.104   4.234   7.648
11090TIP3   OH233230   5.782   3.773   7.105
11090TIP3    H133231   5.833   3.746   7.186
11090TIP3    H233232   5.692   3.747   7.131
11091TIP3   OH233233   6.120   4.244   6.926
11091TIP3    H133234   6.150   4.313   6.865
11091TIP3    H233235   6.041   4.289   6.963
11092TIP3   OH233236   5.940   3.705   7.321
11092TIP3    H133237   5.931   3.639   7.393
11092TIP3    H233238   6.037   3.703   7.307
11093TIP3   OH233239   5.147   3.751   7.107
11093TIP3    H133240   5.157   3.657   7.081
11093TIP3    H233241   5.124   3.742   7.201
11094TIP3   OH233242   5.089   3.757   7.379
11094TIP3    H133243   5.165   3.733   7.433
11094TIP3    H233244   5.092   3.856   7.385
11095TIP3   OH233245   4.823   3.449   7.580
11095TIP3    H133246   4.760   3.499   7.636
11095TIP3    H233247   4.838   3.516   7.510
11096TIP3   OH233248   5.864   2.835   7.634
11096TIP3    H133249   5.847   2.857   7.540
11096TIP3    H233250   5.896   2.921   7.670
11097TIP3   OH233251   5.358   3.954   7.327
11097TIP3    H133252   5.270   3.978   7.362
11097TIP3    H233253   5.373   4.030   7.268
11098TIP3   OH233254   5.544   3.021   7.731
11098TIP3    H133255   5.606   3.096   7.715
11098TIP3    H233256   5.555   3.010   7.828
11099TIP3   OH233257   5.690   2.739   7.828
11099TIP3    H133258   5.670   2.812   7.889
11099TIP3    H233259   5.758   2.779   7.770
11100TIP3   OH233260   5.103   4.028   7.396
11100TIP3    H133261   5.073   4.098   7.332
11100TIP3    H233262   5.088   4.074   7.482
11101TIP3   OH233263   5.203   2.741   7.633
11101TIP3    H133264   5.203   2.836   7.659
11101TIP3    H233265   5.300   2.724   7.641
11102TIP3   OH233266   6.130   3.407   7.913
11102TIP3    H133267   6.039   3.372   7.925
11102TIP3    H233268   6.142   3.460   7.994
11103TIP3   OH233269   4.819   3.655   7.385
11103TIP3    H133270   4.888   3.724   7.392
11103TIP3    H233271   4.862   3.598   7.318
11104TIP3   OH233272   4.762   2.929   7.524
11104TIP3    H133273   4.766   3.027   7.522
11104TIP3    H233274   4.674   2.912   7.490
11105TIP3   OH233275   4.678   3.868   7.777
11105TIP3    H133276   4.599   3.895   7.826
11105TIP3    H233277   4.661   3.913   7.691
11106TIP3   OH233278   5.308   3.954   7.015
11106TIP3    H133279   5.253   3.882   7.053
11106TIP3    H233280   5.383   3.904   6.980
11107TIP3   OH233281   5.743   3.994   6.930
11107TIP3    H133282   5.787   3.928   6.987
11107TIP3    H233283   5.796   3.991   6.848
11108TIP3   OH233284   4.955   3.469   7.242
11108TIP3    H133285   5.013   3.441   7.315
11108TIP3    H233286   5.020   3.476   7.169
11109TIP3   OH233287   5.473   3.672   7.049
11109TIP3    H133288   5.471   3.683   7.146
11109TIP3    H233289   5.469   3.574   7.042
11110TIP3   OH233290   5.158   3.379   7.460
11110TIP3    H133291   5.130   3.342   7.545
11110TIP3    H233292   5.196   3.301   7.414
11111TIP3   OH233293   5.264   3.171   7.300
11111TIP3    H133294   5.238   3.182   7.206
11111TIP3    H233295   5.361   3.174   7.293
11112TIP3   OH233296   6.083   3.498   6.968
11112TIP3    H133297   6.063   3.456   6.882
11112TIP3    H233298   6.050   3.589   6.949
11113TIP3   OH233299   5.071   4.227   7.207
11113TIP3    H133300   5.166   4.223   7.189
11113TIP3    H233301   5.042   4.282   7.131
11114TIP3   OH233302   4.551   3.614   7.424
11114TIP3    H133303   4.646   3.634   7.406
11114TIP3    H233304   4.543   3.525   7.383
11115TIP3   OH233305   4.468   4.227   7.825
11115TIP3    H133306   4.406   4.166   7.779
11115TIP3    H233307   4.524   4.164   7.874
11116TIP3   OH233308   4.608   4.075   8.004
11116TIP3    H133309   4.528   4.023   8.025
11116TIP3    H233310   4.614   4.137   8.079
11117TIP3   OH233311   6.215   3.689   7.294
11117TIP3    H133312   6.282   3.754   7.266
11117TIP3    H233313   6.257   3.654   7.376
11118TIP3   OH233314   6.332   3.568   7.506
11118TIP3    H133315   6.268   3.520   7.565
11118TIP3    H233316   6.396   3.604   7.571
11119TIP3   OH233317   6.285   3.464   7.148
11119TIP3    H133318   6.214   3.464   7.080
11119TIP3    H233319   6.254   3.539   7.202
11120TIP3   OH233320   6.156   3.135   7.097
11120TIP3    H133321   6.109   3.175   7.023
11120TIP3    H233322   6.127   3.042   7.090
11121TIP3   OH233323   6.160   3.408   7.643
11121TIP3    H133324   6.162   3.312   7.624
11121TIP3    H233325   6.154   3.409   7.742
11122TIP3   OH233326   6.085   2.874   7.077
11122TIP3    H133327   6.163   2.839   7.126
11122TIP3    H233328   6.014   2.810   7.098
11123TIP3   OH233329   6.164   3.137   7.542
11123TIP3    H133330   6.200   3.047   7.556
11123TIP3    H233331   6.221   3.167   7.467
11124TIP3   OH233332   6.255   2.881   7.582
11124TIP3    H133333   6.322   2.858   7.649
11124TIP3    H233334   6.193   2.806   7.590
11125TIP3   OH233335   6.323   2.808   7.198
11125TIP3    H133336   6.373   2.736   7.154
11125TIP3    H233337   6.389   2.879   7.197
11126TIP3   OH233338   5.910   4.331   7.481
11126TIP3    H133339   5.966   4.339   7.401
11126TIP3    H233340   5.944   4.403   7.538
11127TIP3   OH233341   4.976   4.103   8.033
11127TIP3    H133342   5.021   4.020   8.052
11127TIP3    H233343   5.053   4.163   8.029
11128TIP3   OH233344   5.237   4.206   8.041
11128TIP3    H133345   5.258   4.115   8.012
11128TIP3    H233346   5.275   4.201   8.130
11129TIP3   OH233347   4.848   2.430   7.754
11129TIP3    H133348   4.881   2.508   7.705
11129TIP3    H233349   4.846   2.460   7.846
11130TIP3   OH233350   6.076   2.667   7.584
11130TIP3    H133351   5.994   2.717   7.604
11130TIP3    H233352   6.055   2.580   7.624
11131TIP3   OH233353   4.565   4.010   7.576
11131TIP3    H133354   4.479   3.976   7.546
11131TIP3    H233355   4.559   4.101   7.543
11132TIP3   OH233356   4.971   2.599   7.550
11132TIP3    H133357   5.017   2.533   7.495
11132TIP3    H233358   5.046   2.649   7.588
11133TIP3   OH233359   5.479   2.767   7.655
11133TIP3    H133360   5.544   2.728   7.717
11133TIP3    H233361   5.495   2.861   7.676
11134TIP3   OH233362   5.339   4.187   7.156
11134TIP3    H133363   5.426   4.213   7.119
11134TIP3    H233364   5.316   4.114   7.095
11135TIP3   OH233365   6.060   4.311   7.248
11135TIP3    H133366   6.052   4.213   7.239
11135TIP3    H233367   6.010   4.341   7.170
11136TIP3   OH233368   4.639   4.023   7.208
11136TIP3    H133369   4.645   4.055   7.298
11136TIP3    H233370   4.728   3.982   7.194
11137TIP3   OH233371   6.530   3.377   7.449
11137TIP3    H133372   6.449   3.431   7.459
11137TIP3    H233373   6.495   3.287   7.449
11138TIP3   OH233374   6.581   3.626   7.613
11138TIP3    H133375   6.640   3.569   7.665
11138TIP3    H233376   6.590   3.585   7.526
11139TIP3   OH233377   6.423   3.850   7.186
11139TIP3    H133378   6.377   3.872   7.102
11139TIP3    H233379   6.444   3.941   7.220
11140TIP3   OH233380   7.378   3.720   6.891
11140TIP3    H133381   7.291   3.756   6.913
11140TIP3    H233382   7.401   3.673   6.975
11141TIP3   OH233383   7.327   3.461   6.731
11141TIP3    H133384   7.366   3.517   6.800
11141TIP3    H233385   7.390   3.387   6.726
11142TIP3   OH233386   6.625   4.373   7.298
11142TIP3    H133387   6.628   4.380   7.395
11142TIP3    H233388   6.551   4.312   7.286
11143TIP3   OH233389   7.383   4.423   6.529
11143TIP3    H133390   7.438   4.346   6.502
11143TIP3    H233391   7.418   4.448   6.615
11144TIP3   OH233392   7.647   3.663   6.583
11144TIP3    H133393   7.604   3.638   6.500
11144TIP3    H233394   7.728   3.704   6.547
11145TIP3   OH233395   7.016   3.040   6.830
11145TIP3    H133396   7.015   3.004   6.920
11145TIP3    H233397   6.930   3.086   6.822
11146TIP3   OH233398   6.534   3.057   7.226
11146TIP3    H133399   6.571   3.095   7.143
11146TIP3    H233400   6.473   3.128   7.251
11147TIP3   OH233401   6.893   3.313   6.970
11147TIP3    H133402   6.826   3.264   6.921
11147TIP3    H233403   6.953   3.341   6.898
11148TIP3   OH233404   7.116   3.848   6.981
11148TIP3    H133405   7.057   3.771   6.968
11148TIP3    H233406   7.105   3.866   7.075
11149TIP3   OH233407   7.308   4.001   6.774
11149TIP3    H133408   7.251   4.076   6.801
11149TIP3    H233409   7.296   3.939   6.848
11150TIP3   OH233410   6.871   4.086   7.214
11150TIP3    H133411   6.881   4.159   7.149
11150TIP3    H233412   6.802   4.126   7.270
11151TIP3   OH233413   6.507   3.457   6.989
11151TIP3    H133414   6.552   3.538   7.015
11151TIP3    H233415   6.428   3.459   7.048
11152TIP3   OH233416   7.038   3.878   7.259
11152TIP3    H133417   7.013   3.973   7.253
11152TIP3    H233418   7.113   3.882   7.321
11153TIP3   OH233419   6.865   4.353   7.147
11153TIP3    H133420   6.775   4.366   7.183
11153TIP3    H233421   6.897   4.445   7.159
11154TIP3   OH233422   7.577   4.022   6.595
11154TIP3    H133423   7.618   3.949   6.644
11154TIP3    H233424   7.485   4.015   6.625
11155TIP3   OH233425   6.941   4.006   6.597
11155TIP3    H133426   6.953   3.915   6.564
11155TIP3    H233427   6.914   3.990   6.689
11156TIP3   OH233428   6.892   4.005   6.874
11156TIP3    H133429   6.984   3.985   6.895
11156TIP3    H233430   6.892   4.104   6.873
11157TIP3   OH233431   6.682   3.771   7.122
11157TIP3    H133432   6.591   3.780   7.159
11157TIP3    H233433   6.661   3.803   7.031
11158TIP3   OH233434   7.153   4.220   6.826
11158TIP3    H133435   7.062   4.243   6.850
11158TIP3    H233436   7.170   4.289   6.760
11159TIP3   OH233437   6.893   4.280   6.877
11159TIP3    H133438   6.868   4.352   6.813
11159TIP3    H233439   6.877   4.324   6.962
11160TIP3   OH233440   6.617   3.903   6.882
11160TIP3    H133441   6.681   3.977   6.881
11160TIP3    H233442   6.656   3.849   6.809
11161TIP3   OH233443   6.557   3.189   6.992
11161TIP3    H133444   6.558   3.287   6.996
11161TIP3    H233445   6.473   3.172   6.949
11162TIP3   OH233446   6.476   4.112   7.252
11162TIP3    H133447   6.417   4.143   7.322
11162TIP3    H233448   6.441   4.162   7.174
11163TIP3   OH233449   7.105   4.204   6.502
11163TIP3    H133450   7.051   4.131   6.539
11163TIP3    H233451   7.176   4.154   6.458
11164TIP3   OH233452   7.527   4.229   6.409
11164TIP3    H133453   7.576   4.166   6.465
11164TIP3    H233454   7.575   4.226   6.323
11165TIP3   OH233455   6.748   3.726   6.726
11165TIP3    H133456   6.808   3.688   6.791
11165TIP3    H233457   6.810   3.733   6.649
11166TIP3   OH233458   7.261   3.921   6.522
11166TIP3    H133459   7.269   3.942   6.617
11166TIP3    H233460   7.263   3.823   6.523
11167TIP3   OH233461   6.959   3.613   6.974
11167TIP3    H133462   6.922   3.531   7.011
11167TIP3    H233463   7.008   3.572   6.899
11168TIP3   OH233464   7.058   3.437   6.785
11168TIP3    H133465   7.029   3.439   6.691
11168TIP3    H233466   7.155   3.432   6.771
11169TIP3   OH233467   7.856   3.753   6.442
11169TIP3    H133468   7.848   3.711   6.354
11169TIP3    H233469   7.863   3.847   6.413
11170TIP3   OH233470   6.870   4.492   6.705
11170TIP3    H133471   6.965   4.484   6.684
11170TIP3    H233472   6.840   4.538   6.624
11171TIP3   OH233473   6.345   3.867   6.914
11171TIP3    H133474   6.440   3.887   6.898
11171TIP3    H233475   6.336   3.781   6.870
11172TIP3   OH233476   6.262   4.477   7.322
11172TIP3    H133477   6.194   4.417   7.283
11172TIP3    H233478   6.308   4.417   7.383
11173TIP3   OH233479   6.420   4.334   7.503
11173TIP3    H133480   6.371   4.292   7.575
11173TIP3    H233481   6.462   4.410   7.549
11174TIP3   OH233482   6.513   2.877   7.419
11174TIP3    H133483   6.418   2.890   7.432
11174TIP3    H233484   6.534   2.948   7.354
11175TIP3   OH233485   6.596   2.725   7.193
11175TIP3    H133486   6.653   2.780   7.138
11175TIP3    H233487   6.596   2.771   7.279
11176TIP3   OH233488   6.363   4.269   7.064
11176TIP3    H133489   6.277   4.234   7.032
11176TIP3    H233490   6.355   4.360   7.030
11177TIP3   OH233491   6.778   2.854   7.027
11177TIP3    H133492   6.828   2.792   6.971
11177TIP3    H233493   6.849   2.906   7.067
11178TIP3   OH233494   7.125   4.440   6.631
11178TIP3    H133495   7.212   4.470   6.599
11178TIP3    H233496   7.110   4.363   6.572
11179TIP3   OH233497   6.437   4.279   6.694
11179TIP3    H133498   6.440   4.314   6.784
11179TIP3    H233499   6.527   4.239   6.683
11180TIP3   OH233500   2.126   5.276   7.605
11180TIP3    H133501   2.142   5.370   7.581
11180TIP3    H233502   2.215   5.239   7.589
11181TIP3   OH233503   1.616   5.488   7.681
11181TIP3    H133504   1.669   5.408   7.663
11181TIP3    H233505   1.663   5.528   7.756
11182TIP3   OH233506   1.946   4.674   7.700
11182TIP3    H133507   1.893   4.630   7.629
11182TIP3    H233508   2.017   4.717   7.648
11183TIP3   OH233509   2.087   5.286   7.886
11183TIP3    H133510   1.996   5.322   7.893
11183TIP3    H233511   2.097   5.278   7.790
11184TIP3   OH233512   2.173   5.541   7.577
11184TIP3    H133513   2.204   5.602   7.508
11184TIP3    H233514   2.099   5.594   7.613
11185TIP3   OH233515   1.392   5.190   7.653
11185TIP3    H133516   1.323   5.172   7.719
11185TIP3    H233517   1.466   5.221   7.710
11186TIP3   OH233518   1.805   5.304   7.576
11186TIP3    H133519   1.885   5.318   7.628
11186TIP3    H233520   1.841   5.303   7.485
11187TIP3   OH233521   2.162   4.824   7.610
11187TIP3    H133522   2.151   4.781   7.523
11187TIP3    H233523   2.108   4.906   7.595
11188TIP3   OH233524   2.352   4.844   7.803
11188TIP3    H133525   2.280   4.836   7.736
11188TIP3    H233526   2.305   4.828   7.886
11189TIP3   OH233527   2.128   5.627   7.907
11189TIP3    H133528   2.091   5.541   7.931
11189TIP3    H233529   2.089   5.642   7.819
11190TIP3   OH233530   3.591   5.134   7.860
11190TIP3    H133531   3.564   5.222   7.888
11190TIP3    H233532   3.507   5.094   7.829
11191TIP3   OH233533   3.818   5.417   7.930
11191TIP3    H133534   3.839   5.335   7.977
11191TIP3    H233535   3.859   5.483   7.987
11192TIP3   OH233536   3.483   5.891   7.943
11192TIP3    H133537   3.527   5.824   7.887
11192TIP3    H233538   3.477   5.846   8.028
11193TIP3   OH233539   3.832   4.604   7.907
11193TIP3    H133540   3.901   4.581   7.974
11193TIP3    H233541   3.888   4.639   7.835
11194TIP3   OH233542   4.046   4.607   8.082
11194TIP3    H133543   4.036   4.630   8.175
11194TIP3    H233544   4.106   4.676   8.052
11195TIP3   OH233545   2.448   5.182   7.828
11195TIP3    H133546   2.417   5.165   7.736
11195TIP3    H233547   2.527   5.235   7.814
11196TIP3   OH233548   3.601   5.713   7.767
11196TIP3    H133549   3.647   5.629   7.743
11196TIP3    H233550   3.667   5.778   7.732
11197TIP3   OH233551   3.722   5.484   7.679
11197TIP3    H133552   3.750   5.419   7.613
11197TIP3    H233553   3.764   5.449   7.761
11198TIP3   OH233554   3.407   5.024   7.672
11198TIP3    H133555   3.326   4.973   7.656
11198TIP3    H233556   3.461   5.002   7.594
11199TIP3   OH233557   3.387   4.767   7.415
11199TIP3    H133558   3.460   4.821   7.449
11199TIP3    H233559   3.438   4.700   7.365
11200TIP3   OH233560   3.773   5.061   7.665
11200TIP3    H133561   3.721   5.081   7.746
11200TIP3    H233562   3.858   5.033   7.706
11201TIP3   OH233563   3.601   4.931   7.494
11201TIP3    H133564   3.667   4.983   7.545
11201TIP3    H233565   3.632   4.949   7.401
11202TIP3   OH233566   3.335   5.591   7.739
11202TIP3    H133567   3.421   5.626   7.768
11202TIP3    H233568   3.290   5.675   7.717
11203TIP3   OH233569   4.125   4.159   7.538
11203TIP3    H133570   4.044   4.184   7.587
11203TIP3    H233571   4.142   4.241   7.487
11204TIP3   OH233572   2.906   4.909   7.847
11204TIP3    H133573   2.818   4.930   7.812
11204TIP3    H233574   2.885   4.842   7.916
11205TIP3   OH233575   3.932   5.529   7.096
11205TIP3    H133576   3.942   5.624   7.072
11205TIP3    H233577   4.024   5.496   7.081
11206TIP3   OH233578   3.238   5.838   7.577
11206TIP3    H133579   3.198   5.819   7.489
11206TIP3    H233580   3.209   5.930   7.593
11207TIP3   OH233581   2.697   5.701   7.972
11207TIP3    H133582   2.737   5.674   8.056
11207TIP3    H233583   2.651   5.618   7.948
11208TIP3   OH233584   3.438   5.746   7.209
11208TIP3    H133585   3.497   5.678   7.171
11208TIP3    H233586   3.477   5.757   7.298
11209TIP3   OH233587   3.490   5.797   7.480
11209TIP3    H133588   3.402   5.805   7.522
11209TIP3    H233589   3.543   5.761   7.553
11210TIP3   OH233590   3.689   4.975   7.244
11210TIP3    H133591   3.651   4.947   7.159
11210TIP3    H233592   3.777   5.006   7.214
11211TIP3   OH233593   3.406   4.340   7.508
11211TIP3    H133594   3.370   4.348   7.599
11211TIP3    H233595   3.368   4.253   7.484
11212TIP3   OH233596   3.557   4.773   7.801
11212TIP3    H133597   3.525   4.858   7.768
11212TIP3    H233598   3.619   4.745   7.731
11213TIP3   OH233599   3.721   4.847   8.020
11213TIP3    H133600   3.646   4.838   7.958
11213TIP3    H233601   3.759   4.757   8.011
11214TIP3   OH233602   3.062   4.312   7.482
11214TIP3    H133603   3.052   4.321   7.579
11214TIP3    H233604   2.985   4.364   7.453
11215TIP3   OH233605   3.101   4.580   7.866
11215TIP3    H133606   3.188   4.616   7.846
11215TIP3    H233607   3.047   4.609   7.789
11216TIP3   OH233608   2.945   4.610   7.641
11216TIP3    H133609   2.876   4.561   7.594
11216TIP3    H233610   2.998   4.642   7.565
11217TIP3   OH233611   3.655   4.448   7.501
11217TIP3    H133612   3.560   4.424   7.506
11217TIP3    H233613   3.658   4.541   7.530
11218TIP3   OH233614   3.729   4.696   7.603
11218TIP3    H133615   3.824   4.694   7.625
11218TIP3    H233616   3.723   4.772   7.544
11219TIP3   OH233617   4.157   4.788   7.447
11219TIP3    H133618   4.095   4.744   7.384
11219TIP3    H233619   4.157   4.876   7.405
11220TIP3   OH233620   3.863   5.598   7.355
11220TIP3    H133621   3.847   5.515   7.402
11220TIP3    H233622   3.881   5.566   7.264
11221TIP3   OH233623   2.971   5.449   7.896
11221TIP3    H133624   2.985   5.541   7.868
11221TIP3    H233625   2.875   5.448   7.908
11222TIP3   OH233626   2.559   4.773   7.643
11222TIP3    H133627   2.615   4.850   7.665
11222TIP3    H233628   2.486   4.789   7.707
11223TIP3   OH233629   3.160   5.250   7.880
11223TIP3    H133630   3.093   5.316   7.907
11223TIP3    H233631   3.124   5.169   7.918
11224TIP3   OH233632   2.906   5.706   7.791
11224TIP3    H133633   2.828   5.718   7.849
11224TIP3    H233634   2.935   5.800   7.782
11225TIP3   OH233635   3.624   5.330   7.252
11225TIP3    H133636   3.669   5.305   7.336
11225TIP3    H233637   3.544   5.275   7.255
11226TIP3   OH233638   3.959   5.803   7.074
11226TIP3    H133639   3.997   5.873   7.019
11226TIP3    H233640   3.879   5.850   7.106
11227TIP3   OH233641   3.784   5.277   7.491
11227TIP3    H133642   3.773   5.200   7.550
11227TIP3    H233643   3.878   5.265   7.465
11228TIP3   OH233644   3.024   5.288   7.257
11228TIP3    H133645   2.996   5.199   7.228
11228TIP3    H233646   2.995   5.287   7.351
11229TIP3   OH233647   2.956   5.313   7.528
11229TIP3    H133648   2.941   5.273   7.614
11229TIP3    H233649   2.945   5.409   7.544
11230TIP3   OH233650   2.668   5.008   7.734
11230TIP3    H133651   2.600   5.032   7.800
11230TIP3    H233652   2.666   5.083   7.672
11231TIP3   OH233653   3.707   4.386   7.780
11231TIP3    H133654   3.696   4.416   7.689
11231TIP3    H233655   3.739   4.466   7.827
11232TIP3   OH233656   3.207   5.489   7.501
11232TIP3    H133657   3.115   5.523   7.500
11232TIP3    H233658   3.236   5.516   7.412
11233TIP3   OH233659   3.403   4.577   7.912
11233TIP3    H133660   3.466   4.642   7.872
11233TIP3    H233661   3.462   4.518   7.959
11234TIP3   OH233662   2.953   5.584   7.547
11234TIP3    H133663   2.922   5.651   7.482
11234TIP3    H233664   2.932   5.630   7.632
11235TIP3   OH233665   3.042   4.327   7.747
11235TIP3    H133666   3.026   4.406   7.801
11235TIP3    H233667   3.139   4.322   7.754
11236TIP3   OH233668   3.969   4.962   8.065
11236TIP3    H133669   3.875   4.934   8.065
11236TIP3    H233670   4.001   4.929   8.150
11237TIP3   OH233671   2.660   5.215   7.539
11237TIP3    H133672   2.709   5.296   7.520
11237TIP3    H233673   2.708   5.153   7.479
11238TIP3   OH233674   2.600   4.506   7.604
11238TIP3    H133675   2.597   4.602   7.624
11238TIP3    H233676   2.569   4.468   7.688
11239TIP3   OH233677   2.572   5.471   7.904
11239TIP3    H133678   2.502   5.436   7.962
11239TIP3    H233679   2.517   5.503   7.828
11240TIP3   OH233680   3.155   5.514   7.173
11240TIP3    H133681   3.106   5.432   7.198
11240TIP3    H233682   3.229   5.476   7.120
11241TIP3   OH233683   3.582   5.553   7.078
11241TIP3    H133684   3.628   5.490   7.137
11241TIP3    H233685   3.637   5.549   6.996
11242TIP3   OH233686   2.799   5.032   7.396
11242TIP3    H133687   2.854   4.994   7.468
11242TIP3    H233688   2.865   5.032   7.324
11243TIP3   OH233689   3.318   5.230   7.228
11243TIP3    H133690   3.221   5.228   7.232
11243TIP3    H233691   3.338   5.134   7.220
11244TIP3   OH233692   2.994   4.944   7.589
11244TIP3    H133693   2.976   4.928   7.684
11244TIP3    H233694   3.033   4.859   7.561
11245TIP3   OH233695   3.107   4.723   7.450
11245TIP3    H133696   3.080   4.731   7.356
11245TIP3    H233697   3.204   4.725   7.441
11246TIP3   OH233698   3.920   5.057   7.121
11246TIP3    H133699   3.909   5.011   7.035
11246TIP3    H233700   3.887   5.146   7.095
11247TIP3   OH233701   2.913   5.782   7.358
11247TIP3    H133702   3.009   5.782   7.340
11247TIP3    H233703   2.883   5.837   7.283
11248TIP3   OH233704   2.389   5.173   7.559
11248TIP3    H133705   2.484   5.192   7.544
11248TIP3    H233706   2.382   5.083   7.520
11249TIP3   OH233707   4.053   5.250   7.448
11249TIP3    H133708   4.124   5.309   7.414
11249TIP3    H233709   4.099   5.209   7.525
11250TIP3   OH233710   4.177   5.117   7.647
11250TIP3    H133711   4.121   5.070   7.712
11250TIP3    H233712   4.256   5.142   7.700
11251TIP3   OH233713   4.126   5.022   7.299
11251TIP3    H133714   4.055   5.022   7.230
11251TIP3    H233715   4.095   5.097   7.354
11252TIP3   OH233716   3.989   4.696   7.256
11252TIP3    H133717   3.966   4.728   7.168
11252TIP3    H233718   3.966   4.600   7.246
11253TIP3   OH233719   3.998   4.966   7.795
11253TIP3    H133720   4.005   4.871   7.781
11253TIP3    H233721   3.995   4.972   7.894
11254TIP3   OH233722   3.941   4.428   7.237
11254TIP3    H133723   4.013   4.395   7.294
11254TIP3    H233724   3.866   4.369   7.257
11255TIP3   OH233725   3.999   4.687   7.688
11255TIP3    H133726   4.040   4.598   7.704
11255TIP3    H233727   4.057   4.718   7.616
11256TIP3   OH233728   4.109   4.439   7.734
11256TIP3    H133729   4.152   4.418   7.819
11256TIP3    H233730   4.045   4.366   7.728
11257TIP3   OH233731   4.186   4.367   7.367
11257TIP3    H133732   4.226   4.300   7.308
11257TIP3    H233733   4.252   4.440   7.363
11258TIP3   OH233734   3.754   5.901   7.638
11258TIP3    H133735   3.797   5.890   7.551
11258TIP3    H233736   3.813   5.966   7.680
11259TIP3   OH233737   4.275   4.370   7.952
11259TIP3    H133738   4.349   4.334   7.900
11259TIP3    H233739   4.298   4.465   7.949
11260TIP3   OH233740   3.925   4.231   7.718
11260TIP3    H133741   3.842   4.277   7.745
11260TIP3    H233742   3.910   4.144   7.760
11261TIP3   OH233743   2.417   5.568   7.705
11261TIP3    H133744   2.332   5.529   7.679
11261TIP3    H233745   2.401   5.660   7.676
11262TIP3   OH233746   2.817   4.183   7.668
11262TIP3    H133747   2.856   4.095   7.654
11262TIP3    H233748   2.894   4.231   7.705
11263TIP3   OH233749   3.314   4.358   7.766
11263TIP3    H133750   3.353   4.295   7.828
11263TIP3    H233751   3.335   4.442   7.812
11264TIP3   OH233752   3.182   5.749   7.311
11264TIP3    H133753   3.269   5.771   7.273
11264TIP3    H233754   3.160   5.673   7.253
11265TIP3   OH233755   3.891   5.866   7.401
11265TIP3    H133756   3.885   5.768   7.388
11265TIP3    H233757   3.850   5.898   7.318
11266TIP3   OH233758   2.485   5.587   7.361
11266TIP3    H133759   2.490   5.603   7.456
11266TIP3    H233760   2.570   5.540   7.343
11267TIP3   OH233761   4.366   4.879   7.604
11267TIP3    H133762   4.335   4.968   7.625
11267TIP3    H233763   4.289   4.842   7.556
11268TIP3   OH233764   4.418   5.166   7.759
11268TIP3    H133765   4.465   5.105   7.820
11268TIP3    H233766   4.488   5.228   7.736
11269TIP3   OH233767   4.943   4.766   7.785
11269TIP3    H133768   4.923   4.846   7.732
11269TIP3    H233769   4.889   4.701   7.737
11270TIP3   OH233770   5.617   4.860   7.382
11270TIP3    H133771   5.690   4.840   7.446
11270TIP3    H233772   5.668   4.906   7.313
11271TIP3   OH233773   4.582   4.987   7.883
11271TIP3    H133774   4.675   4.987   7.909
11271TIP3    H233775   4.583   4.924   7.808
11272TIP3   OH233776   5.008   5.164   7.667
11272TIP3    H133777   5.102   5.141   7.683
11272TIP3    H233778   4.971   5.078   7.639
11273TIP3   OH233779   5.829   4.845   7.543
11273TIP3    H133780   5.814   4.827   7.637
11273TIP3    H233781   5.901   4.910   7.547
11274TIP3   OH233782   4.256   5.414   7.339
11274TIP3    H133783   4.223   5.439   7.250
11274TIP3    H233784   4.292   5.497   7.372
11275TIP3   OH233785   5.280   4.465   7.903
11275TIP3    H133786   5.274   4.374   7.936
11275TIP3    H233787   5.233   4.516   7.970
11276TIP3   OH233788   5.551   5.773   7.111
11276TIP3    H133789   5.516   5.700   7.059
11276TIP3    H233790   5.510   5.748   7.196
11277TIP3   OH233791   5.203   5.210   7.162
11277TIP3    H133792   5.139   5.283   7.169
11277TIP3    H233793   5.267   5.246   7.099
11278TIP3   OH233794   5.172   5.022   6.889
11278TIP3    H133795   5.225   5.073   6.953
11278TIP3    H233796   5.241   4.966   6.848
11279TIP3   OH233797   5.547   5.313   7.150
11279TIP3    H133798   5.492   5.377   7.202
11279TIP3    H233799   5.626   5.308   7.206
11280TIP3   OH233800   4.802   5.318   7.572
11280TIP3    H133801   4.764   5.257   7.506
11280TIP3    H233802   4.879   5.266   7.606
11281TIP3   OH233803   4.889   5.738   7.744
11281TIP3    H133804   4.907   5.704   7.655
11281TIP3    H233805   4.968   5.710   7.793
11282TIP3   OH233806   5.414   5.162   6.970
11282TIP3    H133807   5.464   5.227   7.025
11282TIP3    H233808   5.439   5.191   6.879
11283TIP3   OH233809   5.184   5.964   7.214
11283TIP3    H133810   5.175   5.923   7.303
11283TIP3    H233811   5.111   5.920   7.169
11284TIP3   OH233812   5.925   4.415   7.031
11284TIP3    H133813   5.843   4.438   7.078
11284TIP3    H233814   5.941   4.496   6.979
11285TIP3   OH233815   4.670   5.157   7.372
11285TIP3    H133816   4.601   5.201   7.318
11285TIP3    H233817   4.631   5.070   7.387
11286TIP3   OH233818   5.728   5.775   6.560
11286TIP3    H133819   5.728   5.870   6.538
11286TIP3    H233820   5.820   5.751   6.536
11287TIP3   OH233821   4.982   6.119   7.044
11287TIP3    H133822   4.976   6.069   6.960
11287TIP3    H233823   5.008   6.206   7.013
11288TIP3   OH233824   4.470   5.951   7.449
11288TIP3    H133825   4.518   5.942   7.534
11288TIP3    H233826   4.424   5.865   7.445
11289TIP3   OH233827   5.230   6.003   6.693
11289TIP3    H133828   5.293   5.933   6.663
11289TIP3    H233829   5.262   6.021   6.784
11290TIP3   OH233830   5.267   6.050   6.964
11290TIP3    H133831   5.208   6.042   7.042
11290TIP3    H233832   5.340   5.994   6.994
11291TIP3   OH233833   5.484   5.223   6.718
11291TIP3    H133834   5.451   5.198   6.630
11291TIP3    H233835   5.568   5.267   6.694
11292TIP3   OH233836   5.197   4.594   7.029
11292TIP3    H133837   5.162   4.592   7.120
11292TIP3    H233838   5.155   4.514   6.994
11293TIP3   OH233839   4.866   4.943   7.591
11293TIP3    H133840   4.773   4.918   7.608
11293TIP3    H233841   4.879   4.902   7.502
11294TIP3   OH233842   5.353   5.039   7.312
11294TIP3    H133843   5.297   5.106   7.266
11294TIP3    H233844   5.409   5.007   7.239
11295TIP3   OH233845   5.485   5.060   7.550
11295TIP3    H133846   5.432   5.079   7.470
11295TIP3    H233847   5.535   4.984   7.517
11296TIP3   OH233848   4.853   4.571   6.993
11296TIP3    H133849   4.842   4.573   7.090
11296TIP3    H233850   4.777   4.626   6.965
11297TIP3   OH233851   4.397   4.599   7.878
11297TIP3    H133852   4.469   4.649   7.921
11297TIP3    H233853   4.429   4.589   7.787
11298TIP3   OH233854   4.361   4.595   7.385
11298TIP3    H133855   4.405   4.631   7.305
11298TIP3    H233856   4.301   4.670   7.404
11299TIP3   OH233857   5.186   4.761   7.636
11299TIP3    H133858   5.112   4.770   7.699
11299TIP3    H233859   5.263   4.772   7.694
11300TIP3   OH233860   4.625   4.828   7.664
11300TIP3    H133861   4.532   4.834   7.630
11300TIP3    H233862   4.653   4.739   7.635
11301TIP3   OH233863   4.896   4.820   7.347
11301TIP3    H133864   4.989   4.842   7.328
11301TIP3    H233865   4.850   4.846   7.263
11302TIP3   OH233866   4.746   4.858   7.123
11302TIP3    H133867   4.677   4.813   7.070
11302TIP3    H233868   4.798   4.899   7.051
11303TIP3   OH233869   5.273   5.071   7.726
11303TIP3    H133870   5.350   5.071   7.665
11303TIP3    H233871   5.314   5.098   7.808
11304TIP3   OH233872   4.791   4.596   7.626
11304TIP3    H133873   4.764   4.514   7.673
11304TIP3    H233874   4.845   4.561   7.554
11305TIP3   OH233875   4.990   5.395   7.131
11305TIP3    H133876   4.921   5.327   7.122
11305TIP3    H233877   4.972   5.429   7.222
11306TIP3   OH233878   5.447   4.698   6.994
11306TIP3    H133879   5.351   4.681   7.004
11306TIP3    H233880   5.457   4.792   7.021
11307TIP3   OH233881   5.518   4.945   7.097
11307TIP3    H133882   5.613   4.962   7.112
11307TIP3    H233883   5.490   5.025   7.047
11308TIP3   OH233884   4.672   5.389   7.804
11308TIP3    H133885   4.716   5.386   7.717
11308TIP3    H233886   4.733   5.339   7.859
11309TIP3   OH233887   5.131   5.538   6.934
11309TIP3    H133888   5.096   5.625   6.960
11309TIP3    H233889   5.098   5.483   7.009
11310TIP3   OH233890   5.955   5.029   6.934
11310TIP3    H133891   5.892   4.986   6.871
11310TIP3    H233892   5.960   5.115   6.887
11311TIP3   OH233893   5.605   5.817   6.810
11311TIP3    H133894   5.579   5.732   6.848
11311TIP3    H233895   5.647   5.790   6.726
11312TIP3   OH233896   4.776   5.722   7.438
11312TIP3    H133897   4.786   5.801   7.382
11312TIP3    H233898   4.689   5.690   7.410
11313TIP3   OH233899   4.354   5.018   7.140
11313TIP3    H133900   4.398   5.103   7.160
11313TIP3    H233901   4.276   5.022   7.199
11314TIP3   OH233902   4.911   5.483   7.374
11314TIP3    H133903   4.878   5.570   7.403
11314TIP3    H233904   4.888   5.426   7.449
11315TIP3   OH233905   4.701   5.959   7.283
11315TIP3    H133906   4.615   5.969   7.328
11315TIP3    H233907   4.732   6.052   7.285
11316TIP3   OH233908   5.406   5.589   6.738
11316TIP3    H133909   5.460   5.552   6.812
11316TIP3    H233910   5.318   5.561   6.767
11317TIP3   OH233911   5.716   6.046   6.542
11317TIP3    H133912   5.722   6.102   6.461
11317TIP3    H233913   5.632   6.078   6.578
11318TIP3   OH233914   5.566   5.516   6.943
11318TIP3    H133915   5.535   5.477   7.027
11318TIP3    H233916   5.652   5.471   6.934
11319TIP3   OH233917   4.780   5.567   6.746
11319TIP3    H133918   4.795   5.475   6.717
11319TIP3    H233919   4.758   5.554   6.840
11320TIP3   OH233920   4.726   5.572   7.020
11320TIP3    H133921   4.809   5.543   7.061
11320TIP3    H233922   4.732   5.670   7.029
11321TIP3   OH233923   4.460   5.263   7.220
11321TIP3    H133924   4.393   5.308   7.274
11321TIP3    H233925   4.477   5.330   7.151
11322TIP3   OH233926   5.498   4.639   7.274
11322TIP3    H133927   5.479   4.665   7.182
11322TIP3    H233928   5.530   4.725   7.311
11323TIP3   OH233929   4.998   5.778   6.978
11323TIP3    H133930   4.906   5.799   7.003
11323TIP3    H233931   5.008   5.836   6.901
11324TIP3   OH233932   5.179   4.834   7.374
11324TIP3    H133933   5.241   4.909   7.362
11324TIP3    H233934   5.183   4.821   7.471
11325TIP3   OH233935   5.323   4.547   7.475
11325TIP3    H133936   5.321   4.617   7.543
11325TIP3    H233937   5.384   4.587   7.409
11326TIP3   OH233938   4.737   5.846   7.032
11326TIP3    H133939   4.707   5.917   6.970
11326TIP3    H233940   4.724   5.891   7.119
11327TIP3   OH233941   4.838   4.559   7.270
11327TIP3    H133942   4.836   4.651   7.305
11327TIP3    H233943   4.934   4.542   7.277
11328TIP3   OH233944   4.458   5.473   7.024
11328TIP3    H133945   4.534   5.533   7.033
11328TIP3    H233946   4.498   5.411   6.959
11329TIP3   OH233947   4.393   4.746   7.161
11329TIP3    H133948   4.402   4.844   7.159
11329TIP3    H233949   4.323   4.734   7.095
11330TIP3   OH233950   4.751   4.446   8.045
11330TIP3    H133951   4.750   4.435   7.947
11330TIP3    H233952   4.820   4.384   8.071
11331TIP3   OH233953   4.327   5.698   7.414
11331TIP3    H133954   4.242   5.724   7.450
11331TIP3    H233955   4.315   5.728   7.321
11332TIP3   OH233956   4.945   5.767   6.658
11332TIP3    H133957   4.887   5.696   6.693
11332TIP3    H233958   5.020   5.714   6.625
11333TIP3   OH233959   5.383   5.812   6.569
11333TIP3    H133960   5.419   5.746   6.631
11333TIP3    H233961   5.437   5.799   6.488
11334TIP3   OH233962   4.599   5.290   6.888
11334TIP3    H133963   4.660   5.258   6.958
11334TIP3    H233964   4.660   5.293   6.811
11335TIP3   OH233965   5.096   5.483   6.673
11335TIP3    H133966   5.099   5.497   6.770
11335TIP3    H233967   5.099   5.384   6.670
11336TIP3   OH233968   4.791   5.194   7.093
11336TIP3    H133969   4.772   5.154   7.180
11336TIP3    H233970   4.833   5.119   7.046
11337TIP3   OH233971   4.900   4.987   6.939
11337TIP3    H133972   4.876   4.996   6.844
11337TIP3    H233973   4.998   4.989   6.932
11338TIP3   OH233974   5.720   5.310   6.599
11338TIP3    H133975   5.697   5.269   6.513
11338TIP3    H233976   5.686   5.401   6.582
11339TIP3   OH233977   4.708   6.051   6.847
11339TIP3    H133978   4.804   6.042   6.830
11339TIP3    H233979   4.681   6.098   6.765
11340TIP3   OH233980   4.189   5.426   7.063
11340TIP3    H133981   4.282   5.448   7.043
11340TIP3    H233982   4.180   5.338   7.020
11341TIP3   OH233983   4.096   6.042   7.471
11341TIP3    H133984   4.033   5.977   7.432
11341TIP3    H233985   4.144   5.985   7.535
11342TIP3   OH233986   4.228   5.896   7.660
11342TIP3    H133987   4.243   5.805   7.689
11342TIP3    H233988   4.266   5.948   7.732
11343TIP3   OH233989   5.833   5.437   6.944
11343TIP3    H133990   5.874   5.527   6.938
11343TIP3    H233991   5.835   5.424   7.040
11344TIP3   OH233992   5.923   5.247   6.768
11344TIP3    H133993   5.854   5.254   6.698
11344TIP3    H233994   5.888   5.313   6.831
11345TIP3   OH233995   5.793   4.944   6.738
11345TIP3    H133996   5.746   4.984   6.663
11345TIP3    H233997   5.769   4.849   6.726
11346TIP3   OH233998   5.803   5.215   7.287
11346TIP3    H133999   5.792   5.121   7.265
11346TIP3    H234000   5.803   5.215   7.384
11347TIP3   OH234001   5.736   4.679   6.721
11347TIP3    H134002   5.805   4.647   6.783
11347TIP3    H234003   5.658   4.624   6.742
11348TIP3   OH234004   5.798   4.948   7.178
11348TIP3    H134005   5.833   4.858   7.196
11348TIP3    H234006   5.850   4.971   7.098
11349TIP3   OH234007   5.902   4.696   7.211
11349TIP3    H134008   5.950   4.680   7.295
11349TIP3    H234009   5.839   4.620   7.212
11350TIP3   OH234010   4.615   4.691   8.035
11350TIP3    H134011   4.663   4.606   8.045
11350TIP3    H234012   4.686   4.751   8.009
11351TIP3   OH234013   5.983   4.622   6.856
11351TIP3    H134014   6.020   4.555   6.794
11351TIP3    H234015   6.047   4.695   6.847
11352TIP3   OH234016   4.390   4.449   7.610
11352TIP3    H134017   4.297   4.447   7.639
11352TIP3    H234018   4.385   4.510   7.534
11353TIP3   OH234019   4.621   5.897   7.679
11353TIP3    H134020   4.642   5.803   7.680
11353TIP3    H234021   4.710   5.932   7.661
11354TIP3   OH234022   5.426   4.660   7.745
11354TIP3    H134023   5.399   4.589   7.805
11354TIP3    H234024   5.521   4.641   7.729
11355TIP3   OH234025   5.954   4.547   7.638
11355TIP3    H134026   5.985   4.601   7.562
11355TIP3    H234027   5.861   4.572   7.647
11356TIP3   OH234028   6.073   4.653   7.418
11356TIP3    H134029   6.142   4.592   7.385
11356TIP3    H234030   6.122   4.738   7.409
11357TIP3   OH234031   4.705   4.378   7.779
11357TIP3    H134032   4.610   4.353   7.780
11357TIP3    H234033   4.747   4.290   7.772
11358TIP3   OH234034   4.495   4.246   7.434
11358TIP3    H134035   4.521   4.302   7.358
11358TIP3    H234036   4.463   4.312   7.498
11359TIP3   OH234037   5.148   4.405   7.663
11359TIP3    H134038   5.192   4.455   7.593
11359TIP3    H234039   5.188   4.445   7.742
11360TIP3   OH234040   5.675   4.563   7.646
11360TIP3    H134041   5.660   4.531   7.557
11360TIP3    H234042   5.660   4.481   7.699
11361TIP3   OH234043   5.720   4.482   7.209
11361TIP3    H134044   5.636   4.530   7.226
11361TIP3    H234045   5.701   4.396   7.252
11362TIP3   OH234046   4.198   5.823   7.212
11362TIP3    H134047   4.113   5.789   7.177
11362TIP3    H234048   4.192   5.915   7.181
11363TIP3   OH234049   4.606   4.401   7.196
11363TIP3    H134050   4.654   4.342   7.135
11363TIP3    H234051   4.678   4.458   7.230
11364TIP3   OH234052   5.115   4.583   7.293
11364TIP3    H134053   5.179   4.542   7.354
11364TIP3    H234054   5.132   4.677   7.315
11365TIP3   OH234055   4.975   6.003   6.791
11365TIP3    H134056   5.064   6.024   6.756
11365TIP3    H234057   4.953   5.929   6.730
11366TIP3   OH234058   4.281   5.842   6.846
11366TIP3    H134059   4.291   5.862   6.940
11366TIP3    H234060   4.367   5.798   6.826
11367TIP3   OH234061   6.101   5.175   7.113
11367TIP3    H134062   6.030   5.201   7.173
11367TIP3    H234063   6.061   5.100   7.066
11368TIP3   OH234064   6.971   4.835   6.487
11368TIP3    H134065   6.929   4.841   6.575
11368TIP3    H234066   6.932   4.751   6.457
11369TIP3   OH234067   6.646   4.825   6.469
11369TIP3    H134068   6.628   4.821   6.565
11369TIP3    H234069   6.573   4.883   6.440
11370TIP3   OH234070   6.240   4.856   7.348
11370TIP3    H134071   6.270   4.948   7.345
11370TIP3    H234072   6.234   4.833   7.254
11371TIP3   OH234073   6.160   4.850   6.870
11371TIP3    H134074   6.203   4.888   6.790
11371TIP3    H234075   6.098   4.923   6.889
11372TIP3   OH234076   6.529   5.100   6.622
11372TIP3    H134077   6.459   5.063   6.566
11372TIP3    H234078   6.586   5.142   6.555
11373TIP3   OH234079   6.149   5.270   6.618
11373TIP3    H134080   6.194   5.340   6.667
11373TIP3    H234081   6.069   5.260   6.675
11374TIP3   OH234082   6.621   4.816   6.740
11374TIP3    H134083   6.610   4.910   6.758
11374TIP3    H234084   6.718   4.804   6.749
11375TIP3   OH234085   6.191   5.000   6.644
11375TIP3    H134086   6.199   5.097   6.641
11375TIP3    H234087   6.111   4.985   6.593
11376TIP3   OH234088   6.378   5.485   6.338
11376TIP3    H134089   6.416   5.448   6.418
11376TIP3    H234090   6.435   5.565   6.325
11377TIP3   OH234091   6.684   5.214   6.422
11377TIP3    H134092   6.632   5.202   6.340
11377TIP3    H234093   6.753   5.271   6.387
11378TIP3   OH234094   5.983   5.696   6.487
11378TIP3    H134095   6.049   5.703   6.557
11378TIP3    H234096   5.981   5.599   6.468
11379TIP3   OH234097   6.181   4.712   7.100
11379TIP3    H134098   6.087   4.699   7.120
11379TIP3    H234099   6.178   4.767   7.019
11380TIP3   OH234100   6.493   4.624   7.254
11380TIP3    H134101   6.396   4.622   7.251
11380TIP3    H234102   6.512   4.529   7.260
11381TIP3   OH234103   6.295   4.503   6.923
11381TIP3    H134104   6.316   4.558   6.846
11381TIP3    H234105   6.260   4.569   6.986
11382TIP3   OH234106   6.396   4.652   6.682
11382TIP3    H134107   6.443   4.593   6.620
11382TIP3    H234108   6.468   4.709   6.714
11383TIP3   OH234109   1.987   5.710   7.681
11383TIP3    H134110   1.892   5.714   7.699
11383TIP3    H234111   1.999   5.791   7.625
11384TIP3   OH234112   1.800   5.985   7.375
11384TIP3    H134113   1.859   5.958   7.448
11384TIP3    H234114   1.726   5.922   7.380
11385TIP3   OH234115   2.036   5.922   7.519
11385TIP3    H134116   2.070   5.871   7.443
11385TIP3    H234117   2.083   6.008   7.510
11386TIP3   OH234118   3.483   6.406   7.538
11386TIP3    H134119   3.551   6.399   7.610
11386TIP3    H234120   3.536   6.446   7.467
11387TIP3   OH234121   3.681   6.411   7.724
11387TIP3    H134122   3.700   6.340   7.786
11387TIP3    H234123   3.749   6.476   7.746
11388TIP3   OH234124   3.151   5.992   7.993
11388TIP3    H134125   3.172   5.916   8.050
11388TIP3    H234126   3.092   6.044   8.051
11389TIP3   OH234127   3.083   6.782   7.362
11389TIP3    H134128   2.986   6.770   7.364
11389TIP3    H234129   3.094   6.812   7.270
11390TIP3   OH234130   3.015   6.572   7.046
11390TIP3    H134131   3.076   6.635   7.088
11390TIP3    H234132   3.078   6.513   7.002
11391TIP3   OH234133   3.446   6.842   7.245
11391TIP3    H134134   3.401   6.888   7.318
11391TIP3    H234135   3.526   6.809   7.290
11392TIP3   OH234136   3.245   6.712   7.114
11392TIP3    H134137   3.311   6.770   7.159
11392TIP3    H234138   3.259   6.743   7.021
11393TIP3   OH234139   3.766   5.975   7.180
11393TIP3    H134140   3.684   6.000   7.227
11393TIP3    H234141   3.782   6.055   7.126
11394TIP3   OH234142   3.579   7.348   6.695
11394TIP3    H134143   3.604   7.441   6.712
11394TIP3    H234144   3.667   7.303   6.701
11395TIP3   OH234145   3.322   6.792   6.870
11395TIP3    H134146   3.289   6.761   6.784
11395TIP3    H234147   3.413   6.820   6.847
11396TIP3   OH234148   3.036   6.153   7.178
11396TIP3    H134149   3.001   6.147   7.269
11396TIP3    H234150   2.997   6.072   7.140
11397TIP3   OH234151   3.205   6.562   7.453
11397TIP3    H134152   3.163   6.637   7.405
11397TIP3    H234153   3.269   6.531   7.386
11398TIP3   OH234154   3.377   6.555   7.756
11398TIP3    H134155   3.383   6.640   7.710
11398TIP3    H234156   3.389   6.493   7.682
11399TIP3   OH234157   2.694   6.127   7.144
11399TIP3    H134158   2.683   6.132   7.241
11399TIP3    H234159   2.622   6.186   7.115
11400TIP3   OH234160   2.201   6.138   7.517
11400TIP3    H134161   2.272   6.152   7.452
11400TIP3    H234162   2.239   6.177   7.598
11401TIP3   OH234163   2.743   6.362   7.490
11401TIP3    H134164   2.829   6.396   7.465
11401TIP3    H234165   2.685   6.391   7.416
11402TIP3   OH234166   2.595   6.393   7.263
11402TIP3    H134167   2.526   6.358   7.203
11402TIP3    H234168   2.641   6.455   7.203
11403TIP3   OH234169   2.686   6.112   7.755
11403TIP3    H134170   2.660   6.022   7.777
11403TIP3    H234171   2.737   6.100   7.674
11404TIP3   OH234172   3.289   6.249   7.153
11404TIP3    H134173   3.192   6.234   7.157
11404TIP3    H234174   3.299   6.345   7.171
11405TIP3   OH234175   3.366   6.499   7.243
11405TIP3    H134176   3.462   6.514   7.257
11405TIP3    H234177   3.340   6.576   7.189
11406TIP3   OH234178   3.796   6.601   7.084
11406TIP3    H134179   3.735   6.556   7.021
11406TIP3    H234180   3.795   6.689   7.041
11407TIP3   OH234181   3.503   7.401   6.975
11407TIP3    H134182   3.413   7.367   6.991
11407TIP3    H234183   3.514   7.382   6.881
11408TIP3   OH234184   3.252   7.156   6.865
11408TIP3    H134185   3.299   7.115   6.941
11408TIP3    H234186   3.165   7.112   6.871
11409TIP3   OH234187   3.581   7.618   6.715
11409TIP3    H134188   3.565   7.692   6.651
11409TIP3    H234189   3.547   7.658   6.797
11410TIP3   OH234190   3.416   7.081   7.091
11410TIP3    H134191   3.411   6.997   7.141
11410TIP3    H234192   3.513   7.087   7.082
11411TIP3   OH234193   3.332   6.201   7.428
11411TIP3    H134194   3.319   6.222   7.333
11411TIP3    H234195   3.377   6.281   7.461
11412TIP3   OH234196   3.025   6.384   7.541
11412TIP3    H134197   3.089   6.445   7.497
11412TIP3    H234198   3.060   6.384   7.630
11413TIP3   OH234199   3.170   6.105   7.627
11413TIP3    H134200   3.209   6.149   7.706
11413TIP3    H234201   3.223   6.148   7.556
11414TIP3   OH234202   2.679   6.105   7.421
11414TIP3    H134203   2.679   6.199   7.452
11414TIP3    H234204   2.775   6.088   7.425
11415TIP3   OH234205   2.282   6.258   7.272
11415TIP3    H134206   2.297   6.334   7.214
11415TIP3    H234207   2.219   6.209   7.217
11416TIP3   OH234208   3.299   7.405   6.700
11416TIP3    H134209   3.265   7.359   6.779
11416TIP3    H234210   3.274   7.340   6.632
11417TIP3   OH234211   2.960   7.043   6.842
11417TIP3    H134212   2.897   7.043   6.915
11417TIP3    H234213   2.967   6.946   6.827
11418TIP3   OH234214   2.745   6.548   7.097
11418TIP3    H134215   2.714   6.555   7.004
11418TIP3    H234216   2.842   6.544   7.083
11419TIP3   OH234217   3.560   6.872   6.756
11419TIP3    H134218   3.543   6.825   6.672
11419TIP3    H234219   3.525   6.960   6.731
11420TIP3   OH234220   3.698   7.064   7.088
11420TIP3    H134221   3.766   7.125   7.053
11420TIP3    H234222   3.744   7.027   7.166
11421TIP3   OH234223   3.827   6.948   7.302
11421TIP3    H134224   3.767   6.880   7.342
11421TIP3    H234225   3.896   6.956   7.369
11422TIP3   OH234226   3.762   6.838   6.938
11422TIP3    H134227   3.693   6.833   6.869
11422TIP3    H234228   3.728   6.912   6.990
11423TIP3   OH234229   3.631   6.511   6.890
11423TIP3    H134230   3.592   6.538   6.806
11423TIP3    H234231   3.609   6.415   6.889
11424TIP3   OH234232   3.653   6.772   7.417
11424TIP3    H134233   3.658   6.675   7.418
11424TIP3    H234234   3.628   6.793   7.510
11425TIP3   OH234235   3.575   6.246   6.881
11425TIP3    H134236   3.650   6.208   6.930
11425TIP3    H234237   3.503   6.182   6.893
11426TIP3   OH234238   3.643   6.501   7.325
11426TIP3    H134239   3.679   6.410   7.338
11426TIP3    H234240   3.699   6.530   7.250
11427TIP3   OH234241   3.742   6.250   7.366
11427TIP3    H134242   3.793   6.233   7.448
11427TIP3    H234243   3.680   6.174   7.366
11428TIP3   OH234244   3.823   6.180   7.004
11428TIP3    H134245   3.862   6.111   6.945
11428TIP3    H234246   3.890   6.251   6.999
11429TIP3   OH234247   3.269   6.204   7.861
11429TIP3    H134248   3.246   6.127   7.916
11429TIP3    H234249   3.366   6.209   7.871
11430TIP3   OH234250   3.811   6.134   7.826
11430TIP3    H134251   3.845   6.167   7.740
11430TIP3    H234252   3.715   6.124   7.811
11431TIP3   OH234253   3.909   6.209   7.581
11431TIP3    H134254   3.978   6.152   7.541
11431TIP3    H234255   3.953   6.296   7.573
11432TIP3   OH234256   2.513   5.899   7.892
11432TIP3    H134257   2.434   5.850   7.917
11432TIP3    H234258   2.582   5.832   7.909
11433TIP3   OH234259   2.336   5.807   7.574
11433TIP3    H134260   2.379   5.855   7.501
11433TIP3    H234261   2.261   5.866   7.592
11434TIP3   OH234262   2.988   5.965   7.782
11434TIP3    H134263   3.041   6.013   7.716
11434TIP3    H234264   3.050   5.968   7.858
11435TIP3   OH234265   3.536   6.115   7.798
11435TIP3    H134266   3.524   6.080   7.709
11435TIP3    H234267   3.513   6.038   7.854
11436TIP3   OH234268   3.559   6.039   7.360
11436TIP3    H134269   3.472   6.081   7.372
11436TIP3    H234270   3.544   5.952   7.403
11437TIP3   OH234271   2.449   5.955   7.353
11437TIP3    H134272   2.494   5.898   7.288
11437TIP3    H234273   2.523   6.012   7.382
11438TIP3   OH234274   2.956   6.134   7.445
11438TIP3    H134275   3.024   6.096   7.502
11438TIP3    H234276   2.964   6.229   7.471
11439TIP3   OH234277   3.994   6.701   7.250
11439TIP3    H134278   3.954   6.789   7.244
11439TIP3    H234279   3.929   6.647   7.201
11440TIP3   OH234280   3.894   7.229   6.966
11440TIP3    H134281   3.855   7.240   6.877
11440TIP3    H234282   3.912   7.320   6.992
11441TIP3   OH234283   4.815   6.834   6.540
11441TIP3    H134284   4.847   6.835   6.633
11441TIP3    H234285   4.891   6.791   6.496
11442TIP3   OH234286   4.302   6.994   7.009
11442TIP3    H134287   4.225   7.000   6.949
11442TIP3    H234288   4.301   6.902   7.039
11443TIP3   OH234289   4.812   6.402   6.668
11443TIP3    H134290   4.783   6.404   6.761
11443TIP3    H234291   4.770   6.318   6.638
11444TIP3   OH234292   4.499   6.795   7.197
11444TIP3    H134293   4.423   6.749   7.239
11444TIP3    H234294   4.523   6.729   7.128
11445TIP3   OH234295   4.486   6.384   6.625
11445TIP3    H134296   4.479   6.384   6.723
11445TIP3    H234297   4.409   6.440   6.601
11446TIP3   OH234298   4.055   6.428   7.507
11446TIP3    H134299   4.144   6.466   7.510
11446TIP3    H234300   4.052   6.390   7.416
11447TIP3   OH234301   3.997   6.403   7.021
11447TIP3    H134302   4.048   6.436   6.944
11447TIP3    H234303   3.940   6.480   7.036
11448TIP3   OH234304   4.281   6.652   7.282
11448TIP3    H134305   4.184   6.647   7.275
11448TIP3    H234306   4.310   6.559   7.266
11449TIP3   OH234307   4.555   6.641   6.968
11449TIP3    H134308   4.630   6.688   6.930
11449TIP3    H234309   4.488   6.650   6.896
11450TIP3   OH234310   4.382   6.673   6.763
11450TIP3    H134311   4.312   6.628   6.713
11450TIP3    H234312   4.434   6.714   6.690
11451TIP3   OH234313   4.407   6.405   7.246
11451TIP3    H134314   4.387   6.334   7.310
11451TIP3    H234315   4.493   6.379   7.213
11452TIP3   OH234316   5.047   6.507   6.593
11452TIP3    H134317   4.968   6.462   6.632
11452TIP3    H234318   5.003   6.579   6.544
11453TIP3   OH234319   3.985   6.830   6.773
11453TIP3    H134320   4.033   6.913   6.795
11453TIP3    H234321   3.910   6.834   6.837
11454TIP3   OH234322   4.397   7.378   6.405
11454TIP3    H134323   4.403   7.305   6.342
11454TIP3    H234324   4.466   7.352   6.468
11455TIP3   OH234325   4.089   7.072   6.849
11455TIP3    H134326   4.024   7.120   6.904
11455TIP3    H234327   4.109   7.137   6.780
11456TIP3   OH234328   4.474   6.369   6.899
11456TIP3    H134329   4.474   6.455   6.946
11456TIP3    H234330   4.568   6.346   6.911
11457TIP3   OH234331   4.095   7.289   6.660
11457TIP3    H134332   4.148   7.369   6.647
11457TIP3    H234333   4.144   7.226   6.601
11458TIP3   OH234334   4.032   6.561   6.800
11458TIP3    H134335   4.035   6.658   6.793
11458TIP3    H234336   3.962   6.539   6.738
11459TIP3   OH234337   4.419   6.280   7.683
11459TIP3    H134338   4.404   6.283   7.587
11459TIP3    H234339   4.395   6.190   7.704
11460TIP3   OH234340   4.231   7.102   6.523
11460TIP3    H134341   4.288   7.062   6.593
11460TIP3    H234342   4.296   7.105   6.449
11461TIP3   OH234343   4.718   7.282   6.327
11461TIP3    H134344   4.738   7.275   6.421
11461TIP3    H234345   4.738   7.189   6.301
11462TIP3   OH234346   4.399   7.002   6.713
11462TIP3    H134347   4.406   6.976   6.806
11462TIP3    H234348   4.455   6.935   6.670
11463TIP3   OH234349   4.537   6.804   6.575
11463TIP3    H134350   4.512   6.807   6.480
11463TIP3    H234351   4.635   6.805   6.567
11464TIP3   OH234352   3.829   7.239   6.699
11464TIP3    H134353   3.923   7.259   6.680
11464TIP3    H234354   3.820   7.150   6.656
11465TIP3   OH234355   5.384   6.477   6.426
11465TIP3    H134356   5.444   6.427   6.369
11465TIP3    H234357   5.297   6.448   6.394
11466TIP3   OH234358   4.019   6.290   7.265
11466TIP3    H134359   3.925   6.265   7.270
11466TIP3    H234360   4.023   6.335   7.178
11467TIP3   OH234361   4.337   6.196   7.422
11467TIP3    H134362   4.245   6.165   7.423
11467TIP3    H234363   4.385   6.111   7.418
11468TIP3   OH234364   4.126   6.062   7.069
11468TIP3    H134365   4.158   6.114   6.994
11468TIP3    H234366   4.106   6.131   7.134
11469TIP3   OH234367   4.751   6.229   7.322
11469TIP3    H134368   4.837   6.261   7.290
11469TIP3    H234369   4.731   6.293   7.394
11470TIP3   OH234370   0.885   1.761   2.322
11470TIP3    H134371   0.832   1.839   2.341
11470TIP3    H234372   0.846   1.693   2.381
11471TIP3   OH234373   3.827   7.625   6.854
11471TIP3    H134374   3.785   7.576   6.782
11471TIP3    H234375   3.852   7.706   6.807
11472TIP3   OH234376   4.242   6.217   6.831
11472TIP3    H134377   4.289   6.154   6.772
11472TIP3    H234378   4.317   6.271   6.864
11473TIP3   OH234379   4.751   6.398   6.938
11473TIP3    H134380   4.805   6.341   6.995
11473TIP3    H234381   4.766   6.485   6.978
11474TIP3   OH234382   3.925   7.637   6.492
11474TIP3    H134383   3.958   7.669   6.577
11474TIP3    H234384   4.006   7.595   6.455
11475TIP3   OH234385   3.849   7.954   6.499
11475TIP3    H134386   3.880   7.905   6.421
11475TIP3    H234387   3.916   8.023   6.507
   7.80000    7.35391    6.36867    0.00000    0.00000   -2.60000    0.00000   -2.60000   -3.67696
